/*--------------------------------*- C++ -*----------------------------------*\
| =========                 |                                                 |
| \\      /  F ield         | OpenFOAM: The Open Source CFD Toolbox           |
|  \\    /   O peration     | Version:  4.x                                   |
|   \\  /    A nd           | Web:      www.OpenFOAM.org                      |
|    \\/     M anipulation  |                                                 |
\*---------------------------------------------------------------------------*/
FoamFile
{
    version     2.0;
    format      ascii;
    class       volScalarField;
    location    "1000";
    object      N2;
}
// * * * * * * * * * * * * * * * * * * * * * * * * * * * * * * * * * * * * * //

dimensions      [0 0 0 0 0 0 0];

internalField   nonuniform List<scalar> 
1175
(
0.6030939066
0.6030939066
0.6030939066
0.6030939066
0.6030939065
0.6030939064
0.6030939061
0.6030939051
0.603093902
0.6030938925
0.6030938657
0.6030937947
0.6030936216
0.60309324
0.6030924899
0.6030939066
0.6030939066
0.6030939066
0.6030939066
0.6030939065
0.6030939064
0.603093906
0.6030939046
0.6030939001
0.6030938858
0.6030938437
0.6030937278
0.6030934354
0.6030927766
0.603091482
0.6030939066
0.6030939066
0.6030939066
0.6030939066
0.6030939065
0.6030939063
0.6030939058
0.6030939036
0.6030938965
0.603093873
0.6030938001
0.6030935898
0.6030930372
0.6030917552
0.6030892296
0.6030939066
0.6030939066
0.6030939066
0.6030939066
0.6030939065
0.6030939063
0.6030939055
0.6030939026
0.6030938924
0.6030938578
0.603093746
0.6030934087
0.6030924833
0.6030902623
0.6030858547
0.6030939066
0.6030939066
0.6030939066
0.6030939066
0.6030939065
0.6030939063
0.6030939054
0.6030939021
0.6030938904
0.6030938499
0.6030937158
0.6030932996
0.6030921199
0.6030891992
0.6030833281
0.6030939066
0.6030939066
0.6030939066
0.6030939066
0.6030939065
0.6030939063
0.6030939055
0.6030939026
0.6030938924
0.6030938578
0.603093746
0.6030934087
0.6030924833
0.6030902624
0.6030858548
0.6030939066
0.6030939066
0.6030939066
0.6030939066
0.6030939065
0.6030939063
0.6030939058
0.6030939036
0.6030938965
0.603093873
0.6030938001
0.6030935898
0.6030930372
0.6030917553
0.6030892297
0.6030939066
0.6030939066
0.6030939066
0.6030939066
0.6030939065
0.6030939064
0.603093906
0.6030939046
0.6030939001
0.6030938858
0.6030938437
0.6030937278
0.6030934355
0.6030927767
0.6030914821
0.6030939066
0.6030939066
0.6030939066
0.6030939066
0.6030939065
0.6030939064
0.6030939061
0.6030939051
0.603093902
0.6030938925
0.6030938657
0.6030937947
0.6030936216
0.60309324
0.6030924901
0.6030939066
0.6030939066
0.6030939066
0.6030939066
0.6030939065
0.6030939064
0.603093906
0.6030939046
0.6030939001
0.6030938858
0.6030938437
0.6030937278
0.6030934354
0.6030927766
0.6030939066
0.6030939066
0.6030939066
0.6030939066
0.6030939065
0.6030939064
0.6030939058
0.6030939037
0.6030938967
0.6030938736
0.6030938015
0.6030935915
0.6030930347
0.6030917352
0.6030891726
0.6030939066
0.6030939066
0.6030939066
0.6030939066
0.6030939065
0.6030939063
0.6030939054
0.6030939021
0.6030938903
0.6030938489
0.6030937111
0.603093283
0.6030920762
0.6030891211
0.6030832323
0.6030939066
0.6030939066
0.6030939066
0.6030939065
0.6030939065
0.6030939062
0.603093905
0.6030939003
0.6030938825
0.603093817
0.603093586
0.6030928201
0.6030905087
0.6030844885
0.6030721915
0.6030939066
0.6030939066
0.6030939066
0.6030939065
0.6030939065
0.6030939061
0.6030939047
0.6030938993
0.6030938783
0.6030937985
0.6030935058
0.603092487
0.6030892224
0.6030801309
0.6030606915
0.6030939066
0.6030939066
0.6030939066
0.6030939065
0.6030939065
0.6030939062
0.603093905
0.6030939003
0.6030938825
0.603093817
0.603093586
0.6030928201
0.6030905088
0.6030844887
0.603072192
0.6030939066
0.6030939066
0.6030939066
0.6030939066
0.6030939065
0.6030939063
0.6030939054
0.6030939021
0.6030938903
0.6030938489
0.6030937111
0.603093283
0.6030920763
0.6030891213
0.6030832328
0.6030939066
0.6030939066
0.6030939066
0.6030939066
0.6030939065
0.6030939064
0.6030939058
0.6030939037
0.6030938967
0.6030938736
0.6030938015
0.6030935915
0.6030930347
0.6030917353
0.6030891731
0.6030939066
0.6030939066
0.6030939066
0.6030939066
0.6030939065
0.6030939064
0.603093906
0.6030939046
0.6030939001
0.6030938858
0.6030938437
0.6030937278
0.6030934354
0.6030927767
0.6030914821
0.6030939066
0.6030939066
0.6030939066
0.6030939066
0.6030939065
0.6030939063
0.6030939058
0.6030939036
0.6030938965
0.603093873
0.6030938001
0.6030935898
0.6030930371
0.603091755
0.6030939066
0.6030939066
0.6030939066
0.6030939066
0.6030939065
0.6030939063
0.6030939054
0.6030939021
0.6030938903
0.6030938489
0.6030937111
0.603093283
0.6030920761
0.6030891207
0.6030939066
0.6030939066
0.6030939066
0.6030939065
0.6030939065
0.6030939061
0.6030939047
0.6030938991
0.6030938775
0.6030937963
0.6030935034
0.6030925122
0.603089466
0.603081422
0.6030649221
0.6030939066
0.6030939066
0.6030939066
0.6030939065
0.6030939064
0.6030939059
0.6030939039
0.6030938955
0.6030938609
0.6030937218
0.6030931794
0.6030911707
0.6030843423
0.6030643537
0.6030205946
0.6030939066
0.6030939066
0.6030939066
0.6030939065
0.6030939064
0.6030939059
0.6030939035
0.6030938935
0.6030938511
0.6030936729
0.6030929361
0.6030899891
0.6030789064
0.6030420757
0.6029505178
0.6030939066
0.6030939066
0.6030939066
0.6030939065
0.6030939064
0.6030939059
0.6030939039
0.6030938955
0.6030938609
0.6030937218
0.6030931794
0.6030911708
0.6030843426
0.6030643547
0.6030205975
0.6030939066
0.6030939066
0.6030939066
0.6030939065
0.6030939065
0.6030939061
0.6030939047
0.6030938991
0.6030938775
0.6030937963
0.6030935034
0.6030925122
0.6030894662
0.603081423
0.603064925
0.6030939066
0.6030939066
0.6030939066
0.6030939066
0.6030939065
0.6030939063
0.6030939054
0.6030939021
0.6030938903
0.6030938489
0.6030937111
0.603093283
0.6030920763
0.6030891213
0.6030832328
0.6030939066
0.6030939066
0.6030939066
0.6030939066
0.6030939065
0.6030939063
0.6030939058
0.6030939036
0.6030938965
0.603093873
0.6030938001
0.6030935898
0.6030930372
0.6030917553
0.6030892297
0.6030939066
0.6030939066
0.6030939066
0.6030939066
0.6030939065
0.6030939063
0.6030939055
0.6030939026
0.6030938924
0.6030938578
0.603093746
0.6030934087
0.6030924831
0.6030902619
0.6030939066
0.6030939066
0.6030939066
0.6030939065
0.6030939065
0.6030939062
0.603093905
0.6030939003
0.6030938825
0.603093817
0.603093586
0.60309282
0.6030905084
0.6030844874
0.6030939066
0.6030939066
0.6030939066
0.6030939065
0.6030939064
0.6030939059
0.6030939039
0.6030938955
0.6030938609
0.6030937218
0.6030931794
0.6030911706
0.6030843418
0.6030643511
0.6030939066
0.6030939066
0.6030939066
0.6030939065
0.6030939064
0.6030939057
0.6030939027
0.6030938893
0.6030938306
0.6030935733
0.6030924613
0.6030878035
0.6030694733
0.6030060306
0.6028441554
0.6030939066
0.6030939066
0.6030939066
0.6030939065
0.6030939063
0.6030939056
0.603093902
0.6030938858
0.6030938109
0.6030934618
0.6030918181
0.6030840689
0.6030481465
0.6028920948
0.6023512584
0.6030939066
0.6030939066
0.6030939066
0.6030939065
0.6030939064
0.6030939057
0.6030939027
0.6030938893
0.6030938306
0.6030935733
0.6030924614
0.6030878037
0.6030694742
0.6030060352
0.6028441749
0.6030939066
0.6030939066
0.6030939066
0.6030939065
0.6030939064
0.6030939059
0.6030939039
0.6030938955
0.6030938609
0.6030937218
0.6030931794
0.6030911708
0.6030843425
0.6030643544
0.6030205973
0.6030939066
0.6030939066
0.6030939066
0.6030939065
0.6030939065
0.6030939062
0.603093905
0.6030939003
0.6030938825
0.603093817
0.603093586
0.6030928201
0.6030905087
0.6030844885
0.6030721918
0.6030939066
0.6030939066
0.6030939066
0.6030939066
0.6030939065
0.6030939063
0.6030939055
0.6030939026
0.6030938924
0.6030938578
0.603093746
0.6030934087
0.6030924833
0.6030902623
0.6030858547
0.6030939066
0.6030939066
0.6030939066
0.6030939066
0.6030939065
0.6030939063
0.6030939054
0.6030939021
0.6030938904
0.6030938499
0.6030937158
0.6030932995
0.6030921197
0.6030891986
0.6030939066
0.6030939066
0.6030939066
0.6030939065
0.6030939065
0.6030939061
0.6030939047
0.6030938993
0.6030938783
0.6030937985
0.6030935058
0.6030924869
0.6030892218
0.6030801291
0.6030939066
0.6030939066
0.6030939066
0.6030939065
0.6030939064
0.6030939059
0.6030939035
0.6030938935
0.6030938511
0.6030936728
0.603092936
0.6030899888
0.6030789049
0.6030420693
0.6030939066
0.6030939066
0.6030939066
0.6030939065
0.6030939063
0.6030939056
0.603093902
0.6030938858
0.6030938109
0.6030934617
0.603091818
0.6030840685
0.6030481433
0.602892073
0.6030939066
0.6030939066
0.6030939066
0.6030939065
0.6030939063
0.6030939054
0.6030939012
0.603093881
0.6030937826
0.6030932833
0.6030906311
0.6030757144
0.6029859939
0.6024050623
0.598325543
0.6030939066
0.6030939066
0.6030939066
0.6030939065
0.6030939063
0.6030939056
0.603093902
0.6030938858
0.6030938109
0.6030934617
0.603091818
0.6030840687
0.6030481457
0.6028920917
0.6023512541
0.6030939066
0.6030939066
0.6030939066
0.6030939065
0.6030939064
0.6030939059
0.6030939035
0.6030938935
0.6030938511
0.6030936728
0.603092936
0.6030899889
0.603078906
0.6030420746
0.6029505167
0.6030939066
0.6030939066
0.6030939066
0.6030939065
0.6030939065
0.6030939061
0.6030939047
0.6030938993
0.6030938783
0.6030937985
0.6030935058
0.603092487
0.6030892222
0.6030801306
0.6030606912
0.6030939066
0.6030939066
0.6030939066
0.6030939066
0.6030939065
0.6030939063
0.6030939054
0.6030939021
0.6030938904
0.6030938499
0.6030937158
0.6030932995
0.6030921199
0.6030891991
0.603083328
0.6030939066
0.6030939066
0.6030939066
0.6030939066
0.6030939065
0.6030939063
0.6030939055
0.6030939026
0.6030938924
0.6030938578
0.603093746
0.6030934087
0.6030924831
0.6030902619
0.6030939066
0.6030939066
0.6030939066
0.6030939065
0.6030939065
0.6030939062
0.603093905
0.6030939003
0.6030938825
0.603093817
0.603093586
0.60309282
0.6030905084
0.6030844874
0.6030939066
0.6030939066
0.6030939066
0.6030939065
0.6030939064
0.6030939059
0.6030939039
0.6030938955
0.6030938609
0.6030937218
0.6030931793
0.6030911705
0.6030843415
0.603064351
0.6030939066
0.6030939066
0.6030939066
0.6030939065
0.6030939064
0.6030939057
0.6030939027
0.6030938893
0.6030938306
0.6030935733
0.6030924613
0.6030878032
0.603069472
0.6030060251
0.6030939066
0.6030939066
0.6030939066
0.6030939065
0.6030939063
0.6030939056
0.603093902
0.6030938858
0.6030938109
0.6030934617
0.603091818
0.6030840683
0.6030481427
0.6028920712
0.6030939066
0.6030939066
0.6030939066
0.6030939065
0.6030939064
0.6030939057
0.6030939027
0.6030938893
0.6030938306
0.6030935733
0.6030924613
0.6030878033
0.6030694724
0.6030060263
0.6030939066
0.6030939066
0.6030939066
0.6030939065
0.6030939064
0.6030939059
0.6030939039
0.6030938955
0.6030938609
0.6030937218
0.6030931794
0.6030911706
0.6030843419
0.6030643525
0.6030205911
0.6030939066
0.6030939066
0.6030939066
0.6030939065
0.6030939065
0.6030939062
0.603093905
0.6030939003
0.6030938825
0.603093817
0.603093586
0.6030928201
0.6030905086
0.6030844881
0.6030721909
0.6030939066
0.6030939066
0.6030939066
0.6030939066
0.6030939065
0.6030939063
0.6030939055
0.6030939026
0.6030938924
0.6030938578
0.603093746
0.6030934087
0.6030924832
0.6030902622
0.6030858545
0.6030939066
0.6030939066
0.6030939066
0.6030939066
0.6030939065
0.6030939063
0.6030939058
0.6030939036
0.6030938965
0.603093873
0.6030938001
0.6030935898
0.6030930371
0.603091755
0.6030939066
0.6030939066
0.6030939066
0.6030939066
0.6030939065
0.6030939063
0.6030939054
0.6030939021
0.6030938903
0.6030938489
0.6030937111
0.603093283
0.6030920761
0.6030891207
0.6030939066
0.6030939066
0.6030939066
0.6030939065
0.6030939065
0.6030939061
0.6030939047
0.6030938991
0.6030938775
0.6030937963
0.6030935033
0.6030925121
0.6030894657
0.6030814214
0.6030939066
0.6030939066
0.6030939066
0.6030939065
0.6030939064
0.6030939059
0.6030939039
0.6030938955
0.6030938609
0.6030937218
0.6030931793
0.6030911705
0.6030843415
0.603064351
0.6030939066
0.6030939066
0.6030939066
0.6030939065
0.6030939064
0.6030939059
0.6030939035
0.6030938935
0.6030938511
0.6030936728
0.603092936
0.6030899887
0.6030789047
0.6030420691
0.6030939066
0.6030939066
0.6030939066
0.6030939065
0.6030939064
0.6030939059
0.6030939039
0.6030938955
0.6030938609
0.6030937218
0.6030931793
0.6030911705
0.6030843416
0.6030643512
0.6030939066
0.6030939066
0.6030939066
0.6030939065
0.6030939065
0.6030939061
0.6030939047
0.6030938991
0.6030938775
0.6030937963
0.6030935033
0.6030925121
0.6030894658
0.6030814214
0.6030939066
0.6030939066
0.6030939066
0.6030939066
0.6030939065
0.6030939063
0.6030939054
0.6030939021
0.6030938903
0.6030938489
0.6030937111
0.603093283
0.6030920761
0.6030891209
0.6030832318
0.6030939066
0.6030939066
0.6030939066
0.6030939066
0.6030939065
0.6030939063
0.6030939058
0.6030939036
0.6030938965
0.603093873
0.6030938001
0.6030935898
0.6030930371
0.6030917551
0.6030892294
0.6030939066
0.6030939066
0.6030939066
0.6030939066
0.6030939065
0.6030939064
0.603093906
0.6030939046
0.6030939001
0.6030938858
0.6030938437
0.6030937278
0.6030934354
0.6030927766
0.6030939066
0.6030939066
0.6030939066
0.6030939066
0.6030939065
0.6030939064
0.6030939058
0.6030939037
0.6030938967
0.6030938736
0.6030938015
0.6030935914
0.6030930346
0.6030917351
0.6030939066
0.6030939066
0.6030939066
0.6030939066
0.6030939065
0.6030939063
0.6030939054
0.6030939021
0.6030938903
0.6030938489
0.6030937111
0.6030932829
0.6030920761
0.6030891207
0.6030939066
0.6030939066
0.6030939066
0.6030939065
0.6030939065
0.6030939062
0.603093905
0.6030939003
0.6030938825
0.603093817
0.603093586
0.60309282
0.6030905084
0.6030844874
0.6030939066
0.6030939066
0.6030939066
0.6030939065
0.6030939065
0.6030939061
0.6030939047
0.6030938993
0.6030938783
0.6030937985
0.6030935058
0.6030924869
0.6030892218
0.6030801291
0.6030939066
0.6030939066
0.6030939066
0.6030939065
0.6030939065
0.6030939062
0.603093905
0.6030939003
0.6030938825
0.603093817
0.603093586
0.60309282
0.6030905084
0.6030844875
0.6030939066
0.6030939066
0.6030939066
0.6030939066
0.6030939065
0.6030939063
0.6030939054
0.6030939021
0.6030938903
0.6030938489
0.6030937111
0.603093283
0.6030920761
0.6030891207
0.6030939066
0.6030939066
0.6030939066
0.6030939066
0.6030939065
0.6030939064
0.6030939058
0.6030939037
0.6030938967
0.6030938736
0.6030938015
0.6030935914
0.6030930346
0.603091735
0.6030939066
0.6030939066
0.6030939066
0.6030939066
0.6030939065
0.6030939064
0.603093906
0.6030939046
0.6030939001
0.6030938858
0.6030938437
0.6030937278
0.6030934354
0.6030927766
0.6030914818
0.6030939066
0.6030939066
0.6030939066
0.6030939066
0.6030939065
0.6030939064
0.6030939061
0.6030939051
0.603093902
0.6030938925
0.6030938657
0.6030937947
0.6030936216
0.6030932399
0.6030939066
0.6030939066
0.6030939066
0.6030939066
0.6030939065
0.6030939064
0.603093906
0.6030939046
0.6030939001
0.6030938858
0.6030938437
0.6030937278
0.6030934354
0.6030927766
0.6030939066
0.6030939066
0.6030939066
0.6030939066
0.6030939065
0.6030939063
0.6030939058
0.6030939036
0.6030938965
0.603093873
0.6030938001
0.6030935898
0.6030930371
0.603091755
0.6030939066
0.6030939066
0.6030939066
0.6030939066
0.6030939065
0.6030939063
0.6030939055
0.6030939026
0.6030938924
0.6030938578
0.603093746
0.6030934086
0.6030924831
0.6030902619
0.6030939066
0.6030939066
0.6030939066
0.6030939066
0.6030939065
0.6030939063
0.6030939054
0.6030939021
0.6030938904
0.6030938499
0.6030937158
0.6030932995
0.6030921197
0.6030891986
0.6030939066
0.6030939066
0.6030939066
0.6030939066
0.6030939065
0.6030939063
0.6030939055
0.6030939026
0.6030938924
0.6030938578
0.603093746
0.6030934086
0.6030924831
0.6030902619
0.6030939066
0.6030939066
0.6030939066
0.6030939066
0.6030939065
0.6030939063
0.6030939058
0.6030939036
0.6030938965
0.603093873
0.6030938001
0.6030935898
0.6030930371
0.603091755
0.6030939066
0.6030939066
0.6030939066
0.6030939066
0.6030939065
0.6030939064
0.603093906
0.6030939046
0.6030939001
0.6030938858
0.6030938437
0.6030937278
0.6030934354
0.6030927766
0.6030939066
0.6030939066
0.6030939066
0.6030939066
0.6030939065
0.6030939064
0.6030939061
0.6030939051
0.603093902
0.6030938925
0.6030938657
0.6030937947
0.6030936216
0.6030932399
)
;

boundaryField
{
    top
    {
        type            zeroGradient;
    }
    bottom
    {
        type            zeroGradient;
    }
    side-walls
    {
        type            zeroGradient;
    }
    inlet
    {
        type            zeroGradient;
    }
    outlet
    {
        type            zeroGradient;
    }
    procBoundary0to1
    {
        type            processor;
        value           nonuniform List<scalar> 
97
(
0.6030911861
0.6030914818
0.6030892948
0.6030851251
0.60307903
0.6030746881
0.6030790301
0.6030851253
0.603089295
0.6030911863
0.6030914818
0.6030914818
0.6030850432
0.6030832316
0.60307437
0.6030554516
0.6030376473
0.6030554522
0.6030743706
0.6030850437
0.603089295
0.6030892294
0.6030832316
0.6030832316
0.6030429303
0.6030205897
0.6029732066
0.6028821337
0.6029732093
0.6030429325
0.6030743706
0.6030851253
0.6030858543
0.6030721904
0.6030205897
0.6030205897
0.6027348392
0.6023512117
0.6022685035
0.602734849
0.6029732091
0.6030554521
0.6030790301
0.6030833276
0.6030606898
0.6029505097
0.6023512117
0.6023512117
0.6002605495
0.6023512134
0.6022685033
0.6028441607
0.6028821334
0.6030376472
0.603074688
0.6030858544
0.6030721909
0.6030205937
0.6028441633
0.6023512134
0.6028441607
0.6028441607
0.6029732065
0.6030649223
0.6030554513
0.6030790299
0.6030892295
0.6030832323
0.6030649236
0.6030205939
0.6029505103
0.603020594
0.6030649223
0.6030649223
0.60307437
0.6030891726
0.6030851251
0.603091482
0.6030891729
0.6030832324
0.603072191
0.60306069
0.603072191
0.6030832322
0.6030891726
0.6030891726
0.6030892948
0.6030924899
0.60309249
0.603091482
0.6030892295
0.6030858544
0.6030833277
0.6030858545
0.6030892295
0.603091482
0.6030924899
)
;
    }
}


// ************************************************************************* //
