/*--------------------------------*- C++ -*----------------------------------*\
| =========                 |                                                 |
| \\      /  F ield         | OpenFOAM: The Open Source CFD Toolbox           |
|  \\    /   O peration     | Version:  4.x                                   |
|   \\  /    A nd           | Web:      www.OpenFOAM.org                      |
|    \\/     M anipulation  |                                                 |
\*---------------------------------------------------------------------------*/
FoamFile
{
    version     2.0;
    format      ascii;
    class       surfaceScalarField;
    location    "1000";
    object      phi;
}
// * * * * * * * * * * * * * * * * * * * * * * * * * * * * * * * * * * * * * //

dimensions      [1 0 -1 0 0 0 0];

internalField   nonuniform List<scalar> 
3175
(
9.428250108e-06
-1.025292002e-12
-3.524999948e-14
9.428251078e-06
-1.25448672e-12
-1.107936228e-12
9.428248248e-06
-1.154877876e-12
-1.496054703e-12
9.428248729e-06
-2.086646932e-12
-7.622089764e-13
9.428247742e-06
-8.535748863e-15
-7.68804061e-13
9.428252336e-06
7.812762691e-13
-6.126118495e-13
9.428253341e-06
-5.026493059e-14
-9.956962499e-15
9.428251048e-06
-9.454573278e-13
-2.398681949e-13
9.428257242e-06
-2.333128422e-13
-3.782496101e-13
9.428265987e-06
-2.134126992e-12
-3.563619121e-12
9.428282966e-06
-9.77123741e-12
-8.347373462e-12
9.428303671e-06
-1.205602951e-11
-1.033151059e-11
9.428373216e-06
-3.610626865e-11
-3.469982765e-11
9.428435544e-06
-2.938306926e-11
-2.825779658e-11
-1.013355126e-10
9.428244035e-06
6.365489887e-13
1.094017792e-12
9.428244094e-06
3.294056015e-13
-1.194512234e-12
9.428242941e-06
-5.828948638e-13
-1.482795394e-12
9.428245353e-06
7.273631519e-14
-5.737844721e-13
9.428242239e-06
-1.19401182e-12
-5.466171341e-13
9.428243858e-06
1.115680551e-12
-7.536230009e-13
9.428243504e-06
-2.538876733e-12
-1.334457601e-12
9.428243184e-06
-1.737945731e-12
-1.331720954e-12
9.428247629e-06
-1.948822613e-12
-1.279372505e-12
9.428253411e-06
-3.569364713e-12
-1.149306798e-12
9.428266622e-06
-1.343031818e-11
-6.906199987e-12
9.428282811e-06
-1.796904651e-11
-8.403388362e-12
9.428350656e-06
-5.969202348e-11
-4.080310138e-11
9.428402447e-06
-5.347805025e-11
-2.994707373e-11
-2.001306271e-10
-1.584795676e-10
9.428250733e-06
2.659652959e-13
-7.249496748e-13
9.428251209e-06
-1.192194981e-12
8.241578284e-14
9.428253052e-06
-4.276042485e-13
-1.861240834e-13
9.428253163e-06
-2.73033614e-13
-3.996931378e-13
9.428252716e-06
-2.651314504e-13
-1.746625686e-13
9.428250249e-06
-2.230028775e-12
-1.058089336e-12
9.428251182e-06
-1.972616091e-12
1.156160412e-12
9.42825024e-06
-2.029276578e-12
6.74301111e-15
9.428249398e-06
-3.05020169e-12
-1.595882532e-12
9.428249495e-06
-3.290989507e-12
-1.909340314e-12
9.428254145e-06
-1.101721438e-11
-6.844331866e-12
9.428258703e-06
-1.447373583e-11
-9.286987139e-12
9.428311361e-06
-5.834918735e-11
-5.587589786e-11
9.428339117e-06
-4.569315009e-11
-3.556802855e-11
-2.408732634e-10
-3.281908517e-10
9.428243022e-06
5.055893944e-13
1.687041232e-13
9.428245263e-06
8.072045427e-13
1.361482633e-12
9.428244488e-06
4.613526838e-13
2.957962582e-13
9.428245284e-06
-1.152398401e-12
-1.798515937e-12
9.428242814e-06
-2.189474725e-12
-1.713291798e-12
9.428241956e-06
-1.591019913e-12
-3.522350609e-13
9.428242368e-06
-6.217946753e-13
9.867680535e-13
9.428241119e-06
-2.926094556e-12
4.161787717e-13
9.428239315e-06
-2.656211669e-12
1.16233911e-13
9.428238432e-06
-4.174238222e-12
-4.58167372e-13
9.428237089e-06
-8.945586216e-12
-1.245195108e-12
9.42823722e-06
-1.159305439e-11
-2.916561188e-12
9.428277322e-06
-4.678294765e-11
-4.76331515e-11
9.428306091e-06
-4.766350522e-11
-2.794156378e-11
-2.183876134e-10
-5.151454901e-10
9.428243033e-06
6.53764972e-13
-2.204235431e-15
9.42824418e-06
1.059479517e-12
-2.507191728e-13
9.42824405e-06
2.364602958e-12
-1.088438191e-12
9.428245611e-06
1.216018172e-12
-5.213186274e-13
9.428245069e-06
1.203861342e-14
-6.485111398e-13
9.428243856e-06
6.519069112e-14
3.367848223e-13
9.428241581e-06
7.904386912e-13
1.265529538e-12
9.428242564e-06
1.964048312e-13
9.295115721e-13
9.428234659e-06
1.06335436e-12
-3.287317257e-13
9.428229696e-06
2.545551995e-12
3.094987666e-12
9.428214017e-06
8.021544257e-12
9.118872617e-13
9.428187939e-06
9.941909537e-12
3.288341196e-12
9.428178554e-06
4.704445797e-11
-8.076095796e-11
9.428119077e-06
4.633576881e-11
-3.523520818e-11
2.164325984e-10
-1.21385614e-09
9.428249468e-06
2.79716618e-13
-8.961486633e-14
9.428250072e-06
8.305151321e-13
-1.63086011e-13
9.428247801e-06
5.644287332e-14
-2.127287851e-12
9.428248669e-06
-4.54699115e-13
-1.307943093e-12
9.428249456e-06
3.54998615e-13
3.546250286e-14
9.428250013e-06
-6.079936321e-13
4.941709144e-14
9.428245285e-06
-9.510514416e-13
1.410294562e-12
9.428246803e-06
6.42358331e-13
1.784945326e-12
9.428246309e-06
1.767166609e-12
-7.297340066e-13
9.428245598e-06
2.750077486e-12
-4.889275498e-13
9.428241317e-06
1.047303314e-11
-4.815360174e-13
9.428244164e-06
1.383499288e-11
-1.517502066e-12
9.428281834e-06
5.750708335e-11
-4.795058513e-11
9.42830997e-06
4.567997114e-11
-2.882074274e-11
2.413327034e-10
-5.15113437e-10
9.428262307e-06
-6.827273257e-13
-2.354996969e-14
9.42825856e-06
-1.88268743e-12
-9.8622587e-13
9.428259868e-06
-1.142821835e-14
-1.686899332e-12
9.428261487e-06
1.783825686e-12
-1.146753019e-12
9.428259686e-06
2.677009824e-12
-4.855266107e-13
9.428261243e-06
5.53098483e-13
-1.72091821e-13
9.428261266e-06
1.784561961e-12
1.460402614e-12
9.428262215e-06
2.784642912e-12
1.280433712e-12
9.428261443e-06
4.238445211e-12
1.578845658e-13
9.428261179e-06
5.988913984e-12
-1.134509805e-12
9.428265871e-06
1.402708876e-11
-5.928982395e-12
9.428270592e-06
1.771493363e-11
-6.877679406e-12
9.428323264e-06
5.94494191e-11
-5.545784625e-11
9.42835047e-06
5.303722484e-11
-3.680278568e-11
1.988922138e-10
-3.285005218e-10
9.428243881e-06
4.85039519e-13
4.418622128e-13
9.428242894e-06
3.186636293e-13
1.593534319e-12
9.428241737e-06
-1.258351144e-12
-2.024080488e-12
9.428244205e-06
2.829915824e-13
-3.188513837e-12
9.428239152e-06
-1.138169206e-12
-2.509498363e-12
9.42824354e-06
6.22523582e-13
-5.786572951e-14
9.428244812e-06
1.039847036e-12
-3.264348038e-13
9.428246848e-06
1.865427291e-12
2.48082376e-13
9.428248067e-06
2.731289154e-12
-1.616057915e-13
9.428253103e-06
4.848963137e-12
-1.784654915e-12
9.428267544e-06
1.105926887e-11
-6.066383556e-12
9.428285008e-06
1.401827744e-11
-9.051332731e-12
9.42835154e-06
3.620744777e-11
-4.028941455e-11
9.428403626e-06
3.039060496e-11
-2.892276926e-11
1.023099443e-10
-1.584346172e-10
9.428253544e-06
8.366247945e-13
9.428253452e-06
-5.332676035e-13
9.428254706e-06
-1.635447665e-12
9.428253366e-06
-2.856004309e-12
9.428252989e-06
-3.281596624e-13
9.428253448e-06
-2.462863319e-13
9.428256824e-06
1.430479825e-12
9.42825835e-06
6.452632696e-13
9.42826178e-06
-1.757632677e-12
9.42826675e-06
-2.579696727e-12
9.428284734e-06
-8.182544775e-12
9.428303324e-06
-1.122415068e-11
9.428376524e-06
-3.415316805e-11
9.428437678e-06
-2.927213114e-11
-1.01541676e-10
9.428241661e-06
-3.890323094e-13
-1.970678505e-13
9.428243802e-06
-6.689703922e-13
-7.889475292e-13
9.428242141e-06
-1.748206383e-14
-1.85020535e-12
9.428243577e-06
-3.050963759e-13
-1.007315776e-12
9.428242959e-06
7.738436821e-13
-2.344941202e-13
9.42824562e-06
6.45823666e-13
-5.640647306e-14
9.428246376e-06
-6.5033548e-13
-4.222914577e-13
9.428244472e-06
-1.588894053e-12
-2.205308994e-12
9.428246003e-06
-1.839015402e-12
-3.172787542e-12
9.428252326e-06
-1.47389842e-12
-4.306597168e-12
9.428265488e-06
-8.314123652e-12
-1.541739777e-11
9.428281923e-06
-9.384904828e-12
-1.814834013e-11
9.428349848e-06
-4.195069878e-11
-6.001703546e-11
-3.07336987e-11
-5.227031398e-11
9.428250565e-06
-8.841428333e-13
6.729654271e-13
9.428251425e-06
5.654901048e-13
-4.184951833e-14
9.428250641e-06
-8.538329657e-14
1.55590306e-12
9.428251493e-06
-4.085105978e-13
5.444384253e-13
9.428249144e-06
-7.502219861e-13
-1.843158172e-12
9.428250438e-06
5.743621072e-13
-5.647639067e-13
9.428250169e-06
-9.646817458e-14
-2.01510368e-12
9.428249611e-06
5.409866986e-13
-1.751246144e-12
9.428250251e-06
-1.793377295e-12
-3.258381748e-12
9.428252267e-06
-4.971150054e-12
-4.539862804e-12
9.428260647e-06
-1.259525821e-11
-1.29621072e-11
9.428271118e-06
-1.672836864e-11
-1.642723765e-11
9.428330836e-06
-6.948813683e-11
-6.90199483e-11
9.428379511e-06
-5.386759338e-11
-5.40326127e-11
-3.277796773e-10
9.428257739e-06
7.226068906e-13
9.747046789e-13
9.428256486e-06
-7.995205615e-14
1.897724121e-13
9.428256918e-06
-2.351162871e-13
1.792802386e-13
9.428257966e-06
-5.038726616e-13
1.020303144e-12
9.428256236e-06
-1.495132418e-12
-6.852970057e-13
9.428254855e-06
1.95731719e-14
-1.216868995e-12
9.428252732e-06
-1.65393096e-12
-1.325567804e-12
9.428253201e-06
-1.226543203e-12
-1.76284446e-12
9.428250375e-06
-2.394033867e-12
-2.255053226e-12
9.428249548e-06
-2.605308872e-12
-2.841248583e-12
9.428244629e-06
-7.417578499e-12
-9.355447998e-12
9.428239739e-06
-9.303217099e-12
-1.169222423e-11
9.428270101e-06
-6.483492753e-11
-8.982769158e-11
9.428284554e-06
-4.217559493e-11
-6.848464521e-11
-4.582209798e-10
-7.415233074e-10
9.42825194e-06
9.908885033e-13
-8.240902648e-13
9.428252157e-06
-2.205876101e-13
5.224379816e-13
9.42825194e-06
-1.343069768e-13
7.003781164e-13
9.42825339e-06
-3.854290905e-15
1.75943209e-13
9.428253672e-06
-1.402889148e-12
-4.871633649e-13
9.428252498e-06
-1.318463302e-12
-1.025232093e-13
9.428252517e-06
-1.167450338e-12
1.085599779e-12
9.428251322e-06
-2.902295616e-12
1.51362052e-13
9.428249891e-06
-2.536668758e-12
1.416770346e-12
9.428248628e-06
-1.217867477e-12
2.527138515e-12
9.428237472e-06
-7.330752708e-12
5.683823234e-12
9.428236852e-06
-1.00684035e-11
-2.022456633e-12
9.428238054e-06
-6.311906838e-11
-5.060851289e-11
9.428303773e-06
-6.40009263e-11
-7.16727012e-11
-4.49740813e-10
-1.241380481e-09
9.428236587e-06
9.107773838e-15
-2.282011946e-12
9.428237499e-06
1.175773751e-12
-1.280897873e-12
9.428237141e-06
-1.460573373e-13
-1.888704319e-12
9.428238636e-06
1.909906785e-13
-5.598088316e-13
9.428239132e-06
5.067607486e-13
-3.776341986e-13
9.428236008e-06
-5.256973135e-13
-5.395867316e-15
9.428234341e-06
5.628471354e-13
1.297257035e-12
9.428234831e-06
-5.822064916e-13
6.343374619e-13
9.428231412e-06
-1.469129874e-13
4.40862214e-12
9.428224283e-06
-6.930143683e-13
7.940124137e-12
9.428194375e-06
6.46186709e-12
1.407817934e-11
9.428154857e-06
8.719584047e-12
2.506334479e-11
9.428029283e-06
6.168023411e-11
-8.586852893e-11
9.427911132e-06
6.076862512e-11
-3.531733323e-11
4.470912028e-10
-3.480315477e-09
9.428246754e-06
1.559560426e-13
-1.605307036e-12
9.428243666e-06
8.930316547e-14
-1.620238122e-12
9.428245953e-06
-4.324054959e-13
-1.263060765e-12
9.428245123e-06
-4.456385569e-13
-1.552574982e-12
9.428246041e-06
6.555101329e-13
-2.282520094e-12
9.428246546e-06
-5.211738764e-13
-1.33882195e-12
9.428245207e-06
1.390861193e-13
2.439261758e-13
9.428245544e-06
4.120471172e-13
7.639051655e-13
9.428245559e-06
2.198672666e-12
2.83042087e-12
9.428242595e-06
1.699168206e-12
3.583372367e-12
9.428230685e-06
6.676759173e-12
5.348520643e-12
9.428230071e-06
7.660438377e-12
-2.525976014e-12
9.428231132e-06
6.318703162e-11
-5.164827615e-11
9.42829504e-06
4.062271119e-11
-7.081101353e-11
4.564753078e-10
-1.239809474e-09
9.428246793e-06
1.876582196e-13
-1.128982995e-12
9.428248135e-06
1.449291597e-12
-9.58098644e-14
9.428249889e-06
1.026568457e-12
-1.836568832e-12
9.428251028e-06
7.83898345e-13
-1.073550671e-12
9.428248347e-06
2.007372669e-13
-1.670885705e-12
9.428248512e-06
6.860963082e-13
-8.146102897e-13
9.428247259e-06
-1.069417034e-13
9.842306794e-13
9.428247141e-06
2.08500335e-12
8.442499425e-13
9.428245695e-06
4.950957613e-12
-3.027026421e-13
9.428244672e-06
4.579263829e-12
-9.577441717e-13
9.428239053e-06
1.283289473e-11
-8.226007102e-12
9.428234293e-06
1.545791055e-11
-1.210004801e-11
9.428264422e-06
7.035270903e-11
-8.913910934e-11
9.428283024e-06
5.537990215e-11
-6.675990948e-11
3.278567548e-10
-7.386936577e-10
9.428256262e-06
3.883291502e-13
-8.068230796e-14
9.428254785e-06
-1.411661242e-12
-1.417680646e-12
9.428256425e-06
6.192482021e-13
-9.3032675e-13
9.428258282e-06
-5.204177531e-14
-1.403197429e-12
9.428256355e-06
1.905805483e-13
-8.13412518e-13
9.428256365e-06
5.040729536e-13
3.479799816e-13
9.428257007e-06
1.265306532e-12
6.527184654e-13
9.428256865e-06
1.63224711e-12
-1.08193945e-12
9.428254628e-06
1.402734501e-12
-3.495942811e-12
9.428258255e-06
3.046941183e-12
-4.023428247e-12
9.428264313e-06
8.672566144e-12
-1.278740033e-11
9.428279255e-06
1.106259579e-11
-1.572537526e-11
9.428336113e-06
4.139522362e-11
-7.033975509e-11
9.428381762e-06
3.09995838e-11
-5.567433818e-11
1.592701923e-10
-3.272992731e-10
9.428244448e-06
-1.432356138e-12
9.428245681e-06
-1.365215085e-12
9.428244414e-06
-1.702638021e-12
9.428246512e-06
-4.026713236e-13
9.428243898e-06
-8.627149361e-13
9.428243741e-06
-2.592054626e-13
9.428243257e-06
-1.088848309e-12
9.428243884e-06
-2.470181092e-12
9.428246063e-06
-4.34703946e-12
9.428250994e-06
-5.60378473e-12
9.428263411e-06
-1.452376405e-11
9.4282823e-06
-1.594589284e-11
9.428348772e-06
-5.874334043e-11
9.428400104e-06
-5.255731573e-11
-1.987646262e-10
9.428236763e-06
2.479333293e-13
6.506162648e-13
9.428236259e-06
2.222601045e-13
2.626162698e-14
9.428239328e-06
2.405802904e-12
-8.312358131e-13
9.428240073e-06
5.615330736e-13
1.893724937e-13
9.428238372e-06
-7.622514398e-13
-7.29159833e-13
9.428240187e-06
1.68073565e-13
3.415364827e-13
9.428238507e-06
-2.18160464e-12
5.141493652e-14
9.428239569e-06
-1.376945653e-12
-4.716647842e-13
9.428238107e-06
-1.264548795e-12
-2.216678759e-12
9.428239322e-06
-1.230235598e-12
-4.76847784e-12
9.42824515e-06
-7.00643944e-12
-1.066803177e-11
9.428246251e-06
-8.589179508e-12
-1.416351922e-11
9.428299053e-06
-5.557509772e-11
-5.745249248e-11
-3.690012276e-11
-4.641417543e-11
9.42824678e-06
-4.08541731e-13
4.259989384e-13
9.428249465e-06
-5.67009684e-14
1.249827314e-12
9.428248197e-06
-1.380626908e-12
-1.88806563e-13
9.428248242e-06
-5.605929423e-13
-2.526615824e-13
9.428248879e-06
4.108440005e-14
-2.081588624e-12
9.4282487e-06
4.747896952e-13
-3.409245976e-13
9.428248583e-06
1.026859086e-13
1.452773484e-13
9.42824794e-06
-3.270711585e-13
4.378129142e-13
9.428246678e-06
-9.570401414e-13
-2.271715992e-13
9.428245697e-06
-1.619301225e-12
-1.336154561e-12
9.4282429e-06
-8.708410517e-12
-7.591460283e-12
9.428236776e-06
-1.238942722e-11
-8.605716963e-12
9.428264755e-06
-9.088077271e-11
-6.570549642e-11
-6.771414915e-11
-4.196241003e-11
9.428251429e-06
-1.03141118e-12
9.166764566e-14
9.428252682e-06
-1.267952714e-12
5.344146395e-13
9.428254663e-06
4.269497148e-14
5.174018965e-13
9.42825415e-06
-8.902611405e-13
-1.922021033e-13
9.428253297e-06
-1.06836324e-12
-1.149378469e-13
9.428253002e-06
3.052288127e-13
-6.092971407e-13
9.428252211e-06
-1.97166059e-14
-3.798480694e-13
9.428251156e-06
3.885216584e-13
8.99056997e-13
9.428246577e-06
1.391466747e-12
1.884352397e-12
9.428240026e-06
2.985897547e-12
2.821607428e-12
9.428224531e-06
2.265200222e-12
2.172063353e-12
9.42819345e-06
1.425464527e-12
3.279765019e-12
9.428161338e-06
-7.265330643e-11
-7.143155139e-11
9.42809519e-06
-3.424359184e-11
-3.35195098e-11
-1.231323798e-09
9.428232397e-06
1.127225115e-13
1.293211009e-13
9.428232424e-06
1.12298675e-13
6.152070242e-13
9.428232427e-06
-2.02596741e-12
-1.03312363e-12
9.428232816e-06
-7.952462371e-13
-6.659586224e-14
9.42823377e-06
-1.540746495e-13
9.597966206e-13
9.428234088e-06
-6.239764549e-13
1.226169076e-12
9.428232502e-06
-1.910299096e-13
8.468903685e-13
9.428231695e-06
-1.225324181e-12
3.266627234e-12
9.4282291e-06
-2.33658701e-13
4.750550421e-12
9.428224646e-06
9.651627507e-13
7.969721437e-12
9.428209501e-06
-3.653366691e-12
2.633511429e-11
9.428183481e-06
-9.793490465e-14
2.641968044e-11
9.428117012e-06
-9.338116322e-11
3.518619163e-11
9.428118369e-06
-9.166867434e-11
-1.175171209e-11
-1.306156459e-09
-2.447081552e-09
9.428254165e-06
-5.234176011e-13
2.92490942e-13
9.42825297e-06
1.365509648e-12
-4.540216636e-13
9.428253853e-06
4.094501804e-13
2.331384987e-13
9.428253891e-06
6.091956089e-13
5.39568769e-13
9.428253182e-06
-3.510525738e-13
1.223220977e-12
9.428252169e-06
-2.608357016e-13
4.6424417e-13
9.428249321e-06
-6.310086387e-13
1.480065578e-12
9.428252049e-06
1.107808704e-13
5.922810557e-12
9.4282482e-06
-1.342632443e-12
1.062093089e-11
9.428241102e-06
-3.15681487e-12
2.126610091e-11
9.428200968e-06
2.525613131e-12
5.152168577e-11
9.428109039e-06
6.746347326e-13
1.131564101e-10
9.427754762e-06
9.227386093e-11
7.898004075e-11
9.427002115e-06
8.951042475e-11
5.360131281e-10
1.306255559e-09
-9.190156481e-09
9.428261149e-06
9.873701251e-13
-4.796482773e-13
9.428259318e-06
9.095179914e-13
3.486596375e-13
9.428260608e-06
-1.915400969e-13
1.628199798e-12
9.428259966e-06
-5.986745571e-13
1.323693313e-12
9.42826139e-06
1.17331231e-12
1.816761923e-12
9.428261334e-06
-9.780058442e-13
6.751536436e-13
9.428257798e-06
5.243764647e-13
9.573669809e-13
9.428258174e-06
1.495903656e-12
2.40377866e-12
9.428257528e-06
-4.53000358e-13
6.732975519e-12
9.428255194e-06
-3.408341689e-12
1.011500748e-11
9.428238418e-06
-2.56171063e-12
2.690951154e-11
9.428211706e-06
-4.412080466e-12
2.66180225e-11
9.428149065e-06
7.17251934e-11
3.544631488e-11
9.428149908e-06
3.282614135e-11
-1.213309709e-11
1.2314871e-09
-2.44704163e-09
9.428232027e-06
1.010482283e-12
-1.554573083e-12
9.428230298e-06
-2.563874376e-13
-1.188539122e-12
9.428233091e-06
1.025074067e-12
3.900871288e-13
9.428233353e-06
1.978162951e-13
4.640017322e-13
9.428231876e-06
1.346517174e-12
6.068641321e-13
9.428233861e-06
1.820150836e-12
1.090753506e-12
9.428230227e-06
-3.442807016e-13
1.870564459e-13
9.428227155e-06
-5.87298097e-13
4.960607794e-13
9.42822483e-06
2.065472895e-12
1.475729532e-12
9.428219507e-06
1.437257798e-12
5.157782023e-12
9.428201921e-06
7.495063049e-12
2.010232701e-12
9.428170469e-06
1.055202863e-11
3.355031287e-12
9.428138719e-06
8.963239111e-11
-7.161913734e-11
9.428072042e-06
6.713915486e-11
-3.339739909e-11
7.395649444e-10
-1.233302141e-09
9.428240284e-06
-9.268235509e-13
-8.955104796e-13
9.428240627e-06
-1.133455129e-12
-2.515880479e-13
9.428241707e-06
-3.75536593e-13
1.090615375e-12
9.428244758e-06
-2.482058401e-14
1.55791105e-12
9.428241761e-06
-5.689015297e-13
-8.92997022e-13
9.428241473e-06
-1.044526577e-12
-4.181536516e-13
9.428239512e-06
-1.174810585e-12
7.333885418e-13
9.428238322e-06
-4.761613154e-13
8.162981726e-13
9.428235617e-06
-2.678131273e-13
-4.107292789e-13
9.428236973e-06
1.762061046e-12
-5.496030865e-13
9.428231964e-06
8.374195424e-12
-7.530830026e-12
9.428228378e-06
1.114826711e-11
-8.904096181e-12
9.428257065e-06
5.867658895e-11
-6.493391724e-11
9.42827646e-06
3.863588152e-11
-4.123003085e-11
3.305497096e-10
-4.56111641e-10
9.428262913e-06
9.389313407e-13
9.42826298e-06
7.660301375e-13
9.428263111e-06
9.509706686e-13
9.428265796e-06
1.57497762e-12
9.428264048e-06
-5.163800482e-14
9.428263537e-06
-9.074607263e-13
9.428265534e-06
4.886560385e-13
9.428265172e-06
5.333806641e-13
9.428266055e-06
-1.416917012e-12
9.428267566e-06
-3.094674841e-12
9.428271005e-06
-1.009063352e-11
9.428274605e-06
-1.341490062e-11
9.428325019e-06
-5.693054539e-11
9.428353073e-06
-4.46523306e-11
-2.406480084e-10
9.428253036e-06
3.868071289e-13
1.849457373e-13
9.428252552e-06
3.271019463e-13
7.509298327e-13
9.428256735e-06
2.797581979e-12
1.046837472e-12
9.428254732e-06
8.666617585e-13
1.825836945e-12
9.42825519e-06
-5.046194035e-13
1.803128891e-12
9.428255799e-06
-1.308542602e-13
9.58191776e-13
9.428254157e-06
-6.349189867e-13
-4.564476506e-13
9.428253547e-06
-1.907143282e-13
9.409253882e-13
9.428250084e-06
-1.488483894e-13
-1.572167657e-12
9.428252844e-06
6.233922531e-13
-2.58047277e-12
9.42824974e-06
-3.608286226e-12
-8.933390194e-12
9.428249213e-06
-4.315482339e-12
-1.191890883e-11
9.428286798e-06
-4.987915682e-11
-4.650586871e-11
-2.77064787e-11
-4.708391232e-11
9.428247807e-06
-4.657341346e-13
-4.767482759e-13
9.428249306e-06
-5.178438211e-13
-5.224218649e-13
9.428249332e-06
-2.8906371e-13
-4.721625645e-13
9.428251001e-06
-3.887228155e-13
-9.528112339e-14
9.428253951e-06
1.881602279e-12
2.056391561e-12
9.428253291e-06
-5.748918093e-14
1.707151011e-12
9.428253195e-06
-7.490979867e-13
-8.761005065e-14
9.428252356e-06
3.671279214e-13
6.045162646e-13
9.428249084e-06
1.516969369e-12
-7.177509377e-13
9.428246998e-06
2.67510405e-12
-2.726145717e-13
9.428240173e-06
6.519857059e-12
-7.304720461e-12
9.428236547e-06
-9.064133148e-13
-9.389822217e-12
9.428241291e-06
-4.991328639e-11
-6.110918323e-11
-7.094131284e-11
-6.108163376e-11
9.428253037e-06
-8.781589419e-13
4.969216648e-13
9.42825172e-06
-6.799899334e-13
-1.188932843e-12
9.428250653e-06
-2.313536741e-12
1.515344926e-13
9.42825194e-06
1.074257356e-13
-9.192779027e-13
9.428250437e-06
5.003426284e-13
-9.446451337e-13
9.428251574e-06
1.041932724e-12
1.553844823e-12
9.428253096e-06
1.095971203e-12
8.450190464e-13
9.428250689e-06
2.93575187e-12
1.155087276e-12
9.42824805e-06
3.853881508e-12
9.629568216e-13
9.42824353e-06
8.116265815e-12
4.006989231e-12
9.428228828e-06
2.609930038e-11
-2.117450107e-12
9.428201864e-06
2.465708442e-11
-6.776592772e-13
9.428138028e-06
3.534607526e-11
-9.401688297e-11
-1.271657461e-11
-9.235038195e-11
9.428253468e-06
-3.184295813e-13
1.551798889e-12
9.428251086e-06
-9.799108222e-13
-6.674854538e-13
9.428254028e-06
-3.513578678e-13
1.529019341e-12
9.428253837e-06
-2.172676822e-12
-2.202352484e-13
9.428251768e-06
-1.041263485e-12
-8.987754098e-13
9.42825112e-06
-1.018796523e-12
-1.19028771e-12
9.428255569e-06
5.042734383e-13
6.782708845e-13
9.428254723e-06
8.557497048e-13
6.617109981e-14
9.428260469e-06
5.004955039e-12
4.651718906e-12
9.428266804e-06
8.666779664e-12
1.005283853e-11
9.428288866e-06
1.441859437e-11
1.478210545e-11
9.428290281e-06
2.453299854e-11
2.487121866e-11
9.428424848e-06
-3.424671589e-11
-3.460649613e-11
9.428868386e-06
-2.33715872e-10
-2.330031289e-10
-2.685685669e-09
9.428257606e-06
-8.612747166e-13
9.261862754e-13
9.428258542e-06
8.636870453e-13
1.826975969e-12
9.428258138e-06
4.109862386e-13
1.822315473e-12
9.428261178e-06
1.329565517e-12
1.028818552e-13
9.428256992e-06
1.402944157e-14
-8.969957914e-13
9.428258515e-06
2.165589253e-13
-4.226460481e-14
9.428260216e-06
-1.134587594e-12
1.347728981e-12
9.428263723e-06
-2.861908883e-12
3.202811518e-12
9.428273475e-06
-4.701156155e-12
7.77309418e-12
9.428291091e-06
-7.79485549e-12
2.14834004e-11
9.42832675e-06
-1.556291444e-11
4.349838717e-11
9.428309022e-06
-2.50232256e-11
1.751514007e-10
9.428102707e-06
3.226021774e-11
2.14238825e-10
9.426616864e-06
2.320958955e-10
1.556991346e-09
2.683849602e-09
-1.793335272e-08
9.428243692e-06
7.797228938e-14
5.334188454e-13
9.428242871e-06
8.778152542e-14
-1.033039167e-12
9.428243962e-06
-4.384160912e-13
-5.514101192e-13
9.428246164e-06
-1.420646326e-13
-2.040311332e-13
9.428244148e-06
-1.925106453e-13
-1.002495037e-12
9.428246074e-06
-8.448773044e-14
8.390824737e-13
9.428246402e-06
-2.151549169e-13
6.623941816e-13
9.428249245e-06
-1.38820274e-12
2.510219908e-12
9.428254071e-06
-5.112047383e-12
4.755748644e-12
9.428258505e-06
-8.21050303e-12
8.813248317e-12
9.428281377e-06
-2.658274468e-11
1.541115079e-11
9.42828067e-06
-2.738981829e-11
2.411452769e-11
9.428420864e-06
-3.488630854e-11
-3.1942261e-11
9.428864188e-06
1.108585167e-11
-2.319702847e-10
2.445244461e-09
-2.684753177e-09
9.428254355e-06
1.582733512e-12
1.088203145e-12
9.428252581e-06
2.483866531e-13
-7.625330706e-13
9.428252275e-06
1.298262838e-12
-3.522625333e-14
9.428251495e-06
4.58040234e-13
-1.171051975e-13
9.428248888e-06
-1.141938431e-13
-1.08879856e-12
9.428248351e-06
-2.074064654e-13
-4.212667401e-13
9.428248577e-06
-4.248127773e-13
-6.084065516e-13
9.42824939e-06
-8.898914253e-13
1.289564827e-12
9.428248094e-06
-1.994962633e-12
1.349216617e-12
9.428240187e-06
-4.213431485e-12
1.817842808e-12
9.428223925e-06
-7.514108659e-12
-1.482703222e-12
9.428197372e-06
6.756668766e-13
-4.503758696e-14
9.428132721e-06
4.87895219e-11
-9.227872e-11
9.428131895e-06
7.119583818e-11
-9.059291665e-11
1.242525796e-09
-1.306056026e-09
9.428243901e-06
6.583033106e-13
6.657578653e-13
9.4282442e-06
-9.131563131e-14
2.977919214e-13
9.428244971e-06
-2.416167471e-13
-5.291367483e-13
9.428244838e-06
5.109153334e-14
-2.800888942e-14
9.428247443e-06
2.421555286e-13
1.055016059e-12
9.428245117e-06
-1.765201595e-12
3.722919434e-13
9.428244803e-06
-1.312410845e-12
-3.481441035e-13
9.428243146e-06
3.470818755e-13
-3.464210248e-13
9.428242406e-06
-8.568147826e-13
-1.658638026e-13
9.428239423e-06
-7.71697692e-13
-6.445683548e-13
9.42822975e-06
4.247761876e-12
-6.665475084e-12
9.428227784e-06
6.791431476e-12
-7.029963547e-12
9.428230893e-06
5.109236172e-11
-6.065859732e-11
9.428293702e-06
3.057329725e-11
-5.943285821e-11
5.161560486e-10
-4.494960187e-10
9.428242787e-06
-3.525957704e-13
9.42824303e-06
-1.292735705e-14
9.428244845e-06
6.91515573e-13
9.428243905e-06
-7.967659976e-13
9.428243031e-06
-1.082541701e-12
9.428245168e-06
1.404079187e-13
9.428244714e-06
4.529004454e-13
9.428242081e-06
-1.325953202e-12
9.428241935e-06
-2.845970177e-13
9.428243269e-06
-7.596315838e-13
9.428240995e-06
-6.490167921e-12
9.428240884e-06
-1.084674117e-11
9.42828062e-06
-4.628867476e-11
9.428308876e-06
-4.61587778e-11
-2.17536912e-10
9.428246621e-06
-1.461821681e-13
1.062460502e-12
9.428246817e-06
1.308360948e-13
3.447324416e-13
9.428249725e-06
1.356817775e-12
2.479689311e-13
9.428245217e-06
-1.856361024e-12
-1.634575419e-12
9.428245702e-06
-1.051500051e-12
-2.769398102e-13
9.428244476e-06
9.185458138e-13
8.904996861e-14
9.428245696e-06
-4.927761621e-16
4.547304883e-13
9.428241251e-06
7.107421432e-14
-8.164436337e-13
9.428236574e-06
1.15919387e-12
2.819123831e-13
9.428231617e-06
2.842549877e-12
9.684584593e-13
9.428216391e-06
-1.30065249e-12
5.857983422e-12
9.42819396e-06
3.854877271e-12
9.570089846e-12
9.428182699e-06
-8.181355517e-11
4.634062182e-11
-3.383375346e-11
4.810381347e-11
9.428243926e-06
4.568867498e-13
6.583689099e-13
9.428244153e-06
-1.335538659e-12
-1.38314494e-13
9.4282434e-06
-2.188432505e-13
4.996369648e-13
9.428242968e-06
-4.153377802e-13
1.580007114e-12
9.428242105e-06
-5.013848785e-13
3.843260785e-13
9.428238382e-06
-3.132108554e-13
2.325626047e-13
9.428239285e-06
3.435554769e-13
9.68778429e-13
9.428236749e-06
1.511442081e-12
-2.151285455e-13
9.428231829e-06
4.002552431e-12
-1.613669475e-13
9.428223818e-06
9.140392799e-12
4.317056209e-13
9.428197918e-06
1.635834799e-11
6.887032279e-12
9.42815493e-06
2.486404351e-11
8.795630097e-12
9.428030916e-06
-8.680883182e-11
6.319439049e-11
-3.815451313e-11
6.277448456e-11
9.428238541e-06
7.180388733e-13
2.148735993e-14
9.428239554e-06
-1.356393855e-13
9.069033291e-14
9.428237404e-06
-1.163205047e-12
9.200897261e-13
9.428239924e-06
-4.016881771e-13
1.938336618e-12
9.428239075e-06
-8.889914514e-14
5.522395502e-13
9.428237373e-06
-7.513657538e-13
-8.57056285e-14
9.428237618e-06
2.556208495e-12
4.858128237e-13
9.428236857e-06
3.453273683e-12
-3.62933789e-15
9.428234738e-06
8.23111665e-12
-1.830604023e-13
9.428227211e-06
2.084766556e-11
-1.383288908e-12
9.428188212e-06
5.08549855e-11
2.864552969e-12
9.428096014e-06
1.125321589e-10
5.171408638e-13
9.427741497e-06
7.868064323e-11
9.303140927e-11
5.357751711e-10
9.277547678e-11
9.428244892e-06
-1.302661183e-12
-1.211976543e-12
9.428248289e-06
5.570589423e-13
8.82287203e-14
9.428249004e-06
-5.804911608e-13
-7.79860433e-13
9.428249947e-06
-5.011215633e-13
3.822456067e-13
9.428250891e-06
-9.148167534e-13
-1.109195698e-13
9.428252188e-06
-2.711624892e-13
-1.440386794e-13
9.428252721e-06
6.631139237e-13
-9.118954435e-13
9.42825632e-06
2.082755261e-12
-1.06362972e-12
9.428267322e-06
7.714560556e-12
-2.688738782e-12
9.428281997e-06
1.966600384e-11
-7.255804398e-12
9.428318659e-06
4.250704663e-11
-1.326306414e-11
9.428301992e-06
1.751066791e-10
-2.465604565e-11
9.428098875e-06
2.146179211e-10
3.456284441e-11
1.55554469e-09
2.336396494e-10
9.428243905e-06
1.30243296e-13
8.327236133e-13
9.428243172e-06
-4.674694309e-13
-6.523599906e-13
9.428243976e-06
-5.699102113e-13
8.907131579e-14
9.428246447e-06
7.20104487e-13
-8.088929659e-14
9.428247479e-06
5.293780064e-13
-4.729187812e-13
9.42825024e-06
1.700415395e-14
-1.178243649e-12
9.428251533e-06
-1.654893792e-12
-1.024932242e-12
9.428264115e-06
-3.862521399e-12
-1.547880304e-12
9.428289707e-06
-7.618887262e-12
-6.244686498e-12
9.428371454e-06
-2.053646042e-11
-1.872340379e-11
9.428543726e-06
-4.29731843e-11
-4.227991998e-11
9.429245184e-06
-1.757110219e-10
-1.752347845e-10
9.430103288e-06
-2.129433776e-10
-2.135544675e-10
9.436344865e-06
-1.556667575e-09
-1.55554002e-09
1.793356833e-08
9.428223262e-06
-7.329423982e-14
-6.467575851e-13
9.428225424e-06
-6.128556897e-14
2.787280135e-13
9.428224803e-06
6.407055903e-13
-7.201410134e-13
9.428224192e-06
-3.592922044e-13
-7.233662766e-13
9.428225454e-06
-8.238489671e-13
-3.902651227e-13
9.428224892e-06
-7.244115519e-13
-2.05943276e-13
9.428227667e-06
-2.353728491e-12
2.701050747e-13
9.428231291e-06
-3.119660151e-12
-6.299342086e-13
9.428241221e-06
-9.655904905e-12
-3.045571765e-12
9.42825899e-06
-2.223687695e-11
-7.668910777e-12
9.428294078e-06
-5.047910186e-11
-1.433850429e-11
9.428280017e-06
-1.135319413e-10
-2.32930717e-11
9.428073344e-06
-7.990000634e-11
3.410589933e-11
9.426588614e-06
-5.364377848e-10
2.338984881e-10
9.188297263e-09
9.428252711e-06
1.506075297e-12
-1.653972001e-14
9.428254124e-06
1.421591354e-12
4.908351279e-13
9.428253924e-06
1.177972251e-12
8.428378982e-13
9.428254733e-06
1.2638794e-12
8.332317497e-13
9.428256282e-06
2.384300001e-12
6.04153678e-13
9.428255186e-06
7.796866877e-13
1.588738181e-13
9.428254722e-06
-7.611750672e-13
-1.903973032e-13
9.428253561e-06
-2.504885571e-12
6.313557914e-14
9.4282499e-06
-4.116676734e-12
-3.674190519e-13
9.428243899e-06
-9.348653389e-12
-2.034673785e-13
9.428202916e-06
-1.784200654e-11
2.490628588e-12
9.428112208e-06
-2.503156409e-11
1.689693604e-12
9.4277576e-06
8.506841793e-11
9.562568936e-11