/*--------------------------------*- C++ -*----------------------------------*\
| =========                 |                                                 |
| \\      /  F ield         | OpenFOAM: The Open Source CFD Toolbox           |
|  \\    /   O peration     | Version:  4.x                                   |
|   \\  /    A nd           | Web:      www.OpenFOAM.org                      |
|    \\/     M anipulation  |                                                 |
\*---------------------------------------------------------------------------*/
FoamFile
{
    version     2.0;
    format      ascii;
    class       volScalarField;
    location    "1000";
    object      rhoeps;
}
// * * * * * * * * * * * * * * * * * * * * * * * * * * * * * * * * * * * * * //

dimensions      [1 -3 0 0 0 0 0];

internalField   nonuniform List<scalar> 
1175
(
0.2777047651
0.2777047823
0.2777047832
0.2777048037
0.2777048008
0.2777048327
0.2777048178
0.2777048187
0.2777048151
0.2777048351
0.2777048191
0.2777048485
0.2777048944
0.2777050635
0.2777054112
0.2777046241
0.2777046232
0.2777046073
0.2777046181
0.277704648
0.2777046619
0.2777046406
0.2777046517
0.277704639
0.2777046555
0.27770467
0.2777047161
0.2777048153
0.2777050836
0.2777055969
0.2777048575
0.2777048426
0.2777048301
0.2777048415
0.2777048758
0.2777048615
0.277704856
0.277704849
0.277704841
0.2777048141
0.2777048639
0.2777049392
0.2777051908
0.277705726
0.2777067676
0.2777046342
0.2777046328
0.2777046409
0.2777046235
0.2777046087
0.2777045978
0.2777045891
0.2777046425
0.2777046264
0.2777046269
0.2777046638
0.2777047787
0.2777051692
0.2777060724
0.2777078856
0.2777046353
0.2777046184
0.2777046511
0.2777046497
0.2777046617
0.2777046529
0.2777046384
0.2777046238
0.2777046306
0.2777046175
0.2777046584
0.2777048242
0.2777053039
0.2777065186
0.2777089405
0.2777047932
0.2777048199
0.2777048041
0.2777048341
0.2777047799
0.2777047202
0.277704749
0.2777047606
0.2777047754
0.2777047858
0.2777048541
0.2777050149
0.2777053565
0.2777062736
0.2777080736
0.2777051314
0.2777051256
0.2777050977
0.2777051151
0.2777050984
0.2777050854
0.2777050808
0.2777051294
0.2777051519
0.2777051414
0.277705247
0.2777053361
0.2777055738
0.2777060919
0.2777071344
0.2777046191
0.2777045971
0.277704626
0.2777046131
0.2777045895
0.2777045958
0.2777045853
0.277704579
0.2777046154
0.2777046307
0.2777046769
0.2777047745
0.2777048853
0.2777051958
0.2777057127
0.2777049122
0.2777049399
0.2777049215
0.2777049143
0.2777049275
0.2777048917
0.2777049065
0.2777049044
0.2777048947
0.2777049159
0.2777048814
0.2777049669
0.2777050277
0.2777051657
0.2777054501
0.2777046006
0.2777046021
0.2777045908
0.2777045965
0.2777046295
0.2777046215
0.2777045952
0.2777045945
0.2777045786
0.2777046046
0.2777046107
0.2777046822
0.2777048052
0.2777050892
0.2777048218
0.2777047964
0.2777048119
0.277704819
0.2777048318
0.2777047992
0.2777047752
0.277704761
0.2777047956
0.2777047694
0.2777048011
0.277704894
0.2777051309
0.2777056878
0.2777067022
0.277705029
0.2777050315
0.2777050026
0.2777049856
0.2777049505
0.277704957
0.2777049892
0.2777049792
0.2777049417
0.277704932
0.2777049787
0.2777051578
0.2777056406
0.2777068619
0.2777092774
0.2777048747
0.2777048645
0.2777048312
0.2777048675
0.2777048599
0.2777049248
0.2777049492
0.2777049481
0.277704902
0.2777049232
0.2777050103
0.2777053782
0.2777063061
0.277708817
0.2777138693
0.277704431
0.2777044216
0.2777044328
0.2777044454
0.2777044559
0.2777044306
0.2777044614
0.2777044262
0.2777044427
0.277704512
0.2777046067
0.2777050498
0.2777063931
0.2777101313
0.2777181681
0.2777047356
0.2777047497
0.277704689
0.2777046548
0.2777046954
0.2777047
0.2777047367
0.2777047107
0.2777047156
0.2777047861
0.2777048569
0.2777051378
0.2777060711
0.2777086055
0.2777136979
0.277704753
0.2777047616
0.277704781
0.2777047896
0.2777048061
0.2777047866
0.277704745
0.2777047625
0.2777047854
0.2777048092
0.2777048849
0.2777050489
0.2777055033
0.2777067532
0.2777092263
0.2777050582
0.2777050356
0.2777050152
0.277705012
0.2777050023
0.2777049967
0.2777049901
0.2777049886
0.2777049628
0.2777049591
0.2777049818
0.2777050582
0.2777053062
0.2777058445
0.2777069141
0.2777046848
0.2777046985
0.2777046956
0.2777046754
0.2777046533
0.2777046376
0.277704626
0.2777045948
0.2777045851
0.2777045892
0.2777046044
0.2777046438
0.2777047347
0.27770507
0.2777055891
0.2777044511
0.2777044273
0.2777044439
0.2777044502
0.2777044857
0.2777044934
0.2777045187
0.2777045007
0.2777045019
0.2777045109
0.2777045664
0.2777046363
0.2777048433
0.2777053589
0.2777048104
0.2777047582
0.2777047558
0.2777047463
0.2777047456
0.2777047546
0.2777047554
0.2777047473
0.2777048265
0.2777048132
0.2777048858
0.277705062
0.2777055731
0.2777067835
0.2777048437
0.2777048473
0.2777048599
0.2777049173
0.2777048984
0.2777049149
0.2777049263
0.2777048613
0.2777048978
0.2777049331
0.2777050792
0.2777054962
0.277706765
0.2777101329
0.2777169768
0.2777042727
0.277704281
0.2777042805
0.2777042749
0.277704286
0.2777042732
0.2777043091
0.2777043185
0.2777043253
0.2777043782
0.2777045802
0.2777054278
0.2777082732
0.2777164534
0.2777345219
0.2777049204
0.2777049188
0.2777049285
0.2777049163
0.2777048804
0.2777048628
0.2777048396
0.2777047783
0.2777047648
0.2777048231
0.2777051578
0.2777063539
0.2777109585
0.2777261636
0.2777640008
0.277705123
0.2777051204
0.2777051127
0.2777050829
0.2777050947
0.2777050889
0.2777051043
0.2777051351
0.2777051197
0.2777051672
0.2777054353
0.2777062813
0.277709135
0.2777173745
0.2777354823
0.2777042637
0.2777043092
0.2777043036
0.277704322
0.2777042875
0.277704252
0.2777042733
0.2777042623
0.2777042824
0.2777043211
0.2777044628
0.2777048747
0.2777061511
0.2777094832
0.2777163101
0.2777045295
0.2777045353
0.277704507
0.2777045301
0.2777045651
0.2777045453
0.2777045898
0.2777045678
0.2777045617
0.2777045591
0.2777046357
0.2777048275
0.2777053425
0.2777065778
0.2777089765
0.2777051809
0.277705165
0.27770515
0.2777051739
0.277705244
0.2777052662
0.2777052576
0.2777052754
0.2777052513
0.2777052778
0.2777053289
0.2777054367
0.277705665
0.2777061927
0.2777072137
0.2777048976
0.2777049036
0.2777049224
0.277704905
0.2777049134
0.2777049456
0.2777049444
0.2777049759
0.277704995
0.2777049859
0.2777050356
0.2777051203
0.2777055143
0.277706461
0.2777047783
0.2777047674
0.2777047911
0.2777048053
0.2777048455
0.2777048916
0.2777049092
0.2777049124
0.2777049068
0.2777049752
0.2777050521
0.2777053676
0.2777062763
0.2777087862
0.2777048887
0.2777048922
0.2777049016
0.2777048859
0.2777048448
0.2777048468
0.2777048628
0.2777048892
0.2777048895
0.2777048975
0.2777051173
0.2777059645
0.2777087877
0.2777170291
0.2777049178
0.2777048919
0.2777049009
0.2777048763
0.2777049159
0.2777049095
0.277704893
0.2777048511
0.2777048821
0.2777050077
0.2777054631
0.2777073957
0.2777149391
0.2777410816
0.2778079246
0.2777050653
0.2777050611
0.2777050422
0.2777050356
0.2777050156
0.2777050193
0.2777050263
0.2777050182
0.2777049974
0.2777051494
0.2777058171
0.2777090108
0.2777237913
0.2777881489
0.2780180346
0.2777046344
0.2777046184
0.2777046144
0.2777046249
0.277704629
0.2777046339
0.2777046545
0.2777046574
0.2777046787
0.2777048309
0.2777052524
0.2777071554
0.2777147247
0.2777409367
0.2778077728
0.2777048487
0.2777048761
0.277704834
0.2777048145
0.277704802
0.2777047747
0.2777047997
0.2777047946
0.2777048297
0.2777048796
0.2777050731
0.2777058843
0.277708691
0.2777169377
0.2777349725
0.2777046235
0.2777046259
0.2777046624
0.277704692
0.2777046651
0.2777047196
0.2777046982
0.2777046914
0.2777046991
0.2777047144
0.2777048178
0.277705111
0.2777060439
0.2777085243
0.277713628
0.2777046644
0.2777046341
0.2777046193
0.2777046432
0.2777046629
0.277704659
0.2777046458
0.2777046514
0.2777046868
0.2777047113
0.2777047615
0.2777049547
0.2777053353
0.2777062462
0.2777080228
0.2777046981
0.2777046957
0.2777046782
0.2777046826
0.2777046789
0.2777046564
0.2777046538
0.277704678
0.27770465
0.2777046629
0.2777047067
0.2777048679
0.2777053809
0.2777066154
0.2777046411
0.2777046509
0.2777046095
0.2777045841
0.2777045394
0.2777045139
0.2777044816
0.2777045368
0.277704496
0.2777045012
0.2777045905
0.2777050531
0.2777064255
0.2777101428
0.2777044848
0.2777044942
0.2777044917
0.2777044463
0.2777044722
0.2777044505
0.2777044573
0.2777044293
0.2777044324
0.27770451
0.277704839
0.2777060335
0.2777106005
0.2777258033
0.2777047428
0.2777047593
0.2777047567
0.2777047694
0.2777047986
0.2777048128
0.2777048102
0.2777047533
0.2777047663
0.2777048933
0.2777055681
0.2777087762
0.2777236111
0.2777880632
0.2777046351
0.2777046571
0.2777046495
0.2777046533
0.277704649
0.277704661
0.2777046419
0.2777047092
0.2777047474
0.2777049365
0.2777060027
0.2777121258
0.2777491928
0.2779892625
0.2818257182
0.2777040643
0.2777040537
0.277704078
0.2777040545
0.2777040548
0.2777040356
0.2777039932
0.2777039968
0.2777040628
0.2777042519
0.2777049464
0.2777081424
0.277722938
0.2777873214
0.2780172311
0.2777049436
0.2777049281
0.2777048979
0.2777048997
0.2777049166
0.2777049217
0.27770492
0.277704944
0.2777049217
0.2777050059
0.2777052947
0.2777065081
0.2777110952
0.2777262522
0.2777640597
0.2777042587
0.2777042313
0.2777042104
0.2777041813
0.2777041451
0.2777041107
0.2777041095
0.2777040943
0.2777041323
0.2777041485
0.2777042779
0.2777047104
0.2777060599
0.2777098546
0.2777178432
0.2777049531
0.2777049239
0.277704943
0.2777049323
0.2777049541
0.2777049396
0.2777049316
0.2777049163
0.277704942
0.2777049972
0.2777050322
0.2777052238
0.2777056932
0.2777069133
0.2777093627
0.2777048921
0.2777048986
0.2777049285
0.2777049478
0.2777049426
0.2777048985
0.2777049276
0.2777049172
0.2777049466
0.2777049272
0.2777050227
0.2777051731
0.277705553
0.2777064335
0.2777048554
0.2777048066
0.2777048512
0.2777048199
0.2777048313
0.2777048487
0.2777048609
0.2777048488
0.2777048345
0.2777049158
0.2777050398
0.2777053702
0.277706322
0.277708824
0.2777041155
0.2777041076
0.2777041342
0.277704123
0.2777041308
0.2777041523
0.2777041281
0.2777041054
0.2777041116
0.2777041586
0.277704351
0.2777052263
0.2777080892
0.277716272
0.2777053477
0.2777053285
0.2777053597
0.2777053575
0.2777053626
0.2777053385
0.2777053425
0.2777053426
0.2777053793
0.2777054692
0.2777059076
0.2777078141
0.277715398
0.2777415924
0.2777043647
0.2777043627
0.2777043888
0.2777043624
0.2777043858
0.2777044184
0.2777044053
0.2777044001
0.2777044313
0.2777045812
0.2777052208
0.2777084297
0.2777232887
0.2777877068
0.2777050097
0.2777050051
0.277704954
0.2777049736
0.2777050058
0.2777050106
0.2777050001
0.2777050197
0.2777050124
0.2777050904
0.2777055893
0.2777074847
0.277715038
0.2777412241
0.2777048268
0.2777048167
0.2777048155
0.2777048089
0.2777048015
0.2777047966
0.2777048146
0.277704827
0.2777048151
0.2777049142
0.277705054
0.2777059112
0.277708783
0.2777170119
0.2777350933
0.2777055082
0.2777055138
0.2777054771
0.2777054348
0.2777054626
0.2777054325
0.2777054427
0.2777054353
0.2777054393
0.2777054647
0.2777055496
0.277705912
0.2777068478
0.2777092979
0.2777143692
0.2777048577
0.2777048583
0.2777048681
0.2777048647
0.2777048262
0.2777048125
0.2777048289
0.2777048505
0.2777048448
0.2777048669
0.277704906
0.2777050458
0.2777054179
0.2777063231
0.2777081461
0.2777047269
0.2777047448
0.2777047635
0.2777047395
0.2777046831
0.2777046963
0.2777046791
0.2777046528
0.277704659
0.2777046197
0.2777046454
0.277704729
0.2777049581
0.2777055181
0.277704127
0.2777041425
0.2777041405
0.2777041499
0.2777041534
0.2777041459
0.2777041328
0.2777041103
0.2777041402
0.2777041544
0.2777042048
0.2777043982
0.2777048994
0.2777061014
0.2777042496
0.2777042504
0.2777042913
0.2777042722
0.2777042668
0.277704259
0.2777042918
0.2777043072
0.2777043285
0.2777043567
0.2777044661
0.2777048787
0.2777061503
0.2777094409
0.2777048598
0.2777048584
0.2777048544
0.2777048742
0.2777048971
0.2777049065
0.2777048956
0.2777049015
0.2777049131
0.277704968
0.2777052011
0.2777060708
0.2777089235
0.2777171611
0.2777047539
0.2777046805
0.2777046989
0.2777046504
0.2777047016
0.2777046748
0.2777046719
0.2777046755
0.2777046996
0.277704803
0.2777051159
0.2777062973
0.2777108943
0.2777261016
0.2777043083
0.2777043122
0.2777042567
0.277704288
0.2777043086
0.277704323
0.277704312
0.2777043032
0.2777043159
0.2777044077
0.2777046022
0.2777054619
0.2777082589
0.2777164893
0.2777046245
0.2777046148
0.2777046431
0.2777046376
0.2777046581
0.2777046635
0.2777046338
0.2777046637
0.2777046533
0.2777046858
0.2777048186
0.2777052147
0.2777064703
0.2777098203
0.2777050377
0.2777050682
0.2777050781
0.2777051082
0.2777050875
0.2777051044
0.2777051029
0.2777051036
0.2777051398
0.2777051381
0.2777052259
0.2777054065
0.2777058902
0.2777070957
0.2777095158
0.2777049991
0.2777050226
0.2777050505
0.2777050273
0.2777050413
0.2777050385
0.2777050847
0.2777050945
0.2777051669
0.2777051898
0.2777052237
0.2777052843
0.2777055175
0.2777060795
0.277707139
0.2777046804
0.2777047015
0.2777047399
0.2777047443
0.2777047135
0.2777046986
0.2777046787
0.2777046926
0.2777047068
0.277704717
0.2777047466
0.2777048202
0.2777049274
0.2777051922
0.2777045223
0.2777045138
0.2777044541
0.2777044557
0.2777044106
0.277704421
0.2777044094
0.2777044533
0.2777044514
0.2777044447
0.2777044901
0.2777045229
0.2777047868
0.2777052995
0.2777048475
0.2777048288
0.2777048662
0.2777048481
0.2777048331
0.2777047884
0.2777048215
0.2777047928
0.2777048014
0.2777048243
0.2777048612
0.2777050249
0.2777055639
0.2777068068
0.277704549
0.2777045381
0.2777045511
0.2777045578
0.2777045493
0.277704566
0.2777045887
0.2777045786
0.2777045494
0.2777045884
0.2777046544
0.2777049619
0.2777058987
0.2777083698
0.2777045829
0.2777045488
0.2777045791
0.2777045769
0.2777045926
0.2777046052
0.2777046406
0.2777046361
0.2777046118
0.2777046042
0.277704744
0.2777051769
0.2777065087
0.2777102429
0.2777045468
0.2777045205
0.2777045052
0.2777045429
0.2777045053
0.2777044843
0.2777044239
0.2777044395
0.2777044666
0.2777045007
0.2777046042
0.2777048946
0.2777058433
0.2777083571
0.277704965
0.2777049894
0.2777049731
0.2777049421
0.2777049383
0.277704948
0.2777049968
0.2777050175
0.2777050048
0.2777049643
0.2777050523
0.2777052675
0.2777057198
0.27770697
0.2777044652
0.2777044686
0.2777044933
0.2777044651
0.2777044917
0.2777044877
0.2777044868
0.2777044994
0.2777044923
0.2777044856
0.2777045011
0.2777045693
0.2777047798
0.2777053476
0.2777045744
0.2777046038
0.2777045986
0.2777046006
0.2777046358
0.2777046054
0.277704593
0.277704581
0.2777046059
0.2777046
0.2777046523
0.2777047156
0.2777048547
0.2777050942
0.2777056132
0.2777047193
0.2777047374
0.2777047568
0.2777047403
0.2777047359
0.2777047529
0.2777047515
0.2777047372
0.2777047363
0.277704768
0.2777047413
0.2777047714
0.2777048442
0.2777049874
0.2777045508
0.2777045675
0.2777045804
0.2777046094
0.2777045888
0.2777046068
0.2777045762
0.277704572
0.2777046049
0.2777046395
0.2777046897
0.2777047467
0.2777048697
0.2777051233
0.2777047119
0.2777047387
0.2777047348
0.2777047524
0.2777047793
0.2777047587
0.2777047432
0.2777047288
0.2777047459
0.2777047464
0.2777047964
0.2777049
0.2777051526
0.2777057045
0.2777047283
0.277704753
0.2777047294
0.2777047244
0.2777047496
0.2777047259
0.2777047408
0.2777047744
0.2777047868
0.2777047927
0.2777048282
0.2777049724
0.2777053147
0.27770624
0.2777050431
0.2777050107
0.2777049828
0.2777049876
0.2777049917
0.2777050141
0.277705029
0.2777050292
0.2777050528
0.2777050627
0.2777051085
0.2777052603
0.2777057476
0.2777069249
0.2777043059
0.2777043152
0.2777043509
0.2777043215
0.277704337
0.2777043457
0.2777043293
0.2777043337
0.2777042973
0.2777043088
0.2777043741
0.2777045315
0.2777049022
0.2777058241
0.2777047992
0.2777047596
0.2777047127
0.2777047163
0.277704725
0.2777047403
0.2777047859
0.2777048067
0.2777047939
0.277704839
0.2777048723
0.2777049693
0.2777051689
0.2777057276
0.2777053373
0.2777053001
0.277705294
0.2777052892
0.2777053037
0.2777052669
0.2777052257
0.2777052494
0.2777052543
0.2777052688
0.2777052809
0.2777053697
0.2777055187
0.2777058068
0.2777045761
0.2777045894
0.2777045815
0.2777045976
0.2777045919
0.277704573
0.2777046046
0.2777045929
0.277704586
0.2777045829
0.2777045918
0.2777046137
0.2777046752
0.2777048045
)
;

boundaryField
{
    top
    {
        type            calculated;
        value           nonuniform List<scalar> 
134
(
0.2777049122
0.2777046848
0.2777051809
0.2777046644
0.2777049531
0.2777048577
0.2777049991
0.2777045744
0.2777045761
0.2777049399
0.2777046985
0.277705165
0.2777046341
0.2777049239
0.2777048583
0.2777050226
0.2777046038
0.2777045894
0.2777049215
0.2777046956
0.27770515
0.2777046193
0.277704943
0.2777048681
0.2777050505
0.2777045986
0.2777045815
0.2777049143
0.2777046754
0.2777051739
0.2777046432
0.2777049323
0.2777048647
0.2777050273
0.2777046006
0.2777045976
0.2777049275
0.2777046533
0.277705244
0.2777046629
0.2777049541
0.2777048262
0.2777050413
0.2777046358
0.2777045919
0.2777048917
0.2777046376
0.2777052662
0.277704659
0.2777049396
0.2777048125
0.2777050385
0.2777046054
0.277704573
0.2777049065
0.277704626
0.2777052576
0.2777046458
0.2777049316
0.2777048289
0.2777050847
0.277704593
0.2777046046
0.2777049044
0.2777045948
0.2777052754
0.2777046514
0.2777049163
0.2777048505
0.2777050945
0.277704581
0.2777045929
0.2777048947
0.2777045851
0.2777052513
0.2777046868
0.277704942
0.2777048448
0.2777051669
0.2777046059
0.277704586
0.2777049159
0.2777045892
0.2777052778
0.2777047113
0.2777049972
0.2777048669
0.2777051898
0.2777046
0.2777045829
0.2777048814
0.2777046044
0.2777053289
0.2777047615
0.2777050322
0.277704906
0.2777052237
0.2777046523
0.2777045918
0.2777049669
0.2777046438
0.2777054367
0.2777049547
0.2777052238
0.2777050458
0.2777052843
0.2777047156
0.2777046137
0.2777050277
0.2777047347
0.277705665
0.2777053353
0.2777056932
0.2777054179
0.2777055175
0.2777048547
0.2777046752
0.2777051657
0.27770507
0.2777061927
0.2777062462
0.2777069133
0.2777063231
0.2777060795
0.2777050942
0.2777048045
0.2777054501
0.2777055891
0.2777072137
0.2777080228
0.2777093627
0.2777081461
0.277707139
0.2777056132
)
;
    }
    bottom
    {
        type            calculated;
        value           nonuniform List<scalar> 
127
(
0.2777047651
0.2777046006
0.2777044511
0.2777048976
0.2777046981
0.2777048921
0.2777047269
0.2777046804
0.2777047193
0.2777047823
0.2777046021
0.2777044273
0.2777049036
0.2777046957
0.2777048986
0.2777047448
0.2777047015
0.2777047374
0.2777047832
0.2777045908
0.2777044439
0.2777049224
0.2777046782
0.2777049285
0.2777047635
0.2777047399
0.2777047568
0.2777048037
0.2777045965
0.2777044502
0.277704905
0.2777046826
0.2777049478
0.2777047395
0.2777047443
0.2777047403
0.2777048008
0.2777046295
0.2777044857
0.2777049134
0.2777046789
0.2777049426
0.2777046831
0.2777047135
0.2777047359
0.2777048327
0.2777046215
0.2777044934
0.2777049456
0.2777046564
0.2777048985
0.2777046963
0.2777046986
0.2777047529
0.2777048178
0.2777045952
0.2777045187
0.2777049444
0.2777046538
0.2777049276
0.2777046791
0.2777046787
0.2777047515
0.2777048187
0.2777045945
0.2777045007
0.2777049759
0.277704678
0.2777049172
0.2777046528
0.2777046926
0.2777047372
0.2777048151
0.2777045786
0.2777045019
0.277704995
0.27770465
0.2777049466
0.277704659
0.2777047068
0.2777047363
0.2777048351
0.2777046046
0.2777045109
0.2777049859
0.2777046629
0.2777049272
0.2777046197
0.277704717
0.277704768
0.2777048191
0.2777046107
0.2777045664
0.2777050356
0.2777047067
0.2777050227
0.2777046454
0.2777047466
0.2777047413
0.2777048485
0.2777046822
0.2777046363
0.2777051203
0.2777048679
0.2777051731
0.277704729
0.2777048202
0.2777047714
0.2777048944
0.2777048052
0.2777048433
0.2777055143
0.2777053809
0.277705553
0.2777049581
0.2777049274
0.2777048442
0.2777050635
0.2777050892
0.2777053589
0.277706461
0.2777066154
0.2777064335
0.2777055181
0.2777051922
0.2777049874
0.2777054112
)
;
    }
    side-walls
    {
        type            calculated;
        value           nonuniform List<scalar> 
261
(
0.2777047651
0.2777046241
0.2777048575
0.2777046342
0.2777046353
0.2777047932
0.2777051314
0.2777046191
0.2777049122
0.2777047823
0.2777046232
0.2777048426
0.2777046328
0.2777046184
0.2777048199
0.2777051256
0.2777045971
0.2777049399
0.2777047832
0.2777046073
0.2777048301
0.2777046409
0.2777046511
0.2777048041
0.2777050977
0.277704626
0.2777049215
0.2777048037
0.2777046181
0.2777048415
0.2777046235
0.2777046497
0.2777048341
0.2777051151
0.2777046131
0.2777049143
0.2777048008
0.277704648
0.2777048758
0.2777046087
0.2777046617
0.2777047799
0.2777050984
0.2777045895
0.2777049275
0.2777048327
0.2777046619
0.2777048615
0.2777045978
0.2777046529
0.2777047202
0.2777050854
0.2777045958
0.2777048917
0.2777048178
0.2777046406
0.277704856
0.2777045891
0.2777046384
0.277704749
0.2777050808
0.2777045853
0.2777049065
0.2777048187
0.2777046517
0.277704849
0.2777046425
0.2777046238
0.2777047606
0.2777051294
0.277704579
0.2777049044
0.2777048151
0.277704639
0.277704841
0.2777046264
0.2777046306
0.2777047754
0.2777051519
0.2777046154
0.2777048947
0.2777048351
0.2777046555
0.2777048141
0.2777046269
0.2777046175
0.2777047858
0.2777051414
0.2777046307
0.2777049159
0.2777048191
0.27770467
0.2777048639
0.2777046638
0.2777046584
0.2777048541
0.277705247
0.2777046769
0.2777048814
0.2777048485
0.2777047161
0.2777049392
0.2777047787
0.2777048242
0.2777050149
0.2777053361
0.2777047745
0.2777049669
0.2777048944
0.2777048153
0.2777051908
0.2777051692
0.2777053039
0.2777053565
0.2777055738
0.2777048853
0.2777050277
0.2777050635
0.2777050836
0.277705726
0.2777060724
0.2777065186
0.2777062736
0.2777060919
0.2777051958
0.2777051657
0.2777054112
0.2777055969
0.2777067676
0.2777078856
0.2777089405
0.2777080736
0.2777071344
0.2777057127
0.2777054501
0.2777047193
0.2777045508
0.2777047119
0.2777047283
0.2777050431
0.2777043059
0.2777047992
0.2777053373
0.2777045761
0.2777047374
0.2777045675
0.2777047387
0.277704753
0.2777050107
0.2777043152
0.2777047596
0.2777053001
0.2777045894
0.2777047568
0.2777045804
0.2777047348
0.2777047294
0.2777049828
0.2777043509
0.2777047127
0.277705294
0.2777045815
0.2777047403
0.2777046094
0.2777047524
0.2777047244
0.2777049876
0.2777043215
0.2777047163
0.2777052892
0.2777045976
0.2777047359
0.2777045888
0.2777047793
0.2777047496
0.2777049917
0.277704337
0.277704725
0.2777053037
0.2777045919
0.2777047529
0.2777046068
0.2777047587
0.2777047259
0.2777050141
0.2777043457
0.2777047403
0.2777052669
0.277704573
0.2777047515
0.2777045762
0.2777047432
0.2777047408
0.277705029
0.2777043293
0.2777047859
0.2777052257
0.2777046046
0.2777047372
0.277704572
0.2777047288
0.2777047744
0.2777050292
0.2777043337
0.2777048067
0.2777052494
0.2777045929
0.2777047363
0.2777046049
0.2777047459
0.2777047868
0.2777050528
0.2777042973
0.2777047939
0.2777052543
0.277704586
0.277704768
0.2777046395
0.2777047464
0.2777047927
0.2777050627
0.2777043088
0.277704839
0.2777052688
0.2777045829
0.2777047413
0.2777046897
0.2777047964
0.2777048282
0.2777051085
0.2777043741
0.2777048723
0.2777052809
0.2777045918
0.2777047714
0.2777047467
0.2777049
0.2777049724
0.2777052603
0.2777045315
0.2777049693
0.2777053697
0.2777046137
0.2777048442
0.2777048697
0.2777051526
0.2777053147
0.2777057476
0.2777049022
0.2777051689
0.2777055187
0.2777046752
0.2777049874
0.2777051233
0.2777057045
0.27770624
0.2777069249
0.2777058241
0.2777057276
0.2777058068
0.2777048045
)
;
    }
    inlet
    {
        type            calculated;
        value           nonuniform List<scalar> 
81
(
0.2777047651
0.2777046241
0.2777048575
0.2777046342
0.2777046353
0.2777047932
0.2777051314
0.2777046191
0.2777049122
0.2777046006
0.2777048218
0.277705029
0.2777048747
0.277704431
0.2777047356
0.277704753
0.2777050582
0.2777046848
0.2777044511
0.2777048104
0.2777048437
0.2777042727
0.2777049204
0.277705123
0.2777042637
0.2777045295
0.2777051809
0.2777048976
0.2777047783
0.2777048887
0.2777049178
0.2777050653
0.2777046344
0.2777048487
0.2777046235
0.2777046644
0.2777046981
0.2777046411
0.2777044848
0.2777047428
0.2777046351
0.2777040643
0.2777049436
0.2777042587
0.2777049531
0.2777048921
0.2777048554
0.2777041155
0.2777053477
0.2777043647
0.2777050097
0.2777048268
0.2777055082
0.2777048577
0.2777047269
0.277704127
0.2777042496
0.2777048598
0.2777047539
0.2777043083
0.2777046245
0.2777050377
0.2777049991
0.2777046804
0.2777045223
0.2777048475
0.277704549
0.2777045829
0.2777045468
0.277704965
0.2777044652
0.2777045744
0.2777047193
0.2777045508
0.2777047119
0.2777047283
0.2777050431
0.2777043059
0.2777047992
0.2777053373
0.2777045761
)
;
    }
    outlet
    {
        type            calculated;
        value           nonuniform 0();
    }
    procBoundary0to1
    {
        type            processor;
        value           nonuniform List<scalar> 
97
(
0.2777059122
0.2777056111
0.2777065171
0.2777084536
0.2777106875
0.2777124867
0.277710882
0.2777087966
0.2777066203
0.277705977
0.2777056111
0.2777056111
0.2777084214
0.2777092219
0.2777129211
0.2777207949
0.277727641
0.2777205716
0.2777129195
0.2777086211
0.2777064858
0.2777064068
0.2777092219
0.2777092219
0.2777260454
0.2777351036
0.2777540997
0.2777922482
0.2777550662
0.277725341
0.2777126467
0.2777088736
0.2777082649
0.277713885
0.2777351036
0.2777351036
0.2778530742
0.2780179755
0.2780523335
0.277852993
0.2777544732
0.2777205495
0.2777108725
0.277709047
0.2777181411
0.2777636215
0.2780179755
0.2780179755
0.2822903281
0.2780175994
0.2780515913
0.2778080615
0.2777923162
0.2777273425
0.2777129126
0.2777082531
0.2777139106
0.2777343617
0.2778084625
0.2780175994
0.2778080615
0.2778080615
0.2777546597
0.2777166768
0.2777212888
0.2777109398
0.2777065753
0.2777085614
0.2777162382
0.2777352092
0.2777638974
0.2777345279
0.2777166768
0.2777166768
0.2777131529
0.2777064201
0.2777088456
0.277705744
0.277706376
0.2777092487
0.2777134502
0.2777182979
0.2777134331
0.277709364
0.2777064201
0.2777064201
0.2777064995
0.2777051101
0.2777053206
0.2777056694
0.2777067531
0.2777080516
0.2777093406
0.2777076531
0.2777066926
0.2777063446
0.2777051101
)
;
    }
}


// ************************************************************************* //
