/*--------------------------------*- C++ -*----------------------------------*\
| =========                 |                                                 |
| \\      /  F ield         | OpenFOAM: The Open Source CFD Toolbox           |
|  \\    /   O peration     | Version:  4.x                                   |
|   \\  /    A nd           | Web:      www.OpenFOAM.org                      |
|    \\/     M anipulation  |                                                 |
\*---------------------------------------------------------------------------*/
FoamFile
{
    version     2.0;
    format      ascii;
    class       volScalarField;
    location    "1000";
    object      T;
}
// * * * * * * * * * * * * * * * * * * * * * * * * * * * * * * * * * * * * * //

dimensions      [0 0 0 1 0 0 0];

internalField   nonuniform List<scalar> 
1175
(
1223.150149
1223.150074
1223.15007
1223.14998
1223.149993
1223.149852
1223.149918
1223.149916
1223.149938
1223.14987
1223.149994
1223.150009
1223.150158
1223.150187
1223.150176
1223.150771
1223.150774
1223.150845
1223.150797
1223.150665
1223.150604
1223.150699
1223.150653
1223.150718
1223.150674
1223.150696
1223.150728
1223.150884
1223.151037
1223.151402
1223.149742
1223.149808
1223.149863
1223.149813
1223.149662
1223.149725
1223.149751
1223.149786
1223.149836
1223.150002
1223.14993
1223.150025
1223.150037
1223.150279
1223.150813
1223.150726
1223.150732
1223.150696
1223.150773
1223.150838
1223.150887
1223.150927
1223.150698
1223.150789
1223.150857
1223.150921
1223.151099
1223.151256
1223.151781
1223.152732
1223.150721
1223.150796
1223.150652
1223.150658
1223.150605
1223.150644
1223.15071
1223.150781
1223.150775
1223.150915
1223.151006
1223.15112
1223.151399
1223.151972
1223.15321
1223.150026
1223.149908
1223.149978
1223.149845
1223.150084
1223.150348
1223.150223
1223.150177
1223.150133
1223.150157
1223.150083
1223.150059
1223.150431
1223.150895
1223.151904
1223.148536
1223.148562
1223.148685
1223.148608
1223.148681
1223.148739
1223.148761
1223.148551
1223.148466
1223.14856
1223.148243
1223.148277
1223.148351
1223.148668
1223.149197
1223.150793
1223.150889
1223.150762
1223.150819
1223.150923
1223.150896
1223.150943
1223.150973
1223.150822
1223.150783
1223.150665
1223.150471
1223.150575
1223.150543
1223.150892
1223.149502
1223.14938
1223.14946
1223.149493
1223.149434
1223.149592
1223.149527
1223.149539
1223.149588
1223.149514
1223.14972
1223.149487
1223.14957
1223.149737
1223.150004
1223.150874
1223.150867
1223.150917
1223.150892
1223.150747
1223.150782
1223.150899
1223.150905
1223.150984
1223.150899
1223.150957
1223.150877
1223.150928
1223.151013
1223.1499
1223.150012
1223.149944
1223.149912
1223.149856
1223.15
1223.150107
1223.150173
1223.150035
1223.150198
1223.150204
1223.150221
1223.150306
1223.150488
1223.151216
1223.148987
1223.148976
1223.149104
1223.149178
1223.149333
1223.149305
1223.149165
1223.149215
1223.149405
1223.149531
1223.149605
1223.149684
1223.150005
1223.150618
1223.151919
1223.149667
1223.149712
1223.149858
1223.149699
1223.149732
1223.149447
1223.149342
1223.149356
1223.149595
1223.149635
1223.14972
1223.149653
1223.150253
1223.151402
1223.154085
1223.151621
1223.151662
1223.151613
1223.151558
1223.151512
1223.151624
1223.151491
1223.151657
1223.151627
1223.151483
1223.15166
1223.151774
1223.152478
1223.154451
1223.158476
1223.15028
1223.150217
1223.150485
1223.150636
1223.150457
1223.150437
1223.150278
1223.150402
1223.150416
1223.150239
1223.150395
1223.150711
1223.151287
1223.152333
1223.15484
1223.150203
1223.150165
1223.150079
1223.150042
1223.149969
1223.150055
1223.15024
1223.15017
1223.150093
1223.150072
1223.150018
1223.150164
1223.15061
1223.151096
1223.152144
1223.148858
1223.148958
1223.149048
1223.149062
1223.149105
1223.14913
1223.14916
1223.149171
1223.149299
1223.149362
1223.149408
1223.149497
1223.149534
1223.149798
1223.150282
1223.150503
1223.150443
1223.150456
1223.150544
1223.150642
1223.150711
1223.150763
1223.150903
1223.150956
1223.150967
1223.150985
1223.151046
1223.151239
1223.151098
1223.151436
1223.151532
1223.151637
1223.151564
1223.151536
1223.15138
1223.151347
1223.151237
1223.15132
1223.151329
1223.151337
1223.151241
1223.151359
1223.151568
1223.151897
1223.14995
1223.15018
1223.15019
1223.150232
1223.150235
1223.150196
1223.150195
1223.150237
1223.149912
1223.150055
1223.150014
1223.150106
1223.150303
1223.150964
1223.149803
1223.149787
1223.149732
1223.149479
1223.149563
1223.149491
1223.149443
1223.149741
1223.149624
1223.149633
1223.149584
1223.149757
1223.150346
1223.151824
1223.155138
1223.152318
1223.152282
1223.152284
1223.152309
1223.15226
1223.152317
1223.152163
1223.152139
1223.152179
1223.152228
1223.152439
1223.152779
1223.154095
1223.158603
1223.167771
1223.149465
1223.149473
1223.14943
1223.149483
1223.149642
1223.149721
1223.149828
1223.150118
1223.150263
1223.150368
1223.150388
1223.151097
1223.153293
1223.161026
1223.180108
1223.148573
1223.148585
1223.148619
1223.14875
1223.148698
1223.148725
1223.148661
1223.148542
1223.14868
1223.148753
1223.148672
1223.14902
1223.150299
1223.154546
1223.163539
1223.152358
1223.152158
1223.152182
1223.152101
1223.152254
1223.15241
1223.15232
1223.152379
1223.152335
1223.152329
1223.152299
1223.152494
1223.15305
1223.154685
1223.158072
1223.151187
1223.151162
1223.151286
1223.151185
1223.151031
1223.151118
1223.150924
1223.151028
1223.151078
1223.151174
1223.151116
1223.151139
1223.151318
1223.151869
1223.153244
1223.148318
1223.148388
1223.148454
1223.148349
1223.14804
1223.147943
1223.147982
1223.147908
1223.148029
1223.14796
1223.147882
1223.147834
1223.147949
1223.148224
1223.148848
1223.149566
1223.149539
1223.149457
1223.149533
1223.149497
1223.149355
1223.149362
1223.149229
1223.149166
1223.149276
1223.149284
1223.149595
1223.149736
1223.15007
1223.150092
1223.150139
1223.150035
1223.149972
1223.149796
1223.149593
1223.149518
1223.149514
1223.149574
1223.149406
1223.149536
1223.149699
1223.150384
1223.151538
1223.149605
1223.14959
1223.149548
1223.149617
1223.149799
1223.149791
1223.149725
1223.149625
1223.149694
1223.149941
1223.150073
1223.150415
1223.151829
1223.156069
1223.149477
1223.149591
1223.149551
1223.14966
1223.149486
1223.149515
1223.149594
1223.149805
1223.149788
1223.149757
1223.150006
1223.15094
1223.154892
1223.168433
1223.202462
1223.148827
1223.148846
1223.148929
1223.148958
1223.149047
1223.149032
1223.149008
1223.149077
1223.14932
1223.149359
1223.149752
1223.151402
1223.159164
1223.192323
1223.278301
1223.150725
1223.150796
1223.150813
1223.150767
1223.150749
1223.150729
1223.150644
1223.150659
1223.150684
1223.150536
1223.150934
1223.151999
1223.155835
1223.169067
1223.203115
1223.149781
1223.14966
1223.149846
1223.149932
1223.149987
1223.150109
1223.150002
1223.150042
1223.149958
1223.15002
1223.150268
1223.150768
1223.152254
1223.156469
1223.165784
1223.150773
1223.150762
1223.150602
1223.150472
1223.15059
1223.150351
1223.150448
1223.150487
1223.150489
1223.150554
1223.150567
1223.150829
1223.151408
1223.152691
1223.155148
1223.150593
1223.150727
1223.150792
1223.150686
1223.1506
1223.150617
1223.150677
1223.150658
1223.150523
1223.150485
1223.150491
1223.150324
1223.150524
1223.151015
1223.152127
1223.150444
1223.150455
1223.150532
1223.150513
1223.150529
1223.150629
1223.150642
1223.150542
1223.150689
1223.150715
1223.150794
1223.150928
1223.151061
1223.151546
1223.150696
1223.150653
1223.150835
1223.150947
1223.151144
1223.151257
1223.151402
1223.15117
1223.151392
1223.151531
1223.151731
1223.15176
1223.152336
1223.154401
1223.151384
1223.151343
1223.151354
1223.151554
1223.15144
1223.151536
1223.151511
1223.151655
1223.151727
1223.151747
1223.151792
1223.152508
1223.154871
1223.162616
1223.150248
1223.150175
1223.150186
1223.150131
1223.150002
1223.149941
1223.14996
1223.150244
1223.150338
1223.150487
1223.150848
1223.152435
1223.15996
1223.192715
1223.150722
1223.150625
1223.150659
1223.150642
1223.150661
1223.150611
1223.150703
1223.150448
1223.150479
1223.150659
1223.151342
1223.154627
1223.173374
1223.295692
1209.381584
1223.153236
1223.153283
1223.153176
1223.15328
1223.153278
1223.153364
1223.153558
1223.153576
1223.153437
1223.153312
1223.153587
1223.155227
1223.162922
1223.195967
1223.28184
1223.149363
1223.149432
1223.149565
1223.149557
1223.149482
1223.149461
1223.149473
1223.149388
1223.149572
1223.149563
1223.149785
1223.150417
1223.152691
1223.160636
1223.17985
1223.15238
1223.152501
1223.152593
1223.152721
1223.15288
1223.153033
1223.153041
1223.153119
1223.152994
1223.153085
1223.153108
1223.153269
1223.153946
1223.15567
1223.159907
1223.149321
1223.14945
1223.149366
1223.149413
1223.149317
1223.149382
1223.149419
1223.149492
1223.149403
1223.149242
1223.14936
1223.14936
1223.149685
1223.150233
1223.15135
1223.14959
1223.149562
1223.14943
1223.149345
1223.149368
1223.149562
1223.149436
1223.149488
1223.149379
1223.149534
1223.14934
1223.149362
1223.149566
1223.150191
1223.149752
1223.149967
1223.14977
1223.149908
1223.149858
1223.149782
1223.149731
1223.149794
1223.149893
1223.149668
1223.14959
1223.149688
1223.150183
1223.151371
1223.153011
1223.153046
1223.152928
1223.152978
1223.152944
1223.15285
1223.152961
1223.153077
1223.15312
1223.153195
1223.153448
1223.153666
1223.154905
1223.159403
1223.147583
1223.147668
1223.147531
1223.14754
1223.147518
1223.147626
1223.147614
1223.147641
1223.147598
1223.147724
1223.148048
1223.149097
1223.152871
1223.166184
1223.151913
1223.151922
1223.151807
1223.151923
1223.15182
1223.151679
1223.151743
1223.151799
1223.151814
1223.151862
1223.152378
1223.153961
1223.16138
1223.194284
1223.149072
1223.149093
1223.149317
1223.149231
1223.14909
1223.14907
1223.149122
1223.149063
1223.149214
1223.149393
1223.14945
1223.150548
1223.154456
1223.167806
1223.149878
1223.149922
1223.149928
1223.149956
1223.149989
1223.150012
1223.149937
1223.1499
1223.150022
1223.149868
1223.150352
1223.15065
1223.151849
1223.156144
1223.165256
1223.146876
1223.146852
1223.147013
1223.1472
1223.147078
1223.147211
1223.147168
1223.14721
1223.147229
1223.14725
1223.147344
1223.147301
1223.147867
1223.149284
1223.151884
1223.149742
1223.149739
1223.149696
1223.149711
1223.14988
1223.149941
1223.14987
1223.149782
1223.149827
1223.1498
1223.149855
1223.149923
1223.150161
1223.150677
1223.151585
1223.150318
1223.150239
1223.150156
1223.150262
1223.150511
1223.150453
1223.15053
1223.15065
1223.150637
1223.150858
1223.150892
1223.150951
1223.151063
1223.151195
1223.15296
1223.152892
1223.152901
1223.152859
1223.152844
1223.152877
1223.152937
1223.153043
1223.152935
1223.152956
1223.153014
1223.15303
1223.15327
1223.153968
1223.15242
1223.152416
1223.152236
1223.15232
1223.152345
1223.15238
1223.152238
1223.152182
1223.152131
1223.152172
1223.152284
1223.152477
1223.153054
1223.154872
1223.149732
1223.149738
1223.149756
1223.149669
1223.149569
1223.149528
1223.14958
1223.149571
1223.14959
1223.14963
1223.149704
1223.149947
1223.151231
1223.155487
1223.150199
1223.150522
1223.150441
1223.150655
1223.15043
1223.150549
1223.150566
1223.150571
1223.15055
1223.150457
1223.150572
1223.151346
1223.153577
1223.161301
1223.152161
1223.152144
1223.152389
1223.152251
1223.15216
1223.152098
1223.152151
1223.152207
1223.15222
1223.152099
1223.152342
1223.152629
1223.154158
1223.158446
1223.150769
1223.150811
1223.150687
1223.150711
1223.150621
1223.150598
1223.150731
1223.150611
1223.150701
1223.150722
1223.150732
1223.150997
1223.151644
1223.153201
1223.148949
1223.148814
1223.148771
1223.148639
1223.14873
1223.148656
1223.148664
1223.148668
1223.148532
1223.148624
1223.148516
1223.148589
1223.148906
1223.149589
1223.15087
1223.149119
1223.149015
1223.148892
1223.148995
1223.148933
1223.148946
1223.148744
1223.148705
1223.1484
1223.148347
1223.148346
1223.148505
1223.148598
1223.148722
1223.149177
1223.150522
1223.15043
1223.15026
1223.150241
1223.150377
1223.150443
1223.150531
1223.150473
1223.15042
1223.150403
1223.150358
1223.150269
1223.15039
1223.150559
1223.151219
1223.151256
1223.151519
1223.151512
1223.151711
1223.151666
1223.151718
1223.151529
1223.151551
1223.151627
1223.151574
1223.151855
1223.151822
1223.152199
1223.149787
1223.149869
1223.149704
1223.149784
1223.14985
1223.150048
1223.149904
1223.150037
1223.150023
1223.150006
1223.150123
1223.15027
1223.150343
1223.150861
1223.151101
1223.151149
1223.151092
1223.151063
1223.1511
1223.151027
1223.15093
1223.150984
1223.151148
1223.151109
1223.151287
1223.151486
1223.152047
1223.153372
1223.150952
1223.151102
1223.150969
1223.150979
1223.15091
1223.150855
1223.150702
1223.150732
1223.150882
1223.151077
1223.151055
1223.151215
1223.151969
1223.153961
1223.151111
1223.151227
1223.151294
1223.151128
1223.151294
1223.151387
1223.151656
1223.151596
1223.151513
1223.151496
1223.151509
1223.151783
1223.152291
1223.153428
1223.149269
1223.149161
1223.149233
1223.14937
1223.149387
1223.149345
1223.149131
1223.149047
1223.149127
1223.149389
1223.149281
1223.149201
1223.149656
1223.150142
1223.151471
1223.151455
1223.151346
1223.151471
1223.151354
1223.151372
1223.151377
1223.151326
1223.151371
1223.151447
1223.151525
1223.151651
1223.151853
1223.151987
1223.150989
1223.15086
1223.150883
1223.150874
1223.150719
1223.150853
1223.150909
1223.150964
1223.150864
1223.150919
1223.150774
1223.15073
1223.15071
1223.150991
1223.15133
1223.150351
1223.150272
1223.150186
1223.150259
1223.150278
1223.150204
1223.15021
1223.150275
1223.150286
1223.150165
1223.150337
1223.150349
1223.150379
1223.150522
1223.151093
1223.15102
1223.150963
1223.150835
1223.150926
1223.150847
1223.150983
1223.151004
1223.150868
1223.150745
1223.150609
1223.150593
1223.150644
1223.150863
1223.150384
1223.150266
1223.150283
1223.150206
1223.150087
1223.150178
1223.150248
1223.150315
1223.150254
1223.1503
1223.150228
1223.150198
1223.150206
1223.150374
1223.150311
1223.150203
1223.150307
1223.150329
1223.150218
1223.150323
1223.150259
1223.150117
1223.150082
1223.150127
1223.150197
1223.150246
1223.150615
1223.151043
1223.148925
1223.149068
1223.149191
1223.149169
1223.149152
1223.149053
1223.14899
1223.148995
1223.148915
1223.148954
1223.149024
1223.149199
1223.149445
1223.150183
1223.152172
1223.152131
1223.151974
1223.152104
1223.152035
1223.151997
1223.152071
1223.152058
1223.152239
1223.152258
1223.152197
1223.152188
1223.152432
1223.152875
1223.149999
1223.150174
1223.15038
1223.150364
1223.150326
1223.150259
1223.15006
1223.149972
1223.150043
1223.149892
1223.149893
1223.149892
1223.150134
1223.150273
1223.147629
1223.147793
1223.14782
1223.147841
1223.147777
1223.14794
1223.148122
1223.14802
1223.148008
1223.147973
1223.148005
1223.147849
1223.147786
1223.147852
1223.150982
1223.150923
1223.150958
1223.150887
1223.150913
1223.150996
1223.150857
1223.150911
1223.150948
1223.15098
1223.150996
1223.151043
1223.151123
1223.151327
)
;

boundaryField
{
    top
    {
        type            zeroGradient;
    }
    bottom
    {
        type            zeroGradient;
    }
    side-walls
    {
        type            zeroGradient;
    }
    inlet
    {
        type            zeroGradient;
    }
    outlet
    {
        type            zeroGradient;
    }
    procBoundary0to1
    {
        type            processor;
        value           nonuniform List<scalar> 
97
(
1223.150613
1223.151339
1223.151783
1223.151708
1223.154229
1223.15511
1223.153372
1223.150197
1223.151328
1223.150327
1223.151339
1223.151339
1223.152016
1223.152164
1223.153841
1223.157527
1223.163485
1223.15851
1223.153847
1223.151136
1223.15192
1223.152402
1223.152164
1223.152164
1223.159795
1223.165212
1223.177659
1223.194427
1223.1734
1223.162894
1223.155048
1223.149858
1223.151062
1223.154017
1223.165212
1223.165212
1223.225478
1223.278546
1223.295337
1223.225824
1223.176011
1223.158607
1223.153414
1223.152741
1223.158596
1223.181779
1223.278546
1223.278546
1208.960779
1223.280199
1223.298602
1223.201845
1223.194128
1223.1648
1223.153234
1223.151114
1223.153903
1223.168476
1223.200077
1223.280199
1223.201845
1223.201845
1223.175194
1223.156458
1223.155352
1223.153118
1223.151659
1223.155073
1223.158389
1223.164742
1223.180563
1223.167743
1223.156458
1223.156458
1223.152819
1223.152458
1223.149982
1223.150753
1223.152652
1223.152045
1223.155931
1223.157904
1223.156006
1223.151538
1223.152458
1223.152458
1223.15186
1223.151502
1223.150575
1223.151082
1223.150876
1223.152001
1223.151447
1223.153756
1223.151143
1223.148108
1223.151502
)
;
    }
}


// ************************************************************************* //
