/*--------------------------------*- C++ -*----------------------------------*\
| =========                 |                                                 |
| \\      /  F ield         | OpenFOAM: The Open Source CFD Toolbox           |
|  \\    /   O peration     | Version:  4.x                                   |
|   \\  /    A nd           | Web:      www.OpenFOAM.org                      |
|    \\/     M anipulation  |                                                 |
\*---------------------------------------------------------------------------*/
FoamFile
{
    version     2.0;
    format      ascii;
    class       volScalarField;
    location    "1000";
    object      X_CO2;
}
// * * * * * * * * * * * * * * * * * * * * * * * * * * * * * * * * * * * * * //

dimensions      [0 0 0 0 0 0 0];

internalField   nonuniform List<scalar> 
1175
(
0.0399946641
0.0399946641
0.0399946641
0.03999466412
0.03999466417
0.03999466437
0.03999466504
0.03999466724
0.03999467413
0.03999469484
0.03999475359
0.03999490918
0.03999528833
0.03999612435
0.03999776717
0.0399946641
0.0399946641
0.0399946641
0.03999466412
0.03999466419
0.03999466445
0.03999466535
0.03999466841
0.03999467839
0.03999470957
0.03999480175
0.03999505576
0.03999569607
0.03999713887
0.03999997421
0.0399946641
0.0399946641
0.03999466411
0.03999466413
0.03999466423
0.03999466459
0.0399946659
0.03999467051
0.03999468625
0.03999473774
0.03999489729
0.03999535783
0.03999656813
0.03999937522
0.04000490553
0.0399946641
0.0399946641
0.03999466411
0.03999466414
0.03999466426
0.03999466473
0.03999466647
0.03999467278
0.03999469509
0.0399947709
0.03999501578
0.03999575442
0.03999778079
0.04000264346
0.0400122935
0.0399946641
0.0399946641
0.03999466411
0.03999466414
0.03999466428
0.03999466479
0.03999466672
0.03999467385
0.03999469945
0.03999478819
0.03999508186
0.03999599336
0.03999857623
0.04000497052
0.0400178236
0.0399946641
0.0399946641
0.03999466411
0.03999466414
0.03999466426
0.03999466473
0.03999466647
0.03999467278
0.03999469509
0.03999477089
0.03999501578
0.03999575441
0.03999778076
0.04000264337
0.04001229331
0.0399946641
0.0399946641
0.03999466411
0.03999466413
0.03999466423
0.03999466459
0.0399946659
0.03999467051
0.03999468625
0.03999473774
0.03999489728
0.03999535781
0.03999656808
0.03999937511
0.04000490528
0.0399946641
0.0399946641
0.0399946641
0.03999466412
0.03999466419
0.03999466445
0.03999466535
0.03999466841
0.03999467839
0.03999470957
0.03999480175
0.03999505575
0.03999569603
0.03999713876
0.03999997397
0.0399946641
0.0399946641
0.0399946641
0.03999466412
0.03999466417
0.03999466437
0.03999466504
0.03999466724
0.03999467413
0.03999469484
0.03999475358
0.03999490917
0.0399952883
0.03999612426
0.03999776695
0.0399946641
0.0399946641
0.0399946641
0.03999466412
0.03999466419
0.03999466445
0.03999466535
0.03999466841
0.03999467839
0.03999470957
0.03999480176
0.03999505577
0.0399956961
0.03999713898
0.0399946641
0.0399946641
0.0399946641
0.03999466413
0.03999466422
0.03999466457
0.03999466584
0.03999467031
0.03999468566
0.03999473623
0.03999489421
0.03999535426
0.03999657348
0.03999941895
0.04000502976
0.0399946641
0.0399946641
0.03999466411
0.03999466414
0.03999466427
0.03999466478
0.0399946667
0.03999467387
0.03999469982
0.03999479051
0.03999509224
0.03999602958
0.03999867176
0.04000514143
0.04001803309
0.0399946641
0.0399946641
0.03999466411
0.03999466415
0.03999466432
0.039994665
0.03999466765
0.03999467792
0.03999471687
0.03999486025
0.03999536612
0.03999704295
0.04000210299
0.04001528148
0.04004219886
0.0399946641
0.0399946641
0.03999466411
0.03999466416
0.03999466434
0.0399946651
0.0399946681
0.03999467995
0.039994726
0.03999490076
0.03999554158
0.03999777201
0.0400049185
0.04002481837
0.04006736682
0.0399946641
0.0399946641
0.03999466411
0.03999466415
0.03999466432
0.039994665
0.03999466765
0.03999467792
0.03999471687
0.03999486025
0.03999536611
0.03999704292
0.04000210288
0.04001528113
0.04004219804
0.0399946641
0.0399946641
0.03999466411
0.03999466414
0.03999466427
0.03999466478
0.0399946667
0.03999467387
0.03999469981
0.03999479051
0.03999509223
0.03999602955
0.03999867164
0.04000514108
0.04001803223
0.0399946641
0.0399946641
0.0399946641
0.03999466413
0.03999466422
0.03999466457
0.03999466584
0.03999467031
0.03999468566
0.03999473623
0.03999489421
0.03999535423
0.03999657339
0.03999941867
0.04000502901
0.0399946641
0.0399946641
0.0399946641
0.03999466412
0.03999466419
0.03999466445
0.03999466535
0.03999466841
0.03999467839
0.03999470957
0.03999480175
0.03999505575
0.03999569603
0.03999713877
0.03999997399
0.0399946641
0.0399946641
0.03999466411
0.03999466413
0.03999466423
0.03999466459
0.0399946659
0.03999467051
0.03999468626
0.03999473775
0.03999489729
0.03999535785
0.03999656821
0.03999937549
0.0399946641
0.0399946641
0.03999466411
0.03999466414
0.03999466427
0.03999466478
0.0399946667
0.03999467387
0.03999469982
0.03999479051
0.03999509225
0.03999602961
0.03999867188
0.04000514194
0.0399946641
0.0399946641
0.03999466411
0.03999466416
0.03999466435
0.03999466512
0.03999466821
0.03999468042
0.03999472772
0.03999490565
0.03999554702
0.03999771695
0.04000438529
0.0400219927
0.04005810808
0.0399946641
0.0399946641
0.03999466412
0.03999466418
0.03999466443
0.03999466549
0.03999466993
0.03999468838
0.03999476408
0.03999506869
0.03999625621
0.04000065325
0.04001559951
0.04005934879
0.04015512723
0.0399946641
0.0399946641
0.03999466412
0.03999466418
0.03999466447
0.03999466567
0.0399946708
0.03999469267
0.03999478549
0.03999517584
0.03999678882
0.04000323951
0.04002749596
0.04010810387
0.0403085121
0.0399946641
0.0399946641
0.03999466412
0.03999466418
0.03999466443
0.03999466549
0.03999466993
0.03999468838
0.03999476408
0.03999506868
0.03999625619
0.04000065314
0.04001559906
0.04005934712
0.04015512266
0.0399946641
0.0399946641
0.03999466411
0.03999466416
0.03999466435
0.03999466512
0.03999466821
0.03999468042
0.03999472772
0.03999490565
0.039995547
0.03999771686
0.04000438492
0.04002199135
0.04005810399
0.0399946641
0.0399946641
0.03999466411
0.03999466414
0.03999466427
0.03999466478
0.0399946667
0.03999467387
0.03999469982
0.03999479051
0.03999509224
0.03999602956
0.03999867166
0.04000514111
0.04001803228
0.0399946641
0.0399946641
0.03999466411
0.03999466413
0.03999466423
0.03999466459
0.0399946659
0.03999467051
0.03999468625
0.03999473774
0.03999489729
0.03999535782
0.0399965681
0.03999937513
0.04000490531
0.0399946641
0.0399946641
0.03999466411
0.03999466414
0.03999466426
0.03999466473
0.03999466647
0.03999467278
0.03999469509
0.0399947709
0.0399950158
0.03999575447
0.03999778096
0.04000264394
0.0399946641
0.0399946641
0.03999466411
0.03999466415
0.03999466432
0.039994665
0.03999466765
0.03999467792
0.03999471687
0.03999486026
0.03999536614
0.03999704304
0.04000210333
0.0400152827
0.0399946641
0.0399946641
0.03999466412
0.03999466418
0.03999466443
0.03999466549
0.03999466993
0.03999468838
0.03999476408
0.03999506869
0.03999625624
0.04000065338
0.04001560017
0.0400593521
0.0399946641
0.03999466411
0.03999466412
0.0399946642
0.03999466454
0.03999466605
0.03999467267
0.03999470183
0.03999483035
0.03999539375
0.03999782789
0.04000802276
0.04004813992
0.04018699307
0.04054137545
0.0399946641
0.03999466411
0.03999466413
0.03999466421
0.0399946646
0.03999466632
0.03999467411
0.03999470963
0.03999487349
0.03999563792
0.03999923572
0.04001619556
0.04009481147
0.04043639917
0.0416215065
0.0399946641
0.03999466411
0.03999466412
0.0399946642
0.03999466454
0.03999466605
0.03999467267
0.03999470183
0.03999483035
0.03999539374
0.03999782785
0.04000802251
0.04004813852
0.04018698607
0.04054134753
0.0399946641
0.0399946641
0.03999466412
0.03999466418
0.03999466443
0.03999466549
0.03999466993
0.03999468838
0.03999476408
0.03999506869
0.0399962562
0.04000065318
0.0400155992
0.04005934747
0.04015512309
0.0399946641
0.0399946641
0.03999466411
0.03999466415
0.03999466432
0.039994665
0.03999466765
0.03999467792
0.03999471687
0.03999486025
0.03999536612
0.03999704294
0.04000210295
0.0400152813
0.04004219824
0.0399946641
0.0399946641
0.03999466411
0.03999466414
0.03999466426
0.03999466473
0.03999466647
0.03999467278
0.03999469509
0.0399947709
0.03999501579
0.03999575442
0.03999778079
0.04000264344
0.04001229339
0.0399946641
0.0399946641
0.03999466411
0.03999466414
0.03999466428
0.03999466479
0.03999466672
0.03999467385
0.03999469945
0.03999478819
0.03999508188
0.03999599344
0.03999857646
0.04000497118
0.0399946641
0.0399946641
0.03999466411
0.03999466416
0.03999466434
0.0399946651
0.0399946681
0.03999467995
0.039994726
0.03999490077
0.03999554162
0.03999777217
0.0400049191
0.04002482033
0.0399946641
0.0399946641
0.03999466412
0.03999466418
0.03999466447
0.03999466567
0.0399946708
0.03999469267
0.0399947855
0.03999517586
0.0399967889
0.04000323989
0.04002749775
0.04010811139
0.0399946641
0.03999466411
0.03999466413
0.03999466421
0.0399946646
0.03999466632
0.03999467411
0.03999470963
0.03999487349
0.03999563794
0.03999923583
0.04001619621
0.04009481571
0.04043642827
0.0399946641
0.03999466411
0.03999466413
0.03999466422
0.03999466466
0.03999466666
0.03999467593
0.03999472002
0.03999493558
0.03999602853
0.04000183323
0.04003447705
0.04023083011
0.04150346909
0.05050919
0.0399946641
0.03999466411
0.03999466413
0.03999466421
0.0399946646
0.03999466632
0.03999467411
0.03999470963
0.03999487349
0.03999563793
0.03999923576
0.04001619574
0.04009481223
0.04043640193
0.04162151254
0.0399946641
0.0399946641
0.03999466412
0.03999466418
0.03999466447
0.03999466567
0.0399946708
0.03999469267
0.0399947855
0.03999517585
0.03999678885
0.04000323962
0.04002749634
0.04010810495
0.04030851365
0.0399946641
0.0399946641
0.03999466411
0.03999466416
0.03999466434
0.0399946651
0.0399946681
0.03999467995
0.039994726
0.03999490076
0.03999554159
0.03999777206
0.04000491864
0.04002481872
0.0400673673
0.0399946641
0.0399946641
0.03999466411
0.03999466414
0.03999466428
0.03999466479
0.03999466672
0.03999467385
0.03999469945
0.03999478819
0.03999508186
0.03999599338
0.03999857628
0.04000497064
0.04001782374
0.0399946641
0.0399946641
0.03999466411
0.03999466414
0.03999466426
0.03999466473
0.03999466647
0.03999467278
0.03999469509
0.0399947709
0.0399950158
0.03999575448
0.03999778096
0.0400026439
0.0399946641
0.0399946641
0.03999466411
0.03999466415
0.03999466432
0.039994665
0.03999466765
0.03999467792
0.03999471687
0.03999486026
0.03999536615
0.03999704306
0.04000210335
0.04001528251
0.0399946641
0.0399946641
0.03999466412
0.03999466418
0.03999466443
0.03999466549
0.03999466993
0.03999468838
0.03999476408
0.0399950687
0.03999625626
0.04000065346
0.04001560035
0.04005935142
0.0399946641
0.03999466411
0.03999466412
0.0399946642
0.03999466454
0.03999466605
0.03999467267
0.03999470183
0.03999483035
0.03999539376
0.03999782796
0.04000802306
0.04004814128
0.04018699785
0.0399946641
0.03999466411
0.03999466413
0.03999466421
0.0399946646
0.03999466632
0.03999467411
0.03999470964
0.0399948735
0.03999563794
0.03999923585
0.04001619632
0.04009481609
0.04043642873
0.0399946641
0.03999466411
0.03999466412
0.0399946642
0.03999466454
0.03999466605
0.03999467267
0.03999470183
0.03999483035
0.03999539376
0.03999782794
0.04000802296
0.04004814086
0.04018699741
0.0399946641
0.0399946641
0.03999466412
0.03999466418
0.03999466443
0.03999466549
0.03999466993
0.03999468838
0.03999476408
0.03999506869
0.03999625624
0.04000065335
0.04001559992
0.04005935006
0.04015513105
0.0399946641
0.0399946641
0.03999466411
0.03999466415
0.03999466432
0.039994665
0.03999466765
0.03999467792
0.03999471687
0.03999486026
0.03999536613
0.03999704299
0.04000210313
0.04001528187
0.04004219953
0.0399946641
0.0399946641
0.03999466411
0.03999466414
0.03999466426
0.03999466473
0.03999466647
0.03999467278
0.03999469509
0.0399947709
0.03999501579
0.03999575444
0.03999778085
0.04000264359
0.04001229369
0.0399946641
0.0399946641
0.03999466411
0.03999466413
0.03999466423
0.03999466459
0.0399946659
0.03999467051
0.03999468626
0.03999473775
0.0399948973
0.03999535786
0.03999656821
0.03999937543
0.0399946641
0.0399946641
0.03999466411
0.03999466414
0.03999466427
0.03999466478
0.0399946667
0.03999467387
0.03999469982
0.03999479051
0.03999509226
0.03999602963
0.03999867191
0.04000514179
0.0399946641
0.0399946641
0.03999466411
0.03999466416
0.03999466435
0.03999466512
0.03999466821
0.03999468042
0.03999472773
0.03999490566
0.03999554704
0.03999771703
0.04000438553
0.0400219931
0.0399946641
0.0399946641
0.03999466412
0.03999466418
0.03999466443
0.03999466549
0.03999466993
0.03999468838
0.03999476408
0.0399950687
0.03999625626
0.04000065347
0.04001560036
0.0400593513
0.0399946641
0.0399946641
0.03999466412
0.03999466418
0.03999466447
0.03999466567
0.0399946708
0.03999469267
0.0399947855
0.03999517586
0.03999678892
0.04000323995
0.04002749795
0.0401081113
0.0399946641
0.0399946641
0.03999466412
0.03999466418
0.03999466443
0.03999466549
0.03999466993
0.03999468838
0.03999476408
0.0399950687
0.03999625626
0.04000065346
0.04001560033
0.04005935127
0.0399946641
0.0399946641
0.03999466411
0.03999466416
0.03999466435
0.03999466512
0.03999466821
0.03999468042
0.03999472773
0.03999490566
0.03999554703
0.03999771701
0.04000438549
0.04002199336
0.0399946641
0.0399946641
0.03999466411
0.03999466414
0.03999466427
0.03999466478
0.0399946667
0.03999467387
0.03999469982
0.03999479051
0.03999509225
0.03999602961
0.03999867185
0.04000514167
0.04001803372
0.0399946641
0.0399946641
0.03999466411
0.03999466413
0.03999466423
0.03999466459
0.0399946659
0.03999467051
0.03999468626
0.03999473775
0.03999489729
0.03999535784
0.03999656817
0.03999937532
0.04000490569
0.0399946641
0.0399946641
0.0399946641
0.03999466412
0.03999466419
0.03999466445
0.03999466535
0.03999466841
0.03999467839
0.03999470957
0.03999480176
0.03999505577
0.0399956961
0.03999713893
0.0399946641
0.0399946641
0.0399946641
0.03999466413
0.03999466422
0.03999466457
0.03999466584
0.03999467031
0.03999468566
0.03999473623
0.03999489422
0.03999535428
0.03999657352
0.03999941899
0.0399946641
0.0399946641
0.03999466411
0.03999466414
0.03999466427
0.03999466478
0.0399946667
0.03999467387
0.03999469982
0.03999479051
0.03999509226
0.03999602963
0.03999867191
0.04000514177
0.0399946641
0.0399946641
0.03999466411
0.03999466415
0.03999466432
0.039994665
0.03999466765
0.03999467792
0.03999471687
0.03999486026
0.03999536615
0.03999704307
0.04000210337
0.04001528249
0.0399946641
0.0399946641
0.03999466411
0.03999466416
0.03999466434
0.0399946651
0.0399946681
0.03999467995
0.039994726
0.03999490077
0.03999554163
0.03999777219
0.04000491915
0.04002482025
0.0399946641
0.0399946641
0.03999466411
0.03999466415
0.03999466432
0.039994665
0.03999466765
0.03999467792
0.03999471687
0.03999486026
0.03999536615
0.03999704306
0.04000210337
0.04001528246
0.0399946641
0.0399946641
0.03999466411
0.03999466414
0.03999466427
0.03999466478
0.0399946667
0.03999467387
0.03999469982
0.03999479051
0.03999509226
0.03999602963
0.03999867191
0.04000514181
0.0399946641
0.0399946641
0.0399946641
0.03999466413
0.03999466422
0.03999466457
0.03999466584
0.03999467031
0.03999468566
0.03999473623
0.03999489422
0.03999535427
0.03999657352
0.03999941907
0.0399946641
0.0399946641
0.0399946641
0.03999466412
0.03999466419
0.03999466445
0.03999466535
0.03999466841
0.03999467839
0.03999470957
0.03999480176
0.03999505577
0.03999569609
0.03999713893
0.03999997435
0.0399946641
0.0399946641
0.0399946641
0.03999466412
0.03999466417
0.03999466437
0.03999466504
0.03999466724
0.03999467413
0.03999469484
0.03999475359
0.03999490919
0.03999528834
0.03999612436
0.0399946641
0.0399946641
0.0399946641
0.03999466412
0.03999466419
0.03999466445
0.03999466535
0.03999466841
0.03999467839
0.03999470957
0.03999480176
0.03999505577
0.0399956961
0.03999713893
0.0399946641
0.0399946641
0.03999466411
0.03999466413
0.03999466423
0.03999466459
0.0399946659
0.03999467051
0.03999468626
0.03999473775
0.0399948973
0.03999535786
0.03999656822
0.03999937543
0.0399946641
0.0399946641
0.03999466411
0.03999466414
0.03999466426
0.03999466473
0.03999466647
0.03999467278
0.03999469509
0.0399947709
0.0399950158
0.03999575448
0.03999778097
0.04000264389
0.0399946641
0.0399946641
0.03999466411
0.03999466414
0.03999466428
0.03999466479
0.03999466672
0.03999467385
0.03999469945
0.0399947882
0.03999508188
0.03999599344
0.03999857648
0.04000497115
0.0399946641
0.0399946641
0.03999466411
0.03999466414
0.03999466426
0.03999466473
0.03999466647
0.03999467278
0.03999469509
0.0399947709
0.0399950158
0.03999575448
0.03999778097
0.04000264388
0.0399946641
0.0399946641
0.03999466411
0.03999466413
0.03999466423
0.03999466459
0.0399946659
0.03999467051
0.03999468626
0.03999473775
0.0399948973
0.03999535786
0.03999656822
0.03999937543
0.0399946641
0.0399946641
0.0399946641
0.03999466412
0.03999466419
0.03999466445
0.03999466535
0.03999466841
0.03999467839
0.03999470957
0.03999480176
0.03999505577
0.0399956961
0.03999713895
0.0399946641
0.0399946641
0.0399946641
0.03999466412
0.03999466417
0.03999466437
0.03999466504
0.03999466724
0.03999467413
0.03999469484
0.03999475359
0.03999490919
0.03999528834
0.0399961244
)
;

boundaryField
{
    top
    {
        type            calculated;
        value           nonuniform List<scalar> 
134
(
0.0399946641
0.0399946641
0.0399946641
0.0399946641
0.0399946641
0.0399946641
0.0399946641
0.0399946641
0.0399946641
0.0399946641
0.0399946641
0.0399946641
0.0399946641
0.0399946641
0.0399946641
0.0399946641
0.0399946641
0.0399946641
0.0399946641
0.0399946641
0.03999466411
0.03999466411
0.03999466411
0.03999466411
0.03999466411
0.0399946641
0.0399946641
0.03999466412
0.03999466412
0.03999466413
0.03999466414
0.03999466414
0.03999466414
0.03999466413
0.03999466412
0.03999466412
0.03999466417
0.03999466419
0.03999466423
0.03999466426
0.03999466428
0.03999466426
0.03999466423
0.03999466419
0.03999466417
0.03999466437
0.03999466445
0.03999466459
0.03999466473
0.03999466479
0.03999466473
0.03999466459
0.03999466445
0.03999466437
0.03999466504
0.03999466535
0.0399946659
0.03999466647
0.03999466672
0.03999466647
0.0399946659
0.03999466535
0.03999466504
0.03999466724
0.03999466841
0.03999467051
0.03999467278
0.03999467385
0.03999467278
0.03999467051
0.03999466841
0.03999466724
0.03999467413
0.03999467839
0.03999468625
0.03999469509
0.03999469945
0.03999469509
0.03999468626
0.03999467839
0.03999467413
0.03999469484
0.03999470957
0.03999473774
0.0399947709
0.03999478819
0.0399947709
0.03999473775
0.03999470957
0.03999469484
0.03999475358
0.03999480175
0.03999489729
0.03999501579
0.03999508186
0.03999501579
0.03999489729
0.03999480176
0.03999475359
0.03999490917
0.03999505575
0.03999535782
0.03999575442
0.03999599338
0.03999575444
0.03999535784
0.03999505577
0.03999490919
0.0399952883
0.03999569603
0.0399965681
0.03999778079
0.03999857628
0.03999778085
0.03999656817
0.03999569609
0.03999528834
0.03999612426
0.03999713877
0.03999937513
0.04000264344
0.04000497064
0.04000264359
0.03999937532
0.03999713893
0.0399961244
0.03999776695
0.03999997399
0.04000490531
0.04001229339
0.04001782374
0.04001229369
0.04000490569
0.03999997435
)
;
    }
    bottom
    {
        type            calculated;
        value           nonuniform List<scalar> 
127
(
0.0399946641
0.0399946641
0.0399946641
0.0399946641
0.0399946641
0.0399946641
0.0399946641
0.0399946641
0.0399946641
0.0399946641
0.0399946641
0.0399946641
0.0399946641
0.0399946641
0.0399946641
0.0399946641
0.0399946641
0.0399946641
0.0399946641
0.0399946641
0.03999466411
0.03999466411
0.03999466411
0.03999466411
0.03999466411
0.0399946641
0.0399946641
0.03999466412
0.03999466412
0.03999466413
0.03999466414
0.03999466414
0.03999466414
0.03999466413
0.03999466412
0.03999466412
0.03999466417
0.03999466419
0.03999466423
0.03999466426
0.03999466428
0.03999466426
0.03999466423
0.03999466419
0.03999466417
0.03999466437
0.03999466445
0.03999466459
0.03999466473
0.03999466479
0.03999466473
0.03999466459
0.03999466445
0.03999466437
0.03999466504
0.03999466535
0.0399946659
0.03999466647
0.03999466672
0.03999466647
0.0399946659
0.03999466535
0.03999466504
0.03999466724
0.03999466841
0.03999467051
0.03999467278
0.03999467385
0.03999467278
0.03999467051
0.03999466841
0.03999466724
0.03999467413
0.03999467839
0.03999468626
0.03999469509
0.03999469945
0.03999469509
0.03999468626
0.03999467839
0.03999467413
0.03999469484
0.03999470957
0.03999473775
0.0399947709
0.03999478819
0.0399947709
0.03999473775
0.03999470957
0.03999469484
0.03999475359
0.03999480176
0.03999489729
0.0399950158
0.03999508188
0.0399950158
0.0399948973
0.03999480176
0.03999475359
0.03999490918
0.03999505577
0.03999535785
0.03999575447
0.03999599344
0.03999575448
0.03999535786
0.03999505577
0.03999490919
0.03999528833
0.0399956961
0.03999656821
0.03999778096
0.03999857646
0.03999778096
0.03999656821
0.0399956961
0.03999528834
0.03999612435
0.03999713898
0.03999937549
0.04000264394
0.04000497118
0.0400026439
0.03999937543
0.03999713893
0.03999612436
0.03999776717
)
;
    }
    side-walls
    {
        type            calculated;
        value           nonuniform List<scalar> 
261
(
0.0399946641
0.0399946641
0.0399946641
0.0399946641
0.0399946641
0.0399946641
0.0399946641
0.0399946641
0.0399946641
0.0399946641
0.0399946641
0.0399946641
0.0399946641
0.0399946641
0.0399946641
0.0399946641
0.0399946641
0.0399946641
0.0399946641
0.0399946641
0.03999466411
0.03999466411
0.03999466411
0.03999466411
0.03999466411
0.0399946641
0.0399946641
0.03999466412
0.03999466412
0.03999466413
0.03999466414
0.03999466414
0.03999466414
0.03999466413
0.03999466412
0.03999466412
0.03999466417
0.03999466419
0.03999466423
0.03999466426
0.03999466428
0.03999466426
0.03999466423
0.03999466419
0.03999466417
0.03999466437
0.03999466445
0.03999466459
0.03999466473
0.03999466479
0.03999466473
0.03999466459
0.03999466445
0.03999466437
0.03999466504
0.03999466535
0.0399946659
0.03999466647
0.03999466672
0.03999466647
0.0399946659
0.03999466535
0.03999466504
0.03999466724
0.03999466841
0.03999467051
0.03999467278
0.03999467385
0.03999467278
0.03999467051
0.03999466841
0.03999466724
0.03999467413
0.03999467839
0.03999468625
0.03999469509
0.03999469945
0.03999469509
0.03999468625
0.03999467839
0.03999467413
0.03999469484
0.03999470957
0.03999473774
0.0399947709
0.03999478819
0.03999477089
0.03999473774
0.03999470957
0.03999469484
0.03999475359
0.03999480175
0.03999489729
0.03999501578
0.03999508186
0.03999501578
0.03999489728
0.03999480175
0.03999475358
0.03999490918
0.03999505576
0.03999535783
0.03999575442
0.03999599336
0.03999575441
0.03999535781
0.03999505575
0.03999490917
0.03999528833
0.03999569607
0.03999656813
0.03999778079
0.03999857623
0.03999778076
0.03999656808
0.03999569603
0.0399952883
0.03999612435
0.03999713887
0.03999937522
0.04000264346
0.04000497052
0.04000264337
0.03999937511
0.03999713876
0.03999612426
0.03999776717
0.03999997421
0.04000490553
0.0400122935
0.0400178236
0.04001229331
0.04000490528
0.03999997397
0.03999776695
0.0399946641
0.0399946641
0.0399946641
0.0399946641
0.0399946641
0.0399946641
0.0399946641
0.0399946641
0.0399946641
0.0399946641
0.0399946641
0.0399946641
0.0399946641
0.0399946641
0.0399946641
0.0399946641
0.0399946641
0.0399946641
0.0399946641
0.0399946641
0.03999466411
0.03999466411
0.03999466411
0.03999466411
0.03999466411
0.0399946641
0.0399946641
0.03999466412
0.03999466412
0.03999466413
0.03999466414
0.03999466414
0.03999466414
0.03999466413
0.03999466412
0.03999466412
0.03999466417
0.03999466419
0.03999466423
0.03999466426
0.03999466428
0.03999466426
0.03999466423
0.03999466419
0.03999466417
0.03999466437
0.03999466445
0.03999466459
0.03999466473
0.03999466479
0.03999466473
0.03999466459
0.03999466445
0.03999466437
0.03999466504
0.03999466535
0.0399946659
0.03999466647
0.03999466672
0.03999466647
0.0399946659
0.03999466535
0.03999466504
0.03999466724
0.03999466841
0.03999467051
0.03999467278
0.03999467385
0.03999467278
0.03999467051
0.03999466841
0.03999466724
0.03999467413
0.03999467839
0.03999468626
0.03999469509
0.03999469945
0.03999469509
0.03999468626
0.03999467839
0.03999467413
0.03999469484
0.03999470957
0.03999473775
0.0399947709
0.0399947882
0.0399947709
0.03999473775
0.03999470957
0.03999469484
0.03999475359
0.03999480176
0.0399948973
0.0399950158
0.03999508188
0.0399950158
0.0399948973
0.03999480176
0.03999475359
0.03999490919
0.03999505577
0.03999535786
0.03999575448
0.03999599344
0.03999575448
0.03999535786
0.03999505577
0.03999490919
0.03999528834
0.0399956961
0.03999656822
0.03999778097
0.03999857648
0.03999778097
0.03999656822
0.0399956961
0.03999528834
0.03999612436
0.03999713893
0.03999937543
0.04000264389
0.04000497115
0.04000264388
0.03999937543
0.03999713895
0.0399961244
)
;
    }
    inlet
    {
        type            calculated;
        value           nonuniform List<scalar> 
81
(
0.0399946641
0.0399946641
0.0399946641
0.0399946641
0.0399946641
0.0399946641
0.0399946641
0.0399946641
0.0399946641
0.0399946641
0.0399946641
0.0399946641
0.0399946641
0.0399946641
0.0399946641
0.0399946641
0.0399946641
0.0399946641
0.0399946641
0.0399946641
0.0399946641
0.0399946641
0.0399946641
0.0399946641
0.0399946641
0.0399946641
0.0399946641
0.0399946641
0.0399946641
0.0399946641
0.0399946641
0.0399946641
0.0399946641
0.0399946641
0.0399946641
0.0399946641
0.0399946641
0.0399946641
0.0399946641
0.0399946641
0.0399946641
0.0399946641
0.0399946641
0.0399946641
0.0399946641
0.0399946641
0.0399946641
0.0399946641
0.0399946641
0.0399946641
0.0399946641
0.0399946641
0.0399946641
0.0399946641
0.0399946641
0.0399946641
0.0399946641
0.0399946641
0.0399946641
0.0399946641
0.0399946641
0.0399946641
0.0399946641
0.0399946641
0.0399946641
0.0399946641
0.0399946641
0.0399946641
0.0399946641
0.0399946641
0.0399946641
0.0399946641
0.0399946641
0.0399946641
0.0399946641
0.0399946641
0.0399946641
0.0399946641
0.0399946641
0.0399946641
0.0399946641
)
;
    }
    outlet
    {
        type            calculated;
        value           nonuniform 0();
    }
    procBoundary0to1
    {
        type            processor;
        value           nonuniform List<scalar> 
97
(
0.04000062335
0.0399999744
0.0400047644
0.04001389359
0.04002723689
0.04003674076
0.04002723659
0.04001389319
0.04000476404
0.04000062305
0.0399999744
0.0399999744
0.04001407229
0.04001803401
0.04003743684
0.04007884706
0.04011781534
0.04007884602
0.04003743567
0.04001407143
0.04000476405
0.04000490584
0.04001803401
0.04001803401
0.04010625516
0.04015513321
0.04025887857
0.04045826104
0.04025887395
0.04010625112
0.04003743569
0.0400138932
0.04001229399
0.04004220031
0.04015513321
0.04015513321
0.04078086064
0.04162153077
0.04180312231
0.04078084338
0.04025887407
0.04007884603
0.0400272366
0.04001782421
0.04006736872
0.04030851901
0.04162153077
0.04162153077
0.04622252551
0.04162152878
0.04180312215
0.04054135954
0.04045826092
0.04011781529
0.04003674073
0.04001229377
0.04004219932
0.04015512689
0.04054135587
0.04162152878
0.04054135954
0.04054135954
0.04025887878
0.04005810751
0.0400788472
0.04002723691
0.04000490555
0.04001803283
0.04005810549
0.04015512626
0.04030851748
0.04015512615
0.04005810751
0.04005810751
0.04003743683
0.04000502969
0.04001389362
0.03999997411
0.04000502926
0.04001803276
0.04004219909
0.04006736808
0.04004219902
0.04001803302
0.04000502969
0.04000502969
0.04000476441
0.03999776716
0.03999776703
0.0399999741
0.04000490551
0.04001229367
0.04001782397
0.04001229365
0.04000490555
0.03999997419
0.03999776716
)
;
    }
}


// ************************************************************************* //
