/*--------------------------------*- C++ -*----------------------------------*\
| =========                 |                                                 |
| \\      /  F ield         | OpenFOAM: The Open Source CFD Toolbox           |
|  \\    /   O peration     | Version:  4.x                                   |
|   \\  /    A nd           | Web:      www.OpenFOAM.org                      |
|    \\/     M anipulation  |                                                 |
\*---------------------------------------------------------------------------*/
FoamFile
{
    version     2.0;
    format      ascii;
    class       volScalarField;
    location    "1000";
    object      X_CO;
}
// * * * * * * * * * * * * * * * * * * * * * * * * * * * * * * * * * * * * * //

dimensions      [0 0 0 0 0 0 0];

internalField   nonuniform List<scalar> 
1175
(
0.3299589056
0.3299589056
0.3299589056
0.3299589056
0.3299589055
0.3299589053
0.3299589046
0.3299589024
0.3299588955
0.3299588748
0.3299588161
0.3299586605
0.3299582813
0.3299574452
0.3299558021
0.3299589056
0.3299589056
0.3299589056
0.3299589056
0.3299589055
0.3299589052
0.3299589043
0.3299589013
0.3299588913
0.3299588601
0.3299587679
0.3299585139
0.3299578735
0.3299564306
0.329953595
0.3299589056
0.3299589056
0.3299589056
0.3299589055
0.3299589054
0.3299589051
0.3299589038
0.3299588992
0.3299588834
0.3299588319
0.3299586724
0.3299582118
0.3299570014
0.3299541942
0.3299486633
0.3299589056
0.3299589056
0.3299589056
0.3299589055
0.3299589054
0.3299589049
0.3299589032
0.3299588969
0.3299588746
0.3299587988
0.3299585539
0.3299578152
0.3299557888
0.3299509258
0.3299412751
0.3299589056
0.3299589056
0.3299589056
0.3299589055
0.3299589054
0.3299589049
0.329958903
0.3299588958
0.3299588702
0.3299587815
0.3299584878
0.3299575763
0.3299549933
0.3299485987
0.3299357448
0.3299589056
0.3299589056
0.3299589056
0.3299589055
0.3299589054
0.3299589049
0.3299589032
0.3299588969
0.3299588746
0.3299587988
0.3299585539
0.3299578152
0.3299557888
0.3299509259
0.3299412753
0.3299589056
0.3299589056
0.3299589056
0.3299589055
0.3299589054
0.3299589051
0.3299589038
0.3299588992
0.3299588834
0.3299588319
0.3299586724
0.3299582118
0.3299570015
0.3299541943
0.3299486636
0.3299589056
0.3299589056
0.3299589056
0.3299589056
0.3299589055
0.3299589052
0.3299589043
0.3299589013
0.3299588913
0.3299588601
0.3299587679
0.3299585139
0.3299578736
0.3299564307
0.3299535952
0.3299589056
0.3299589056
0.3299589056
0.3299589056
0.3299589055
0.3299589053
0.3299589046
0.3299589024
0.3299588955
0.3299588748
0.3299588161
0.3299586605
0.3299582813
0.3299574453
0.3299558024
0.3299589056
0.3299589056
0.3299589056
0.3299589056
0.3299589055
0.3299589052
0.3299589043
0.3299589013
0.3299588913
0.3299588601
0.3299587679
0.3299585139
0.3299578735
0.3299564305
0.3299589056
0.3299589056
0.3299589056
0.3299589055
0.3299589055
0.3299589051
0.3299589038
0.3299588994
0.329958884
0.3299588334
0.3299586754
0.3299582154
0.3299569961
0.3299541504
0.329948539
0.3299589056
0.3299589056
0.3299589056
0.3299589055
0.3299589054
0.3299589049
0.329958903
0.3299588958
0.3299588699
0.3299587792
0.3299584774
0.32995754
0.3299548977
0.3299484277
0.329935535
0.3299589056
0.3299589056
0.3299589056
0.3299589055
0.3299589054
0.3299589047
0.329958902
0.3299588918
0.3299588528
0.3299587094
0.3299582035
0.3299565267
0.3299514665
0.3299382875
0.3299113686
0.3299589056
0.3299589056
0.3299589056
0.3299589055
0.3299589053
0.3299589046
0.3299589016
0.3299588897
0.3299588437
0.3299586689
0.3299580281
0.3299557976
0.329948651
0.3299287506
0.3298862005
0.3299589056
0.3299589056
0.3299589056
0.3299589055
0.3299589054
0.3299589047
0.329958902
0.3299588918
0.3299588528
0.3299587094
0.3299582035
0.3299565267
0.3299514666
0.3299382879
0.3299113696
0.3299589056
0.3299589056
0.3299589056
0.3299589055
0.3299589054
0.3299589049
0.329958903
0.3299588958
0.3299588699
0.3299587792
0.3299584774
0.3299575401
0.3299548979
0.3299484281
0.3299355361
0.3299589056
0.3299589056
0.3299589056
0.3299589055
0.3299589055
0.3299589051
0.3299589038
0.3299588994
0.329958884
0.3299588334
0.3299586755
0.3299582154
0.3299569962
0.3299541507
0.3299485399
0.3299589056
0.3299589056
0.3299589056
0.3299589056
0.3299589055
0.3299589052
0.3299589043
0.3299589013
0.3299588913
0.3299588601
0.3299587679
0.3299585139
0.3299578736
0.3299564307
0.3299535952
0.3299589056
0.3299589056
0.3299589056
0.3299589055
0.3299589054
0.3299589051
0.3299589038
0.3299588992
0.3299588834
0.3299588319
0.3299586724
0.3299582118
0.3299570013
0.3299541938
0.3299589056
0.3299589056
0.3299589056
0.3299589055
0.3299589054
0.3299589049
0.329958903
0.3299588958
0.3299588699
0.3299587792
0.3299584774
0.32995754
0.3299548976
0.329948427
0.3299589056
0.3299589056
0.3299589056
0.3299589055
0.3299589053
0.3299589046
0.3299589015
0.3299588892
0.3299588419
0.329958664
0.3299580226
0.3299558526
0.329949184
0.3299315758
0.3298954579
0.3299589056
0.3299589056
0.3299589056
0.3299589055
0.3299589052
0.3299589042
0.3299588997
0.3299588813
0.3299588056
0.329958501
0.3299573134
0.3299529163
0.3299379698
0.3298942195
0.3297984374
0.3299589056
0.3299589056
0.3299589056
0.3299589055
0.3299589052
0.329958904
0.3299588989
0.329958877
0.3299587842
0.3299583938
0.3299567808
0.3299503301
0.3299260735
0.3298454652
0.3296450543
0.3299589056
0.3299589056
0.3299589056
0.3299589055
0.3299589052
0.3299589042
0.3299588997
0.3299588813
0.3299588056
0.329958501
0.3299573135
0.3299529164
0.3299379703
0.3298942215
0.3297984429
0.3299589056
0.3299589056
0.3299589056
0.3299589055
0.3299589053
0.3299589046
0.3299589015
0.3299588892
0.3299588419
0.329958664
0.3299580227
0.3299558527
0.3299491845
0.3299315775
0.3298954631
0.3299589056
0.3299589056
0.3299589056
0.3299589055
0.3299589054
0.3299589049
0.329958903
0.3299588958
0.3299588699
0.3299587792
0.3299584774
0.3299575401
0.3299548978
0.3299484281
0.329935536
0.3299589056
0.3299589056
0.3299589056
0.3299589055
0.3299589054
0.3299589051
0.3299589038
0.3299588992
0.3299588834
0.3299588319
0.3299586724
0.3299582118
0.3299570015
0.3299541943
0.3299486636
0.3299589056
0.3299589056
0.3299589056
0.3299589055
0.3299589054
0.3299589049
0.3299589032
0.3299588969
0.3299588746
0.3299587988
0.3299585539
0.3299578151
0.3299557885
0.3299509251
0.3299589056
0.3299589056
0.3299589056
0.3299589055
0.3299589054
0.3299589047
0.329958902
0.3299588918
0.3299588528
0.3299587094
0.3299582035
0.3299565265
0.329951466
0.3299382858
0.3299589056
0.3299589056
0.3299589056
0.3299589055
0.3299589052
0.3299589042
0.3299588997
0.3299588813
0.3299588056
0.329958501
0.3299573134
0.3299529161
0.3299379689
0.3298942151
0.3299589056
0.3299589056
0.3299589056
0.3299589055
0.3299589051
0.3299589036
0.329958897
0.3299588678
0.3299587393
0.3299581759
0.3299557417
0.3299455468
0.3299054292
0.3297665742
0.3294121824
0.3299589056
0.3299589056
0.3299589055
0.3299589055
0.3299589051
0.3299589034
0.3299588956
0.32995886
0.3299586962
0.3299579317
0.3299543339
0.3299373741
0.3298587587
0.3295171746
0.3283320783
0.3299589056
0.3299589056
0.3299589056
0.3299589055
0.3299589051
0.3299589036
0.329958897
0.3299588678
0.3299587393
0.3299581759
0.3299557418
0.329945547
0.3299054308
0.3297665828
0.3294122177
0.3299589056
0.3299589056
0.3299589056
0.3299589055
0.3299589052
0.3299589042
0.3299588997
0.3299588813
0.3299588056
0.329958501
0.3299573134
0.3299529164
0.3299379701
0.329894221
0.3297984424
0.3299589056
0.3299589056
0.3299589056
0.3299589055
0.3299589054
0.3299589047
0.329958902
0.3299588918
0.3299588528
0.3299587094
0.3299582035
0.3299565267
0.3299514665
0.3299382877
0.3299113693
0.3299589056
0.3299589056
0.3299589056
0.3299589055
0.3299589054
0.3299589049
0.3299589032
0.3299588969
0.3299588746
0.3299587988
0.3299585539
0.3299578152
0.3299557887
0.3299509258
0.3299412752
0.3299589056
0.3299589056
0.3299589056
0.3299589055
0.3299589054
0.3299589049
0.329958903
0.3299588958
0.3299588702
0.3299587815
0.3299584878
0.3299575762
0.329954993
0.3299485978
0.3299589056
0.3299589056
0.3299589056
0.3299589055
0.3299589053
0.3299589046
0.3299589016
0.3299588897
0.3299588437
0.3299586689
0.329958028
0.3299557974
0.3299486501
0.3299287478
0.3299589056
0.3299589056
0.3299589056
0.3299589055
0.3299589052
0.329958904
0.3299588989
0.329958877
0.3299587842
0.3299583938
0.3299567807
0.3299503296
0.3299260711
0.3298454547
0.3299589056
0.3299589056
0.3299589055
0.3299589055
0.3299589051
0.3299589034
0.3299588956
0.32995886
0.3299586962
0.3299579317
0.3299543338
0.3299373733
0.3298587532
0.3295171366
0.3299589056
0.3299589056
0.3299589055
0.3299589055
0.329958905
0.329958903
0.3299588937
0.3299588496
0.3299586341
0.3299575411
0.3299517364
0.3299190929
0.3297227427
0.3284501306
0.3194446388
0.3299589056
0.3299589056
0.3299589055
0.3299589055
0.3299589051
0.3299589034
0.3299588956
0.32995886
0.3299586962
0.3299579317
0.3299543339
0.3299373738
0.3298587575
0.32951717
0.3283320707
0.3299589056
0.3299589056
0.3299589056
0.3299589055
0.3299589052
0.329958904
0.3299588989
0.329958877
0.3299587842
0.3299583938
0.3299567808
0.3299503299
0.3299260729
0.3298454636
0.3296450523
0.3299589056
0.3299589056
0.3299589056
0.3299589055
0.3299589053
0.3299589046
0.3299589016
0.3299588897
0.3299588437
0.3299586689
0.3299580281
0.3299557975
0.3299486507
0.3299287501
0.3298861999
0.3299589056
0.3299589056
0.3299589056
0.3299589055
0.3299589054
0.3299589049
0.329958903
0.3299588958
0.3299588702
0.3299587815
0.3299584878
0.3299575762
0.3299549932
0.3299485986
0.3299357446
0.3299589056
0.3299589056
0.3299589056
0.3299589055
0.3299589054
0.3299589049
0.3299589032
0.3299588969
0.3299588746
0.3299587988
0.3299585539
0.3299578151
0.3299557885
0.3299509252
0.3299589056
0.3299589056
0.3299589056
0.3299589055
0.3299589054
0.3299589047
0.329958902
0.3299588918
0.3299588528
0.3299587094
0.3299582035
0.3299565265
0.3299514659
0.3299382859
0.3299589056
0.3299589056
0.3299589056
0.3299589055
0.3299589052
0.3299589042
0.3299588997
0.3299588813
0.3299588056
0.329958501
0.3299573134
0.329952916
0.3299379685
0.3298942154
0.3299589056
0.3299589056
0.3299589056
0.3299589055
0.3299589051
0.3299589036
0.329958897
0.3299588678
0.3299587393
0.3299581759
0.3299557416
0.3299455463
0.3299054271
0.3297665662
0.3299589056
0.3299589056
0.3299589055
0.3299589055
0.3299589051
0.3299589034
0.3299588956
0.32995886
0.3299586962
0.3299579317
0.3299543337
0.3299373731
0.3298587524
0.3295171347
0.3299589056
0.3299589056
0.3299589056
0.3299589055
0.3299589051
0.3299589036
0.329958897
0.3299588678
0.3299587393
0.3299581759
0.3299557417
0.3299455464
0.3299054277
0.3297665676
0.3299589056
0.3299589056
0.3299589056
0.3299589055
0.3299589052
0.3299589042
0.3299588997
0.3299588813
0.3299588056
0.329958501
0.3299573134
0.3299529161
0.3299379692
0.3298942176
0.3297984319
0.3299589056
0.3299589056
0.3299589056
0.3299589055
0.3299589054
0.3299589047
0.329958902
0.3299588918
0.3299588528
0.3299587094
0.3299582035
0.3299565266
0.3299514662
0.3299382869
0.3299113676
0.3299589056
0.3299589056
0.3299589056
0.3299589055
0.3299589054
0.3299589049
0.3299589032
0.3299588969
0.3299588746
0.3299587988
0.3299585539
0.3299578152
0.3299557887
0.3299509256
0.3299412748
0.3299589056
0.3299589056
0.3299589056
0.3299589055
0.3299589054
0.3299589051
0.3299589038
0.3299588992
0.3299588834
0.3299588319
0.3299586724
0.3299582118
0.3299570013
0.3299541938
0.3299589056
0.3299589056
0.3299589056
0.3299589055
0.3299589054
0.3299589049
0.329958903
0.3299588958
0.3299588699
0.3299587792
0.3299584774
0.32995754
0.3299548975
0.3299484271
0.3299589056
0.3299589056
0.3299589056
0.3299589055
0.3299589053
0.3299589046
0.3299589015
0.3299588892
0.3299588419
0.329958664
0.3299580226
0.3299558525
0.3299491836
0.329931575
0.3299589056
0.3299589056
0.3299589056
0.3299589055
0.3299589052
0.3299589042
0.3299588997
0.3299588813
0.3299588056
0.329958501
0.3299573133
0.329952916
0.3299379685
0.3298942155
0.3299589056
0.3299589056
0.3299589056
0.3299589055
0.3299589052
0.329958904
0.3299588989
0.329958877
0.3299587842
0.3299583938
0.3299567807
0.3299503295
0.3299260707
0.3298454546
0.3299589056
0.3299589056
0.3299589056
0.3299589055
0.3299589052
0.3299589042
0.3299588997
0.3299588813
0.3299588056
0.329958501
0.3299573134
0.329952916
0.3299379686
0.3298942157
0.3299589056
0.3299589056
0.3299589056
0.3299589055
0.3299589053
0.3299589046
0.3299589015
0.3299588892
0.3299588419
0.329958664
0.3299580226
0.3299558525
0.3299491837
0.3299315748
0.3299589056
0.3299589056
0.3299589056
0.3299589055
0.3299589054
0.3299589049
0.329958903
0.3299588958
0.3299588699
0.3299587792
0.3299584774
0.32995754
0.3299548976
0.3299484274
0.3299355342
0.3299589056
0.3299589056
0.3299589056
0.3299589055
0.3299589054
0.3299589051
0.3299589038
0.3299588992
0.3299588834
0.3299588319
0.3299586724
0.3299582118
0.3299570014
0.329954194
0.3299486631
0.3299589056
0.3299589056
0.3299589056
0.3299589056
0.3299589055
0.3299589052
0.3299589043
0.3299589013
0.3299588913
0.3299588601
0.3299587679
0.3299585139
0.3299578735
0.3299564305
0.3299589056
0.3299589056
0.3299589056
0.3299589055
0.3299589055
0.3299589051
0.3299589038
0.3299588994
0.329958884
0.3299588334
0.3299586754
0.3299582153
0.329956996
0.3299541503
0.3299589056
0.3299589056
0.3299589056
0.3299589055
0.3299589054
0.3299589049
0.329958903
0.3299588958
0.3299588699
0.3299587792
0.3299584774
0.32995754
0.3299548975
0.3299484271
0.3299589056
0.3299589056
0.3299589056
0.3299589055
0.3299589054
0.3299589047
0.329958902
0.3299588918
0.3299588528
0.3299587094
0.3299582035
0.3299565265
0.3299514659
0.3299382859
0.3299589056
0.3299589056
0.3299589056
0.3299589055
0.3299589053
0.3299589046
0.3299589016
0.3299588897
0.3299588437
0.3299586689
0.329958028
0.3299557973
0.32994865
0.3299287479
0.3299589056
0.3299589056
0.3299589056
0.3299589055
0.3299589054
0.3299589047
0.329958902
0.3299588918
0.3299588528
0.3299587094
0.3299582035
0.3299565265
0.3299514659
0.329938286
0.3299589056
0.3299589056
0.3299589056
0.3299589055
0.3299589054
0.3299589049
0.329958903
0.3299588958
0.3299588699
0.3299587792
0.3299584774
0.32995754
0.3299548975
0.3299484271
0.3299589056
0.3299589056
0.3299589056
0.3299589055
0.3299589055
0.3299589051
0.3299589038
0.3299588994
0.329958884
0.3299588334
0.3299586754
0.3299582154
0.329956996
0.3299541502
0.3299589056
0.3299589056
0.3299589056
0.3299589056
0.3299589055
0.3299589052
0.3299589043
0.3299589013
0.3299588913
0.3299588601
0.3299587679
0.3299585139
0.3299578735
0.3299564305
0.3299535948
0.3299589056
0.3299589056
0.3299589056
0.3299589056
0.3299589055
0.3299589053
0.3299589046
0.3299589024
0.3299588955
0.3299588748
0.3299588161
0.3299586605
0.3299582813
0.3299574451
0.3299589056
0.3299589056
0.3299589056
0.3299589056
0.3299589055
0.3299589052
0.3299589043
0.3299589013
0.3299588913
0.3299588601
0.3299587679
0.3299585139
0.3299578735
0.3299564305
0.3299589056
0.3299589056
0.3299589056
0.3299589055
0.3299589054
0.3299589051
0.3299589038
0.3299588992
0.3299588834
0.3299588319
0.3299586724
0.3299582118
0.3299570013
0.3299541938
0.3299589056
0.3299589056
0.3299589056
0.3299589055
0.3299589054
0.3299589049
0.3299589032
0.3299588969
0.3299588746
0.3299587988
0.3299585538
0.3299578151
0.3299557885
0.3299509252
0.3299589056
0.3299589056
0.3299589056
0.3299589055
0.3299589054
0.3299589049
0.329958903
0.3299588958
0.3299588702
0.3299587815
0.3299584878
0.3299575761
0.3299549929
0.3299485978
0.3299589056
0.3299589056
0.3299589056
0.3299589055
0.3299589054
0.3299589049
0.3299589032
0.3299588969
0.3299588746
0.3299587988
0.3299585538
0.3299578151
0.3299557885
0.3299509252
0.3299589056
0.3299589056
0.3299589056
0.3299589055
0.3299589054
0.3299589051
0.3299589038
0.3299588992
0.3299588834
0.3299588319
0.3299586724
0.3299582118
0.3299570013
0.3299541938
0.3299589056
0.3299589056
0.3299589056
0.3299589056
0.3299589055
0.3299589052
0.3299589043
0.3299589013
0.3299588913
0.3299588601
0.3299587679
0.3299585139
0.3299578735
0.3299564305
0.3299589056
0.3299589056
0.3299589056
0.3299589056
0.3299589055
0.3299589053
0.3299589046
0.3299589024
0.3299588955
0.3299588748
0.3299588161
0.3299586605
0.3299582813
0.3299574451
)
;

boundaryField
{
    top
    {
        type            calculated;
        value           nonuniform List<scalar> 
134
(
0.3299589056
0.3299589056
0.3299589056
0.3299589056
0.3299589056
0.3299589056
0.3299589056
0.3299589056
0.3299589056
0.3299589056
0.3299589056
0.3299589056
0.3299589056
0.3299589056
0.3299589056
0.3299589056
0.3299589056
0.3299589056
0.3299589056
0.3299589056
0.3299589056
0.3299589056
0.3299589056
0.3299589056
0.3299589056
0.3299589056
0.3299589056
0.3299589056
0.3299589056
0.3299589055
0.3299589055
0.3299589055
0.3299589055
0.3299589055
0.3299589056
0.3299589056
0.3299589055
0.3299589055
0.3299589054
0.3299589054
0.3299589054
0.3299589054
0.3299589054
0.3299589055
0.3299589055
0.3299589053
0.3299589052
0.3299589051
0.3299589049
0.3299589049
0.3299589049
0.3299589051
0.3299589052
0.3299589053
0.3299589046
0.3299589043
0.3299589038
0.3299589032
0.329958903
0.3299589032
0.3299589038
0.3299589043
0.3299589046
0.3299589024
0.3299589013
0.3299588992
0.3299588969
0.3299588958
0.3299588969
0.3299588992
0.3299589013
0.3299589024
0.3299588955
0.3299588913
0.3299588834
0.3299588746
0.3299588702
0.3299588746
0.3299588834
0.3299588913
0.3299588955
0.3299588748
0.3299588601
0.3299588319
0.3299587988
0.3299587815
0.3299587988
0.3299588319
0.3299588601
0.3299588748
0.3299588161
0.3299587679
0.3299586724
0.3299585539
0.3299584878
0.3299585539
0.3299586724
0.3299587679
0.3299588161
0.3299586605
0.3299585139
0.3299582118
0.3299578152
0.3299575762
0.3299578152
0.3299582118
0.3299585139
0.3299586605
0.3299582813
0.3299578736
0.3299570015
0.3299557887
0.3299549932
0.3299557887
0.3299570014
0.3299578735
0.3299582813
0.3299574453
0.3299564307
0.3299541943
0.3299509258
0.3299485986
0.3299509256
0.329954194
0.3299564305
0.3299574451
0.3299558024
0.3299535952
0.3299486636
0.3299412752
0.3299357446
0.3299412748
0.3299486631
0.3299535948
)
;
    }
    bottom
    {
        type            calculated;
        value           nonuniform List<scalar> 
127
(
0.3299589056
0.3299589056
0.3299589056
0.3299589056
0.3299589056
0.3299589056
0.3299589056
0.3299589056
0.3299589056
0.3299589056
0.3299589056
0.3299589056
0.3299589056
0.3299589056
0.3299589056
0.3299589056
0.3299589056
0.3299589056
0.3299589056
0.3299589056
0.3299589056
0.3299589056
0.3299589056
0.3299589056
0.3299589056
0.3299589056
0.3299589056
0.3299589056
0.3299589056
0.3299589055
0.3299589055
0.3299589055
0.3299589055
0.3299589055
0.3299589056
0.3299589056
0.3299589055
0.3299589055
0.3299589054
0.3299589054
0.3299589054
0.3299589054
0.3299589054
0.3299589055
0.3299589055
0.3299589053
0.3299589052
0.3299589051
0.3299589049
0.3299589049
0.3299589049
0.3299589051
0.3299589052
0.3299589053
0.3299589046
0.3299589043
0.3299589038
0.3299589032
0.329958903
0.3299589032
0.3299589038
0.3299589043
0.3299589046
0.3299589024
0.3299589013
0.3299588992
0.3299588969
0.3299588958
0.3299588969
0.3299588992
0.3299589013
0.3299589024
0.3299588955
0.3299588913
0.3299588834
0.3299588746
0.3299588702
0.3299588746
0.3299588834
0.3299588913
0.3299588955
0.3299588748
0.3299588601
0.3299588319
0.3299587988
0.3299587815
0.3299587988
0.3299588319
0.3299588601
0.3299588748
0.3299588161
0.3299587679
0.3299586724
0.3299585539
0.3299584878
0.3299585539
0.3299586724
0.3299587679
0.3299588161
0.3299586605
0.3299585139
0.3299582118
0.3299578151
0.3299575762
0.3299578151
0.3299582118
0.3299585139
0.3299586605
0.3299582813
0.3299578735
0.3299570013
0.3299557885
0.329954993
0.3299557885
0.3299570013
0.3299578735
0.3299582813
0.3299574452
0.3299564305
0.3299541938
0.3299509251
0.3299485978
0.3299509252
0.3299541938
0.3299564305
0.3299574451
0.3299558021
)
;
    }
    side-walls
    {
        type            calculated;
        value           nonuniform List<scalar> 
261
(
0.3299589056
0.3299589056
0.3299589056
0.3299589056
0.3299589056
0.3299589056
0.3299589056
0.3299589056
0.3299589056
0.3299589056
0.3299589056
0.3299589056
0.3299589056
0.3299589056
0.3299589056
0.3299589056
0.3299589056
0.3299589056
0.3299589056
0.3299589056
0.3299589056
0.3299589056
0.3299589056
0.3299589056
0.3299589056
0.3299589056
0.3299589056
0.3299589056
0.3299589056
0.3299589055
0.3299589055
0.3299589055
0.3299589055
0.3299589055
0.3299589056
0.3299589056
0.3299589055
0.3299589055
0.3299589054
0.3299589054
0.3299589054
0.3299589054
0.3299589054
0.3299589055
0.3299589055
0.3299589053
0.3299589052
0.3299589051
0.3299589049
0.3299589049
0.3299589049
0.3299589051
0.3299589052
0.3299589053
0.3299589046
0.3299589043
0.3299589038
0.3299589032
0.329958903
0.3299589032
0.3299589038
0.3299589043
0.3299589046
0.3299589024
0.3299589013
0.3299588992
0.3299588969
0.3299588958
0.3299588969
0.3299588992
0.3299589013
0.3299589024
0.3299588955
0.3299588913
0.3299588834
0.3299588746
0.3299588702
0.3299588746
0.3299588834
0.3299588913
0.3299588955
0.3299588748
0.3299588601
0.3299588319
0.3299587988
0.3299587815
0.3299587988
0.3299588319
0.3299588601
0.3299588748
0.3299588161
0.3299587679
0.3299586724
0.3299585539
0.3299584878
0.3299585539
0.3299586724
0.3299587679
0.3299588161
0.3299586605
0.3299585139
0.3299582118
0.3299578152
0.3299575763
0.3299578152
0.3299582118
0.3299585139
0.3299586605
0.3299582813
0.3299578735
0.3299570014
0.3299557888
0.3299549933
0.3299557888
0.3299570015
0.3299578736
0.3299582813
0.3299574452
0.3299564306
0.3299541942
0.3299509258
0.3299485987
0.3299509259
0.3299541943
0.3299564307
0.3299574453
0.3299558021
0.329953595
0.3299486633
0.3299412751
0.3299357448
0.3299412753
0.3299486636
0.3299535952
0.3299558024
0.3299589056
0.3299589056
0.3299589056
0.3299589056
0.3299589056
0.3299589056
0.3299589056
0.3299589056
0.3299589056
0.3299589056
0.3299589056
0.3299589056
0.3299589056
0.3299589056
0.3299589056
0.3299589056
0.3299589056
0.3299589056
0.3299589056
0.3299589056
0.3299589056
0.3299589056
0.3299589056
0.3299589056
0.3299589056
0.3299589056
0.3299589056
0.3299589056
0.3299589056
0.3299589055
0.3299589055
0.3299589055
0.3299589055
0.3299589055
0.3299589056
0.3299589056
0.3299589055
0.3299589055
0.3299589054
0.3299589054
0.3299589054
0.3299589054
0.3299589054
0.3299589055
0.3299589055
0.3299589053
0.3299589052
0.3299589051
0.3299589049
0.3299589049
0.3299589049
0.3299589051
0.3299589052
0.3299589053
0.3299589046
0.3299589043
0.3299589038
0.3299589032
0.329958903
0.3299589032
0.3299589038
0.3299589043
0.3299589046
0.3299589024
0.3299589013
0.3299588992
0.3299588969
0.3299588958
0.3299588969
0.3299588992
0.3299589013
0.3299589024
0.3299588955
0.3299588913
0.3299588834
0.3299588746
0.3299588702
0.3299588746
0.3299588834
0.3299588913
0.3299588955
0.3299588748
0.3299588601
0.3299588319
0.3299587988
0.3299587815
0.3299587988
0.3299588319
0.3299588601
0.3299588748
0.3299588161
0.3299587679
0.3299586724
0.3299585538
0.3299584878
0.3299585538
0.3299586724
0.3299587679
0.3299588161
0.3299586605
0.3299585139
0.3299582118
0.3299578151
0.3299575761
0.3299578151
0.3299582118
0.3299585139
0.3299586605
0.3299582813
0.3299578735
0.3299570013
0.3299557885
0.3299549929
0.3299557885
0.3299570013
0.3299578735
0.3299582813
0.3299574451
0.3299564305
0.3299541938
0.3299509252
0.3299485978
0.3299509252
0.3299541938
0.3299564305
0.3299574451
)
;
    }
    inlet
    {
        type            calculated;
        value           nonuniform List<scalar> 
81
(
0.3299589056
0.3299589056
0.3299589056
0.3299589056
0.3299589056
0.3299589056
0.3299589056
0.3299589056
0.3299589056
0.3299589056
0.3299589056
0.3299589056
0.3299589056
0.3299589056
0.3299589056
0.3299589056
0.3299589056
0.3299589056
0.3299589056
0.3299589056
0.3299589056
0.3299589056
0.3299589056
0.3299589056
0.3299589056
0.3299589056
0.3299589056
0.3299589056
0.3299589056
0.3299589056
0.3299589056
0.3299589056
0.3299589056
0.3299589056
0.3299589056
0.3299589056
0.3299589056
0.3299589056
0.3299589056
0.3299589056
0.3299589056
0.3299589056
0.3299589056
0.3299589056
0.3299589056
0.3299589056
0.3299589056
0.3299589056
0.3299589056
0.3299589056
0.3299589056
0.3299589056
0.3299589056
0.3299589056
0.3299589056
0.3299589056
0.3299589056
0.3299589056
0.3299589056
0.3299589056
0.3299589056
0.3299589056
0.3299589056
0.3299589056
0.3299589056
0.3299589056
0.3299589056
0.3299589056
0.3299589056
0.3299589056
0.3299589056
0.3299589056
0.3299589056
0.3299589056
0.3299589056
0.3299589056
0.3299589056
0.3299589056
0.3299589056
0.3299589056
0.3299589056
)
;
    }
    outlet
    {
        type            calculated;
        value           nonuniform 0();
    }
    procBoundary0to1
    {
        type            processor;
        value           nonuniform List<scalar> 
97
(
0.3299529457
0.3299535947
0.3299488043
0.3299396745
0.3299263305
0.3299168263
0.3299263309
0.329939675
0.3299488047
0.329952946
0.3299535947
0.3299535947
0.3299394958
0.3299355339
0.3299161299
0.3298747181
0.3298357489
0.3298747192
0.3299161312
0.3299394967
0.3299488047
0.329948663
0.3299355339
0.3299355339
0.3298473084
0.3297984293
0.3296946805
0.329495296
0.3296946859
0.329847313
0.3299161312
0.3299396749
0.3299412744
0.3299113667
0.3297984293
0.3297984293
0.3291726875
0.3283320206
0.3281504225
0.3291727072
0.3296946857
0.3298747192
0.3299263308
0.329935744
0.3298861977
0.3296450426
0.3283320206
0.3283320206
0.3237310157
0.3283320234
0.3281504225
0.3294121973
0.3294952958
0.3298357489
0.3299168263
0.3299412746
0.3299113678
0.3297984368
0.3294122018
0.3283320234
0.3294121973
0.3294121973
0.3296946803
0.3298954584
0.3298747178
0.3299263304
0.3299486633
0.3299355353
0.3298954609
0.3297984374
0.3296450441
0.3297984376
0.3298954584
0.3298954584
0.3299161299
0.329948539
0.3299396744
0.3299535951
0.3299485396
0.3299355353
0.329911368
0.3298861984
0.3299113681
0.329935535
0.329948539
0.329948539
0.3299488043
0.3299558022
0.3299558023
0.3299535951
0.3299486633
0.3299412747
0.3299357442
0.3299412748
0.3299486633
0.329953595
0.3299558022
)
;
    }
}


// ************************************************************************* //
