/*--------------------------------*- C++ -*----------------------------------*\
| =========                 |                                                 |
| \\      /  F ield         | OpenFOAM: The Open Source CFD Toolbox           |
|  \\    /   O peration     | Version:  4.x                                   |
|   \\  /    A nd           | Web:      www.OpenFOAM.org                      |
|    \\/     M anipulation  |                                                 |
\*---------------------------------------------------------------------------*/
FoamFile
{
    version     2.0;
    format      ascii;
    class       volScalarField;
    location    "1000";
    object      X_H2;
}
// * * * * * * * * * * * * * * * * * * * * * * * * * * * * * * * * * * * * * //

dimensions      [0 0 0 0 0 0 0];

internalField   nonuniform List<scalar> 
1175
(
0.02997727498
0.02997727498
0.02997727498
0.02997727497
0.02997727496
0.02997727489
0.02997727468
0.02997727398
0.02997727178
0.02997726519
0.02997724646
0.02997719686
0.02997707595
0.02997680932
0.02997628538
0.02997727498
0.02997727498
0.02997727498
0.02997727497
0.02997727495
0.02997727487
0.02997727458
0.02997727361
0.02997727043
0.02997726049
0.02997723108
0.02997715004
0.02997694568
0.02997648512
0.02997558007
0.02997727498
0.02997727498
0.02997727498
0.02997727497
0.02997727494
0.02997727482
0.02997727441
0.02997727294
0.02997726792
0.02997725149
0.02997720057
0.02997705351
0.02997666693
0.02997577012
0.02997400331
0.02997727498
0.02997727498
0.02997727498
0.02997727497
0.02997727493
0.02997727478
0.02997727423
0.02997727221
0.0299772651
0.0299772409
0.0299771627
0.02997692671
0.02997627907
0.02997472453
0.02997163945
0.02997727498
0.02997727498
0.02997727498
0.02997727497
0.02997727492
0.02997727476
0.02997727414
0.02997727187
0.0299772637
0.02997723537
0.02997714157
0.02997685027
0.02997602448
0.0299739795
0.02996986865
0.02997727498
0.02997727498
0.02997727498
0.02997727497
0.02997727493
0.02997727478
0.02997727423
0.02997727221
0.0299772651
0.0299772409
0.0299771627
0.02997692671
0.02997627907
0.02997472455
0.0299716395
0.02997727498
0.02997727498
0.02997727498
0.02997727497
0.02997727494
0.02997727482
0.02997727441
0.02997727294
0.02997726792
0.02997725149
0.02997720057
0.02997705352
0.02997666693
0.02997577015
0.02997400337
0.02997727498
0.02997727498
0.02997727498
0.02997727497
0.02997727495
0.02997727487
0.02997727458
0.02997727361
0.02997727043
0.02997726049
0.02997723109
0.02997715004
0.02997694569
0.02997648515
0.02997558012
0.02997727498
0.02997727498
0.02997727498
0.02997727497
0.02997727496
0.02997727489
0.02997727468
0.02997727398
0.02997727178
0.02997726519
0.02997724647
0.02997719686
0.02997707596
0.02997680934
0.02997628543
0.02997727498
0.02997727498
0.02997727498
0.02997727497
0.02997727495
0.02997727487
0.02997727458
0.02997727361
0.02997727043
0.02997726049
0.02997723108
0.02997715004
0.02997694567
0.0299764851
0.02997727498
0.02997727498
0.02997727498
0.02997727497
0.02997727494
0.02997727483
0.02997727443
0.029977273
0.02997726811
0.02997725197
0.02997720154
0.02997705463
0.02997666515
0.02997575598
0.02997396325
0.02997727498
0.02997727498
0.02997727498
0.02997727497
0.02997727492
0.02997727476
0.02997727415
0.02997727187
0.02997726358
0.02997723463
0.02997713824
0.02997683867
0.02997599392
0.02997392491
0.02996980201
0.02997727498
0.02997727498
0.02997727498
0.02997727496
0.02997727491
0.02997727469
0.02997727385
0.02997727057
0.02997725814
0.02997721233
0.02997705064
0.02997651441
0.02997489556
0.02997067804
0.02996206289
0.02997727498
0.02997727498
0.02997727498
0.02997727496
0.0299772749
0.02997727466
0.0299772737
0.02997726992
0.02997725522
0.02997719938
0.02997699449
0.02997628097
0.02997399367
0.02996762198
0.02995399613
0.02997727498
0.02997727498
0.02997727498
0.02997727496
0.02997727491
0.02997727469
0.02997727385
0.02997727057
0.02997725814
0.02997721233
0.02997705064
0.02997651441
0.02997489558
0.02997067812
0.02996206307
0.02997727498
0.02997727498
0.02997727498
0.02997727497
0.02997727492
0.02997727476
0.02997727415
0.02997727187
0.02997726359
0.02997723463
0.02997713824
0.02997683867
0.02997599394
0.02997392499
0.02996980219
0.02997727498
0.02997727498
0.02997727498
0.02997727497
0.02997727494
0.02997727483
0.02997727443
0.029977273
0.02997726811
0.02997725197
0.02997720154
0.02997705464
0.02997666517
0.02997575604
0.02997396341
0.02997727498
0.02997727498
0.02997727498
0.02997727497
0.02997727495
0.02997727487
0.02997727458
0.02997727361
0.02997727043
0.02997726049
0.02997723108
0.02997715004
0.02997694569
0.02997648514
0.02997558012
0.02997727498
0.02997727498
0.02997727498
0.02997727497
0.02997727494
0.02997727482
0.02997727441
0.02997727294
0.02997726792
0.02997725149
0.02997720057
0.02997705351
0.02997666691
0.02997577006
0.02997727498
0.02997727498
0.02997727498
0.02997727497
0.02997727492
0.02997727476
0.02997727415
0.02997727187
0.02997726358
0.02997723463
0.02997713824
0.02997683866
0.02997599389
0.0299739248
0.02997727498
0.02997727498
0.02997727498
0.02997727496
0.0299772749
0.02997727465
0.02997727367
0.02997726977
0.02997725467
0.02997719781
0.02997699278
0.02997629872
0.02997416497
0.02996852915
0.02995696824
0.02997727498
0.02997727498
0.02997727497
0.02997727496
0.02997727487
0.02997727454
0.02997727312
0.02997726723
0.02997724304
0.02997714566
0.0299767658
0.02997535854
0.02997057281
0.02995655918
0.02992587416
0.02997727498
0.02997727498
0.02997727497
0.02997727495
0.02997727486
0.02997727448
0.02997727284
0.02997726586
0.02997723619
0.02997711136
0.02997659523
0.0299745299
0.02996675949
0.02994092527
0.02987667621
0.02997727498
0.02997727498
0.02997727497
0.02997727496
0.02997727487
0.02997727454
0.02997727312
0.02997726723
0.02997724304
0.02997714566
0.0299767658
0.02997535857
0.02997057291
0.02995655954
0.02992587516
0.02997727498
0.02997727498
0.02997727498
0.02997727496
0.0299772749
0.02997727465
0.02997727367
0.02997726977
0.02997725467
0.02997719781
0.02997699278
0.02997629874
0.02997416505
0.02996852944
0.02995696913
0.02997727498
0.02997727498
0.02997727498
0.02997727497
0.02997727492
0.02997727476
0.02997727415
0.02997727187
0.02997726358
0.02997723463
0.02997713824
0.02997683867
0.02997599394
0.02997392498
0.02996980218
0.02997727498
0.02997727498
0.02997727498
0.02997727497
0.02997727494
0.02997727482
0.02997727441
0.02997727294
0.02997726792
0.02997725149
0.02997720057
0.02997705351
0.02997666693
0.02997577014
0.02997400336
0.02997727498
0.02997727498
0.02997727498
0.02997727497
0.02997727493
0.02997727478
0.02997727423
0.02997727221
0.0299772651
0.0299772409
0.02997716269
0.0299769267
0.02997627903
0.02997472442
0.02997727498
0.02997727498
0.02997727498
0.02997727496
0.02997727491
0.02997727469
0.02997727385
0.02997727057
0.02997725814
0.02997721233
0.02997705064
0.02997651439
0.02997489548
0.02997067776
0.02997727498
0.02997727498
0.02997727497
0.02997727496
0.02997727487
0.02997727454
0.02997727312
0.02997726723
0.02997724304
0.02997714566
0.02997676579
0.02997535851
0.02997057266
0.02995655843
0.02997727498
0.02997727498
0.02997727497
0.02997727495
0.02997727484
0.02997727436
0.02997727225
0.02997726293
0.02997722184
0.02997704163
0.02997626253
0.02997299765
0.02996014372
0.0299156345
0.02980200449
0.02997727498
0.02997727498
0.02997727497
0.02997727494
0.02997727482
0.02997727427
0.02997727178
0.02997726043
0.02997720804
0.02997696343
0.02997581144
0.02997037766
0.02994517564
0.0298356172
0.02945535684
0.02997727498
0.02997727498
0.02997727497
0.02997727495
0.02997727484
0.02997727436
0.02997727225
0.02997726293
0.02997722184
0.02997704163
0.02997626254
0.0299729977
0.02996014401
0.029915636
0.02980201062
0.02997727498
0.02997727498
0.02997727497
0.02997727496
0.02997727487
0.02997727454
0.02997727312
0.02997726723
0.02997724304
0.02997714566
0.0299767658
0.02997535856
0.02997057287
0.02995655945
0.02992587504
0.02997727498
0.02997727498
0.02997727498
0.02997727496
0.02997727491
0.02997727469
0.02997727385
0.02997727057
0.02997725814
0.02997721233
0.02997705064
0.02997651441
0.02997489557
0.02997067808
0.02996206302
0.02997727498
0.02997727498
0.02997727498
0.02997727497
0.02997727493
0.02997727478
0.02997727423
0.02997727221
0.0299772651
0.0299772409
0.02997716269
0.02997692671
0.02997627906
0.02997472453
0.02997163947
0.02997727498
0.02997727498
0.02997727498
0.02997727497
0.02997727492
0.02997727476
0.02997727414
0.02997727187
0.0299772637
0.02997723537
0.02997714156
0.02997685025
0.02997602443
0.02997397934
0.02997727498
0.02997727498
0.02997727498
0.02997727496
0.0299772749
0.02997727466
0.0299772737
0.02997726992
0.02997725522
0.02997719937
0.02997699448
0.02997628093
0.02997399353
0.02996762151
0.02997727498
0.02997727498
0.02997727497
0.02997727495
0.02997727486
0.02997727448
0.02997727284
0.02997726586
0.02997723619
0.02997711136
0.02997659521
0.02997452981
0.02996675907
0.02994092348
0.02997727498
0.02997727498
0.02997727497
0.02997727494
0.02997727482
0.02997727427
0.02997727178
0.02997726043
0.02997720804
0.02997696343
0.02997581141
0.02997037751
0.02994517467
0.02983561057
0.02997727498
0.02997727498
0.02997727497
0.02997727494
0.0299772748
0.02997727416
0.0299772712
0.02997725711
0.02997718816
0.0299768383
0.02997497883
0.02996451479
0.02990153543
0.02949312785
0.02660178882
0.02997727498
0.02997727498
0.02997727497
0.02997727494
0.02997727482
0.02997727427
0.02997727178
0.02997726043
0.02997720804
0.02997696343
0.02997581142
0.0299703776
0.0299451754
0.02983561635
0.02945535519
0.02997727498
0.02997727498
0.02997727497
0.02997727495
0.02997727486
0.02997727448
0.02997727284
0.02997726586
0.02997723619
0.02997711136
0.02997659522
0.02997452987
0.02996675938
0.02994092497
0.0298766758
0.02997727498
0.02997727498
0.02997727498
0.02997727496
0.0299772749
0.02997727466
0.0299772737
0.02997726992
0.02997725522
0.02997719937
0.02997699448
0.02997628096
0.02997399363
0.02996762189
0.029953996
0.02997727498
0.02997727498
0.02997727498
0.02997727497
0.02997727492
0.02997727476
0.02997727414
0.02997727187
0.0299772637
0.02997723537
0.02997714157
0.02997685026
0.02997602447
0.02997397947
0.02996986861
0.02997727498
0.02997727498
0.02997727498
0.02997727497
0.02997727493
0.02997727478
0.02997727423
0.02997727221
0.0299772651
0.0299772409
0.02997716269
0.0299769267
0.02997627903
0.02997472442
0.02997727498
0.02997727498
0.02997727498
0.02997727496
0.02997727491
0.02997727469
0.02997727385
0.02997727057
0.02997725814
0.02997721233
0.02997705063
0.02997651438
0.02997489547
0.02997067779
0.02997727498
0.02997727498
0.02997727497
0.02997727496
0.02997727487
0.02997727454
0.02997727312
0.02997726723
0.02997724304
0.02997714566
0.02997676579
0.02997535849
0.02997057261
0.02995655851
0.02997727498
0.02997727498
0.02997727497
0.02997727495
0.02997727484
0.02997727436
0.02997727225
0.02997726293
0.02997722184
0.02997704162
0.02997626252
0.02997299757
0.02996014339
0.02991563326
0.02997727498
0.02997727498
0.02997727497
0.02997727494
0.02997727482
0.02997727427
0.02997727178
0.02997726043
0.02997720804
0.02997696343
0.0299758114
0.02997037748
0.02994517453
0.02983561027
0.02997727498
0.02997727498
0.02997727497
0.02997727495
0.02997727484
0.02997727436
0.02997727225
0.02997726293
0.02997722184
0.02997704162
0.02997626252
0.02997299759
0.02996014348
0.02991563339
0.02997727498
0.02997727498
0.02997727497
0.02997727496
0.02997727487
0.02997727454
0.02997727312
0.02997726723
0.02997724304
0.02997714566
0.02997676579
0.02997535852
0.02997057271
0.02995655886
0.02992587324
0.02997727498
0.02997727498
0.02997727498
0.02997727496
0.02997727491
0.02997727469
0.02997727385
0.02997727057
0.02997725814
0.02997721233
0.02997705064
0.0299765144
0.02997489553
0.02997067795
0.02996206274
0.02997727498
0.02997727498
0.02997727498
0.02997727497
0.02997727493
0.02997727478
0.02997727423
0.02997727221
0.0299772651
0.0299772409
0.02997716269
0.0299769267
0.02997627905
0.0299747245
0.02997163941
0.02997727498
0.02997727498
0.02997727498
0.02997727497
0.02997727494
0.02997727482
0.02997727441
0.02997727294
0.02997726792
0.02997725149
0.02997720056
0.0299770535
0.0299766669
0.02997577007
0.02997727498
0.02997727498
0.02997727498
0.02997727497
0.02997727492
0.02997727476
0.02997727415
0.02997727187
0.02997726358
0.02997723463
0.02997713823
0.02997683865
0.02997599388
0.02997392482
0.02997727498
0.02997727498
0.02997727498
0.02997727496
0.0299772749
0.02997727465
0.02997727367
0.02997726977
0.02997725467
0.02997719781
0.02997699277
0.0299762987
0.02997416491
0.02996852902
0.02997727498
0.02997727498
0.02997727497
0.02997727496
0.02997727487
0.02997727454
0.02997727312
0.02997726723
0.02997724304
0.02997714566
0.02997676579
0.02997535849
0.02997057261
0.02995655855
0.02997727498
0.02997727498
0.02997727497
0.02997727495
0.02997727486
0.02997727448
0.02997727284
0.02997726586
0.02997723619
0.02997711136
0.02997659521
0.02997452979
0.02996675902
0.02994092347
0.02997727498
0.02997727498
0.02997727497
0.02997727496
0.02997727487
0.02997727454
0.02997727312
0.02997726723
0.02997724304
0.02997714566
0.02997676579
0.02997535849
0.02997057261
0.02995655855
0.02997727498
0.02997727498
0.02997727498
0.02997727496
0.0299772749
0.02997727465
0.02997727367
0.02997726977
0.02997725467
0.02997719781
0.02997699277
0.02997629871
0.02997416492
0.02996852898
0.02997727498
0.02997727498
0.02997727498
0.02997727497
0.02997727492
0.02997727476
0.02997727415
0.02997727187
0.02997726358
0.02997723463
0.02997713824
0.02997683866
0.02997599389
0.02997392485
0.02996980186
0.02997727498
0.02997727498
0.02997727498
0.02997727497
0.02997727494
0.02997727482
0.02997727441
0.02997727294
0.02997726792
0.02997725149
0.02997720057
0.02997705351
0.02997666692
0.0299757701
0.02997400328
0.02997727498
0.02997727498
0.02997727498
0.02997727497
0.02997727495
0.02997727487
0.02997727458
0.02997727361
0.02997727043
0.02997726049
0.02997723108
0.02997715004
0.02997694567
0.02997648511
0.02997727498
0.02997727498
0.02997727498
0.02997727497
0.02997727494
0.02997727483
0.02997727443
0.029977273
0.02997726811
0.02997725197
0.02997720154
0.02997705463
0.02997666514
0.02997575596
0.02997727498
0.02997727498
0.02997727498
0.02997727497
0.02997727492
0.02997727476
0.02997727415
0.02997727187
0.02997726358
0.02997723463
0.02997713823
0.02997683866
0.02997599388
0.02997392482
0.02997727498
0.02997727498
0.02997727498
0.02997727496
0.02997727491
0.02997727469
0.02997727385
0.02997727057
0.02997725814
0.02997721233
0.02997705063
0.02997651438
0.02997489547
0.02997067779
0.02997727498
0.02997727498
0.02997727498
0.02997727496
0.0299772749
0.02997727466
0.0299772737
0.02997726992
0.02997725522
0.02997719937
0.02997699448
0.02997628093
0.02997399351
0.02996762152
0.02997727498
0.02997727498
0.02997727498
0.02997727496
0.02997727491
0.02997727469
0.02997727385
0.02997727057
0.02997725814
0.02997721233
0.02997705063
0.02997651438
0.02997489547
0.0299706778
0.02997727498
0.02997727498
0.02997727498
0.02997727497
0.02997727492
0.02997727476
0.02997727415
0.02997727187
0.02997726358
0.02997723463
0.02997713824
0.02997683866
0.02997599388
0.02997392481
0.02997727498
0.02997727498
0.02997727498
0.02997727497
0.02997727494
0.02997727483
0.02997727443
0.029977273
0.02997726811
0.02997725197
0.02997720154
0.02997705463
0.02997666514
0.02997575595
0.02997727498
0.02997727498
0.02997727498
0.02997727497
0.02997727495
0.02997727487
0.02997727458
0.02997727361
0.02997727043
0.02997726049
0.02997723108
0.02997715004
0.02997694567
0.02997648511
0.02997558004
0.02997727498
0.02997727498
0.02997727498
0.02997727497
0.02997727496
0.02997727489
0.02997727468
0.02997727398
0.02997727178
0.02997726519
0.02997724646
0.02997719686
0.02997707595
0.02997680931
0.02997727498
0.02997727498
0.02997727498
0.02997727497
0.02997727495
0.02997727487
0.02997727458
0.02997727361
0.02997727043
0.02997726049
0.02997723108
0.02997715004
0.02997694567
0.02997648511
0.02997727498
0.02997727498
0.02997727498
0.02997727497
0.02997727494
0.02997727482
0.02997727441
0.02997727294
0.02997726792
0.02997725149
0.02997720056
0.0299770535
0.0299766669
0.02997577007
0.02997727498
0.02997727498
0.02997727498
0.02997727497
0.02997727493
0.02997727478
0.02997727423
0.02997727221
0.0299772651
0.0299772409
0.02997716269
0.02997692669
0.02997627902
0.02997472442
0.02997727498
0.02997727498
0.02997727498
0.02997727497
0.02997727492
0.02997727476
0.02997727414
0.02997727187
0.0299772637
0.02997723537
0.02997714156
0.02997685025
0.02997602442
0.02997397935
0.02997727498
0.02997727498
0.02997727498
0.02997727497
0.02997727493
0.02997727478
0.02997727423
0.02997727221
0.0299772651
0.0299772409
0.02997716269
0.02997692669
0.02997627902
0.02997472443
0.02997727498
0.02997727498
0.02997727498
0.02997727497
0.02997727494
0.02997727482
0.02997727441
0.02997727294
0.02997726792
0.02997725149
0.02997720056
0.0299770535
0.0299766669
0.02997577007
0.02997727498
0.02997727498
0.02997727498
0.02997727497
0.02997727495
0.02997727487
0.02997727458
0.02997727361
0.02997727043
0.02997726049
0.02997723108
0.02997715004
0.02997694567
0.0299764851
0.02997727498
0.02997727498
0.02997727498
0.02997727497
0.02997727496
0.02997727489
0.02997727468
0.02997727398
0.02997727178
0.02997726519
0.02997724646
0.02997719686
0.02997707595
0.02997680931
)
;

boundaryField
{
    top
    {
        type            calculated;
        value           nonuniform List<scalar> 
134
(
0.02997727498
0.02997727498
0.02997727498
0.02997727498
0.02997727498
0.02997727498
0.02997727498
0.02997727498
0.02997727498
0.02997727498
0.02997727498
0.02997727498
0.02997727498
0.02997727498
0.02997727498
0.02997727498
0.02997727498
0.02997727498
0.02997727498
0.02997727498
0.02997727498
0.02997727498
0.02997727498
0.02997727498
0.02997727498
0.02997727498
0.02997727498
0.02997727497
0.02997727497
0.02997727497
0.02997727497
0.02997727497
0.02997727497
0.02997727497
0.02997727497
0.02997727497
0.02997727496
0.02997727495
0.02997727494
0.02997727493
0.02997727492
0.02997727493
0.02997727494
0.02997727495
0.02997727496
0.02997727489
0.02997727487
0.02997727482
0.02997727478
0.02997727476
0.02997727478
0.02997727482
0.02997727487
0.02997727489
0.02997727468
0.02997727458
0.02997727441
0.02997727423
0.02997727414
0.02997727423
0.02997727441
0.02997727458
0.02997727468
0.02997727398
0.02997727361
0.02997727294
0.02997727221
0.02997727187
0.02997727221
0.02997727294
0.02997727361
0.02997727398
0.02997727178
0.02997727043
0.02997726792
0.0299772651
0.0299772637
0.0299772651
0.02997726792
0.02997727043
0.02997727178
0.02997726519
0.02997726049
0.02997725149
0.0299772409
0.02997723537
0.0299772409
0.02997725149
0.02997726049
0.02997726519
0.02997724647
0.02997723108
0.02997720057
0.02997716269
0.02997714157
0.02997716269
0.02997720057
0.02997723108
0.02997724646
0.02997719686
0.02997715004
0.02997705351
0.02997692671
0.02997685026
0.0299769267
0.02997705351
0.02997715004
0.02997719686
0.02997707596
0.02997694569
0.02997666693
0.02997627906
0.02997602447
0.02997627905
0.02997666692
0.02997694567
0.02997707595
0.02997680934
0.02997648514
0.02997577014
0.02997472453
0.02997397947
0.0299747245
0.0299757701
0.02997648511
0.02997680931
0.02997628543
0.02997558012
0.02997400336
0.02997163947
0.02996986861
0.02997163941
0.02997400328
0.02997558004
)
;
    }
    bottom
    {
        type            calculated;
        value           nonuniform List<scalar> 
127
(
0.02997727498
0.02997727498
0.02997727498
0.02997727498
0.02997727498
0.02997727498
0.02997727498
0.02997727498
0.02997727498
0.02997727498
0.02997727498
0.02997727498
0.02997727498
0.02997727498
0.02997727498
0.02997727498
0.02997727498
0.02997727498
0.02997727498
0.02997727498
0.02997727498
0.02997727498
0.02997727498
0.02997727498
0.02997727498
0.02997727498
0.02997727498
0.02997727497
0.02997727497
0.02997727497
0.02997727497
0.02997727497
0.02997727497
0.02997727497
0.02997727497
0.02997727497
0.02997727496
0.02997727495
0.02997727494
0.02997727493
0.02997727492
0.02997727493
0.02997727494
0.02997727495
0.02997727496
0.02997727489
0.02997727487
0.02997727482
0.02997727478
0.02997727476
0.02997727478
0.02997727482
0.02997727487
0.02997727489
0.02997727468
0.02997727458
0.02997727441
0.02997727423
0.02997727414
0.02997727423
0.02997727441
0.02997727458
0.02997727468
0.02997727398
0.02997727361
0.02997727294
0.02997727221
0.02997727187
0.02997727221
0.02997727294
0.02997727361
0.02997727398
0.02997727178
0.02997727043
0.02997726792
0.0299772651
0.0299772637
0.0299772651
0.02997726792
0.02997727043
0.02997727178
0.02997726519
0.02997726049
0.02997725149
0.0299772409
0.02997723537
0.0299772409
0.02997725149
0.02997726049
0.02997726519
0.02997724646
0.02997723108
0.02997720057
0.02997716269
0.02997714156
0.02997716269
0.02997720056
0.02997723108
0.02997724646
0.02997719686
0.02997715004
0.02997705351
0.0299769267
0.02997685025
0.0299769267
0.0299770535
0.02997715004
0.02997719686
0.02997707595
0.02997694567
0.02997666691
0.02997627903
0.02997602443
0.02997627903
0.0299766669
0.02997694567
0.02997707595
0.02997680932
0.0299764851
0.02997577006
0.02997472442
0.02997397934
0.02997472442
0.02997577007
0.02997648511
0.02997680931
0.02997628538
)
;
    }
    side-walls
    {
        type            calculated;
        value           nonuniform List<scalar> 
261
(
0.02997727498
0.02997727498
0.02997727498
0.02997727498
0.02997727498
0.02997727498
0.02997727498
0.02997727498
0.02997727498
0.02997727498
0.02997727498
0.02997727498
0.02997727498
0.02997727498
0.02997727498
0.02997727498
0.02997727498
0.02997727498
0.02997727498
0.02997727498
0.02997727498
0.02997727498
0.02997727498
0.02997727498
0.02997727498
0.02997727498
0.02997727498
0.02997727497
0.02997727497
0.02997727497
0.02997727497
0.02997727497
0.02997727497
0.02997727497
0.02997727497
0.02997727497
0.02997727496
0.02997727495
0.02997727494
0.02997727493
0.02997727492
0.02997727493
0.02997727494
0.02997727495
0.02997727496
0.02997727489
0.02997727487
0.02997727482
0.02997727478
0.02997727476
0.02997727478
0.02997727482
0.02997727487
0.02997727489
0.02997727468
0.02997727458
0.02997727441
0.02997727423
0.02997727414
0.02997727423
0.02997727441
0.02997727458
0.02997727468
0.02997727398
0.02997727361
0.02997727294
0.02997727221
0.02997727187
0.02997727221
0.02997727294
0.02997727361
0.02997727398
0.02997727178
0.02997727043
0.02997726792
0.0299772651
0.0299772637
0.0299772651
0.02997726792
0.02997727043
0.02997727178
0.02997726519
0.02997726049
0.02997725149
0.0299772409
0.02997723537
0.0299772409
0.02997725149
0.02997726049
0.02997726519
0.02997724646
0.02997723108
0.02997720057
0.0299771627
0.02997714157
0.0299771627
0.02997720057
0.02997723109
0.02997724647
0.02997719686
0.02997715004
0.02997705351
0.02997692671
0.02997685027
0.02997692671
0.02997705352
0.02997715004
0.02997719686
0.02997707595
0.02997694568
0.02997666693
0.02997627907
0.02997602448
0.02997627907
0.02997666693
0.02997694569
0.02997707596
0.02997680932
0.02997648512
0.02997577012
0.02997472453
0.0299739795
0.02997472455
0.02997577015
0.02997648515
0.02997680934
0.02997628538
0.02997558007
0.02997400331
0.02997163945
0.02996986865
0.0299716395
0.02997400337
0.02997558012
0.02997628543
0.02997727498
0.02997727498
0.02997727498
0.02997727498
0.02997727498
0.02997727498
0.02997727498
0.02997727498
0.02997727498
0.02997727498
0.02997727498
0.02997727498
0.02997727498
0.02997727498
0.02997727498
0.02997727498
0.02997727498
0.02997727498
0.02997727498
0.02997727498
0.02997727498
0.02997727498
0.02997727498
0.02997727498
0.02997727498
0.02997727498
0.02997727498
0.02997727497
0.02997727497
0.02997727497
0.02997727497
0.02997727497
0.02997727497
0.02997727497
0.02997727497
0.02997727497
0.02997727496
0.02997727495
0.02997727494
0.02997727493
0.02997727492
0.02997727493
0.02997727494
0.02997727495
0.02997727496
0.02997727489
0.02997727487
0.02997727482
0.02997727478
0.02997727476
0.02997727478
0.02997727482
0.02997727487
0.02997727489
0.02997727468
0.02997727458
0.02997727441
0.02997727423
0.02997727414
0.02997727423
0.02997727441
0.02997727458
0.02997727468
0.02997727398
0.02997727361
0.02997727294
0.02997727221
0.02997727187
0.02997727221
0.02997727294
0.02997727361
0.02997727398
0.02997727178
0.02997727043
0.02997726792
0.0299772651
0.0299772637
0.0299772651
0.02997726792
0.02997727043
0.02997727178
0.02997726519
0.02997726049
0.02997725149
0.0299772409
0.02997723537
0.0299772409
0.02997725149
0.02997726049
0.02997726519
0.02997724646
0.02997723108
0.02997720056
0.02997716269
0.02997714156
0.02997716269
0.02997720056
0.02997723108
0.02997724646
0.02997719686
0.02997715004
0.0299770535
0.02997692669
0.02997685025
0.02997692669
0.0299770535
0.02997715004
0.02997719686
0.02997707595
0.02997694567
0.0299766669
0.02997627902
0.02997602442
0.02997627902
0.0299766669
0.02997694567
0.02997707595
0.02997680931
0.02997648511
0.02997577007
0.02997472442
0.02997397935
0.02997472443
0.02997577007
0.0299764851
0.02997680931
)
;
    }
    inlet
    {
        type            calculated;
        value           nonuniform List<scalar> 
81
(
0.02997727498
0.02997727498
0.02997727498
0.02997727498
0.02997727498
0.02997727498
0.02997727498
0.02997727498
0.02997727498
0.02997727498
0.02997727498
0.02997727498
0.02997727498
0.02997727498
0.02997727498
0.02997727498
0.02997727498
0.02997727498
0.02997727498
0.02997727498
0.02997727498
0.02997727498
0.02997727498
0.02997727498
0.02997727498
0.02997727498
0.02997727498
0.02997727498
0.02997727498
0.02997727498
0.02997727498
0.02997727498
0.02997727498
0.02997727498
0.02997727498
0.02997727498
0.02997727498
0.02997727498
0.02997727498
0.02997727498
0.02997727498
0.02997727498
0.02997727498
0.02997727498
0.02997727498
0.02997727498
0.02997727498
0.02997727498
0.02997727498
0.02997727498
0.02997727498
0.02997727498
0.02997727498
0.02997727498
0.02997727498
0.02997727498
0.02997727498
0.02997727498
0.02997727498
0.02997727498
0.02997727498
0.02997727498
0.02997727498
0.02997727498
0.02997727498
0.02997727498
0.02997727498
0.02997727498
0.02997727498
0.02997727498
0.02997727498
0.02997727498
0.02997727498
0.02997727498
0.02997727498
0.02997727498
0.02997727498
0.02997727498
0.02997727498
0.02997727498
0.02997727498
)
;
    }
    outlet
    {
        type            calculated;
        value           nonuniform 0();
    }
    procBoundary0to1
    {
        type            processor;
        value           nonuniform List<scalar> 
97
(
0.02997537464
0.02997558003
0.02997405136
0.02997113262
0.02996686381
0.02996382109
0.02996686388
0.02997113271
0.02997405143
0.0299753747
0.02997558003
0.02997558003
0.02997107483
0.02996980181
0.02996359875
0.02995033921
0.02993785203
0.02995033943
0.02996359899
0.029971075
0.02997405143
0.02997400325
0.02996980181
0.02996980181
0.02994156328
0.0299258728
0.02989265862
0.02982872447
0.0298926596
0.02994156409
0.02996359897
0.0299711327
0.02997163935
0.02996206257
0.0299258728
0.0299258728
0.02972530351
0.0294553487
0.02939733053
0.02972530697
0.02989265952
0.0299503394
0.02996686387
0.02996986851
0.02995399567
0.02987667436
0.0294553487
0.0294553487
0.02797886682
0.029455349
0.02939733033
0.02980200737
0.02982872437
0.029937852
0.02996382109
0.02997163939
0.02996206277
0.02992587413
0.02980200835
0.029455349
0.02980200737
0.02980200737
0.02989265856
0.02995696833
0.02995033917
0.0299668638
0.0299740033
0.02996980205
0.02995696877
0.02992587428
0.02987667464
0.02992587425
0.02995696833
0.02995696833
0.02996359875
0.02997396326
0.02997113262
0.02997558009
0.02997396335
0.02996980207
0.02996206281
0.02995399579
0.02996206282
0.02996980201
0.02997396326
0.02997396326
0.02997405136
0.02997628538
0.02997628541
0.02997558009
0.02997400331
0.02997163941
0.02996986855
0.02997163941
0.0299740033
0.02997558007
0.02997628538
)
;
    }
}


// ************************************************************************* //
