/*--------------------------------*- C++ -*----------------------------------*\
| =========                 |                                                 |
| \\      /  F ield         | OpenFOAM: The Open Source CFD Toolbox           |
|  \\    /   O peration     | Version:  4.x                                   |
|   \\  /    A nd           | Web:      www.OpenFOAM.org                      |
|    \\/     M anipulation  |                                                 |
\*---------------------------------------------------------------------------*/
FoamFile
{
    version     2.0;
    format      ascii;
    class       volScalarField;
    location    "6000";
    object      CO2;
}
// * * * * * * * * * * * * * * * * * * * * * * * * * * * * * * * * * * * * * //

dimensions      [0 0 0 0 0 0 0];

internalField   nonuniform List<scalar> 
1174
(
0.06498384033
0.06498566252
0.06498820845
0.06499149655
0.06499547974
0.06500006015
0.06500510845
0.06501048239
0.06501604151
0.06502165629
0.06502720938
0.0650325774
0.06503754227
0.06504141121
0.06498551592
0.06498838446
0.06499216547
0.06499675714
0.06500199083
0.06500767001
0.06501360053
0.0650196096
0.06502555468
0.06503132475
0.06503683407
0.06504200019
0.06504666111
0.06505023157
0.06498917635
0.06499415618
0.06500025425
0.06500711233
0.06501435556
0.06502165631
0.06502876202
0.06503549847
0.06504175979
0.06504749309
0.06505268058
0.06505731364
0.06506132326
0.06506430454
0.06499446407
0.06500209429
0.06501076503
0.06501983316
0.06502877715
0.06503723339
0.06504498387
0.06505192511
0.06505803454
0.0650633415
0.06506790341
0.06507178168
0.06507499039
0.06507729587
0.06499817858
0.06500723663
0.06501702576
0.06502685373
0.06503623231
0.06504486026
0.06505258327
0.06505935235
0.06506518828
0.06507015376
0.06507433215
0.06507780707
0.0650806206
0.06508260697
0.06499446399
0.06500209417
0.06501076487
0.06501983298
0.06502877695
0.06503723316
0.06504498364
0.06505192487
0.0650580343
0.06506334125
0.06506790316
0.06507178143
0.06507499014
0.06507729562
0.06498917623
0.064994156
0.06500025402
0.06500711205
0.06501435524
0.06502165596
0.06502876164
0.06503549806
0.06504175937
0.06504749265
0.06505268014
0.06505731319
0.0650613228
0.06506430409
0.06498551581
0.06498838431
0.06499216527
0.0649967569
0.06500199054
0.06500766967
0.06501360015
0.06501960918
0.06502555423
0.06503132426
0.06503683355
0.06504199965
0.06504666056
0.065050231
0.06498384025
0.06498566241
0.06498820831
0.06499149638
0.06499547952
0.06500005988
0.06500510813
0.06501048204
0.06501604111
0.06502165585
0.0650272089
0.06503257688
0.06503754173
0.06504141064
0.0649835573
0.06498551592
0.06498838446
0.06499216547
0.06499675714
0.06500199083
0.06500767001
0.06501360053
0.0650196096
0.06502555468
0.06503132474
0.06503683406
0.06504200018
0.06504666111
0.06505023156
0.06498923166
0.06499416556
0.06500012138
0.06500673015
0.06501363264
0.0650205341
0.06502722094
0.06503355513
0.06503945906
0.06504489821
0.06504986363
0.06505434704
0.06505827198
0.06506121789
0.06499846202
0.06500785584
0.06501795471
0.06502790522
0.06503714324
0.06504537793
0.06505252001
0.06505860565
0.06506373653
0.06506803925
0.0650716401
0.06507464595
0.06507710733
0.06507886848
0.06501461185
0.06502997332
0.06504440733
0.06505687235
0.06506704615
0.06507502774
0.06508110943
0.06508563824
0.06508894473
0.06509131349
0.06509297607
0.06509411434
0.06509486515
0.06509530583
0.06502958383
0.06504787642
0.06506319638
0.06507521143
0.06508422662
0.06509075785
0.06509533422
0.06509842068
0.06510039738
0.06510156305
0.06510214747
0.06510232759
0.06510224964
0.06510207301
0.06501461154
0.06502997293
0.0650444069
0.0650568719
0.06506704571
0.06507502731
0.06508110902
0.06508563785
0.06508894436
0.06509131313
0.06509297573
0.06509411402
0.06509486484
0.06509530553
0.06499846164
0.06500785538
0.06501795419
0.06502790465
0.06503714265
0.06504537732
0.06505251939
0.06505860505
0.06506373593
0.06506803866
0.06507163953
0.06507464539
0.06507710678
0.06507886794
0.06498923142
0.06499416528
0.06500012105
0.06500672977
0.06501363221
0.06502053362
0.06502722042
0.06503355458
0.06503945848
0.06504489761
0.06504986302
0.06505434642
0.06505827136
0.06506121725
0.06498551582
0.06498838432
0.06499216528
0.0649967569
0.06500199054
0.06500766967
0.06501360014
0.06501960916
0.0650255542
0.06503132422
0.06503683351
0.0650419996
0.0650466605
0.06505023092
0.06498555506
0.06498917635
0.06499415617
0.06500025424
0.06500711231
0.06501435555
0.0650216563
0.06502876201
0.06503549846
0.06504175978
0.06504749307
0.06505268057
0.06505731363
0.06506132324
0.06506430453
0.06499078622
0.06499846203
0.06500785584
0.06501795472
0.06502790523
0.06503714326
0.06504537795
0.06505252002
0.06505860567
0.06506373655
0.06506803926
0.06507164011
0.06507464596
0.06507710733
0.06507886848
0.06502529763
0.06504466986
0.06506196687
0.06507594572
0.06508642561
0.06509379416
0.0650986521
0.06510161172
0.06510320509
0.06510385641
0.06510388657
0.0651035333
0.06510298561
0.06510246308
0.06508402368
0.06511602957
0.06513763359
0.06514999508
0.06515543667
0.06515620994
0.0651540888
0.06515033363
0.06514578363
0.06514097098
0.06513622087
0.06513173797
0.06512771967
0.06512467081
0.06515960779
0.06519071275
0.06520340833
0.06520491085
0.06520026477
0.06519259158
0.06518371045
0.06517463721
0.06516591256
0.06515780317
0.06515042439
0.06514382806
0.06513812641
0.06513389427
0.06508402219
0.06511602804
0.06513763218
0.06514999385
0.06515543561
0.06515620904
0.06515408803
0.06515033298
0.06514578308
0.06514097049
0.06513622044
0.06513173758
0.06512771931
0.06512467047
0.06502529637
0.06504466861
0.06506196562
0.06507594451
0.06508642445
0.06509379308
0.0650986511
0.0651016108
0.06510320425
0.06510385563
0.06510388585
0.06510353263
0.06510298497
0.06510246247
0.06499846163
0.06500785534
0.06501795413
0.06502790456
0.06503714253
0.06504537718
0.06505251924
0.06505860487
0.06506373575
0.06506803847
0.06507163933
0.06507464519
0.06507710657
0.06507886773
0.06498917622
0.06499415597
0.06500025397
0.06500711197
0.06501435513
0.06502165582
0.06502876147
0.06503549786
0.06504175914
0.06504749241
0.06505267988
0.06505731291
0.06506132251
0.06506430378
0.06498851239
0.06499446407
0.06500209426
0.06501076499
0.06501983313
0.06502877713
0.06503723336
0.06504498385
0.06505192509
0.06505803452
0.06506334147
0.06506790339
0.06507178166
0.06507499037
0.06507729585
0.06500030444
0.06501461196
0.06502997337
0.06504440738
0.0650568724
0.0650670462
0.06507502779
0.06508110947
0.06508563827
0.06508894475
0.06509131349
0.06509297607
0.06509411433
0.06509486514
0.06509530582
0.06504427134
0.06508402387
0.06511602962
0.0651376336
0.06514999507
0.06515543663
0.06515620989
0.06515408873
0.06515033355
0.06514578355
0.0651409709
0.06513622079
0.0651317379
0.0651277196
0.06512467075
0.06528246802
0.06532086402
0.06532553472
0.06531240589
0.06529165783
0.06526890651
0.0652469218
0.06522688697
0.06520916702
0.06519373797
0.0651804177
0.06516900578
0.06515946501
0.06515254123
0.06566530671
0.06561091352
0.06553124554
0.06545604885
0.06539274942
0.06534145108
0.0653002761
0.06526714689
0.06524029343
0.06521833102
0.06520021663
0.06518520882
0.06517296003
0.06516420548
0.06528246265
0.06532086016
0.06532553199
0.06531240401
0.06529165655
0.06526890566
0.06524692122
0.06522688656
0.06520916671
0.06519373773
0.06518041749
0.06516900559
0.06515946482
0.06515254103
0.06508402223
0.06511602784
0.06513763185
0.06514999344
0.06515543515
0.06515620856
0.06515408755
0.06515033251
0.06514578262
0.06514097006
0.06513622002
0.06513173718
0.06512771893
0.06512467011
0.06501461143
0.06502997269
0.06504440656
0.06505687148
0.06506704522
0.06507502679
0.06508110847
0.06508563729
0.0650889438
0.06509131257
0.06509297517
0.06509411347
0.0650948643
0.06509530499
0.06499446394
0.06500209405
0.06501076468
0.06501983272
0.06502877662
0.06503723278
0.0650449832
0.06505192438
0.06505803377
0.06506334069
0.06506790259
0.06507178085
0.06507498954
0.06507729501
0.06499069426
0.06499817855
0.06500723656
0.0650170257
0.06502685366
0.06503623226
0.06504486021
0.06505258323
0.06505935232
0.06506518825
0.06507015373
0.06507433212
0.06507780704
0.06508062056
0.06508260693
0.06501006329
0.0650295838
0.06504787625
0.06506319621
0.06507521128
0.06508422649
0.06509075774
0.06509533412
0.06509842059
0.0651003973
0.06510156298
0.0651021474
0.06510232752
0.06510224958
0.06510207294
0.06510296637
0.06515960797
0.06519071239
0.06520340797
0.06520491056
0.06520026454
0.06519259139
0.06518371028
0.06517463706
0.06516591242
0.06515780305
0.06515042428
0.06514382795
0.06513812632
0.06513389418
0.06560152898
0.06566530575
0.0656109127
0.06553124489
0.06545604832
0.06539274898
0.06534145071
0.06530027579
0.06526714662
0.06524029321
0.06521833083
0.06520021646
0.06518520867
0.0651729599
0.06516420537
0.06729365714
0.06645189409
0.06598931911
0.06572009416
0.06555402417
0.06544567257
0.06537124431
0.06531776001
0.06527783753
0.06524709902
0.06522284782
0.0652034027
0.06518790115
0.06517698246
0.06566530575
0.06561090998
0.06553124275
0.06545604687
0.065392748
0.06534145001
0.06530027526
0.0652671462
0.06524029286
0.06521833052
0.06520021618
0.06518520841
0.06517295965
0.06516420511
0.06515960716
0.06519071116
0.06520340661
0.06520490923
0.06520026329
0.06519259024
0.06518370924
0.06517463611
0.06516591156
0.06515780225
0.06515042354
0.06514382726
0.06513812566
0.06513389355
0.06502958349
0.06504787575
0.06506319554
0.06507521049
0.06508422563
0.06509075684
0.06509533321
0.06509841969
0.06510039641
0.0651015621
0.06510214654
0.06510232668
0.06510224876
0.06510207214
0.06499817846
0.06500723637
0.0650170254
0.06502685325
0.06503623174
0.0650448596
0.06505258254
0.06505935157
0.06506518746
0.06507015291
0.06507433128
0.06507780619
0.0650806197
0.06508260606
0.06498851235
0.064994464
0.06500209416
0.06501076486
0.06501983298
0.06502877695
0.06503723317
0.06504498365
0.06505192487
0.0650580343
0.06506334125
0.06506790315
0.06507178143
0.06507499013
0.0650772956
0.06500030417
0.06501461151
0.06502997283
0.0650444068
0.06505687181
0.06506704562
0.06507502722
0.06508110894
0.06508563777
0.06508894428
0.06509131306
0.06509297566
0.06509411395
0.06509486477
0.06509530546
0.06504426992
0.06508402232
0.06511602796
0.06513763208
0.06514999374
0.06515543549
0.0651562089
0.06515408788
0.06515033282
0.06514578291
0.06514097033
0.06513622029
0.06513173744
0.06512771918
0.06512467034
0.06519258705
0.06528246293
0.06532085992
0.06532553161
0.06531240355
0.06529165604
0.06526890512
0.06524692069
0.06522688606
0.06520916626
0.06519373732
0.06518041712
0.06516900527
0.06515946454
0.06515254078
0.06560152827
0.06566530444
0.06561090877
0.06553124168
0.06545604593
0.06539274719
0.06534144932
0.06530027467
0.06526714569
0.06524029242
0.06521833015
0.06520021586
0.06518520813
0.06517295941
0.06516420491
0.06519258706
0.0652824618
0.06532085864
0.06532553046
0.06531240259
0.06529165524
0.06526890445
0.06524692012
0.06522688556
0.06520916581
0.06519373691
0.06518041675
0.06516900492
0.0651594642
0.06515254046
0.06508402332
0.0651160281
0.06513763174
0.06514999316
0.06515543479
0.06515620816
0.06515408713
0.06515033208
0.0651457822
0.06514096964
0.06513621962
0.0651317368
0.06512771856
0.06512466975
0.06501461176
0.0650299729
0.06504440667
0.06505687151
0.06506704519
0.06507502669
0.06508110833
0.06508563712
0.0650889436
0.06509131235
0.06509297494
0.06509411323
0.06509486405
0.06509530474
0.06499446403
0.06500209413
0.06501076474
0.06501983275
0.06502877661
0.06503723273
0.06504498312
0.06505192428
0.06505803365
0.06506334055
0.06506790242
0.06507178067
0.06507498936
0.06507729482
0.064985555
0.06498917623
0.06499415599
0.06500025402
0.06500711205
0.06501435524
0.06502165596
0.06502876164
0.06503549807
0.06504175937
0.06504749265
0.06505268014
0.06505731319
0.06506132279
0.06506430407
0.06499078595
0.06499846164
0.06500785535
0.06501795417
0.06502790463
0.06503714263
0.0650453773
0.06505251937
0.06505860503
0.06506373591
0.06506803864
0.0650716395
0.06507464536
0.06507710674
0.0650788679
0.06500656994
0.0650252964
0.06504466857
0.06506196558
0.06507594446
0.0650864244
0.06509379302
0.06509865103
0.06510161072
0.06510320416
0.06510385554
0.06510388576
0.06510353253
0.06510298487
0.06510246238
0.06504426997
0.06508402221
0.0651160277
0.0651376317
0.06514999329
0.06515543499
0.06515620839
0.06515408737
0.06515033232
0.06514578244
0.06514096987
0.06513621985
0.06513173702
0.06512771878
0.06512466996
0.06510296625
0.06515960685
0.06519071077
0.06520340624
0.06520490887
0.06520026294
0.06519258992
0.06518370894
0.06517463584
0.06516591131
0.06515780202
0.06515042333
0.06514382707
0.06513812548
0.06513389339
0.06504426971
0.0650840218
0.06511602722
0.06513763121
0.06514999281
0.06515543454
0.06515620797
0.06515408699
0.06515033196
0.0651457821
0.06514096956
0.06513621955
0.06513173673
0.06512771849
0.06512466968
0.06500657027
0.06502529667
0.06504466869
0.06506196554
0.06507594428
0.06508642412
0.06509379266
0.06509865063
0.06510161028
0.0651032037
0.06510385506
0.06510388527
0.06510353205
0.06510298439
0.06510246189
0.06499846195
0.06500785553
0.06501795423
0.06502790458
0.06503714247
0.06504537705
0.06505251904
0.06505860463
0.06506373546
0.06506803815
0.06507163898
0.06507464481
0.06507710618
0.06507886732
0.06498917633
0.06499415607
0.06500025405
0.06500711201
0.06501435513
0.06502165577
0.06502876137
0.06503549772
0.06504175896
0.06504749219
0.06505267962
0.06505731263
0.0650613222
0.06506430345
0.06498355723
0.06498551581
0.0649883843
0.06499216526
0.06499675688
0.06500199052
0.06500766965
0.06501360013
0.06501960915
0.0650255542
0.06503132423
0.06503683352
0.06504199962
0.06504666053
0.06505023096
0.06498559632
0.06498923141
0.06499416526
0.06500012102
0.06500672974
0.06501363218
0.06502053359
0.06502722039
0.06503355455
0.06503945845
0.06504489758
0.06504986298
0.06505434638
0.06505827131
0.06506121721
0.06499078596
0.06499846165
0.06500785534
0.06501795413
0.06502790457
0.06503714254
0.06504537719
0.06505251924
0.06505860487
0.06506373574
0.06506803845
0.0650716393
0.06507464516
0.06507710654
0.06507886769
0.06500030419
0.06501461147
0.0650299727
0.06504440658
0.0650568715
0.06506704524
0.06507502679
0.06508110846
0.06508563727
0.06508894376
0.06509131252
0.06509297512
0.06509411341
0.06509486423
0.06509530492
0.06501006319
0.06502958345
0.06504787569
0.06506319549
0.06507521044
0.06508422558
0.06509075679
0.06509533315
0.06509841963
0.06510039635
0.06510156203
0.06510214648
0.06510232662
0.06510224869
0.06510207206
0.06500030414
0.0650146114
0.0650299726
0.06504440645
0.06505687135
0.06506704507
0.06507502661
0.06508110827
0.06508563706
0.06508894355
0.06509131231
0.0650929749
0.06509411318
0.06509486401
0.0650953047
0.06499078597
0.06499846164
0.06500785529
0.06501795403
0.06502790441
0.06503714233
0.06504537693
0.06505251895
0.06505860455
0.06506373539
0.06506803809
0.06507163892
0.06507464477
0.06507710614
0.06507886728
0.06498559639
0.06498923148
0.06499416531
0.06500012103
0.06500672969
0.06501363207
0.06502053342
0.06502722016
0.06503355427
0.06503945813
0.06504489721
0.06504986258
0.06505434595
0.06505827085
0.06506121673
0.0649855159
0.06498838437
0.06499216531
0.06499675689
0.06500199049
0.06500766957
0.0650136
0.06501960897
0.06502555396
0.06503132394
0.06503683318
0.06504199923
0.0650466601
0.0650502305
0.0649826548
0.06498384024
0.0649856624
0.06498820829
0.06499149635
0.06499547949
0.06500005984
0.06500510809
0.06501048199
0.06501604105
0.06502165579
0.06502720884
0.06503257682
0.06503754166
0.06504141057
0.06498355723
0.06498551582
0.06498838431
0.06499216527
0.06499675688
0.06500199052
0.06500766964
0.06501360012
0.06501960913
0.06502555416
0.06503132419
0.06503683347
0.06504199955
0.06504666045
0.06505023088
0.064985555
0.06498917623
0.06499415597
0.06500025398
0.06500711198
0.06501435514
0.06502165583
0.06502876148
0.06503549787
0.06504175915
0.06504749241
0.06505267987
0.0650573129
0.06506132249
0.06506430376
0.06498851233
0.06499446394
0.06500209403
0.06501076466
0.0650198327
0.0650287766
0.06503723276
0.06504498318
0.06505192436
0.06505803375
0.06506334067
0.06506790256
0.06507178082
0.06507498951
0.06507729497
0.0649906942
0.06499817841
0.06500723631
0.06501702533
0.06502685318
0.06503623168
0.06504485955
0.06505258249
0.06505935153
0.06506518742
0.06507015287
0.06507433124
0.06507780615
0.06508061966
0.06508260602
0.06498851231
0.06499446391
0.06500209399
0.06501076461
0.06501983263
0.06502877652
0.06503723265
0.06504498305
0.06505192422
0.0650580336
0.0650633405
0.06506790238
0.06507178063
0.06507498931
0.06507729477
0.06498555497
0.06498917618
0.0649941559
0.06500025387
0.06500711183
0.06501435495
0.0650216556
0.06502876121
0.06503549757
0.06504175882
0.06504749206
0.06505267951
0.06505731253
0.0650613221
0.06506430337
0.06498355724
0.06498551582
0.0649883843
0.06499216524
0.06499675683
0.06500199043
0.06500766951
0.06501359994
0.06501960891
0.0650255539
0.06503132388
0.06503683313
0.06504199918
0.06504666005
0.06505023046
0.06498265482
0.06498384027
0.06498566243
0.06498820832
0.06499149637
0.06499547949
0.06500005981
0.06500510802
0.06501048188
0.06501604091
0.0650216556
0.0650272086
0.06503257654
0.06503754133
0.06504141021
)
;

boundaryField
{
    top
    {
        type            zeroGradient;
    }
    bottom
    {
        type            zeroGradient;
    }
    side-walls
    {
        type            zeroGradient;
    }
    inlet
    {
        type            zeroGradient;
    }
    outlet
    {
        type            zeroGradient;
    }
    procBoundary1to0
    {
        type            processor;
        value           nonuniform List<scalar> 
97
(
0.06498265483
0.06498265483
0.06498355726
0.06498555499
0.06498851227
0.06499069412
0.06498851222
0.06498555491
0.06498355719
0.06498265478
0.06498238482
0.06498559643
0.06498559643
0.06498559643
0.06499078603
0.06500030409
0.06501006293
0.06500030386
0.06499078578
0.06498559625
0.0649835572
0.06498330138
0.06498562635
0.06500657055
0.06500657055
0.06500657055
0.06504427011
0.0651029652
0.06504426881
0.06500656947
0.06499078578
0.06498555492
0.06498462538
0.06498966996
0.06500704733
0.06519259127
0.06519259127
0.06519259127
0.0656015255
0.06519258424
0.06504426891
0.06500030382
0.06498851221
0.0649855555
0.06499341872
0.06502596832
0.06515249517
0.06891475446
0.06891475446
0.06891475446
0.0656015249
0.0656015249
0.06510296493
0.06501006277
0.06499069407
0.06498462538
0.06498966987
0.06500704704
0.06505671568
0.06515249507
0.06505671536
0.06504427048
0.06504427048
0.06504427048
0.06500030413
0.06498851228
0.06498330136
0.0649856263
0.06499234501
0.06500704711
0.06502596838
0.06500704699
0.06499234505
0.0649907861
0.0649907861
0.0649907861
0.06498555501
0.0649823848
0.06498331517
0.06498562631
0.0649896699
0.06499341872
0.06498966988
0.06498562629
0.06498331517
0.06498355727
0.06498355727
0.06498355727
0.06498196524
0.06498238481
0.06498330137
0.06498462538
0.0649855555
0.06498462537
0.06498330135
0.06498238481
0.06498196525
)
;
    }
}


// ************************************************************************* //
