/*--------------------------------*- C++ -*----------------------------------*\
| =========                 |                                                 |
| \\      /  F ield         | OpenFOAM: The Open Source CFD Toolbox           |
|  \\    /   O peration     | Version:  4.x                                   |
|   \\  /    A nd           | Web:      www.OpenFOAM.org                      |
|    \\/     M anipulation  |                                                 |
\*---------------------------------------------------------------------------*/
FoamFile
{
    version     2.0;
    format      ascii;
    class       volScalarField;
    location    "6000";
    object      H2;
}
// * * * * * * * * * * * * * * * * * * * * * * * * * * * * * * * * * * * * * //

dimensions      [0 0 0 0 0 0 0];

internalField   nonuniform List<scalar> 
1174
(
0.004463695775
0.004463602975
0.004463473329
0.004463305907
0.004463103119
0.00446286996
0.004462613026
0.004462339567
0.004462056743
0.004461771149
0.004461488759
0.004461215849
0.004460963495
0.004460766882
0.004463610401
0.004463464293
0.00446327173
0.004463037911
0.00446277144
0.004462482337
0.004462180499
0.004461874731
0.004461572291
0.004461278833
0.004460998717
0.004460736131
0.004460499294
0.00446031791
0.00446342388
0.004463170201
0.004462859597
0.004462510338
0.004462141532
0.004461769878
0.004461408241
0.004461065495
0.004460747025
0.004460455517
0.004460191866
0.004459956498
0.004459752892
0.004459601558
0.004463154406
0.004462765678
0.004462324008
0.004461862181
0.004461406779
0.004460976326
0.004460581919
0.004460228821
0.004459918169
0.004459648456
0.004459416742
0.004459219882
0.004459057123
0.004458940249
0.004462965082
0.004462503595
0.00446200495
0.004461504433
0.004461026921
0.004460587758
0.004460194791
0.004459850503
0.004459553821
0.004459301537
0.00445908939
0.004458913102
0.004458770494
0.00445866989
0.00446315441
0.004462765684
0.004462324015
0.00446186219
0.004461406789
0.004460976337
0.004460581931
0.004460228834
0.004459918182
0.00445964847
0.004459416756
0.004459219896
0.004459057138
0.004458940264
0.004463423886
0.00446317021
0.004462859608
0.004462510352
0.004462141548
0.004461769896
0.004461408261
0.004461065516
0.004460747047
0.004460455541
0.004460191891
0.004459956523
0.004459752918
0.004459601584
0.004463610406
0.0044634643
0.004463271739
0.004463037923
0.004462771454
0.004462482354
0.004462180519
0.004461874753
0.004461572316
0.00446127886
0.004460998746
0.004460736161
0.004460499325
0.004460317942
0.004463695779
0.00446360298
0.004463473335
0.004463305915
0.004463103129
0.004462869973
0.004462613042
0.004462339586
0.004462056764
0.004461771173
0.004461488786
0.004461215878
0.004460963526
0.004460766915
0.004463710171
0.004463610402
0.004463464294
0.00446327173
0.004463037911
0.00446277144
0.004462482338
0.0044621805
0.004461874731
0.004461572292
0.004461278834
0.004460998718
0.004460736132
0.004460499294
0.00446031791
0.004463421053
0.00446316971
0.004462866348
0.004462529784
0.004462178331
0.00446182701
0.004461486702
0.004461164434
0.004460864156
0.004460587616
0.004460335262
0.0044601075
0.004459908193
0.00445975865
0.004462950639
0.004462472035
0.004461957595
0.004461450823
0.004460980461
0.004460561321
0.004460197937
0.004459888452
0.00445962767
0.004459409129
0.004459226381
0.004459073966
0.004458949275
0.004458860126
0.004462127475
0.004461344764
0.004460609472
0.004459974671
0.004459456759
0.004459050659
0.004458741448
0.004458511417
0.004458343705
0.004458223797
0.004458139882
0.00445808268
0.004458045185
0.004458023341
0.00446136424
0.004460432171
0.004459651797
0.004459040019
0.004458581244
0.004458249139
0.004458016711
0.004457860241
0.00445776034
0.004457701775
0.004457672826
0.004457664467
0.004457669215
0.004457678834
0.004462127491
0.004461344783
0.004460609493
0.004459974694
0.004459456782
0.004459050681
0.004458741469
0.004458511438
0.004458343726
0.004458223817
0.004458139902
0.004458082699
0.004458045203
0.004458023359
0.004462950657
0.004462472057
0.004461957621
0.004461450851
0.004460980491
0.004460561352
0.00446019797
0.004459888485
0.004459627703
0.004459409162
0.004459226413
0.004459073998
0.004458949307
0.004458860158
0.004463421065
0.004463169723
0.004462866364
0.004462529803
0.004462178353
0.004461827034
0.004461486729
0.004461164464
0.004460864187
0.004460587649
0.004460335296
0.004460107536
0.00445990823
0.004459758688
0.004463610406
0.0044634643
0.004463271739
0.004463037922
0.004462771454
0.004462482355
0.00446218052
0.004461874755
0.004461572318
0.004461278863
0.004460998749
0.004460736166
0.00446049933
0.004460317949
0.004463608371
0.00446342388
0.004463170202
0.004462859598
0.004462510339
0.004462141533
0.004461769879
0.004461408242
0.004461065496
0.004460747026
0.004460455518
0.004460191867
0.004459956499
0.004459752893
0.004459601559
0.004463341761
0.004462950639
0.004462472035
0.004461957595
0.004461450822
0.00446098046
0.00446056132
0.004460197937
0.004459888451
0.00445962767
0.004459409129
0.004459226381
0.004459073966
0.004458949275
0.004458860126
0.004461582815
0.00446059571
0.004459714554
0.004459002671
0.004458469236
0.004458094453
0.004457847671
0.004457697661
0.004457617289
0.004457584926
0.004457584211
0.004457603019
0.004457631692
0.004457658925
0.004458589127
0.00445695823
0.004455857822
0.004455228697
0.004454952366
0.004454913995
0.00445502313
0.004455215508
0.004455448349
0.004455694532
0.004455937483
0.004456166772
0.004456372318
0.004456528294
0.004454735546
0.004453150853
0.004452504878
0.004452429558
0.004452667641
0.004453059956
0.004453513757
0.004453977263
0.004454422924
0.004454837156
0.004455214092
0.004455551095
0.004455842428
0.004456058703
0.004458589201
0.004456958305
0.004455857893
0.00445522876
0.004454952421
0.004454914043
0.004455023171
0.004455215544
0.004455448381
0.004455694561
0.004455937509
0.004456166796
0.004456372341
0.004456528316
0.004461582876
0.004460595771
0.004459714616
0.004459002732
0.004458469296
0.00445809451
0.004457847725
0.004457697712
0.004457617336
0.004457584971
0.004457584254
0.00445760306
0.004457631731
0.004457658963
0.004462950657
0.004462472059
0.004461957624
0.004461450856
0.004460980498
0.00446056136
0.004460197979
0.004459888495
0.004459627715
0.004459409174
0.004459226426
0.004459074011
0.004458949321
0.004458860172
0.004463423886
0.004463170211
0.004462859611
0.004462510356
0.004462141554
0.004461769904
0.004461408272
0.004461065529
0.004460747062
0.004460455556
0.004460191908
0.004459956542
0.004459752937
0.004459601605
0.004463457656
0.004463154407
0.004462765681
0.00446232401
0.004461862184
0.004461406781
0.004460976328
0.004460581921
0.004460228823
0.004459918171
0.004459648457
0.004459416743
0.004459219884
0.004459057125
0.004458940251
0.0044628566
0.004462127472
0.004461344763
0.00446060947
0.004459974669
0.004459456757
0.004459050657
0.004458741446
0.004458511416
0.004458343705
0.004458223797
0.004458139883
0.00445808268
0.004458045186
0.004458023342
0.00446061525
0.004458589123
0.004456958229
0.004455857823
0.004455228698
0.004454952368
0.004454913999
0.004455023134
0.004455215512
0.004455448354
0.004455694536
0.004455937487
0.004456166776
0.004456372322
0.004456528297
0.004448471886
0.004446515941
0.004446279556
0.004446950537
0.004448009773
0.004449170933
0.004450292829
0.004451315169
0.00445221938
0.004453006711
0.004453686472
0.004454268891
0.004454755862
0.00445510929
0.00442895128
0.004431727645
0.004435792157
0.004439628108
0.00444285699
0.004445473641
0.004447573905
0.004449263785
0.004450633581
0.004451753928
0.004452678033
0.004453443712
0.004454068682
0.004454515399
0.004448472149
0.004446516131
0.004446279693
0.004446950636
0.004448009842
0.004449170982
0.004450292865
0.004451315197
0.004452219402
0.00445300673
0.004453686489
0.004454268908
0.004454755878
0.004455109307
0.004458589198
0.004456958315
0.004455857911
0.004455228783
0.004454952448
0.004454914073
0.004455023201
0.004455215573
0.00445544841
0.004455694588
0.004455937536
0.004456166822
0.004456372366
0.00445652834
0.004462127495
0.004461344795
0.004460609511
0.004459974717
0.004459456809
0.004459050712
0.004458741502
0.004458511473
0.004458343761
0.004458223853
0.004458139937
0.004458082734
0.004458045238
0.004458023394
0.004463154412
0.00446276569
0.004462324025
0.004461862204
0.004461406808
0.00446097636
0.004460581958
0.004460228864
0.004459918215
0.004459648504
0.004459416792
0.004459219934
0.004459057177
0.004458940305
0.004463346445
0.004462965084
0.0044625036
0.004462004954
0.004461504437
0.004461026925
0.004460587761
0.004460194794
0.004459850506
0.004459553824
0.00445930154
0.004459089392
0.004458913105
0.004458770497
0.004458669892
0.004462359096
0.004461364245
0.004460432181
0.004459651807
0.004459040028
0.004458581251
0.004458249146
0.004458016717
0.004457860246
0.004457760345
0.004457701779
0.004457672831
0.004457664471
0.004457669219
0.004457678838
0.004457622588
0.004454735546
0.004453150874
0.004452504898
0.004452429575
0.004452667654
0.004453059967
0.004453513766
0.004453977272
0.004454422931
0.004454837163
0.004455214099
0.004455551101
0.004455842434
0.004456058708
0.004432200488
0.004428951343
0.004431727693
0.004435792193
0.004439628137
0.004442857014
0.004445473661
0.004447573922
0.004449263799
0.004450633592
0.004451753939
0.004452678042
0.00445344372
0.004454068689
0.004454515405
0.004345916627
0.004388846551
0.004412437212
0.004426167004
0.004434636038
0.004440161592
0.00444395719
0.004446684752
0.004448720745
0.004450288423
0.004451525304
0.004452517121
0.004453307848
0.00445386484
0.004428951325
0.004431727816
0.004435792301
0.004439628218
0.004442857074
0.004445473708
0.004447573959
0.004449263831
0.00445063362
0.004451753963
0.004452678065
0.004453443741
0.004454068709
0.004454515425
0.004454735575
0.004453150932
0.004452504968
0.004452429648
0.004452667726
0.004453060036
0.004453513831
0.004453977332
0.004454422988
0.004454837216
0.004455214148
0.004455551148
0.004455842479
0.004456058751
0.004461364256
0.004460432204
0.004459651842
0.004459040071
0.0044585813
0.004458249199
0.004458016772
0.004457860302
0.004457760401
0.004457701835
0.004457672886
0.004457664526
0.004457669273
0.004457678891
0.004462965087
0.004462503608
0.004462004969
0.004461504459
0.004461026954
0.004460587796
0.004460194835
0.004459850551
0.004459553872
0.004459301591
0.004459089445
0.004458913159
0.004458770553
0.00445866995
0.004463457658
0.00446315441
0.004462765685
0.004462324017
0.004461862191
0.00446140679
0.004460976337
0.004460581932
0.004460228835
0.004459918183
0.00445964847
0.004459416757
0.004459219898
0.004459057139
0.004458940266
0.004462856613
0.004462127494
0.004461344789
0.004460609499
0.0044599747
0.004459456787
0.004459050687
0.004458741475
0.004458511443
0.004458343731
0.004458223822
0.004458139906
0.004458082703
0.004458045208
0.004458023363
0.004460615321
0.0044585892
0.004456958312
0.0044558579
0.004455228767
0.004454952429
0.004454914052
0.00445502318
0.004455215553
0.004455448391
0.00445569457
0.004455937518
0.004456166804
0.004456372349
0.004456528323
0.004453053307
0.004448472146
0.004446516148
0.004446279715
0.004446950661
0.00444800987
0.004449171012
0.004450292894
0.004451315224
0.004452219427
0.004453006752
0.004453686508
0.004454268925
0.004454755893
0.00445510932
0.004432200524
0.004428951406
0.004431727885
0.00443579236
0.004439628268
0.004442857117
0.004445473745
0.004447573991
0.004449263858
0.004450633643
0.004451753983
0.004452678082
0.004453443756
0.004454068722
0.004454515436
0.004453053303
0.004448472197
0.004446516213
0.004446279779
0.004446950719
0.004448009921
0.004449171056
0.004450292933
0.00445131526
0.004452219459
0.004453006782
0.004453686536
0.004454268951
0.004454755918
0.004455109344
0.004458589146
0.004456958305
0.004455857921
0.004455228804
0.004454952474
0.004454914101
0.00445502323
0.004455215603
0.00445544844
0.004455694617
0.004455937564
0.004456166848
0.004456372391
0.004456528365
0.004462127479
0.004461344785
0.004460609507
0.004459974718
0.004459456815
0.004459050721
0.004458741514
0.004458511486
0.004458343776
0.004458223869
0.004458139954
0.004458082752
0.004458045256
0.004458023413
0.004463154408
0.004462765686
0.004462324023
0.004461862205
0.00446140681
0.004460976364
0.004460581964
0.004460228872
0.004459918225
0.004459648516
0.004459416805
0.004459219948
0.004459057191
0.004458940319
0.004463608374
0.004463423886
0.004463170211
0.004462859609
0.004462510352
0.004462141549
0.004461769896
0.004461408262
0.004461065517
0.004460747048
0.004460455541
0.004460191892
0.004459956525
0.004459752919
0.004459601586
0.004463341774
0.004462950658
0.004462472059
0.004461957623
0.004461450853
0.004460980493
0.004460561354
0.004460197972
0.004459888487
0.004459627705
0.004459409164
0.004459226416
0.004459074001
0.00445894931
0.004458860161
0.004462537233
0.004461582877
0.004460595775
0.004459714619
0.004459002736
0.0044584693
0.004458094514
0.00445784773
0.004457697717
0.004457617342
0.004457584977
0.004457584259
0.004457603066
0.004457631736
0.004457658969
0.004460615317
0.004458589204
0.004456958325
0.004455857921
0.004455228793
0.004454952458
0.004454914083
0.004455023212
0.004455215584
0.004455448421
0.004455694599
0.004455937546
0.004456166831
0.004456372374
0.004456528348
0.004457622591
0.004454735599
0.004453150957
0.004452504991
0.00445242967
0.004452667747
0.004453060054
0.004453513848
0.004453977347
0.004454423002
0.004454837229
0.00445521416
0.004455551159
0.004455842488
0.00445605876
0.00446061533
0.004458589226
0.004456958352
0.00445585795
0.004455228823
0.004454952487
0.004454914111
0.004455023239
0.00445521561
0.004455448445
0.004455694622
0.004455937568
0.004456166852
0.004456372395
0.004456528368
0.004462537216
0.004461582864
0.004460595771
0.004459714625
0.00445900275
0.004458469321
0.00445809454
0.00445784776
0.004457697749
0.004457617375
0.004457585011
0.004457584294
0.004457603101
0.004457631771
0.004457659004
0.004462950642
0.004462472051
0.004461957622
0.004461450859
0.004460980505
0.004460561373
0.004460197995
0.004459888515
0.004459627737
0.004459409198
0.004459226452
0.004459074039
0.00445894935
0.004458860202
0.00446342388
0.004463170206
0.004462859608
0.004462510355
0.004462141557
0.00446176991
0.004461408281
0.004461065541
0.004460747076
0.004460455574
0.004460191928
0.004459956564
0.004459752961
0.00445960163
0.004463710174
0.004463610407
0.004463464301
0.004463271741
0.004463037924
0.004462771456
0.004462482356
0.004462180521
0.004461874755
0.004461572318
0.004461278862
0.004460998748
0.004460736164
0.004460499328
0.004460317945
0.004463606264
0.004463421066
0.004463169725
0.004462866366
0.004462529805
0.004462178355
0.004461827037
0.004461486731
0.004461164466
0.00446086419
0.004460587652
0.004460335299
0.004460107539
0.004459908233
0.004459758691
0.004463341773
0.004462950658
0.00446247206
0.004461957625
0.004461450857
0.004460980498
0.004460561361
0.00446019798
0.004459888497
0.004459627716
0.004459409176
0.004459226428
0.004459074014
0.004458949323
0.004458860175
0.004462856611
0.004462127495
0.004461344796
0.004460609512
0.004459974718
0.00445945681
0.004459050713
0.004458741504
0.004458511475
0.004458343764
0.004458223856
0.004458139941
0.004458082738
0.004458045243
0.004458023399
0.0044623591
0.004461364261
0.00446043221
0.004459651847
0.004459040075
0.004458581304
0.004458249203
0.004458016776
0.004457860306
0.004457760405
0.004457701839
0.00445767289
0.00445766453
0.004457669277
0.004457678896
0.004462856614
0.0044621275
0.004461344802
0.00446060952
0.004459974728
0.004459456822
0.004459050727
0.004458741518
0.00445851149
0.004458343779
0.004458223872
0.004458139957
0.004458082754
0.004458045259
0.004458023415
0.004463341773
0.004462950658
0.004462472064
0.004461957632
0.004461450868
0.004460980513
0.004460561379
0.004460198001
0.004459888519
0.004459627741
0.004459409202
0.004459226456
0.004459074042
0.004458949352
0.004458860204
0.00446360626
0.004463421062
0.004463169723
0.004462866367
0.00446252981
0.004462178363
0.004461827049
0.004461486747
0.004461164486
0.004460864213
0.004460587677
0.004460335328
0.00446010757
0.004459908265
0.004459758725
0.004463610402
0.004463464298
0.004463271739
0.004463037925
0.004462771459
0.004462482363
0.004462180531
0.004461874769
0.004461572336
0.004461278884
0.004460998774
0.004460736193
0.00446049936
0.00446031798
0.004463756155
0.004463695779
0.004463602981
0.004463473337
0.004463305917
0.004463103132
0.004462869976
0.004462613045
0.004462339589
0.004462056768
0.004461771177
0.00446148879
0.004461215882
0.00446096353
0.004460766919
0.004463710174
0.004463610407
0.004463464301
0.00446327174
0.004463037924
0.004462771456
0.004462482357
0.004462180522
0.004461874757
0.00446157232
0.004461278865
0.004460998752
0.004460736169
0.004460499334
0.004460317952
0.004463608374
0.004463423886
0.004463170212
0.004462859611
0.004462510356
0.004462141555
0.004461769904
0.004461408272
0.004461065529
0.004460747062
0.004460455557
0.004460191909
0.004459956543
0.004459752939
0.004459601607
0.004463457658
0.004463154413
0.004462765692
0.004462324027
0.004461862207
0.00446140681
0.004460976362
0.00446058196
0.004460228866
0.004459918217
0.004459648507
0.004459416795
0.004459219937
0.00445905718
0.004458940308
0.004463346447
0.004462965091
0.004462503613
0.004462004974
0.004461504464
0.004461026959
0.0044605878
0.004460194838
0.004459850554
0.004459553875
0.004459301594
0.004459089449
0.004458913163
0.004458770556
0.004458669953
0.00446345766
0.004463154415
0.004462765694
0.004462324031
0.004461862212
0.004461406817
0.00446097637
0.004460581969
0.004460228876
0.004459918229
0.004459648519
0.004459416808
0.004459219951
0.004459057194
0.004458940322
0.004463608376
0.004463423889
0.004463170216
0.004462859618
0.004462510365
0.004462141567
0.004461769919
0.004461408289
0.004461065549
0.004460747084
0.004460455581
0.004460191934
0.004459956569
0.004459752966
0.004459601635
0.004463710174
0.004463610407
0.004463464302
0.004463271742
0.004463037928
0.004462771463
0.004462482366
0.004462180534
0.004461874772
0.004461572339
0.004461278887
0.004460998776
0.004460736195
0.004460499362
0.004460317982
0.004463756154
0.004463695778
0.00446360298
0.004463473335
0.004463305917
0.004463103133
0.004462869979
0.004462613051
0.004462339599
0.00446205678
0.004461771192
0.004461488809
0.004461215904
0.004460963556
0.004460766948
)
;

boundaryField
{
    top
    {
        type            zeroGradient;
    }
    bottom
    {
        type            zeroGradient;
    }
    side-walls
    {
        type            zeroGradient;
    }
    inlet
    {
        type            zeroGradient;
    }
    outlet
    {
        type            zeroGradient;
    }
    procBoundary1to0
    {
        type            processor;
        value           nonuniform List<scalar> 
97
(
0.004463756153
0.004463756153
0.004463710173
0.004463608375
0.004463457662
0.004463346453
0.004463457665
0.004463608379
0.004463710177
0.004463756156
0.004463769898
0.004463606258
0.004463606258
0.004463606258
0.004463341771
0.004462856619
0.004462359118
0.00446285663
0.004463341784
0.004463606268
0.004463710176
0.004463723194
0.004463604703
0.004462537203
0.004462537203
0.004462537203
0.004460615318
0.00445762267
0.004460615384
0.004462537259
0.004463341784
0.004463608379
0.00446365572
0.004463398599
0.00446251277
0.004453053121
0.004453053121
0.004453053121
0.004432200857
0.004453053488
0.004460615379
0.004462856632
0.004463457666
0.004463608312
0.004463207495
0.004461548102
0.004455096863
0.004263239623
0.004263239623
0.004263239623
0.004432200882
0.004432200882
0.004457622683
0.004462359125
0.004463346455
0.00446365572
0.004463398602
0.00446251278
0.004459980537
0.004455096858
0.004459980558
0.004460615293
0.004460615293
0.004460615293
0.004462856615
0.004463457662
0.004463723195
0.004463604705
0.004463262248
0.004462512777
0.004461548097
0.004462512784
0.004463262247
0.004463341767
0.004463341767
0.004463341767
0.004463608374
0.004463769899
0.004463722489
0.004463604704
0.004463398601
0.004463207495
0.004463398602
0.004463604705
0.004463722489
0.004463710172
0.004463710172
0.004463710172
0.004463791276
0.004463769899
0.004463723195
0.00446365572
0.004463608313
0.00446365572
0.004463723195
0.004463769899
0.004463791276
)
;
    }
}


// ************************************************************************* //
