/*--------------------------------*- C++ -*----------------------------------*\
| =========                 |                                                 |
| \\      /  F ield         | OpenFOAM: The Open Source CFD Toolbox           |
|  \\    /   O peration     | Version:  4.x                                   |
|   \\  /    A nd           | Web:      www.OpenFOAM.org                      |
|    \\/     M anipulation  |                                                 |
\*---------------------------------------------------------------------------*/
FoamFile
{
    version     2.0;
    format      ascii;
    class       volScalarField;
    location    "6000";
    object      H2O;
}
// * * * * * * * * * * * * * * * * * * * * * * * * * * * * * * * * * * * * * //

dimensions      [0 0 0 0 0 0 0];

internalField   nonuniform List<scalar> 
1174
(
1.106159792e-05
1.183448464e-05
1.291425592e-05
1.430865711e-05
1.599763597e-05
1.793961068e-05
2.007967011e-05
2.235743436e-05
2.471329154e-05
2.709231267e-05
2.944473084e-05
3.171828414e-05
3.382067539e-05
3.545872995e-05
1.17726402e-05
1.298946594e-05
1.459319495e-05
1.654054796e-05
1.87598958e-05
2.116780445e-05
2.368187306e-05
2.622878323e-05
2.874806907e-05
3.119265676e-05
3.352622161e-05
3.571386923e-05
3.768709839e-05
3.919834347e-05
1.332599535e-05
1.543860252e-05
1.80253168e-05
2.093402539e-05
2.400561774e-05
2.710105483e-05
3.011319597e-05
3.296814083e-05
3.562103321e-05
3.80494939e-05
4.024603674e-05
4.220711379e-05
4.390367204e-05
4.516472398e-05
1.557002357e-05
1.880718679e-05
2.248532753e-05
2.633145514e-05
3.012423609e-05
3.370940039e-05
3.699453108e-05
3.993578047e-05
4.252367403e-05
4.477072905e-05
4.670141386e-05
4.83418787e-05
4.969834173e-05
5.067245135e-05
1.714647797e-05
2.098947716e-05
2.514206363e-05
2.931039571e-05
3.328732218e-05
3.694506346e-05
4.02182405e-05
4.308617332e-05
4.555776199e-05
4.765971309e-05
4.942747673e-05
5.08966501e-05
5.208531851e-05
5.292395477e-05
1.556995812e-05
1.880708996e-05
2.24851982e-05
2.633128331e-05
3.012401652e-05
3.370913519e-05
3.699421577e-05
3.993542222e-05
4.25232682e-05
4.477027872e-05
4.670091026e-05
4.834133871e-05
4.969776927e-05
5.067184988e-05
1.332589538e-05
1.543846688e-05
1.802513969e-05
2.09337954e-05
2.40053223e-05
2.710068321e-05
3.011273775e-05
3.296759897e-05
3.562040835e-05
3.80487751e-05
4.024524288e-05
4.220624166e-05
4.390273157e-05
4.516371294e-05
1.177255415e-05
1.298935864e-05
1.459305846e-05
1.654036363e-05
1.875965227e-05
2.116748236e-05
2.368145688e-05
2.622825758e-05
2.874743487e-05
3.119190825e-05
3.352535866e-05
3.571289521e-05
3.768600968e-05
3.919715876e-05
1.10615373e-05
1.183441917e-05
1.291417279e-05
1.430854111e-05
1.599747063e-05
1.793937629e-05
2.007934244e-05
2.235699741e-05
2.471273494e-05
2.709162251e-05
2.944390196e-05
3.171731396e-05
3.381956058e-05
3.545746363e-05
1.094166892e-05
1.177258858e-05
1.298941821e-05
1.459314724e-05
1.654049987e-05
1.875985016e-05
2.116776051e-05
2.368183039e-05
2.622873812e-05
2.874802403e-05
3.119261102e-05
3.352617681e-05
3.571382373e-05
3.768705468e-05
3.919830102e-05
1.334957121e-05
1.544269806e-05
1.796908404e-05
2.077206624e-05
2.369915788e-05
2.662527588e-05
2.945980097e-05
3.214420933e-05
3.464560861e-05
3.694941193e-05
3.905187439e-05
4.094959268e-05
4.261034474e-05
4.38564433e-05
1.726700531e-05
2.125252455e-05
2.553659824e-05
2.975700446e-05
3.36743881e-05
3.716539722e-05
4.019223814e-05
4.277036451e-05
4.49430114e-05
4.676398143e-05
4.828692438e-05
4.955730001e-05
5.059676378e-05
5.133996989e-05
2.412142162e-05
3.063915668e-05
3.67623166e-05
4.204893285e-05
4.636244255e-05
4.974505125e-05
5.232099158e-05
5.423765987e-05
5.563545558e-05
5.663520453e-05
5.733525775e-05
5.781284971e-05
5.812626711e-05
5.830902981e-05
3.047622848e-05
3.823762076e-05
4.473626823e-05
4.983133103e-05
5.365256005e-05
5.641914126e-05
5.835580942e-05
5.966003425e-05
6.049322793e-05
6.098223373e-05
6.122461119e-05
6.129551344e-05
6.125717755e-05
6.117795151e-05
2.412116252e-05
3.063884375e-05
3.676194553e-05
4.204850385e-05
4.636194859e-05
4.974450694e-05
5.232039563e-05
5.423702181e-05
5.563478112e-05
5.663450114e-05
5.73345263e-05
5.781210758e-05
5.812551e-05
5.830824703e-05
1.726670154e-05
2.125218158e-05
2.553619412e-05
2.975651601e-05
3.36737988e-05
3.716470086e-05
4.019143478e-05
4.276947296e-05
4.494202722e-05
4.676291776e-05
4.828580106e-05
4.955611572e-05
5.059552127e-05
5.133868081e-05
1.334938708e-05
1.54425123e-05
1.796885269e-05
2.077175742e-05
2.369874619e-05
2.662474401e-05
2.945913945e-05
3.214341489e-05
3.464468262e-05
3.694835792e-05
3.905070279e-05
4.094830995e-05
4.260895473e-05
4.385495892e-05
1.177256376e-05
1.298936725e-05
1.459305525e-05
1.654034329e-05
1.875960209e-05
2.116739956e-05
2.368133728e-05
2.622809564e-05
2.874722586e-05
3.119165554e-05
3.352506337e-05
3.571255014e-05
3.768561945e-05
3.919671038e-05
1.178945204e-05
1.332586996e-05
1.543846942e-05
1.802518132e-05
2.093388859e-05
2.400548402e-05
2.71009212e-05
3.011305985e-05
3.296801161e-05
3.562090709e-05
3.804936805e-05
4.024591373e-05
4.220699018e-05
4.390355454e-05
4.516460962e-05
1.400985347e-05
1.726684069e-05
2.125238742e-05
2.553648032e-05
2.975689783e-05
3.367429001e-05
3.716529536e-05
4.0192144e-05
4.277027941e-05
4.494292587e-05
4.676389694e-05
4.828684953e-05
4.95572329e-05
5.059669071e-05
5.133989647e-05
2.865716802e-05
3.687662151e-05
4.42142837e-05
5.014277452e-05
5.458560463e-05
5.770753678e-05
5.976370962e-05
6.101414481e-05
6.168473054e-05
6.195555378e-05
6.196282907e-05
6.180750018e-05
6.156994573e-05
6.134404115e-05
5.358413752e-05
6.7164059e-05
7.632755825e-05
8.156735296e-05
8.386980398e-05
8.419092128e-05
8.328382406e-05
8.168353968e-05
7.974627219e-05
7.769784633e-05
7.567625194e-05
7.376834933e-05
7.205801512e-05
7.076007249e-05
8.566788401e-05
9.886366629e-05
0.0001042441648
0.0001048733717
0.0001028930545
9.962840931e-05
9.585168623e-05
9.199400104e-05
8.828479235e-05
8.483715475e-05
8.169997226e-05
7.889518631e-05
7.647054337e-05
7.467051011e-05
5.358289292e-05
6.716284681e-05
7.632634611e-05
8.156612928e-05
8.386856199e-05
8.418968452e-05
8.328260485e-05
8.168234047e-05
7.974509367e-05
7.769669902e-05
7.567513227e-05
7.376725059e-05
7.205693463e-05
7.075900015e-05
2.865621641e-05
3.687573253e-05
4.421330769e-05
5.014165746e-05
5.458434149e-05
5.77061377e-05
5.976221376e-05
6.101257019e-05
6.168310249e-05
6.195387886e-05
6.196113143e-05
6.180579055e-05
6.156822506e-05
6.13422992e-05
1.726671141e-05
2.125214827e-05
2.553609198e-05
2.975632819e-05
3.367352002e-05
3.716433678e-05
4.019099595e-05
4.276896176e-05
4.494145792e-05
4.676229389e-05
4.828513584e-05
4.955541787e-05
5.059479244e-05
5.13379172e-05
1.332591134e-05
1.543845567e-05
1.802507246e-05
2.093364421e-05
2.400507256e-05
2.710032303e-05
3.011225552e-05
3.296699718e-05
3.561969215e-05
3.804795671e-05
4.02443238e-05
4.220523507e-05
4.390164085e-05
4.516252502e-05
1.304453185e-05
1.55698157e-05
1.880695927e-05
2.248508385e-05
2.633120322e-05
3.012397741e-05
3.370914736e-05
3.699427809e-05
3.993554352e-05
4.252343425e-05
4.477049806e-05
4.67011854e-05
4.834165274e-05
4.969812236e-05
5.067223973e-05
1.804970478e-05
2.412108295e-05
3.063884041e-05
3.676201734e-05
4.204866048e-05
4.636218195e-05
4.974480522e-05
5.232075789e-05
5.423743823e-05
5.563524069e-05
5.663499807e-05
5.733506222e-05
5.781266336e-05
5.812608336e-05
5.830885445e-05
3.671342824e-05
5.358346898e-05
6.71635718e-05
7.632717226e-05
8.156702521e-05
8.38695067e-05
8.419065297e-05
8.328358644e-05
8.168331806e-05
7.974607057e-05
7.769766333e-05
7.567608537e-05
7.376819713e-05
7.205786485e-05
7.075993895e-05
0.0001378221658
0.0001541079081
0.0001560780942
0.0001504938133
0.0001416768221
0.0001320109349
0.0001226716972
0.0001141611666
0.0001066340098
0.0001000798661
9.442125688e-05
8.957301484e-05
8.551936086e-05
8.257727051e-05
0.000300339415
0.0002772288104
0.0002433929701
0.0002114590354
0.0001845785936
0.0001627948425
0.0001453100314
0.0001312416942
0.0001198381425
0.0001105113116
0.0001028182707
9.644417704e-05
9.124151115e-05
8.752264946e-05
0.0001378178261
0.000154104719
0.0001560753382
0.0001504913304
0.0001416745278
0.0001320088432
0.0001226697757
0.0001141593904
0.0001066323664
0.0001000783187
9.44197879e-05
8.957162939e-05
8.551803043e-05
8.257596947e-05
5.358300595e-05
6.716254745e-05
7.632565075e-05
8.156513051e-05
8.386734433e-05
8.418833804e-05
8.328119272e-05
8.168091347e-05
7.974368246e-05
7.769530446e-05
7.567376971e-05
7.376593005e-05
7.205564596e-05
7.075773933e-05
2.412117122e-05
3.063863506e-05
3.676145888e-05
4.204773883e-05
4.636093034e-05
4.974326799e-05
5.231898426e-05
5.42354771e-05
5.563312863e-05
5.663278407e-05
5.733274989e-05
5.781029504e-05
5.812366173e-05
5.830636815e-05
1.556997671e-05
1.8807014e-05
2.248496156e-05
2.633084397e-05
3.012334979e-05
3.370823708e-05
3.699309223e-05
3.993408594e-05
4.252173706e-05
4.476857794e-05
4.669907283e-05
4.833937847e-05
4.969569365e-05
5.066964235e-05
1.397058055e-05
1.714623406e-05
2.098919312e-05
2.514174915e-05
2.931006291e-05
3.328697637e-05
3.694471445e-05
4.021789856e-05
4.308583257e-05
4.555742475e-05
4.765937419e-05
4.942715143e-05
5.089633601e-05
5.20850144e-05
5.292364945e-05
2.21919623e-05
3.047571869e-05
3.823708029e-05
4.473572393e-05
4.983080521e-05
5.365206062e-05
5.641867654e-05
5.83553751e-05
5.96596289e-05
6.049283581e-05
6.098187252e-05
6.122426626e-05
6.129517997e-05
6.125686333e-05
6.117764305e-05
6.162870474e-05
8.566671365e-05
9.88625363e-05
0.0001042431675
0.0001048725167
0.0001028923315
9.962779694e-05
9.58511541e-05
9.199353721e-05
8.82843774e-05
8.483678625e-05
8.16996341e-05
7.889488021e-05
7.647025136e-05
7.467023523e-05
0.0002732834032
0.0003003357972
0.0002772265655
0.0002433914464
0.000211457932
0.0001845777571
0.0001627941825
0.0001453095114
0.0001312412765
0.0001198378128
0.0001105110125
0.000102818002
9.644394146e-05
9.12412923e-05
8.752245714e-05
0.0009916300734
0.0006342294748
0.0004378325611
0.0003235292991
0.0002530228383
0.0002070213951
0.0001754221995
0.0001527146476
0.0001357646238
0.0001227134665
0.0001124163119
0.0001041594161
9.757664362e-05
9.293960425e-05
0.0003003392037
0.0002772250672
0.000243388452
0.000211454675
0.0001845746511
0.0001627913338
0.0001453069313
0.0001312389425
0.0001198356757
0.0001105090717
0.0001028162016
9.644227771e-05
9.123973743e-05
8.752093975e-05
8.56679097e-05
9.886204275e-05
0.0001042414747
0.0001048701105
0.0001028895457
9.962483643e-05
9.584814393e-05
9.199057409e-05
8.828148394e-05
8.483397738e-05
8.169692735e-05
7.889227703e-05
7.646773828e-05
7.466776113e-05
3.0476218e-05
3.823705582e-05
4.473512486e-05
4.982968336e-05
5.365050552e-05
5.641677706e-05
5.835321673e-05
5.965728375e-05
6.049036193e-05
6.09792889e-05
6.122161699e-05
6.129249477e-05
6.125414458e-05
6.117488808e-05
1.714650061e-05
2.098930308e-05
2.514160287e-05
2.930960042e-05
3.328617034e-05
3.694356779e-05
4.021642521e-05
4.308407165e-05
4.55554041e-05
4.765713432e-05
4.942471429e-05
5.089373139e-05
5.20822603e-05
5.292073887e-05
1.304451814e-05
1.556975651e-05
1.880684464e-05
2.248491533e-05
2.63309717e-05
3.012367988e-05
3.370878567e-05
3.699385335e-05
3.993505004e-05
4.252289368e-05
4.476990538e-05
4.670054591e-05
4.834097817e-05
4.969741663e-05
5.067149848e-05
1.804949407e-05
2.41207167e-05
3.063834296e-05
3.676141474e-05
4.204796341e-05
4.636141754e-05
4.974398175e-05
5.231988777e-05
5.423653843e-05
5.563430976e-05
5.66340574e-05
5.733410551e-05
5.781170006e-05
5.812510534e-05
5.830786254e-05
3.671171632e-05
5.358182151e-05
6.716179553e-05
7.63253639e-05
8.156521797e-05
8.386771446e-05
8.418891382e-05
8.328191453e-05
8.168171563e-05
7.974452202e-05
7.76961685e-05
7.567465563e-05
7.376681146e-05
7.205651855e-05
7.075861226e-05
9.967251364e-05
0.0001378151112
0.0001541025265
0.000156073561
0.0001504898517
0.0001416732733
0.0001320077471
0.0001226688606
0.0001141585922
0.0001066316698
0.0001000777055
9.441925524e-05
8.957115195e-05
8.551761196e-05
8.257559067e-05
0.0002732823875
0.0003003344661
0.0002772220266
0.0002433863618
0.0002114531359
0.0001845734562
0.0001627904144
0.0001453062018
0.0001312383396
0.0001198351725
0.0001105086462
0.0001028158543
9.644195827e-05
9.123945778e-05
8.752069359e-05
9.967343266e-05
0.0001378147584
0.0001541010209
0.0001560713733
0.0001504873747
0.0001416707625
0.0001320053098
0.0001226665287
0.000114156415
0.0001066296429
0.0001000758337
9.441750597e-05
8.956950998e-05
8.551606268e-05
8.257408111e-05
5.358400075e-05
6.716219289e-05
7.632452234e-05
8.156355318e-05
8.386554239e-05
8.418644348e-05
8.327928247e-05
8.167902808e-05
7.974184208e-05
7.769352901e-05
7.567207123e-05
7.376429122e-05
7.205406611e-05
7.075618274e-05
2.412154039e-05
3.063869862e-05
3.67612121e-05
4.204722659e-05
4.636021102e-05
4.974239238e-05
5.231798854e-05
5.423440794e-05
5.563200919e-05
5.663162719e-05
5.733158238e-05
5.780910572e-05
5.812246749e-05
5.830516142e-05
1.557008935e-05
1.880705426e-05
2.248488907e-05
2.633064067e-05
3.012300889e-05
3.370777045e-05
3.699251164e-05
3.993340827e-05
4.25209758e-05
4.476774659e-05
4.669817827e-05
4.833843635e-05
4.969471246e-05
5.066862644e-05
1.178940772e-05
1.332576059e-05
1.543828987e-05
1.802492449e-05
2.09335424e-05
2.40050392e-05
2.710037659e-05
3.011241069e-05
3.296725212e-05
3.562005218e-05
3.804841281e-05
4.024487334e-05
4.220586599e-05
4.390235397e-05
4.516333261e-05
1.400955029e-05
1.726643226e-05
2.125185381e-05
2.553582002e-05
2.975610798e-05
3.367337007e-05
3.716425966e-05
4.019099061e-05
4.276902568e-05
4.494158964e-05
4.676248292e-05
4.82853709e-05
4.955569629e-05
5.059511055e-05
5.133827007e-05
2.070902827e-05
2.865559314e-05
3.687503893e-05
4.421259307e-05
5.014094364e-05
5.458364049e-05
5.770547066e-05
5.976157712e-05
6.101196202e-05
6.168253348e-05
6.195335206e-05
6.196063214e-05
6.180531645e-05
6.156777175e-05
6.134186542e-05
3.671177811e-05
5.358159255e-05
6.716117212e-05
7.632439079e-05
8.156399071e-05
8.386632499e-05
8.418743069e-05
8.328038867e-05
8.168018769e-05
7.974301822e-05
7.769470502e-05
7.567322645e-05
7.376542506e-05
7.205519606e-05
7.075729856e-05
6.162868717e-05
8.566546998e-05
9.885999771e-05
0.0001042398043
0.0001048687311
0.0001028883973
9.962388273e-05
9.584735281e-05
9.198988347e-05
8.828087817e-05
8.483345073e-05
8.169646046e-05
7.889184989e-05
7.646735109e-05
7.466740504e-05
3.671161431e-05
5.358116954e-05
6.71603901e-05
7.632330116e-05
8.15626772e-05
8.386488891e-05
8.418592593e-05
8.327886353e-05
8.167867852e-05
7.974154369e-05
7.769327658e-05
7.56718399e-05
7.376408948e-05
7.20538803e-05
7.075600683e-05
2.070957372e-05
2.865599177e-05
3.687503149e-05
4.421210532e-05
5.014001477e-05
5.458235467e-05
5.770390415e-05
5.975981395e-05
6.10100719e-05
6.168055043e-05
6.195131422e-05
6.1958578e-05
6.180325326e-05
6.156571386e-05
6.133977753e-05
1.726697764e-05
2.125211761e-05
2.553576283e-05
2.975570586e-05
3.367262893e-05
3.716320547e-05
4.018966266e-05
4.27674629e-05
4.49398282e-05
4.676055921e-05
4.828331357e-05
4.955352837e-05
5.059284455e-05
5.133591804e-05
1.332603492e-05
1.543849063e-05
1.802497231e-05
2.093337729e-05
2.400462162e-05
2.709968201e-05
3.011143385e-05
3.296600176e-05
3.5618542e-05
3.804666537e-05
4.024290944e-05
4.220370679e-05
4.390001241e-05
4.516081398e-05
1.094159689e-05
1.177247121e-05
1.298924272e-05
1.459290766e-05
1.654017797e-05
1.875942874e-05
2.116722508e-05
2.368117221e-05
2.62279519e-05
2.874710692e-05
3.119156015e-05
3.352499694e-05
3.571251922e-05
3.768563173e-05
3.919677936e-05
1.180698346e-05
1.33492387e-05
1.54423124e-05
1.796860787e-05
2.077147558e-05
2.369842895e-05
2.662439844e-05
2.945877313e-05
3.214302996e-05
3.464428712e-05
3.694795156e-05
3.905029374e-05
4.094789962e-05
4.260854401e-05
4.385454503e-05
1.400956033e-05
1.726641618e-05
2.12517833e-05
2.553567399e-05
2.975587517e-05
3.367304617e-05
3.716384921e-05
4.019050351e-05
4.276847021e-05
4.494097572e-05
4.676181896e-05
4.828466757e-05
4.955496397e-05
5.059435116e-05
5.133748646e-05
1.804951984e-05
2.412059763e-05
3.063798887e-05
3.676077532e-05
4.20470488e-05
4.636025907e-05
4.974261754e-05
5.231836002e-05
5.423488126e-05
5.563256323e-05
5.66322452e-05
5.733224159e-05
5.780980703e-05
5.81231995e-05
5.830592443e-05
2.219194724e-05
3.047529378e-05
3.82361128e-05
4.473421746e-05
4.982883676e-05
5.364972408e-05
5.641605981e-05
5.835256545e-05
5.965667546e-05
6.048980377e-05
6.097878449e-05
6.122114754e-05
6.129205788e-05
6.125373812e-05
6.117449105e-05
1.804945107e-05
2.41204481e-05
3.063771457e-05
3.67603646e-05
4.204649731e-05
4.63595784e-05
4.974184446e-05
5.231750569e-05
5.423397312e-05
5.563162127e-05
5.663126671e-05
5.733124763e-05
5.780880486e-05
5.812218177e-05
5.830490399e-05
1.400958709e-05
1.726641151e-05
2.12516571e-05
2.553537088e-05
2.975536535e-05
3.367232737e-05
3.716293939e-05
4.018942485e-05
4.276724426e-05
4.493963491e-05
4.67603813e-05
4.828315028e-05
4.955337624e-05
5.059270852e-05
5.133579355e-05
1.180709439e-05
1.334935562e-05
1.544236311e-05
1.796853017e-05
2.07712256e-05
2.369798366e-05
2.662374904e-05
2.945791922e-05
3.214197542e-05
3.464304038e-05
3.694653299e-05
3.904871948e-05
4.094618095e-05
4.260670723e-05
4.385259837e-05
1.17726359e-05
1.298935891e-05
1.459293965e-05
1.654008756e-05
1.875918181e-05
2.116679222e-05
2.368053056e-05
2.622708794e-05
2.874601841e-05
3.119025472e-05
3.352347496e-05
3.571079228e-05
3.768371305e-05
3.919466534e-05
1.055864238e-05
1.106148014e-05
1.183433569e-05
1.291405977e-05
1.430839379e-05
1.599728508e-05
1.793915673e-05
2.007909126e-05
2.235671879e-05
2.471242761e-05
2.709129302e-05
2.944355614e-05
3.171695024e-05
3.381918117e-05
3.545708052e-05
1.094160204e-05
1.177247371e-05
1.298923814e-05
1.459288802e-05
1.654013827e-05
1.875935973e-05
2.116712192e-05
2.368103218e-05
2.622776654e-05
2.874687559e-05
3.119128769e-05
3.352467511e-05
3.571215363e-05
3.768522234e-05
3.919630828e-05
1.178941373e-05
1.332575062e-05
1.543823949e-05
1.802480499e-05
2.09333331e-05
2.400472141e-05
2.709994155e-05
3.011185451e-05
3.296657951e-05
3.561926126e-05
3.804752558e-05
4.02438881e-05
4.220479691e-05
4.39012033e-05
4.516209097e-05
1.304452006e-05
1.556968994e-05
1.880665038e-05
2.248453696e-05
2.633037279e-05
3.012284798e-05
3.370771929e-05
3.699256582e-05
3.993355687e-05
4.252122191e-05
4.47680793e-05
4.669858118e-05
4.833890691e-05
4.969523515e-05
5.066920066e-05
1.397056936e-05
1.714608092e-05
2.098879952e-05
2.514104936e-05
2.930901985e-05
3.32855851e-05
3.694299125e-05
4.021586467e-05
4.308352232e-05
4.555488119e-05
4.765663734e-05
4.942423601e-05
5.089327702e-05
5.208183467e-05
5.29203348e-05
1.304448951e-05
1.556962434e-05
1.880653031e-05
2.248434607e-05
2.633009767e-05
3.012248483e-05
3.370727017e-05
3.699203358e-05
3.99329519e-05
4.252054877e-05
4.476735079e-05
4.669781138e-05
4.833808487e-05
4.96943812e-05
5.066831892e-05
1.17893926e-05
1.332570219e-05
1.543813178e-05
1.802460395e-05
2.09330131e-05
2.400426397e-05
2.709934086e-05
3.011110848e-05
3.296569341e-05
3.561824919e-05
3.804639064e-05
4.024265013e-05
4.220346719e-05
4.389979503e-05
4.516060738e-05
1.094161129e-05
1.177248328e-05
1.298922031e-05
1.459280838e-05
1.653995922e-05
1.875905653e-05
2.116667219e-05
2.36804154e-05
2.622697635e-05
2.874591314e-05
3.119015262e-05
3.352338325e-05
3.571070739e-05
3.768362893e-05
3.91945896e-05
1.055867615e-05
1.106152828e-05
1.183437211e-05
1.29140579e-05
1.430832166e-05
1.599711062e-05
1.793884386e-05
2.007861649e-05
2.23560583e-05
2.471157031e-05
2.709022599e-05
2.944228036e-05
3.171546437e-05
3.381749393e-05
3.54551949e-05
)
;

boundaryField
{
    top
    {
        type            zeroGradient;
    }
    bottom
    {
        type            zeroGradient;
    }
    side-walls
    {
        type            zeroGradient;
    }
    inlet
    {
        type            zeroGradient;
    }
    outlet
    {
        type            zeroGradient;
    }
    procBoundary1to0
    {
        type            processor;
        value           nonuniform List<scalar> 
97
(
1.055867801e-05
1.055867801e-05
1.094160763e-05
1.178935745e-05
1.304435229e-05
1.397030723e-05
1.304429931e-05
1.178927859e-05
1.094153142e-05
1.055860545e-05
1.04441371e-05
1.180711062e-05
1.180711062e-05
1.180711062e-05
1.400954639e-05
1.804912567e-05
2.219101994e-05
1.804889076e-05
1.400925292e-05
1.180685389e-05
1.094153793e-05
1.083310723e-05
1.181984819e-05
2.070964733e-05
2.070964733e-05
2.070964733e-05
3.671092169e-05
6.162384267e-05
3.67094912e-05
2.070819397e-05
1.400926229e-05
1.178928804e-05
1.139502603e-05
1.353614084e-05
2.091202524e-05
9.967399573e-05
9.967399573e-05
9.967399573e-05
0.0002732513476
9.966446766e-05
3.670960648e-05
1.804890879e-05
1.304431485e-05
1.178980957e-05
1.512741506e-05
2.894407198e-05
8.265352332e-05
0.00167970238
0.00167970238
0.00167970238
0.0002732525761
0.0002732525761
6.162410548e-05
2.219105649e-05
1.397033153e-05
1.139504014e-05
1.353616536e-05
2.091227409e-05
4.19962417e-05
8.265485296e-05
4.199522317e-05
3.671266008e-05
3.671266008e-05
3.671266008e-05
1.804939907e-05
1.304442125e-05
1.083311633e-05
1.181988491e-05
1.467165254e-05
2.091232886e-05
2.894429658e-05
2.091209273e-05
1.467155073e-05
1.400979895e-05
1.400979895e-05
1.400979895e-05
1.178942182e-05
1.044414323e-05
1.083899164e-05
1.181989108e-05
1.353618685e-05
1.512744343e-05
1.353613094e-05
1.181985476e-05
1.083897627e-05
1.094166436e-05
1.094166436e-05
1.094166436e-05
1.026609374e-05
1.0444146e-05
1.083312033e-05
1.139504267e-05
1.178981129e-05
1.139502265e-05
1.083310065e-05
1.044413652e-05
1.02660934e-05
)
;
    }
}


// ************************************************************************* //
