/*--------------------------------*- C++ -*----------------------------------*\
| =========                 |                                                 |
| \\      /  F ield         | OpenFOAM: The Open Source CFD Toolbox           |
|  \\    /   O peration     | Version:  4.x                                   |
|   \\  /    A nd           | Web:      www.OpenFOAM.org                      |
|    \\/     M anipulation  |                                                 |
\*---------------------------------------------------------------------------*/
FoamFile
{
    version     2.0;
    format      ascii;
    class       volScalarField;
    location    "6000";
    object      molarConc;
}
// * * * * * * * * * * * * * * * * * * * * * * * * * * * * * * * * * * * * * //

dimensions      [0 -3 0 0 1 0 0];

internalField   nonuniform List<scalar> 
1174
(
9.963271076
9.963268431
9.963264108
9.963258955
9.963253689
9.963246013
9.963238939
9.963230188
9.963221045
9.963213105
9.963204999
9.963196068
9.963187675
9.963182261
9.963274125
9.96327034
9.963264766
9.96325754
9.963247766
9.963238865
9.963228713
9.963219253
9.963211966
9.963200267
9.963192042
9.963184182
9.963176864
9.963170034
9.963278444
9.963270148
9.963260417
9.963249568
9.96323716
9.963226193
9.96321556
9.963203747
9.963194343
9.96318623
9.963178042
9.963170592
9.963163836
9.963160838
9.963264208
9.96325152
9.963237252
9.963224102
9.963209806
9.963197375
9.963184368
9.963172857
9.96316311
9.963155146
9.963150455
9.963144396
9.963139782
9.963135678
9.963258468
9.963244086
9.963228956
9.963214342
9.963200138
9.963186037
9.963174189
9.963163431
9.963153647
9.963145723
9.963139761
9.963133524
9.963128247
9.963126345
9.963254183
9.963242499
9.963229612
9.963214333
9.963199602
9.963186192
9.963175965
9.963165485
9.963156375
9.963148101
9.96313916
9.963132091
9.963127747
9.963123854
9.963284611
9.963275701
9.963266059
9.96325569
9.963246294
9.963232654
9.963220396
9.963209652
9.96320017
9.96319166
9.963184041
9.963177123
9.963171099
9.9631663
9.96329297
9.963287072
9.963282988
9.963274519
9.963266731
9.963258236
9.963250047
9.963239877
9.963229815
9.963220481
9.963213657
9.963206751
9.963198906
9.963192375
9.963276054
9.963273775
9.963269284
9.96326285
9.963258066
9.963251924
9.963243397
9.963235154
9.963226453
9.963217609
9.963208108
9.963199522
9.963191845
9.963185479
9.963272717
9.963270421
9.963265719
9.963258228
9.963251714
9.963243236
9.96323487
9.963225706
9.963217694
9.963208215
9.963198616
9.963191422
9.963182582
9.963175239
9.963169565
9.963258292
9.96325077
9.963241245
9.963230277
9.963218558
9.963207988
9.963196099
9.963184471
9.963175331
9.963167876
9.963159623
9.963153787
9.963148009
9.963141695
9.963244967
9.963231169
9.963215118
9.963197939
9.963184842
9.963171526
9.963161325
9.963151589
9.963144515
9.963139222
9.963132323
9.963127348
9.963125032
9.963123314
9.963247777
9.963224855
9.963201747
9.963181767
9.96316668
9.963155201
9.963144278
9.963136454
9.963131655
9.963127818
9.963124606
9.963124331
9.963124445
9.963124186
9.963157228
9.963130836
9.963107643
9.963087328
9.96307336
9.963063739
9.963055644
9.963050545
9.963047795
9.963045743
9.963045319
9.963045528
9.963046506
9.963048223
9.963219073
9.963194044
9.963172863
9.963154624
9.963139104
9.963126169
9.96311703
9.963109307
9.963105088
9.963100098
9.963097915
9.963096067
9.963096241
9.963092861
9.963241788
9.963228242
9.96321217
9.963196083
9.963182226
9.963170349
9.963159548
9.963150635
9.96314393
9.963137399
9.963133706
9.963129311
9.963126766
9.963124713
9.963258877
9.963251737
9.963242908
9.963232565
9.963221723
9.963212564
9.963203395
9.963193573
9.96318318
9.963174969
9.963165956
9.963159214
9.963153287
9.963148568
9.963248682
9.963245818
9.963238907
9.963231091
9.963221985
9.963213135
9.963204163
9.963194681
9.963186306
9.963178419
9.963170931
9.963161634
9.963154022
9.963147948
9.963279879
9.963275289
9.963267992
9.963258832
9.963248057
9.963235974
9.963225614
9.963214462
9.963205039
9.963196458
9.963187206
9.96317673
9.963171194
9.963164781
9.963161453
9.963259746
9.963246694
9.963232729
9.963216842
9.96320286
9.963189126
9.963174651
9.963162619
9.963153502
9.963147564
9.963140144
9.963136109
9.963132192
9.96312684
9.963124398
9.963187276
9.96315731
9.963131176
9.963108706
9.963092096
9.963081791
9.96307353
9.963068927
9.963065354
9.96306521
9.963064767
9.963064447
9.963064644
9.963065624
9.96315382
9.963104454
9.963070202
9.963051458
9.963044304
9.963044778
9.963047228
9.963053577
9.963060484
9.963067646
9.963077095
9.963083582
9.963088829
9.963093908
9.962976773
9.962929263
9.962908388
9.962907402
9.962914841
9.962925033
9.962937435
9.962951815
9.962965702
9.96297867
9.962991551
9.963002467
9.963012103
9.963019231
9.963146735
9.963097551
9.963064327
9.963045089
9.963036879
9.963037437
9.963040374
9.963046654
9.963053557
9.963060155
9.963067974
9.963074275
9.96307989
9.96308459
9.963275263
9.963246161
9.963218547
9.96319698
9.963181159
9.963168006
9.963160318
9.96315503
9.963152799
9.963149496
9.963149399
9.963149271
9.963150042
9.963151009
9.963214246
9.963200405
9.96318507
9.96316893
9.963155269
9.963142598
9.963132835
9.963124553
9.9631171
9.963110449
9.963105786
9.963100713
9.963097042
9.963092837
9.963272564
9.963265417
9.963257492
9.963247009
9.963236459
9.963224304
9.963212931
9.963200824
9.963192379
9.963183921
9.96317581
9.963168019
9.963161534
9.963157743
9.963302934
9.963293746
9.963281885
9.963267463
9.963253289
9.963239629
9.963225043
9.963214279
9.963203852
9.963194086
9.9631861
9.963179251
9.963172928
9.96316922
9.963165941
9.963226902
9.963206506
9.963180757
9.963158037
9.963138484
9.963122048
9.963109265
9.963099223
9.963092894
9.963086907
9.963083131
9.96308056
9.963078542
9.963077502
9.963075742
9.963165959
9.96310434
9.963054174
9.963020264
9.963002089
9.962994059
9.962991995
9.962994459
9.962998262
9.96300521
9.963012014
9.963018858
9.963025705
9.963032732
9.963036863
9.962706169
9.962646155
9.96263699
9.962659623
9.962692204
9.962727974
9.962763154
9.96279565
9.962822432
9.96284572
9.962867868
9.962885521
9.962900172
9.962911402
9.962246154
9.962330714
9.962455563
9.962572672
9.962670813
9.962749705
9.962813875
9.962865576
9.962907146
9.962941638
9.962970564
9.962993866
9.963013699
9.963026725
9.962865067
9.962806023
9.962796979
9.962818074
9.962852361
9.962889374
9.962923534
9.962953095
9.962981192
9.963003067
9.963023224
9.963040484
9.963054905
9.963066613
9.963093433
9.963042278
9.963009738
9.962990882
9.96298399
9.962983368
9.962986809
9.962991608
9.962999459
9.963007178
9.96301436
9.963020892
9.963026396
9.963032952
9.963253922
9.963229521
9.96320832
9.96318821
9.963171315
9.963158885
9.963149051
9.963142082
9.963136587
9.963131971
9.963127791
9.963126215
9.963126003
9.9631241
9.963240344
9.963228365
9.963212902
9.963198061
9.963184606
9.963172656
9.96316029
9.96314942
9.963139386
9.963130219
9.963123125
9.96311687
9.963111251
9.963107586
9.963264941
9.963252245
9.963238352
9.963222861
9.963207913
9.963192029
9.963179425
9.963167395
9.963157423
9.96314743
9.963137816
9.963130622
9.963127049
9.963123404
9.963120159
9.963194923
9.963164422
9.963135674
9.963111212
9.963094031
9.963079607
9.963068478
9.963061471
9.963056946
9.963053556
9.963053021
9.963053233
9.963051513
9.9630521
9.963051892
9.963084068
9.962996758
9.962948246
9.962928534
9.96292546
9.962933066
9.962945378
9.962959218
9.962974243
9.962987656
9.963000581
9.963012225
9.963022286
9.963029393
9.963035212
9.962330252
9.96223064
9.962316949
9.962440589
9.9625575
9.962657554
9.962737278
9.962802906
9.962854004
9.962898695
9.96293294
9.962959746
9.962983402
9.963003
9.963017624
10.00638144
10.00773353
10.00849288
10.00895197
10.00924836
10.00945469
10.00960808
10.00972803
10.00982911
10.00991368
10.00998814
10.01005537
10.01011749
10.01017342
9.962282195
9.962367221
9.962490011
9.962606612
9.962705469
9.962784896
9.962849859
9.962902832
9.962943537
9.96297805
9.963006329
9.96303051
9.963050194
9.96306395
9.962996141
9.962946546
9.962927989
9.962925547
9.962933475
9.962944157
9.962957105
9.962970835
9.962983213
9.962995303
9.963006761
9.963017813
9.963026039
9.963033129
9.963232771
9.963204584
9.96317939
9.963160394
9.963146644
9.963136043
9.963128582
9.963124371
9.963121545
9.963118622
9.963117817
9.963119056
9.963120706
9.963121423
9.96325804
9.963243821
9.963228978
9.963213377
9.963198542
9.963183851
9.963171232
9.963160297
9.963151735
9.963143697
9.963136745
9.96313091
9.963126068
9.963122791
9.963218408
9.963210246
9.963197518
9.963183387
9.963170555
9.963155167
9.963141137
9.96312998
9.963120451
9.963110078
9.963100465
9.96309348
9.963087456
9.963082657
9.963078919
9.963254123
9.963231149
9.963206257
9.963184358
9.963162632
9.963147558
9.963134869
9.963125046
9.963117556
9.963112753
9.963109306
9.963106716
9.963104463
9.963102748
9.963100664
9.963189158
9.963128134
9.96307836
9.963045668
9.963027068
9.963016791
9.963016736
9.963021169
9.963026393
9.963034703
9.963042586
9.963050572
9.963056618
9.963061968
9.963067643
9.962918659
9.962778575
9.962719375
9.962712016
9.962732683
9.962764263
9.962800137
9.962834272
9.962866393
9.962892629
9.962917367
9.96293735
9.96295591
9.96297218
9.962983792
9.962330422
9.96223311
9.962317926
9.962441908
9.962559767
9.962658702
9.962737928
9.962802758
9.962852246
9.962894089
9.962929227
9.962957915
9.962980993
9.963000025
9.963012789
9.96292012
9.962782004
9.962721089
9.962714807
9.962733978
9.962764811
9.96280009
9.962833807
9.962865103
9.962892279
9.962916599
9.962936614
9.962953515
9.962968781
9.962979703
9.96312641
9.963075589
9.96304063
9.963020651
9.963012382
9.96300991
9.963012026
9.96301714
9.963024554
9.963031651
9.963038216
9.963046016
9.963053852
9.96305831
9.963222617
9.96320026
9.963176976
9.96315841
9.963142348
9.963129889
9.963120864
9.963112223
9.96310874
9.96310538
9.96310403
9.963101398
9.963102898
9.963101923
9.963263845
9.963251229
9.963236063
9.963222474
9.963207327
9.96319472
9.96318237
9.963172512
9.963162942
9.963153933
9.963146667
9.963140276
9.963135384
9.963129714
9.963281716
9.963274805
9.963267524
9.963257518
9.963247058
9.963236857
9.963226486
9.963214798
9.96320421
9.96319588
9.963186802
9.963178679
9.963171133
9.963164808
9.963159993
9.963238423
9.963226701
9.963212598
9.963197949
9.963181985
9.963167734
9.96315554
9.963143909
9.963133615
9.963124457
9.963118414
9.963112969
9.963107314
9.963103978
9.963100715
9.963284198
9.963255246
9.963225226
9.963199
9.9631764
9.963159178
9.963148768
9.963139848
9.963135805
9.963135022
9.963134385
9.963134464
9.963136555
9.963137207
9.963138043
9.963162417
9.963099955
9.963049737
9.963016314
9.962997205
9.962987786
9.962986383
9.962990085
9.962995928
9.963002044
9.963010182
9.963017876
9.963024922
9.963031785
9.963034468
9.963038639
9.962950347
9.962901503
9.962881809
9.962878486
9.962886216
9.962897171
9.962912533
9.962926307
9.962939692
9.962952268
9.962963116
9.96297386
9.962983268
9.962988903
9.963190895
9.963127648
9.963078431
9.963045479
9.963027355
9.963019514
9.963018953
9.963022867
9.963028955
9.963036936
9.96304511
9.963052328
9.963059995
9.963065782
9.963070664
9.963247628
9.963218151
9.96318669
9.963159734
9.963138685
9.96312308
9.963111556
9.963102972
9.963098402
9.963097116
9.963096585
9.963097701
9.9630975
9.963098917
9.963099565
9.963225504
9.963211352
9.963195611
9.963180603
9.963166285
9.963154256
9.963143917
9.963135133
9.963125847
9.963119121
9.963114628
9.963111237
9.963107812
9.963104027
9.963268152
9.963260484
9.963250482
9.963239387
9.963229529
9.963217411
9.96320711
9.963197784
9.963190235
9.963181091
9.963173067
9.963166122
9.963159438
9.963154422
9.963296013
9.963292652
9.963288935
9.963283414
9.963276586
9.963267004
9.963258716
9.963248587
9.963240157
9.963231147
9.96322176
9.963212176
9.963204428
9.963196417
9.963192194
9.963296539
9.963291069
9.963282323
9.963274034
9.963264448
9.963253083
9.963243549
9.963233514
9.963224411
9.963213749
9.963205513
9.963196299
9.96319093
9.963184635
9.963179937
9.963224503
9.963212228
9.963197687
9.963180741
9.963164238
9.96315046
9.963137026
9.963125176
9.963116187
9.963107537
9.963099086
9.963093849
9.963089739
9.963086301
9.963084223
9.963225191
9.963203025
9.963179298
9.963156683
9.963139263
9.963124114
9.963109909
9.963100373
9.963092768
9.963086418
9.963082424
9.963078488
9.963077026
9.963076208
9.963074284
9.963214071
9.963182985
9.963155483
9.963130789
9.96311163
9.963098401
9.963088804
9.96308096
9.96307501
9.963071093
9.963070075
9.963069772
9.963069042
9.963069498
9.963068775
9.963195214
9.963174708
9.96315096
9.963129218
9.963108912
9.963091731
9.963080285
9.963070048
9.963063181
9.963057624
9.963053849
9.963049991
9.963047681
9.963047638
9.963048307
9.963299143
9.963288318
9.963273679
9.963256924
9.963242047
9.963226793
9.963213047
9.963202396
9.963192637
9.963185293
9.963177999
9.963172272
9.963168781
9.963166092
9.96316308
9.963297239
9.963292629
9.963285879
9.963276712
9.963266202
9.96325512
9.963245472
9.963235342
9.963224405
9.963215852
9.963208
9.963201385
9.963195353
9.96318903
9.963183713
9.963276026
9.963270163
9.96326428
9.963257965
9.963250225
9.963241742
9.96323251
9.96322161
9.963210894
9.963202187
9.963192687
9.963184385
9.963177615
9.963171704
9.963300741
9.963298604
9.963297313
9.963293686
9.963288439
9.963281813
9.963275413
9.963267397
9.963258811
9.963249018
9.963240976
9.96323228
9.963222139
9.963213582
9.963208178
9.963263041
9.96325949
9.963254938
9.963247872
9.963241779
9.96323381
9.963225213
9.963216821
9.963207649
9.963199246
9.963189756
9.963180477
9.963172681
9.963164779
9.963159844
9.963258077
9.96325126
9.96324388
9.963234419
9.963224276
9.96321378
9.963200176
9.963190397
9.963179265
9.963168553
9.963161591
9.963152629
9.963145924
9.963139314
9.96313374
9.963259673
9.963251802
9.963240309
9.963226748
9.963212407
9.963199164
9.963187864
9.963174315
9.963163413
9.963153279
9.963145594
9.96313826
9.963133265
9.963125771
9.963122806
9.963283787
9.963272121
9.963258609
9.963242857
9.963227631
9.963212275
9.963197738
9.963185677
9.96317372
9.963164535
9.963156701
9.963149456
9.963143708
9.963139963
9.963138267
9.963262138
9.963251931
9.963239885
9.963226538
9.963211779
9.963196548
9.963185194
9.963172779
9.963161996
9.963153321
9.963145568
9.963138928
9.963133908
9.963130416
9.963127766
9.963327195
9.963321869
9.963313252
9.963303268
9.963293555
9.963282587
9.963270914
9.963260157
9.963249558
9.963240554
9.963232704
9.963223544
9.963216082
9.963210278
9.963204077
9.963273125
9.963269245
9.963264629
9.963259707
9.963253549
9.963246159
9.963238674
9.963230167
9.963220728
9.96321056
9.963201381
9.963192851
9.963184506
9.963178252
9.963171714
9.963257998
9.963256202
9.963253302
9.963248836
9.963244159
9.963238025
9.963230569
9.963222774
9.963215502
9.963207853
9.963199966
9.963191361
9.963182388
9.963174515
9.963168951
)
;

boundaryField
{
    top
    {
        type            calculated;
        value           nonuniform List<scalar> 
127
(
9.963257998
9.963276054
9.963248682
9.963272564
9.963240344
9.96325804
9.963263845
9.963268152
9.963276026
9.963256202
9.963273775
9.963245818
9.963265417
9.963228365
9.963243821
9.963251229
9.963260484
9.963270163
9.963253302
9.963269284
9.963238907
9.963257492
9.963212902
9.963228978
9.963236063
9.963250482
9.96326428
9.963248836
9.96326285
9.963231091
9.963247009
9.963198061
9.963213377
9.963222474
9.963239387
9.963257965
9.963244159
9.963258066
9.963221985
9.963236459
9.963184606
9.963198542
9.963207327
9.963229529
9.963250225
9.963238025
9.963251924
9.963213135
9.963224304
9.963172656
9.963183851
9.96319472
9.963217411
9.963241742
9.963230569
9.963243397
9.963204163
9.963212931
9.96316029
9.963171232
9.96318237
9.96320711
9.96323251
9.963222774
9.963235154
9.963194681
9.963200824
9.96314942
9.963160297
9.963172512
9.963197784
9.96322161
9.963215502
9.963226453
9.963186306
9.963192379
9.963139386
9.963151735
9.963162942
9.963190235
9.963210894
9.963207853
9.963217609
9.963178419
9.963183921
9.963130219
9.963143697
9.963153933
9.963181091
9.963202187
9.963199966
9.963208108
9.963170931
9.96317581
9.963123125
9.963136745
9.963146667
9.963173067
9.963192687
9.963191361
9.963199522
9.963161634
9.963168019
9.96311687
9.96313091
9.963140276
9.963166122
9.963184385
9.963182388
9.963191845
9.963154022
9.963161534
9.963111251
9.963126068
9.963135384
9.963159438
9.963177615
9.963174515
9.963185479
9.963147948
9.963157743
9.963107586
9.963122791
9.963129714
9.963154422
9.963171704
9.963168951
)
;
    }
    bottom
    {
        type            calculated;
        value           nonuniform List<scalar> 
134
(
9.963272717
9.963279879
9.963302934
9.963264941
9.963218408
9.963281716
9.963296013
9.963300741
9.963271076
9.963270421
9.963275289
9.963293746
9.963252245
9.963210246
9.963274805
9.963292652
9.963298604
9.963268431
9.963265719
9.963267992
9.963281885
9.963238352
9.963197518
9.963267524
9.963288935
9.963297313
9.963264108
9.963258228
9.963258832
9.963267463
9.963222861
9.963183387
9.963257518
9.963283414
9.963293686
9.963258955
9.963251714
9.963248057
9.963253289
9.963207913
9.963170555
9.963247058
9.963276586
9.963288439
9.963253689
9.963243236
9.963235974
9.963239629
9.963192029
9.963155167
9.963236857
9.963267004
9.963281813
9.963246013
9.96323487
9.963225614
9.963225043
9.963179425
9.963141137
9.963226486
9.963258716
9.963275413
9.963238939
9.963225706
9.963214462
9.963214279
9.963167395
9.96312998
9.963214798
9.963248587
9.963267397
9.963230188
9.963217694
9.963205039
9.963203852
9.963157423
9.963120451
9.96320421
9.963240157
9.963258811
9.963221045
9.963208215
9.963196458
9.963194086
9.96314743
9.963110078
9.96319588
9.963231147
9.963249018
9.963213105
9.963198616
9.963187206
9.9631861
9.963137816
9.963100465
9.963186802
9.96322176
9.963240976
9.963204999
9.963191422
9.96317673
9.963179251
9.963130622
9.96309348
9.963178679
9.963212176
9.96323228
9.963196068
9.963182582
9.963171194
9.963172928
9.963127049
9.963087456
9.963171133
9.963204428
9.963222139
9.963187675
9.963175239
9.963164781
9.96316922
9.963123404
9.963082657
9.963164808
9.963196417
9.963213582
9.963182261
9.963169565
9.963161453
9.963165941
9.963120159
9.963078919
9.963159993
9.963192194
9.963208178
)
;
    }
    side-walls
    {
        type            calculated;
        value           nonuniform List<scalar> 
261
(
9.963271076
9.963274125
9.963278444
9.963264208
9.963258468
9.963254183
9.963284611
9.96329297
9.963276054
9.963268431
9.96327034
9.963270148
9.96325152
9.963244086
9.963242499
9.963275701
9.963287072
9.963273775
9.963264108
9.963264766
9.963260417
9.963237252
9.963228956
9.963229612
9.963266059
9.963282988
9.963269284
9.963258955
9.96325754
9.963249568
9.963224102
9.963214342
9.963214333
9.96325569
9.963274519
9.96326285
9.963253689
9.963247766
9.96323716
9.963209806
9.963200138
9.963199602
9.963246294
9.963266731
9.963258066
9.963246013
9.963238865
9.963226193
9.963197375
9.963186037
9.963186192
9.963232654
9.963258236
9.963251924
9.963238939
9.963228713
9.96321556
9.963184368
9.963174189
9.963175965
9.963220396
9.963250047
9.963243397
9.963230188
9.963219253
9.963203747
9.963172857
9.963163431
9.963165485
9.963209652
9.963239877
9.963235154
9.963221045
9.963211966
9.963194343
9.96316311
9.963153647
9.963156375
9.96320017
9.963229815
9.963226453
9.963213105
9.963200267
9.96318623
9.963155146
9.963145723
9.963148101
9.96319166
9.963220481
9.963217609
9.963204999
9.963192042
9.963178042
9.963150455
9.963139761
9.96313916
9.963184041
9.963213657
9.963208108
9.963196068
9.963184182
9.963170592
9.963144396
9.963133524
9.963132091
9.963177123
9.963206751
9.963199522
9.963187675
9.963176864
9.963163836
9.963139782
9.963128247
9.963127747
9.963171099
9.963198906
9.963191845
9.963182261
9.963170034
9.963160838
9.963135678
9.963126345
9.963123854
9.9631663
9.963192375
9.963185479
9.963300741
9.963263041
9.963258077
9.963259673
9.963283787
9.963262138
9.963327195
9.963273125
9.963257998
9.963298604
9.96325949
9.96325126
9.963251802
9.963272121
9.963251931
9.963321869
9.963269245
9.963256202
9.963297313
9.963254938
9.96324388
9.963240309
9.963258609
9.963239885
9.963313252
9.963264629
9.963253302
9.963293686
9.963247872
9.963234419
9.963226748
9.963242857
9.963226538
9.963303268
9.963259707
9.963248836
9.963288439
9.963241779
9.963224276
9.963212407
9.963227631
9.963211779
9.963293555
9.963253549
9.963244159
9.963281813
9.96323381
9.96321378
9.963199164
9.963212275
9.963196548
9.963282587
9.963246159
9.963238025
9.963275413
9.963225213
9.963200176
9.963187864
9.963197738
9.963185194
9.963270914
9.963238674
9.963230569
9.963267397
9.963216821
9.963190397
9.963174315
9.963185677
9.963172779
9.963260157
9.963230167
9.963222774
9.963258811
9.963207649
9.963179265
9.963163413
9.96317372
9.963161996
9.963249558
9.963220728
9.963215502
9.963249018
9.963199246
9.963168553
9.963153279
9.963164535
9.963153321
9.963240554
9.96321056
9.963207853
9.963240976
9.963189756
9.963161591
9.963145594
9.963156701
9.963145568
9.963232704
9.963201381
9.963199966
9.96323228
9.963180477
9.963152629
9.96313826
9.963149456
9.963138928
9.963223544
9.963192851
9.963191361
9.963222139
9.963172681
9.963145924
9.963133265
9.963143708
9.963133908
9.963216082
9.963184506
9.963182388
9.963213582
9.963164779
9.963139314
9.963125771
9.963139963
9.963130416
9.963210278
9.963178252
9.963174515
9.963208178
9.963159844
9.96313374
9.963122806
9.963138267
9.963127766
9.963204077
9.963171714
9.963168951
)
;
    }
    inlet
    {
        type            calculated;
        value           nonuniform 0();
    }
    outlet
    {
        type            calculated;
        value           nonuniform List<scalar> 
81
(
9.963182261
9.963170034
9.963160838
9.963135678
9.963126345
9.963123854
9.9631663
9.963192375
9.963185479
9.963169565
9.963141695
9.963123314
9.963124186
9.963048223
9.963092861
9.963124713
9.963148568
9.963147948
9.963161453
9.963124398
9.963065624
9.963093908
9.963019231
9.96308459
9.963151009
9.963092837
9.963157743
9.963165941
9.963075742
9.963036863
9.962911402
9.963026725
9.963066613
9.963032952
9.9631241
9.963107586
9.963120159
9.963051892
9.963035212
9.963017624
10.01017342
9.96306395
9.963033129
9.963121423
9.963122791
9.963078919
9.963100664
9.963067643
9.962983792
9.963012789
9.962979703
9.96305831
9.963101923
9.963129714
9.963159993
9.963100715
9.963138043
9.963034468
9.962988903
9.963070664
9.963099565
9.963104027
9.963154422
9.963192194
9.963179937
9.963084223
9.963074284
9.963068775
9.963048307
9.96316308
9.963183713
9.963171704
9.963208178
9.963159844
9.96313374
9.963122806
9.963138267
9.963127766
9.963204077
9.963171714
9.963168951
)
;
    }
    procBoundary1to0
    {
        type            processor;
        value           nonuniform List<scalar> 
97
(
9.963272335
9.963272335
9.963277685
9.963283617
9.963272226
9.963269355
9.963262209
9.96329049
9.963296453
9.963277278
9.963275211
9.963263836
9.963263836
9.963263836
9.963258855
9.963270533
9.963188424
9.963243422
9.963252707
9.963264349
9.963251151
9.963284153
9.963266675
9.963217441
9.963217441
9.963217441
9.96321616
9.963065057
9.963208557
9.963304961
9.963226405
9.963277828
9.963308296
9.963243432
9.963224319
9.962845283
9.962845283
9.962845283
9.962344415
9.963005501
9.963154093
9.963277645
9.963251184
9.963271911
9.96321948
9.963204414
9.962996792
10.0038589
10.0038589
10.0038589
9.962381647
9.962381647
9.963082787
9.963263771
9.963269156
9.963226527
9.963271928
9.963248421
9.963131246
9.962997504
9.963132922
9.963188318
9.963188318
9.963188318
9.96324501
9.963272342
9.963283957
9.963247327
9.963306954
9.963221489
9.963158856
9.963247665
9.963269612
9.963236781
9.963236781
9.963236781
9.963272234
9.963298022
9.963299481
9.963231346
9.963243247
9.963240701
9.963213728
9.963307064
9.963301217
9.963279646
9.963279646
9.963279646
9.963300234
9.963264999
9.963262407
9.9632656
9.963291986
9.963268364
9.963330374
9.963276189
9.963258375
)
;
    }
}


// ************************************************************************* //
