/*--------------------------------*- C++ -*----------------------------------*\
| =========                 |                                                 |
| \\      /  F ield         | OpenFOAM: The Open Source CFD Toolbox           |
|  \\    /   O peration     | Version:  4.x                                   |
|   \\  /    A nd           | Web:      www.OpenFOAM.org                      |
|    \\/     M anipulation  |                                                 |
\*---------------------------------------------------------------------------*/
FoamFile
{
    version     2.0;
    format      ascii;
    class       volScalarField;
    location    "6000";
    object      rho;
}
// * * * * * * * * * * * * * * * * * * * * * * * * * * * * * * * * * * * * * //

dimensions      [1 -3 0 0 0 0 0];

internalField   nonuniform List<scalar> 
1174
(
0.2699634219
0.2699637292
0.2699641505
0.2699646933
0.2699653338
0.2699660643
0.2699669018
0.2699677856
0.2699686647
0.269969598
0.2699704815
0.2699713495
0.2699721609
0.269972796
0.2699638492
0.2699643283
0.2699649405
0.2699656962
0.2699665118
0.269967416
0.2699683583
0.2699693746
0.2699703369
0.2699712481
0.2699721332
0.2699729682
0.2699737319
0.2699742915
0.269964707
0.2699655333
0.2699665053
0.2699676208
0.2699687735
0.2699699237
0.2699711249
0.2699721828
0.2699731756
0.2699741445
0.2699749691
0.2699757469
0.2699763706
0.2699769023
0.2699654095
0.269966627
0.2699680209
0.2699695189
0.2699710034
0.2699723279
0.2699735904
0.2699746964
0.269975694
0.2699765588
0.2699773484
0.2699779849
0.2699785178
0.269978886
0.2699660006
0.2699674798
0.269969081
0.269970697
0.2699722313
0.2699736219
0.2699748649
0.2699759623
0.2699768872
0.2699777009
0.2699783637
0.2699789203
0.2699793591
0.2699797074
0.2699651742
0.2699663846
0.2699678042
0.2699692408
0.2699707019
0.2699720596
0.2699733404
0.2699745089
0.2699755201
0.269976372
0.2699770482
0.2699776513
0.2699781782
0.2699785671
0.2699648695
0.2699656637
0.269966649
0.2699677921
0.2699689817
0.2699701182
0.2699712596
0.2699723411
0.2699733719
0.2699742812
0.2699751444
0.2699759041
0.2699765523
0.2699770471
0.2699643725
0.2699648003
0.2699654431
0.2699661528
0.2699670334
0.2699679605
0.2699689139
0.2699698796
0.2699708546
0.2699717921
0.2699727128
0.2699735842
0.2699742987
0.2699748732
0.2699635621
0.2699638674
0.269964264
0.2699647982
0.2699654636
0.2699662297
0.2699670368
0.2699679081
0.2699688175
0.269969724
0.2699705857
0.2699714553
0.2699722682
0.2699728781
0.2699634057
0.2699637473
0.2699642068
0.2699647776
0.2699655145
0.2699663806
0.2699673199
0.269968293
0.2699692938
0.2699702564
0.2699711842
0.2699720951
0.2699729229
0.2699736875
0.2699742591
0.2699641789
0.2699649849
0.2699659605
0.2699670099
0.2699680963
0.2699692286
0.2699702686
0.2699712773
0.2699722266
0.2699731261
0.2699739196
0.269974654
0.2699752868
0.2699757337
0.2699657209
0.2699672481
0.2699688714
0.2699704746
0.2699719889
0.2699733489
0.2699745164
0.2699754904
0.2699763283
0.2699770651
0.2699776124
0.2699780908
0.2699785335
0.2699788491
0.2699691048
0.2699715874
0.2699739632
0.26997597
0.2699776179
0.2699789194
0.2699799129
0.2699806135
0.2699811604
0.269981513
0.269981795
0.2699819717
0.2699821443
0.2699822257
0.2699697545
0.2699727413
0.2699752407
0.2699771517
0.2699786132
0.2699796716
0.269980401
0.269980903
0.2699812162
0.2699814132
0.2699815169
0.2699815617
0.2699815453
0.2699815695
0.2699683406
0.2699707966
0.2699731871
0.2699752304
0.2699768662
0.2699781785
0.2699791716
0.2699798675
0.2699804198
0.2699807727
0.2699810408
0.269981229
0.2699813967
0.2699814161
0.269965616
0.2699671527
0.2699687888
0.2699704158
0.2699719353
0.2699733014
0.2699744449
0.2699754865
0.2699763082
0.2699770299
0.2699776521
0.2699781536
0.2699785723
0.2699789052
0.2699642096
0.2699650303
0.2699659901
0.2699670681
0.2699681962
0.269969355
0.2699704447
0.2699714908
0.2699724397
0.2699733271
0.269974092
0.2699748184
0.2699754537
0.2699759271
0.2699631631
0.269963661
0.2699642534
0.2699649966
0.2699658131
0.2699667347
0.2699677019
0.2699686658
0.2699696331
0.2699705999
0.2699715427
0.2699723673
0.269973099
0.2699736865
0.2699640222
0.2699646471
0.2699654511
0.2699664523
0.2699675681
0.2699687651
0.26996992
0.2699710837
0.2699722015
0.2699732291
0.2699741871
0.2699749811
0.269975729
0.2699763787
0.2699769187
0.2699645205
0.2699657776
0.2699673003
0.2699689458
0.2699705904
0.269972128
0.2699733961
0.2699745613
0.2699755591
0.2699763954
0.2699771075
0.2699777142
0.2699782516
0.2699786322
0.2699788947
0.2699696468
0.2699728055
0.2699756236
0.269977882
0.2699795826
0.269980795
0.2699815417
0.2699820502
0.2699822751
0.2699823927
0.2699823741
0.2699823027
0.2699821941
0.2699821223
0.2699807645
0.2699859601
0.2699894433
0.269991453
0.2699924073
0.2699925506
0.2699922136
0.2699915878
0.2699908657
0.2699900831
0.2699893123
0.2699885955
0.269987944
0.2699874202
0.2699914335
0.2699965201
0.2699985673
0.2699988001
0.2699980475
0.2699967612
0.2699953082
0.2699938205
0.2699924111
0.2699911146
0.2699899459
0.2699888496
0.2699879555
0.2699872792
0.2699805484
0.2699857858
0.2699892876
0.2699913113
0.2699922206
0.2699923537
0.2699920282
0.2699914101
0.2699906747
0.2699899034
0.2699891135
0.2699883632
0.2699876985
0.2699871939
0.2699720109
0.2699751952
0.2699780115
0.2699802866
0.2699819918
0.2699831434
0.2699839093
0.2699843875
0.2699846312
0.2699846892
0.2699846665
0.2699846
0.2699845049
0.2699844361
0.2699648513
0.2699664129
0.2699680555
0.2699696665
0.2699711715
0.2699725466
0.2699737376
0.2699747617
0.2699755908
0.2699762842
0.2699768987
0.2699773841
0.2699777679
0.2699780303
0.269964552
0.2699654149
0.2699664312
0.2699675359
0.2699687455
0.2699699173
0.2699710325
0.2699721082
0.2699731422
0.2699740788
0.2699749111
0.2699756796
0.269976336
0.2699768313
0.2699652355
0.2699662211
0.2699674733
0.2699688283
0.269970297
0.2699717478
0.2699731185
0.2699743759
0.2699755718
0.2699765164
0.2699773932
0.2699781479
0.2699787483
0.2699792878
0.2699796826
0.2699656323
0.2699679626
0.269970438
0.269972761
0.2699748008
0.2699764025
0.269977695
0.269978703
0.2699794157
0.269979961
0.2699803029
0.2699805965
0.2699807658
0.2699809007
0.2699809639
0.26997296
0.2699794176
0.2699846179
0.2699881118
0.2699901161
0.2699910131
0.2699910997
0.2699907661
0.2699900857
0.269989363
0.26998858
0.269987784
0.2699870565
0.269986386
0.2699859087
0.2700092603
0.2700155006
0.2700162303
0.270014091
0.2700107619
0.2700070693
0.2700034707
0.270000247
0.2699973548
0.2699948625
0.2699927049
0.269990847
0.2699892758
0.2699881541
0.270075213
0.2700663571
0.2700534043
0.2700411823
0.2700308959
0.2700225224
0.2700158305
0.2700104187
0.2700060338
0.2700024684
0.269999542
0.2699970998
0.2699951421
0.2699937288
0.2700135844
0.270019818
0.2700205455
0.2700184181
0.2700150552
0.2700114282
0.2700078233
0.2700045585
0.2700016848
0.2699991373
0.2699969302
0.2699950777
0.2699934796
0.2699923768
0.2699791096
0.269984311
0.2699878064
0.2699898632
0.2699907477
0.2699908735
0.2699905406
0.2699899185
0.2699892118
0.2699884261
0.2699876413
0.2699869048
0.2699862347
0.2699857705
0.2699692583
0.2699717327
0.2699740931
0.2699761429
0.2699777674
0.2699790459
0.2699800463
0.2699807471
0.2699812496
0.2699816445
0.2699818665
0.2699820745
0.2699822067
0.2699822462
0.2699647864
0.2699660059
0.2699673742
0.2699688278
0.2699702853
0.2699716662
0.2699729458
0.2699740855
0.2699750431
0.2699758644
0.2699766072
0.2699772436
0.2699777565
0.2699781099
0.2699646703
0.2699658744
0.2699673338
0.2699689152
0.269970529
0.2699720314
0.2699734222
0.2699747039
0.2699758004
0.2699767226
0.2699774661
0.2699781457
0.2699787383
0.2699792123
0.2699795258
0.269966696
0.2699699064
0.2699728806
0.2699753669
0.2699773077
0.2699787731
0.2699798414
0.26998057
0.269981095
0.2699813631
0.269981615
0.2699817151
0.2699817026
0.2699816838
0.2699816596
0.2699827496
0.2699919644
0.2699970198
0.2699990699
0.2699992997
0.2699985738
0.2699973294
0.2699958997
0.2699944154
0.269992989
0.2699916923
0.2699904944
0.2699894154
0.2699884601
0.2699877471
0.2700644497
0.2700748067
0.2700659958
0.270053017
0.2700407717
0.2700304895
0.2700221511
0.2700154902
0.2700101272
0.2700058309
0.2700022311
0.2699992689
0.2699968323
0.2699948397
0.2699934671
0.271607203
0.2714702595
0.2713955403
0.271352503
0.2713263602
0.2713096725
0.2712985215
0.2712907558
0.2712852603
0.2712812301
0.2712782556
0.2712760818
0.2712745542
0.2712737966
0.270076217
0.2700673651
0.2700543672
0.2700421233
0.2700318413
0.2700234469
0.2700167853
0.2700114129
0.2700070455
0.2700034825
0.2700005068
0.2699981073
0.2699961384
0.2699946985
0.2699919271
0.2699969936
0.2699990769
0.2699993462
0.2699986264
0.269997317
0.2699958232
0.2699943419
0.2699928851
0.2699915471
0.2699903538
0.2699892954
0.2699883699
0.2699876825
0.2699717671
0.2699747093
0.2699771769
0.2699791109
0.2699805966
0.2699816709
0.2699823903
0.2699829161
0.2699832215
0.269983384
0.2699834738
0.2699835333
0.2699835475
0.269983558
0.2699660119
0.2699674641
0.2699690663
0.2699706836
0.2699721703
0.2699735458
0.2699747896
0.2699759052
0.2699768321
0.2699776481
0.2699783254
0.269978873
0.2699792946
0.2699796119
0.2699629515
0.269963942
0.2699651556
0.2699665697
0.2699680374
0.2699694699
0.2699708532
0.2699721171
0.2699732498
0.2699742472
0.2699750915
0.2699758095
0.269976419
0.269976971
0.2699773455
0.2699663337
0.2699686538
0.2699711159
0.269973468
0.269975475
0.2699771161
0.2699783869
0.2699793689
0.2699801003
0.2699806099
0.2699810228
0.2699812967
0.2699814596
0.2699815609
0.2699816206
0.2699735919
0.2699800612
0.2699852889
0.2699888099
0.2699908174
0.2699916615
0.2699917927
0.2699914971
0.2699908813
0.2699901532
0.2699893623
0.2699886266
0.269987882
0.2699871942
0.2699867151
0.2699966128
0.2700112408
0.270017497
0.2700182547
0.2700161154
0.2700127099
0.270008984
0.2700054226
0.2700021703
0.2699992957
0.2699967706
0.2699945951
0.2699927691
0.2699912319
0.2699901335
0.2700644567
0.2700748857
0.2700660326
0.2700530693
0.2700408302
0.2700305275
0.2700221683
0.2700154969
0.2700100754
0.2700057008
0.2700021408
0.2699992114
0.2699967423
0.2699947644
0.269993333
0.2699966578
0.2700113071
0.2700175454
0.2700182892
0.2700161387
0.2700127486
0.2700090176
0.2700053975
0.2700021338
0.2699992563
0.2699967692
0.2699945885
0.2699927191
0.2699911693
0.2699900327
0.2699800117
0.2699851776
0.2699886729
0.2699906582
0.2699915044
0.2699916136
0.2699912575
0.2699906077
0.2699898606
0.2699890788
0.2699883098
0.2699875841
0.2699869472
0.2699864541
0.2699684189
0.2699709397
0.2699732812
0.2699753144
0.2699769544
0.2699782501
0.2699792145
0.2699799617
0.2699805178
0.2699809221
0.2699812322
0.2699813939
0.2699815681
0.2699816282
0.269965419
0.2699666411
0.2699680087
0.2699694834
0.269970905
0.2699722906
0.2699735565
0.2699747128
0.2699756774
0.2699765175
0.2699772349
0.2699778752
0.2699783883
0.2699787233
0.2699640641
0.2699646155
0.2699654092
0.2699664349
0.2699675507
0.2699687462
0.2699699363
0.2699711121
0.2699721722
0.2699732454
0.2699741656
0.2699750162
0.2699757636
0.2699764055
0.2699768708
0.2699639902
0.2699652207
0.2699667631
0.2699683968
0.2699700086
0.2699715463
0.2699728931
0.2699740271
0.2699750041
0.2699758147
0.2699764916
0.2699770761
0.2699775744
0.2699779761
0.2699782661
0.2699684301
0.2699714992
0.2699746223
0.2699774661
0.2699797319
0.2699813946
0.2699826047
0.269983375
0.2699838437
0.2699841486
0.2699842907
0.2699842858
0.2699842438
0.269984137
0.2699841052
0.2699728802
0.2699793423
0.2699845047
0.2699880094
0.2699900298
0.2699908775
0.2699909826
0.2699906619
0.2699900384
0.2699892862
0.2699884976
0.2699877202
0.2699869709
0.2699863776
0.2699858324
0.2699815059
0.269990715
0.2699957536
0.2699978071
0.2699980154
0.2699972661
0.2699960258
0.2699946133
0.2699931346
0.2699916802
0.2699903619
0.2699891823
0.2699880933
0.2699871787
0.2699864845
0.269973611
0.2699800812
0.2699852366
0.2699887808
0.269990819
0.269991737
0.269991858
0.2699915317
0.2699909332
0.2699902087
0.2699894607
0.2699886741
0.2699879544
0.2699872952
0.2699867905
0.2699674448
0.2699704568
0.2699735811
0.2699764023
0.2699786718
0.269980403
0.269981604
0.2699823788
0.2699828568
0.2699831075
0.2699832313
0.2699832797
0.2699832234
0.2699831632
0.2699830688
0.2699651609
0.2699667149
0.2699683804
0.2699699988
0.269971506
0.2699728432
0.269974012
0.2699750314
0.2699758627
0.2699765758
0.2699771645
0.269977681
0.2699780556
0.2699783264
0.2699644187
0.2699652484
0.2699662428
0.2699673348
0.269968551
0.2699697227
0.269970902
0.2699719977
0.2699730699
0.2699740069
0.269974865
0.2699756202
0.2699762473
0.2699767391
0.2699640368
0.2699643669
0.2699648262
0.2699654777
0.2699662193
0.2699670546
0.2699679517
0.2699689119
0.2699699145
0.2699708798
0.2699717872
0.269972688
0.2699735149
0.2699742699
0.269974871
0.2699645061
0.2699650862
0.2699658639
0.2699668435
0.2699679531
0.2699690474
0.2699701923
0.2699712718
0.2699722914
0.2699732557
0.2699741298
0.2699749413
0.2699756909
0.2699763148
0.2699767715
0.2699635954
0.2699648343
0.2699663566
0.2699679564
0.2699695557
0.2699710608
0.2699723962
0.2699735302
0.2699745167
0.2699753449
0.2699760025
0.269976568
0.2699770838
0.2699774972
0.269977798
0.269965553
0.2699678701
0.2699703853
0.2699727167
0.2699747754
0.2699764814
0.269977767
0.2699787484
0.2699794339
0.2699799288
0.2699803124
0.2699805401
0.2699807088
0.2699808455
0.2699808886
0.2699672341
0.2699703912
0.2699733987
0.2699758781
0.2699778242
0.2699792787
0.2699803359
0.2699810905
0.269981554
0.2699818532
0.26998208
0.2699821576
0.2699821982
0.2699821979
0.269982132
0.269964761
0.2699671053
0.2699696094
0.2699719688
0.269973983
0.2699755945
0.269976914
0.269977876
0.2699786044
0.269979161
0.2699795127
0.2699797708
0.2699799632
0.2699800764
0.2699801982
0.2699656272
0.2699668862
0.2699684103
0.2699700562
0.2699716705
0.269973143
0.2699744572
0.269975609
0.2699765921
0.269977466
0.2699781405
0.2699787262
0.2699792354
0.2699796515
0.2699799451
0.2699644977
0.2699651109
0.2699659481
0.2699669101
0.2699679935
0.2699690812
0.2699702468
0.2699713575
0.2699723618
0.2699733095
0.2699742029
0.2699750434
0.2699757732
0.2699764455
0.2699768796
0.2699639039
0.2699643471
0.2699649561
0.2699657079
0.2699665806
0.2699675097
0.26996845
0.2699694003
0.2699703305
0.2699712673
0.2699721427
0.2699729649
0.2699737491
0.2699743062
0.269963989
0.2699641744
0.2699645002
0.2699649457
0.2699654793
0.2699660909
0.2699668525
0.2699676549
0.2699685445
0.2699694162
0.2699703477
0.2699712454
0.2699720872
0.2699728561
0.2699734967
0.2699631493
0.2699634607
0.2699639046
0.2699645072
0.2699652795
0.2699661127
0.269967042
0.2699680602
0.2699690483
0.2699700111
0.2699709518
0.2699718173
0.269972637
0.2699734031
0.269973985
0.2699634006
0.2699639923
0.2699648129
0.26996581
0.2699669268
0.2699681011
0.2699692516
0.269970414
0.2699714945
0.2699724916
0.2699734731
0.2699742964
0.2699750521
0.2699756953
0.2699761718
0.2699640803
0.2699650628
0.2699663238
0.2699677452
0.2699692009
0.2699706707
0.2699720746
0.2699733307
0.2699744271
0.2699754338
0.2699762983
0.2699770041
0.2699776709
0.2699781618
0.2699785344
0.2699651803
0.2699663964
0.2699678586
0.2699694642
0.2699710729
0.2699725638
0.2699739454
0.2699751834
0.2699762445
0.2699771757
0.2699779885
0.2699786277
0.269979185
0.2699796586
0.2699800085
0.2699641474
0.2699650817
0.2699663069
0.2699677218
0.2699691578
0.2699706125
0.2699720163
0.2699732788
0.2699744034
0.2699754142
0.2699763043
0.2699770679
0.2699776906
0.2699782336
0.269978648
0.2699652849
0.269965884
0.2699666914
0.2699676658
0.2699687993
0.2699699774
0.2699711688
0.2699723236
0.2699734071
0.2699744414
0.2699753938
0.2699762233
0.2699769698
0.2699776201
0.2699780656
0.2699634292
0.2699637274
0.2699641894
0.2699648415
0.2699655839
0.2699664564
0.2699674215
0.2699683995
0.2699693719
0.2699703349
0.2699712548
0.2699721789
0.2699730047
0.2699737489
0.2699743343
0.2699628153
0.2699630367
0.2699633062
0.2699637325
0.2699642761
0.2699649166
0.2699656306
0.2699664665
0.2699673679
0.2699683023
0.2699692257
0.2699701487
0.2699710015
0.2699718057
0.2699724501
)
;

boundaryField
{
    top
    {
        type            calculated;
        value           nonuniform List<scalar> 
127
(
0.2699628153
0.2699635621
0.2699631631
0.269964552
0.2699647864
0.2699660119
0.269965419
0.2699644187
0.2699639039
0.2699630367
0.2699638674
0.269963661
0.2699654149
0.2699660059
0.2699674641
0.2699666411
0.2699652484
0.2699643471
0.2699633062
0.269964264
0.2699642534
0.2699664312
0.2699673742
0.2699690663
0.2699680087
0.2699662428
0.2699649561
0.2699637325
0.2699647982
0.2699649966
0.2699675359
0.2699688278
0.2699706836
0.2699694834
0.2699673348
0.2699657079
0.2699642761
0.2699654636
0.2699658131
0.2699687455
0.2699702853
0.2699721703
0.269970905
0.269968551
0.2699665806
0.2699649166
0.2699662297
0.2699667347
0.2699699173
0.2699716662
0.2699735458
0.2699722906
0.2699697227
0.2699675097
0.2699656306
0.2699670368
0.2699677019
0.2699710325
0.2699729458
0.2699747896
0.2699735565
0.269970902
0.26996845
0.2699664665
0.2699679081
0.2699686658
0.2699721082
0.2699740855
0.2699759052
0.2699747128
0.2699719977
0.2699694003
0.2699673679
0.2699688175
0.2699696331
0.2699731422
0.2699750431
0.2699768321
0.2699756774
0.2699730699
0.2699703305
0.2699683023
0.269969724
0.2699705999
0.2699740788
0.2699758644
0.2699776481
0.2699765175
0.2699740069
0.2699712673
0.2699692257
0.2699705857
0.2699715427
0.2699749111
0.2699766072
0.2699783254
0.2699772349
0.269974865
0.2699721427
0.2699701487
0.2699714553
0.2699723673
0.2699756796
0.2699772436
0.269978873
0.2699778752
0.2699756202
0.2699729649
0.2699710015
0.2699722682
0.269973099
0.269976336
0.2699777565
0.2699792946
0.2699783883
0.2699762473
0.2699737491
0.2699718057
0.2699728781
0.2699736865
0.2699768313
0.2699781099
0.2699796119
0.2699787233
0.2699767391
0.2699743062
0.2699724501
)
;
    }
    bottom
    {
        type            calculated;
        value           nonuniform List<scalar> 
134
(
0.2699634057
0.2699640222
0.2699652355
0.2699646703
0.2699629515
0.2699640641
0.2699640368
0.269963989
0.2699634219
0.2699637473
0.2699646471
0.2699662211
0.2699658744
0.269963942
0.2699646155
0.2699643669
0.2699641744
0.2699637292
0.2699642068
0.2699654511
0.2699674733
0.2699673338
0.2699651556
0.2699654092
0.2699648262
0.2699645002
0.2699641505
0.2699647776
0.2699664523
0.2699688283
0.2699689152
0.2699665697
0.2699664349
0.2699654777
0.2699649457
0.2699646933
0.2699655145
0.2699675681
0.269970297
0.269970529
0.2699680374
0.2699675507
0.2699662193
0.2699654793
0.2699653338
0.2699663806
0.2699687651
0.2699717478
0.2699720314
0.2699694699
0.2699687462
0.2699670546
0.2699660909
0.2699660643
0.2699673199
0.26996992
0.2699731185
0.2699734222
0.2699708532
0.2699699363
0.2699679517
0.2699668525
0.2699669018
0.269968293
0.2699710837
0.2699743759
0.2699747039
0.2699721171
0.2699711121
0.2699689119
0.2699676549
0.2699677856
0.2699692938
0.2699722015
0.2699755718
0.2699758004
0.2699732498
0.2699721722
0.2699699145
0.2699685445
0.2699686647
0.2699702564
0.2699732291
0.2699765164
0.2699767226
0.2699742472
0.2699732454
0.2699708798
0.2699694162
0.269969598
0.2699711842
0.2699741871
0.2699773932
0.2699774661
0.2699750915
0.2699741656
0.2699717872
0.2699703477
0.2699704815
0.2699720951
0.2699749811
0.2699781479
0.2699781457
0.2699758095
0.2699750162
0.269972688
0.2699712454
0.2699713495
0.2699729229
0.269975729
0.2699787483
0.2699787383
0.269976419
0.2699757636
0.2699735149
0.2699720872
0.2699721609
0.2699736875
0.2699763787
0.2699792878
0.2699792123
0.269976971
0.2699764055
0.2699742699
0.2699728561
0.269972796
0.2699742591
0.2699769187
0.2699796826
0.2699795258
0.2699773455
0.2699768708
0.269974871
0.2699734967
)
;
    }
    side-walls
    {
        type            calculated;
        value           nonuniform List<scalar> 
261
(
0.2699634219
0.2699638492
0.269964707
0.2699654095
0.2699660006
0.2699651742
0.2699648695
0.2699643725
0.2699635621
0.2699637292
0.2699643283
0.2699655333
0.269966627
0.2699674798
0.2699663846
0.2699656637
0.2699648003
0.2699638674
0.2699641505
0.2699649405
0.2699665053
0.2699680209
0.269969081
0.2699678042
0.269966649
0.2699654431
0.269964264
0.2699646933
0.2699656962
0.2699676208
0.2699695189
0.269970697
0.2699692408
0.2699677921
0.2699661528
0.2699647982
0.2699653338
0.2699665118
0.2699687735
0.2699710034
0.2699722313
0.2699707019
0.2699689817
0.2699670334
0.2699654636
0.2699660643
0.269967416
0.2699699237
0.2699723279
0.2699736219
0.2699720596
0.2699701182
0.2699679605
0.2699662297
0.2699669018
0.2699683583
0.2699711249
0.2699735904
0.2699748649
0.2699733404
0.2699712596
0.2699689139
0.2699670368
0.2699677856
0.2699693746
0.2699721828
0.2699746964
0.2699759623
0.2699745089
0.2699723411
0.2699698796
0.2699679081
0.2699686647
0.2699703369
0.2699731756
0.269975694
0.2699768872
0.2699755201
0.2699733719
0.2699708546
0.2699688175
0.269969598
0.2699712481
0.2699741445
0.2699765588
0.2699777009
0.269976372
0.2699742812
0.2699717921
0.269969724
0.2699704815
0.2699721332
0.2699749691
0.2699773484
0.2699783637
0.2699770482
0.2699751444
0.2699727128
0.2699705857
0.2699713495
0.2699729682
0.2699757469
0.2699779849
0.2699789203
0.2699776513
0.2699759041
0.2699735842
0.2699714553
0.2699721609
0.2699737319
0.2699763706
0.2699785178
0.2699793591
0.2699781782
0.2699765523
0.2699742987
0.2699722682
0.269972796
0.2699742915
0.2699769023
0.269978886
0.2699797074
0.2699785671
0.2699770471
0.2699748732
0.2699728781
0.269963989
0.2699631493
0.2699634006
0.2699640803
0.2699651803
0.2699641474
0.2699652849
0.2699634292
0.2699628153
0.2699641744
0.2699634607
0.2699639923
0.2699650628
0.2699663964
0.2699650817
0.269965884
0.2699637274
0.2699630367
0.2699645002
0.2699639046
0.2699648129
0.2699663238
0.2699678586
0.2699663069
0.2699666914
0.2699641894
0.2699633062
0.2699649457
0.2699645072
0.26996581
0.2699677452
0.2699694642
0.2699677218
0.2699676658
0.2699648415
0.2699637325
0.2699654793
0.2699652795
0.2699669268
0.2699692009
0.2699710729
0.2699691578
0.2699687993
0.2699655839
0.2699642761
0.2699660909
0.2699661127
0.2699681011
0.2699706707
0.2699725638
0.2699706125
0.2699699774
0.2699664564
0.2699649166
0.2699668525
0.269967042
0.2699692516
0.2699720746
0.2699739454
0.2699720163
0.2699711688
0.2699674215
0.2699656306
0.2699676549
0.2699680602
0.269970414
0.2699733307
0.2699751834
0.2699732788
0.2699723236
0.2699683995
0.2699664665
0.2699685445
0.2699690483
0.2699714945
0.2699744271
0.2699762445
0.2699744034
0.2699734071
0.2699693719
0.2699673679
0.2699694162
0.2699700111
0.2699724916
0.2699754338
0.2699771757
0.2699754142
0.2699744414
0.2699703349
0.2699683023
0.2699703477
0.2699709518
0.2699734731
0.2699762983
0.2699779885
0.2699763043
0.2699753938
0.2699712548
0.2699692257
0.2699712454
0.2699718173
0.2699742964
0.2699770041
0.2699786277
0.2699770679
0.2699762233
0.2699721789
0.2699701487
0.2699720872
0.269972637
0.2699750521
0.2699776709
0.269979185
0.2699776906
0.2699769698
0.2699730047
0.2699710015
0.2699728561
0.2699734031
0.2699756953
0.2699781618
0.2699796586
0.2699782336
0.2699776201
0.2699737489
0.2699718057
0.2699734967
0.269973985
0.2699761718
0.2699785344
0.2699800085
0.269978648
0.2699780656
0.2699743343
0.2699724501
)
;
    }
    inlet
    {
        type            calculated;
        value           nonuniform 0();
    }
    outlet
    {
        type            calculated;
        value           nonuniform List<scalar> 
81
(
0.269972796
0.2699742915
0.2699769023
0.269978886
0.2699797074
0.2699785671
0.2699770471
0.2699748732
0.2699728781
0.2699742591
0.2699757337
0.2699788491
0.2699822257
0.2699815695
0.2699814161
0.2699789052
0.2699759271
0.2699736865
0.2699769187
0.2699788947
0.2699821223
0.2699874202
0.2699872792
0.2699871939
0.2699844361
0.2699780303
0.2699768313
0.2699796826
0.2699809639
0.2699859087
0.2699881541
0.2699937288
0.2699923768
0.2699857705
0.2699822462
0.2699781099
0.2699795258
0.2699816596
0.2699877471
0.2699934671
0.2712737966
0.2699946985
0.2699876825
0.269983558
0.2699796119
0.2699773455
0.2699816206
0.2699867151
0.2699901335
0.269993333
0.2699900327
0.2699864541
0.2699816282
0.2699787233
0.2699768708
0.2699782661
0.2699841052
0.2699858324
0.2699864845
0.2699867905
0.2699830688
0.2699783264
0.2699767391
0.269974871
0.2699767715
0.269977798
0.2699808886
0.269982132
0.2699801982
0.2699799451
0.2699768796
0.2699743062
0.2699734967
0.269973985
0.2699761718
0.2699785344
0.2699800085
0.269978648
0.2699780656
0.2699743343
0.2699724501
)
;
    }
    procBoundary1to0
    {
        type            processor;
        value           nonuniform List<scalar> 
97
(
0.2699632239
0.2699632239
0.2699635458
0.269964129
0.2699644441
0.2699647721
0.2699641666
0.2699643074
0.2699640179
0.2699633643
0.2699632449
0.2699636036
0.2699636036
0.2699636036
0.2699645286
0.2699667561
0.2699665804
0.2699660342
0.269964368
0.2699635824
0.2699628419
0.26996367
0.2699636902
0.269966635
0.269966635
0.269966635
0.2699742655
0.2699822401
0.2699740998
0.2699690066
0.2699636459
0.2699639438
0.2699646166
0.2699638619
0.269966925
0.2699946634
0.2699946634
0.2699946634
0.2700648254
0.2699989635
0.2699726727
0.2699669776
0.2699638444
0.2699638163
0.2699640111
0.2699702357
0.2699905498
0.2718735735
0.2718735735
0.2718735735
0.2700658255
0.2700658255
0.2699827409
0.269968597
0.2699647721
0.2699623664
0.2699646486
0.2699675215
0.269974519
0.2699905156
0.2699746159
0.2699735605
0.2699735605
0.2699735605
0.2699660604
0.2699644207
0.2699636895
0.2699631492
0.2699661424
0.2699668331
0.2699690323
0.269967546
0.2699651115
0.2699639207
0.2699639207
0.2699639207
0.2699638361
0.2699638593
0.2699641174
0.2699627262
0.2699638755
0.2699645865
0.2699630709
0.2699647673
0.2699641385
0.269963613
0.269963613
0.269963613
0.2699638355
0.2699629723
0.2699630889
0.2699634365
0.2699643288
0.2699635069
0.2699649492
0.2699632257
0.2699627113
)
;
    }
}


// ************************************************************************* //
