/*--------------------------------*- C++ -*----------------------------------*\
| =========                 |                                                 |
| \\      /  F ield         | OpenFOAM: The Open Source CFD Toolbox           |
|  \\    /   O peration     | Version:  4.x                                   |
|   \\  /    A nd           | Web:      www.OpenFOAM.org                      |
|    \\/     M anipulation  |                                                 |
\*---------------------------------------------------------------------------*/
FoamFile
{
    version     2.0;
    format      ascii;
    class       volScalarField;
    location    "6000";
    object      T;
}
// * * * * * * * * * * * * * * * * * * * * * * * * * * * * * * * * * * * * * //

dimensions      [0 0 0 1 0 0 0];

internalField   nonuniform List<scalar> 
1174
(
1223.151082
1223.151379
1223.15183
1223.152418
1223.153208
1223.154143
1223.155026
1223.156001
1223.157169
1223.158141
1223.159282
1223.16032
1223.161241
1223.161946
1223.150699
1223.151188
1223.151919
1223.152751
1223.153907
1223.155073
1223.1563
1223.157263
1223.158411
1223.159627
1223.160719
1223.16172
1223.162575
1223.163344
1223.150207
1223.15108
1223.15233
1223.153633
1223.155124
1223.156679
1223.157821
1223.15927
1223.160572
1223.161492
1223.162559
1223.163324
1223.164209
1223.164558
1223.151928
1223.153486
1223.15521
1223.156829
1223.158393
1223.16023
1223.161691
1223.16311
1223.164249
1223.165245
1223.16589
1223.166595
1223.167148
1223.167612
1223.152695
1223.154392
1223.156213
1223.158002
1223.159743
1223.161439
1223.162963
1223.164262
1223.165476
1223.166386
1223.16725
1223.167942
1223.168555
1223.168812
1223.152994
1223.154584
1223.156191
1223.158089
1223.159759
1223.161445
1223.162824
1223.16396
1223.165037
1223.166091
1223.16725
1223.168106
1223.168687
1223.169056
1223.149471
1223.150489
1223.151679
1223.152857
1223.154181
1223.155798
1223.157211
1223.158552
1223.159682
1223.160873
1223.161765
1223.162612
1223.163385
1223.163902
1223.148329
1223.149049
1223.149642
1223.150683
1223.151544
1223.152607
1223.153782
1223.154975
1223.156065
1223.157162
1223.158093
1223.158929
1223.160007
1223.160709
1223.150447
1223.150752
1223.151315
1223.151943
1223.152619
1223.153393
1223.154414
1223.155446
1223.156476
1223.15757
1223.158809
1223.159841
1223.160755
1223.161574
1223.150893
1223.151161
1223.151738
1223.152657
1223.153575
1223.154502
1223.155509
1223.156596
1223.157629
1223.158776
1223.159916
1223.160892
1223.161925
1223.162776
1223.163491
1223.152651
1223.153574
1223.154675
1223.156047
1223.157522
1223.158789
1223.160272
1223.161571
1223.162739
1223.163701
1223.164703
1223.165526
1223.166291
1223.166992
1223.154225
1223.156015
1223.158024
1223.159985
1223.161687
1223.163156
1223.164484
1223.165708
1223.166663
1223.167307
1223.168159
1223.168771
1223.16904
1223.169237
1223.153871
1223.156868
1223.159487
1223.16195
1223.163914
1223.165412
1223.166544
1223.167562
1223.168142
1223.168732
1223.168988
1223.169234
1223.169141
1223.169174
1223.164815
1223.168246
1223.171126
1223.173605
1223.175338
1223.176592
1223.177523
1223.178103
1223.178508
1223.178688
1223.178751
1223.178706
1223.1787
1223.17842
1223.157333
1223.160451
1223.163003
1223.165301
1223.167319
1223.168769
1223.169902
1223.170941
1223.171497
1223.172087
1223.172405
1223.172599
1223.172528
1223.172842
1223.154699
1223.156447
1223.158398
1223.160251
1223.161929
1223.163371
1223.164808
1223.165726
1223.166753
1223.167466
1223.167979
1223.168486
1223.168864
1223.168983
1223.152512
1223.153368
1223.154541
1223.155783
1223.157069
1223.158215
1223.159474
1223.160603
1223.161773
1223.16279
1223.163922
1223.164781
1223.165535
1223.166116
1223.153808
1223.154212
1223.155032
1223.155921
1223.157073
1223.15816
1223.159274
1223.160474
1223.161599
1223.162564
1223.163395
1223.164442
1223.165442
1223.166086
1223.149952
1223.150479
1223.151453
1223.15257
1223.153872
1223.155163
1223.156696
1223.158008
1223.159185
1223.160329
1223.161299
1223.162505
1223.163405
1223.164172
1223.164484
1223.152546
1223.153968
1223.155779
1223.157687
1223.15946
1223.161057
1223.162942
1223.164281
1223.165397
1223.166359
1223.167115
1223.167697
1223.168042
1223.168593
1223.16903
1223.161326
1223.16498
1223.16825
1223.170977
1223.172985
1223.174318
1223.175432
1223.175864
1223.176314
1223.176376
1223.17648
1223.176467
1223.176443
1223.176277
1223.165429
1223.171572
1223.175823
1223.178175
1223.178888
1223.178945
1223.178493
1223.177834
1223.176875
1223.175947
1223.175024
1223.174104
1223.173321
1223.17286
1223.187214
1223.193016
1223.195506
1223.195832
1223.194918
1223.193614
1223.191946
1223.190258
1223.18854
1223.186882
1223.185322
1223.184162
1223.182916
1223.182049
1223.166407
1223.172361
1223.176528
1223.178816
1223.179733
1223.179836
1223.179333
1223.178639
1223.17774
1223.176761
1223.175925
1223.175157
1223.174433
1223.173885
1223.150614
1223.154152
1223.15743
1223.160082
1223.162069
1223.163678
1223.164705
1223.165275
1223.16564
1223.165972
1223.166094
1223.166059
1223.165974
1223.165795
1223.158164
1223.159799
1223.16172
1223.163646
1223.16539
1223.166791
1223.168012
1223.169009
1223.170004
1223.170845
1223.171392
1223.171973
1223.172509
1223.172947
1223.150909
1223.151617
1223.152665
1223.154018
1223.155251
1223.156708
1223.15824
1223.159608
1223.160723
1223.16179
1223.162822
1223.163629
1223.164366
1223.16488
1223.147198
1223.148251
1223.149652
1223.151551
1223.153304
1223.155021
1223.156647
1223.158132
1223.159145
1223.160524
1223.161465
1223.162268
1223.163136
1223.16366
1223.164003
1223.156337
1223.159046
1223.162076
1223.164934
1223.167248
1223.169421
1223.17096
1223.172026
1223.172989
1223.173576
1223.174215
1223.174418
1223.174698
1223.174775
1223.174891
1223.163918
1223.171532
1223.177654
1223.181856
1223.184232
1223.185204
1223.185518
1223.185051
1223.184639
1223.183683
1223.182757
1223.181948
1223.181077
1223.180379
1223.179708
1223.220439
1223.22778
1223.22879
1223.226282
1223.222096
1223.217702
1223.213595
1223.209601
1223.206255
1223.203223
1223.200633
1223.198456
1223.196717
1223.195371
1223.276994
1223.266586
1223.251287
1223.236841
1223.224679
1223.214996
1223.207094
1223.200862
1223.195804
1223.191572
1223.188017
1223.185151
1223.182651
1223.180928
1223.200847
1223.208219
1223.20924
1223.206679
1223.202647
1223.197955
1223.193877
1223.190069
1223.186639
1223.183857
1223.181491
1223.17929
1223.177672
1223.176241
1223.172925
1223.179043
1223.183238
1223.185377
1223.186406
1223.186543
1223.186073
1223.185397
1223.184368
1223.183454
1223.182595
1223.181765
1223.181065
1223.180334
1223.153176
1223.156209
1223.158898
1223.161167
1223.163236
1223.164839
1223.165939
1223.166956
1223.167738
1223.168137
1223.168664
1223.168769
1223.168859
1223.169082
1223.154751
1223.1563
1223.158139
1223.15996
1223.161647
1223.163227
1223.164611
1223.165879
1223.167199
1223.168391
1223.169249
1223.169954
1223.170598
1223.171128
1223.151782
1223.153267
1223.155053
1223.156964
1223.158763
1223.160649
1223.162344
1223.163692
1223.164995
1223.166221
1223.16745
1223.168237
1223.168767
1223.16922
1223.169635
1223.160569
1223.164127
1223.167615
1223.170555
1223.172899
1223.174614
1223.175823
1223.176758
1223.177233
1223.177843
1223.177773
1223.177853
1223.178068
1223.178072
1223.178012
1223.174018
1223.18481
1223.190752
1223.193229
1223.193568
1223.192533
1223.19104
1223.189266
1223.187563
1223.185922
1223.184264
1223.182838
1223.181599
1223.18063
1223.179929
1223.266576
1223.278835
1223.268223
1223.253042
1223.238701
1223.22652
1223.216678
1223.208636
1223.202183
1223.196723
1223.192647
1223.189254
1223.186363
1223.184021
1223.182114
1217.882065
1217.717555
1217.625108
1217.5694
1217.533264
1217.508049
1217.489336
1217.474781
1217.462568
1217.452263
1217.443211
1217.435006
1217.427543
1217.420857
1223.272446
1223.262019
1223.246925
1223.232579
1223.220397
1223.210809
1223.20277
1223.196359
1223.191221
1223.186979
1223.183647
1223.180588
1223.178138
1223.176535
1223.184978
1223.19087
1223.193197
1223.193358
1223.192295
1223.191096
1223.189613
1223.187897
1223.186393
1223.184923
1223.183475
1223.182143
1223.18104
1223.180222
1223.155696
1223.159329
1223.162354
1223.164729
1223.166352
1223.167534
1223.168511
1223.168983
1223.169423
1223.169759
1223.169885
1223.169774
1223.169629
1223.169411
1223.152643
1223.154462
1223.156279
1223.158063
1223.16002
1223.161784
1223.163304
1223.164521
1223.165726
1223.166626
1223.167424
1223.168157
1223.168848
1223.169246
1223.157546
1223.158577
1223.160153
1223.161785
1223.163541
1223.165342
1223.166911
1223.168366
1223.169665
1223.170804
1223.171893
1223.172863
1223.17369
1223.174156
1223.174591
1223.153158
1223.155915
1223.159004
1223.161731
1223.164193
1223.166187
1223.167825
1223.169008
1223.169887
1223.170636
1223.170954
1223.171246
1223.171555
1223.171784
1223.171916
1223.161054
1223.168615
1223.174613
1223.178693
1223.181054
1223.182266
1223.182378
1223.181739
1223.181035
1223.180103
1223.179213
1223.178131
1223.177337
1223.176718
1223.176055
1223.194357
1223.211466
1223.218734
1223.219618
1223.21711
1223.213272
1223.209028
1223.204753
1223.200888
1223.197462
1223.194579
1223.19207
1223.189749
1223.187855
1223.186403
1223.266545
1223.278477
1223.268055
1223.252805
1223.238437
1223.226348
1223.216601
1223.208606
1223.202418
1223.197313
1223.193057
1223.189515
1223.186771
1223.184363
1223.182722
1223.194152
1223.211164
1223.218515
1223.219462
1223.217005
1223.213097
1223.208876
1223.204867
1223.201054
1223.197641
1223.194586
1223.192101
1223.189976
1223.188139
1223.186861
1223.168839
1223.175117
1223.179313
1223.181776
1223.182979
1223.18319
1223.182825
1223.182275
1223.18143
1223.180498
1223.179567
1223.178688
1223.177838
1223.177238
1223.156979
1223.159802
1223.162577
1223.164921
1223.16692
1223.168445
1223.169709
1223.170515
1223.171054
1223.171411
1223.171539
1223.171853
1223.171752
1223.171882
1223.151885
1223.153422
1223.155265
1223.15699
1223.158839
1223.160399
1223.161845
1223.163037
1223.164325
1223.165433
1223.166405
1223.167093
1223.167736
1223.16835
1223.149762
1223.150622
1223.151643
1223.152649
1223.153951
1223.155248
1223.156622
1223.157879
1223.159318
1223.160256
1223.161396
1223.162346
1223.163248
1223.164051
1223.164702
1223.154949
1223.156491
1223.158213
1223.160174
1223.162096
1223.163692
1223.165221
1223.166701
1223.167911
1223.16899
1223.169905
1223.170589
1223.171111
1223.171565
1223.171879
1223.149471
1223.152933
1223.156748
1223.159902
1223.162596
1223.164775
1223.166119
1223.167126
1223.167739
1223.167826
1223.167778
1223.167819
1223.167673
1223.167641
1223.167294
1223.164279
1223.171872
1223.178166
1223.182319
1223.184623
1223.185819
1223.186049
1223.185523
1223.184854
1223.184032
1223.183131
1223.182237
1223.181465
1223.180418
1223.180054
1223.179652
1223.19047
1223.196489
1223.19895
1223.199387
1223.198458
1223.196947
1223.195095
1223.193366
1223.191852
1223.190292
1223.188783
1223.187589
1223.186436
1223.18565
1223.160968
1223.168524
1223.17485
1223.178825
1223.181047
1223.181925
1223.182083
1223.181583
1223.180801
1223.179852
1223.178768
1223.177916
1223.17701
1223.176261
1223.175714
1223.153936
1223.157656
1223.161465
1223.164722
1223.167399
1223.169268
1223.170653
1223.17164
1223.17221
1223.172543
1223.172578
1223.172378
1223.172296
1223.172053
1223.17199
1223.156762
1223.158431
1223.160249
1223.16214
1223.163874
1223.165447
1223.16677
1223.167788
1223.168773
1223.169524
1223.170189
1223.170628
1223.171206
1223.171606
1223.151513
1223.152371
1223.153519
1223.154929
1223.156133
1223.15759
1223.158832
1223.160109
1223.161051
1223.162116
1223.163031
1223.163899
1223.164769
1223.165299
1223.148034
1223.148354
1223.148932
1223.149485
1223.150381
1223.151448
1223.152647
1223.153792
1223.154817
1223.155951
1223.157184
1223.158206
1223.159243
1223.160138
1223.160719
1223.147798
1223.148541
1223.149591
1223.150675
1223.151773
1223.153213
1223.154422
1223.155728
1223.156976
1223.158077
1223.159153
1223.160074
1223.160829
1223.161634
1223.162291
1223.156737
1223.158242
1223.160054
1223.162169
1223.164148
1223.165892
1223.167473
1223.168952
1223.17012
1223.171118
1223.172122
1223.172891
1223.173334
1223.173735
1223.174
1223.156696
1223.159466
1223.162315
1223.165135
1223.167363
1223.169063
1223.170634
1223.17182
1223.172906
1223.173723
1223.174173
1223.174674
1223.174957
1223.175026
1223.175233
1223.158131
1223.161931
1223.165268
1223.168239
1223.170559
1223.172323
1223.173583
1223.1744
1223.175154
1223.175623
1223.175667
1223.175849
1223.175823
1223.175744
1223.175872
1223.160284
1223.162931
1223.16583
1223.168523
1223.170953
1223.173082
1223.174499
1223.175773
1223.176665
1223.177201
1223.177796
1223.17816
1223.178335
1223.178511
1223.178361
1223.147531
1223.148945
1223.15075
1223.152656
1223.154567
1223.156458
1223.158135
1223.159534
1223.160717
1223.161509
1223.162436
1223.163114
1223.163586
1223.163975
1223.164272
1223.147836
1223.148428
1223.14921
1223.150373
1223.151591
1223.15306
1223.154175
1223.155339
1223.156658
1223.157833
1223.158822
1223.159612
1223.160456
1223.161043
1223.161802
1223.150452
1223.151103
1223.151848
1223.152699
1223.153596
1223.154649
1223.155885
1223.157147
1223.15844
1223.15954
1223.160677
1223.161735
1223.162497
1223.163279
1223.147414
1223.147672
1223.147886
1223.148227
1223.148857
1223.149777
1223.150572
1223.151614
1223.152563
1223.153764
1223.154745
1223.155821
1223.156978
1223.158091
1223.158771
1223.152055
1223.15246
1223.153108
1223.153882
1223.15464
1223.155715
1223.156768
1223.157651
1223.158741
1223.159887
1223.16097
1223.162151
1223.163221
1223.164065
1223.164734
1223.152769
1223.153445
1223.154344
1223.15548
1223.156777
1223.158171
1223.159724
1223.161043
1223.162388
1223.163671
1223.164534
1223.165607
1223.166472
1223.167269
1223.167868
1223.152432
1223.153499
1223.15486
1223.156459
1223.15827
1223.159901
1223.161377
1223.162868
1223.164331
1223.165429
1223.166426
1223.167451
1223.168018
1223.168762
1223.169205
1223.149471
1223.150901
1223.152675
1223.154477
1223.156299
1223.158237
1223.159973
1223.16152
1223.162983
1223.164169
1223.165084
1223.166054
1223.166744
1223.167199
1223.167449
1223.152128
1223.153413
1223.154937
1223.156565
1223.158465
1223.160165
1223.161642
1223.163103
1223.164439
1223.165518
1223.166399
1223.167162
1223.167929
1223.168437
1223.168691
1223.144231
1223.144874
1223.145833
1223.147072
1223.148294
1223.14967
1223.151038
1223.152391
1223.153723
1223.154837
1223.155832
1223.156877
1223.157784
1223.158549
1223.159289
1223.150787
1223.151251
1223.151817
1223.152368
1223.15326
1223.154158
1223.155049
1223.156113
1223.157275
1223.15842
1223.159597
1223.160513
1223.161555
1223.162499
1223.163151
1223.152731
1223.152827
1223.153295
1223.153724
1223.154308
1223.155098
1223.156108
1223.156999
1223.157894
1223.158811
1223.159828
1223.16079
1223.161898
1223.162851
1223.163514
)
;

boundaryField
{
    top
    {
        type            zeroGradient;
    }
    bottom
    {
        type            zeroGradient;
    }
    side-walls
    {
        type            zeroGradient;
    }
    inlet
    {
        type            zeroGradient;
    }
    outlet
    {
        type            zeroGradient;
    }
    procBoundary1to0
    {
        type            processor;
        value           nonuniform List<scalar> 
97
(
1223.15088
1223.15088
1223.150258
1223.149468
1223.150783
1223.151321
1223.15204
1223.14866
1223.148119
1223.150244
1223.150535
1223.151887
1223.151887
1223.151887
1223.152509
1223.151244
1223.161093
1223.154515
1223.153237
1223.151983
1223.153447
1223.149459
1223.151523
1223.157605
1223.157605
1223.157605
1223.158003
1223.176327
1223.158753
1223.146859
1223.156508
1223.150308
1223.146398
1223.154495
1223.156735
1223.203192
1223.203192
1223.203192
1223.264889
1223.183708
1223.165219
1223.150241
1223.1535
1223.150886
1223.157296
1223.159287
1223.184636
1218.189559
1218.189559
1218.189559
1223.260357
1223.260357
1223.174058
1223.151956
1223.151321
1223.156593
1223.150931
1223.154032
1223.168402
1223.18479
1223.167964
1223.161197
1223.161197
1223.161197
1223.154396
1223.150889
1223.14937
1223.153974
1223.146644
1223.157151
1223.164739
1223.153921
1223.151315
1223.155263
1223.155263
1223.155263
1223.150795
1223.147751
1223.147444
1223.155891
1223.154434
1223.154689
1223.158079
1223.146643
1223.147349
1223.149954
1223.149954
1223.149954
1223.14747
1223.15177
1223.152091
1223.151744
1223.148564
1223.151425
1223.143663
1223.150621
1223.152564
)
;
    }
}


// ************************************************************************* //
