/*--------------------------------*- C++ -*----------------------------------*\
| =========                 |                                                 |
| \\      /  F ield         | OpenFOAM: The Open Source CFD Toolbox           |
|  \\    /   O peration     | Version:  4.x                                   |
|   \\  /    A nd           | Web:      www.OpenFOAM.org                      |
|    \\/     M anipulation  |                                                 |
\*---------------------------------------------------------------------------*/
FoamFile
{
    version     2.0;
    format      ascii;
    class       volVectorField;
    location    "6000";
    object      U;
}
// * * * * * * * * * * * * * * * * * * * * * * * * * * * * * * * * * * * * * //

dimensions      [0 1 -1 0 0 0 0];

internalField   nonuniform List<vector> 
1174
(
(0.01100031626 -1.279199514e-08 -1.307167497e-08)
(0.01100034967 -1.210044126e-08 -1.20025784e-08)
(0.01100038207 -9.432051697e-09 -8.479358531e-09)
(0.01100038354 -7.375397762e-09 -7.770794863e-09)
(0.01100037427 -3.191590742e-09 -3.32846953e-09)
(0.01100035294 -9.39510964e-10 -4.660460436e-10)
(0.01100031658 8.574610886e-10 3.433387871e-09)
(0.01100027332 3.089122551e-09 2.98601195e-09)
(0.0110002269 3.415752909e-09 2.207507307e-09)
(0.01100017517 4.385439349e-09 6.276393061e-09)
(0.01100012624 5.533744452e-09 5.481897589e-09)
(0.01100007573 5.636164527e-09 5.936531228e-09)
(0.01100003438 5.647789404e-09 6.008940772e-09)
(0.0109999812 4.607000866e-09 5.007309484e-09)
(0.01100032955 -5.615977609e-08 -1.591541598e-08)
(0.01100034389 -4.793014147e-08 -1.51575369e-08)
(0.01100036711 -3.176475553e-08 -9.15763442e-09)
(0.01100035595 -2.028125876e-08 -4.811985756e-09)
(0.01100032935 -9.167756504e-09 -5.687992808e-10)
(0.01100029338 -3.23643129e-09 3.099200404e-09)
(0.01100024593 3.619842316e-09 3.913243303e-09)
(0.01100019431 5.465602536e-09 4.09279266e-09)
(0.01100013992 1.012151895e-08 4.673123414e-09)
(0.01100008746 1.079991361e-08 4.674670374e-09)
(0.01100003442 1.094083114e-08 4.681080887e-09)
(0.01099998342 1.137205928e-08 3.984212069e-09)
(0.01099994472 1.29585896e-08 5.654764935e-09)
(0.01099990025 1.121273015e-08 4.21801434e-09)
(0.01100035602 -5.086586903e-08 -2.792450303e-08)
(0.01100033871 -4.46947568e-08 -2.435891536e-08)
(0.01100033953 -2.921498347e-08 -1.382303167e-08)
(0.01100029597 -1.363398843e-08 -5.847394933e-09)
(0.01100023993 -1.617496224e-09 2.312396242e-09)
(0.01100017775 3.879892394e-09 7.600117668e-09)
(0.01100011299 8.898914555e-09 6.005909519e-09)
(0.01100005014 1.074952083e-08 6.452412324e-09)
(0.01099999243 1.235615511e-08 6.075668913e-09)
(0.0109999379 1.279891636e-08 4.001491445e-09)
(0.01099989187 1.313152131e-08 5.057779184e-09)
(0.01099984532 1.294769633e-08 4.779242026e-09)
(0.01099981243 1.506892773e-08 3.606532297e-09)
(0.01099977392 1.286177404e-08 2.609816599e-09)
(0.01100037112 -6.404875257e-08 -1.45079566e-08)
(0.01100029233 -4.008020943e-08 -2.656312683e-08)
(0.01100027193 -1.731996143e-08 -9.56253041e-09)
(0.01100019954 -2.954621919e-09 1.81487738e-09)
(0.01100011818 4.056567232e-09 4.22556909e-09)
(0.01100003976 9.625060881e-09 1.101332393e-08)
(0.01099996737 9.019764513e-09 1.199498231e-08)
(0.01099990224 1.058702491e-08 1.11868551e-08)
(0.01099984449 1.090779625e-08 1.131303158e-08)
(0.01099979342 1.050565344e-08 9.064809359e-09)
(0.01099974752 9.90425863e-09 1.007088881e-08)
(0.01099971659 9.226981301e-09 6.977046593e-09)
(0.01099968872 8.697587244e-09 7.100613952e-09)
(0.01099966328 9.284766306e-09 5.018246348e-09)
(0.01100046353 1.341596904e-09 -2.033337516e-08)
(0.01100030353 5.89930753e-10 -1.684706438e-08)
(0.01100024634 2.049079172e-09 -6.109301375e-11)
(0.01100014933 1.090736945e-09 1.079291924e-08)
(0.01100005786 -7.763153954e-10 1.220423057e-08)
(0.01099997222 2.985349804e-09 1.18654326e-08)
(0.0109998952 -7.564421165e-13 1.392405264e-08)
(0.01099983426 -2.055118659e-10 1.349192951e-08)
(0.01099977808 8.819770997e-10 1.114527492e-08)
(0.01099973036 1.182070878e-10 9.9721151e-09)
(0.0109996932 1.111985556e-09 8.529974765e-09)
(0.01099966223 8.182710224e-10 6.535647902e-09)
(0.01099964074 -1.061601799e-09 6.234917079e-09)
(0.01099961809 5.922293908e-10 3.280191605e-09)
(0.01100036994 6.28615783e-08 -1.39095391e-08)
(0.01100029337 3.843872961e-08 -2.567885774e-08)
(0.01100027325 1.760794786e-08 -1.097784442e-08)
(0.01100019967 4.495924799e-09 1.604473606e-09)
(0.01100012031 -6.114099978e-09 5.427889185e-09)
(0.01100003997 -7.728803602e-09 1.041409527e-08)
(0.01099996519 -8.409046868e-09 1.24769086e-08)
(0.01099990223 -9.119209155e-09 1.194601563e-08)
(0.01099984162 -1.015290659e-08 1.12554628e-08)
(0.01099979042 -9.607007528e-09 9.802478136e-09)
(0.01099975354 -8.383128387e-09 8.028026789e-09)
(0.01099971666 -9.718185961e-09 7.039549081e-09)
(0.01099969136 -7.056790837e-09 8.701449077e-09)
(0.01099966479 -7.440136049e-09 6.55687939e-09)
(0.01100035723 4.870710157e-08 -2.51240215e-08)
(0.0110003413 4.523982451e-08 -2.288178445e-08)
(0.01100034349 2.566219772e-08 -1.26779772e-08)
(0.01100029473 1.316009873e-08 -4.18887516e-09)
(0.01100024068 3.595498829e-09 3.047215118e-09)
(0.01100017908 -4.881658754e-09 3.538757625e-09)
(0.01100011303 -8.785889789e-09 6.434238409e-09)
(0.01100004921 -1.355868294e-08 8.601079697e-09)
(0.01099999073 -1.402913005e-08 7.36554725e-09)
(0.01099993937 -1.399485371e-08 8.427937493e-09)
(0.01099989013 -1.29447877e-08 7.581339735e-09)
(0.01099984604 -1.159942781e-08 6.65802334e-09)
(0.01099981371 -1.46695243e-08 6.196320299e-09)
(0.01099977858 -1.339128559e-08 5.828852736e-09)
(0.01100032998 5.495944989e-08 -1.430918655e-08)
(0.01100034449 4.682742934e-08 -1.460512841e-08)
(0.01100036886 2.973962838e-08 -8.411684928e-09)
(0.01100035878 1.755770945e-08 -4.41317129e-09)
(0.01100033035 1.021445569e-08 -2.966426955e-09)
(0.01100029106 1.493054022e-09 1.26049755e-09)
(0.01100024458 -3.521333483e-09 2.647732116e-09)
(0.01100019493 -6.259527205e-09 5.061709222e-09)
(0.0110001403 -8.793801802e-09 6.275523062e-09)
(0.01100008931 -1.053970844e-08 4.636961632e-09)
(0.01100003687 -1.246285511e-08 5.286749697e-09)
(0.01099998532 -1.168907906e-08 4.602333952e-09)
(0.01099994634 -1.158072366e-08 5.845396491e-09)
(0.01099990079 -1.186971384e-08 5.290118107e-09)
(0.01100031575 1.363902069e-08 -1.299336815e-08)
(0.01100034742 1.040799118e-08 -1.303475252e-08)
(0.01100038392 9.037729496e-09 -7.655698474e-09)
(0.01100038616 6.484634273e-09 -5.728691628e-09)
(0.01100037502 2.13264046e-09 -4.951857922e-09)
(0.01100035125 1.778935534e-09 -1.903968544e-09)
(0.0110003157 -6.142943636e-10 3.954365632e-10)
(0.01100027504 -1.251883416e-09 1.476575162e-09)
(0.01100022638 -3.010948528e-09 2.245498635e-09)
(0.01100017717 -4.277375117e-09 3.436500836e-09)
(0.01100012862 -4.850656448e-09 4.238317372e-09)
(0.01100007681 -4.699092194e-09 5.144819366e-09)
(0.011000031 -4.931282602e-09 3.541597066e-09)
(0.01099998241 -4.789496342e-09 5.956177545e-09)
(0.01100022134 -3.786964153e-08 -9.117492973e-08)
(0.01100032879 -1.616904816e-08 -5.418668061e-08)
(0.01100034292 -1.550040018e-08 -4.646136142e-08)
(0.01100036846 -8.88027407e-09 -3.142101069e-08)
(0.011000357 -4.913896574e-09 -1.820682824e-08)
(0.01100033177 -6.781287206e-10 -7.018774847e-09)
(0.01100029271 1.036257192e-09 9.921777119e-10)
(0.0110002443 3.106410695e-09 5.025891206e-09)
(0.01100019237 4.034628912e-09 7.809451759e-09)
(0.01100013882 6.743942913e-09 9.426722767e-09)
(0.01100008664 6.957114201e-09 1.108977597e-08)
(0.01100003702 7.368915067e-09 1.326079913e-08)
(0.01099998841 6.480397798e-09 1.240287684e-08)
(0.01099994585 6.067515875e-09 1.382844347e-08)
(0.01099989901 4.957700693e-09 1.155252073e-08)
(0.0110003438 -6.69845925e-08 -6.879255038e-08)
(0.0110003203 -5.900878e-08 -5.867541351e-08)
(0.01100032418 -3.598727412e-08 -3.554181911e-08)
(0.01100028577 -1.543776772e-08 -1.752312756e-08)
(0.01100023819 -6.429515816e-09 -2.735458264e-09)
(0.01100018137 5.128323987e-09 6.547296349e-09)
(0.011000122 1.033628215e-08 1.180234478e-08)
(0.01100006552 1.388840169e-08 1.345541259e-08)
(0.01100000994 1.635311187e-08 1.536933817e-08)
(0.01099995987 1.563414024e-08 1.341252509e-08)
(0.01099991484 1.693366328e-08 1.526829623e-08)
(0.01099987231 1.50548164e-08 1.487532425e-08)
(0.01099983982 1.719600808e-08 1.722463997e-08)
(0.01099980345 1.423566927e-08 1.39016796e-08)
(0.01100037506 -4.991649848e-08 -1.169499348e-07)
(0.0110002627 -5.972402009e-08 -8.97117578e-08)
(0.01100021989 -3.02335244e-08 -3.710838481e-08)
(0.01100012728 -6.276739035e-09 -6.053898083e-09)
(0.01100004096 6.942416086e-09 1.001684158e-08)
(0.01099996046 1.469781531e-08 2.243117723e-08)
(0.01099989112 1.863768109e-08 2.481237992e-08)
(0.01099983591 2.094394547e-08 2.567855257e-08)
(0.01099978776 2.144907428e-08 2.581899693e-08)
(0.01099974933 2.168976527e-08 2.270986675e-08)
(0.01099971909 1.984001701e-08 2.252427453e-08)
(0.01099969311 1.714721029e-08 2.048415085e-08)
(0.0109996699 1.669977034e-08 2.078340728e-08)
(0.01099965404 1.463604347e-08 1.778717387e-08)
(0.01100033976 -6.040644658e-08 -9.644903586e-08)
(0.01100007305 -3.347452145e-08 -9.516285096e-08)
(0.0109999989 -2.189207407e-09 -2.438638223e-08)
(0.01099987333 1.324254792e-08 1.305638839e-08)
(0.01099976911 2.075907246e-08 3.028161429e-08)
(0.01099969259 1.997693846e-08 3.965253938e-08)
(0.0109996312 2.011042992e-08 4.266121991e-08)
(0.01099959221 1.936746991e-08 3.9736603e-08)
(0.01099956112 1.704052968e-08 3.626729336e-08)
(0.01099954155 1.572789602e-08 3.053924729e-08)
(0.01099952606 1.446659196e-08 2.84409733e-08)
(0.01099952041 1.231594482e-08 2.535904303e-08)
(0.0109995167 1.22165769e-08 2.487317184e-08)
(0.01099951741 1.083958601e-08 1.948730736e-08)
(0.01100048721 3.332090197e-10 -1.01158321e-07)
(0.01099997285 8.81019488e-10 -5.236834889e-08)
(0.01099985384 4.572354255e-11 2.761912155e-08)
(0.01099971311 5.929667411e-10 5.830327893e-08)
(0.01099960912 -1.025500254e-09 6.048571997e-08)
(0.01099954656 1.700033081e-09 6.009414523e-08)
(0.01099950297 7.542341895e-10 5.432457257e-08)
(0.01099947564 7.878903108e-12 4.710814094e-08)
(0.01099945914 1.352692857e-09 4.143104111e-08)
(0.0109994508 4.153380018e-10 3.508642308e-08)
(0.01099944696 -3.452797994e-10 3.090996925e-08)
(0.01099944858 -3.502922288e-10 2.64929025e-08)
(0.0109994536 2.500574804e-09 2.539202138e-08)
(0.01099945916 1.453347464e-09 1.97568651e-08)
(0.01100033653 6.011156557e-08 -9.82552746e-08)
(0.01100007334 3.56243708e-08 -9.418732259e-08)
(0.0109999985 4.36698111e-09 -2.613160985e-08)
(0.01099987133 -1.296895985e-08 1.3301719e-08)
(0.01099976903 -1.896255319e-08 3.240439828e-08)
(0.01099969075 -2.024007965e-08 3.944056087e-08)
(0.01099963101 -2.02833103e-08 4.27967308e-08)
(0.01099959226 -1.820251416e-08 4.049655256e-08)
(0.01099955975 -1.76975149e-08 3.660705219e-08)
(0.0109995408 -1.569222854e-08 3.292390975e-08)
(0.01099952907 -1.429853699e-08 2.872505657e-08)
(0.01099952213 -1.282860425e-08 2.416447498e-08)
(0.01099951742 -1.321349528e-08 2.477527207e-08)
(0.01099951476 -9.178049787e-09 1.88422045e-08)
(0.01100037233 4.713736082e-08 -1.159676712e-07)
(0.01100026385 5.623341583e-08 -8.952549937e-08)
(0.01100022001 2.965576793e-08 -3.780942605e-08)
(0.01100012811 5.954180295e-09 -7.445441237e-09)
(0.01100004201 -6.463165532e-09 1.089904732e-08)
(0.01099996021 -1.666949973e-08 2.074072443e-08)
(0.01099989337 -2.067307699e-08 2.62794216e-08)
(0.01099983564 -2.301642881e-08 2.703573959e-08)
(0.01099978693 -2.193066679e-08 2.633031875e-08)
(0.01099975068 -1.935763612e-08 2.582455094e-08)
(0.01099971821 -1.816074939e-08 2.20244452e-08)
(0.01099969076 -1.522633346e-08 2.105305755e-08)
(0.01099967285 -1.833215311e-08 2.03253321e-08)
(0.01099965293 -1.515125764e-08 1.63148901e-08)
(0.01100034396 6.988098104e-08 -6.937712283e-08)
(0.01100032169 6.014427633e-08 -5.985533024e-08)
(0.01100032702 3.50363309e-08 -3.591451872e-08)
(0.01100028725 1.753187812e-08 -1.732062997e-08)
(0.0110002388 4.920330431e-09 -5.542056816e-09)
(0.01100018172 -4.826491835e-09 3.536482463e-09)
(0.01100012231 -1.039980471e-08 1.112732532e-08)
(0.01100006746 -1.438580615e-08 1.342248876e-08)
(0.01100001188 -1.672970163e-08 1.404856954e-08)
(0.01099996158 -1.594078952e-08 1.500755686e-08)
(0.01099991395 -1.540691094e-08 1.53590734e-08)
(0.01099987295 -1.421099071e-08 1.523454637e-08)
(0.0109998392 -1.531674206e-08 1.568918949e-08)
(0.01099980585 -1.34973049e-08 1.259265822e-08)
(0.01100032979 1.555312123e-08 -5.605261792e-08)
(0.01100034376 1.557660134e-08 -4.555680234e-08)
(0.01100036886 1.076557605e-08 -3.065259223e-08)
(0.01100035659 4.725370351e-09 -1.985833391e-08)
(0.01100033199 1.5322029e-09 -9.194146421e-09)
(0.01100029161 -2.191746213e-09 -3.174807921e-09)
(0.01100024464 -3.685340429e-09 2.808510293e-09)
(0.01100019264 -5.341330732e-09 8.16892911e-09)
(0.01100014283 -5.686799847e-09 8.79917256e-09)
(0.01100008855 -7.913853741e-09 1.062437781e-08)
(0.01100003822 -7.354096236e-09 1.177496724e-08)
(0.01099998515 -4.646274806e-09 1.246756171e-08)
(0.0109999487 -5.125298255e-09 1.262916994e-08)
(0.01099990107 -4.66052278e-09 1.04053801e-08)
(0.01100021432 -7.412165309e-08 -1.142026353e-07)
(0.01100035626 -2.399378485e-08 -4.914179226e-08)
(0.01100033769 -2.254074875e-08 -4.454099889e-08)
(0.01100034046 -9.527485045e-09 -2.670193501e-08)
(0.01100029554 -2.011121454e-09 -1.10169174e-08)
(0.01100024081 -3.681714976e-10 -1.881668699e-09)
(0.01100017789 8.338767585e-09 6.07881785e-09)
(0.01100011132 9.420625156e-09 9.34625782e-09)
(0.01100004673 1.020477278e-08 1.292876892e-08)
(0.01099998947 1.153143547e-08 1.501761161e-08)
(0.01099993638 1.178406003e-08 1.421997578e-08)
(0.01099989132 1.186133633e-08 1.459899158e-08)
(0.01099984558 1.036577844e-08 1.307804465e-08)
(0.01099981483 1.076227263e-08 1.420567211e-08)
(0.01099977189 9.744128373e-09 1.287281662e-08)
(0.01100020647 -3.002879e-07 -1.852091281e-07)
(0.01100037359 -1.162627579e-07 -5.025374728e-08)
(0.01100026153 -8.863689428e-08 -5.734420852e-08)
(0.01100021611 -3.849280756e-08 -2.859920406e-08)
(0.01100012627 -7.805935828e-09 -6.636399738e-09)
(0.01100003975 9.408789792e-09 4.951112547e-09)
(0.01099996232 2.114298283e-08 1.475458312e-08)
(0.01099989021 2.507027694e-08 2.222298608e-08)
(0.01099983305 2.726289541e-08 2.061526351e-08)
(0.0109997867 2.81592569e-08 2.017069029e-08)
(0.01099974794 2.432103611e-08 1.796446755e-08)
(0.01099971752 2.203863594e-08 1.766988021e-08)
(0.01099969105 2.202045212e-08 1.854877411e-08)
(0.01099966936 2.057791412e-08 1.896428147e-08)
(0.01099965102 1.917506116e-08 1.665525749e-08)
(0.01100038253 -8.096435563e-08 -8.506462149e-08)
(0.01100003113 -8.726834833e-08 -8.621756306e-08)
(0.01099988308 -1.993777664e-08 -2.076413272e-08)
(0.01099971413 1.806564411e-08 1.455932972e-08)
(0.01099959509 3.304231799e-08 3.275676928e-08)
(0.01099951455 3.841075604e-08 3.947605519e-08)
(0.01099946909 4.026444298e-08 4.143693053e-08)
(0.01099944048 3.928532591e-08 3.813395227e-08)
(0.01099942812 3.465485149e-08 3.534338786e-08)
(0.01099942633 3.132356619e-08 3.030697323e-08)
(0.01099943241 2.722389057e-08 2.686689555e-08)
(0.01099944061 2.214378602e-08 2.342758297e-08)
(0.01099945068 2.15353602e-08 2.453836676e-08)
(0.01099945842 1.561440372e-08 1.917079739e-08)
(0.01100008826 -5.861646597e-08 5.188330743e-08)
(0.01099935096 -3.664585366e-09 -9.934480352e-08)
(0.01099919741 4.943320264e-08 9.173196135e-09)
(0.01099902984 6.526511888e-08 5.783531237e-08)
(0.0109989564 5.657675515e-08 6.881358553e-08)
(0.01099894766 4.867852758e-08 7.106684389e-08)
(0.01099897014 3.958476798e-08 6.195748593e-08)
(0.01099900969 3.300176904e-08 5.269611862e-08)
(0.01099905855 2.797423339e-08 4.440810121e-08)
(0.01099910807 2.296915194e-08 3.801979332e-08)
(0.0109991545 2.037765484e-08 3.088035386e-08)
(0.01099920333 1.817044817e-08 2.835309792e-08)
(0.01099924193 1.671983577e-08 2.662324189e-08)
(0.01099928025 1.272636187e-08 2.097315404e-08)
(0.0110002002 2.95774581e-10 4.639313774e-07)
(0.01099873005 7.908468213e-10 5.284824572e-08)
(0.01099860628 1.048962854e-09 1.221121396e-07)
(0.01099852287 3.003736406e-10 1.405801612e-07)
(0.01099854224 -7.39570436e-10 1.184261489e-07)
(0.01099862237 -5.028873468e-10 9.765129116e-08)
(0.0109987095 6.925706587e-12 7.824270183e-08)
(0.01099880189 2.191911308e-10 6.088044314e-08)
(0.01099888873 2.480945974e-09 4.960113387e-08)
(0.0109989662 1.939965933e-09 3.992797933e-08)
(0.01099903654 1.717855559e-09 3.356140391e-08)
(0.01099910569 -8.297004065e-10 2.751195008e-08)
(0.01099915713 5.307011996e-10 2.920079716e-08)
(0.01099921215 5.185060412e-10 2.236515749e-08)
(0.01100009132 5.848512468e-08 5.107420125e-08)
(0.0109993498 6.110577139e-09 -1.007834227e-07)
(0.01099919655 -5.001144688e-08 8.919008364e-09)
(0.01099902973 -6.433404164e-08 5.864494663e-08)
(0.01099895548 -5.708799626e-08 6.878116795e-08)
(0.01099894814 -4.932138761e-08 6.989000376e-08)
(0.01099896923 -4.057731414e-08 6.329705579e-08)
(0.01099901028 -3.3522507e-08 5.373638865e-08)
(0.01099905933 -2.786558634e-08 4.581408493e-08)
(0.01099910642 -2.228835434e-08 3.960228473e-08)
(0.01099915434 -1.956972271e-08 3.284033346e-08)
(0.01099920217 -1.654606757e-08 2.869169214e-08)
(0.01099924279 -1.578712503e-08 2.792311688e-08)
(0.01099928438 -1.199535466e-08 2.112727111e-08)
(0.01100038498 8.195964938e-08 -8.359344565e-08)
(0.01100003324 8.452520524e-08 -8.569552702e-08)
(0.01099988584 1.969137065e-08 -1.985508729e-08)
(0.01099971376 -1.838289805e-08 1.784568408e-08)
(0.01099959331 -3.356571285e-08 3.343548558e-08)
(0.01099951527 -4.118286991e-08 4.021388632e-08)
(0.01099946716 -4.102572147e-08 3.990329061e-08)
(0.01099944187 -3.810666599e-08 3.798489697e-08)
(0.01099942875 -3.651123124e-08 3.455910773e-08)
(0.01099942988 -3.018283627e-08 2.814089603e-08)
(0.01099943076 -2.738987322e-08 2.644403706e-08)
(0.01099944291 -2.068931943e-08 2.464054203e-08)
(0.01099945135 -2.220768126e-08 2.590852522e-08)
(0.01099945951 -1.803097295e-08 1.848027347e-08)
(0.01100037702 1.163254459e-07 -4.900095169e-08)
(0.01100026203 8.931957404e-08 -5.878613149e-08)
(0.01100021922 3.770745464e-08 -3.026500528e-08)
(0.0110001266 7.681710713e-09 -8.069805669e-09)
(0.0110000413 -1.100673175e-08 6.802114877e-09)
(0.01099996157 -2.072148411e-08 1.560487733e-08)
(0.01099989306 -2.589134939e-08 1.998250644e-08)
(0.01099983489 -2.653759569e-08 2.222672825e-08)
(0.01099978692 -2.653286628e-08 2.067232005e-08)
(0.01099975148 -2.680203235e-08 1.966945903e-08)
(0.01099971765 -2.201263129e-08 1.756904743e-08)
(0.0109996915 -2.045664791e-08 1.824800269e-08)
(0.01099967237 -1.812557164e-08 1.866826414e-08)
(0.01099965071 -1.579016587e-08 1.548938524e-08)
(0.0110003571 2.498366081e-08 -4.857169283e-08)
(0.01100033976 2.321836119e-08 -4.496425301e-08)
(0.01100033993 1.274325965e-08 -2.783980174e-08)
(0.01100029589 1.924852083e-09 -1.2465095e-08)
(0.01100023996 -1.863088954e-09 -1.986035181e-09)
(0.01100017638 -6.437844204e-09 5.417740586e-09)
(0.01100011319 -8.71315525e-09 1.086316829e-08)
(0.01100005045 -8.17738474e-09 1.228322148e-08)
(0.0109999896 -8.024020069e-09 1.471587459e-08)
(0.01099994017 -7.911786101e-09 1.322056973e-08)
(0.01099989149 -8.131344231e-09 1.36664329e-08)
(0.01099984578 -5.196554789e-09 1.18679165e-08)
(0.01099981159 -7.916058829e-09 1.610330764e-08)
(0.01099977097 -5.041604074e-09 1.243117241e-08)
(0.01100022002 -1.018877955e-07 -1.748268396e-07)
(0.01100037177 -1.420342262e-08 -6.402459682e-08)
(0.01100029132 -2.453272943e-08 -3.767056016e-08)
(0.01100027308 -9.096112654e-09 -1.674918379e-08)
(0.01100019899 1.229109832e-09 -1.886505906e-09)
(0.01100012219 8.447934901e-09 4.977464394e-09)
(0.01100004116 1.113350116e-08 8.900024182e-09)
(0.01099996701 1.554735781e-08 9.384559108e-09)
(0.01099989746 1.144621602e-08 1.182061001e-08)
(0.01099983999 1.315878059e-08 1.205506479e-08)
(0.01099979118 1.159527055e-08 9.662294608e-09)
(0.01099974942 1.011128156e-08 1.15812416e-08)
(0.01099971821 1.011873611e-08 9.588497799e-09)
(0.01099968893 1.050296823e-08 9.494946838e-09)
(0.01099966414 1.000865032e-08 1.044590208e-08)
(0.01100020517 -4.629635673e-07 -3.537953827e-07)
(0.01100033905 -9.849831929e-08 -6.323277711e-08)
(0.01100007322 -9.426354705e-08 -3.50080367e-08)
(0.01099999739 -2.506835189e-08 -4.608232354e-09)
(0.01099987092 1.321472785e-08 1.282951035e-08)
(0.01099976997 3.084554932e-08 1.89843487e-08)
(0.01099969373 3.873571319e-08 2.040730278e-08)
(0.01099962875 4.057240814e-08 1.994216496e-08)
(0.01099958702 3.839631304e-08 1.799032959e-08)
(0.01099955817 3.690671361e-08 1.636175088e-08)
(0.0109995416 3.220256008e-08 1.615804571e-08)
(0.01099952512 2.897334262e-08 1.422195435e-08)
(0.01099952076 2.649113593e-08 1.153944004e-08)
(0.0109995183 2.566470341e-08 1.156548324e-08)
(0.01099951267 2.033629087e-08 1.001987705e-08)
(0.01100002388 -6.461497061e-07 -1.007861379e-06)
(0.01100008901 5.166272097e-08 -6.072275633e-08)
(0.01099934938 -1.018448144e-07 -6.561351538e-09)
(0.01099919559 8.850273437e-09 4.984351207e-08)
(0.01099902965 5.779480559e-08 6.484702344e-08)
(0.01099895737 7.028753859e-08 5.832326417e-08)
(0.01099894759 6.944375992e-08 4.810487233e-08)
(0.0109989696 6.064589557e-08 4.008983059e-08)
(0.01099901208 5.369681324e-08 3.229983332e-08)
(0.01099905735 4.563266064e-08 2.652812055e-08)
(0.01099910659 3.947480248e-08 2.23261172e-08)
(0.01099915566 3.378352672e-08 1.918788527e-08)
(0.01099920158 2.78127413e-08 1.556627747e-08)
(0.01099924353 2.597227413e-08 1.546203736e-08)
(0.01099927898 2.015914858e-08 1.266912302e-08)
(0.01099840602 4.862334998e-07 4.855147098e-07)
(0.0109971968 1.056461459e-07 1.066514526e-07)
(0.01099746772 1.413494274e-07 1.423602802e-07)
(0.01099755384 1.40261339e-07 1.415431136e-07)
(0.01099773821 1.094668783e-07 1.093184041e-07)
(0.01099796207 8.213964547e-08 8.041088068e-08)
(0.01099817318 5.999639978e-08 5.897072118e-08)
(0.01099836509 4.585142914e-08 4.609394441e-08)
(0.01099852961 3.565817893e-08 3.622246859e-08)
(0.01099867287 3.012415043e-08 2.782286521e-08)
(0.01099879328 2.437214894e-08 2.312600751e-08)
(0.01099890076 2.157225709e-08 1.888083805e-08)
(0.01099898665 1.968072872e-08 1.758386202e-08)
(0.01099907031 1.464676313e-08 1.578763338e-08)
(0.0109966071 1.128956723e-09 3.134210166e-06)
(0.01099422964 3.752022567e-10 9.694467557e-07)
(0.01099564341 -2.589132294e-10 4.839334393e-07)
(0.01099631925 -6.456269854e-11 3.14174059e-07)
(0.01099688132 -1.200158881e-09 1.862942257e-07)
(0.01099736572 8.077058301e-11 1.130661976e-07)
(0.01099774135 1.678031356e-09 7.546295289e-08)
(0.0109980422 -1.202156319e-10 5.303405538e-08)
(0.01099828391 2.11279144e-10 3.746387838e-08)
(0.01099847961 -3.773753004e-10 2.894956916e-08)
(0.01099863869 -4.010196887e-10 2.348150557e-08)
(0.01099877639 2.805773287e-10 2.049075254e-08)
(0.01099888159 5.809019569e-10 2.051095301e-08)
(0.01099898294 1.004360917e-10 1.449575423e-08)
(0.01099840556 -4.854985098e-07 4.860008472e-07)
(0.01099719595 -1.059112115e-07 1.063524486e-07)
(0.01099747101 -1.421630443e-07 1.431423666e-07)
(0.01099755215 -1.404735829e-07 1.414343159e-07)
(0.01099773892 -1.085532178e-07 1.092558274e-07)
(0.01099796344 -8.301941682e-08 8.138175013e-08)
(0.01099817267 -6.200746909e-08 6.175045418e-08)
(0.01099836259 -4.502022187e-08 4.564592118e-08)
(0.01099852775 -3.516724107e-08 3.449033423e-08)
(0.01099867191 -2.876806676e-08 2.557127434e-08)
(0.01099879327 -2.32206365e-08 2.497895545e-08)
(0.01099890084 -1.884085239e-08 2.020733347e-08)
(0.01099898557 -1.760249861e-08 1.903343061e-08)
(0.01099907271 -1.370633905e-08 1.572739541e-08)
(0.011000088 -5.234553512e-08 -5.821430184e-08)
(0.01099934978 9.977445513e-08 -3.04879595e-09)
(0.01099919529 -9.625402423e-09 4.923786602e-08)
(0.01099902852 -5.77494762e-08 6.514063893e-08)
(0.01099895568 -6.975635817e-08 5.915585746e-08)
(0.01099894656 -7.059459729e-08 4.951252276e-08)
(0.01099897014 -6.20367619e-08 4.189128603e-08)
(0.01099901273 -5.330483808e-08 3.360170547e-08)
(0.01099905757 -4.578201887e-08 2.762427752e-08)
(0.0109991073 -3.824118032e-08 2.143552032e-08)
(0.01099915516 -3.333203505e-08 2.03186815e-08)
(0.01099920556 -2.768250889e-08 1.650271961e-08)
(0.01099924259 -2.685768286e-08 1.630927245e-08)
(0.01099928038 -2.214635138e-08 1.353874372e-08)
(0.01100034003 9.882643233e-08 -6.053812949e-08)
(0.01100007254 9.47423049e-08 -3.319822593e-08)
(0.01099999858 2.6495112e-08 -3.973050855e-09)
(0.0109998709 -1.388514511e-08 1.372059379e-08)
(0.01099977002 -3.231827363e-08 2.045819958e-08)
(0.01099969138 -3.929291952e-08 2.124531699e-08)
(0.01099963092 -4.267819302e-08 2.171375333e-08)
(0.01099958816 -3.983258114e-08 1.852822502e-08)
(0.01099956016 -3.645859086e-08 1.768743106e-08)
(0.01099954183 -3.268838954e-08 1.489565822e-08)
(0.01099952938 -2.765137597e-08 1.42747748e-08)
(0.01099952211 -2.346932238e-08 1.210029673e-08)
(0.01099951481 -2.293591896e-08 1.183913761e-08)
(0.01099951261 -1.825105842e-08 9.676958615e-09)
(0.01100037295 1.426808382e-08 -6.185137501e-08)
(0.01100029108 2.641468696e-08 -3.90540898e-08)
(0.0110002711 1.019902025e-08 -1.57456904e-08)
(0.01100019842 -9.134971213e-10 -1.58959653e-09)
(0.01100012016 -6.425189671e-09 4.600171936e-09)
(0.01100004038 -1.147859696e-08 7.404551239e-09)
(0.01099996708 -1.300426731e-08 9.030853339e-09)
(0.01099989818 -1.194303297e-08 1.045294917e-08)
(0.01099984154 -1.216156957e-08 1.119535126e-08)
(0.01099979327 -9.533752182e-09 1.166571849e-08)
(0.01099975239 -1.010610489e-08 1.115678124e-08)
(0.01099971584 -9.192731922e-09 9.863662824e-09)
(0.01099968809 -9.702348906e-09 1.001195439e-08)
(0.01099965879 -6.339797604e-09 7.670368428e-09)
(0.0110002153 -2.455012165e-07 1.154650122e-09)
(0.01100046285 -1.696383922e-08 -3.465459221e-10)
(0.01100030263 -1.617051454e-08 -2.170780491e-09)
(0.01100024823 4.103686081e-09 -2.404968421e-10)
(0.01100014986 1.466965749e-08 -1.507360505e-09)
(0.01100005423 1.683387646e-08 3.304926341e-11)
(0.01099997269 1.90643966e-08 -2.698047444e-09)
(0.01099989521 1.788587548e-08 -3.338647935e-10)
(0.01099982906 1.732564248e-08 -2.956510674e-09)
(0.01099977472 1.547993249e-08 1.741040627e-11)
(0.01099973093 1.232547315e-08 9.031101593e-10)
(0.01099969333 1.092415123e-08 3.797930272e-10)
(0.01099966154 1.106221327e-08 2.412427976e-09)
(0.0109996387 1.077126304e-08 1.89386032e-09)
(0.01099961868 9.455568698e-09 5.597869114e-10)
(0.01100019687 -1.11467236e-06 6.738268987e-10)
(0.01100049017 -1.031926193e-07 3.469458995e-11)
(0.01099997706 -5.092978914e-08 -1.216956818e-09)
(0.01099985262 2.761314642e-08 -3.992527933e-10)
(0.01099971052 5.677688303e-08 -8.459423034e-10)
(0.01099961118 6.010266143e-08 -1.128015647e-09)
(0.01099954423 5.686050844e-08 -7.999042002e-10)
(0.01099950047 5.44807351e-08 -3.510523383e-09)
(0.01099946938 4.844637731e-08 -4.765517575e-10)
(0.01099945697 4.144011396e-08 -4.952538722e-10)
(0.01099944874 3.568418446e-08 -4.09924882e-11)
(0.01099944544 3.095751353e-08 1.291092408e-10)
(0.01099944942 2.516618564e-08 -2.425609153e-10)
(0.01099945445 2.619801722e-08 -2.46476525e-09)
(0.01099946112 2.036645992e-08 -2.566636472e-10)
(0.01099971593 -2.189340096e-06 3.380529937e-10)
(0.0110002002 4.670936383e-07 1.008091164e-09)
(0.01099873132 5.431086456e-08 1.249836608e-09)
(0.01099860438 1.235558951e-07 -7.075552676e-10)
(0.01099852339 1.42840108e-07 -4.987459215e-11)
(0.0109985422 1.191443997e-07 1.918937988e-10)
(0.01099861816 9.615179483e-08 -2.448362758e-09)
(0.01099870866 7.598383149e-08 -6.70417768e-10)
(0.01099880059 6.2137497e-08 -7.203978972e-10)
(0.01099888421 5.079495115e-08 -8.588133055e-10)
(0.01099896622 4.106224453e-08 -7.626841971e-10)
(0.01099903612 3.405854613e-08 -1.43989238e-09)
(0.01099910486 2.99678611e-08 -6.396981804e-10)
(0.01099915691 2.901873373e-08 -1.718914e-09)
(0.01099921148 2.300801833e-08 -3.872822425e-10)
(0.01099564257 -9.910198323e-06 6.445224206e-11)
(0.01099660388 3.132974863e-06 6.199413008e-10)
(0.01099422684 9.683870093e-07 9.2124951e-10)
(0.010995643 4.820090818e-07 7.652854434e-10)
(0.01099631611 3.137394349e-07 3.127725772e-10)
(0.01099688086 1.839895379e-07 4.299277174e-10)
(0.01099736696 1.155776317e-07 -8.986714043e-10)
(0.01099774395 7.670846913e-08 -1.415260064e-10)
(0.01099804235 5.313499354e-08 -2.88052924e-10)
(0.01099827929 3.971697008e-08 5.496123353e-10)
(0.01099847816 3.111417973e-08 4.875986057e-10)
(0.01099863975 2.576865886e-08 4.284776776e-10)
(0.01099877543 2.137139066e-08 1.0001234e-11)
(0.01099888407 1.999801578e-08 3.242477468e-10)
(0.01099898349 1.455600368e-08 7.606963363e-11)
(0.01099193807 1.024093116e-09 9.372201572e-10)
(0.01098498084 5.677925905e-10 2.550781305e-09)
(0.01099145982 -5.755060504e-10 5.54014118e-10)
(0.01099411651 -1.610420957e-09 8.50969514e-10)
(0.01099557103 2.024424014e-10 -4.309772863e-10)
(0.01099654691 1.299002767e-09 4.242813511e-10)
(0.01099719506 1.863894973e-10 -3.606730807e-10)
(0.010997658 -1.403905549e-09 1.250220311e-09)
(0.01099799691 -2.773692439e-10 -1.000422901e-10)
(0.01099825989 1.427372086e-09 -1.193965275e-09)
(0.01099846729 5.861911384e-10 1.231672625e-10)
(0.01099863717 5.970800181e-10 4.836957945e-11)
(0.01099876573 1.320691741e-09 -6.347124651e-10)
(0.0109988969 3.365021231e-10 -6.233101115e-10)
(0.01099660271 -3.13266265e-06 5.227957978e-10)
(0.01099422551 -9.696792961e-07 3.898548401e-10)
(0.01099564283 -4.816882368e-07 9.354462927e-10)
(0.0109963143 -3.125253984e-07 -6.460422484e-10)
(0.01099688018 -1.836989221e-07 1.339520224e-09)
(0.01099736505 -1.147947111e-07 -3.145490695e-10)
(0.01099774142 -7.611469004e-08 -2.085066261e-10)
(0.01099804223 -5.277487932e-08 1.244463458e-09)
(0.01099828375 -3.863106705e-08 -1.725473508e-09)
(0.01099847813 -3.148128341e-08 -1.215070818e-09)
(0.01099863882 -2.44114046e-08 -5.806338146e-10)
(0.01099877605 -1.981951039e-08 -2.150374528e-10)
(0.01099888276 -1.880259911e-08 9.337499721e-10)
(0.01099898221 -1.365429294e-08 1.765090282e-10)
(0.01100019777 -4.662557154e-07 5.327768248e-10)
(0.01099872883 -5.456213016e-08 -3.186148008e-10)
(0.01099860557 -1.245499642e-07 2.595348614e-10)