/*--------------------------------*- C++ -*----------------------------------*\
| =========                 |                                                 |
| \\      /  F ield         | OpenFOAM: The Open Source CFD Toolbox           |
|  \\    /   O peration     | Version:  4.x                                   |
|   \\  /    A nd           | Web:      www.OpenFOAM.org                      |
|    \\/     M anipulation  |                                                 |
\*---------------------------------------------------------------------------*/
FoamFile
{
    version     2.0;
    format      ascii;
    class       volScalarField;
    location    "6000";
    object      X_CO2;
}
// * * * * * * * * * * * * * * * * * * * * * * * * * * * * * * * * * * * * * //

dimensions      [0 0 0 0 0 0 0];

internalField   nonuniform List<scalar> 
1174
(
0.04000893561
0.04001011296
0.04001175793
0.04001388243
0.04001645605
0.04001941555
0.04002267737
0.04002614961
0.04002974151
0.04003336938
0.0400369574
0.04004042584
0.0400436338
0.04004613364
0.04001001825
0.04001187168
0.04001431467
0.04001728146
0.04002066309
0.04002433258
0.04002816447
0.04003204713
0.04003588845
0.0400396167
0.04004317647
0.04004651449
0.04004952608
0.04005183307
0.04001238336
0.04001560097
0.04001954113
0.04002397238
0.04002865251
0.04003336983
0.04003796115
0.04004231388
0.04004635962
0.04005006417
0.04005341605
0.04005640966
0.04005900043
0.04006092675
0.04001579995
0.04002073012
0.04002633264
0.04003219199
0.04003797117
0.04004343522
0.04004844326
0.04005292841
0.04005687607
0.04006030518
0.04006325286
0.04006575878
0.04006783203
0.04006932166
0.04001820005
0.04002405283
0.04003037807
0.04003672844
0.0400427885
0.04004836355
0.04005335388
0.04005772782
0.04006149878
0.04006470725
0.04006740711
0.04006965239
0.04007147028
0.04007275371
0.0400157999
0.04002073004
0.04002633254
0.04003219188
0.04003797105
0.04004343508
0.04004844312
0.04005292826
0.04005687592
0.04006030503
0.04006325271
0.04006575862
0.04006783188
0.04006932151
0.04001238328
0.04001560085
0.04001954098
0.0400239722
0.04002865231
0.04003336961
0.04003796091
0.04004231363
0.04004635936
0.0400500639
0.04005341577
0.04005640939
0.04005900015
0.04006092647
0.04001001818
0.04001187158
0.04001431455
0.04001728131
0.04002066291
0.04002433236
0.04002816423
0.04003204687
0.04003588817
0.0400396164
0.04004317615
0.04004651416
0.04004952574
0.04005183273
0.04000893556
0.04001011289
0.04001175784
0.04001388232
0.04001645591
0.04001941538
0.04002267717
0.04002614939
0.04002974126
0.0400333691
0.0400369571
0.04004042552
0.04004363346
0.0400461333
0.04000875275
0.04001001825
0.04001187168
0.04001431467
0.04001728146
0.04002066309
0.04002433258
0.04002816447
0.04003204713
0.04003588845
0.0400396167
0.04004317647
0.04004651448
0.04004952608
0.04005183307
0.0400124191
0.04001560704
0.04001945528
0.04002372544
0.04002818541
0.04003264472
0.04003696537
0.04004105818
0.04004487297
0.04004838744
0.0400515958
0.04005449271
0.04005702875
0.0400589322
0.04001838319
0.04002445293
0.04003097832
0.04003740789
0.04004337713
0.04004869808
0.04005331303
0.04005724533
0.04006056069
0.04006334088
0.04006566753
0.04006760969
0.04006920002
0.0400703379
0.04002881846
0.04003874447
0.04004807135
0.04005612601
0.04006270018
0.04006785776
0.04007178762
0.04007471399
0.04007685047
0.04007838095
0.04007945508
0.04008019039
0.04008067532
0.04008095989
0.04003849293
0.04005031322
0.04006021284
0.04006797692
0.04007380251
0.04007802293
0.04008098006
0.04008297437
0.0400842515
0.04008500451
0.0400853819
0.04008549801
0.04008544737
0.040085333
0.04002881826
0.04003874422
0.04004807107
0.04005612573
0.0400626999
0.04006785749
0.04007178737
0.04007471375
0.04007685024
0.04007838073
0.04007945487
0.04008019019
0.04008067513
0.04008095971
0.04001838295
0.04002445264
0.04003097799
0.04003740753
0.04004337675
0.04004869769
0.04005331264
0.04005724495
0.04006056031
0.04006334052
0.04006566718
0.04006760935
0.04006919968
0.04007033757
0.04001241895
0.04001560686
0.04001945507
0.0400237252
0.04002818513
0.04003264442
0.04003696505
0.04004105783
0.04004487261
0.04004838707
0.04005159543
0.04005449233
0.04005702837
0.04005893182
0.04001001819
0.04001187159
0.04001431456
0.04001728132
0.04002066291
0.04002433236
0.04002816423
0.04003204686
0.04003588815
0.04003961638
0.04004317613
0.04004651413
0.0400495257
0.04005183269
0.04001004355
0.04001238337
0.04001560096
0.04001954113
0.04002397237
0.0400286525
0.04003336983
0.04003796115
0.04004231388
0.04004635962
0.04005006417
0.04005341604
0.04005640966
0.04005900042
0.04006092674
0.04001342358
0.0400183832
0.04002445294
0.04003097833
0.0400374079
0.04004337714
0.04004869809
0.04005331304
0.04005724535
0.0400605607
0.04006334089
0.04006566754
0.0400676097
0.04006920002
0.0400703379
0.04003572324
0.04004824112
0.04005941828
0.0400684514
0.04007522353
0.04007998507
0.04008312419
0.04008503653
0.04008606595
0.04008648657
0.04008650577
0.04008627719
0.04008592298
0.04008558509
0.0400736722
0.04009435571
0.04010831752
0.04011630629
0.04011982281
0.04012032221
0.04011895096
0.04011652367
0.04011358271
0.04011047204
0.04010740183
0.04010450435
0.04010190717
0.04009993658
0.04012252011
0.04014262359
0.04015082886
0.04015179958
0.04014879615
0.04014383624
0.04013809568
0.04013223107
0.04012659186
0.0401213504
0.04011658121
0.04011231777
0.04010863263
0.04010589729
0.04007367126
0.04009435474
0.04010831663
0.04011630551
0.04011982214
0.04012032165
0.04011895049
0.04011652326
0.04011358237
0.04011047174
0.04010740157
0.04010450411
0.04010190695
0.04009993637
0.04003572244
0.04004824032
0.04005941748
0.04006845063
0.0400752228
0.04007998439
0.04008312356
0.04008503596
0.04008606543
0.04008648609
0.04008650533
0.04008627678
0.04008592259
0.04008558472
0.04001838294
0.04002445262
0.04003097795
0.04003740747
0.04004337668
0.04004869761
0.04005331255
0.04005724485
0.0400605602
0.0400633404
0.04006566706
0.04006760923
0.04006919956
0.04007033744
0.04001238328
0.04001560084
0.04001954095
0.04002397215
0.04002865224
0.04003336953
0.04003796081
0.04004231351
0.04004635923
0.04005006376
0.04005341562
0.04005640922
0.04005899998
0.04006092629
0.04001195438
0.04001579995
0.0400207301
0.04002633262
0.04003219198
0.04003797116
0.04004343521
0.04004844326
0.0400529284
0.04005687606
0.04006030517
0.04006325285
0.04006575877
0.04006783202
0.04006932165
0.04001957371
0.04002881853
0.04003874451
0.04004807139
0.04005612606
0.04006270022
0.0400678578
0.04007178765
0.04007471401
0.04007685048
0.04007838096
0.04007945508
0.04008019039
0.04008067532
0.04008095989
0.04004798386
0.04007367234
0.04009435576
0.04010831754
0.04011630629
0.0401198228
0.04012032218
0.04011895092
0.04011652362
0.04011358266
0.04011047199
0.04010740178
0.0401045043
0.04010190712
0.04009993654
0.040201933
0.0402267535
0.04022977237
0.04022128448
0.04020787144
0.04019316394
0.04017895255
0.04016600204
0.04015454818
0.04014457538
0.04013596578
0.04012858978
0.04012242326
0.04011794823
0.04044948391
0.04041430246
0.04036277923
0.04031415355
0.04027322555
0.04024006009
0.04021344146
0.04019202543
0.04017466707
0.04016047085
0.04014876227
0.04013906192
0.04013114501
0.04012548666
0.04020192958
0.04022675104
0.04022977064
0.0402212833
0.04020787065
0.04019316343
0.04017895221
0.0401660018
0.04015454801
0.04014457524
0.04013596567
0.04012858968
0.04012242316
0.04011794812
0.04007367128
0.04009435462
0.04010831643
0.04011630526
0.04011982186
0.04012032136
0.0401189502
0.04011652298
0.0401135821
0.04011047149
0.04010740132
0.04010450388
0.04010190673
0.04009993616
0.04002881819
0.04003874407
0.04004807086
0.04005612547
0.0400626996
0.04006785717
0.04007178704
0.04007471341
0.0400768499
0.0400783804
0.04007945454
0.04008018987
0.04008067481
0.04008095939
0.04001579986
0.04002072996
0.04002633242
0.04003219172
0.04003797084
0.04004343485
0.04004844285
0.04005292797
0.04005687561
0.0400603047
0.04006325237
0.04006575828
0.04006783152
0.04006932115
0.04001336416
0.04001820004
0.0400240528
0.04003037803
0.04003672841
0.04004278847
0.04004836353
0.04005335386
0.04005772781
0.04006149876
0.04006470724
0.0400674071
0.04006965238
0.04007147027
0.04007275369
0.04002587945
0.04003849292
0.04005031312
0.04006021274
0.04006797683
0.04007380244
0.04007802287
0.04008098001
0.04008297432
0.04008425146
0.04008500447
0.04008538186
0.04008549797
0.04008544733
0.04008533297
0.04008591411
0.04012252025
0.04014262337
0.04015082865
0.0401517994
0.04014879602
0.04014383612
0.04013809558
0.04013223098
0.04012659178
0.04012135033
0.04011658114
0.04011231771
0.04010863257
0.04010589723
0.04040823504
0.04044948336
0.04041430198
0.04036277884
0.04031415323
0.04027322528
0.04024005986
0.04021344127
0.04019202526
0.04017466693
0.04016047073
0.04014876217
0.04013906182
0.04013114493
0.04012548659
0.04150401851
0.04095855763
0.0406591069
0.04048491936
0.04037750821
0.04030744289
0.04025932069
0.04022474333
0.04019893543
0.04017906556
0.04016338982
0.04015082109
0.0401408016
0.0401337444
0.04044948327
0.04041430022
0.04036277749
0.04031415234
0.0402732247
0.04024005946
0.04021344097
0.04019202504
0.04017466674
0.04016047056
0.04014876202
0.04013906169
0.0401311448
0.04012548645
0.04012251969
0.04014262257
0.04015082779
0.04015179857
0.04014879525
0.04014383542
0.04013809495
0.04013223042
0.04012659127
0.04012134986
0.04011658071
0.04011231731
0.04010863219
0.04010589687
0.04003849271
0.0400503128
0.04006021231
0.04006797634
0.0400738019
0.04007802232
0.04008097945
0.04008297377
0.04008425092
0.04008500395
0.04008538135
0.04008549748
0.04008544685
0.04008533249
0.04001819997
0.04002405267
0.04003037783
0.04003672814
0.04004278814
0.04004836315
0.04005335344
0.04005772735
0.04006149828
0.04006470675
0.0400674066
0.04006965187
0.04007146976
0.04007275318
0.04001195435
0.04001579991
0.04002073003
0.04002633254
0.04003219188
0.04003797105
0.04004343509
0.04004844313
0.04005292827
0.04005687593
0.04006030504
0.04006325271
0.04006575863
0.04006783187
0.0400693215
0.04001957354
0.04002881825
0.04003874417
0.04004807102
0.04005612568
0.04006269985
0.04006785745
0.04007178732
0.04007471371
0.0400768502
0.04007838069
0.04007945484
0.04008019016
0.0400806751
0.04008095967
0.04004798296
0.04007367136
0.04009435471
0.04010831658
0.04011630545
0.04011982208
0.04012032158
0.0401189504
0.04011652317
0.04011358228
0.04011047165
0.04010740148
0.04010450403
0.04010190687
0.0400999363
0.04014383571
0.04020192982
0.04022675093
0.04022977043
0.04022128303
0.04020787034
0.0401931631
0.04017895188
0.04016600149
0.04015454773
0.04014457499
0.04013596544
0.04012858947
0.04012242298
0.04011794797
0.04040823457
0.04044948253
0.04041429949
0.04036277682
0.04031415175
0.04027322419
0.04024005902
0.0402134406
0.04019202471
0.04017466647
0.04016047033
0.04014876182
0.04013906151
0.04013114465
0.04012548632
0.0401438357
0.04020192909
0.04022675012
0.04022976972
0.04022128245
0.04020786986
0.0401931627
0.04017895155
0.0401660012
0.04015454747
0.04014457476
0.04013596523
0.04012858928
0.04012242279
0.04011794779
0.04007367197
0.04009435479
0.04010831638
0.04011630511
0.04011982167
0.04012032114
0.04011894996
0.04011652274
0.04011358186
0.04011047125
0.0401074011
0.04010450366
0.04010190652
0.04009993595
0.04002881839
0.04003874421
0.04004807094
0.0400561255
0.04006269959
0.04006785713
0.04007178697
0.04007471332
0.04007684979
0.04007838028
0.04007945441
0.04008018974
0.04008067468
0.04008095925
0.04001579992
0.04002073001
0.04002633246
0.04003219174
0.04003797085
0.04004343483
0.04004844281
0.04005292791
0.04005687554
0.04006030462
0.04006325228
0.04006575818
0.04006783142
0.04006932104
0.04001004351
0.04001238329
0.04001560085
0.04001954098
0.0400239722
0.04002865231
0.04003336962
0.04003796092
0.04004231364
0.04004635937
0.04005006391
0.04005341578
0.04005640939
0.04005900015
0.04006092646
0.04001342341
0.04001838295
0.04002445263
0.04003097798
0.04003740752
0.04004337675
0.04004869769
0.04005331264
0.04005724495
0.04006056031
0.04006334051
0.04006566717
0.04006760933
0.04006919967
0.04007033755
0.04002362217
0.04003572247
0.04004824031
0.04005941747
0.04006845062
0.04007522278
0.04007998437
0.04008312353
0.04008503592
0.04008606539
0.04008648604
0.04008650528
0.04008627673
0.04008592254
0.04008558467
0.040047983
0.0400736713
0.04009435455
0.04010831635
0.04011630518
0.04011982178
0.04012032126
0.04011895009
0.04011652288
0.04011358199
0.04011047138
0.04010740122
0.04010450379
0.04010190664
0.04009993608
0.04008591404
0.04012251954
0.04014262237
0.04015082758
0.04015179837
0.04014879505
0.04014383524
0.04013809478
0.04013223025
0.04012659112
0.04012134972
0.04011658058
0.04011231719
0.04010863208
0.04010589677
0.04004798283
0.04007367103
0.04009435425
0.04010831605
0.04011630489
0.04011982152
0.04012032102
0.04011894987
0.04011652267
0.0401135818
0.0401104712
0.04010740105
0.04010450362
0.04010190648
0.04009993592
0.04002362238
0.04003572264
0.04004824039
0.04005941745
0.04006845052
0.04007522262
0.04007998417
0.0400831233
0.04008503567
0.04008606512
0.04008648577
0.04008650501
0.04008627645
0.04008592226
0.04008558439
0.04001838314
0.04002445274
0.04003097802
0.04003740749
0.04004337666
0.04004869755
0.04005331245
0.04005724472
0.04006056005
0.04006334023
0.04006566686
0.04006760902
0.04006919934
0.04007033722
0.04001238335
0.0400156009
0.04001954101
0.04002397218
0.04002865225
0.0400333695
0.04003796076
0.04004231344
0.04004635913
0.04005006364
0.04005341548
0.04005640907
0.04005899981
0.04006092611
0.0400087527
0.04001001818
0.04001187158
0.04001431454
0.0400172813
0.0400206629
0.04002433235
0.04002816422
0.04003204686
0.04003588816
0.04003961638
0.04004317614
0.04004651414
0.04004952572
0.04005183271
0.04001007022
0.04001241894
0.04001560685
0.04001945506
0.04002372518
0.04002818512
0.04003264441
0.04003696503
0.04004105782
0.04004487259
0.04004838705
0.04005159541
0.04005449231
0.04005702835
0.04005893179
0.04001342342
0.04001838296
0.04002445262
0.04003097796
0.04003740749
0.0400433767
0.04004869763
0.04005331256
0.04005724486
0.04006056021
0.0400633404
0.04006566705
0.04006760922
0.04006919955
0.04007033743
0.04001957355
0.04002881823
0.04003874409
0.04004807089
0.0400561255
0.04006269963
0.04006785719
0.04007178704
0.04007471341
0.04007684989
0.04007838038
0.04007945452
0.04008018984
0.04008067478
0.04008095936
0.04002587939
0.0400384927
0.04005031278
0.04006021229
0.04006797632
0.04007380189
0.0400780223
0.04008097943
0.04008297375
0.04008425089
0.04008500391
0.04008538131
0.04008549744
0.04008544681
0.04008533245
0.04001957352
0.04002881818
0.04003874403
0.04004807081
0.04005612541
0.04006269953
0.04006785709
0.04007178693
0.04007471329
0.04007684977
0.04007838025
0.04007945439
0.04008018971
0.04008067465
0.04008095923
0.04001342342
0.04001838295
0.04002445259
0.0400309779
0.04003740739
0.04004337657
0.04004869747
0.04005331239
0.04005724467
0.04006056001
0.04006334019
0.04006566683
0.04006760899
0.04006919931
0.04007033719
0.04001007026
0.04001241899
0.04001560688
0.04001945506
0.04002372516
0.04002818506
0.04003264431
0.0400369649
0.04004105766
0.04004487241
0.04004838684
0.04005159518
0.04005449206
0.04005702808
0.04005893152
0.04001001824
0.04001187162
0.04001431457
0.04001728131
0.04002066288
0.04002433231
0.04002816415
0.04003204675
0.04003588802
0.04003961622
0.04004317594
0.04004651392
0.04004952548
0.04005183245
0.04000816962
0.04000893556
0.04001011288
0.04001175783
0.04001388231
0.04001645589
0.04001941536
0.04002267715
0.04002614936
0.04002974123
0.04003336907
0.04003695707
0.04004042549
0.04004363343
0.04004613326
0.04000875271
0.04001001819
0.04001187158
0.04001431455
0.04001728131
0.0400206629
0.04002433235
0.04002816422
0.04003204684
0.04003588814
0.04003961636
0.04004317611
0.04004651411
0.04004952568
0.04005183266
0.04001004352
0.04001238329
0.04001560084
0.04001954096
0.04002397216
0.04002865225
0.04003336954
0.04003796083
0.04004231353
0.04004635924
0.04005006377
0.04005341563
0.04005640923
0.04005899998
0.04006092628
0.04001195434
0.04001579987
0.04002072996
0.04002633242
0.04003219171
0.04003797084
0.04004343484
0.04004844285
0.04005292796
0.0400568756
0.0400603047
0.04006325236
0.04006575827
0.04006783151
0.04006932113
0.04001336413
0.04001819995
0.04002405264
0.0400303778
0.04003672811
0.04004278812
0.04004836313
0.04005335342
0.04005772734
0.04006149827
0.04006470673
0.04006740658
0.04006965185
0.04007146974
0.04007275316
0.04001195433
0.04001579985
0.04002072993
0.04002633239
0.04003219167
0.04003797079
0.04004343478
0.04004844278
0.04005292788
0.04005687551
0.0400603046
0.04006325226
0.04006575816
0.0400678314
0.04006932102
0.0400100435
0.04001238326
0.0400156008
0.04001954089
0.04002397207
0.04002865214
0.0400333694
0.04003796067
0.04004231335
0.04004635905
0.04005006356
0.04005341541
0.040056409
0.04005899975
0.04006092606
0.04000875271
0.04001001819
0.04001187158
0.04001431453
0.04001728127
0.04002066284
0.04002433227
0.04002816411
0.04003204671
0.04003588799
0.04003961618
0.04004317591
0.04004651389
0.04004952545
0.04005183242
0.04000816964
0.04000893558
0.04001011291
0.04001175785
0.04001388232
0.04001645589
0.04001941534
0.04002267712
0.04002614931
0.04002974115
0.04003336897
0.04003695693
0.04004042533
0.04004363325
0.04004613306
)
;

boundaryField
{
    top
    {
        type            calculated;
        value           nonuniform List<scalar> 
127
(
0.04000816964
0.04000893556
0.04001001819
0.04001238328
0.04001579986
0.04001819997
0.04001579992
0.04001238335
0.04001001824
0.04000893558
0.04001011289
0.04001187159
0.04001560084
0.04002072996
0.04002405267
0.04002073001
0.0400156009
0.04001187162
0.04001011291
0.04001175784
0.04001431456
0.04001954095
0.04002633242
0.04003037783
0.04002633246
0.04001954101
0.04001431457
0.04001175785
0.04001388232
0.04001728132
0.04002397215
0.04003219172
0.04003672814
0.04003219174
0.04002397218
0.04001728131
0.04001388232
0.04001645591
0.04002066291
0.04002865224
0.04003797084
0.04004278814
0.04003797085
0.04002865225
0.04002066288
0.04001645589
0.04001941538
0.04002433236
0.04003336953
0.04004343485
0.04004836315
0.04004343483
0.0400333695
0.04002433231
0.04001941534
0.04002267717
0.04002816423
0.04003796081
0.04004844285
0.04005335344
0.04004844281
0.04003796076
0.04002816415
0.04002267712
0.04002614939
0.04003204686
0.04004231351
0.04005292797
0.04005772735
0.04005292791
0.04004231344
0.04003204675
0.04002614931
0.04002974126
0.04003588815
0.04004635923
0.04005687561
0.04006149828
0.04005687554
0.04004635913
0.04003588802
0.04002974115
0.0400333691
0.04003961638
0.04005006376
0.0400603047
0.04006470675
0.04006030462
0.04005006364
0.04003961622
0.04003336897
0.0400369571
0.04004317613
0.04005341562
0.04006325237
0.0400674066
0.04006325228
0.04005341548
0.04004317594
0.04003695693
0.04004042552
0.04004651413
0.04005640922
0.04006575828
0.04006965187
0.04006575818
0.04005640907
0.04004651392
0.04004042533
0.04004363346
0.0400495257
0.04005899998
0.04006783152
0.04007146976
0.04006783142
0.04005899981
0.04004952548
0.04004363325
0.0400461333
0.04005183269
0.04006092629
0.04006932115
0.04007275318
0.04006932104
0.04006092611
0.04005183245
0.04004613306
)
;
    }
    bottom
    {
        type            calculated;
        value           nonuniform List<scalar> 
134
(
0.04000875275
0.04001004355
0.04001195438
0.04001336416
0.04001195435
0.04001004351
0.0400087527
0.04000816962
0.04000893561
0.04001001825
0.04001238337
0.04001579995
0.04001820004
0.04001579991
0.04001238329
0.04001001818
0.04000893556
0.04001011296
0.04001187168
0.04001560096
0.0400207301
0.0400240528
0.04002073003
0.04001560085
0.04001187158
0.04001011288
0.04001175793
0.04001431467
0.04001954113
0.04002633262
0.04003037803
0.04002633254
0.04001954098
0.04001431454
0.04001175783
0.04001388243
0.04001728146
0.04002397237
0.04003219198
0.04003672841
0.04003219188
0.0400239722
0.0400172813
0.04001388231
0.04001645605
0.04002066309
0.0400286525
0.04003797116
0.04004278847
0.04003797105
0.04002865231
0.0400206629
0.04001645589
0.04001941555
0.04002433258
0.04003336983
0.04004343521
0.04004836353
0.04004343509
0.04003336962
0.04002433235
0.04001941536
0.04002267737
0.04002816447
0.04003796115
0.04004844326
0.04005335386
0.04004844313
0.04003796092
0.04002816422
0.04002267715
0.04002614961
0.04003204713
0.04004231388
0.0400529284
0.04005772781
0.04005292827
0.04004231364
0.04003204686
0.04002614936
0.04002974151
0.04003588845
0.04004635962
0.04005687606
0.04006149876
0.04005687593
0.04004635937
0.04003588816
0.04002974123
0.04003336938
0.0400396167
0.04005006417
0.04006030517
0.04006470724
0.04006030504
0.04005006391
0.04003961638
0.04003336907
0.0400369574
0.04004317647
0.04005341604
0.04006325285
0.0400674071
0.04006325271
0.04005341578
0.04004317614
0.04003695707
0.04004042584
0.04004651448
0.04005640966
0.04006575877
0.04006965238
0.04006575863
0.04005640939
0.04004651414
0.04004042549
0.0400436338
0.04004952608
0.04005900042
0.04006783202
0.04007147027
0.04006783187
0.04005900015
0.04004952572
0.04004363343
0.04004613364
0.04005183307
0.04006092674
0.04006932165
0.04007275369
0.0400693215
0.04006092646
0.04005183271
0.04004613326
)
;
    }
    side-walls
    {
        type            calculated;
        value           nonuniform List<scalar> 
261
(
0.04000893561
0.04001001825
0.04001238336
0.04001579995
0.04001820005
0.0400157999
0.04001238328
0.04001001818
0.04000893556
0.04001011296
0.04001187168
0.04001560097
0.04002073012
0.04002405283
0.04002073004
0.04001560085
0.04001187158
0.04001011289
0.04001175793
0.04001431467
0.04001954113
0.04002633264
0.04003037807
0.04002633254
0.04001954098
0.04001431455
0.04001175784
0.04001388243
0.04001728146
0.04002397238
0.04003219199
0.04003672844
0.04003219188
0.0400239722
0.04001728131
0.04001388232
0.04001645605
0.04002066309
0.04002865251
0.04003797117
0.0400427885
0.04003797105
0.04002865231
0.04002066291
0.04001645591
0.04001941555
0.04002433258
0.04003336983
0.04004343522
0.04004836355
0.04004343508
0.04003336961
0.04002433236
0.04001941538
0.04002267737
0.04002816447
0.04003796115
0.04004844326
0.04005335388
0.04004844312
0.04003796091
0.04002816423
0.04002267717
0.04002614961
0.04003204713
0.04004231388
0.04005292841
0.04005772782
0.04005292826
0.04004231363
0.04003204687
0.04002614939
0.04002974151
0.04003588845
0.04004635962
0.04005687607
0.04006149878
0.04005687592
0.04004635936
0.04003588817
0.04002974126
0.04003336938
0.0400396167
0.04005006417
0.04006030518
0.04006470725
0.04006030503
0.0400500639
0.0400396164
0.0400333691
0.0400369574
0.04004317647
0.04005341605
0.04006325286
0.04006740711
0.04006325271
0.04005341577
0.04004317615
0.0400369571
0.04004042584
0.04004651449
0.04005640966
0.04006575878
0.04006965239
0.04006575862
0.04005640939
0.04004651416
0.04004042552
0.0400436338
0.04004952608
0.04005900043
0.04006783203
0.04007147028
0.04006783188
0.04005900015
0.04004952574
0.04004363346
0.04004613364
0.04005183307
0.04006092675
0.04006932166
0.04007275371
0.04006932151
0.04006092647
0.04005183273
0.0400461333
0.04000816962
0.04000875271
0.04001004352
0.04001195434
0.04001336413
0.04001195433
0.0400100435
0.04000875271
0.04000816964
0.04000893556
0.04001001819
0.04001238329
0.04001579987
0.04001819995
0.04001579985
0.04001238326
0.04001001819
0.04000893558
0.04001011288
0.04001187158
0.04001560084
0.04002072996
0.04002405264
0.04002072993
0.0400156008
0.04001187158
0.04001011291
0.04001175783
0.04001431455
0.04001954096
0.04002633242
0.0400303778
0.04002633239
0.04001954089
0.04001431453
0.04001175785
0.04001388231
0.04001728131
0.04002397216
0.04003219171
0.04003672811
0.04003219167
0.04002397207
0.04001728127
0.04001388232
0.04001645589
0.0400206629
0.04002865225
0.04003797084
0.04004278812
0.04003797079
0.04002865214
0.04002066284
0.04001645589
0.04001941536
0.04002433235
0.04003336954
0.04004343484
0.04004836313
0.04004343478
0.0400333694
0.04002433227
0.04001941534
0.04002267715
0.04002816422
0.04003796083
0.04004844285
0.04005335342
0.04004844278
0.04003796067
0.04002816411
0.04002267712
0.04002614936
0.04003204684
0.04004231353
0.04005292796
0.04005772734
0.04005292788
0.04004231335
0.04003204671
0.04002614931
0.04002974123
0.04003588814
0.04004635924
0.0400568756
0.04006149827
0.04005687551
0.04004635905
0.04003588799
0.04002974115
0.04003336907
0.04003961636
0.04005006377
0.0400603047
0.04006470673
0.0400603046
0.04005006356
0.04003961618
0.04003336897
0.04003695707
0.04004317611
0.04005341563
0.04006325236
0.04006740658
0.04006325226
0.04005341541
0.04004317591
0.04003695693
0.04004042549
0.04004651411
0.04005640923
0.04006575827
0.04006965185
0.04006575816
0.040056409
0.04004651389
0.04004042533
0.04004363343
0.04004952568
0.04005899998
0.04006783151
0.04007146974
0.0400678314
0.04005899975
0.04004952545
0.04004363325
0.04004613326
0.04005183266
0.04006092628
0.04006932113
0.04007275316
0.04006932102
0.04006092606
0.04005183242
0.04004613306
)
;
    }
    inlet
    {
        type            calculated;
        value           nonuniform 0();
    }
    outlet
    {
        type            calculated;
        value           nonuniform List<scalar> 
81
(
0.04004613364
0.04005183307
0.04006092675
0.04006932166
0.04007275371
0.04006932151
0.04006092647
0.04005183273
0.0400461333
0.04005183307
0.0400589322
0.0400703379
0.04008095989
0.040085333
0.04008095971
0.04007033757
0.04005893182
0.04005183269
0.04006092674
0.0400703379
0.04008558509
0.04009993658
0.04010589729
0.04009993637
0.04008558472
0.04007033744
0.04006092629
0.04006932165
0.04008095989
0.04009993654
0.04011794823
0.04012548666
0.04011794812
0.04009993616
0.04008095939
0.04006932115
0.04007275369
0.04008533297
0.04010589723
0.04012548659
0.0401337444
0.04012548645
0.04010589687
0.04008533249
0.04007275318
0.0400693215
0.04008095967
0.0400999363
0.04011794797
0.04012548632
0.04011794779
0.04009993595
0.04008095925
0.04006932104
0.04006092646
0.04007033755
0.04008558467
0.04009993608
0.04010589677
0.04009993592
0.04008558439
0.04007033722
0.04006092611
0.04005183271
0.04005893179
0.04007033743
0.04008095936
0.04008533245
0.04008095923
0.04007033719
0.04005893152
0.04005183245
0.04004613326
0.04005183266
0.04006092628
0.04006932113
0.04007275316
0.04006932102
0.04006092606
0.04005183242
0.04004613306
)
;
    }
    procBoundary1to0
    {
        type            processor;
        value           nonuniform List<scalar> 
97
(
0.04000816965
0.04000816965
0.04000875272
0.04001004351
0.0400119543
0.04001336408
0.04001195427
0.04001004346
0.04000875268
0.04000816961
0.04000799519
0.04001007029
0.04001007029
0.04001007029
0.04001342346
0.04001957349
0.04002587923
0.04001957335
0.0400134233
0.04001007017
0.04000875268
0.0400085874
0.04001008963
0.04002362256
0.04002362256
0.04002362256
0.0400479831
0.04008591344
0.04004798228
0.04002362188
0.0400134233
0.04001004347
0.04000944288
0.04001270235
0.04002393069
0.04014383844
0.04014383844
0.04014383844
0.04040823333
0.04014383403
0.04004798234
0.04001957332
0.04001195426
0.04001004386
0.04001512458
0.04003615683
0.04011792371
0.04255646031
0.04255646031
0.04255646031
0.0404082329
0.0404082329
0.04008591326
0.04002587913
0.04001336405
0.04000944287
0.04001270229
0.0400239305
0.04005602552
0.04011792361
0.04005602534
0.04004798331
0.04004798331
0.04004798331
0.04001957352
0.04001195431
0.04000858739
0.0400100896
0.0400144308
0.04002393054
0.04003615687
0.04002393047
0.04001443083
0.0400134235
0.0400134235
0.0400134235
0.04001004352
0.04000799518
0.04000859631
0.0400100896
0.04001270231
0.04001512457
0.0400127023
0.04001008959
0.04000859631
0.04000875273
0.04000875273
0.04000875273
0.04000772409
0.04000799518
0.04000858739
0.04000944287
0.04001004385
0.04000944287
0.04000858738
0.04000799518
0.04000772409
)
;
    }
}


// ************************************************************************* //
