/*--------------------------------*- C++ -*----------------------------------*\
| =========                 |                                                 |
| \\      /  F ield         | OpenFOAM: The Open Source CFD Toolbox           |
|  \\    /   O peration     | Version:  4.x                                   |
|   \\  /    A nd           | Web:      www.OpenFOAM.org                      |
|    \\/     M anipulation  |                                                 |
\*---------------------------------------------------------------------------*/
FoamFile
{
    version     2.0;
    format      ascii;
    class       volScalarField;
    location    "6000";
    object      X_H2;
}
// * * * * * * * * * * * * * * * * * * * * * * * * * * * * * * * * * * * * * //

dimensions      [0 0 0 0 0 0 0];

internalField   nonuniform List<scalar> 
1174
(
0.0598750937
0.0598739314
0.05987230761
0.05987021069
0.05986767081
0.05986475054
0.05986153248
0.05985810745
0.05985456509
0.05985098805
0.05984745113
0.05984403293
0.0598408722
0.05983840962
0.05987402439
0.05987219441
0.05986978259
0.05986685403
0.0598635165
0.0598598955
0.05985611498
0.05985228521
0.05984849714
0.05984482156
0.05984131308
0.05983802417
0.05983505777
0.05983278593
0.05987168821
0.05986851089
0.05986462057
0.05986024606
0.05985562671
0.05985097166
0.05984644207
0.05984214907
0.05983816013
0.05983450891
0.05983120662
0.0598282586
0.05982570841
0.05982381295
0.05986831302
0.05986344415
0.05985791213
0.0598521276
0.0598464235
0.05984103187
0.05983609172
0.05983166898
0.0598277779
0.05982439963
0.05982149734
0.05981903164
0.05981699309
0.05981552927
0.05986594168
0.05986016147
0.05985391576
0.05984764657
0.05984166548
0.05983616469
0.05983124254
0.05982693011
0.05982321401
0.05982005403
0.05981739683
0.05981518881
0.05981340268
0.05981214265
0.05986831307
0.05986344423
0.05985791223
0.05985212772
0.05984642364
0.05984103201
0.05983609188
0.05983166915
0.05982777808
0.05982439981
0.05982149753
0.05981903183
0.05981699329
0.05981552947
0.05987168829
0.05986851101
0.05986462071
0.05986024624
0.05985562692
0.05985097189
0.05984644233
0.05984214935
0.05983816043
0.05983450923
0.05983120695
0.05982825894
0.05982570876
0.05982381331
0.05987402446
0.05987219451
0.05986978271
0.05986685418
0.05986351668
0.05985989572
0.05985611523
0.0598522855
0.05984849746
0.0598448219
0.05984131346
0.05983802457
0.05983505819
0.05983278637
0.05987509375
0.05987393147
0.05987230769
0.0598702108
0.05986767095
0.05986475071
0.05986153269
0.05985810769
0.05985456538
0.05985098836
0.05984745148
0.05984403332
0.05984087263
0.05983841008
0.059875274
0.0598740244
0.05987219442
0.05986978259
0.05986685404
0.0598635165
0.0598598955
0.05985611498
0.05985228522
0.05984849714
0.05984482156
0.05984131309
0.05983802418
0.05983505778
0.05983278593
0.0598716528
0.05986850473
0.05986470512
0.05986048963
0.05985608762
0.05985168725
0.05984742482
0.05984338834
0.05983962727
0.05983616355
0.05983300277
0.05983015003
0.0598276537
0.05982578068
0.05986576077
0.05985976615
0.05985332261
0.05984697504
0.05984108349
0.05983583351
0.05983128191
0.05982740543
0.05982413902
0.05982140171
0.05981911278
0.0598172038
0.05981564211
0.05981452558
0.05985545027
0.05984564632
0.05983643618
0.05982848468
0.05982199729
0.05981691047
0.05981303731
0.05981015603
0.0598080554
0.05980655361
0.05980550269
0.05980478641
0.05980431698
0.05980404357
0.05984589015
0.05983421511
0.05982444003
0.05981677673
0.05981102998
0.05980687001
0.05980395866
0.05980199883
0.05980074766
0.05980001431
0.05979965196
0.05979954754
0.0597996073
0.05979972802
0.05985545047
0.05984564657
0.05983643645
0.05982848497
0.05982199758
0.05981691076
0.0598130376
0.05981015631
0.05980805568
0.05980655388
0.05980550296
0.05980478667
0.05980431724
0.05980404382
0.05986576101
0.05985976643
0.05985332293
0.0598469754
0.05984108388
0.05983583391
0.05983128233
0.05982740586
0.05982413945
0.05982140215
0.05981911321
0.05981720424
0.05981564254
0.05981452602
0.05987165295
0.0598685049
0.05986470532
0.05986048987
0.0598560879
0.05985168757
0.05984742517
0.05984338873
0.05983962769
0.05983616399
0.05983300323
0.05983015051
0.05982765419
0.05982578119
0.05987402446
0.0598721945
0.0598697827
0.05986685418
0.05986351668
0.05985989573
0.05985611525
0.05985228553
0.05984849749
0.05984482195
0.05984131351
0.05983802464
0.05983505827
0.05983278646
0.05987399896
0.05987168822
0.05986851091
0.05986462059
0.05986024608
0.05985562673
0.05985097167
0.05984644208
0.05984214909
0.05983816015
0.05983450893
0.05983120664
0.05982825861
0.05982570843
0.05982381296
0.05987065963
0.05986576078
0.05985976616
0.05985332261
0.05984697504
0.05984108349
0.0598358335
0.0598312819
0.05982740542
0.05982413901
0.05982140171
0.05981911278
0.0598172038
0.05981564211
0.05981452559
0.059848628
0.05983626366
0.05982522616
0.05981630889
0.05980962689
0.05980493225
0.05980184108
0.05979996217
0.05979895563
0.05979855051
0.05979854185
0.05979877776
0.05979913722
0.0597994786
0.05981112783
0.05979069739
0.05977691206
0.05976903068
0.05976556911
0.05976508877
0.05976645641
0.05976886691
0.05977178431
0.05977486882
0.0597779128
0.05978078558
0.05978336089
0.05978531512
0.05976285123
0.05974299744
0.05973490438
0.05973396113
0.05973694456
0.05974186033
0.05974754636
0.05975335388
0.05975893771
0.0597641277
0.05976885035
0.05977307264
0.05977672272
0.05977943239
0.05981112877
0.05979069835
0.05977691296
0.05976903149
0.05976556983
0.0597650894
0.05976645695
0.05976886739
0.05977178475
0.05977486921
0.05977791316
0.05978078592
0.05978336121
0.05978531543
0.05984862878
0.05983626443
0.05982522696
0.05981630968
0.05980962767
0.059804933
0.05980184179
0.05979996285
0.05979895627
0.05979855112
0.05979854243
0.05979877832
0.05979913776
0.05979947913
0.05986576101
0.05985976645
0.05985332298
0.05984697547
0.05984108397
0.05983583403
0.05983128246
0.05982740601
0.05982413961
0.05982140233
0.0598191134
0.05981720443
0.05981564273
0.05981452622
0.05987168829
0.05986851102
0.05986462074
0.05986024629
0.059855627
0.05985097201
0.05984644247
0.05984214952
0.05983816063
0.05983450945
0.0598312072
0.0598282592
0.05982570904
0.0598238136
0.05987211125
0.05986831304
0.05986344419
0.05985791217
0.05985212764
0.05984642354
0.0598410319
0.05983609175
0.05983166901
0.05982777793
0.05982439965
0.05982149736
0.05981903167
0.05981699312
0.0598155293
0.05986458286
0.05985545025
0.05984564632
0.05983643617
0.05982848467
0.05982199727
0.05981691045
0.0598130373
0.05981015603
0.05980805541
0.05980655362
0.05980550271
0.05980478642
0.059804317
0.05980404359
0.0598365081
0.05981112779
0.0597906974
0.05977691208
0.05976903071
0.05976556915
0.05976508883
0.05976645646
0.05976886697
0.05977178438
0.05977486888
0.05977791286
0.05978078564
0.05978336094
0.05978531517
0.05968436998
0.05965986039
0.05965689877
0.05966530774
0.05967858169
0.05969313232
0.05970719039
0.05972000055
0.05973133019
0.0597411951
0.05974971202
0.05975700922
0.05976311045
0.05976753849
0.05943968998
0.0594744999
0.05952545464
0.05957353825
0.05961400794
0.05964680128
0.05967312111
0.05969429695
0.05971146105
0.05972549897
0.05973707765
0.05974667108
0.05975450138
0.05976009827
0.05968437334
0.05965986283
0.05965690053
0.05966530902
0.05967858261
0.05969313299
0.0597071909
0.05972000095
0.05973133052
0.05974119539
0.05974971229
0.05975700947
0.05976311069
0.05976753873
0.05981112873
0.05979069848
0.0597769132
0.05976903181
0.0597655702
0.0597650898
0.05976645737
0.0597688678
0.05977178514
0.05977486959
0.05977791353
0.05978078627
0.05978336155
0.05978531576
0.05985545053
0.05984564672
0.05983643669
0.05982848528
0.05982199795
0.05981691118
0.05981303805
0.05981015678
0.05980805616
0.05980655437
0.05980550345
0.05980478716
0.05980431773
0.05980404431
0.0598683131
0.0598634443
0.05985791236
0.05985212791
0.05984642389
0.05984103232
0.05983609224
0.05983166956
0.05982777853
0.05982440029
0.05982149804
0.05981903236
0.05981699384
0.05981553004
0.05987071831
0.05986594172
0.05986016153
0.05985391582
0.05984764663
0.05984166553
0.05983616474
0.05983124258
0.05982693016
0.05982321405
0.05982005407
0.05981739687
0.05981518885
0.05981340272
0.05981214269
0.05985835139
0.05984589022
0.05983421525
0.05982444017
0.05981677686
0.0598110301
0.0598068701
0.05980395874
0.05980199891
0.05980074774
0.05980001437
0.05979965203
0.05979954761
0.05979960736
0.05979972808
0.05979901957
0.05976285127
0.05974299774
0.05973490465
0.05973396136
0.05973694475
0.05974186049
0.05974754649
0.059753354
0.05975893781
0.05976412779
0.05976885044
0.05977307272
0.0597767228
0.05977943246
0.05948042586
0.05943969086
0.05947450055
0.05952545514
0.05957353864
0.05961400826
0.05964680154
0.05967312133
0.05969429714
0.05971146121
0.05972549911
0.05973707777
0.05974667119
0.05975450147
0.05976009835
0.05839730316
0.0589365537
0.05923258659
0.05940478227
0.05951096371
0.05958022653
0.05962779776
0.05966197971
0.05968749308
0.05970713688
0.05972263502
0.05973506211
0.05974496937
0.05975194798
0.05943969055
0.05947450212
0.05952545657
0.05957353974
0.0596140091
0.05964680221
0.05967312187
0.05969429761
0.05971146162
0.05972549948
0.05973707811
0.0597466715
0.05975450178
0.05976009865
0.05976285159
0.05974299847
0.05973490558
0.05973396235
0.05973694574
0.05974186144
0.0597475474
0.05975335484
0.0597589386
0.05976412854
0.05976885114
0.05977307339
0.05977672343
0.05977943308
0.05984589035
0.05983421553
0.05982444061
0.05981677742
0.05981103075
0.05980687081
0.05980395948
0.05980199967
0.0598007485
0.05980001514
0.05979965279
0.05979954836
0.05979960811
0.05979972883
0.05986594175
0.05986016162
0.05985391602
0.05984764692
0.05984166592
0.05983616521
0.05983124313
0.05982693077
0.05982321471
0.05982005478
0.0598173976
0.05981518961
0.0598134035
0.0598121435
0.05987211126
0.05986831308
0.05986344425
0.05985791225
0.05985212774
0.05984642366
0.05984103203
0.05983609189
0.05983166917
0.0598277781
0.05982439983
0.05982149755
0.05981903186
0.05981699332
0.05981552951
0.05986458303
0.05985545052
0.05984564666
0.05983643655
0.05982848506
0.05982199767
0.05981691084
0.05981303768
0.05981015639
0.05980805575
0.05980655395
0.05980550303
0.05980478673
0.0598043173
0.05980404388
0.05983650903
0.05981112879
0.05979069846
0.05977691308
0.05976903161
0.05976556995
0.05976508953
0.05976645709
0.05976886753
0.05977178488
0.05977486934
0.05977791328
0.05978078603
0.05978336131
0.05978531552
0.05974177458
0.0596843734
0.05965986311
0.05965690087
0.05966530939
0.059678583
0.05969313338
0.05970719128
0.0597200013
0.05973133084
0.05974119568
0.05974971254
0.05975700969
0.05976311089
0.05976753891
0.05948042636
0.05943969168
0.05947450306
0.05952545737
0.05957354041
0.05961400967
0.05964680269
0.05967312228
0.05969429796
0.05971146192
0.05972549973
0.05973707832
0.05974667169
0.05975450194
0.05976009879
0.0597417745
0.05968437404
0.05965986396
0.05965690172
0.05966531018
0.05967858371
0.05969313402
0.05970719185
0.05972000181
0.0597313313
0.0597411961
0.05974971294
0.05975701007
0.05976311124
0.05976753925
0.05981112806
0.05979069837
0.05977691337
0.05976903212
0.05976557058
0.05976509021
0.05976645779
0.05976886823
0.05977178557
0.05977487001
0.05977791393
0.05978078666
0.05978336192
0.05978531612
0.05985545031
0.0598456466
0.05983643665
0.05982848532
0.05982199804
0.05981691132
0.05981303822
0.05981015699
0.05980805639
0.05980655461
0.0598055037
0.05980478742
0.05980431799
0.05980404458
0.05986831304
0.05986344425
0.05985791233
0.05985212792
0.05984642393
0.05984103239
0.05983609234
0.05983166968
0.05982777868
0.05982440046
0.05982149822
0.05981903256
0.05981699405
0.05981553026
0.059873999
0.0598716883
0.05986851102
0.05986462073
0.05986024625
0.05985562693
0.05985097191
0.05984644234
0.05984214937
0.05983816045
0.05983450925
0.05983120698
0.05982825897
0.05982570879
0.05982381334
0.0598706598
0.05986576103
0.05985976647
0.05985332297
0.05984697544
0.05984108392
0.05983583395
0.05983128237
0.0598274059
0.05982413949
0.0598214022
0.05981911326
0.05981720429
0.05981564259
0.05981452607
0.05986058266
0.05984862882
0.0598362645
0.05982522702
0.05981630975
0.05980962774
0.05980493308
0.05980184188
0.05979996293
0.05979895636
0.05979855121
0.05979854252
0.0597987784
0.05979913784
0.05979947921
0.05983650899
0.05981112885
0.05979069865
0.05977691337
0.05976903197
0.05976557036
0.05976508996
0.05976645752
0.05976886796
0.0597717853
0.05977486974
0.05977791367
0.0597807864
0.05978336167
0.05978531587
0.05979901961
0.05976285196
0.05974299883
0.05973490591
0.05973396265
0.05973694601
0.05974186169
0.05974754762
0.05975335505
0.05975893879
0.05976412871
0.05976885129
0.05977307353
0.05977672356
0.0597794332
0.05983650915
0.05981112913
0.059790699
0.05977691376
0.05976903238
0.05976557077
0.05976509036
0.05976645791
0.05976886832
0.05977178565
0.05977487008
0.05977791399
0.05978078671
0.05978336197
0.05978531617
0.05986058243
0.05984862864
0.05983626445
0.05982522711
0.05981630996
0.05980962804
0.05980493345
0.0598018423
0.05979996339
0.05979895683
0.0597985517
0.05979854301
0.0597987789
0.05979913834
0.05979947971
0.05986576082
0.05985976635
0.05985332296
0.05984697552
0.0598410841
0.05983583422
0.0598312827
0.05982740629
0.05982413994
0.05982140268
0.05981911378
0.05981720483
0.05981564316
0.05981452666
0.05987168822
0.05986851096
0.05986462071
0.0598602463
0.05985562705
0.0598509721
0.05984644261
0.0598421497
0.05983816085
0.05983450971
0.05983120749
0.05982825952
0.05982570938
0.05982381397
0.05987527404
0.05987402447
0.05987219452
0.05986978273
0.0598668542
0.05986351671
0.05985989575
0.05985611526
0.05985228554
0.05984849749
0.05984482194
0.0598413135
0.05983802462
0.05983505824
0.05983278641
0.05987397256
0.05987165297
0.05986850493
0.05986470536
0.0598604899
0.05985608794
0.05985168761
0.05984742521
0.05984338877
0.05983962773
0.05983616404
0.05983300328
0.05983015056
0.05982765425
0.05982578124
0.0598706598
0.05986576102
0.05985976648
0.059853323
0.05984697549
0.05984108399
0.05983583405
0.05983128249
0.05982740604
0.05982413965
0.05982140236
0.05981911344
0.05981720447
0.05981564278
0.05981452627
0.05986458301
0.05985545055
0.05984564675
0.05983643672
0.05982848531
0.05982199798
0.05981691121
0.05981303809
0.05981015683
0.05980805622
0.05980655443
0.05980550351
0.05980478722
0.0598043178
0.05980404438
0.05985835144
0.05984589044
0.05983421564
0.05982444071
0.0598167775
0.05981103083
0.05980687089
0.05980395956
0.05980199975
0.05980074858
0.05980001521
0.05979965286
0.05979954843
0.05979960818
0.0597997289
0.05986458304
0.05985545061
0.05984564684
0.05983643684
0.05982848546
0.05982199815
0.0598169114
0.0598130383
0.05981015705
0.05980805644
0.05980655466
0.05980550375
0.05980478746
0.05980431804
0.05980404462
0.05987065979
0.05986576103
0.05985976653
0.0598533231
0.05984697564
0.0598410842
0.0598358343
0.05983128278
0.05982740636
0.05982413999
0.05982140273
0.05981911382
0.05981720487
0.05981564319
0.05981452669
0.05987397251
0.05987165292
0.0598685049
0.05986470537
0.05986048997
0.05985608806
0.05985168778
0.05984742544
0.05984338905
0.05983962806
0.0598361644
0.05983300368
0.059830151
0.05982765471
0.05982578173
0.05987402441
0.05987219447
0.0598697827
0.05986685421
0.05986351676
0.05985989584
0.05985611541
0.05985228574
0.05984849775
0.05984482225
0.05984131386
0.05983802503
0.05983505869
0.05983278691
0.05987584994
0.05987509376
0.05987393148
0.05987230771
0.05987021082
0.05986767098
0.05986475075
0.05986153273
0.05985810774
0.05985456543
0.05985098842
0.05984745154
0.05984403338
0.05984087269
0.05983841014
0.05987527404
0.05987402447
0.05987219452
0.05986978272
0.0598668542
0.05986351671
0.05985989576
0.05985611528
0.05985228557
0.05984849754
0.05984482199
0.05984131356
0.05983802469
0.05983505832
0.05983278651
0.05987399899
0.0598716883
0.05986851103
0.05986462076
0.05986024631
0.05985562702
0.05985097202
0.05984644249
0.05984214954
0.05983816065
0.05983450947
0.05983120722
0.05982825923
0.05982570907
0.05982381364
0.05987211127
0.05986831312
0.05986344434
0.0598579124
0.05985212795
0.05984642393
0.05984103237
0.05983609228
0.0598316696
0.05982777857
0.05982440034
0.05982149808
0.05981903241
0.05981699389
0.05981553009
0.05987071834
0.05986594181
0.0598601617
0.05985391609
0.05984764699
0.05984166599
0.05983616528
0.05983124319
0.05982693083
0.05982321477
0.05982005483
0.05981739766
0.05981518967
0.05981340355
0.05981214355
0.05987211129
0.05986831314
0.05986344437
0.05985791245
0.05985212802
0.05984642402
0.05984103248
0.05983609241
0.05983166975
0.05982777874
0.05982440052
0.05982149827
0.05981903261
0.05981699409
0.05981553031
0.05987399901
0.05987168833
0.05986851109
0.05986462085
0.05986024643
0.05985562718
0.05985097222
0.05984644273
0.05984214981
0.05983816095
0.0598345098
0.05983120757
0.05982825959
0.05982570945
0.05982381403
0.05987527404
0.05987402446
0.05987219453
0.05986978275
0.05986685426
0.0598635168
0.05985989589
0.05985611546
0.05985228578
0.0598484978
0.05984482229
0.0598413139
0.05983802506
0.05983505872
0.05983278694
0.05987584993
0.05987509373
0.05987393146
0.0598723077
0.05987021082
0.05986767101
0.05986475081
0.05986153282
0.05985810787
0.05985456561
0.05985098865
0.05984745182
0.05984403371
0.05984087306
0.05983841056
)
;

boundaryField
{
    top
    {
        type            calculated;
        value           nonuniform List<scalar> 
127
(
0.05987584993
0.05987509375
0.05987402446
0.05987168829
0.0598683131
0.05986594175
0.05986831304
0.05987168822
0.05987402441
0.05987509373
0.05987393147
0.0598721945
0.05986851102
0.0598634443
0.05986016162
0.05986344425
0.05986851096
0.05987219447
0.05987393146
0.05987230769
0.0598697827
0.05986462074
0.05985791236
0.05985391602
0.05985791233
0.05986462071
0.0598697827
0.0598723077
0.0598702108
0.05986685418
0.05986024629
0.05985212791
0.05984764692
0.05985212792
0.0598602463
0.05986685421
0.05987021082
0.05986767095
0.05986351668
0.059855627
0.05984642389
0.05984166592
0.05984642393
0.05985562705
0.05986351676
0.05986767101
0.05986475071
0.05985989573
0.05985097201
0.05984103232
0.05983616521
0.05984103239
0.0598509721
0.05985989584
0.05986475081
0.05986153269
0.05985611525
0.05984644247
0.05983609224
0.05983124313
0.05983609234
0.05984644261
0.05985611541
0.05986153282
0.05985810769
0.05985228553
0.05984214952
0.05983166956
0.05982693077
0.05983166968
0.0598421497
0.05985228574
0.05985810787
0.05985456538
0.05984849749
0.05983816063
0.05982777853
0.05982321471
0.05982777868
0.05983816085
0.05984849775
0.05985456561
0.05985098836
0.05984482195
0.05983450945
0.05982440029
0.05982005478
0.05982440046
0.05983450971
0.05984482225
0.05985098865
0.05984745148
0.05984131351
0.0598312072
0.05982149804
0.0598173976
0.05982149822
0.05983120749
0.05984131386
0.05984745182
0.05984403332
0.05983802464
0.0598282592
0.05981903236
0.05981518961
0.05981903256
0.05982825952
0.05983802503
0.05984403371
0.05984087263
0.05983505827
0.05982570904
0.05981699384
0.0598134035
0.05981699405
0.05982570938
0.05983505869
0.05984087306
0.05983841008
0.05983278646
0.0598238136
0.05981553004
0.0598121435
0.05981553026
0.05982381397
0.05983278691
0.05983841056
)
;
    }
    bottom
    {
        type            calculated;
        value           nonuniform List<scalar> 
134
(
0.059875274
0.05987399896
0.05987211125
0.05987071831
0.05987211126
0.059873999
0.05987527404
0.05987584994
0.0598750937
0.0598740244
0.05987168822
0.05986831304
0.05986594172
0.05986831308
0.0598716883
0.05987402447
0.05987509376
0.0598739314
0.05987219442
0.05986851091
0.05986344419
0.05986016153
0.05986344425
0.05986851102
0.05987219452
0.05987393148
0.05987230761
0.05986978259
0.05986462059
0.05985791217
0.05985391582
0.05985791225
0.05986462073
0.05986978273
0.05987230771
0.05987021069
0.05986685404
0.05986024608
0.05985212764
0.05984764663
0.05985212774
0.05986024625
0.0598668542
0.05987021082
0.05986767081
0.0598635165
0.05985562673
0.05984642354
0.05984166553
0.05984642366
0.05985562693
0.05986351671
0.05986767098
0.05986475054
0.0598598955
0.05985097167
0.0598410319
0.05983616474
0.05984103203
0.05985097191
0.05985989575
0.05986475075
0.05986153248
0.05985611498
0.05984644208
0.05983609175
0.05983124258
0.05983609189
0.05984644234
0.05985611526
0.05986153273
0.05985810745
0.05985228522
0.05984214909
0.05983166901
0.05982693016
0.05983166917
0.05984214937
0.05985228554
0.05985810774
0.05985456509
0.05984849714
0.05983816015
0.05982777793
0.05982321405
0.0598277781
0.05983816045
0.05984849749
0.05985456543
0.05985098805
0.05984482156
0.05983450893
0.05982439965
0.05982005407
0.05982439983
0.05983450925
0.05984482194
0.05985098842
0.05984745113
0.05984131309
0.05983120664
0.05982149736
0.05981739687
0.05982149755
0.05983120698
0.0598413135
0.05984745154
0.05984403293
0.05983802418
0.05982825861
0.05981903167
0.05981518885
0.05981903186
0.05982825897
0.05983802462
0.05984403338
0.0598408722
0.05983505778
0.05982570843
0.05981699312
0.05981340272
0.05981699332
0.05982570879
0.05983505824
0.05984087269
0.05983840962
0.05983278593
0.05982381296
0.0598155293
0.05981214269
0.05981552951
0.05982381334
0.05983278641
0.05983841014
)
;
    }
    side-walls
    {
        type            calculated;
        value           nonuniform List<scalar> 
261
(
0.0598750937
0.05987402439
0.05987168821
0.05986831302
0.05986594168
0.05986831307
0.05987168829
0.05987402446
0.05987509375
0.0598739314
0.05987219441
0.05986851089
0.05986344415
0.05986016147
0.05986344423
0.05986851101
0.05987219451
0.05987393147
0.05987230761
0.05986978259
0.05986462057
0.05985791213
0.05985391576
0.05985791223
0.05986462071
0.05986978271
0.05987230769
0.05987021069
0.05986685403
0.05986024606
0.0598521276
0.05984764657
0.05985212772
0.05986024624
0.05986685418
0.0598702108
0.05986767081
0.0598635165
0.05985562671
0.0598464235
0.05984166548
0.05984642364
0.05985562692
0.05986351668
0.05986767095
0.05986475054
0.0598598955
0.05985097166
0.05984103187
0.05983616469
0.05984103201
0.05985097189
0.05985989572
0.05986475071
0.05986153248
0.05985611498
0.05984644207
0.05983609172
0.05983124254
0.05983609188
0.05984644233
0.05985611523
0.05986153269
0.05985810745
0.05985228521
0.05984214907
0.05983166898
0.05982693011
0.05983166915
0.05984214935
0.0598522855
0.05985810769
0.05985456509
0.05984849714
0.05983816013
0.0598277779
0.05982321401
0.05982777808
0.05983816043
0.05984849746
0.05985456538
0.05985098805
0.05984482156
0.05983450891
0.05982439963
0.05982005403
0.05982439981
0.05983450923
0.0598448219
0.05985098836
0.05984745113
0.05984131308
0.05983120662
0.05982149734
0.05981739683
0.05982149753
0.05983120695
0.05984131346
0.05984745148
0.05984403293
0.05983802417
0.0598282586
0.05981903164
0.05981518881
0.05981903183
0.05982825894
0.05983802457
0.05984403332
0.0598408722
0.05983505777
0.05982570841
0.05981699309
0.05981340268
0.05981699329
0.05982570876
0.05983505819
0.05984087263
0.05983840962
0.05983278593
0.05982381295
0.05981552927
0.05981214265
0.05981552947
0.05982381331
0.05983278637
0.05983841008
0.05987584994
0.05987527404
0.05987399899
0.05987211127
0.05987071834
0.05987211129
0.05987399901
0.05987527404
0.05987584993
0.05987509376
0.05987402447
0.0598716883
0.05986831312
0.05986594181
0.05986831314
0.05987168833
0.05987402446
0.05987509373
0.05987393148
0.05987219452
0.05986851103
0.05986344434
0.0598601617
0.05986344437
0.05986851109
0.05987219453
0.05987393146
0.05987230771
0.05986978272
0.05986462076
0.0598579124
0.05985391609
0.05985791245
0.05986462085
0.05986978275
0.0598723077
0.05987021082
0.0598668542
0.05986024631
0.05985212795
0.05984764699
0.05985212802
0.05986024643
0.05986685426
0.05987021082
0.05986767098
0.05986351671
0.05985562702
0.05984642393
0.05984166599
0.05984642402
0.05985562718
0.0598635168
0.05986767101
0.05986475075
0.05985989576
0.05985097202
0.05984103237
0.05983616528
0.05984103248
0.05985097222
0.05985989589
0.05986475081
0.05986153273
0.05985611528
0.05984644249
0.05983609228
0.05983124319
0.05983609241
0.05984644273
0.05985611546
0.05986153282
0.05985810774
0.05985228557
0.05984214954
0.0598316696
0.05982693083
0.05983166975
0.05984214981
0.05985228578
0.05985810787
0.05985456543
0.05984849754
0.05983816065
0.05982777857
0.05982321477
0.05982777874
0.05983816095
0.0598484978
0.05985456561
0.05985098842
0.05984482199
0.05983450947
0.05982440034
0.05982005483
0.05982440052
0.0598345098
0.05984482229
0.05985098865
0.05984745154
0.05984131356
0.05983120722
0.05982149808
0.05981739766
0.05982149827
0.05983120757
0.0598413139
0.05984745182
0.05984403338
0.05983802469
0.05982825923
0.05981903241
0.05981518967
0.05981903261
0.05982825959
0.05983802506
0.05984403371
0.05984087269
0.05983505832
0.05982570907
0.05981699389
0.05981340355
0.05981699409
0.05982570945
0.05983505872
0.05984087306
0.05983841014
0.05983278651
0.05982381364
0.05981553009
0.05981214355
0.05981553031
0.05982381403
0.05983278694
0.05983841056
)
;
    }
    inlet
    {
        type            calculated;
        value           nonuniform 0();
    }
    outlet
    {
        type            calculated;
        value           nonuniform List<scalar> 
81
(
0.05983840962
0.05983278593
0.05982381295
0.05981552927
0.05981214265
0.05981552947
0.05982381331
0.05983278637
0.05983841008
0.05983278593
0.05982578068
0.05981452558
0.05980404357
0.05979972802
0.05980404382
0.05981452602
0.05982578119
0.05983278646
0.05982381296
0.05981452559
0.0597994786
0.05978531512
0.05977943239
0.05978531543
0.05979947913
0.05981452622
0.0598238136
0.0598155293
0.05980404359
0.05978531517
0.05976753849
0.05976009827
0.05976753873
0.05978531576
0.05980404431
0.05981553004
0.05981214269
0.05979972808
0.05977943246
0.05976009835
0.05975194798
0.05976009865
0.05977943308
0.05979972883
0.0598121435
0.05981552951
0.05980404388
0.05978531552
0.05976753891
0.05976009879
0.05976753925
0.05978531612
0.05980404458
0.05981553026
0.05982381334
0.05981452607
0.05979947921
0.05978531587
0.0597794332
0.05978531617
0.05979947971
0.05981452666
0.05982381397
0.05983278641
0.05982578124
0.05981452627
0.05980404438
0.0597997289
0.05980404462
0.05981452669
0.05982578173
0.05983278691
0.05983841014
0.05983278651
0.05982381364
0.05981553009
0.05981214355
0.05981553031
0.05982381403
0.05983278694
0.05983841056
)
;
    }
    procBoundary1to0
    {
        type            processor;
        value           nonuniform List<scalar> 
97
(
0.05987584992
0.05987584992
0.05987527403
0.059873999
0.05987211133
0.05987071841
0.05987211136
0.05987399906
0.05987527407
0.05987584996
0.05987602207
0.05987397249
0.05987397249
0.05987397249
0.05987065976
0.05986458311
0.05985835169
0.05986458326
0.05987065993
0.05987397261
0.05987527407
0.05987543711
0.059873953
0.05986058227
0.05986058227
0.05986058227
0.05983650903
0.05979902074
0.05983650989
0.05986058301
0.05987065993
0.05987399905
0.05987459199
0.05987137152
0.05986027622
0.05974177226
0.05974177226
0.05974177226
0.05948043152
0.05974177707
0.05983650982
0.05986458328
0.05987211137
0.05987399821
0.05986897791
0.05984819304
0.05976737762
0.0573568434
0.0573568434
0.0573568434
0.05948043179
0.05948043179
0.05979902088
0.05985835178
0.05987071844
0.05987459199
0.05987137156
0.05986027634
0.05982855742
0.05976737752
0.05982855771
0.05983650866
0.05983650866
0.05983650866
0.05986458306
0.05987211132
0.05987543711
0.05987395302
0.0598696637
0.05986027629
0.05984819297
0.05986027639
0.0598696637
0.0598706597
0.0598706597
0.0598706597
0.05987399899
0.05987602208
0.05987542827
0.05987395302
0.05987137154
0.05986897791
0.05987137156
0.05987395303
0.05987542827
0.05987527401
0.05987527401
0.05987527401
0.05987628983
0.05987602208
0.05987543711
0.05987459199
0.05987399822
0.059874592
0.05987543712
0.05987602208
0.05987628983
)
;
    }
}


// ************************************************************************* //
