/*--------------------------------*- C++ -*----------------------------------*\
| =========                 |                                                 |
| \\      /  F ield         | OpenFOAM: The Open Source CFD Toolbox           |
|  \\    /   O peration     | Version:  4.x                                   |
|   \\  /    A nd           | Web:      www.OpenFOAM.org                      |
|    \\/     M anipulation  |                                                 |
\*---------------------------------------------------------------------------*/
FoamFile
{
    version     2.0;
    format      ascii;
    class       volScalarField;
    location    "8000";
    object      CO;
}
// * * * * * * * * * * * * * * * * * * * * * * * * * * * * * * * * * * * * * //

dimensions      [0 0 0 0 0 0 0];

internalField   nonuniform List<scalar> 
1175
(
0.331582725
0.331582725
0.331582725
0.331582725
0.3315827249
0.3315827249
0.3315827247
0.331582724
0.3315827219
0.3315827157
0.331582698
0.3315826512
0.3315825369
0.3315822851
0.3315817904
0.331582725
0.331582725
0.331582725
0.331582725
0.3315827249
0.3315827249
0.3315827246
0.3315827237
0.3315827207
0.3315827113
0.3315826835
0.3315826068
0.3315824137
0.3315819785
0.3315811236
0.331582725
0.331582725
0.331582725
0.331582725
0.3315827249
0.3315827248
0.3315827244
0.331582723
0.3315827183
0.3315827027
0.3315826546
0.3315825155
0.3315821499
0.3315813021
0.3315796326
0.331582725
0.331582725
0.331582725
0.3315827249
0.3315827249
0.3315827248
0.3315827242
0.3315827223
0.3315827156
0.3315826927
0.3315826187
0.3315823954
0.3315817827
0.3315803126
0.3315773969
0.331582725
0.331582725
0.331582725
0.3315827249
0.3315827249
0.3315827248
0.3315827242
0.331582722
0.3315827143
0.3315826875
0.3315825987
0.331582323
0.3315815415
0.3315796073
0.3315757227
0.331582725
0.331582725
0.331582725
0.3315827249
0.3315827249
0.3315827248
0.3315827242
0.3315827223
0.3315827156
0.3315826927
0.3315826187
0.3315823954
0.3315817827
0.3315803126
0.3315773969
0.331582725
0.331582725
0.331582725
0.331582725
0.3315827249
0.3315827248
0.3315827244
0.331582723
0.3315827183
0.3315827027
0.3315826546
0.3315825155
0.3315821499
0.3315813021
0.3315796326
0.331582725
0.331582725
0.331582725
0.331582725
0.3315827249
0.3315827249
0.3315827246
0.3315827237
0.3315827207
0.3315827113
0.3315826835
0.3315826069
0.3315824137
0.3315819785
0.3315811237
0.331582725
0.331582725
0.331582725
0.331582725
0.3315827249
0.3315827249
0.3315827247
0.331582724
0.3315827219
0.3315827157
0.331582698
0.3315826512
0.3315825369
0.3315822851
0.3315817905
0.331582725
0.331582725
0.331582725
0.331582725
0.3315827249
0.3315827249
0.3315827246
0.3315827237
0.3315827207
0.3315827113
0.3315826835
0.3315826068
0.3315824137
0.3315819785
0.331582725
0.331582725
0.331582725
0.331582725
0.3315827249
0.3315827248
0.3315827244
0.3315827231
0.3315827185
0.3315827032
0.3315826555
0.3315825165
0.3315821482
0.3315812886
0.3315795945
0.331582725
0.331582725
0.331582725
0.3315827249
0.3315827249
0.3315827248
0.3315827242
0.331582722
0.3315827142
0.3315826868
0.3315825955
0.331582312
0.3315815125
0.3315795553
0.3315756578
0.331582725
0.331582725
0.331582725
0.3315827249
0.3315827249
0.3315827247
0.3315827239
0.3315827208
0.331582709
0.3315826656
0.3315825125
0.3315820046
0.3315804717
0.3315764802
0.3315683349
0.331582725
0.331582725
0.331582725
0.3315827249
0.3315827249
0.3315827247
0.3315827238
0.3315827202
0.3315827062
0.3315826533
0.3315824592
0.3315817832
0.3315796165
0.3315735846
0.3315607081
0.331582725
0.331582725
0.331582725
0.3315827249
0.3315827249
0.3315827247
0.3315827239
0.3315827208
0.331582709
0.3315826656
0.3315825125
0.3315820046
0.3315804717
0.3315764802
0.331568335
0.331582725
0.331582725
0.331582725
0.3315827249
0.3315827249
0.3315827248
0.3315827242
0.331582722
0.3315827142
0.3315826868
0.3315825955
0.331582312
0.3315815125
0.3315795553
0.3315756579
0.331582725
0.331582725
0.331582725
0.331582725
0.3315827249
0.3315827248
0.3315827244
0.3315827231
0.3315827185
0.3315827032
0.3315826555
0.3315825165
0.3315821482
0.3315812886
0.3315795946
0.331582725
0.331582725
0.331582725
0.331582725
0.3315827249
0.3315827249
0.3315827246
0.3315827237
0.3315827207
0.3315827113
0.3315826835
0.3315826069
0.3315824137
0.3315819785
0.3315811237
0.331582725
0.331582725
0.331582725
0.331582725
0.3315827249
0.3315827248
0.3315827244
0.331582723
0.3315827183
0.3315827027
0.3315826546
0.3315825155
0.3315821499
0.3315813021
0.331582725
0.331582725
0.331582725
0.3315827249
0.3315827249
0.3315827248
0.3315827242
0.331582722
0.3315827142
0.3315826868
0.3315825955
0.3315823119
0.3315815125
0.3315795552
0.331582725
0.331582725
0.331582725
0.3315827249
0.3315827249
0.3315827247
0.3315827237
0.33158272
0.3315827057
0.3315826519
0.3315824576
0.3315818001
0.3315797793
0.3315744443
0.331563512
0.331582725
0.331582725
0.331582725
0.3315827249
0.3315827249
0.3315827245
0.3315827232
0.3315827176
0.3315826947
0.3315826024
0.3315822423
0.3315809082
0.3315763723
0.3315630982
0.3315340765
0.331582725
0.331582725
0.331582725
0.3315827249
0.3315827248
0.3315827245
0.3315827229
0.3315827163
0.3315826882
0.3315825698
0.3315820803
0.3315801213
0.3315727518
0.3315482679
0.3314875458
0.331582725
0.331582725
0.331582725
0.3315827249
0.3315827249
0.3315827245
0.3315827232
0.3315827176
0.3315826947
0.3315826024
0.3315822423
0.3315809082
0.3315763724
0.3315630985
0.3315340771
0.331582725
0.331582725
0.331582725
0.3315827249
0.3315827249
0.3315827247
0.3315827237
0.33158272
0.3315827057
0.3315826519
0.3315824576
0.3315818001
0.3315797793
0.3315744445
0.3315635125
0.331582725
0.331582725
0.331582725
0.3315827249
0.3315827249
0.3315827248
0.3315827242
0.331582722
0.3315827142
0.3315826868
0.3315825955
0.331582312
0.3315815125
0.3315795553
0.3315756579
0.331582725
0.331582725
0.331582725
0.331582725
0.3315827249
0.3315827248
0.3315827244
0.331582723
0.3315827183
0.3315827027
0.3315826546
0.3315825155
0.3315821499
0.3315813021
0.3315796326
0.331582725
0.331582725
0.331582725
0.3315827249
0.3315827249
0.3315827248
0.3315827242
0.3315827223
0.3315827156
0.3315826927
0.3315826187
0.3315823954
0.3315817827
0.3315803125
0.331582725
0.331582725
0.331582725
0.3315827249
0.3315827249
0.3315827247
0.3315827239
0.3315827208
0.331582709
0.3315826656
0.3315825125
0.3315820046
0.3315804717
0.33157648
0.331582725
0.331582725
0.331582725
0.3315827249
0.3315827249
0.3315827245
0.3315827232
0.3315827176
0.3315826947
0.3315826024
0.3315822423
0.3315809082
0.3315763722
0.3315630977
0.331582725
0.331582725
0.331582725
0.3315827249
0.3315827248
0.3315827244
0.3315827224
0.3315827135
0.3315826746
0.3315825036
0.3315817645
0.3315786665
0.3315664713
0.3315242706
0.3314167531
0.331582725
0.331582725
0.331582725
0.3315827249
0.3315827248
0.3315827243
0.3315827219
0.3315827112
0.3315826615
0.3315824293
0.3315813356
0.3315761753
0.3315522402
0.3314482534
0.3310886006
0.331582725
0.331582725
0.331582725
0.3315827249
0.3315827248
0.3315827244
0.3315827224
0.3315827135
0.3315826746
0.3315825036
0.3315817645
0.3315786665
0.3315664715
0.3315242715
0.3314167571
0.331582725
0.331582725
0.331582725
0.3315827249
0.3315827249
0.3315827245
0.3315827232
0.3315827176
0.3315826947
0.3315826024
0.3315822423
0.3315809082
0.3315763723
0.3315630984
0.3315340771
0.331582725
0.331582725
0.331582725
0.3315827249
0.3315827249
0.3315827247
0.3315827239
0.3315827208
0.331582709
0.3315826656
0.3315825125
0.3315820046
0.3315804717
0.3315764802
0.331568335
0.331582725
0.331582725
0.331582725
0.3315827249
0.3315827249
0.3315827248
0.3315827242
0.3315827223
0.3315827156
0.3315826927
0.3315826187
0.3315823954
0.3315817827
0.3315803126
0.3315773969
0.331582725
0.331582725
0.331582725
0.3315827249
0.3315827249
0.3315827248
0.3315827242
0.331582722
0.3315827143
0.3315826875
0.3315825987
0.331582323
0.3315815415
0.3315796072
0.331582725
0.331582725
0.331582725
0.3315827249
0.3315827249
0.3315827247
0.3315827238
0.3315827202
0.3315827062
0.3315826533
0.3315824592
0.3315817832
0.3315796164
0.3315735843
0.331582725
0.331582725
0.331582725
0.3315827249
0.3315827248
0.3315827245
0.3315827229
0.3315827163
0.3315826882
0.3315825698
0.3315820803
0.3315801212
0.3315727515
0.3315482665
0.331582725
0.331582725
0.331582725
0.3315827249
0.3315827248
0.3315827243
0.3315827219
0.3315827112
0.3315826615
0.3315824293
0.3315813356
0.3315761752
0.3315522395
0.3314482489
0.331582725
0.331582725
0.331582725
0.3315827249
0.3315827248
0.3315827242
0.3315827214
0.331582708
0.3315826426
0.3315823103
0.3315805433
0.3315705935
0.3315106822
0.3311223947
0.328400976
0.331582725
0.331582725
0.331582725
0.3315827249
0.3315827248
0.3315827243
0.3315827219
0.3315827112
0.3315826615
0.3315824293
0.3315813356
0.3315761753
0.3315522401
0.3314482528
0.3310885995
0.331582725
0.331582725
0.331582725
0.3315827249
0.3315827248
0.3315827245
0.3315827229
0.3315827163
0.3315826882
0.3315825698
0.3315820803
0.3315801213
0.3315727518
0.3315482678
0.3314875458
0.331582725
0.331582725
0.331582725
0.3315827249
0.3315827249
0.3315827247
0.3315827238
0.3315827202
0.3315827062
0.3315826533
0.3315824592
0.3315817832
0.3315796165
0.3315735846
0.3315607081
0.331582725
0.331582725
0.331582725
0.3315827249
0.3315827249
0.3315827248
0.3315827242
0.331582722
0.3315827143
0.3315826875
0.3315825987
0.331582323
0.3315815415
0.3315796073
0.3315757228
0.331582725
0.331582725
0.331582725
0.3315827249
0.3315827249
0.3315827248
0.3315827242
0.3315827223
0.3315827156
0.3315826927
0.3315826187
0.3315823954
0.3315817827
0.3315803125
0.331582725
0.331582725
0.331582725
0.3315827249
0.3315827249
0.3315827247
0.3315827239
0.3315827208
0.331582709
0.3315826656
0.3315825125
0.3315820046
0.3315804717
0.33157648
0.331582725
0.331582725
0.331582725
0.3315827249
0.3315827249
0.3315827245
0.3315827232
0.3315827176
0.3315826947
0.3315826024
0.3315822423
0.3315809082
0.3315763721
0.3315630978
0.331582725
0.331582725
0.331582725
0.3315827249
0.3315827248
0.3315827244
0.3315827224
0.3315827135
0.3315826746
0.3315825036
0.3315817644
0.3315786664
0.331566471
0.3315242697
0.331582725
0.331582725
0.331582725
0.3315827249
0.3315827248
0.3315827243
0.3315827219
0.3315827112
0.3315826615
0.3315824293
0.3315813356
0.3315761752
0.3315522395
0.3314482489
0.331582725
0.331582725
0.331582725
0.3315827249
0.3315827248
0.3315827244
0.3315827224
0.3315827135
0.3315826746
0.3315825036
0.3315817644
0.3315786664
0.3315664712
0.3315242699
0.331582725
0.331582725
0.331582725
0.3315827249
0.3315827249
0.3315827245
0.3315827232
0.3315827176
0.3315826947
0.3315826024
0.3315822423
0.3315809082
0.3315763722
0.3315630981
0.3315340759
0.331582725
0.331582725
0.331582725
0.3315827249
0.3315827249
0.3315827247
0.3315827239
0.3315827208
0.331582709
0.3315826656
0.3315825125
0.3315820046
0.3315804717
0.3315764801
0.3315683348
0.331582725
0.331582725
0.331582725
0.3315827249
0.3315827249
0.3315827248
0.3315827242
0.3315827223
0.3315827156
0.3315826927
0.3315826187
0.3315823954
0.3315817827
0.3315803126
0.3315773969
0.331582725
0.331582725
0.331582725
0.331582725
0.3315827249
0.3315827248
0.3315827244
0.331582723
0.3315827183
0.3315827027
0.3315826546
0.3315825155
0.3315821499
0.3315813021
0.331582725
0.331582725
0.331582725
0.3315827249
0.3315827249
0.3315827248
0.3315827242
0.331582722
0.3315827142
0.3315826868
0.3315825955
0.3315823119
0.3315815125
0.3315795552
0.331582725
0.331582725
0.331582725
0.3315827249
0.3315827249
0.3315827247
0.3315827237
0.33158272
0.3315827057
0.3315826519
0.3315824576
0.3315818001
0.3315797792
0.3315744442
0.331582725
0.331582725
0.331582725
0.3315827249
0.3315827249
0.3315827245
0.3315827232
0.3315827176
0.3315826947
0.3315826024
0.3315822423
0.3315809082
0.3315763722
0.3315630978
0.331582725
0.331582725
0.331582725
0.3315827249
0.3315827248
0.3315827245
0.3315827229
0.3315827163
0.3315826882
0.3315825698
0.3315820803
0.3315801212
0.3315727516
0.3315482669
0.331582725
0.331582725
0.331582725
0.3315827249
0.3315827249
0.3315827245
0.3315827232
0.3315827176
0.3315826947
0.3315826024
0.3315822423
0.3315809082
0.3315763722
0.3315630979
0.331582725
0.331582725
0.331582725
0.3315827249
0.3315827249
0.3315827247
0.3315827237
0.33158272
0.3315827057
0.3315826519
0.3315824576
0.3315818001
0.3315797792
0.3315744442
0.331582725
0.331582725
0.331582725
0.3315827249
0.3315827249
0.3315827248
0.3315827242
0.331582722
0.3315827142
0.3315826868
0.3315825955
0.3315823119
0.3315815125
0.3315795552
0.3315756577
0.331582725
0.331582725
0.331582725
0.331582725
0.3315827249
0.3315827248
0.3315827244
0.331582723
0.3315827183
0.3315827027
0.3315826546
0.3315825155
0.3315821499
0.3315813021
0.3315796326
0.331582725
0.331582725
0.331582725
0.331582725
0.3315827249
0.3315827249
0.3315827246
0.3315827237
0.3315827207
0.3315827113
0.3315826835
0.3315826068
0.3315824137
0.3315819785
0.331582725
0.331582725
0.331582725
0.331582725
0.3315827249
0.3315827248
0.3315827244
0.3315827231
0.3315827185
0.3315827032
0.3315826555
0.3315825165
0.3315821482
0.3315812886
0.331582725
0.331582725
0.331582725
0.3315827249
0.3315827249
0.3315827248
0.3315827242
0.331582722
0.3315827142
0.3315826868
0.3315825955
0.3315823119
0.3315815125
0.3315795552
0.331582725
0.331582725
0.331582725
0.3315827249
0.3315827249
0.3315827247
0.3315827239
0.3315827208
0.331582709
0.3315826656
0.3315825125
0.3315820046
0.3315804716
0.33157648
0.331582725
0.331582725
0.331582725
0.3315827249
0.3315827249
0.3315827247
0.3315827238
0.3315827202
0.3315827062
0.3315826533
0.3315824592
0.3315817832
0.3315796164
0.3315735844
0.331582725
0.331582725
0.331582725
0.3315827249
0.3315827249
0.3315827247
0.3315827239
0.3315827208
0.331582709
0.3315826656
0.3315825125
0.3315820046
0.3315804717
0.33157648
0.331582725
0.331582725
0.331582725
0.3315827249
0.3315827249
0.3315827248
0.3315827242
0.331582722
0.3315827142
0.3315826868
0.3315825955
0.3315823119
0.3315815125
0.3315795552
0.331582725
0.331582725
0.331582725
0.331582725
0.3315827249
0.3315827248
0.3315827244
0.3315827231
0.3315827185
0.3315827032
0.3315826555
0.3315825165
0.3315821482
0.3315812886
0.331582725
0.331582725
0.331582725
0.331582725
0.3315827249
0.3315827249
0.3315827246
0.3315827237
0.3315827207
0.3315827113
0.3315826835
0.3315826068
0.3315824137
0.3315819785
0.3315811236
0.331582725
0.331582725
0.331582725
0.331582725
0.3315827249
0.3315827249
0.3315827247
0.331582724
0.3315827219
0.3315827157
0.331582698
0.3315826511
0.3315825369
0.3315822851
0.331582725
0.331582725
0.331582725
0.331582725
0.3315827249
0.3315827249
0.3315827246
0.3315827237
0.3315827207
0.3315827113
0.3315826835
0.3315826068
0.3315824137
0.3315819785
0.331582725
0.331582725
0.331582725
0.331582725
0.3315827249
0.3315827248
0.3315827244
0.331582723
0.3315827183
0.3315827027
0.3315826546
0.3315825155
0.3315821499
0.3315813021
0.331582725
0.331582725
0.331582725
0.3315827249
0.3315827249
0.3315827248
0.3315827242
0.3315827223
0.3315827156
0.3315826927
0.3315826187
0.3315823954
0.3315817827
0.3315803125
0.331582725
0.331582725
0.331582725
0.3315827249
0.3315827249
0.3315827248
0.3315827242
0.331582722
0.3315827143
0.3315826875
0.3315825987
0.331582323
0.3315815415
0.3315796073
0.331582725
0.331582725
0.331582725
0.3315827249
0.3315827249
0.3315827248
0.3315827242
0.3315827223
0.3315827156
0.3315826927
0.3315826187
0.3315823954
0.3315817827
0.3315803125
0.331582725
0.331582725
0.331582725
0.331582725
0.3315827249
0.3315827248
0.3315827244
0.331582723
0.3315827183
0.3315827027
0.3315826546
0.3315825155
0.3315821499
0.3315813021
0.331582725
0.331582725
0.331582725
0.331582725
0.3315827249
0.3315827249
0.3315827246
0.3315827237
0.3315827207
0.3315827113
0.3315826835
0.3315826068
0.3315824137
0.3315819785
0.331582725
0.331582725
0.331582725
0.331582725
0.3315827249
0.3315827249
0.3315827247
0.331582724
0.3315827219
0.3315827157
0.331582698
0.3315826511
0.3315825369
0.3315822851
)
;

boundaryField
{
    top
    {
        type            zeroGradient;
    }
    bottom
    {
        type            zeroGradient;
    }
    side-walls
    {
        type            zeroGradient;
    }
    inlet
    {
        type            zeroGradient;
    }
    outlet
    {
        type            zeroGradient;
    }
    procBoundary0to1
    {
        type            processor;
        value           nonuniform List<scalar> 
97
(
0.3315809307
0.3315811236
0.33157968
0.3315769206
0.331572884
0.3315700073
0.3315728841
0.3315769207
0.33157968
0.3315809308
0.3315811236
0.3315811236
0.3315768655
0.3315756577
0.3315697945
0.3315572497
0.3315454383
0.3315572498
0.3315697946
0.3315768657
0.33157968
0.3315796326
0.3315756577
0.3315756577
0.3315489444
0.3315340755
0.3315026545
0.3314421513
0.3315026551
0.3315489449
0.3315697947
0.3315769207
0.3315773968
0.3315683347
0.3315340755
0.3315340755
0.3313442199
0.3310885934
0.3310339324
0.3313442222
0.3315026551
0.3315572499
0.3315728841
0.3315757227
0.3315607077
0.3314875442
0.3310885934
0.3310885934
0.3297003284
0.3310885942
0.3310339322
0.331416755
0.3314421515
0.3315454384
0.3315700074
0.3315773968
0.3315683348
0.3315340764
0.3314167553
0.3310885942
0.331416755
0.331416755
0.3315026545
0.331563512
0.3315572498
0.3315728841
0.3315796326
0.3315756578
0.3315635122
0.3315340765
0.3314875452
0.3315340766
0.331563512
0.331563512
0.3315697945
0.3315795945
0.3315769206
0.3315811236
0.3315795945
0.3315756578
0.3315683348
0.331560708
0.3315683349
0.3315756578
0.3315795945
0.3315795945
0.33157968
0.3315817904
0.3315817904
0.3315811236
0.3315796326
0.3315773968
0.3315757227
0.3315773968
0.3315796326
0.3315811236
0.3315817904
)
;
    }
}


// ************************************************************************* //
