/*--------------------------------*- C++ -*----------------------------------*\
| =========                 |                                                 |
| \\      /  F ield         | OpenFOAM: The Open Source CFD Toolbox           |
|  \\    /   O peration     | Version:  4.x                                   |
|   \\  /    A nd           | Web:      www.OpenFOAM.org                      |
|    \\/     M anipulation  |                                                 |
\*---------------------------------------------------------------------------*/
FoamFile
{
    version     2.0;
    format      ascii;
    class       volScalarField;
    location    "8000";
    object      CO2;
}
// * * * * * * * * * * * * * * * * * * * * * * * * * * * * * * * * * * * * * //

dimensions      [0 0 0 0 0 0 0];

internalField   nonuniform List<scalar> 
1175
(
0.06314985542
0.06314985542
0.06314985542
0.06314985543
0.06314985545
0.06314985552
0.06314985576
0.06314985655
0.06314985901
0.06314986643
0.06314988748
0.06314994325
0.06315007914
0.06315037877
0.06315096736
0.06314985542
0.06314985542
0.06314985542
0.06314985543
0.06314985546
0.06314985555
0.06314985587
0.06314985697
0.06314986054
0.06314987173
0.0631499048
0.06314999596
0.06315022578
0.06315074358
0.06315176076
0.06314985542
0.06314985542
0.06314985543
0.06314985543
0.06314985547
0.0631498556
0.06314985607
0.06314985772
0.06314986337
0.06314988186
0.06314993917
0.06315010467
0.06315053966
0.06315154841
0.06315353484
0.06314985542
0.06314985542
0.06314985543
0.06314985544
0.06314985548
0.06314985565
0.06314985627
0.06314985854
0.06314986655
0.06314989379
0.06314998185
0.06315024755
0.06315097659
0.06315272579
0.06315619501
0.06314985542
0.06314985542
0.06314985543
0.06314985544
0.06314985549
0.06314985567
0.06314985636
0.06314985892
0.06314986812
0.06314990003
0.06315000567
0.06315033374
0.06315126352
0.06315356491
0.06315818694
0.06314985542
0.06314985542
0.06314985543
0.06314985544
0.06314985548
0.06314985565
0.06314985627
0.06314985854
0.06314986655
0.06314989379
0.06314998185
0.06315024755
0.06315097658
0.06315272577
0.06315619497
0.06314985542
0.06314985542
0.06314985543
0.06314985543
0.06314985547
0.0631498556
0.06314985607
0.06314985772
0.06314986337
0.06314988186
0.06314993917
0.06315010467
0.06315053965
0.0631515484
0.0631535348
0.06314985542
0.06314985542
0.06314985542
0.06314985543
0.06314985546
0.06314985555
0.06314985587
0.06314985697
0.06314986054
0.06314987173
0.0631499048
0.06314999596
0.06315022577
0.06315074356
0.06315176072
0.06314985542
0.06314985542
0.06314985542
0.06314985543
0.06314985545
0.06314985552
0.06314985576
0.06314985655
0.06314985901
0.06314986643
0.06314988748
0.06314994325
0.06315007914
0.06315037876
0.06315096734
0.06314985542
0.06314985542
0.06314985542
0.06314985543
0.06314985546
0.06314985555
0.06314985587
0.06314985697
0.06314986054
0.06314987173
0.0631499048
0.06314999596
0.06315022578
0.06315074359
0.06314985542
0.06314985542
0.06314985543
0.06314985543
0.06314985547
0.06314985559
0.06314985605
0.06314985765
0.06314986316
0.06314988132
0.06314993808
0.06315010344
0.06315054173
0.06315156448
0.06315358017
0.06314985542
0.06314985542
0.06314985543
0.06314985544
0.06314985549
0.06314985567
0.06314985636
0.06314985893
0.06314986825
0.06314990087
0.06315000944
0.06315034684
0.06315129807
0.06315362688
0.06315826423
0.06314985542
0.06314985542
0.06314985543
0.06314985544
0.0631498555
0.06314985574
0.0631498567
0.06314986039
0.0631498744
0.06314992601
0.06315010824
0.06315071254
0.06315253645
0.06315728574
0.06316697729
0.06314985542
0.06314985542
0.06314985543
0.06314985544
0.06314985551
0.06314985578
0.06314985686
0.06314986112
0.06314987769
0.06314994064
0.06315017162
0.06315097601
0.06315355405
0.06316073105
0.063176052
0.06314985542
0.06314985542
0.06314985543
0.06314985544
0.0631498555
0.06314985574
0.0631498567
0.06314986039
0.0631498744
0.06314992601
0.06315010824
0.06315071254
0.06315253644
0.0631572857
0.0631669772
0.06314985542
0.06314985542
0.06314985543
0.06314985544
0.06314985549
0.06314985567
0.06314985636
0.06314985893
0.06314986825
0.06314990087
0.06315000944
0.06315034684
0.06315129806
0.06315362684
0.06315826413
0.06314985542
0.06314985542
0.06314985543
0.06314985543
0.06314985547
0.06314985559
0.06314985604
0.06314985765
0.06314986316
0.06314988132
0.06314993808
0.06315010343
0.06315054171
0.06315156444
0.06315358007
0.06314985542
0.06314985542
0.06314985542
0.06314985543
0.06314985546
0.06314985555
0.06314985587
0.06314985697
0.06314986054
0.06314987173
0.0631499048
0.06314999596
0.06315022577
0.06315074357
0.06315176073
0.06314985542
0.06314985542
0.06314985543
0.06314985543
0.06314985547
0.0631498556
0.06314985607
0.06314985772
0.06314986337
0.06314988186
0.06314993917
0.06315010467
0.06315053967
0.06315154844
0.06314985542
0.06314985542
0.06314985543
0.06314985544
0.06314985549
0.06314985567
0.06314985636
0.06314985893
0.06314986825
0.06314990087
0.06315000944
0.06315034684
0.06315129808
0.06315362693
0.06314985542
0.06314985542
0.06314985543
0.06314985544
0.06314985551
0.06314985579
0.0631498569
0.06314986129
0.06314987831
0.06314994239
0.06315017351
0.06315095583
0.06315336035
0.06315970804
0.06317271564
0.06314985542
0.06314985542
0.06314985543
0.06314985545
0.06314985554
0.06314985592
0.06314985752
0.06314986416
0.06314989143
0.06315000126
0.06315042973
0.06315201709
0.06315741413
0.06317320814
0.06320773918
0.06314985542
0.06314985542
0.06314985543
0.06314985545
0.06314985555
0.06314985599
0.06314985783
0.06314986571
0.06314989917
0.06315004
0.06315062246
0.06315295343
0.06316172193
0.06319085408
0.06326310345
0.06314985542
0.06314985542
0.06314985543
0.06314985545
0.06314985554
0.06314985592
0.06314985752
0.06314986416
0.06314989143
0.06315000126
0.06315042973
0.06315201707
0.06315741406
0.06317320789
0.06320773851
0.06314985542
0.06314985542
0.06314985543
0.06314985544
0.06314985551
0.06314985579
0.0631498569
0.06314986129
0.06314987831
0.06314994239
0.06315017351
0.06315095581
0.0631533603
0.06315970786
0.0631727151
0.06314985542
0.06314985542
0.06314985543
0.06314985544
0.06314985549
0.06314985567
0.06314985636
0.06314985893
0.06314986825
0.06314990087
0.06315000944
0.06315034684
0.06315129805
0.06315362683
0.0631582641
0.06314985542
0.06314985542
0.06314985543
0.06314985543
0.06314985547
0.0631498556
0.06314985607
0.06314985772
0.06314986337
0.06314988186
0.06314993917
0.06315010467
0.06315053965
0.06315154839
0.0631535348
0.06314985542
0.06314985542
0.06314985543
0.06314985544
0.06314985548
0.06314985565
0.06314985627
0.06314985854
0.06314986655
0.06314989379
0.06314998185
0.06315024756
0.06315097661
0.06315272584
0.06314985542
0.06314985542
0.06314985543
0.06314985544
0.0631498555
0.06314985575
0.0631498567
0.06314986039
0.0631498744
0.06314992602
0.06315010824
0.06315071255
0.0631525365
0.0631572859
0.06314985542
0.06314985542
0.06314985543
0.06314985545
0.06314985554
0.06314985592
0.06314985752
0.06314986416
0.06314989143
0.06315000126
0.06315042973
0.0631520171
0.06315741422
0.06317320858
0.06314985542
0.06314985543
0.06314985543
0.06314985546
0.06314985558
0.06314985612
0.06314985851
0.06314986901
0.06314991537
0.06315011877
0.06315099829
0.06315468442
0.0631691948
0.06321940686
0.06334733438
0.06314985542
0.06314985543
0.06314985543
0.06314985546
0.0631498556
0.06314985622
0.06314985903
0.06314987183
0.06314993097
0.06315020718
0.06315150853
0.06315764854
0.06318612763
0.06330985589
0.06373778572
0.06314985542
0.06314985543
0.06314985543
0.06314985546
0.06314985558
0.06314985612
0.06314985851
0.06314986901
0.06314991537
0.06315011877
0.06315099828
0.06315468438
0.06316919461
0.06321940593
0.06334733071
0.06314985542
0.06314985542
0.06314985543
0.06314985545
0.06314985554
0.06314985592
0.06314985752
0.06314986416
0.06314989143
0.06315000126
0.06315042973
0.06315201708
0.06315741409
0.06317320796
0.06320773861
0.06314985542
0.06314985542
0.06314985543
0.06314985544
0.0631498555
0.06314985574
0.0631498567
0.06314986039
0.0631498744
0.06314992601
0.06315010823
0.06315071253
0.06315253644
0.0631572857
0.06316697718
0.06314985542
0.06314985542
0.06314985543
0.06314985544
0.06314985548
0.06314985565
0.06314985627
0.06314985854
0.06314986655
0.06314989379
0.06314998185
0.06315024755
0.06315097659
0.06315272577
0.06315619497
0.06314985542
0.06314985542
0.06314985543
0.06314985544
0.06314985549
0.06314985567
0.06314985636
0.06314985892
0.06314986812
0.06314990003
0.06315000568
0.06315033374
0.06315126354
0.06315356499
0.06314985542
0.06314985542
0.06314985543
0.06314985544
0.06314985551
0.06314985578
0.06314985686
0.06314986112
0.06314987769
0.06314994064
0.06315017162
0.06315097603
0.06315355413
0.06316073132
0.06314985542
0.06314985542
0.06314985543
0.06314985545
0.06314985555
0.06314985599
0.06314985783
0.06314986571
0.06314989917
0.06315004001
0.06315062247
0.0631529535
0.06316172222
0.06319085522
0.06314985542
0.06314985543
0.06314985543
0.06314985546
0.0631498556
0.06314985622
0.06314985903
0.06314987183
0.06314993097
0.06315020719
0.06315150855
0.06315764865
0.06318612827
0.06330985996
0.06314985542
0.06314985543
0.06314985543
0.06314985547
0.06314985562
0.06314985634
0.06314985969
0.06314987559
0.06314995345
0.06315034879
0.06315245125
0.06316429004
0.06323557528
0.0636975773
0.06693563931
0.06314985542
0.06314985543
0.06314985543
0.06314985546
0.0631498556
0.06314985622
0.06314985903
0.06314987183
0.06314993097
0.06315020719
0.06315150854
0.06315764857
0.06318612776
0.06330985636
0.06373778674
0.06314985542
0.06314985542
0.06314985543
0.06314985545
0.06314985555
0.06314985599
0.06314985783
0.06314986571
0.06314989917
0.06315004
0.06315062246
0.06315295343
0.06316172193
0.0631908541
0.06326310342
0.06314985542
0.06314985542
0.06314985543
0.06314985544
0.06314985551
0.06314985578
0.06314985686
0.06314986112
0.06314987769
0.06314994064
0.06315017162
0.06315097601
0.06315355405
0.06316073104
0.06317605193
0.06314985542
0.06314985542
0.06314985543
0.06314985544
0.06314985549
0.06314985567
0.06314985636
0.06314985892
0.06314986812
0.06314990002
0.06315000567
0.06315033373
0.06315126351
0.0631535649
0.0631581869
0.06314985542
0.06314985542
0.06314985543
0.06314985544
0.06314985548
0.06314985565
0.06314985627
0.06314985854
0.06314986655
0.06314989379
0.06314998185
0.06315024756
0.06315097661
0.06315272583
0.06314985542
0.06314985542
0.06314985543
0.06314985544
0.0631498555
0.06314985575
0.0631498567
0.06314986039
0.0631498744
0.06314992602
0.06315010824
0.06315071255
0.0631525365
0.06315728586
0.06314985542
0.06314985542
0.06314985543
0.06314985545
0.06314985554
0.06314985592
0.06314985752
0.06314986416
0.06314989143
0.06315000126
0.06315042974
0.06315201712
0.06315741425
0.0631732085
0.06314985542
0.06314985543
0.06314985543
0.06314985546
0.06314985558
0.06314985612
0.06314985851
0.06314986901
0.06314991537
0.06315011877
0.06315099829
0.06315468445
0.06316919497
0.06321940746
0.06314985542
0.06314985543
0.06314985543
0.06314985546
0.0631498556
0.06314985622
0.06314985903
0.06314987183
0.06314993097
0.06315020719
0.06315150854
0.06315764864
0.06318612821
0.06330985971
0.06314985542
0.06314985543
0.06314985543
0.06314985546
0.06314985558
0.06314985612
0.06314985851
0.06314986901
0.06314991537
0.06315011877
0.06315099829
0.06315468443
0.06316919487
0.06321940728
0.06314985542
0.06314985542
0.06314985543
0.06314985545
0.06314985554
0.06314985592
0.06314985752
0.06314986416
0.06314989143
0.06315000126
0.06315042973
0.0631520171
0.06315741417
0.06317320827
0.0632077396
0.06314985542
0.06314985542
0.06314985543
0.06314985544
0.0631498555
0.06314985574
0.0631498567
0.06314986039
0.0631498744
0.06314992601
0.06315010824
0.06315071254
0.06315253646
0.06315728576
0.06316697732
0.06314985542
0.06314985542
0.06314985543
0.06314985544
0.06314985548
0.06314985565
0.06314985627
0.06314985854
0.06314986655
0.06314989379
0.06314998185
0.06315024755
0.06315097659
0.06315272578
0.06315619499
0.06314985542
0.06314985542
0.06314985543
0.06314985543
0.06314985547
0.0631498556
0.06314985607
0.06314985772
0.06314986337
0.06314988186
0.06314993917
0.06315010467
0.06315053967
0.06315154843
0.06314985542
0.06314985542
0.06314985543
0.06314985544
0.06314985549
0.06314985567
0.06314985636
0.06314985893
0.06314986825
0.06314990087
0.06315000944
0.06315034685
0.06315129809
0.06315362693
0.06314985542
0.06314985542
0.06314985543
0.06314985544
0.06314985551
0.06314985579
0.0631498569
0.06314986129
0.06314987831
0.06314994239
0.06315017352
0.06315095584
0.0631533604
0.06315970814
0.06314985542
0.06314985542
0.06314985543
0.06314985545
0.06314985554
0.06314985592
0.06314985752
0.06314986416
0.06314989143
0.06315000126
0.06315042974
0.06315201711
0.06315741424
0.06317320845
0.06314985542
0.06314985542
0.06314985543
0.06314985545
0.06314985555
0.06314985599
0.06314985783
0.06314986571
0.06314989917
0.06315004
0.06315062246
0.06315295346
0.06316172208
0.06319085476
0.06314985542
0.06314985542
0.06314985543
0.06314985545
0.06314985554
0.06314985592
0.06314985752
0.06314986416
0.06314989143
0.06315000126
0.06315042973
0.06315201711
0.06315741421
0.06317320839
0.06314985542
0.06314985542
0.06314985543
0.06314985544
0.06314985551
0.06314985579
0.0631498569
0.06314986129
0.06314987831
0.06314994239
0.06315017352
0.06315095583
0.06315336038
0.06315970813
0.06314985542
0.06314985542
0.06314985543
0.06314985544
0.06314985549
0.06314985567
0.06314985636
0.06314985893
0.06314986825
0.06314990087
0.06315000944
0.06315034684
0.06315129808
0.0631536269
0.06315826429
0.06314985542
0.06314985542
0.06314985543
0.06314985543
0.06314985547
0.0631498556
0.06314985607
0.06314985772
0.06314986337
0.06314988186
0.06314993917
0.06315010467
0.06315053966
0.06315154842
0.06315353485
0.06314985542
0.06314985542
0.06314985542
0.06314985543
0.06314985546
0.06314985555
0.06314985587
0.06314985697
0.06314986054
0.06314987173
0.0631499048
0.06314999596
0.06315022578
0.06315074359
0.06314985542
0.06314985542
0.06314985543
0.06314985543
0.06314985547
0.06314985559
0.06314985605
0.06314985765
0.06314986316
0.06314988132
0.06314993808
0.06315010344
0.06315054173
0.06315156448
0.06314985542
0.06314985542
0.06314985543
0.06314985544
0.06314985549
0.06314985567
0.06314985636
0.06314985893
0.06314986825
0.06314990087
0.06315000944
0.06315034685
0.06315129809
0.06315362692
0.06314985542
0.06314985542
0.06314985543
0.06314985544
0.0631498555
0.06314985574
0.0631498567
0.06314986039
0.0631498744
0.06314992602
0.06315010824
0.06315071255
0.0631525365
0.06315728585
0.06314985542
0.06314985542
0.06314985543
0.06314985544
0.06314985551
0.06314985578
0.06314985686
0.06314986112
0.06314987769
0.06314994064
0.06315017162
0.06315097602
0.06315355411
0.06316073121
0.06314985542
0.06314985542
0.06314985543
0.06314985544
0.0631498555
0.06314985574
0.0631498567
0.06314986039
0.0631498744
0.06314992602
0.06315010824
0.06315071255
0.06315253649
0.06315728583
0.06314985542
0.06314985542
0.06314985543
0.06314985544
0.06314985549
0.06314985567
0.06314985636
0.06314985893
0.06314986825
0.06314990087
0.06315000944
0.06315034685
0.06315129809
0.06315362692
0.06314985542
0.06314985542
0.06314985543
0.06314985543
0.06314985547
0.06314985559
0.06314985604
0.06314985765
0.06314986316
0.06314988132
0.06314993808
0.06315010344
0.06315054173
0.06315156449
0.06314985542
0.06314985542
0.06314985542
0.06314985543
0.06314985546
0.06314985555
0.06314985587
0.06314985697
0.06314986054
0.06314987173
0.0631499048
0.06314999596
0.06315022578
0.06315074359
0.06315176077
0.06314985542
0.06314985542
0.06314985542
0.06314985543
0.06314985545
0.06314985552
0.06314985576
0.06314985655
0.06314985901
0.06314986643
0.06314988748
0.06314994325
0.06315007915
0.06315037877
0.06314985542
0.06314985542
0.06314985542
0.06314985543
0.06314985546
0.06314985555
0.06314985587
0.06314985697
0.06314986054
0.06314987173
0.0631499048
0.06314999596
0.06315022578
0.06315074359
0.06314985542
0.06314985542
0.06314985543
0.06314985543
0.06314985547
0.0631498556
0.06314985607
0.06314985772
0.06314986337
0.06314988186
0.06314993917
0.06315010468
0.06315053967
0.06315154844
0.06314985542
0.06314985542
0.06314985543
0.06314985544
0.06314985548
0.06314985565
0.06314985627
0.06314985854
0.06314986655
0.06314989379
0.06314998185
0.06315024756
0.06315097661
0.06315272584
0.06314985542
0.06314985542
0.06314985543
0.06314985544
0.06314985549
0.06314985567
0.06314985636
0.06314985892
0.06314986812
0.06314990003
0.06315000567
0.06315033374
0.06315126354
0.06315356497
0.06314985542
0.06314985542
0.06314985543
0.06314985544
0.06314985548
0.06314985565
0.06314985627
0.06314985854
0.06314986655
0.06314989379
0.06314998185
0.06315024756
0.06315097661
0.06315272584
0.06314985542
0.06314985542
0.06314985543
0.06314985543
0.06314985547
0.0631498556
0.06314985607
0.06314985772
0.06314986337
0.06314988186
0.06314993917
0.06315010468
0.06315053967
0.06315154844
0.06314985542
0.06314985542
0.06314985542
0.06314985543
0.06314985546
0.06314985555
0.06314985587
0.06314985697
0.06314986054
0.06314987173
0.0631499048
0.06314999596
0.06315022578
0.06315074359
0.06314985542
0.06314985542
0.06314985542
0.06314985543
0.06314985545
0.06314985552
0.06314985576
0.06314985655
0.06314985901
0.06314986643
0.06314988748
0.06314994325
0.06315007915
0.06315037878
)
;

boundaryField
{
    top
    {
        type            zeroGradient;
    }
    bottom
    {
        type            zeroGradient;
    }
    side-walls
    {
        type            zeroGradient;
    }
    inlet
    {
        type            zeroGradient;
    }
    outlet
    {
        type            zeroGradient;
    }
    procBoundary0to1
    {
        type            processor;
        value           nonuniform List<scalar> 
97
(
0.06315199028
0.06315176078
0.06315347844
0.06315676162
0.06316156453
0.06316498734
0.06316156446
0.06315676156
0.06315347839
0.06315199024
0.06315176078
0.06315176078
0.06315682717
0.06315826432
0.06316524053
0.06318016675
0.06319422046
0.06318016665
0.06316524041
0.06315682704
0.06315347839
0.06315353487
0.06315826432
0.06315826432
0.06319004864
0.06320773997
0.06324512604
0.06331711499
0.06324512535
0.0631900481
0.06316524035
0.06315676155
0.06315619505
0.06316697748
0.06320773997
0.06320773997
0.06343363673
0.06373778935
0.06380282803
0.06343363437
0.0632451254
0.06318016658
0.06316156445
0.06315818701
0.06317605228
0.06326310469
0.06373778935
0.06373778935
0.06538959457
0.06373778846
0.06380282824
0.06334733193
0.06331711471
0.06319422027
0.06316498724
0.06315619502
0.06316697733
0.06320773918
0.06334733176
0.06373778846
0.06334733193
0.06334733193
0.06324512596
0.06317271557
0.0631801667
0.06316156446
0.06315353483
0.0631582642
0.0631727154
0.06320773901
0.06326310357
0.06320773888
0.06317271557
0.06317271557
0.0631652405
0.06315358015
0.06315676161
0.06315176075
0.0631535801
0.06315826419
0.06316697729
0.06317605198
0.06316697725
0.0631582642
0.06315358015
0.06315358015
0.06315347844
0.06315096736
0.06315096734
0.06315176074
0.06315353483
0.06315619502
0.06315818693
0.06315619501
0.06315353483
0.06315176075
0.06315096736
)
;
    }
}


// ************************************************************************* //
