/*--------------------------------*- C++ -*----------------------------------*\
| =========                 |                                                 |
| \\      /  F ield         | OpenFOAM: The Open Source CFD Toolbox           |
|  \\    /   O peration     | Version:  4.x                                   |
|   \\  /    A nd           | Web:      www.OpenFOAM.org                      |
|    \\/     M anipulation  |                                                 |
\*---------------------------------------------------------------------------*/
FoamFile
{
    version     2.0;
    format      ascii;
    class       volScalarField;
    location    "8000";
    object      Cpv;
}
// * * * * * * * * * * * * * * * * * * * * * * * * * * * * * * * * * * * * * //

dimensions      [0 2 -2 -1 0 0 0];

internalField   nonuniform List<scalar> 
1175
(
1245.090808
1245.090808
1245.090826
1245.090831
1245.090813
1245.090811
1245.090805
1245.090807
1245.090801
1245.090809
1245.090808
1245.090786
1245.090761
1245.090751
1245.090735
1245.090952
1245.090972
1245.090953
1245.090966
1245.090986
1245.090959
1245.090938
1245.090938
1245.090917
1245.090925
1245.090916
1245.090919
1245.090922
1245.090923
1245.090915
1245.090614
1245.090619
1245.090624
1245.090633
1245.090599
1245.090582
1245.090619
1245.09061
1245.090609
1245.090587
1245.090591
1245.090571
1245.090563
1245.090541
1245.090533
1245.091302
1245.091314
1245.091295
1245.091305
1245.091315
1245.091316
1245.091313
1245.091336
1245.091327
1245.091323
1245.091315
1245.09133
1245.091348
1245.091356
1245.091333
1245.091365
1245.091346
1245.091333
1245.091337
1245.091332
1245.091329
1245.091329
1245.091343
1245.091347
1245.091338
1245.09134
1245.091316
1245.091314
1245.091304
1245.091224
1245.089923
1245.089906
1245.089905
1245.089917
1245.089904
1245.089888
1245.089884
1245.089869
1245.089868
1245.089877
1245.08984
1245.089842
1245.089853
1245.089871
1245.089814
1245.090277
1245.090253
1245.090237
1245.090244
1245.09027
1245.090277
1245.090286
1245.090306
1245.090283
1245.090279
1245.090311
1245.090325
1245.090341
1245.090303
1245.090268
1245.090775
1245.090788
1245.090806
1245.090798
1245.090788
1245.0908
1245.090794
1245.090787
1245.090803
1245.090787
1245.09077
1245.090775
1245.090783
1245.090811
1245.090809
1245.090872
1245.090879
1245.090851
1245.090864
1245.09086
1245.090872
1245.090872
1245.090879
1245.090874
1245.090881
1245.090898
1245.090893
1245.0909
1245.090897
1245.090885
1245.090611
1245.090615
1245.090601
1245.090604
1245.090615
1245.09062
1245.090606
1245.090634
1245.09065
1245.090639
1245.090651
1245.090644
1245.090636
1245.090637
1245.091814
1245.091815
1245.091803
1245.091806
1245.091829
1245.091816
1245.091825
1245.091814
1245.091817
1245.091824
1245.091819
1245.091815
1245.091849
1245.091842
1245.091827
1245.091425
1245.091405
1245.091411
1245.09142
1245.091436
1245.091475
1245.091477
1245.091466
1245.091473
1245.091495
1245.091499
1245.091497
1245.091471
1245.091481
1245.091433
1245.09066
1245.090644
1245.090658
1245.090657
1245.090654
1245.090675
1245.090691
1245.09069
1245.090681
1245.090653
1245.090653
1245.090647
1245.090646
1245.090601
1245.090504
1245.091181
1245.091176
1245.091186
1245.091176
1245.091153
1245.09114
1245.091154
1245.091167
1245.091172
1245.091163
1245.091151
1245.09116
1245.091128
1245.091072
1245.090925
1245.091555
1245.091544
1245.091571
1245.091565
1245.091539
1245.091553
1245.091547
1245.091535
1245.091558
1245.091579
1245.091571
1245.091583
1245.091585
1245.091523
1245.091429
1245.092043
1245.092046
1245.09204
1245.092043
1245.092077
1245.092062
1245.09206
1245.092079
1245.092053
1245.092058
1245.092042
1245.092029
1245.091997
1245.091993
1245.091938
1245.090212
1245.090227
1245.090219
1245.090237
1245.090221
1245.09023
1245.09022
1245.090224
1245.090229
1245.090232
1245.090239
1245.090239
1245.090231
1245.0902
1245.090154
1245.091224
1245.091224
1245.09123
1245.091236
1245.091231
1245.091237
1245.091244
1245.091213
1245.091216
1245.091206
1245.091186
1245.091189
1245.091193
1245.09121
1245.091215
1245.091117
1245.091111
1245.09109
1245.091092
1245.091094
1245.09111
1245.091089
1245.09108
1245.091049
1245.091062
1245.091072
1245.091083
1245.091082
1245.09107
1245.090191
1245.090184
1245.090179
1245.090163
1245.090151
1245.090146
1245.090167
1245.090178
1245.09017
1245.09018
1245.090177
1245.09017
1245.090132
1245.090123
1245.090221
1245.090211
1245.090215
1245.090209
1245.0902
1245.090223
1245.090227
1245.090231
1245.090239
1245.090211
1245.090217
1245.090228
1245.090218
1245.090133
1245.090001
1245.090451
1245.090467
1245.090464
1245.09046
1245.090455
1245.090434
1245.090466
1245.090493
1245.090471
1245.090484
1245.09047
1245.09043
1245.090388
1245.090237
1245.089935
1245.091727
1245.091707
1245.091694
1245.091663
1245.091653
1245.091631
1245.091648
1245.09165
1245.091645
1245.091648
1245.091639
1245.091589
1245.091539
1245.091269
1245.090608
1245.089768
1245.089766
1245.089797
1245.08978
1245.089799
1245.089798
1245.089824
1245.089829
1245.089819
1245.089815
1245.08981
1245.089783
1245.089746
1245.089614
1245.089294
1245.090553
1245.09054
1245.090533
1245.090545
1245.090557
1245.090556
1245.090594
1245.090605
1245.09059
1245.090579
1245.090592
1245.090611
1245.09058
1245.090533
1245.090392
1245.090911
1245.09092
1245.090943
1245.090952
1245.090977
1245.090974
1245.090981
1245.090959
1245.090953
1245.09097
1245.090965
1245.090963
1245.090963
1245.090926
1245.090882
1245.090272
1245.090268
1245.090265
1245.09026
1245.090251
1245.090243
1245.090262
1245.090267
1245.090276
1245.090259
1245.09028
1245.090282
1245.090276
1245.090269
1245.09026
1245.090391
1245.090394
1245.090385
1245.090384
1245.090361
1245.090353
1245.090367
1245.090368
1245.090371
1245.090376
1245.09038
1245.090385
1245.090376
1245.090346
1245.090921
1245.090904
1245.090923
1245.090905
1245.090901
1245.09089
1245.090882
1245.090884
1245.090901
1245.090909
1245.090917
1245.090931
1245.09092
1245.09085
1245.089865
1245.089856
1245.089876
1245.089864
1245.089879
1245.089896
1245.089924
1245.089924
1245.089923
1245.08993
1245.089913
1245.0899
1245.089852
1245.08971
1245.090712
1245.090686
1245.090683
1245.090701
1245.090669
1245.090673
1245.090658
1245.090665
1245.090685
1245.090669
1245.090669
1245.090621
1245.090487
1245.090031
1245.08887
1245.090751
1245.090786
1245.090778
1245.090765
1245.090792
1245.09078
1245.090764
1245.090769
1245.090769
1245.090758
1245.090761
1245.090705
1245.090432
1245.08933
1245.085109
1245.090731
1245.090717
1245.090743
1245.090748
1245.090749
1245.090762
1245.090757
1245.090764
1245.09079
1245.090804
1245.090803
1245.090779
1245.090633
1245.09019
1245.089054
1245.09067
1245.09066
1245.090674
1245.090685
1245.090659
1245.09067
1245.090661
1245.090664
1245.09068
1245.090677
1245.090657
1245.090651
1245.090589
1245.090412
1245.090086
1245.090922
1245.090911
1245.090901
1245.090919
1245.090916
1245.090915
1245.090909
1245.090917
1245.09092
1245.090903
1245.090901
1245.090898
1245.090872
1245.090838
1245.090754
1245.091185
1245.091179
1245.091178
1245.091174
1245.091184
1245.091181
1245.091179
1245.091176
1245.091171
1245.091176
1245.091172
1245.091156
1245.091151
1245.09114
1245.091111
1245.091105
1245.091113
1245.091098
1245.0911
1245.091107
1245.091104
1245.091131
1245.091139
1245.091139
1245.091137
1245.091129
1245.091129
1245.091124
1245.091105
1245.090575
1245.090571
1245.090566
1245.090568
1245.090577
1245.090561
1245.090559
1245.090552
1245.090533
1245.090518
1245.09051
1245.090487
1245.090453
1245.090382
1245.092368
1245.092365
1245.092332
1245.092329
1245.092336
1245.092343
1245.092324
1245.092368
1245.092395
1245.092386
1245.092382
1245.092336
1245.092244
1245.091959
1245.091297
1245.0913
1245.091298
1245.091308
1245.0913
1245.091304
1245.09131
1245.09128
1245.091292
1245.091282
1245.091262
1245.091208
1245.090944
1245.089803
1245.091157
1245.091163
1245.091177
1245.091149
1245.091131
1245.09113
1245.091133
1245.091155
1245.091159
1245.091182
1245.091154
1245.091042
1245.090406
1245.086134
1244.446092
1245.091209
1245.091187
1245.091214
1245.091233
1245.091239
1245.091242
1245.091224
1245.091228
1245.091225
1245.091193
1245.091184
1245.091131
1245.090873
1245.089764
1245.085528
1245.090682
1245.09068
1245.090661
1245.090631
1245.090622
1245.090636
1245.090649
1245.09067
1245.090679
1245.090681
1245.090656
1245.09064
1245.090552
1245.090266
1245.089593
1245.090662
1245.09066
1245.090663
1245.090668
1245.090661
1245.090662
1245.090662
1245.090632
1245.090667
1245.090649
1245.090628
1245.09061
1245.090591
1245.090506
1245.090351
1245.090535
1245.090524
1245.090531
1245.090521
1245.090524
1245.090507
1245.090515
1245.0905
1245.09049
1245.090484
1245.090493
1245.090502
1245.090509
1245.090465
1245.090408
1245.090287
1245.090262
1245.090249
1245.090237
1245.090261
1245.090278
1245.090273
1245.090287
1245.090284
1245.090284
1245.090276
1245.090269
1245.090268
1245.090255
1245.090126
1245.090119
1245.090112
1245.090104
1245.090102
1245.090111
1245.090092
1245.090082
1245.090082
1245.090084
1245.090097
1245.09007
1245.090054
1245.090008
1245.09043
1245.090421
1245.090424
1245.090403
1245.090392
1245.090393
1245.090391
1245.090412
1245.090396
1245.090387
1245.090381
1245.090362
1245.090321
1245.090171
1245.090523
1245.090533
1245.090545
1245.090563
1245.090585
1245.090579
1245.090568
1245.090546
1245.090518
1245.0905
1245.090503
1245.090457
1245.090317
1245.089867
1245.09087
1245.090868
1245.090873
1245.090886
1245.09089
1245.090889
1245.090883
1245.090871
1245.090858
1245.090865
1245.090845
1245.090801
1245.090536
1245.089385
1245.090362
1245.090379
1245.090405
1245.090415
1245.09043
1245.090416
1245.090387
1245.090381
1245.090353
1245.090371
1245.090376
1245.09032
1245.090144
1245.089685
1245.090727
1245.090715
1245.090698
1245.090734
1245.09075
1245.090755
1245.090745
1245.090733
1245.09074
1245.090719
1245.090716
1245.090712
1245.090649
1245.090512
1245.090193
1245.09042
1245.09042
1245.09042
1245.090418
1245.090426
1245.090404
1245.090395
1245.090385
1245.090385
1245.090381
1245.090354
1245.090344
1245.090343
1245.090302
1245.090231
1245.090526
1245.090506
1245.090497
1245.090482
1245.090488
1245.090479
1245.090502
1245.090483
1245.090488
1245.090516
1245.090509
1245.090502
1245.0905
1245.09048
1245.090444
1245.090398
1245.0904
1245.090412
1245.09043
1245.090436
1245.090445
1245.090441
1245.090447
1245.090451
1245.090466
1245.090453
1245.090457
1245.090415
1245.090397
1245.09111
1245.091139
1245.091125
1245.0911
1245.091104
1245.091134
1245.09112
1245.091129
1245.091116
1245.091101
1245.091098
1245.091097
1245.091086
1245.091093
1245.091951
1245.091944
1245.091969
1245.091977
1245.091957
1245.091949
1245.091971
1245.091964
1245.091961
1245.091958
1245.091941
1245.091947
1245.091927
1245.091841
1245.0909
1245.090905
1245.090924
1245.09093
1245.090937
1245.090937
1245.090921
1245.090926
1245.09094
1245.090947
1245.090933
1245.090925
1245.090886
1245.090731
1245.089811
1245.08982
1245.089799
1245.08983
1245.089842
1245.08983
1245.089843
1245.089837
1245.089824
1245.089817
1245.089833
1245.089806
1245.089722
1245.089444
1245.090907
1245.090916
1245.090944
1245.090965
1245.090937
1245.090926
1245.090922
1245.090883
1245.090874
1245.090867
1245.09086
1245.09082
1245.090751
1245.090622
1245.09101
1245.091011
1245.091009
1245.090985
1245.090967
1245.090953
1245.090963
1245.090998
1245.090985
1245.090973
1245.090989
1245.090994
1245.090958
1245.090904
1245.090834
1245.090839
1245.090848
1245.090873
1245.090863
1245.090859
1245.090866
1245.090845
1245.090841
1245.090849
1245.090836
1245.090831
1245.090844
1245.090836
1245.090755
1245.091088
1245.091084
1245.0911
1245.091082
1245.091075
1245.09106
1245.091058
1245.091066
1245.091065
1245.091065
1245.091074
1245.091066
1245.091072
1245.091067
1245.091047
1245.091604
1245.091596
1245.091588
1245.09161
1245.091604
1245.091578
1245.091593
1245.091599
1245.091609
1245.091608
1245.091607
1245.091626
1245.091599
1245.091585
1245.090536
1245.090571
1245.090565
1245.090527
1245.090501
1245.090475
1245.090494
1245.090478
1245.090507
1245.090519
1245.090503
1245.090486
1245.090498
1245.090473
1245.090592
1245.090599
1245.090611
1245.090627
1245.090622
1245.090624
1245.090608
1245.090587
1245.09059
1245.090575
1245.090558
1245.090554
1245.090542
1245.090532
1245.091041
1245.091041
1245.091026
1245.091014
1245.091015
1245.091035
1245.091021
1245.091008
1245.091037
1245.091041
1245.091042
1245.091029
1245.091011
1245.090939
1245.090851
1245.090856
1245.090865
1245.090914
1245.090888
1245.090899
1245.090892
1245.090918
1245.09091
1245.09093
1245.090939
1245.090926
1245.090898
1245.090823
1245.090789
1245.090807
1245.090799
1245.09078
1245.090789
1245.090775
1245.090757
1245.090771
1245.090761
1245.09076
1245.090776
1245.090784
1245.090791
1245.090766
1245.090991
1245.090985
1245.090989
1245.090984
1245.091012
1245.091033
1245.09105
1245.091035
1245.091025
1245.09102
1245.091008
1245.091023
1245.09103
1245.090969
1245.090824
1245.090842
1245.090846
1245.090809
1245.090813
1245.09084
1245.090831
1245.090846
1245.090847
1245.090845
1245.090821
1245.090829
1245.090815
1245.090827
1245.091278
1245.091272
1245.091263
1245.091253
1245.091257
1245.091268
1245.091274
1245.091254
1245.091274
1245.091281
1245.091294
1245.091295
1245.091306
1245.091306
1245.09126
1245.090559
1245.090554
1245.090535
1245.090545
1245.090527
1245.090537
1245.090534
1245.090536
1245.09053
1245.090534
1245.090521
1245.090528
1245.090499
1245.090499
1245.090962
1245.090961
1245.090976
1245.090997
1245.091016
1245.091017
1245.091024
1245.091023
1245.091017
1245.091028
1245.091035
1245.091025
1245.091011
1245.091008
1245.090475
1245.090492
1245.090474
1245.090482
1245.090473
1245.090467
1245.090478
1245.090466
1245.090484
1245.090491
1245.090495
1245.090503
1245.090487
1245.090462
1245.091468
1245.091468
1245.091459
1245.091472
1245.091469
1245.091439
1245.09144
1245.091435
1245.091468
1245.091467
1245.091459
1245.091444
1245.091436
1245.091414
1245.090756
1245.090753
1245.090751
1245.090711
1245.090723
1245.090736
1245.090755
1245.090753
1245.090751
1245.090732
1245.090739
1245.090743
1245.090737
1245.090702
1245.091885
1245.09189
1245.091891
1245.091908
1245.091913
1245.0919
1245.091898
1245.091904
1245.091908
1245.091931
1245.091951
1245.09194
1245.091926
1245.091903
1245.090796
1245.090783
1245.090801
1245.090796
1245.090809
1245.090808
1245.090818
1245.090832
1245.090801
1245.090784
1245.090776
1245.090782
1245.090777
1245.090793
1245.090222
1245.090234
1245.090253
1245.090252
1245.090243
1245.090232
1245.09023
1245.090215
1245.090237
1245.090222
1245.09024
1245.090269
1245.090292
1245.090288
1245.090727
1245.090719
1245.090721
1245.090721
1245.090715
1245.090721
1245.090696
1245.090714
1245.090705
1245.090695
1245.090694
1245.090684
1245.090675
1245.09067
)
;

boundaryField
{
    top
    {
        type            calculated;
        value           nonuniform List<scalar> 
134
(
1245.090872
1245.091224
1245.090272
1245.091185
1245.090535
1245.090526
1245.091088
1245.091278
1245.090727
1245.090879
1245.091224
1245.090268
1245.091179
1245.090524
1245.090506
1245.091084
1245.091272
1245.090719
1245.090851
1245.09123
1245.090265
1245.091178
1245.090531
1245.090497
1245.0911
1245.091263
1245.090721
1245.090864
1245.091236
1245.09026
1245.091174
1245.090521
1245.090482
1245.091082
1245.091253
1245.090721
1245.09086
1245.091231
1245.090251
1245.091184
1245.090524
1245.090488
1245.091075
1245.091257
1245.090715
1245.090872
1245.091237
1245.090243
1245.091181
1245.090507
1245.090479
1245.09106
1245.091268
1245.090721
1245.090872
1245.091244
1245.090262
1245.091179
1245.090515
1245.090502
1245.091058
1245.091274
1245.090696
1245.090879
1245.091213
1245.090267
1245.091176
1245.0905
1245.090483
1245.091066
1245.091254
1245.090714
1245.090874
1245.091216
1245.090276
1245.091171
1245.09049
1245.090488
1245.091065
1245.091274
1245.090705
1245.090881
1245.091206
1245.090259
1245.091176
1245.090484
1245.090516
1245.091065
1245.091281
1245.090695
1245.090898
1245.091186
1245.09028
1245.091172
1245.090493
1245.090509
1245.091074
1245.091294
1245.090694
1245.090893
1245.091189
1245.090282
1245.091156
1245.090502
1245.090502
1245.091066
1245.091295
1245.090684
1245.0909
1245.091193
1245.090276
1245.091151
1245.090509
1245.0905
1245.091072
1245.091306
1245.090675
1245.090897
1245.09121
1245.090269
1245.09114
1245.090465
1245.09048
1245.091067
1245.091306
1245.09067
1245.090885
1245.091215
1245.09026
1245.091111
1245.090408
1245.090444
1245.091047
1245.09126
)
;
    }
    bottom
    {
        type            calculated;
        value           nonuniform List<scalar> 
127
(
1245.090808
1245.090611
1245.091117
1245.090391
1245.091105
1245.090287
1245.090398
1245.091604
1245.090559
1245.090808
1245.090615
1245.091111
1245.090394
1245.091113
1245.090262
1245.0904
1245.091596
1245.090554
1245.090826
1245.090601
1245.09109
1245.090385
1245.091098
1245.090249
1245.090412
1245.091588
1245.090535
1245.090831
1245.090604
1245.091092
1245.090384
1245.0911
1245.090237
1245.09043
1245.09161
1245.090545
1245.090813
1245.090615
1245.091094
1245.090361
1245.091107
1245.090261
1245.090436
1245.091604
1245.090527
1245.090811
1245.09062
1245.09111
1245.090353
1245.091104
1245.090278
1245.090445
1245.091578
1245.090537
1245.090805
1245.090606
1245.091089
1245.090367
1245.091131
1245.090273
1245.090441
1245.091593
1245.090534
1245.090807
1245.090634
1245.09108
1245.090368
1245.091139
1245.090287
1245.090447
1245.091599
1245.090536
1245.090801
1245.09065
1245.091049
1245.090371
1245.091139
1245.090284
1245.090451
1245.091609
1245.09053
1245.090809
1245.090639
1245.091062
1245.090376
1245.091137
1245.090284
1245.090466
1245.091608
1245.090534
1245.090808
1245.090651
1245.091072
1245.09038
1245.091129
1245.090276
1245.090453
1245.091607
1245.090521
1245.090786
1245.090644
1245.091083
1245.090385
1245.091129
1245.090269
1245.090457
1245.091626
1245.090528
1245.090761
1245.090636
1245.091082
1245.090376
1245.091124
1245.090268
1245.090415
1245.091599
1245.090499
1245.090751
1245.090637
1245.09107
1245.090346
1245.091105
1245.090255
1245.090397
1245.091585
1245.090499
1245.090735
)
;
    }
    side-walls
    {
        type            calculated;
        value           nonuniform List<scalar> 
261
(
1245.090808
1245.090952
1245.090614
1245.091302
1245.091365
1245.089923
1245.090277
1245.090775
1245.090872
1245.090808
1245.090972
1245.090619
1245.091314
1245.091346
1245.089906
1245.090253
1245.090788
1245.090879
1245.090826
1245.090953
1245.090624
1245.091295
1245.091333
1245.089905
1245.090237
1245.090806
1245.090851
1245.090831
1245.090966
1245.090633
1245.091305
1245.091337
1245.089917
1245.090244
1245.090798
1245.090864
1245.090813
1245.090986
1245.090599
1245.091315
1245.091332
1245.089904
1245.09027
1245.090788
1245.09086
1245.090811
1245.090959
1245.090582
1245.091316
1245.091329
1245.089888
1245.090277
1245.0908
1245.090872
1245.090805
1245.090938
1245.090619
1245.091313
1245.091329
1245.089884
1245.090286
1245.090794
1245.090872
1245.090807
1245.090938
1245.09061
1245.091336
1245.091343
1245.089869
1245.090306
1245.090787
1245.090879
1245.090801
1245.090917
1245.090609
1245.091327
1245.091347
1245.089868
1245.090283
1245.090803
1245.090874
1245.090809
1245.090925
1245.090587
1245.091323
1245.091338
1245.089877
1245.090279
1245.090787
1245.090881
1245.090808
1245.090916
1245.090591
1245.091315
1245.09134
1245.08984
1245.090311
1245.09077
1245.090898
1245.090786
1245.090919
1245.090571
1245.09133
1245.091316
1245.089842
1245.090325
1245.090775
1245.090893
1245.090761
1245.090922
1245.090563
1245.091348
1245.091314
1245.089853
1245.090341
1245.090783
1245.0909
1245.090751
1245.090923
1245.090541
1245.091356
1245.091304
1245.089871
1245.090303
1245.090811
1245.090897
1245.090735
1245.090915
1245.090533
1245.091333
1245.091224
1245.089814
1245.090268
1245.090809
1245.090885
1245.090559
1245.090962
1245.090475
1245.091468
1245.090756
1245.091885
1245.090796
1245.090222
1245.090727
1245.090554
1245.090961
1245.090492
1245.091468
1245.090753
1245.09189
1245.090783
1245.090234
1245.090719
1245.090535
1245.090976
1245.090474
1245.091459
1245.090751
1245.091891
1245.090801
1245.090253
1245.090721
1245.090545
1245.090997
1245.090482
1245.091472
1245.090711
1245.091908
1245.090796
1245.090252
1245.090721
1245.090527
1245.091016
1245.090473
1245.091469
1245.090723
1245.091913
1245.090809
1245.090243
1245.090715
1245.090537
1245.091017
1245.090467
1245.091439
1245.090736
1245.0919
1245.090808
1245.090232
1245.090721
1245.090534
1245.091024
1245.090478
1245.09144
1245.090755
1245.091898
1245.090818
1245.09023
1245.090696
1245.090536
1245.091023
1245.090466
1245.091435
1245.090753
1245.091904
1245.090832
1245.090215
1245.090714
1245.09053
1245.091017
1245.090484
1245.091468
1245.090751
1245.091908
1245.090801
1245.090237
1245.090705
1245.090534
1245.091028
1245.090491
1245.091467
1245.090732
1245.091931
1245.090784
1245.090222
1245.090695
1245.090521
1245.091035
1245.090495
1245.091459
1245.090739
1245.091951
1245.090776
1245.09024
1245.090694
1245.090528
1245.091025
1245.090503
1245.091444
1245.090743
1245.09194
1245.090782
1245.090269
1245.090684
1245.090499
1245.091011
1245.090487
1245.091436
1245.090737
1245.091926
1245.090777
1245.090292
1245.090675
1245.090499
1245.091008
1245.090462
1245.091414
1245.090702
1245.091903
1245.090793
1245.090288
1245.09067
)
;
    }
    inlet
    {
        type            calculated;
        value           nonuniform List<scalar> 
81
(
1245.090808
1245.090952
1245.090614
1245.091302
1245.091365
1245.089923
1245.090277
1245.090775
1245.090872
1245.090611
1245.091814
1245.091425
1245.09066
1245.091181
1245.091555
1245.092043
1245.090212
1245.091224
1245.091117
1245.090191
1245.090221
1245.090451
1245.091727
1245.089768
1245.090553
1245.090911
1245.090272
1245.090391
1245.090921
1245.089865
1245.090712
1245.090751
1245.090731
1245.09067
1245.090922
1245.091185
1245.091105
1245.090575
1245.092368
1245.091297
1245.091157
1245.091209
1245.090682
1245.090662
1245.090535
1245.090287
1245.090126
1245.09043
1245.090523
1245.09087
1245.090362
1245.090727
1245.09042
1245.090526
1245.090398
1245.09111
1245.091951
1245.0909
1245.089811
1245.090907
1245.09101
1245.090834
1245.091088
1245.091604
1245.090536
1245.090592
1245.091041
1245.090851
1245.090789
1245.090991
1245.090824
1245.091278
1245.090559
1245.090962
1245.090475
1245.091468
1245.090756
1245.091885
1245.090796
1245.090222
1245.090727
)
;
    }
    outlet
    {
        type            calculated;
        value           nonuniform 0();
    }
    procBoundary0to1
    {
        type            processor;
        value           nonuniform List<scalar> 
97
(
1245.090727
1245.090637
1245.090939
1245.090519
1245.091279
1245.091147
1245.089795
1245.090236
1245.090795
1245.090885
1245.090637
1245.090637
1245.091791
1245.090063
1245.091361
1245.090349
1245.090774
1245.091293
1245.091856
1245.090135
1245.091188
1245.091059
1245.090063
1245.090063
1245.089863
1245.089376
1245.089598
1245.090114
1245.088978
1245.090254
1245.090851
1245.090248
1245.090309
1245.090749
1245.089376
1245.089376
1245.088099
1245.085598
1245.084513
1245.088283
1245.089764
1245.09064
1245.091028
1245.091096
1245.090236
1245.091294
1245.085598
1245.085598
1244.461269
1245.085174
1245.084926
1245.088516
1245.089107
1245.090193
1245.090376
1245.090204
1245.0899
1245.08983
1245.088698
1245.085174
1245.088516
1245.088516
1245.089854
1245.090813
1245.090107
1245.090373
1245.090378
1245.091022
1245.091743
1245.090415
1245.088792
1245.090294
1245.090813
1245.090813
1245.090684
1245.090811
1245.091001
1245.091573
1245.090448
1245.090493
1245.090804
1245.090703
1245.090678
1245.090948
1245.090811
1245.090811
1245.091249
1245.090675
1245.090496
1245.090995
1245.090438
1245.091396
1245.090705
1245.091869
1245.090803
1245.0903
1245.090675
)
;
    }
}


// ************************************************************************* //
