/*--------------------------------*- C++ -*----------------------------------*\
| =========                 |                                                 |
| \\      /  F ield         | OpenFOAM: The Open Source CFD Toolbox           |
|  \\    /   O peration     | Version:  4.x                                   |
|   \\  /    A nd           | Web:      www.OpenFOAM.org                      |
|    \\/     M anipulation  |                                                 |
\*---------------------------------------------------------------------------*/
FoamFile
{
    version     2.0;
    format      ascii;
    class       volScalarField;
    location    "8000";
    object      H2;
}
// * * * * * * * * * * * * * * * * * * * * * * * * * * * * * * * * * * * * * //

dimensions      [0 0 0 0 0 0 0];

internalField   nonuniform List<scalar> 
1175
(
0.002172513342
0.002172513342
0.002172513342
0.002172513342
0.002172513341
0.00217251334
0.002172513334
0.002172513316
0.002172513259
0.002172513089
0.002172512605
0.002172511324
0.002172508201
0.002172501317
0.002172487792
0.002172513342
0.002172513342
0.002172513342
0.002172513342
0.002172513341
0.002172513339
0.002172513332
0.002172513306
0.002172513224
0.002172512967
0.002172512207
0.002172510113
0.002172504831
0.002172492933
0.002172469558
0.002172513342
0.002172513342
0.002172513342
0.002172513342
0.002172513341
0.002172513338
0.002172513327
0.002172513289
0.002172513159
0.002172512735
0.002172511417
0.002172507614
0.002172497618
0.002172474435
0.002172428784
0.002172513342
0.002172513342
0.002172513342
0.002172513342
0.002172513341
0.002172513337
0.002172513322
0.00217251327
0.002172513086
0.00217251246
0.002172510437
0.00217250433
0.002172487575
0.002172447374
0.00217236764
0.002172513342
0.002172513342
0.002172513342
0.002172513342
0.00217251334
0.002172513336
0.00217251332
0.002172513262
0.00217251305
0.002172512317
0.002172509889
0.00217250235
0.00217248098
0.002172428086
0.002172321853
0.002172513342
0.002172513342
0.002172513342
0.002172513342
0.002172513341
0.002172513337
0.002172513322
0.00217251327
0.002172513086
0.00217251246
0.002172510437
0.00217250433
0.002172487576
0.002172447374
0.002172367641
0.002172513342
0.002172513342
0.002172513342
0.002172513342
0.002172513341
0.002172513338
0.002172513327
0.002172513289
0.002172513159
0.002172512735
0.002172511417
0.002172507614
0.002172497618
0.002172474435
0.002172428785
0.002172513342
0.002172513342
0.002172513342
0.002172513342
0.002172513341
0.002172513339
0.002172513332
0.002172513306
0.002172513224
0.002172512967
0.002172512207
0.002172510113
0.002172504832
0.002172492933
0.002172469559
0.002172513342
0.002172513342
0.002172513342
0.002172513342
0.002172513341
0.00217251334
0.002172513334
0.002172513316
0.002172513259
0.002172513089
0.002172512605
0.002172511324
0.002172508201
0.002172501317
0.002172487792
0.002172513342
0.002172513342
0.002172513342
0.002172513342
0.002172513341
0.002172513339
0.002172513332
0.002172513306
0.002172513224
0.002172512967
0.002172512207
0.002172510113
0.002172504831
0.002172492932
0.002172513342
0.002172513342
0.002172513342
0.002172513342
0.002172513341
0.002172513338
0.002172513328
0.002172513291
0.002172513164
0.002172512747
0.002172511442
0.002172507643
0.00217249757
0.002172474065
0.002172427741
0.002172513342
0.002172513342
0.002172513342
0.002172513342
0.002172513341
0.002172513336
0.00217251332
0.002172513261
0.002172513047
0.002172512298
0.002172509803
0.002172502048
0.002172480186
0.002172426661
0.002172320078
0.002172513342
0.002172513342
0.002172513342
0.002172513342
0.00217251334
0.002172513335
0.002172513313
0.002172513228
0.002172512906
0.00217251172
0.002172507532
0.002172493643
0.002172451721
0.002172342558
0.002172119794
0.002172513342
0.002172513342
0.002172513342
0.002172513341
0.00217251334
0.002172513334
0.002172513309
0.002172513211
0.00217251283
0.002172511384
0.002172506075
0.002172487587
0.002172428329
0.002172263358
0.002171911182
0.002172513342
0.002172513342
0.002172513342
0.002172513342
0.00217251334
0.002172513335
0.002172513313
0.002172513228
0.002172512906
0.00217251172
0.002172507532
0.002172493643
0.002172451721
0.002172342559
0.002172119796
0.002172513342
0.002172513342
0.002172513342
0.002172513342
0.002172513341
0.002172513336
0.00217251332
0.002172513261
0.002172513047
0.002172512298
0.002172509803
0.002172502048
0.002172480186
0.002172426662
0.00217232008
0.002172513342
0.002172513342
0.002172513342
0.002172513342
0.002172513341
0.002172513338
0.002172513328
0.002172513291
0.002172513164
0.002172512747
0.002172511443
0.002172507643
0.00217249757
0.002172474066
0.002172427743
0.002172513342
0.002172513342
0.002172513342
0.002172513342
0.002172513341
0.002172513339
0.002172513332
0.002172513306
0.002172513224
0.002172512967
0.002172512207
0.002172510113
0.002172504832
0.002172492933
0.002172469559
0.002172513342
0.002172513342
0.002172513342
0.002172513342
0.002172513341
0.002172513338
0.002172513327
0.002172513289
0.002172513159
0.002172512734
0.002172511417
0.002172507614
0.002172497617
0.002172474434
0.002172513342
0.002172513342
0.002172513342
0.002172513342
0.002172513341
0.002172513336
0.00217251332
0.002172513261
0.002172513047
0.002172512298
0.002172509803
0.002172502048
0.002172480186
0.00217242666
0.002172513342
0.002172513342
0.002172513342
0.002172513341
0.00217251334
0.002172513334
0.002172513308
0.002172513207
0.002172512816
0.002172511343
0.002172506031
0.002172488051
0.002172432783
0.002172286878
0.002171987889
0.002172513342
0.002172513342
0.002172513342
0.002172513341
0.002172513339
0.00217251333
0.002172513294
0.002172513141
0.002172512514
0.00217250999
0.002172500142
0.002172463657
0.002172339599
0.002171976542
0.002171182761
0.002172513342
0.002172513342
0.002172513342
0.002172513341
0.002172513339
0.002172513329
0.002172513287
0.002172513106
0.002172512337
0.0021725091
0.002172495712
0.002172442132
0.002172240569
0.002171570875
0.002169909946
0.002172513342
0.002172513342
0.002172513342
0.002172513341
0.002172513339
0.00217251333
0.002172513294
0.002172513141
0.002172512514
0.00217250999
0.002172500142
0.002172463657
0.002172339601
0.002171976547
0.002171182776
0.002172513342
0.002172513342
0.002172513342
0.002172513341
0.00217251334
0.002172513334
0.002172513308
0.002172513207
0.002172512816
0.002172511343
0.002172506031
0.002172488051
0.002172432784
0.002172286882
0.002171987901
0.002172513342
0.002172513342
0.002172513342
0.002172513342
0.002172513341
0.002172513336
0.00217251332
0.002172513261
0.002172513047
0.002172512298
0.002172509803
0.002172502048
0.002172480186
0.002172426663
0.00217232008
0.002172513342
0.002172513342
0.002172513342
0.002172513342
0.002172513341
0.002172513338
0.002172513327
0.002172513289
0.002172513159
0.002172512735
0.002172511417
0.002172507614
0.002172497618
0.002172474435
0.002172428785
0.002172513342
0.002172513342
0.002172513342
0.002172513342
0.002172513341
0.002172513337
0.002172513322
0.00217251327
0.002172513086
0.00217251246
0.002172510437
0.00217250433
0.002172487575
0.002172447372
0.002172513342
0.002172513342
0.002172513342
0.002172513342
0.00217251334
0.002172513335
0.002172513313
0.002172513228
0.002172512906
0.00217251172
0.002172507532
0.002172493643
0.00217245172
0.002172342554
0.002172513342
0.002172513342
0.002172513342
0.002172513341
0.002172513339
0.00217251333
0.002172513294
0.002172513141
0.002172512514
0.00217250999
0.002172500142
0.002172463656
0.002172339597
0.002171976531
0.002172513342
0.002172513342
0.002172513342
0.002172513341
0.002172513338
0.002172513326
0.002172513271
0.00217251303
0.002172511964
0.002172507289
0.002172487073
0.002172402342
0.002172068783
0.00217091448
0.002167973528
0.002172513342
0.002172513342
0.002172513342
0.002172513341
0.002172513338
0.002172513324
0.002172513259
0.002172512965
0.002172511606
0.002172505257
0.002172475344
0.002172334201
0.002171679505
0.002168835026
0.002158996656
0.002172513342
0.002172513342
0.002172513342
0.002172513341
0.002172513338
0.002172513326
0.002172513271
0.00217251303
0.002172511964
0.002172507289
0.002172487073
0.002172402343
0.002172068787
0.002170914501
0.002167973612
0.002172513342
0.002172513342
0.002172513342
0.002172513341
0.002172513339
0.00217251333
0.002172513294
0.002172513141
0.002172512514
0.00217250999
0.002172500142
0.002172463657
0.0021723396
0.002171976546
0.002171182774
0.002172513342
0.002172513342
0.002172513342
0.002172513342
0.00217251334
0.002172513335
0.002172513313
0.002172513228
0.002172512906
0.00217251172
0.002172507532
0.002172493643
0.002172451721
0.002172342559
0.002172119796
0.002172513342
0.002172513342
0.002172513342
0.002172513342
0.002172513341
0.002172513337
0.002172513322
0.00217251327
0.002172513086
0.00217251246
0.002172510437
0.00217250433
0.002172487575
0.002172447374
0.002172367641
0.002172513342
0.002172513342
0.002172513342
0.002172513342
0.00217251334
0.002172513336
0.00217251332
0.002172513262
0.00217251305
0.002172512317
0.002172509889
0.002172502349
0.00217248098
0.002172428084
0.002172513342
0.002172513342
0.002172513342
0.002172513341
0.00217251334
0.002172513334
0.002172513309
0.002172513211
0.00217251283
0.002172511384
0.002172506075
0.002172487586
0.002172428328
0.002172263351
0.002172513342
0.002172513342
0.002172513342
0.002172513341
0.002172513339
0.002172513329
0.002172513287
0.002172513106
0.002172512337
0.0021725091
0.002172495712
0.002172442131
0.002172240562
0.002171570847
0.002172513342
0.002172513342
0.002172513342
0.002172513341
0.002172513338
0.002172513324
0.002172513259
0.002172512965
0.002172511606
0.002172505257
0.002172475344
0.002172334198
0.00217167949
0.002168834931
0.002172513342
0.002172513342
0.002172513342
0.002172513341
0.002172513337
0.002172513321
0.002172513244
0.002172512878
0.002172511089
0.002172502002
0.002172453672
0.002172181516
0.002170542683
0.002159920834
0.002085471792
0.002172513342
0.002172513342
0.002172513342
0.002172513341
0.002172513338
0.002172513324
0.002172513259
0.002172512965
0.002172511606
0.002172505257
0.002172475344
0.0021723342
0.002171679501
0.002168835014
0.002158996631
0.002172513342
0.002172513342
0.002172513342
0.002172513341
0.002172513339
0.002172513329
0.002172513287
0.002172513106
0.002172512337
0.0021725091
0.002172495712
0.002172442132
0.002172240569
0.002171570874
0.002169909947
0.002172513342
0.002172513342
0.002172513342
0.002172513341
0.00217251334
0.002172513334
0.002172513309
0.002172513211
0.00217251283
0.002172511384
0.002172506075
0.002172487587
0.00217242833
0.002172263358
0.002171911183
0.002172513342
0.002172513342
0.002172513342
0.002172513342
0.00217251334
0.002172513336
0.00217251332
0.002172513262
0.00217251305
0.002172512317
0.002172509889
0.00217250235
0.00217248098
0.002172428086
0.002172321854
0.002172513342
0.002172513342
0.002172513342
0.002172513342
0.002172513341
0.002172513337
0.002172513322
0.00217251327
0.002172513086
0.00217251246
0.002172510437
0.00217250433
0.002172487575
0.002172447373
0.002172513342
0.002172513342
0.002172513342
0.002172513342
0.00217251334
0.002172513335
0.002172513313
0.002172513228
0.002172512906
0.00217251172
0.002172507532
0.002172493643
0.00217245172
0.002172342555
0.002172513342
0.002172513342
0.002172513342
0.002172513341
0.002172513339
0.00217251333
0.002172513294
0.002172513141
0.002172512514
0.00217250999
0.002172500142
0.002172463656
0.002172339596
0.002171976532
0.002172513342
0.002172513342
0.002172513342
0.002172513341
0.002172513338
0.002172513326
0.002172513271
0.00217251303
0.002172511964
0.002172507289
0.002172487073
0.002172402341
0.002172068779
0.002170914464
0.002172513342
0.002172513342
0.002172513342
0.002172513341
0.002172513338
0.002172513324
0.002172513259
0.002172512965
0.002172511606
0.002172505257
0.002172475344
0.002172334198
0.002171679491
0.002168834935
0.002172513342
0.002172513342
0.002172513342
0.002172513341
0.002172513338
0.002172513326
0.002172513271
0.00217251303
0.002172511964
0.002172507289
0.002172487073
0.002172402342
0.002172068781
0.002170914469
0.002172513342
0.002172513342
0.002172513342
0.002172513341
0.002172513339
0.00217251333
0.002172513294
0.002172513141
0.002172512514
0.00217250999
0.002172500142
0.002172463656
0.002172339598
0.002171976538
0.002171182751
0.002172513342
0.002172513342
0.002172513342
0.002172513342
0.00217251334
0.002172513335
0.002172513313
0.002172513228
0.002172512906
0.00217251172
0.002172507532
0.002172493643
0.002172451721
0.002172342557
0.002172119793
0.002172513342
0.002172513342
0.002172513342
0.002172513342
0.002172513341
0.002172513337
0.002172513322
0.00217251327
0.002172513086
0.00217251246
0.002172510437
0.00217250433
0.002172487575
0.002172447374
0.002172367641
0.002172513342
0.002172513342
0.002172513342
0.002172513342
0.002172513341
0.002172513338
0.002172513327
0.002172513289
0.002172513159
0.002172512734
0.002172511417
0.002172507614
0.002172497617
0.002172474434
0.002172513342
0.002172513342
0.002172513342
0.002172513342
0.002172513341
0.002172513336
0.00217251332
0.002172513261
0.002172513047
0.002172512298
0.002172509803
0.002172502048
0.002172480185
0.00217242666
0.002172513342
0.002172513342
0.002172513342
0.002172513341
0.00217251334
0.002172513334
0.002172513308
0.002172513207
0.002172512816
0.002172511343
0.002172506031
0.00217248805
0.002172432782
0.002172286875
0.002172513342
0.002172513342
0.002172513342
0.002172513341
0.002172513339
0.00217251333
0.002172513294
0.002172513141
0.002172512514
0.00217250999
0.002172500142
0.002172463656
0.002172339596
0.002171976534
0.002172513342
0.002172513342
0.002172513342
0.002172513341
0.002172513339
0.002172513329
0.002172513287
0.002172513106
0.002172512337
0.0021725091
0.002172495712
0.002172442132
0.002172240566
0.002171570858
0.002172513342
0.002172513342
0.002172513342
0.002172513341
0.002172513339
0.00217251333
0.002172513294
0.002172513141
0.002172512514
0.00217250999
0.002172500142
0.002172463656
0.002172339597
0.002171976535
0.002172513342
0.002172513342
0.002172513342
0.002172513341
0.00217251334
0.002172513334
0.002172513308
0.002172513207
0.002172512816
0.002172511343
0.002172506031
0.002172488051
0.002172432782
0.002172286876
0.002172513342
0.002172513342
0.002172513342
0.002172513342
0.002172513341
0.002172513336
0.00217251332
0.002172513261
0.002172513047
0.002172512298
0.002172509803
0.002172502048
0.002172480186
0.002172426661
0.002172320076
0.002172513342
0.002172513342
0.002172513342
0.002172513342
0.002172513341
0.002172513338
0.002172513327
0.002172513289
0.002172513159
0.002172512734
0.002172511417
0.002172507614
0.002172497618
0.002172474435
0.002172428783
0.002172513342
0.002172513342
0.002172513342
0.002172513342
0.002172513341
0.002172513339
0.002172513332
0.002172513306
0.002172513224
0.002172512967
0.002172512207
0.002172510113
0.002172504831
0.002172492932
0.002172513342
0.002172513342
0.002172513342
0.002172513342
0.002172513341
0.002172513338
0.002172513328
0.002172513291
0.002172513164
0.002172512747
0.002172511442
0.002172507642
0.00217249757
0.002172474065
0.002172513342
0.002172513342
0.002172513342
0.002172513342
0.002172513341
0.002172513336
0.00217251332
0.002172513261
0.002172513047
0.002172512298
0.002172509803
0.002172502048
0.002172480186
0.00217242666
0.002172513342
0.002172513342
0.002172513342
0.002172513342
0.00217251334
0.002172513335
0.002172513313
0.002172513228
0.002172512906
0.00217251172
0.002172507532
0.002172493642
0.00217245172
0.002172342555
0.002172513342
0.002172513342
0.002172513342
0.002172513341
0.00217251334
0.002172513334
0.002172513309
0.002172513211
0.00217251283
0.002172511384
0.002172506075
0.002172487586
0.002172428328
0.002172263354
0.002172513342
0.002172513342
0.002172513342
0.002172513342
0.00217251334
0.002172513335
0.002172513313
0.002172513228
0.002172512906
0.00217251172
0.002172507532
0.002172493643
0.00217245172
0.002172342556
0.002172513342
0.002172513342
0.002172513342
0.002172513342
0.002172513341
0.002172513336
0.00217251332
0.002172513261
0.002172513047
0.002172512298
0.002172509803
0.002172502048
0.002172480186
0.00217242666
0.002172513342
0.002172513342
0.002172513342
0.002172513342
0.002172513341
0.002172513338
0.002172513328
0.002172513291
0.002172513164
0.002172512747
0.002172511442
0.002172507642
0.00217249757
0.002172474065
0.002172513342
0.002172513342
0.002172513342
0.002172513342
0.002172513341
0.002172513339
0.002172513332
0.002172513306
0.002172513224
0.002172512967
0.002172512207
0.002172510113
0.002172504831
0.002172492932
0.002172469557
0.002172513342
0.002172513342
0.002172513342
0.002172513342
0.002172513341
0.00217251334
0.002172513334
0.002172513316
0.002172513259
0.002172513089
0.002172512605
0.002172511324
0.002172508201
0.002172501317
0.002172513342
0.002172513342
0.002172513342
0.002172513342
0.002172513341
0.002172513339
0.002172513332
0.002172513306
0.002172513224
0.002172512967
0.002172512207
0.002172510113
0.002172504831
0.002172492932
0.002172513342
0.002172513342
0.002172513342
0.002172513342
0.002172513341
0.002172513338
0.002172513327
0.002172513289
0.002172513159
0.002172512734
0.002172511417
0.002172507614
0.002172497617
0.002172474434
0.002172513342
0.002172513342
0.002172513342
0.002172513342
0.002172513341
0.002172513337
0.002172513322
0.00217251327
0.002172513086
0.00217251246
0.002172510437
0.00217250433
0.002172487575
0.002172447372
0.002172513342
0.002172513342
0.002172513342
0.002172513342
0.00217251334
0.002172513336
0.00217251332
0.002172513262
0.00217251305
0.002172512317
0.002172509889
0.002172502349
0.00217248098
0.002172428084
0.002172513342
0.002172513342
0.002172513342
0.002172513342
0.002172513341
0.002172513337
0.002172513322
0.00217251327
0.002172513086
0.00217251246
0.002172510437
0.00217250433
0.002172487575
0.002172447372
0.002172513342
0.002172513342
0.002172513342
0.002172513342
0.002172513341
0.002172513338
0.002172513327
0.002172513289
0.002172513159
0.002172512734
0.002172511417
0.002172507614
0.002172497617
0.002172474434
0.002172513342
0.002172513342
0.002172513342
0.002172513342
0.002172513341
0.002172513339
0.002172513332
0.002172513306
0.002172513224
0.002172512967
0.002172512207
0.002172510113
0.002172504831
0.002172492932
0.002172513342
0.002172513342
0.002172513342
0.002172513342
0.002172513341
0.00217251334
0.002172513334
0.002172513316
0.002172513259
0.002172513089
0.002172512605
0.002172511324
0.002172508201
0.002172501316
)
;

boundaryField
{
    top
    {
        type            zeroGradient;
    }
    bottom
    {
        type            zeroGradient;
    }
    side-walls
    {
        type            zeroGradient;
    }
    inlet
    {
        type            zeroGradient;
    }
    outlet
    {
        type            zeroGradient;
    }
    procBoundary0to1
    {
        type            processor;
        value           nonuniform List<scalar> 
97
(
0.002172464288
0.002172469557
0.002172430087
0.002172354629
0.002172244237
0.00217216556
0.002172244238
0.00217235463
0.002172430088
0.002172464289
0.002172469557
0.002172469557
0.002172353121
0.002172320075
0.002172159741
0.002171816643
0.002171493578
0.002171816645
0.002172159744
0.002172353124
0.002172430088
0.002172428783
0.002172320075
0.002172320075
0.002171589495
0.002171182742
0.002170323388
0.002168668413
0.002170323403
0.002171589506
0.002172159745
0.00217235463
0.002172367639
0.002172119789
0.002171182742
0.002171182742
0.002165989713
0.002158996541
0.002157501852
0.002165989765
0.002170323402
0.002171816646
0.002172244238
0.002172321852
0.002171911175
0.002169909914
0.002158996541
0.002158996541
0.002121020028
0.002158996561
0.002157501846
0.002167973577
0.002168668418
0.002171493582
0.002172165562
0.00217236764
0.002172119793
0.00217118276
0.002167973582
0.002158996561
0.002167973577
0.002167973577
0.00217032339
0.00217198789
0.002171816644
0.002172244238
0.002172428784
0.002172320078
0.002171987894
0.002171182764
0.00216990994
0.002171182766
0.00217198789
0.00217198789
0.002172159742
0.002172427741
0.002172354629
0.002172469558
0.002172427742
0.002172320078
0.002172119794
0.002171911181
0.002172119794
0.002172320078
0.002172427741
0.002172427741
0.002172430087
0.002172487792
0.002172487792
0.002172469558
0.002172428784
0.00217236764
0.002172321853
0.00217236764
0.002172428784
0.002172469558
0.002172487792
)
;
    }
}


// ************************************************************************* //
