/*--------------------------------*- C++ -*----------------------------------*\
| =========                 |                                                 |
| \\      /  F ield         | OpenFOAM: The Open Source CFD Toolbox           |
|  \\    /   O peration     | Version:  4.x                                   |
|   \\  /    A nd           | Web:      www.OpenFOAM.org                      |
|    \\/     M anipulation  |                                                 |
\*---------------------------------------------------------------------------*/
FoamFile
{
    version     2.0;
    format      ascii;
    class       volScalarField;
    location    "8000";
    object      molarConc;
}
// * * * * * * * * * * * * * * * * * * * * * * * * * * * * * * * * * * * * * //

dimensions      [0 -3 0 0 1 0 0];

internalField   nonuniform List<scalar> 
1175
(
9.963276752
9.963276768
9.963275826
9.963275553
9.963276527
9.963276615
9.963276912
9.963276826
9.963277147
9.963276693
9.963276715
9.963277812
9.963278995
9.963279149
9.963279295
9.963269191
9.963268178
9.963269161
9.963268488
9.963267414
9.963268836
9.963269935
9.963269962
9.963271025
9.963270594
9.963271041
9.963270805
9.963270332
9.963269672
9.963268899
9.96328696
9.963286716
9.963286407
9.963285953
9.963287734
9.963288611
9.963286716
9.963287175
9.963287214
9.963288334
9.96328808
9.963288903
9.963288812
9.963288767
9.963286853
9.963250841
9.963250224
9.96325123
9.963250668
9.963250144
9.963250115
9.963250255
9.963249059
9.963249518
9.96324968
9.963249983
9.963248916
9.96324712
9.963244617
9.963241735
9.963247531
9.963248504
9.963249227
9.963249014
9.963249267
9.963249408
9.963249395
9.963248681
9.96324845
9.963248903
9.963248654
9.963249555
9.963248535
9.963246327
9.963245082
9.963323226
9.963324122
9.963324165
9.96332356
9.963324219
9.963325072
9.963325257
9.963326062
9.963326126
9.963325623
9.963327431
9.963327033
9.963325581
9.963322577
9.963321484
9.963304626
9.96330589
9.963306773
9.963306389
9.963305043
9.963304672
9.963304184
9.963303136
9.963304333
9.963304498
9.96330278
9.963301811
9.963300457
9.963301272
9.963300749
9.963278497
9.96327781
9.963276881
9.963277295
9.963277842
9.96327719
9.963277484
9.963277892
9.963277026
9.963277857
9.963278697
9.963278349
9.963277632
9.963275578
9.963274448
9.963273402
9.963273037
9.963274525
9.963273831
9.963274032
9.963273397
9.963273417
9.963273062
9.963273279
9.963272933
9.963271999
9.963272228
9.963271676
9.963271487
9.963271409
9.963287094
9.963286912
9.963287624
9.963287478
9.963286889
9.963286667
9.963287363
9.963285885
9.963285049
9.963285602
9.963284952
9.963285195
9.963285367
9.96328471
9.963223942
9.963223923
9.963224547
9.963224381
9.963223154
9.963223829
9.963223387
9.963223947
9.963223804
9.963223405
9.963223588
9.963223604
9.963221292
9.963220472
9.963218881
9.963244401
9.963245418
9.963245114
9.963244617
9.963243812
9.963241773
9.963241638
9.963242247
9.963241851
9.96324064
9.963240312
9.963240025
9.963240245
9.963236996
9.963234008
9.96328456
9.963285387
9.963284637
9.963284687
9.963284833
9.963283767
9.963282909
9.963282954
9.9632834
9.963284811
9.963284594
9.963284218
9.963282105
9.963278831
9.963272453
9.963257212
9.96325743
9.963256938
9.963257439
9.963258642
9.963259356
9.963258596
9.963257919
9.963257616
9.963258039
9.963258387
9.963256989
9.963255581
9.963250002
9.963239604
9.963237558
9.963238141
9.96323673
9.963237017
9.96323838
9.963237676
9.963237952
9.963238594
9.963237356
9.963236194
9.963236421
9.963235086
9.963232779
9.963230419
9.963223894
9.963211924
9.963211769
9.963212079
9.963211937
9.963210147
9.963210945
9.963211036
9.96321005
9.963211414
9.963211099
9.963211827
9.963212071
9.963212628
9.963210112
9.963207486
9.963308085
9.963307265
9.963307681
9.96330675
9.963307575
9.963307109
9.963307659
9.96330741
9.963307174
9.963307005
9.963306542
9.963306332
9.963306267
9.963306659
9.963306698
9.963254922
9.96325495
9.963254604
9.963254296
9.963254542
9.963254227
9.963253892
9.963255521
9.963255365
9.963255852
9.963256857
9.963256591
9.96325612
9.963254604
9.963253156
9.963260559
9.96326086
9.963261994
9.963261872
9.963261774
9.963260942
9.963262031
9.963262477
9.963264127
9.963263399
9.963262831
9.963262019
9.963261583
9.963261016
9.963309161
9.963309524
9.963309811
9.963310612
9.963311263
9.963311552
9.963310417
9.963309816
9.963310257
9.963309689
9.963309706
9.963309707
9.96331055
9.963308296
9.963307597
9.963308105
9.963307915
9.963308203
9.963308684
9.963307485
9.963307291
9.963307032
9.963306634
9.963308013
9.963307415
9.963305909
9.96330357
9.963300557
9.963292086
9.963295523
9.963294693
9.96329482
9.963295062
9.963295303
9.963296384
9.963294711
9.963293309
9.963294445
9.963293611
9.963293832
9.963294032
9.963289885
9.963279086
9.963253999
9.963228523
9.963229585
9.963230281
9.963231877
9.963232398
9.963233564
9.963232665
9.963232532
9.963232792
9.963232433
9.963232223
9.963232102
9.963224292
9.963203914
9.963152874
9.963331349
9.963331466
9.963329833
9.963330745
9.963329766
9.963329771
9.963328434
9.963328169
9.963328642
9.963328749
9.9633285
9.963328022
9.963323572
9.963311786
9.963287642
9.963290179
9.963290855
9.963291207
9.963290561
9.963289964
9.963289988
9.963288032
9.963287405
9.963288206
9.963288697
9.963287738
9.963285822
9.963284599
9.963279552
9.963271523
9.963271357
9.963270909
9.963269666
9.963269191
9.963267906
9.96326806
9.963267674
9.963268816
9.96326913
9.9632682
9.963268324
9.963268032
9.963266903
9.963266129
9.963262919
9.963304892
9.963305147
9.963305268
9.963305564
9.96330602
9.963306446
9.963305446
9.96330518
9.963304681
9.963305581
9.963304407
9.963304079
9.963303893
9.963303086
9.963301191
9.963298665
9.963298525
9.963298998
9.963299042
9.96330024
9.963300675
9.963299942
9.963299894
9.963299689
9.963299408
9.96329909
9.963298529
9.963298113
9.963297649
9.963270854
9.963271756
9.963270755
9.963271682
9.963271888
9.963272461
9.963272906
9.963272801
9.963271856
9.963271388
9.963270725
9.963269291
9.963267731
9.963265793
9.963326281
9.963326776
9.963325723
9.963326314
9.963325544
9.963324639
9.963323162
9.963323186
9.963323214
9.963322709
9.963323053
9.963321896
9.963317999
9.963306761
9.963281837
9.963283176
9.963283351
9.963282412
9.963284045
9.963283854
9.963284662
9.963284277
9.963283184
9.963283783
9.963282692
9.963280862
9.963270686
9.963235049
9.963144337
9.963279759
9.96327795
9.963278363
9.963279034
9.963277621
9.963278235
9.96327908
9.963278801
9.963278715
9.963278962
9.963277305
9.963272925
9.963253441
9.96316433
9.962877613
9.963280838
9.96328156
9.963280192
9.963279938
9.963279852
9.963279177
9.963279471
9.96327906
9.963277651
9.963276652
9.963275656
9.963272556
9.963263005
9.963226675
9.963134497
9.963284043
9.963284527
9.963283822
9.963283249
9.963284582
9.963284004
9.963284497
9.963284339
9.963283437
9.963283472
9.963284032
9.963282466
9.963279333
9.963269861
9.963246038
9.963270784
9.963271382
9.963271887
9.963270929
9.963271127
9.963271179
9.963271494
9.963271058
9.963270854
9.963271719
9.963271587
9.963271037
9.963270211
9.963266378
9.963259315
9.963256973
9.963257307
9.963257368
9.963257544
9.963257046
9.963257192
9.963257286
9.963257426
9.963257676
9.963257431
9.96325752
9.963258039
9.963257428
9.963255923
9.963253365
9.963261203
9.963260743
9.963261566
9.963261442
9.963261069
9.963261244
9.963259805
9.963259388
9.96325937
9.96325943
9.963259732
9.963259358
9.963258511
9.963256787
9.963289006
9.963289225
9.963289501
9.963289371
9.96328889
9.963289734
9.963289832
9.963290195
9.963291193
9.963291884
9.963292036
9.963292322
9.963291051
9.963286252
9.96319486
9.963195006
9.963196747
9.963196938
9.963196552
9.963196192
9.963197197
9.963194867
9.96319342
9.963193694
9.96319323
9.963192857
9.963187302
9.96316774
9.963251122
9.963250952
9.963251071
9.96325052
9.963250951
9.96325071
9.963250429
9.963251948
9.963251283
9.963251487
9.963250986
9.963246541
9.963226598
9.96313968
9.963258436
9.963258146
9.963257417
9.963258858
9.963259835
9.963259879
9.963259706
9.963258515
9.963258221
9.963256547
9.963255509
9.96324734
9.963196052
9.962871221
9.992592528
9.96325571
9.963256867
9.963255444
9.963254434
9.963254124
9.963253974
9.96325493
9.963254688
9.96325479
9.963256153
9.963255097
9.963250562
9.963230298
9.963141555
9.962855644
9.963283373
9.963283489
9.963284499
9.96328605
9.963286519
9.963285812
9.963285102
9.963284002
9.963283514
9.963283213
9.963283849
9.963281913
9.96327612
9.96325658
9.963206184
9.963284454
9.963284553
9.963284394
9.963284134
9.963284509
9.963284453
9.963284452
9.963286011
9.96328414
9.96328503
9.963285864
9.963285819
9.963283777
9.963279756
9.963269699
9.963291104
9.963291684
9.963291327
9.963291817
9.963291661
9.963292569
9.963292146
9.963292945
9.963293426
9.963293749
9.963293113
9.963292296
9.963290817
9.963290377
9.963287891
9.96330414
9.963305462
9.963306095
9.963306747
9.96330548
9.963304601
9.963304835
9.96330412
9.963304247
9.963304238
9.963304554
9.963304598
9.963303804
9.963302395
9.963312589
9.963312958
9.963313333
9.963313739
9.963313825
9.963313378
9.963314346
9.963314884
9.963314849
9.963314698
9.963313811
9.963314515
9.963313163
9.963309966
9.963296605
9.963297106
9.963296926
9.963298042
9.963298591
9.963298538
9.963298638
9.963297565
9.963298366
9.963298713
9.963298499
9.963297601
9.963293375
9.963282537
9.963291744
9.963291229
9.963290601
9.963289656
9.963288465
9.963288791
9.963289345
9.96329052
9.963291927
9.96329263
9.963291442
9.963289482
9.963279631
9.963243713
9.963273505
9.963273645
9.963273348
9.963272674
9.963272456
9.963272509
9.963272807
9.963273456
9.963274077
9.963273343
9.963272867
9.963267896
9.963248016
9.963161675
9.963300167
9.963299286
9.96329791
9.963297398
9.963296599
9.963297355
9.963298863
9.963299196
9.96330059
9.963299419
9.963298112
9.963296673
9.963288707
9.963253264
9.963281029
9.963281669
9.963282553
9.963280638
9.963279795
9.963279572
9.963280075
9.963280692
9.963280304
9.963281251
9.9632809
9.963279263
9.963276136
9.96326463
9.963240495
9.963297125
9.963297122
9.963297134
9.96329724
9.963296815
9.963297976
9.963298431
9.963298997
9.963298981
9.963299086
9.963300286
9.963300109
9.963298023
9.963294513
9.963286809
9.963291588
9.963292633
9.963293103
9.96329391
9.963293571
9.963294067
9.963292832
9.963293852
9.963293564
9.963292082
9.963292317
9.963292399
9.963291624
9.963290586
9.963288377
9.9632983
9.963298217
9.963297585
9.963296636
9.963296284
9.963295805
9.963296055
9.963295741
9.963295489
9.96329467
9.963295296
9.963294886
9.963296571
9.963296334
9.963260907
9.963259414
9.963260125
9.963261422
9.963261233
9.963259651
9.963260416
9.963259895
9.963260605
9.963261312
9.963261373
9.963260996
9.963260479
9.963257334
9.963216773
9.963217151
9.963215833
9.963215391
9.963216447
9.963216846
9.963215738
9.963216082
9.963216225
9.963216306
9.963216897
9.963215666
9.963213871
9.963210865
9.963271953
9.963271702
9.963270667
9.963270384
9.963270018
9.963270004
9.963270845
9.963270578
9.963269804
9.963269283
9.96326952
9.963268082
9.963263744
9.963253156
9.96332911
9.963328646
9.963329719
9.963328141
9.96332746
9.963328132
9.963327418
9.96332773
9.963328392
9.963328561
9.963327042
9.963325731
9.963319707
9.963299786
9.963271599
9.963271117
9.96326963
9.963268514
9.963270004
9.96327056
9.963270811
9.963272798
9.963273239
9.96327348
9.963273383
9.963273597
9.963270795
9.963258863
9.963266142
9.963266092
9.963266197
9.963267497
9.963268427
9.963269166
9.96326861
9.963266779
9.963267452
9.963268005
9.963266886
9.963265708
9.963264756
9.963260059
9.963275414
9.963275145
9.963274647
9.96327335
9.963273887
9.963274088
9.963273703
9.963274847
9.963275027
9.963274547
9.963275125
9.963275004
9.963273154
9.963270817
9.963269604
9.963262093
9.96326227
9.963261422
9.963262399
9.963262738
9.963263543
9.963263648
9.963263207
9.963263289
9.963263225
9.963262683
9.963262935
9.963262117
9.963261176
9.963259883
9.963234957
9.963235417
9.963235808
9.963234642
9.963235009
9.963236325
9.963235579
9.963235252
9.963234715
9.963234746
9.963234781
9.963233656
9.963234824
9.963234947
9.963291032
9.963289224
9.963289556
9.963291531
9.963292915
9.963294258
9.963293235
9.96329408
9.963292572
9.963291936
9.963292665
9.963293361
9.963292252
9.963292322
9.963288119
9.96328772
9.9632871
9.963286254
9.963286551
9.963286453
9.963287293
9.963288386
9.963288202
9.963288963
9.963289707
9.963289502
9.963289051
9.963286806
9.963264555
9.963264521
9.963265332
9.963265956
9.963265908
9.963264876
9.963265611
9.963266246
9.963264744
9.963264481
9.963264171
9.96326418
9.963262967
9.963261097
9.96327454
9.963274278
9.963273758
9.963271207
9.963272574
9.963271973
9.963272348
9.963270981
9.963271409
9.963270272
9.963269517
9.963269258
9.963267662
9.963263114
9.963277793
9.963276829
9.963277255
9.963278224
9.963277762
9.963278497
9.963279459
9.963278706
9.963279203
9.963279188
9.963278168
9.96327702
9.963274489
9.963270162
9.963267164
9.963267486
9.963267258
9.963267536
9.963266045
9.96326495
9.963264079
9.963264858
9.963265366
9.963265603
9.963266074
9.963264912
9.963263435
9.963263849
9.963275915
9.963275014
9.963274778
9.963276723
9.963276493
9.96327507
9.963275544
9.963274781
9.963274735
9.963274801
9.963275985
9.963275362
9.963275617
9.963273764
9.963252095
9.963252435
9.963252903
9.96325343
9.963253195
9.963252599
9.963252332
9.963253359
9.963252299
9.963251929
9.96325121
9.963251017
9.963250187
9.963249586
9.963250778
9.963289852
9.963290094
9.963291125
9.96329056
9.963291534
9.963291022
9.963291181
9.963291069
9.963291371
9.963291149
9.963291823
9.963291342
9.963292729
9.963292403
9.963268703
9.963268757
9.963267956
9.963266841
9.963265875
9.963265786
9.963265409
9.963265467
9.963265814
9.963265226
9.963264801
9.963265193
9.963265686
9.96326524
9.963294232
9.963293345
9.963294317
9.963293884
9.963294351
9.963294685
9.963294122
9.963294745
9.963293781
9.963293407
9.963293113
9.963292487
9.963292841
9.963292941
9.963242141
9.963242121
9.96324258
9.963241915
9.963242056
9.963243648
9.963243612
9.963243856
9.96324209
9.963242129
9.963242452
9.963242905
9.96324246
9.963241576
9.96327951
9.963279648
9.963279751
9.963281839
9.963281224
9.963280566
9.963279552
9.963279665
9.963279762
9.963280692
9.963280193
9.963279611
9.963278812
9.963277956
9.963220209
9.963219945
9.963219933
9.963219001
9.963218772
9.963219453
9.963219562
9.963219232
9.963219035
9.963217768
9.963216634
9.963216863
9.963216739
9.963215903
9.963277421
9.963278087
9.963277153
9.963277395
9.963276737
9.963276793
9.963276261
9.963275492
9.963277106
9.963277988
9.963278327
9.963277854
9.963277588
9.963275542
9.963307555
9.963306916
9.96330593
9.963305981
9.963306414
9.96330702
9.963307136
9.96330791
9.963306743
9.96330754
9.963306559
9.963304904
9.963303436
9.963303023
9.96328102
9.963281457
9.963281357
9.963281321
9.963281647
9.963281338
9.963282651
9.963281711
9.963282199
9.963282668
9.963282728
9.963283193
9.96328348
9.963283424
)
;

boundaryField
{
    top
    {
        type            calculated;
        value           nonuniform List<scalar> 
134
(
9.963273402
9.963254922
9.963304892
9.963256973
9.963291104
9.963291588
9.963262093
9.963252095
9.96328102
9.963273037
9.96325495
9.963305147
9.963257307
9.963291684
9.963292633
9.96326227
9.963252435
9.963281457
9.963274525
9.963254604
9.963305268
9.963257368
9.963291327
9.963293103
9.963261422
9.963252903
9.963281357
9.963273831
9.963254296
9.963305564
9.963257544
9.963291817
9.96329391
9.963262399
9.96325343
9.963281321
9.963274032
9.963254542
9.96330602
9.963257046
9.963291661
9.963293571
9.963262738
9.963253195
9.963281647
9.963273397
9.963254227
9.963306446
9.963257192
9.963292569
9.963294067
9.963263543
9.963252599
9.963281338
9.963273417
9.963253892
9.963305446
9.963257286
9.963292146
9.963292832
9.963263648
9.963252332
9.963282651
9.963273062
9.963255521
9.96330518
9.963257426
9.963292945
9.963293852
9.963263207
9.963253359
9.963281711
9.963273279
9.963255365
9.963304681
9.963257676
9.963293426
9.963293564
9.963263289
9.963252299
9.963282199
9.963272933
9.963255852
9.963305581
9.963257431
9.963293749
9.963292082
9.963263225
9.963251929
9.963282668
9.963271999
9.963256857
9.963304407
9.96325752
9.963293113
9.963292317
9.963262683
9.96325121
9.963282728
9.963272228
9.963256591
9.963304079
9.963258039
9.963292296
9.963292399
9.963262935
9.963251017
9.963283193
9.963271676
9.96325612
9.963303893
9.963257428
9.963290817
9.963291624
9.963262117
9.963250187
9.96328348
9.963271487
9.963254604
9.963303086
9.963255923
9.963290377
9.963290586
9.963261176
9.963249586
9.963283424
9.963271409
9.963253156
9.963301191
9.963253365
9.963287891
9.963288377
9.963259883
9.963250778
)
;
    }
    bottom
    {
        type            calculated;
        value           nonuniform List<scalar> 
127
(
9.963276752
9.963287094
9.963260559
9.963298665
9.963261203
9.96330414
9.9632983
9.963234957
9.963289852
9.963276768
9.963286912
9.96326086
9.963298525
9.963260743
9.963305462
9.963298217
9.963235417
9.963290094
9.963275826
9.963287624
9.963261994
9.963298998
9.963261566
9.963306095
9.963297585
9.963235808
9.963291125
9.963275553
9.963287478
9.963261872
9.963299042
9.963261442
9.963306747
9.963296636
9.963234642
9.96329056
9.963276527
9.963286889
9.963261774
9.96330024
9.963261069
9.96330548
9.963296284
9.963235009
9.963291534
9.963276615
9.963286667
9.963260942
9.963300675
9.963261244
9.963304601
9.963295805
9.963236325
9.963291022
9.963276912
9.963287363
9.963262031
9.963299942
9.963259805
9.963304835
9.963296055
9.963235579
9.963291181
9.963276826
9.963285885
9.963262477
9.963299894
9.963259388
9.96330412
9.963295741
9.963235252
9.963291069
9.963277147
9.963285049
9.963264127
9.963299689
9.96325937
9.963304247
9.963295489
9.963234715
9.963291371
9.963276693
9.963285602
9.963263399
9.963299408
9.96325943
9.963304238
9.96329467
9.963234746
9.963291149
9.963276715
9.963284952
9.963262831
9.96329909
9.963259732
9.963304554
9.963295296
9.963234781
9.963291823
9.963277812
9.963285195
9.963262019
9.963298529
9.963259358
9.963304598
9.963294886
9.963233656
9.963291342
9.963278995
9.963285367
9.963261583
9.963298113
9.963258511
9.963303804
9.963296571
9.963234824
9.963292729
9.963279149
9.96328471
9.963261016
9.963297649
9.963256787
9.963302395
9.963296334
9.963234947
9.963292403
9.963279295
)
;
    }
    side-walls
    {
        type            calculated;
        value           nonuniform List<scalar> 
261
(
9.963276752
9.963269191
9.96328696
9.963250841
9.963247531
9.963323226
9.963304626
9.963278497
9.963273402
9.963276768
9.963268178
9.963286716
9.963250224
9.963248504
9.963324122
9.96330589
9.96327781
9.963273037
9.963275826
9.963269161
9.963286407
9.96325123
9.963249227
9.963324165
9.963306773
9.963276881
9.963274525
9.963275553
9.963268488
9.963285953
9.963250668
9.963249014
9.96332356
9.963306389
9.963277295
9.963273831
9.963276527
9.963267414
9.963287734
9.963250144
9.963249267
9.963324219
9.963305043
9.963277842
9.963274032
9.963276615
9.963268836
9.963288611
9.963250115
9.963249408
9.963325072
9.963304672
9.96327719
9.963273397
9.963276912
9.963269935
9.963286716
9.963250255
9.963249395
9.963325257
9.963304184
9.963277484
9.963273417
9.963276826
9.963269962
9.963287175
9.963249059
9.963248681
9.963326062
9.963303136
9.963277892
9.963273062
9.963277147
9.963271025
9.963287214
9.963249518
9.96324845
9.963326126
9.963304333
9.963277026
9.963273279
9.963276693
9.963270594
9.963288334
9.96324968
9.963248903
9.963325623
9.963304498
9.963277857
9.963272933
9.963276715
9.963271041
9.96328808
9.963249983
9.963248654
9.963327431
9.96330278
9.963278697
9.963271999
9.963277812
9.963270805
9.963288903
9.963248916
9.963249555
9.963327033
9.963301811
9.963278349
9.963272228
9.963278995
9.963270332
9.963288812
9.96324712
9.963248535
9.963325581
9.963300457
9.963277632
9.963271676
9.963279149
9.963269672
9.963288767
9.963244617
9.963246327
9.963322577
9.963301272
9.963275578
9.963271487
9.963279295
9.963268899
9.963286853
9.963241735
9.963245082
9.963321484
9.963300749
9.963274448
9.963271409
9.963289852
9.963268703
9.963294232
9.963242141
9.96327951
9.963220209
9.963277421
9.963307555
9.96328102
9.963290094
9.963268757
9.963293345
9.963242121
9.963279648
9.963219945
9.963278087
9.963306916
9.963281457
9.963291125
9.963267956
9.963294317
9.96324258
9.963279751
9.963219933
9.963277153
9.96330593
9.963281357
9.96329056
9.963266841
9.963293884
9.963241915
9.963281839
9.963219001
9.963277395
9.963305981
9.963281321
9.963291534
9.963265875
9.963294351
9.963242056
9.963281224
9.963218772
9.963276737
9.963306414
9.963281647
9.963291022
9.963265786
9.963294685
9.963243648
9.963280566
9.963219453
9.963276793
9.96330702
9.963281338
9.963291181
9.963265409
9.963294122
9.963243612
9.963279552
9.963219562
9.963276261
9.963307136
9.963282651
9.963291069
9.963265467
9.963294745
9.963243856
9.963279665
9.963219232
9.963275492
9.96330791
9.963281711
9.963291371
9.963265814
9.963293781
9.96324209
9.963279762
9.963219035
9.963277106
9.963306743
9.963282199
9.963291149
9.963265226
9.963293407
9.963242129
9.963280692
9.963217768
9.963277988
9.96330754
9.963282668
9.963291823
9.963264801
9.963293113
9.963242452
9.963280193
9.963216634
9.963278327
9.963306559
9.963282728
9.963291342
9.963265193
9.963292487
9.963242905
9.963279611
9.963216863
9.963277854
9.963304904
9.963283193
9.963292729
9.963265686
9.963292841
9.96324246
9.963278812
9.963216739
9.963277588
9.963303436
9.96328348
9.963292403
9.96326524
9.963292941
9.963241576
9.963277956
9.963215903
9.963275542
9.963303023
9.963283424
)
;
    }
    inlet
    {
        type            calculated;
        value           nonuniform List<scalar> 
81
(
9.963276752
9.963269191
9.96328696
9.963250841
9.963247531
9.963323226
9.963304626
9.963278497
9.963273402
9.963287094
9.963223942
9.963244401
9.96328456
9.963257212
9.963237558
9.963211924
9.963308085
9.963254922
9.963260559
9.963309161
9.963307597
9.963295523
9.963228523
9.963331349
9.963290179
9.963271357
9.963304892
9.963298665
9.963270854
9.963326281
9.963281837
9.963279759
9.963280838
9.963284043
9.963270784
9.963256973
9.963261203
9.963289006
9.96319486
9.963251122
9.963258436
9.96325571
9.963283373
9.963284454
9.963291104
9.96330414
9.963312589
9.963296605
9.963291744
9.963273505
9.963300167
9.963281029
9.963297125
9.963291588
9.9632983
9.963260907
9.963216773
9.963271953
9.96332911
9.963271599
9.963266142
9.963275414
9.963262093
9.963234957
9.963291032
9.963288119
9.963264555
9.96327454
9.963277793
9.963267164
9.963275915
9.963252095
9.963289852
9.963268703
9.963294232
9.963242141
9.96327951
9.963220209
9.963277421
9.963307555
9.96328102
)
;
    }
    outlet
    {
        type            calculated;
        value           nonuniform 0();
    }
    procBoundary0to1
    {
        type            processor;
        value           nonuniform List<scalar> 
97
(
9.963278519
9.963283488
9.963265641
9.9632838
9.963238192
9.963241059
9.963316131
9.963298665
9.963273166
9.963270229
9.963283488
9.963283488
9.96321691
9.96330593
9.963229569
9.963264981
9.963225998
9.963215456
9.963203564
9.963303861
9.963252566
9.963259247
9.96330593
9.96330593
9.963278824
9.963283391
9.963227422
9.963114957
9.963259972
9.963258292
9.963256327
9.963297987
9.96329546
9.9632596
9.963283391
9.963283391
9.963082571
9.962852743
9.96283271
9.963072897
9.963218739
9.963249702
9.963251393
9.963251782
9.963275756
9.963116963
9.962852743
9.962852743
9.993666665
9.962874958
9.962811061
9.963162946
9.963167822
9.963256517
9.963281576
9.963300989
9.963304179
9.963259532
9.963153333
9.962874958
9.963162946
9.963162946
9.963214016
9.963249462
9.963277731
9.963285755
9.963295012
9.96325559
9.963200612
9.963228818
9.96324833
9.963235196
9.963249462
9.963249462
9.963265087
9.96327223
9.963258461
9.963234339
9.963291289
9.963283349
9.963256701
9.963251238
9.963263334
9.96325947
9.96327223
9.96327223
9.963249333
9.963282431
9.963291828
9.963264704
9.963291856
9.963238404
9.963272326
9.963213558
9.963272675
9.963301174
9.963282431
)
;
    }
}


// ************************************************************************* //
