/*--------------------------------*- C++ -*----------------------------------*\
| =========                 |                                                 |
| \\      /  F ield         | OpenFOAM: The Open Source CFD Toolbox           |
|  \\    /   O peration     | Version:  4.x                                   |
|   \\  /    A nd           | Web:      www.OpenFOAM.org                      |
|    \\/     M anipulation  |                                                 |
\*---------------------------------------------------------------------------*/
FoamFile
{
    version     2.0;
    format      ascii;
    class       volScalarField;
    location    "8000";
    object      rho;
}
// * * * * * * * * * * * * * * * * * * * * * * * * * * * * * * * * * * * * * //

dimensions      [1 -3 0 0 0 0 0];

internalField   nonuniform List<scalar> 
1175
(
0.2777047167
0.2777047201
0.2777047066
0.277704691
0.2777046844
0.2777047057
0.2777047172
0.2777047208
0.2777047046
0.2777047307
0.277704748
0.277704764
0.2777048117
0.2777048574
0.2777049575
0.2777045165
0.2777044938
0.2777045048
0.2777044842
0.2777044869
0.2777045197
0.2777045306
0.2777045185
0.2777045692
0.277704539
0.2777045743
0.2777045642
0.2777046096
0.2777046665
0.2777047827
0.277705013
0.2777050105
0.277704993
0.2777050139
0.2777050107
0.27770504
0.2777050135
0.2777050111
0.2777050003
0.2777050389
0.2777050437
0.2777050659
0.2777051378
0.2777052887
0.2777055581
0.2777040028
0.2777039714
0.2777040047
0.2777039741
0.277704001
0.2777039921
0.2777039888
0.2777039536
0.2777039551
0.2777039792
0.2777039877
0.2777040012
0.277704052
0.2777042653
0.2777047039
0.2777038973
0.2777039239
0.2777039442
0.277703937
0.2777039518
0.277703935
0.2777039483
0.2777039263
0.2777039247
0.2777039557
0.2777039463
0.2777040383
0.2777041486
0.2777044585
0.277705099
0.2777060235
0.2777060163
0.2777060384
0.2777060177
0.277706046
0.2777060642
0.2777060879
0.2777060933
0.2777060989
0.2777061071
0.2777061207
0.2777061625
0.2777062545
0.2777064449
0.2777069196
0.2777054897
0.2777055269
0.2777055677
0.2777055763
0.2777055235
0.2777054965
0.2777055066
0.2777054661
0.277705509
0.2777054859
0.2777054636
0.2777054418
0.2777054863
0.2777056554
0.2777059379
0.2777047646
0.2777047476
0.2777047234
0.2777047396
0.277704723
0.277704727
0.2777047493
0.2777047586
0.2777047433
0.2777047492
0.2777048038
0.2777047695
0.2777048003
0.2777048282
0.2777049441
0.2777046376
0.277704631
0.2777046515
0.2777046448
0.2777046349
0.2777046341
0.2777046245
0.2777046233
0.277704626
0.2777046106
0.2777046041
0.2777046004
0.2777045935
0.2777046502
0.2777047345
0.2777050114
0.2777049985
0.277705016
0.2777050197
0.2777049871
0.277705001
0.2777049985
0.2777049705
0.2777049468
0.2777049668
0.277704949
0.2777049801
0.2777050016
0.2777050881
0.27770324
0.2777032511
0.2777032724
0.2777032637
0.2777032423
0.2777032556
0.2777032338
0.2777032364
0.2777032318
0.277703238
0.2777032411
0.2777032685
0.2777032887
0.2777033943
0.2777036628
0.2777037941
0.2777038429
0.277703835
0.2777037934
0.2777037755
0.277703741
0.2777037494
0.2777037489
0.2777037686
0.277703729
0.277703719
0.2777037727
0.2777039021
0.2777041855
0.2777048301
0.27770495
0.277704928
0.2777049463
0.2777049569
0.2777049322
0.2777049074
0.2777048855
0.2777048806
0.277704906
0.2777049399
0.2777049736
0.2777050337
0.2777052754
0.2777058858
0.2777071919
0.2777041411
0.2777041832
0.2777041663
0.2777041585
0.277704234
0.2777042283
0.277704237
0.277704196
0.2777042104
0.2777042117
0.27770426
0.2777043539
0.2777046872
0.2777056696
0.2777076865
0.2777036145
0.2777036253
0.2777036081
0.277703626
0.2777036462
0.2777036061
0.2777036314
0.2777036263
0.2777036201
0.2777036038
0.2777036208
0.2777036647
0.2777039184
0.2777045369
0.2777058777
0.2777029293
0.2777029128
0.2777029051
0.2777028922
0.2777028813
0.2777028791
0.2777028878
0.2777028787
0.2777028847
0.2777029062
0.2777029335
0.2777030129
0.277703136
0.2777034579
0.2777040687
0.2777055892
0.2777055748
0.2777055893
0.2777055598
0.277705563
0.2777055714
0.2777055681
0.2777055924
0.2777055675
0.2777055755
0.2777055446
0.2777055697
0.277705629
0.2777057845
0.2777061028
0.2777041247
0.2777041389
0.2777041082
0.2777040841
0.2777040925
0.2777040861
0.2777040834
0.2777041358
0.2777041348
0.2777041271
0.2777041452
0.277704181
0.2777042241
0.2777042595
0.2777043631
0.2777042572
0.2777042769
0.2777042874
0.2777042937
0.2777042893
0.2777042904
0.2777042963
0.2777043164
0.277704361
0.2777043543
0.2777043599
0.277704356
0.2777043889
0.2777045177
0.2777056149
0.2777056343
0.277705646
0.2777056744
0.2777056897
0.2777056926
0.2777056735
0.2777056288
0.2777056948
0.2777056517
0.2777056536
0.2777057382
0.2777058843
0.2777062027
0.2777055987
0.2777055897
0.2777055947
0.2777055933
0.2777056079
0.2777055775
0.2777055565
0.2777055678
0.2777055609
0.2777056038
0.2777055875
0.2777057075
0.2777060158
0.277706873
0.2777086241
0.2777052352
0.2777052037
0.2777052162
0.2777052271
0.2777052573
0.2777052713
0.2777052022
0.2777051845
0.2777052188
0.2777052092
0.2777052641
0.2777055178
0.2777062485
0.2777083171
0.2777129242
0.2777033852
0.2777034098
0.2777034303
0.277703441
0.2777034683
0.2777035038
0.2777034842
0.2777034929
0.2777034859
0.2777034867
0.2777035843
0.2777039185
0.2777050628
0.2777089321
0.2777185322
0.2777062452
0.2777062339
0.2777062157
0.2777062426
0.2777062107
0.2777062032
0.2777061858
0.2777061931
0.2777061912
0.2777061838
0.2777062547
0.2777064725
0.2777071946
0.2777092838
0.2777138545
0.2777050951
0.2777051296
0.2777051003
0.277705099
0.2777051111
0.2777050942
0.2777050541
0.2777050511
0.2777050476
0.2777050722
0.2777050869
0.2777051432
0.2777054466
0.2777062948
0.2777080446
0.2777045933
0.2777045587
0.2777044869
0.2777044776
0.2777044714
0.2777044784
0.2777044733
0.2777045184
0.2777044857
0.2777044802
0.2777044814
0.2777045591
0.277704681
0.2777049716
0.2777056233
0.2777055027
0.2777055216
0.2777055016
0.2777055319
0.2777055602
0.2777055444
0.2777055318
0.2777055282
0.2777055162
0.2777055217
0.2777055136
0.2777055378
0.2777055779
0.2777057185
0.2777059787
0.2777053111
0.27770534
0.2777053586
0.2777053562
0.277705393
0.2777053826
0.2777053547
0.2777053711
0.2777053757
0.277705373
0.2777053624
0.2777053887
0.277705488
0.2777057446
0.2777045415
0.2777045739
0.2777045564
0.2777045972
0.2777045559
0.2777045896
0.2777045819
0.277704602
0.2777045968
0.2777045897
0.2777046051
0.2777046516
0.2777048823
0.2777055374
0.2777061232
0.2777061021
0.2777060898
0.2777060985
0.2777060741
0.2777060467
0.2777060429
0.277706041
0.2777060029
0.277706041
0.2777061113
0.2777062963
0.2777070161
0.2777090999
0.2777048737
0.2777049022
0.2777048861
0.2777048963
0.2777049145
0.2777049073
0.2777049754
0.2777049361
0.2777049125
0.2777049273
0.2777050745
0.2777055992
0.2777074974
0.2777141625
0.2777311528
0.2777047684
0.2777047387
0.2777047639
0.2777047806
0.2777047348
0.2777047944
0.2777047766
0.2777047861
0.2777047763
0.2777048318
0.2777049869
0.2777057834
0.277709577
0.2777259639
0.2777832026
0.2777048351
0.2777048605
0.2777048293
0.2777048206
0.2777048171
0.2777047778
0.2777047618
0.2777047569
0.2777047246
0.2777047621
0.2777048348
0.2777053463
0.2777072671
0.2777139476
0.2777308592
0.2777049105
0.2777049388
0.2777049242
0.277704911
0.2777049224
0.2777049183
0.2777049164
0.2777049254
0.2777049284
0.2777049417
0.2777050214
0.2777051916
0.2777059247
0.2777080637
0.2777126654
0.2777045756
0.2777045774
0.277704581
0.2777045665
0.2777045699
0.2777045837
0.2777045733
0.277704568
0.2777045806
0.2777046094
0.2777046214
0.2777046996
0.2777049394
0.2777055761
0.2777068613
0.277704157
0.2777041857
0.2777041862
0.277704169
0.2777041694
0.2777041807
0.2777041921
0.2777041722
0.2777041945
0.2777041636
0.2777041937
0.2777042442
0.2777043487
0.2777045613
0.2777050462
0.2777042768
0.2777042712
0.2777042635
0.2777042774
0.2777042797
0.2777042823
0.2777042397
0.2777042326
0.2777042069
0.2777042432
0.2777042621
0.2777043029
0.2777044341
0.2777047445
0.2777050615
0.2777050767
0.2777050909
0.2777050802
0.2777050606
0.2777050997
0.2777050999
0.2777050855
0.2777051132
0.2777051428
0.2777052031
0.2777053378
0.277705654
0.2777066283
0.2777024454
0.2777024399
0.277702461
0.2777024741
0.2777024456
0.277702465
0.2777024973
0.2777024593
0.2777023932
0.2777024422
0.2777025095
0.2777028546
0.2777040184
0.277707932
0.2777040167
0.2777040024
0.2777040466
0.2777040159
0.2777040138
0.2777040015
0.2777040049
0.2777040373
0.2777040487
0.2777040952
0.2777042438
0.2777050487
0.2777088507
0.2777252946
0.2777041944
0.2777042147
0.277704226
0.2777042137
0.2777042108
0.2777042234
0.2777042532
0.2777042141
0.2777042275
0.2777042561
0.2777045327
0.2777061068
0.2777155252
0.2777768961
0.2791015502
0.2777041598
0.2777041514
0.2777041452
0.2777040956
0.2777040951
0.2777040723
0.2777041346
0.2777041341
0.2777041293
0.2777041887
0.2777043958
0.2777051794
0.27770895
0.2777253621
0.2777826043
0.2777048883
0.277704921
0.2777049314
0.2777049661
0.2777049847
0.2777049818
0.2777049405
0.2777049086
0.277704906
0.277704923
0.2777050228
0.2777053291
0.2777064861
0.2777103819
0.2777199789
0.2777049283
0.2777049573
0.2777049476
0.2777049456
0.277704938
0.2777049361
0.2777049559
0.27770495
0.2777049431
0.2777049742
0.2777049918
0.2777051646
0.2777055203
0.2777064601
0.2777085214
0.2777051204
0.2777051389
0.2777051467
0.2777051439
0.2777051474
0.2777051544
0.2777051665
0.2777051639
0.2777051946
0.2777051997
0.2777052068
0.2777052082
0.2777053411
0.2777056638
0.2777062823
0.2777055005
0.2777055277
0.2777055198
0.2777055515
0.277705515
0.2777054978
0.2777055015
0.277705492
0.2777054852
0.2777054851
0.277705505
0.2777055573
0.2777056736
0.2777058693
0.2777057269
0.2777057252
0.2777057224
0.2777057461
0.277705737
0.2777057524
0.2777057586
0.2777057718
0.277705813
0.2777057922
0.2777057987
0.2777059194
0.2777061541
0.2777067838
0.2777052718
0.2777052544
0.2777052825
0.2777053146
0.2777053118
0.2777053274
0.2777052908
0.2777053018
0.2777053176
0.277705339
0.2777054156
0.2777055969
0.2777063347
0.2777084757
0.2777051297
0.2777051333
0.277705096
0.2777050691
0.2777050479
0.2777050737
0.2777050601
0.2777050681
0.277705147
0.2777051956
0.2777052909
0.277705805
0.2777077205
0.2777143884
0.27770461
0.277704626
0.277704607
0.2777046045
0.2777046053
0.2777046414
0.2777046196
0.2777046242
0.2777046512
0.2777046666
0.2777048806
0.2777056773
0.2777094417
0.2777258817
0.2777053654
0.2777053455
0.2777053263
0.2777053001
0.2777052719
0.2777052996
0.2777053085
0.2777053414
0.2777053941
0.2777053977
0.2777055016
0.2777060225
0.2777079806
0.277714687
0.2777048545
0.2777048642
0.2777048631
0.2777048503
0.2777048214
0.277704829
0.2777048327
0.2777048244
0.2777048384
0.2777048585
0.2777049155
0.277705097
0.2777058765
0.2777079509
0.2777125114
0.2777052742
0.2777053077
0.2777053036
0.277705305
0.2777052891
0.2777053094
0.277705334
0.2777053498
0.2777053057
0.2777053492
0.2777054055
0.2777055107
0.2777057244
0.2777063345
0.277707635
0.2777051379
0.2777051461
0.2777051519
0.2777051826
0.2777051855
0.2777051838
0.2777051778
0.2777052139
0.2777051724
0.2777051579
0.2777051804
0.277705222
0.2777053297
0.2777055374
0.2777060211
0.277705299
0.2777053104
0.2777052934
0.2777053114
0.277705271
0.2777052404
0.2777052509
0.277705252
0.27770523
0.2777052537
0.2777052566
0.2777052738
0.2777053521
0.2777054968
0.2777042791
0.2777042409
0.2777042255
0.2777042509
0.2777042979
0.2777042607
0.2777042775
0.2777042846
0.277704296
0.2777043023
0.2777042995
0.2777043594
0.277704461
0.2777047727
0.2777030518
0.2777030524
0.277703021
0.2777030041
0.2777030091
0.277703045
0.2777030488
0.2777030683
0.2777030569
0.2777030374
0.2777030847
0.2777031945
0.2777035111
0.2777043821
0.2777045533
0.2777045579
0.2777045371
0.2777045456
0.2777045369
0.2777045348
0.2777045304
0.2777045325
0.2777044995
0.2777045154
0.2777046084
0.2777048259
0.2777055414
0.2777076325
0.2777061775
0.2777061514
0.277706206
0.2777061616
0.277706139
0.2777061406
0.2777061286
0.2777061511
0.27770617
0.2777062097
0.2777062318
0.2777065788
0.277707707
0.2777115972
0.2777045802
0.277704552
0.277704523
0.2777044901
0.277704514
0.2777045133
0.2777045691
0.277704593
0.2777046276
0.2777046638
0.2777047135
0.277704945
0.2777056906
0.2777077413
0.2777044249
0.2777044577
0.2777044448
0.2777044731
0.2777044896
0.2777045258
0.2777045126
0.277704436
0.2777044543
0.2777044879
0.2777044934
0.2777045816
0.277704913
0.2777057465
0.2777046592
0.277704647
0.2777046395
0.2777046219
0.2777046391
0.2777046429
0.2777046475
0.2777046879
0.2777046878
0.2777046922
0.2777046868
0.2777047248
0.2777048067
0.2777051488
0.2777057733
0.2777043145
0.2777043034
0.2777043131
0.27770431
0.2777043282
0.2777043414
0.2777043695
0.2777043307
0.2777043347
0.2777043215
0.2777043508
0.2777043694
0.2777044196
0.277704541
0.2777048057
0.2777035632
0.2777035743
0.2777035716
0.2777035593
0.2777035566
0.2777035783
0.2777035649
0.2777035473
0.2777035584
0.2777035462
0.2777035604
0.2777035487
0.2777036278
0.2777037002
0.277705108
0.2777050733
0.2777051173
0.2777051102
0.277705154
0.2777052021
0.2777052132
0.2777051971
0.2777052155
0.2777051684
0.2777051819
0.2777052304
0.2777052506
0.2777054092
0.2777050445
0.2777050176
0.2777049938
0.2777050193
0.2777049928
0.2777050114
0.2777050154
0.2777050652
0.2777050267
0.2777050683
0.2777050847
0.2777051415
0.2777052821
0.2777056288
0.2777043791
0.2777043852
0.277704418
0.2777043861
0.2777044079
0.2777044264
0.2777043884
0.2777044325
0.2777044041
0.277704388
0.2777044227
0.2777044872
0.2777047429
0.2777054234
0.2777046699
0.2777046615
0.2777046421
0.2777046099
0.2777046167
0.2777045872
0.2777046257
0.2777045508
0.2777045612
0.2777045548
0.2777045529
0.2777046827
0.2777050323
0.2777060034
0.2777047514
0.2777047233
0.277704719
0.2777047485
0.2777047531
0.2777047718
0.2777047759
0.2777047703
0.2777047832
0.2777047914
0.2777047884
0.2777048848
0.2777050616
0.2777056579
0.2777044697
0.2777044485
0.2777044557
0.2777044649
0.2777044173
0.2777043999
0.2777043719
0.2777043795
0.2777044121
0.2777044359
0.2777044414
0.2777044699
0.2777045801
0.2777049229
0.2777046876
0.2777047017
0.2777047174
0.2777047051
0.27770472
0.2777046947
0.2777047039
0.2777046779
0.2777046881
0.2777046393
0.2777047217
0.27770473
0.277704778
0.2777049031
0.2777040295
0.2777040746
0.2777040622
0.2777040475
0.2777040633
0.2777040427
0.2777040499
0.2777040595
0.2777040544
0.2777040302
0.2777040196
0.2777040342
0.2777040493
0.2777041068
0.2777042549
0.2777050801
0.2777050851
0.2777051059
0.2777050738
0.2777051176
0.2777051095
0.2777051145
0.2777050985
0.2777051255
0.2777051194
0.2777051376
0.2777051474
0.2777051868
0.2777052188
0.2777045
0.2777045005
0.2777044673
0.2777044466
0.2777044123
0.2777044131
0.2777044139
0.2777044209
0.2777043991
0.2777043948
0.2777044103
0.2777044009
0.2777044776
0.2777045493
0.2777052037
0.2777052142
0.2777051958
0.2777052019
0.2777052202
0.2777052372
0.2777052244
0.2777052133
0.2777051859
0.2777051734
0.2777051825
0.2777052125
0.2777052659
0.2777054064
0.2777037321
0.2777037784
0.2777037581
0.277703769
0.2777037517
0.2777037741
0.2777038167
0.2777038132
0.2777037766
0.2777037771
0.2777037622
0.2777038389
0.2777039319
0.2777041648
0.2777047988
0.2777048102
0.2777048083
0.2777048481
0.2777048535
0.277704807
0.2777047892
0.2777047892
0.2777047908
0.2777048271
0.2777048152
0.2777048657
0.2777049996
0.2777053226
0.2777031285
0.277703153
0.2777031372
0.2777031239
0.2777031545
0.2777031211
0.2777031368
0.2777031363
0.2777031019
0.2777030861
0.2777030646
0.277703105
0.2777032092
0.2777034517
0.277704725
0.2777047425
0.2777047539
0.2777047311
0.2777047029
0.2777047115
0.2777047141
0.277704684
0.2777047492
0.2777047485
0.2777047772
0.277704798
0.2777048252
0.2777049256
0.2777055799
0.2777055317
0.2777055155
0.2777055486
0.2777055517
0.2777055563
0.2777055625
0.2777055745
0.2777055741
0.2777055747
0.2777055569
0.2777055054
0.2777055258
0.2777055829
0.2777048553
0.2777048566
0.2777048647
0.2777048507
0.2777048422
0.2777048249
0.2777048835
0.2777048671
0.2777048597
0.2777048811
0.2777049065
0.2777049091
0.2777049341
0.2777049745
)
;

boundaryField
{
    top
    {
        type            calculated;
        value           nonuniform List<scalar> 
134
(
0.2777046376
0.2777041247
0.2777055027
0.277704157
0.2777051204
0.2777051379
0.2777043145
0.2777040295
0.2777048553
0.277704631
0.2777041389
0.2777055216
0.2777041857
0.2777051389
0.2777051461
0.2777043034
0.2777040746
0.2777048566
0.2777046515
0.2777041082
0.2777055016
0.2777041862
0.2777051467
0.2777051519
0.2777043131
0.2777040622
0.2777048647
0.2777046448
0.2777040841
0.2777055319
0.277704169
0.2777051439
0.2777051826
0.27770431
0.2777040475
0.2777048507
0.2777046349
0.2777040925
0.2777055602
0.2777041694
0.2777051474
0.2777051855
0.2777043282
0.2777040633
0.2777048422
0.2777046341
0.2777040861
0.2777055444
0.2777041807
0.2777051544
0.2777051838
0.2777043414
0.2777040427
0.2777048249
0.2777046245
0.2777040834
0.2777055318
0.2777041921
0.2777051665
0.2777051778
0.2777043695
0.2777040499
0.2777048835
0.2777046233
0.2777041358
0.2777055282
0.2777041722
0.2777051639
0.2777052139
0.2777043307
0.2777040595
0.2777048671
0.277704626
0.2777041348
0.2777055162
0.2777041945
0.2777051946
0.2777051724
0.2777043347
0.2777040544
0.2777048597
0.2777046106
0.2777041271
0.2777055217
0.2777041636
0.2777051997
0.2777051579
0.2777043215
0.2777040302
0.2777048811
0.2777046041
0.2777041452
0.2777055136
0.2777041937
0.2777052068
0.2777051804
0.2777043508
0.2777040196
0.2777049065
0.2777046004
0.277704181
0.2777055378
0.2777042442
0.2777052082
0.277705222
0.2777043694
0.2777040342
0.2777049091
0.2777045935
0.2777042241
0.2777055779
0.2777043487
0.2777053411
0.2777053297
0.2777044196
0.2777040493
0.2777049341
0.2777046502
0.2777042595
0.2777057185
0.2777045613
0.2777056638
0.2777055374
0.277704541
0.2777041068
0.2777049745
0.2777047345
0.2777043631
0.2777059787
0.2777050462
0.2777062823
0.2777060211
0.2777048057
0.2777042549
)
;
    }
    bottom
    {
        type            calculated;
        value           nonuniform List<scalar> 
127
(
0.2777047167
0.2777050114
0.2777042572
0.2777053111
0.2777042768
0.2777055005
0.277705299
0.2777035632
0.2777050801
0.2777047201
0.2777049985
0.2777042769
0.27770534
0.2777042712
0.2777055277
0.2777053104
0.2777035743
0.2777050851
0.2777047066
0.277705016
0.2777042874
0.2777053586
0.2777042635
0.2777055198
0.2777052934
0.2777035716
0.2777051059
0.277704691
0.2777050197
0.2777042937
0.2777053562
0.2777042774
0.2777055515
0.2777053114
0.2777035593
0.2777050738
0.2777046844
0.2777049871
0.2777042893
0.277705393
0.2777042797
0.277705515
0.277705271
0.2777035566
0.2777051176
0.2777047057
0.277705001
0.2777042904
0.2777053826
0.2777042823
0.2777054978
0.2777052404
0.2777035783
0.2777051095
0.2777047172
0.2777049985
0.2777042963
0.2777053547
0.2777042397
0.2777055015
0.2777052509
0.2777035649
0.2777051145
0.2777047208
0.2777049705
0.2777043164
0.2777053711
0.2777042326
0.277705492
0.277705252
0.2777035473
0.2777050985
0.2777047046
0.2777049468
0.277704361
0.2777053757
0.2777042069
0.2777054852
0.27770523
0.2777035584
0.2777051255
0.2777047307
0.2777049668
0.2777043543
0.277705373
0.2777042432
0.2777054851
0.2777052537
0.2777035462
0.2777051194
0.277704748
0.277704949
0.2777043599
0.2777053624
0.2777042621
0.277705505
0.2777052566
0.2777035604
0.2777051376
0.277704764
0.2777049801
0.277704356
0.2777053887
0.2777043029
0.2777055573
0.2777052738
0.2777035487
0.2777051474
0.2777048117
0.2777050016
0.2777043889
0.277705488
0.2777044341
0.2777056736
0.2777053521
0.2777036278
0.2777051868
0.2777048574
0.2777050881
0.2777045177
0.2777057446
0.2777047445
0.2777058693
0.2777054968
0.2777037002
0.2777052188
0.2777049575
)
;
    }
    side-walls
    {
        type            calculated;
        value           nonuniform List<scalar> 
261
(
0.2777047167
0.2777045165
0.277705013
0.2777040028
0.2777038973
0.2777060235
0.2777054897
0.2777047646
0.2777046376
0.2777047201
0.2777044938
0.2777050105
0.2777039714
0.2777039239
0.2777060163
0.2777055269
0.2777047476
0.277704631
0.2777047066
0.2777045048
0.277704993
0.2777040047
0.2777039442
0.2777060384
0.2777055677
0.2777047234
0.2777046515
0.277704691
0.2777044842
0.2777050139
0.2777039741
0.277703937
0.2777060177
0.2777055763
0.2777047396
0.2777046448
0.2777046844
0.2777044869
0.2777050107
0.277704001
0.2777039518
0.277706046
0.2777055235
0.277704723
0.2777046349
0.2777047057
0.2777045197
0.27770504
0.2777039921
0.277703935
0.2777060642
0.2777054965
0.277704727
0.2777046341
0.2777047172
0.2777045306
0.2777050135
0.2777039888
0.2777039483
0.2777060879
0.2777055066
0.2777047493
0.2777046245
0.2777047208
0.2777045185
0.2777050111
0.2777039536
0.2777039263
0.2777060933
0.2777054661
0.2777047586
0.2777046233
0.2777047046
0.2777045692
0.2777050003
0.2777039551
0.2777039247
0.2777060989
0.277705509
0.2777047433
0.277704626
0.2777047307
0.277704539
0.2777050389
0.2777039792
0.2777039557
0.2777061071
0.2777054859
0.2777047492
0.2777046106
0.277704748
0.2777045743
0.2777050437
0.2777039877
0.2777039463
0.2777061207
0.2777054636
0.2777048038
0.2777046041
0.277704764
0.2777045642
0.2777050659
0.2777040012
0.2777040383
0.2777061625
0.2777054418
0.2777047695
0.2777046004
0.2777048117
0.2777046096
0.2777051378
0.277704052
0.2777041486
0.2777062545
0.2777054863
0.2777048003
0.2777045935
0.2777048574
0.2777046665
0.2777052887
0.2777042653
0.2777044585
0.2777064449
0.2777056554
0.2777048282
0.2777046502
0.2777049575
0.2777047827
0.2777055581
0.2777047039
0.277705099
0.2777069196
0.2777059379
0.2777049441
0.2777047345
0.2777050801
0.2777045
0.2777052037
0.2777037321
0.2777047988
0.2777031285
0.277704725
0.2777055799
0.2777048553
0.2777050851
0.2777045005
0.2777052142
0.2777037784
0.2777048102
0.277703153
0.2777047425
0.2777055317
0.2777048566
0.2777051059
0.2777044673
0.2777051958
0.2777037581
0.2777048083
0.2777031372
0.2777047539
0.2777055155
0.2777048647
0.2777050738
0.2777044466
0.2777052019
0.277703769
0.2777048481
0.2777031239
0.2777047311
0.2777055486
0.2777048507
0.2777051176
0.2777044123
0.2777052202
0.2777037517
0.2777048535
0.2777031545
0.2777047029
0.2777055517
0.2777048422
0.2777051095
0.2777044131
0.2777052372
0.2777037741
0.277704807
0.2777031211
0.2777047115
0.2777055563
0.2777048249
0.2777051145
0.2777044139
0.2777052244
0.2777038167
0.2777047892
0.2777031368
0.2777047141
0.2777055625
0.2777048835
0.2777050985
0.2777044209
0.2777052133
0.2777038132
0.2777047892
0.2777031363
0.277704684
0.2777055745
0.2777048671
0.2777051255
0.2777043991
0.2777051859
0.2777037766
0.2777047908
0.2777031019
0.2777047492
0.2777055741
0.2777048597
0.2777051194
0.2777043948
0.2777051734
0.2777037771
0.2777048271
0.2777030861
0.2777047485
0.2777055747
0.2777048811
0.2777051376
0.2777044103
0.2777051825
0.2777037622
0.2777048152
0.2777030646
0.2777047772
0.2777055569
0.2777049065
0.2777051474
0.2777044009
0.2777052125
0.2777038389
0.2777048657
0.277703105
0.277704798
0.2777055054
0.2777049091
0.2777051868
0.2777044776
0.2777052659
0.2777039319
0.2777049996
0.2777032092
0.2777048252
0.2777055258
0.2777049341
0.2777052188
0.2777045493
0.2777054064
0.2777041648
0.2777053226
0.2777034517
0.2777049256
0.2777055829
0.2777049745
)
;
    }
    inlet
    {
        type            calculated;
        value           nonuniform List<scalar> 
81
(
0.2777047167
0.2777045165
0.277705013
0.2777040028
0.2777038973
0.2777060235
0.2777054897
0.2777047646
0.2777046376
0.2777050114
0.27770324
0.2777037941
0.27770495
0.2777041411
0.2777036145
0.2777029293
0.2777055892
0.2777041247
0.2777042572
0.2777056149
0.2777055987
0.2777052352
0.2777033852
0.2777062452
0.2777050951
0.2777045933
0.2777055027
0.2777053111
0.2777045415
0.2777061232
0.2777048737
0.2777047684
0.2777048351
0.2777049105
0.2777045756
0.277704157
0.2777042768
0.2777050615
0.2777024454
0.2777040167
0.2777041944
0.2777041598
0.2777048883
0.2777049283
0.2777051204
0.2777055005
0.2777057269
0.2777052718
0.2777051297
0.27770461
0.2777053654
0.2777048545
0.2777052742
0.2777051379
0.277705299
0.2777042791
0.2777030518
0.2777045533
0.2777061775
0.2777045802
0.2777044249
0.2777046592
0.2777043145
0.2777035632
0.277705108
0.2777050445
0.2777043791
0.2777046699
0.2777047514
0.2777044697
0.2777046876
0.2777040295
0.2777050801
0.2777045
0.2777052037
0.2777037321
0.2777047988
0.2777031285
0.277704725
0.2777055799
0.2777048553
)
;
    }
    outlet
    {
        type            calculated;
        value           nonuniform 0();
    }
    procBoundary0to1
    {
        type            processor;
        value           nonuniform List<scalar> 
97
(
0.2777050834
0.2777051981
0.2777049813
0.2777059511
0.2777054523
0.2777060315
0.2777076243
0.2777063648
0.2777051753
0.2777048615
0.2777051981
0.2777051981
0.2777041034
0.2777068282
0.2777057533
0.2777090034
0.2777100834
0.277707628
0.2777050265
0.2777065458
0.2777045769
0.2777047999
0.2777068282
0.2777068282
0.2777109436
0.2777137481
0.2777178486
0.2777257063
0.2777187736
0.2777103524
0.2777064833
0.2777063558
0.2777062203
0.2777068416
0.2777137481
0.2777137481
0.2777425844
0.2777825123
0.2777918482
0.2777423042
0.2777176439
0.2777085871
0.2777057907
0.2777052808
0.2777086608
0.2777175509
0.2777825123
0.2777825123
0.2788944608
0.2777831106
0.277791243
0.2777316482
0.2777271816
0.27771094
0.2777071707
0.2777063382
0.2777080731
0.2777130315
0.2777313739
0.2777831106
0.2777316482
0.2777316482
0.2777174787
0.2777074464
0.2777093531
0.2777067443
0.277705778
0.2777054019
0.2777060698
0.2777121791
0.2777211636
0.277712386
0.2777074464
0.2777074464
0.2777067184
0.277705151
0.2777052734
0.2777038627
0.2777056612
0.2777061907
0.2777067766
0.2777080098
0.2777069479
0.2777055397
0.277705151
0.277705151
0.2777045107
0.2777050616
0.277705314
0.2777046794
0.2777057036
0.2777046228
0.2777058909
0.2777039328
0.2777051314
0.277705691
0.2777050616
)
;
    }
}


// ************************************************************************* //
