/*--------------------------------*- C++ -*----------------------------------*\
| =========                 |                                                 |
| \\      /  F ield         | OpenFOAM: The Open Source CFD Toolbox           |
|  \\    /   O peration     | Version:  4.x                                   |
|   \\  /    A nd           | Web:      www.OpenFOAM.org                      |
|    \\/     M anipulation  |                                                 |
\*---------------------------------------------------------------------------*/
FoamFile
{
    version     2.0;
    format      ascii;
    class       volScalarField;
    location    "8000";
    object      T;
}
// * * * * * * * * * * * * * * * * * * * * * * * * * * * * * * * * * * * * * //

dimensions      [0 0 0 1 0 0 0];

internalField   nonuniform List<scalar> 
1175
(
1223.150363
1223.150348
1223.150408
1223.150476
1223.150505
1223.150412
1223.150361
1223.150346
1223.150419
1223.150309
1223.150247
1223.150214
1223.150095
1223.150095
1223.150049
1223.151245
1223.151345
1223.151296
1223.151387
1223.151375
1223.151231
1223.151183
1223.151237
1223.151016
1223.151157
1223.151024
1223.151129
1223.151083
1223.15118
1223.151351
1223.149058
1223.149069
1223.149146
1223.149054
1223.149068
1223.148939
1223.149056
1223.149068
1223.149119
1223.148962
1223.148979
1223.148992
1223.148968
1223.14898
1223.149127
1223.153507
1223.153646
1223.153499
1223.153634
1223.153515
1223.153555
1223.15357
1223.153726
1223.153725
1223.153637
1223.153659
1223.153778
1223.154043
1223.154278
1223.154674
1223.153972
1223.153855
1223.153765
1223.153797
1223.153732
1223.153806
1223.153748
1223.153847
1223.15386
1223.153745
1223.153857
1223.153672
1223.15381
1223.15399
1223.154271
1223.144607
1223.144639
1223.144542
1223.144633
1223.144508
1223.144428
1223.144324
1223.144302
1223.144283
1223.144265
1223.144264
1223.144258
1223.144342
1223.144677
1223.144915
1223.146958
1223.146795
1223.146615
1223.146577
1223.14681
1223.146929
1223.146884
1223.147064
1223.146879
1223.146993
1223.14713
1223.147337
1223.147432
1223.147365
1223.147454
1223.150152
1223.150227
1223.150333
1223.150262
1223.150335
1223.150318
1223.15022
1223.15018
1223.150249
1223.150231
1223.150013
1223.150225
1223.150243
1223.150468
1223.15064
1223.150712
1223.15074
1223.15065
1223.15068
1223.150723
1223.150727
1223.150769
1223.150775
1223.150765
1223.150838
1223.150881
1223.150934
1223.151056
1223.151007
1223.151031
1223.149065
1223.149122
1223.149045
1223.149029
1223.149172
1223.149111
1223.149122
1223.149246
1223.149353
1223.149273
1223.149373
1223.149297
1223.149357
1223.149323
1223.156867
1223.156818
1223.156725
1223.156763
1223.156857
1223.156799
1223.156895
1223.156885
1223.156909
1223.156893
1223.156918
1223.156908
1223.157113
1223.157335
1223.157505
1223.154427
1223.154212
1223.154247
1223.15443
1223.154509
1223.154661
1223.154624
1223.154628
1223.154548
1223.154744
1223.154861
1223.154851
1223.154919
1223.155234
1223.155507
1223.149335
1223.149433
1223.149352
1223.149305
1223.149414
1223.149523
1223.14962
1223.149645
1223.149542
1223.149427
1223.149401
1223.149542
1223.149701
1223.150201
1223.150952
1223.152899
1223.152713
1223.152787
1223.152822
1223.152489
1223.152515
1223.152477
1223.152661
1223.152608
1223.152645
1223.152587
1223.152713
1223.152976
1223.153466
1223.154865
1223.155218
1223.15517
1223.155246
1223.155167
1223.155078
1223.155255
1223.155144
1223.155169
1223.155206
1223.155312
1223.15536
1223.155572
1223.155679
1223.156142
1223.156741
1223.158236
1223.158308
1223.158343
1223.158399
1223.158447
1223.158457
1223.158419
1223.158461
1223.158441
1223.158368
1223.158321
1223.158197
1223.158294
1223.158438
1223.158861
1223.14652
1223.146584
1223.14652
1223.14665
1223.146636
1223.146599
1223.146614
1223.146508
1223.146621
1223.146598
1223.146772
1223.146772
1223.146805
1223.146807
1223.146758
1223.152971
1223.152908
1223.153043
1223.15315
1223.153113
1223.153141
1223.153153
1223.152923
1223.15293
1223.152971
1223.152914
1223.152817
1223.152781
1223.152973
1223.153199
1223.152387
1223.1523
1223.152254
1223.152226
1223.152246
1223.152241
1223.152215
1223.152128
1223.151935
1223.151977
1223.151991
1223.152119
1223.152266
1223.152376
1223.146407
1223.146322
1223.14627
1223.146145
1223.146078
1223.146065
1223.14615
1223.146348
1223.146064
1223.146275
1223.14634
1223.146194
1223.146189
1223.146349
1223.146478
1223.146518
1223.146496
1223.146502
1223.146438
1223.146572
1223.146665
1223.146618
1223.14666
1223.146514
1223.146741
1223.146738
1223.146993
1223.147478
1223.148496
1223.148079
1223.148218
1223.148163
1223.148115
1223.147982
1223.147921
1223.148226
1223.148309
1223.148176
1223.148292
1223.148338
1223.148286
1223.14869
1223.150179
1223.153065
1223.156228
1223.156119
1223.156029
1223.155982
1223.155862
1223.155706
1223.155793
1223.15576
1223.155813
1223.155904
1223.155865
1223.155958
1223.156804
1223.159315
1223.165529
1223.143631
1223.143681
1223.143761
1223.143642
1223.143783
1223.143816
1223.143894
1223.143866
1223.143893
1223.143999
1223.143975
1223.14408
1223.144523
1223.145921
1223.148967
1223.148696
1223.148544
1223.148674
1223.148679
1223.148626
1223.1487
1223.148878
1223.148894
1223.148921
1223.148856
1223.148946
1223.149223
1223.149501
1223.150025
1223.151048
1223.150907
1223.151059
1223.151375
1223.151416
1223.151444
1223.151413
1223.151436
1223.151239
1223.151389
1223.151435
1223.151503
1223.151387
1223.151489
1223.151771
1223.152013
1223.146901
1223.146818
1223.146906
1223.146773
1223.146648
1223.146717
1223.146773
1223.146791
1223.146847
1223.146835
1223.14691
1223.146914
1223.147029
1223.147087
1223.147274
1223.147745
1223.147618
1223.147536
1223.147547
1223.147384
1223.14743
1223.147554
1223.147483
1223.147468
1223.147498
1223.147604
1223.147667
1223.147718
1223.147762
1223.151135
1223.150992
1223.151069
1223.15089
1223.151071
1223.150923
1223.150958
1223.150872
1223.150904
1223.15097
1223.151024
1223.151225
1223.151433
1223.151735
1223.144168
1223.144261
1223.144315
1223.144277
1223.144385
1223.144506
1223.144523
1223.144536
1223.144722
1223.144628
1223.144606
1223.144857
1223.145309
1223.146731
1223.149672
1223.149546
1223.149617
1223.149572
1223.149492
1223.149524
1223.149226
1223.149406
1223.149541
1223.149612
1223.149554
1223.149717
1223.151096
1223.155444
1223.166486
1223.150135
1223.150266
1223.150155
1223.150082
1223.150284
1223.150021
1223.150102
1223.150069
1223.150152
1223.150092
1223.150283
1223.150896
1223.153303
1223.164185
1223.199424
1223.149842
1223.14973
1223.149867
1223.149906
1223.149921
1223.150094
1223.150167
1223.150195
1223.150369
1223.15034
1223.15061
1223.150831
1223.15211
1223.15639
1223.167779
1223.149509
1223.149385
1223.149449
1223.149507
1223.149457
1223.149475
1223.149485
1223.14945
1223.149455
1223.14947
1223.149406
1223.149722
1223.150116
1223.151295
1223.154205
1223.150985
1223.150977
1223.150961
1223.151025
1223.15101
1223.150949
1223.150996
1223.151022
1223.150975
1223.150883
1223.150953
1223.151014
1223.151182
1223.151565
1223.152408
1223.152829
1223.152702
1223.1527
1223.152776
1223.152774
1223.152724
1223.152674
1223.152763
1223.152671
1223.152825
1223.152751
1223.152707
1223.152736
1223.152974
1223.153166
1223.152301
1223.152325
1223.152359
1223.152298
1223.152288
1223.152276
1223.152465
1223.152498
1223.152617
1223.152478
1223.152466
1223.152507
1223.152553
1223.15273
1223.148844
1223.148777
1223.148715
1223.148762
1223.148848
1223.148676
1223.148676
1223.148743
1223.148632
1223.148543
1223.148433
1223.148379
1223.148717
1223.149243
1223.160367
1223.160391
1223.160299
1223.160241
1223.160366
1223.160281
1223.16014
1223.160313
1223.160627
1223.160505
1223.1606
1223.160644
1223.161404
1223.16372
1223.153446
1223.153509
1223.153314
1223.15345
1223.153459
1223.153514
1223.153501
1223.153367
1223.153356
1223.153336
1223.153556
1223.154132
1223.156502
1223.167133
1223.152664
1223.152574
1223.152524
1223.152579
1223.152591
1223.152537
1223.152408
1223.15259
1223.152584
1223.152723
1223.152916
1223.153929
1223.160297
1223.200202
1219.562579
1223.152816
1223.152853
1223.15288
1223.153099
1223.153101
1223.153202
1223.15293
1223.15294
1223.153001
1223.152925
1223.152886
1223.153556
1223.156064
1223.166835
1223.202059
1223.149607
1223.149463
1223.149417
1223.149265
1223.149183
1223.149196
1223.149379
1223.149525
1223.149559
1223.149578
1223.14953
1223.149745
1223.150535
1223.152929
1223.159157
1223.149431
1223.149304
1223.149346
1223.149355
1223.149388
1223.149397
1223.149311
1223.149339
1223.149381
1223.149286
1223.149364
1223.149142
1223.149306
1223.149984
1223.151188
1223.148585
1223.148504
1223.148469
1223.148481
1223.148466
1223.148436
1223.148383
1223.148396
1223.148267
1223.148266
1223.148305
1223.148519
1223.148558
1223.148681
1223.149059
1223.146911
1223.146791
1223.146826
1223.146686
1223.146847
1223.146923
1223.146907
1223.146951
1223.146986
1223.147005
1223.146976
1223.146924
1223.146901
1223.147213
1223.145914
1223.145921
1223.145933
1223.145829
1223.145869
1223.145802
1223.145775
1223.145719
1223.145547
1223.145673
1223.145767
1223.145641
1223.145831
1223.146245
1223.147918
1223.147995
1223.147871
1223.14773
1223.147742
1223.147674
1223.147836
1223.147792
1223.147741
1223.14772
1223.14767
1223.147937
1223.14831
1223.149481
1223.148544
1223.148528
1223.148693
1223.148811
1223.148905
1223.148791
1223.148853
1223.148824
1223.148508
1223.148431
1223.148601
1223.148811
1223.150114
1223.154449
1223.150833
1223.150763
1223.150846
1223.150857
1223.150854
1223.150695
1223.150793
1223.150782
1223.150702
1223.15082
1223.150751
1223.151363
1223.153899
1223.164547
1223.147506
1223.147594
1223.147678
1223.147793
1223.147918
1223.147796
1223.147759
1223.147621
1223.14742
1223.14754
1223.147673
1223.147853
1223.148968
1223.153133
1223.149756
1223.149713
1223.149718
1223.149775
1223.149902
1223.149869
1223.149853
1223.149895
1223.149851
1223.149837
1223.149873
1223.150139
1223.150328
1223.151792
1223.154883
1223.147908
1223.14776
1223.147778
1223.147772
1223.147842
1223.147753
1223.147645
1223.147578
1223.147781
1223.147625
1223.147499
1223.147441
1223.147724
1223.148225
1223.149001
1223.148508
1223.148472
1223.148446
1223.148311
1223.148298
1223.148306
1223.148333
1223.148175
1223.148364
1223.148446
1223.148405
1223.148401
1223.148416
1223.148675
1223.148873
1223.147798
1223.147748
1223.147823
1223.147744
1223.147922
1223.148057
1223.148011
1223.148007
1223.148108
1223.148016
1223.148041
1223.148077
1223.148024
1223.148063
1223.152291
1223.152459
1223.152526
1223.152415
1223.152208
1223.152372
1223.152298
1223.152269
1223.152225
1223.152219
1223.152304
1223.152267
1223.152458
1223.152648
1223.157696
1223.157693
1223.157832
1223.157906
1223.157884
1223.157726
1223.15771
1223.157627
1223.157689
1223.157818
1223.157765
1223.157806
1223.158026
1223.15845
1223.151083
1223.151063
1223.151154
1223.151117
1223.151155
1223.151165
1223.151185
1223.15118
1223.151344
1223.151348
1223.151226
1223.151333
1223.151804
1223.153194
1223.143929
1223.144044
1223.143803
1223.143999
1223.144099
1223.144092
1223.144146
1223.144052
1223.143991
1223.143911
1223.144205
1223.144241
1223.145157
1223.147577
1223.150964
1223.151089
1223.151216
1223.151361
1223.151256
1223.151259
1223.151015
1223.150914
1223.15078
1223.150694
1223.150763
1223.150809
1223.151147
1223.152715
1223.151648
1223.151504
1223.151561
1223.151436
1223.151364
1223.151204
1223.151263
1223.151603
1223.151534
1223.151429
1223.15156
1223.151697
1223.151851
1223.15244
1223.150616
1223.15067
1223.150703
1223.15078
1223.150705
1223.150688
1223.150668
1223.150492
1223.150499
1223.150501
1223.150598
1223.150657
1223.150935
1223.150991
1223.151353
1223.152134
1223.152183
1223.152141
1223.152154
1223.152074
1223.152016
1223.151893
1223.152065
1223.152051
1223.152121
1223.152031
1223.15206
1223.152131
1223.152273
1223.15244
1223.155444
1223.155395
1223.155407
1223.155461
1223.155473
1223.155377
1223.155436
1223.155515
1223.155468
1223.15553
1223.155489
1223.155602
1223.155408
1223.155436
1223.14864
1223.148793
1223.148599
1223.14863
1223.148437
1223.148225
1223.148176
1223.148249
1223.148171
1223.148391
1223.14837
1223.148267
1223.148472
1223.14846
1223.14892
1223.149038
1223.149143
1223.14903
1223.149147
1223.149065
1223.149048
1223.148831
1223.149006
1223.148845
1223.148846
1223.148822
1223.148841
1223.148877
1223.15185
1223.151823
1223.151679
1223.151819
1223.151723
1223.151642
1223.15181
1223.151618
1223.151753
1223.151858
1223.151828
1223.151949
1223.152047
1223.152237
1223.150569
1223.150606
1223.150692
1223.150834
1223.150804
1223.150934
1223.150765
1223.151098
1223.151063
1223.151133
1223.151297
1223.151265
1223.151455
1223.151995
1223.15021
1223.150334
1223.150353
1223.150223
1223.150203
1223.150121
1223.150103
1223.15013
1223.150083
1223.150081
1223.150217
1223.150198
1223.150644
1223.151204
1223.151451
1223.151544
1223.151513
1223.151472
1223.151682
1223.151759
1223.151883
1223.151851
1223.151714
1223.151631
1223.151679
1223.15178
1223.151933
1223.151986
1223.150492
1223.150429
1223.15036
1223.150414
1223.150348
1223.15046
1223.15042
1223.150536
1223.150494
1223.150721
1223.150397
1223.150471
1223.150554
1223.150689
1223.15339
1223.153191
1223.153246
1223.153311
1223.153241
1223.153332
1223.1533
1223.153259
1223.153284
1223.153398
1223.153467
1223.153463
1223.153551
1223.153645
1223.153676
1223.148762
1223.14874
1223.148649
1223.14879
1223.148598
1223.148633
1223.148611
1223.148682
1223.148565
1223.148597
1223.148531
1223.148525
1223.148443
1223.148503
1223.151318
1223.151315
1223.151462
1223.151553
1223.151704
1223.1517
1223.151697
1223.151667
1223.151766
1223.151792
1223.151746
1223.151848
1223.151665
1223.151696
1223.148218
1223.148172
1223.148253
1223.148226
1223.148145
1223.148071
1223.148127
1223.148178
1223.148302
1223.14837
1223.148368
1223.148347
1223.148404
1223.148462
1223.1547
1223.154496
1223.154585
1223.154537
1223.154614
1223.154515
1223.154328
1223.154345
1223.154511
1223.154527
1223.154652
1223.154493
1223.154572
1223.15472
1223.150002
1223.149951
1223.14996
1223.149785
1223.149761
1223.149966
1223.150045
1223.150046
1223.150045
1223.149907
1223.15003
1223.150028
1223.150062
1223.150184
1223.157358
1223.157251
1223.15732
1223.157379
1223.157244
1223.157391
1223.157322
1223.157326
1223.157483
1223.157571
1223.157725
1223.157725
1223.157755
1223.157861
1223.150326
1223.15025
1223.150199
1223.1503
1223.150424
1223.150386
1223.150375
1223.150509
1223.150225
1223.150241
1223.150153
1223.150172
1223.150344
1223.150579
1223.146561
1223.146773
1223.146845
1223.146699
1223.146685
1223.146665
1223.146638
1223.146586
1223.14659
1223.146595
1223.146696
1223.146983
1223.147048
1223.147144
1223.149753
1223.149747
1223.149711
1223.149773
1223.14981
1223.149887
1223.149629
1223.149702
1223.149736
1223.149647
1223.149549
1223.149575
1223.149556
1223.149579
)
;

boundaryField
{
    top
    {
        type            zeroGradient;
    }
    bottom
    {
        type            zeroGradient;
    }
    side-walls
    {
        type            zeroGradient;
    }
    inlet
    {
        type            zeroGradient;
    }
    outlet
    {
        type            zeroGradient;
    }
    procBoundary0to1
    {
        type            processor;
        value           nonuniform List<scalar> 
97
(
1223.150181
1223.149521
1223.151629
1223.149561
1223.154981
1223.154727
1223.145415
1223.147739
1223.150775
1223.151158
1223.149521
1223.149521
1223.157743
1223.146707
1223.156123
1223.151826
1223.156502
1223.157884
1223.159324
1223.146986
1223.15341
1223.152466
1223.146707
1223.146707
1223.149913
1223.149436
1223.15647
1223.170186
1223.152395
1223.152516
1223.152907
1223.147779
1223.147995
1223.152495
1223.149436
1223.149436
1223.174073
1223.20246
1223.205016
1223.175306
1223.157371
1223.153659
1223.153491
1223.15347
1223.150574
1223.169851
1223.20246
1223.20246
1219.431299
1223.199824
1223.20768
1223.164303
1223.163688
1223.152729
1223.14971
1223.147476
1223.147071
1223.152592
1223.165511
1223.199824
1223.164303
1223.164303
1223.158099
1223.153683
1223.150286
1223.149291
1223.148158
1223.152988
1223.159746
1223.156346
1223.153939
1223.155435
1223.153683
1223.153683
1223.151872
1223.15095
1223.152546
1223.155403
1223.148703
1223.149514
1223.152782
1223.153441
1223.152027
1223.152381
1223.15095
1223.15095
1223.153702
1223.14959
1223.148478
1223.151806
1223.148485
1223.155031
1223.150783
1223.158071
1223.151006
1223.14735
1223.14959
)
;
    }
}


// ************************************************************************* //
