/*--------------------------------*- C++ -*----------------------------------*\
| =========                 |                                                 |
| \\      /  F ield         | OpenFOAM: The Open Source CFD Toolbox           |
|  \\    /   O peration     | Version:  4.x                                   |
|   \\  /    A nd           | Web:      www.OpenFOAM.org                      |
|    \\/     M anipulation  |                                                 |
\*---------------------------------------------------------------------------*/
FoamFile
{
    version     2.0;
    format      ascii;
    class       volVectorField;
    location    "8000";
    object      U;
}
// * * * * * * * * * * * * * * * * * * * * * * * * * * * * * * * * * * * * * //

dimensions      [0 1 -1 0 0 0 0];

internalField   nonuniform List<vector> 
1175
(
(0.01100000023 7.415827191e-10 -8.029874483e-10)
(0.01100000037 -1.451467655e-10 -1.157521014e-09)
(0.01100000029 -3.549319558e-10 -1.849296725e-09)
(0.01099999926 -1.015318434e-09 1.002622867e-09)
(0.01100000355 -4.877665636e-10 -1.032781351e-10)
(0.01100000433 3.787211238e-10 -1.08764219e-09)
(0.01100000467 1.050637252e-09 -4.902954495e-10)
(0.01100000771 -1.077000553e-09 -1.131816325e-09)
(0.01100001463 1.218690454e-09 -3.638059255e-09)
(0.01100002137 -1.916584464e-09 -7.101124068e-09)
(0.01100003306 -2.9669885e-09 -5.662099551e-09)
(0.01100004596 -5.497152926e-09 -6.092281897e-09)
(0.01100007915 -8.797863724e-09 -1.031513181e-08)
(0.01100010406 -6.655245949e-09 -8.174714491e-09)
(0.01100015447 -1.594045414e-08 -1.356214524e-08)
(0.01100000047 1.48546735e-10 5.275011398e-10)
(0.01100000079 -2.076673819e-10 -2.957735395e-09)
(0.01100000068 -7.321449857e-11 -1.412310844e-09)
(0.01100000088 -4.135842409e-10 -1.917380976e-09)
(0.01100000103 -1.041604717e-09 -2.416663419e-10)
(0.01100000322 -1.846821395e-09 -2.623498359e-09)
(0.01100000114 -2.129891779e-09 -1.643959482e-09)
(0.01100000521 -3.343400943e-09 1.637817406e-10)
(0.01100001118 -3.562216471e-09 -3.00048709e-09)
(0.01100001744 -7.845470635e-09 -3.630907053e-09)
(0.0110000283 -1.257847536e-08 -4.298815047e-09)
(0.01100004276 -1.921357046e-08 -8.300807251e-09)
(0.01100007688 -3.056468961e-08 -1.129043264e-08)
(0.01100009393 -3.326203647e-08 -8.983347013e-09)
(0.01100015748 -6.242480438e-08 -2.083258165e-08)
(0.01099999983 7.372435566e-10 -3.310909917e-10)
(0.01099999901 -4.76446011e-10 -9.137200948e-10)
(0.01100000176 -1.154726028e-09 -3.559400653e-10)
(0.01099999868 5.292915403e-11 -3.414483247e-10)
(0.01099999907 -1.885013186e-09 4.315220455e-10)
(0.01100000355 -2.768744637e-09 -3.143435105e-09)
(0.01100000433 -3.567576348e-09 9.864700701e-10)
(0.01100000356 -3.823733366e-09 -2.057156523e-09)
(0.01100000908 -4.67820813e-09 -5.027982605e-09)
(0.01100001279 -8.518935464e-09 -3.733433918e-09)
(0.01100001927 -1.461836508e-08 -6.835574632e-09)
(0.01100002639 -2.085758851e-08 -1.298077646e-08)
(0.01100006474 -3.152241619e-08 -1.453234894e-08)
(0.01100007103 -3.09581368e-08 -1.785508102e-08)
(0.0110001591 -7.081093166e-08 -4.841683666e-08)
(0.01099999975 -4.002592196e-11 -5.30986332e-10)
(0.01099999921 -1.012565811e-09 1.451739015e-09)
(0.01099999981 -3.669447553e-10 2.477819583e-09)
(0.01100000015 -2.675324509e-09 -1.42510879e-09)
(0.01100000161 -5.323453519e-10 4.277254611e-10)
(0.01100000199 -1.570935057e-09 -1.988176329e-09)
(0.01100000127 -2.295519416e-09 -9.347107638e-10)
(0.01100000311 -4.036483944e-09 -1.503834682e-09)
(0.01100000868 -4.928310122e-09 -2.069249461e-09)
(0.01100000676 -7.832463998e-09 -4.750844055e-09)
(0.01100001491 -1.347146851e-08 -5.692081717e-09)
(0.01100002237 -2.587310307e-08 -1.179546287e-08)
(0.01100006351 -4.151785545e-08 -1.40013075e-08)
(0.01100005736 -5.709791651e-08 -1.579951694e-08)
(0.01100016945 -1.191034476e-07 -6.241975254e-08)
(0.01100000052 3.384176644e-09 -2.031932115e-09)
(0.01099999823 3.37459972e-09 -1.888775031e-09)
(0.01099999843 1.890926036e-09 6.711497005e-10)
(0.01099999992 1.092484515e-09 7.668031969e-10)
(0.01100000056 1.702492354e-09 -2.397560722e-10)
(0.01100000019 5.999822316e-10 -1.363219612e-09)
(0.01100000033 7.111555293e-10 -6.938637538e-10)
(0.01099999991 8.75653532e-10 -2.657817474e-09)
(0.01100000519 8.791417429e-10 -1.541866755e-09)
(0.01099999979 1.025831562e-09 -7.154223823e-09)
(0.01100000388 3.458448654e-10 -1.088170634e-08)
(0.01099999467 -7.77288802e-10 -2.607063914e-08)
(0.01100002878 1.988496361e-10 -3.5402323e-08)
(0.01099999384 6.193897592e-10 -5.980840412e-08)
(0.0110001873 -1.137826349e-09 -1.667660543e-07)
(0.01099999852 2.458607818e-09 -1.916957352e-10)
(0.010999999 1.103629075e-09 -3.851084079e-10)
(0.01099999812 2.689308528e-09 -9.338418916e-10)
(0.01100000099 2.727349621e-09 1.667868934e-09)
(0.01100000003 3.230583302e-09 6.226191588e-11)
(0.01100000159 2.277065235e-09 -2.277564578e-09)
(0.01100000267 3.057697821e-09 1.099779419e-10)
(0.01100000163 4.243093969e-09 -1.897588867e-09)
(0.01100000706 5.85954203e-09 -3.605322474e-09)
(0.01100000635 9.693158558e-09 -5.613292728e-09)
(0.0110000146 1.589266093e-08 -4.571120584e-09)
(0.01100002156 2.694105235e-08 -1.1605842e-08)
(0.01100006501 4.313063544e-08 -1.316971202e-08)
(0.01100005535 5.76825682e-08 -1.66571348e-08)
(0.01100017086 1.219035729e-07 -6.161705955e-08)
(0.01099999958 1.094266898e-09 -2.168236388e-09)
(0.01099999753 3.894863769e-09 -1.905955343e-09)
(0.01099999817 2.329249295e-09 -1.107490075e-09)
(0.01099999844 3.632856009e-09 -9.645387982e-10)
(0.0110000007 2.615602045e-10 -8.225709004e-10)
(0.01100000236 1.946284018e-09 -9.354443918e-10)
(0.01100000147 3.425804689e-09 -4.067082217e-09)
(0.01100000459 6.056251071e-09 -3.364568444e-09)
(0.01100000546 7.532231913e-09 -2.271853438e-09)
(0.0110000103 1.055681561e-08 -3.107994594e-09)
(0.01100001997 1.555699863e-08 -6.302624717e-09)
(0.01100002579 2.455957533e-08 -1.018674095e-08)
(0.01100006462 3.113391626e-08 -1.568517532e-08)
(0.01100007096 3.273941853e-08 -1.575072407e-08)
(0.01100015895 7.253975981e-08 -4.790939317e-08)
(0.01099999965 7.275089375e-10 -1.259934222e-10)
(0.01099999808 2.010516984e-09 1.653337785e-09)
(0.01100000092 1.275669762e-09 1.086777114e-10)
(0.0109999991 -5.754242911e-10 -1.886888682e-09)
(0.01100000071 1.756323193e-10 8.928133383e-10)
(0.01100000346 -9.868678419e-12 1.193363797e-09)
(0.01100000455 1.087064411e-09 -1.933116608e-09)
(0.01100000613 4.229161154e-09 -1.951097785e-09)
(0.01100001097 6.429710586e-09 -3.693414071e-09)
(0.01100001486 7.77833587e-09 -3.89452265e-09)
(0.01100002594 1.316866335e-08 -6.249856519e-09)
(0.01100004014 1.889685653e-08 -7.014944841e-09)
(0.01100007441 3.080407894e-08 -1.303573143e-08)
(0.01100009531 3.132673938e-08 -9.550585532e-09)
(0.01100015678 6.052643459e-08 -2.228931264e-08)
(0.01100000025 5.369492276e-10 -9.782751428e-10)
(0.0109999989 3.989851712e-11 -3.27793012e-09)
(0.01100000082 6.560054215e-10 -3.701597277e-09)
(0.01099999854 1.777852593e-09 -5.599616478e-10)
(0.01099999875 1.678484157e-09 1.283339899e-09)
(0.01100000226 1.334122392e-09 -4.52641432e-10)
(0.01100000645 6.571472038e-10 1.249692125e-09)
(0.0110000062 1.968969098e-09 -1.639881312e-09)
(0.01100001344 8.421445935e-10 -2.075959731e-09)
(0.01100001883 2.357519489e-09 1.590371455e-09)
(0.01100003103 1.973356258e-09 -3.48555314e-09)
(0.01100004808 4.626541903e-09 -4.509409248e-09)
(0.01100008094 8.722154338e-09 -1.014112379e-08)
(0.01100010258 8.521303296e-09 -5.934314166e-09)
(0.0110001556 1.689437885e-08 -1.533876776e-08)
(0.01100000084 7.452355531e-10 2.200029172e-10)
(0.01100000038 1.470100829e-09 -1.234041898e-09)
(0.01099999899 1.848540622e-10 -1.386683662e-10)
(0.01099999939 -3.315124314e-11 8.245786846e-10)
(0.0110000026 1.60119173e-09 7.573602158e-10)
(0.01100000237 1.013386616e-09 3.699018305e-10)
(0.01100000309 -2.221340082e-10 -2.05552907e-09)
(0.01100000648 -6.224458971e-10 -2.031644421e-09)
(0.0110000131 -9.209238181e-10 -4.08058016e-09)
(0.01100001633 -3.39416631e-09 -7.041769814e-09)
(0.01100003048 -4.163133513e-09 -1.137279598e-08)
(0.01100004043 -7.840370022e-09 -1.881443635e-08)
(0.01100007772 -1.131201602e-08 -2.939303623e-08)
(0.01100009443 -8.846894433e-09 -3.098697829e-08)
(0.0110000006 -1.616736799e-10 -3.649488069e-10)
(0.01100000117 -5.198408183e-10 -6.622917816e-10)
(0.01099999791 1.478780212e-10 9.140622964e-10)
(0.01099999879 -9.347216291e-10 -4.00980955e-10)
(0.01100000226 -1.413476078e-09 -5.839617962e-10)
(0.01100000254 -1.249714847e-09 -2.289902044e-09)
(0.01100000218 -1.522914964e-09 -1.153115549e-09)
(0.01100000371 -3.928991878e-09 -3.723586223e-09)
(0.01100000895 -4.822857776e-09 -5.322394097e-09)
(0.0110000136 -7.853559341e-09 -8.67642197e-09)
(0.01100002451 -1.34632825e-08 -1.353756725e-08)
(0.01100003377 -2.131606834e-08 -2.248996761e-08)
(0.01100007278 -3.609568221e-08 -3.803143464e-08)
(0.011000082 -4.109834119e-08 -4.044169869e-08)
(0.01100016312 -9.376967562e-08 -9.447825718e-08)
(0.01100000152 1.069781245e-09 -8.997652929e-11)
(0.0110000008 -2.931033776e-10 3.262356625e-11)
(0.01099999953 1.036958581e-10 -1.335014156e-09)
(0.01099999979 -6.14415542e-10 -8.416420577e-10)
(0.01100000117 -2.708307214e-09 -6.210951604e-10)
(0.01100000293 -1.669924136e-09 -2.238407309e-09)
(0.01100000305 -3.339796148e-09 -3.080705094e-09)
(0.01100000182 -6.207098926e-09 -4.844914811e-09)
(0.01100000333 -5.29229937e-09 -5.246659778e-09)
(0.01100000672 -1.277159852e-08 -1.203614662e-08)
(0.01100001337 -1.538730958e-08 -1.829831475e-08)
(0.01100001596 -2.69694166e-08 -3.674809539e-08)
(0.01100005209 -3.556379539e-08 -5.851620312e-08)
(0.01100004076 -3.851412174e-08 -8.034771395e-08)
(0.0110001651 -1.137411493e-07 -2.065612329e-07)
(0.01099999907 -2.946404782e-10 -6.701038969e-12)
(0.01100000016 1.810858101e-10 -1.299960002e-09)
(0.01100000038 -1.554404451e-09 -1.36953363e-09)
(0.01099999865 -5.279026086e-10 -1.034599536e-10)
(0.01099999848 -4.133358855e-10 -1.900222733e-09)
(0.01100000152 -2.176718456e-09 -1.750825413e-09)
(0.01100000021 -2.684765365e-09 -2.316751997e-09)
(0.01100000315 -2.922926956e-09 -3.616349855e-09)
(0.0110000023 -3.888851191e-09 -7.108115022e-09)
(0.01100000395 -9.4601622e-09 -1.473562844e-08)
(0.0110000068 -1.735813202e-08 -1.819704008e-08)
(0.0110000135 -3.885488598e-08 -4.620195917e-08)
(0.01100005042 -5.903104633e-08 -5.794362037e-08)
(0.01100001698 -9.70320306e-08 -9.970173102e-08)
(0.01100017766 -2.434819458e-07 -3.074482802e-07)
(0.01099999864 2.737563778e-09 -9.887961628e-10)
(0.01099999855 1.584495675e-09 9.690679613e-10)
(0.01099999906 1.942225105e-09 -7.876264031e-10)
(0.01100000081 1.612344317e-09 -2.991910067e-09)
(0.01099999885 2.493530405e-09 -8.323208393e-10)
(0.01100000041 -2.133039038e-10 -2.016852004e-09)
(0.01099999731 6.950231632e-10 -2.930250529e-09)
(0.01099999771 1.641625931e-09 -5.737252222e-09)
(0.01099999524 -2.349695682e-10 -9.275520556e-09)
(0.01099999203 2.742151317e-10 -2.157770918e-08)
(0.01099998358 1.247386358e-09 -3.055284165e-08)
(0.01099997113 4.747428164e-10 -8.714406344e-08)
(0.0109999809 2.206053787e-10 -1.229879263e-07)
(0.01099987532 6.634544069e-10 -2.902230141e-07)
(0.01100022047 1.47721002e-09 -7.854408693e-07)
(0.01099999878 1.374695884e-09 -1.315183683e-09)
(0.01099999876 3.338307104e-09 -1.884254611e-10)
(0.01100000138 1.163514231e-09 -9.621798253e-10)
(0.01099999895 2.169583135e-09 -1.984951045e-09)
(0.01099999697 1.604688725e-09 -1.209414714e-09)
(0.01100000198 1.022179076e-09 -1.233761253e-09)
(0.01100000255 1.268649301e-09 -1.478868128e-09)
(0.01100000128 3.121594171e-09 -3.884248975e-09)
(0.01100000223 5.252880124e-09 -6.280323728e-09)
(0.01100000438 1.160934691e-08 -1.529699898e-08)
(0.01100000798 1.784492028e-08 -1.915642211e-08)
(0.01100001429 3.820316205e-08 -4.613760613e-08)
(0.01100005186 6.024555314e-08 -5.945620994e-08)
(0.0110000165 9.778649133e-08 -9.85241962e-08)
(0.01100017547 2.433925069e-07 -3.070099496e-07)
(0.01099999905 2.285954582e-09 -7.201551005e-10)
(0.01099999794 1.029470627e-09 -5.364149052e-10)
(0.01099999988 1.845840604e-09 -1.837114051e-09)
(0.01100000018 2.446851717e-09 -1.405869879e-09)
(0.01100000074 1.358019013e-09 -8.313574071e-10)
(0.0110000007 4.279928351e-09 -1.395125582e-09)
(0.01099999944 2.227283753e-09 -2.276563121e-09)
(0.01100000304 6.055590069e-09 -2.406019733e-09)
(0.01100000561 6.171161162e-09 -5.668645705e-09)
(0.011000005 1.270108887e-08 -1.303906074e-08)
(0.01100001251 1.425032829e-08 -1.90956546e-08)
(0.01100001378 2.789117854e-08 -3.799735898e-08)
(0.01100005284 3.489319813e-08 -5.814519028e-08)
(0.0110000393 3.808547951e-08 -8.091561231e-08)
(0.01100016515 1.125697681e-07 -2.05546722e-07)
(0.01100000033 -3.198914931e-10 -1.857992083e-09)
(0.01099999896 9.755377458e-10 -3.024722534e-09)
(0.01100000088 1.589397832e-09 -2.480737556e-09)
(0.01100000183 -2.078491231e-10 -2.091712829e-09)
(0.01099999987 4.094918535e-10 -8.031086203e-10)
(0.0110000006 -2.912676485e-10 -2.092100628e-09)
(0.01100000386 2.32360873e-09 -1.392359093e-09)
(0.01100000401 2.609565492e-09 -3.178796902e-09)
(0.01100000912 6.229709379e-09 -4.678328401e-09)
(0.01100001225 7.611081261e-09 -1.068431668e-08)
(0.0110000251 1.317268588e-08 -1.53466297e-08)
(0.01100003396 2.388002889e-08 -2.287714282e-08)
(0.01100007241 3.750152769e-08 -3.573773122e-08)
(0.01100008315 4.106466147e-08 -4.047213286e-08)
(0.01100016145 9.529638504e-08 -9.399328733e-08)
(0.01099999972 1.472536349e-10 -1.465797292e-09)
(0.01100000061 1.776496386e-09 -2.507366266e-09)
(0.01099999922 7.123156178e-10 -1.35364221e-09)
(0.01099999844 1.856449745e-10 -2.362266344e-09)
(0.01100000002 -9.950549527e-10 -1.388429844e-09)
(0.01100000206 -3.224943305e-10 -2.042204038e-09)
(0.01100000791 1.638740054e-09 -1.753534612e-09)
(0.01100000548 2.669200532e-09 -3.5974041e-09)
(0.01100001035 4.258008506e-09 -4.958888026e-09)
(0.01100001505 3.7486148e-09 -7.890180649e-09)
(0.01100003059 4.27231178e-09 -1.041912925e-08)
(0.01100004182 6.19410039e-09 -1.855276036e-08)
(0.01100007529 1.186886482e-08 -2.8646954e-08)
(0.0110000944 1.042475548e-08 -2.987210085e-08)
(0.0110001576 2.255365105e-08 -6.0167919e-08)
(0.0110000006 4.388250322e-10 -6.400170323e-10)
(0.01100000084 1.302107564e-09 -1.2732991e-09)
(0.01100000007 1.448131812e-09 -1.473377429e-09)
(0.01100000138 -1.159179722e-09 1.74312426e-09)
(0.01100000361 -6.381238637e-10 3.709399667e-10)
(0.01100000215 1.207044987e-10 -8.481131393e-12)
(0.01100000065 -6.012466091e-10 -2.195146974e-09)
(0.01100000504 -5.794125247e-10 -2.173035228e-09)
(0.01100000673 1.963776174e-09 -4.79399225e-09)
(0.01100001163 -3.332549372e-09 -1.029604433e-08)
(0.01100002049 -5.396549669e-09 -1.425149255e-08)
(0.01100002404 -7.109809611e-09 -2.155100869e-08)
(0.01100006313 -1.621789515e-08 -3.016181094e-08)
(0.01100007317 -1.505203599e-08 -3.009333521e-08)
(0.01099999954 1.146661424e-09 -2.087843366e-09)
(0.01100000004 -8.879282304e-10 -6.963334445e-10)
(0.01099999973 -4.711893756e-10 -1.973356688e-09)
(0.01099999924 -1.024832943e-09 -1.359595033e-09)
(0.01100000028 -1.452242972e-09 -1.338170041e-09)
(0.01099999914 -1.791432532e-09 4.205563215e-10)
(0.0110000007 -2.856818785e-09 -5.037256561e-09)
(0.01100000275 -5.004468718e-09 -4.754955385e-09)
(0.01100000311 -6.154129017e-09 -5.04247169e-09)
(0.01100000543 -1.261503928e-08 -1.123772291e-08)
(0.01100001263 -1.946852998e-08 -1.630765932e-08)
(0.01100001536 -3.653871089e-08 -2.687802136e-08)
(0.01100005269 -5.743133121e-08 -3.719031585e-08)
(0.01100003991 -8.034849139e-08 -3.892844567e-08)
(0.01099999896 2.549660908e-10 -8.462340307e-11)
(0.01100000056 -1.813251032e-09 -1.346767284e-09)
(0.01100000002 -1.406097863e-09 3.285782441e-11)
(0.01100000014 -3.564305933e-09 -7.53192817e-10)
(0.01099999887 -2.204912559e-09 -3.588865186e-10)
(0.01100000031 -2.629904572e-09 -9.990603353e-10)
(0.01100000149 -3.997172575e-09 -2.165064741e-09)
(0.01099999928 -5.954328447e-09 -3.200220705e-09)
(0.01099999682 -8.059987597e-09 -8.426657285e-09)
(0.01099999614 -1.684980503e-08 -1.572573299e-08)
(0.01099999297 -1.806307782e-08 -2.09995635e-08)
(0.01099998473 -4.515507628e-08 -4.594515458e-08)
(0.01100000413 -5.237731419e-08 -5.464871337e-08)
(0.01099993495 -9.031378662e-08 -9.115858506e-08)
(0.01100016725 -2.838439123e-07 -2.921256227e-07)
(0.01099999884 -2.105876857e-11 -1.397324878e-09)
(0.01100000041 7.979354944e-10 -8.859244192e-11)
(0.01100000029 -1.717761159e-10 -8.701296979e-10)
(0.01100000061 -3.979166066e-10 1.8520084e-10)
(0.01100000004 -1.464887445e-09 1.688822529e-09)
(0.0109999978 -1.826032037e-09 -2.198839244e-09)
(0.01099999901 -3.278751541e-09 -2.2613917e-09)
(0.01099999924 -4.07534968e-09 -5.535037539e-09)
(0.01099999183 -6.130670069e-09 -9.695440732e-09)
(0.01099999283 -1.73845612e-08 -2.040121775e-08)
(0.01099998241 -2.625584111e-08 -1.549342795e-08)
(0.01099998515 -7.665436055e-08 -5.31823013e-08)
(0.01099997079 -1.090910733e-07 -2.180460957e-08)
(0.0109998782 -2.705038797e-07 -9.029579897e-08)
(0.01100011118 -7.123497755e-07 -3.898572334e-07)
(0.01100000034 2.361042655e-09 -1.985441046e-09)
(0.01099999953 3.065143514e-09 -2.007037375e-09)
(0.01100000028 1.135124631e-09 -2.287914392e-09)
(0.01099999885 1.405059313e-09 -2.301082228e-10)
(0.01100000077 1.535315451e-09 -1.423662639e-09)
(0.01099999798 1.713555852e-09 -2.368735215e-09)
(0.01099999677 3.216704915e-09 -4.209680991e-09)
(0.01099999298 2.301250468e-09 -8.626481699e-09)
(0.01099998005 -3.568898745e-10 -1.180748868e-08)
(0.01099997761 2.274006934e-10 -3.144426332e-08)
(0.01099992911 3.856013777e-10 -3.105071226e-08)
(0.01099990163 -7.904388509e-10 -1.300791361e-07)
(0.01099975281 -1.890005075e-09 -1.121556338e-07)
(0.01099946974 -1.176885365e-11 -5.375911197e-07)
(0.01100005838 -3.459320338e-10 -1.464448251e-06)
(0.01099999977 1.542059289e-09 -1.513635241e-09)
(0.01099999859 9.928279314e-10 -2.296835183e-09)
(0.01099999837 6.321933313e-10 -1.67873529e-09)
(0.01099999989 1.470003256e-09 -2.237878768e-09)
(0.01100000029 5.285992371e-10 -2.17612507e-09)
(0.01100000078 -2.567697806e-10 -2.335680003e-09)
(0.01099999866 2.9543222e-09 -5.125114186e-09)
(0.01099999675 3.831279195e-09 -8.752438495e-09)
(0.01099999034 7.509694734e-09 -9.107325948e-09)
(0.01099999261 1.806265822e-08 -2.123476062e-08)
(0.01099998004 2.664504616e-08 -1.845583314e-08)
(0.01099998287 7.640176542e-08 -5.499879141e-08)
(0.01099997427 1.085121638e-07 -2.189644098e-08)
(0.01099987618 2.702857479e-07 -8.883761618e-08)
(0.01100010887 7.127404058e-07 -3.902253106e-07)
(0.01099999922 1.903002063e-09 -2.04613222e-09)
(0.01099999832 2.939038089e-09 -2.129887255e-09)
(0.01100000001 2.487853452e-09 -1.29238686e-09)
(0.01100000072 4.744345722e-10 -2.981078832e-09)
(0.01099999941 1.020989073e-09 -4.667533691e-09)
(0.01100000039 2.635548361e-09 -2.360675616e-09)
(0.01100000073 1.627911215e-09 -4.188510608e-09)
(0.01099999899 6.716854696e-09 -7.443631185e-09)
(0.01099999479 8.777753903e-09 -7.356269939e-09)
(0.01099999396 1.724385055e-08 -1.652276986e-08)
(0.01099999092 1.794454896e-08 -2.019464774e-08)
(0.01099998241 4.527930687e-08 -4.617960445e-08)
(0.01100000579 5.470911548e-08 -5.572668161e-08)
(0.01099993612 9.034647379e-08 -9.239681036e-08)
(0.01100016791 2.900729774e-07 -2.910306328e-07)
(0.01099999854 5.055009367e-10 -2.008636166e-09)
(0.01099999873 -3.050525118e-10 -2.0791947e-09)
(0.01100000043 4.72774783e-10 -2.668243898e-09)
(0.01100000144 5.751290168e-10 -2.778868979e-09)
(0.01100000082 6.009570449e-10 -2.196084303e-09)
(0.01100000148 1.064122411e-09 -1.73169819e-09)
(0.01100000273 1.31592135e-09 -1.777623153e-09)
(0.01100000295 3.381979524e-09 -5.747288995e-09)
(0.01100000295 5.460898539e-09 -8.480380775e-09)
(0.01100000597 1.112635776e-08 -1.173057764e-08)
(0.01100001286 1.923875587e-08 -1.63105184e-08)
(0.01100001418 3.858537868e-08 -2.638894463e-08)
(0.0110000524 5.94518011e-08 -3.492577549e-08)
(0.01100003764 7.965218218e-08 -3.708544091e-08)
(0.01100016713 2.056187776e-07 -1.140518804e-07)
(0.01100000041 -1.606816185e-09 -2.048576445e-09)
(0.01100000011 -1.371335772e-10 -1.604358713e-09)
(0.0110000008 9.586520635e-10 -2.515209365e-09)
(0.01099999856 1.512587078e-09 -3.421808955e-09)
(0.01099999865 1.656793015e-10 -1.648456033e-09)
(0.01100000204 1.354917975e-10 -7.913698426e-10)
(0.01100000466 2.090375913e-09 -2.47613215e-09)
(0.01100000315 2.615927861e-09 -5.493237613e-09)
(0.01100000568 3.705671641e-09 -7.411727484e-09)
(0.01100000902 5.431620091e-09 -1.158274861e-08)
(0.01100002095 7.818028694e-09 -1.511045127e-08)
(0.011000025 1.04091381e-08 -2.234479279e-08)
(0.01100006368 1.582766916e-08 -3.265586339e-08)
(0.01100006998 1.782489639e-08 -3.267099832e-08)
(0.01100015636 4.887915381e-08 -7.112223019e-08)
(0.01100000175 1.140914259e-09 -2.298497655e-10)
(0.0110000034 -1.12771751e-09 -3.649950641e-11)
(0.01100000015 2.421712645e-11 5.959036147e-10)
(0.0109999998 9.702978021e-10 -1.443280744e-09)
(0.01099999971 -1.01542643e-09 1.01005455e-09)
(0.01100000084 -8.048241897e-10 -7.929585226e-10)
(0.01100000183 -1.796077336e-09 -6.57631629e-10)
(0.01100000281 -1.921803063e-09 -2.215581743e-09)
(0.01100000555 -1.876258546e-09 -5.164667313e-09)
(0.01100000751 -5.326681991e-09 -9.349204901e-09)
(0.01100001744 -7.605066327e-09 -1.460758723e-08)
(0.01100002324 -1.181062796e-08 -2.748312218e-08)
(0.01100006283 -1.359454457e-08 -4.365368844e-08)
(0.01100005422 -1.571923226e-08 -5.40639682e-08)
(0.01100000111 1.59735065e-09 4.820299647e-10)
(0.01100000057 -1.166812973e-09 -2.697234657e-10)
(0.01100000164 -1.661802115e-09 -4.464956197e-10)
(0.01099999702 -2.33473328e-09 4.668619438e-10)
(0.01100000116 -2.916287065e-09 3.243464424e-10)
(0.01099999949 -2.76920251e-09 -1.480521358e-09)
(0.01099999944 -2.923920407e-09 -2.632849422e-09)
(0.01100000103 -4.791200385e-09 -2.628786109e-09)
(0.01100000026 -6.247242789e-09 -4.97981104e-09)
(0.0110000037 -1.447305584e-08 -1.306048816e-08)
(0.01100000774 -1.870999293e-08 -1.767040484e-08)
(0.01100001467 -4.668071207e-08 -4.029340876e-08)
(0.0110000516 -5.95601413e-08 -5.976021075e-08)
(0.01100001685 -1.010506647e-07 -9.836038618e-08)
(0.01099999916 -4.287736369e-10 -5.852358793e-10)
(0.01100000038 -1.421724804e-10 -1.852218382e-10)
(0.01100000089 -1.841888094e-09 -2.634163331e-10)
(0.01099999927 -7.168618304e-10 1.6106631e-10)
(0.01099999894 2.132540808e-10 -4.134140504e-10)
(0.01099999966 -2.386987368e-09 -2.20514697e-09)
(0.01099999959 -1.711726521e-09 -2.503198241e-09)
(0.01099999671 -5.810321252e-09 -3.987442261e-09)
(0.01099999165 -8.966147631e-09 -6.034503654e-09)
(0.01099999216 -1.929897863e-08 -1.777575133e-08)
(0.01099997967 -1.591968871e-08 -2.584503079e-08)
(0.01099998438 -5.287067853e-08 -7.639966445e-08)
(0.01099997421 -1.954078306e-08 -1.113530698e-07)
(0.01099987871 -8.950029006e-08 -2.69655816e-07)
(0.01100000006 -5.227076898e-10 -7.530495442e-10)
(0.01099999948 -4.998213454e-10 -2.421468128e-10)
(0.011 -6.927482573e-10 7.172979638e-10)
(0.01100000112 -6.339086835e-10 4.335196713e-10)
(0.01099999823 -7.405571478e-10 2.74542861e-10)
(0.0109999992 -1.710762797e-09 -4.102588429e-10)
(0.01099999575 -3.618500553e-09 -2.991041027e-09)
(0.01099999572 -7.236156983e-09 -5.492432907e-09)
(0.01099998666 -7.432559717e-09 -6.489972473e-09)
(0.01099999541 -2.432283627e-08 -2.475396143e-08)
(0.01099996635 -2.872484589e-08 -2.892328831e-08)
(0.01100002491 -1.211161139e-07 -1.233275718e-07)
(0.01099992312 -1.170329669e-07 -1.185680934e-07)
(0.01099998109 -5.444822429e-07 -5.444165344e-07)
(0.01099945009 -1.415755343e-06 -1.419046037e-06)
(0.01100000194 7.094239532e-10 -1.05049734e-09)
(0.01100000067 1.524194891e-09 -9.860124909e-10)
(0.01099999927 8.04451815e-10 6.431137768e-10)
(0.01100000026 5.07939061e-10 -1.981514623e-10)
(0.0110000021 1.235128073e-10 -1.870640552e-09)
(0.01099999588 5.888627251e-10 -1.835085831e-09)
(0.01099999126 5.873430344e-10 -2.197329455e-09)
(0.01099999015 -6.295852895e-10 -8.661214966e-09)
(0.01099997114 -4.852678834e-10 -1.253597942e-08)
(0.01099997116 -1.634650558e-09 -4.018886574e-08)
(0.01099987318 -1.098722793e-09 -5.492641991e-08)
(0.01099991333 -6.557596488e-10 -2.920742494e-07)
(0.01099936721 -8.003100313e-11 -3.844930194e-07)
(0.01099934687 2.148900114e-10 -2.780941608e-06)
(0.01099750756 -9.605059367e-11 -7.010483684e-06)
(0.01100000053 1.568216927e-09 -1.996205288e-09)
(0.01099999912 1.242422403e-09 -2.075153517e-09)
(0.01100000059 1.272924725e-09 -1.638010423e-10)
(0.01100000009 -4.106979148e-11 -1.754625683e-09)
(0.01099999882 -7.677281717e-10 -1.875565307e-09)
(0.01100000021 1.479482003e-09 -2.062176355e-09)
(0.01099999583 1.965655064e-09 -3.641748481e-09)
(0.01099999541 5.537484796e-09 -6.347448496e-09)
(0.01099998821 8.471834948e-09 -9.032103546e-09)
(0.01099999564 2.580810648e-08 -2.545994529e-08)
(0.01099996699 2.995637859e-08 -3.008016478e-08)
(0.01100002562 1.211738617e-07 -1.203543981e-07)
(0.01099992288 1.153836546e-07 -1.172736703e-07)
(0.01099998047 5.438967703e-07 -5.464949695e-07)
(0.01099944996 1.416497968e-06 -1.418538338e-06)
(0.01100000012 2.590037153e-09 -1.905918777e-09)
(0.01099999955 1.933872568e-09 -7.590680648e-10)
(0.01099999962 2.220248448e-09 -1.640979318e-09)
(0.01099999917 1.356834435e-09 -6.722438642e-10)
(0.01099999772 -1.449390196e-10 -1.371455066e-09)
(0.01099999991 2.521423408e-09 -1.847282877e-09)
(0.01099999852 4.79653018e-09 -1.598186751e-09)
(0.01099999878 7.398365683e-09 -4.357724091e-09)
(0.01099999312 9.404301231e-09 -8.227247447e-09)
(0.01099999328 2.018012936e-08 -1.990361067e-08)
(0.0109999787 1.632609716e-08 -2.723038441e-08)
(0.01099998315 5.509960743e-08 -7.658344429e-08)
(0.01099997354 2.095876926e-08 -1.095851275e-07)
(0.01099987687 8.911771731e-08 -2.696461507e-07)
(0.01100011034 3.900226677e-07 -7.14292533e-07)
(0.01099999955 -3.585451593e-11 -1.15614739e-09)
(0.01099999799 9.176826217e-10 -1.171066354e-09)
(0.01099999935 4.699165894e-10 -5.682868321e-10)
(0.0110000008 -2.223460419e-10 -7.291945936e-10)
(0.01100000052 9.032900093e-10 -1.556491918e-09)
(0.01099999981 7.871245793e-10 -1.757596872e-09)
(0.01099999968 3.189114913e-09 -1.919685091e-09)
(0.0110000005 5.858442416e-09 -4.566944444e-09)
(0.01099999956 6.964862128e-09 -5.40271527e-09)
(0.01100000075 1.498278004e-08 -1.27339831e-08)
(0.01100000816 1.839283799e-08 -1.655890121e-08)
(0.01100001348 4.706976301e-08 -3.934581242e-08)
(0.01100005181 6.162927222e-08 -5.862580233e-08)
(0.01100001378 9.971150549e-08 -9.622980009e-08)
(0.01100017559 3.07224732e-07 -2.428135476e-07)
(0.0110000011 2.069945922e-10 -2.32747458e-10)
(0.01100000039 2.227986132e-09 -4.539113171e-10)
(0.01099999962 1.237892487e-09 -1.308825845e-09)
(0.01099999835 1.499013854e-09 -1.486374568e-09)
(0.01099999936 5.803658357e-10 -2.87321547e-09)
(0.01099999985 4.997837037e-10 -3.163466132e-09)
(0.0110000019 7.477928509e-10 -2.626708905e-09)
(0.01100000233 1.561151602e-09 -3.926554334e-09)
(0.01100000398 2.499606332e-09 -5.203115359e-09)
(0.0110000082 4.262067834e-09 -9.550166912e-09)
(0.0110000158 6.158640237e-09 -1.311977664e-08)
(0.01100002364 1.12606671e-08 -2.527162654e-08)
(0.01100006227 1.460844552e-08 -4.122146768e-08)
(0.01100005626 1.602648864e-08 -5.525740573e-08)
(0.01100016969 6.340307119e-08 -1.212744247e-07)
(0.01099999947 2.147675602e-09 1.263453647e-09)
(0.0110000008 9.070879294e-11 3.280177035e-10)
(0.0110000022 -1.981267476e-10 -3.831606352e-11)
(0.01099999947 6.57512215e-10 -1.121295591e-09)
(0.0109999992 8.515487775e-10 -7.658075944e-10)
(0.01099999938 2.159728477e-09 -2.326501835e-09)
(0.01100000212 1.507286909e-10 -1.818704732e-09)
(0.01099999875 7.487572755e-11 -1.206513304e-09)
(0.01100000056 -1.797276926e-09 2.394872541e-10)
(0.01100000022 -8.665227119e-09 -1.171049266e-09)
(0.0110000024 -8.002814702e-09 -1.704924271e-09)
(0.01099999739 -2.032708337e-08 -6.51889016e-10)
(0.01100002912 -3.184460391e-08 -6.060873336e-10)
(0.0109999888 -5.733328061e-08 -2.964435108e-09)
(0.01100000047 2.629963104e-10 3.943119407e-10)
(0.01100000073 -3.435985504e-10 5.326539546e-10)
(0.01100000066 -1.153139863e-09 2.643270091e-10)
(0.01099999945 -1.11536049e-09 -8.44780834e-10)
(0.01099999952 -1.171860149e-09 -3.484225983e-10)
(0.01099999814 -2.718932419e-09 -1.27904503e-09)
(0.01099999818 -2.986860613e-09 3.513268678e-10)
(0.01099999742 -5.482973877e-09 -8.844605321e-10)
(0.010999992 -7.344923647e-09 -7.779295693e-10)
(0.01099999245 -1.968055285e-08 1.043776772e-10)
(0.01099998415 -2.965151945e-08 -1.264482452e-09)
(0.01099997168 -8.505767228e-08 -2.340010934e-10)
(0.01099997974 -1.235140189e-07 -4.316826717e-10)
(0.01099987451 -2.906425304e-07 -9.147288572e-10)
(0.01099999923 1.59282644e-10 -1.572227235e-10)
(0.01099999953 -1.107233737e-10 1.726660165e-10)
(0.01100000199 9.099563004e-10 -5.609412921e-10)
(0.01100000142 -9.81148765e-10 -6.225016437e-10)
(0.01100000037 -2.044584332e-09 1.170439467e-09)
(0.01099999941 -1.360263256e-09 -4.497951201e-10)
(0.01099999489 -5.836946646e-09 -2.170313511e-09)
(0.01099999429 -9.205180408e-09 -2.220836145e-09)
(0.01099998054 -1.077048739e-08 -5.48040806e-10)
(0.01099997476 -3.005942521e-08 -2.028275341e-09)
(0.01099992784 -2.958541511e-08 -1.837809352e-09)
(0.01099990362 -1.287751809e-07 -2.125569138e-09)
(0.01099975246 -1.09695299e-07 5.728608025e-11)
(0.0109994686 -5.36836817e-07 2.370801158e-11)
(0.01099999678 -1.308347601e-09 6.751349268e-10)
(0.01100000184 -1.054012877e-09 2.9162803e-10)
(0.01099999967 7.322211092e-10 6.240241652e-10)
(0.011 -1.34076996e-09 1.422119378e-10)
(0.01099999812 -2.273000602e-09 -7.479078304e-10)
(0.0109999971 -1.872237473e-09 5.078425136e-10)
(0.01099999132 -1.295552993e-09 -1.567828851e-09)
(0.01099999078 -9.463314178e-09 -1.262429599e-09)
(0.01099997011 -1.21164464e-08 -1.716904309e-09)
(0.01099996915 -4.002054818e-08 -1.851737432e-09)
(0.01099987289 -5.369660491e-08 -9.551953621e-10)
(0.0109999141 -2.913211206e-07 -1.181973845e-09)
(0.01099936712 -3.843877528e-07 -2.930884114e-10)
(0.01099934488 -2.780728745e-06 2.400029485e-10)
(0.01100000057 1.330244311e-09 7.451953213e-10)
(0.01100000266 1.246006714e-09 9.771385975e-10)
(0.01099999682 7.327259541e-10 4.95274221e-11)
(0.01099999706 -1.040025425e-09 5.199275532e-10)