/*--------------------------------*- C++ -*----------------------------------*\
| =========                 |                                                 |
| \\      /  F ield         | OpenFOAM: The Open Source CFD Toolbox           |
|  \\    /   O peration     | Version:  4.x                                   |
|   \\  /    A nd           | Web:      www.OpenFOAM.org                      |
|    \\/     M anipulation  |                                                 |
\*---------------------------------------------------------------------------*/
FoamFile
{
    version     2.0;
    format      ascii;
    class       volScalarField;
    location    "8000";
    object      X_H2O;
}
// * * * * * * * * * * * * * * * * * * * * * * * * * * * * * * * * * * * * * //

dimensions      [0 0 0 0 0 0 0];

internalField   nonuniform List<scalar> 
1175
(
1.547065743e-06
1.547065802e-06
1.547066238e-06
1.547067871e-06
1.547073908e-06
1.547095295e-06
1.547167448e-06
1.547403478e-06
1.54814586e-06
1.550375863e-06
1.556705162e-06
1.573474679e-06
1.614343849e-06
1.704459853e-06
1.881505109e-06
1.547065764e-06
1.547065831e-06
1.547066416e-06
1.547068404e-06
1.547076161e-06
1.547104117e-06
1.547201096e-06
1.547529998e-06
1.548605445e-06
1.551967969e-06
1.561912926e-06
1.589325839e-06
1.658441212e-06
1.81417338e-06
2.120130025e-06
1.547065888e-06
1.547066027e-06
1.54706657e-06
1.547069398e-06
1.547079985e-06
1.547118913e-06
1.547259701e-06
1.547757253e-06
1.549455644e-06
1.55501476e-06
1.572249138e-06
1.622017201e-06
1.752832587e-06
2.056220507e-06
2.653712638e-06
1.54706606e-06
1.547066063e-06
1.5470671e-06
1.547070411e-06
1.547083767e-06
1.547133893e-06
1.547321109e-06
1.548002688e-06
1.550411491e-06
1.558603458e-06
1.585082575e-06
1.664983916e-06
1.88422915e-06
2.410306069e-06
3.453799326e-06
1.547066013e-06
1.547066267e-06
1.547067278e-06
1.54707096e-06
1.547085382e-06
1.547140613e-06
1.547349157e-06
1.548118575e-06
1.550883414e-06
1.560477242e-06
1.592245766e-06
1.690899717e-06
1.970514132e-06
2.662663361e-06
4.052892387e-06
1.547065993e-06
1.547066269e-06
1.54706718e-06
1.547070442e-06
1.547083798e-06
1.547134026e-06
1.54732134e-06
1.548002903e-06
1.550411618e-06
1.558603516e-06
1.585082419e-06
1.664983062e-06
1.884225465e-06
2.410294462e-06
3.453771214e-06
1.547065947e-06
1.54706627e-06
1.54706702e-06
1.547069791e-06
1.547080184e-06
1.547119021e-06
1.547260231e-06
1.547757583e-06
1.549456109e-06
1.555015051e-06
1.572249181e-06
1.622016152e-06
1.752828355e-06
2.056206606e-06
2.653678643e-06
1.547066261e-06
1.547066264e-06
1.547066673e-06
1.547068824e-06
1.547076419e-06
1.54710431e-06
1.547201401e-06
1.547530471e-06
1.548605773e-06
1.551968475e-06
1.561912966e-06
1.589324604e-06
1.658436524e-06
1.814158897e-06
2.120096127e-06
1.547066036e-06
1.547066116e-06
1.547066723e-06
1.547068361e-06
1.547074397e-06
1.547095728e-06
1.547167821e-06
1.54740375e-06
1.548146255e-06
1.550376196e-06
1.556705181e-06
1.573473835e-06
1.614339621e-06
1.704446465e-06
1.881471842e-06
1.547065797e-06
1.547065802e-06
1.54706658e-06
1.547068581e-06
1.547076276e-06
1.547104165e-06
1.547201235e-06
1.547529938e-06
1.548605323e-06
1.551968255e-06
1.561913223e-06
1.58932729e-06
1.658447093e-06
1.814197034e-06
1.547065778e-06
1.547065947e-06
1.547066861e-06
1.547069415e-06
1.547079316e-06
1.547116918e-06
1.547252933e-06
1.547735487e-06
1.54939219e-06
1.554853026e-06
1.571922324e-06
1.621649221e-06
1.753463655e-06
2.061083223e-06
2.667425916e-06
1.547065931e-06
1.547066282e-06
1.547067051e-06
1.547070535e-06
1.547084793e-06
1.54713928e-06
1.547346918e-06
1.548120174e-06
1.550924274e-06
1.560731364e-06
1.593379191e-06
1.694846677e-06
1.98092454e-06
2.681354649e-06
4.076267172e-06
1.547066157e-06
1.547066323e-06
1.547067503e-06
1.547071991e-06
1.547090229e-06
1.547162845e-06
1.547449117e-06
1.548558954e-06
1.552771582e-06
1.568292832e-06
1.623089135e-06
1.804819309e-06
2.35334849e-06
3.781752697e-06
6.696910919e-06
1.547066119e-06
1.547066655e-06
1.547067667e-06
1.547072444e-06
1.547092791e-06
1.547173845e-06
1.547498004e-06
1.548779364e-06
1.553762369e-06
1.572689667e-06
1.642148674e-06
1.884051352e-06
2.659372871e-06
4.817912911e-06
9.426277179e-06
1.547066315e-06
1.547066585e-06
1.547067581e-06
1.547072148e-06
1.547090392e-06
1.547162851e-06
1.547449206e-06
1.548559023e-06
1.552771679e-06
1.568292825e-06
1.623089111e-06
1.804818013e-06
2.353340713e-06
3.781719161e-06
6.696813268e-06
1.547066374e-06
1.547066473e-06
1.54706733e-06
1.547070917e-06
1.547085034e-06
1.547139537e-06
1.547347227e-06
1.548120384e-06
1.550924286e-06
1.560731485e-06
1.593379067e-06
1.694844329e-06
1.980912124e-06
2.681307602e-06
4.076141565e-06
1.547066222e-06
1.547066321e-06
1.547066922e-06
1.547069504e-06
1.547079702e-06
1.547117138e-06
1.547253316e-06
1.547735961e-06
1.549392445e-06
1.554853072e-06
1.571921659e-06
1.621645995e-06
1.75345078e-06
2.061038556e-06
2.667303378e-06
1.547066279e-06
1.547066369e-06
1.547066786e-06
1.547068752e-06
1.54707662e-06
1.547104327e-06
1.547201441e-06
1.547530397e-06
1.548605614e-06
1.55196821e-06
1.561912897e-06
1.589325118e-06
1.658437407e-06
1.814160531e-06
2.120097987e-06
1.547065692e-06
1.547065933e-06
1.54706674e-06
1.547069418e-06
1.547079961e-06
1.547118793e-06
1.547259765e-06
1.547757398e-06
1.549456064e-06
1.555015183e-06
1.572250596e-06
1.622022396e-06
1.752851044e-06
2.056281857e-06
1.547065951e-06
1.54706628e-06
1.547067013e-06
1.547070661e-06
1.54708479e-06
1.547139396e-06
1.547346952e-06
1.548120076e-06
1.550924306e-06
1.560731491e-06
1.593380543e-06
1.694851996e-06
1.980947382e-06
2.681453504e-06
1.54706603e-06
1.5470663e-06
1.547067511e-06
1.547072563e-06
1.547093096e-06
1.547176203e-06
1.547509931e-06
1.548830348e-06
1.553948599e-06
1.573217939e-06
1.642721606e-06
1.877993327e-06
2.601170731e-06
4.510435671e-06
8.423372371e-06
1.547066302e-06
1.547066537e-06
1.547067995e-06
1.547074492e-06
1.547101904e-06
1.547216625e-06
1.547696716e-06
1.549692946e-06
1.557892903e-06
1.59091946e-06
1.719771128e-06
2.197147454e-06
3.820316128e-06
8.570709895e-06
1.895788147e-05
1.547066297e-06
1.547066634e-06
1.547068246e-06
1.547075311e-06
1.547105763e-06
1.547235853e-06
1.547790712e-06
1.550158959e-06
1.560219621e-06
1.602570815e-06
1.777727895e-06
2.478731598e-06
5.115831879e-06
1.38777981e-05
3.561065986e-05
1.547066491e-06
1.547066648e-06
1.5470681e-06
1.547074691e-06
1.547101855e-06
1.547216541e-06
1.54769695e-06
1.549693204e-06
1.557893016e-06
1.590919265e-06
1.719769693e-06
2.197137852e-06
3.82026675e-06
8.570495271e-06
1.895720447e-05
1.547066435e-06
1.547066737e-06
1.547067756e-06
1.547072859e-06
1.547093358e-06
1.547176456e-06
1.547510253e-06
1.548830675e-06
1.553948921e-06
1.57321802e-06
1.64272048e-06
1.877983506e-06
2.601120524e-06
4.510220905e-06
8.422678442e-06
1.547066478e-06
1.547066611e-06
1.547067285e-06
1.547070809e-06
1.547084912e-06
1.547139448e-06
1.54734712e-06
1.548120544e-06
1.550924357e-06
1.560731548e-06
1.593379322e-06
1.694845104e-06
1.98091395e-06
2.68130964e-06
4.076137242e-06
1.547066235e-06
1.54706645e-06
1.547066937e-06
1.547069832e-06
1.54708035e-06
1.547119146e-06
1.547260136e-06
1.547757835e-06
1.549456198e-06
1.555015342e-06
1.572249865e-06
1.622017696e-06
1.752831269e-06
2.056211054e-06
2.653681838e-06
1.547065808e-06
1.54706605e-06
1.547066928e-06
1.54707031e-06
1.547083688e-06
1.547133868e-06
1.547321011e-06
1.548002684e-06
1.550411482e-06
1.558604017e-06
1.585085406e-06
1.664994777e-06
1.884267551e-06
2.41042671e-06
1.547065923e-06
1.547066407e-06
1.547067267e-06
1.547071984e-06
1.547090039e-06
1.547162896e-06
1.547449107e-06
1.548559013e-06
1.552771766e-06
1.568293774e-06
1.623093833e-06
1.804838989e-06
2.353427029e-06
3.782043996e-06
1.547066341e-06
1.547066543e-06
1.547068006e-06
1.547074563e-06
1.547101722e-06
1.547216414e-06
1.547696624e-06
1.549693074e-06
1.557893066e-06
1.590920666e-06
1.71977715e-06
2.197176363e-06
3.820457209e-06
8.571399844e-06
1.547066404e-06
1.547066865e-06
1.547068687e-06
1.547077075e-06
1.5471142e-06
1.547276787e-06
1.547992866e-06
1.551152405e-06
1.565091733e-06
1.626257947e-06
1.890757993e-06
2.999345149e-06
7.36351711e-06
2.246677877e-05
6.095320083e-05
1.547066659e-06
1.547066998e-06
1.54706899e-06
1.547078421e-06
1.547119939e-06
1.547306741e-06
1.548150207e-06
1.552000771e-06
1.569784843e-06
1.652846866e-06
2.044200902e-06
3.89075801e-06
1.245602854e-05
4.967239594e-05
0.0001784343332
1.54706649e-06
1.547066926e-06
1.547068654e-06
1.547077141e-06
1.547114314e-06
1.547276822e-06
1.547992887e-06
1.551152581e-06
1.565091863e-06
1.626257746e-06
1.890754228e-06
2.999317413e-06
7.363334949e-06
2.246572355e-05
6.094848057e-05
1.547066426e-06
1.54706689e-06
1.547068257e-06
1.547074663e-06
1.547101927e-06
1.547216548e-06
1.547696857e-06
1.549693357e-06
1.557893223e-06
1.590920264e-06
1.719773158e-06
2.197149529e-06
3.820300818e-06
8.570569023e-06
1.89572652e-05
1.547066416e-06
1.547066707e-06
1.547067716e-06
1.547072161e-06
1.547090445e-06
1.547163211e-06
1.547449518e-06
1.548559437e-06
1.55277205e-06
1.568293714e-06
1.623091083e-06
1.804824042e-06
2.353355428e-06
3.781744994e-06
6.696825487e-06
1.547066193e-06
1.547066534e-06
1.547067206e-06
1.547070624e-06
1.54708398e-06
1.547134144e-06
1.547321441e-06
1.548002921e-06
1.550411917e-06
1.558604049e-06
1.585084013e-06
1.664987167e-06
1.884234693e-06
2.41031004e-06
3.453784506e-06
1.547066046e-06
1.547066177e-06
1.547067e-06
1.547070743e-06
1.547085144e-06
1.547140533e-06
1.547348909e-06
1.548118547e-06
1.550883747e-06
1.560478488e-06
1.592250387e-06
1.690916342e-06
1.970571453e-06
2.662838272e-06
1.547065937e-06
1.547066362e-06
1.547067616e-06
1.547072366e-06
1.547092328e-06
1.547173554e-06
1.547497889e-06
1.548779305e-06
1.553762727e-06
1.572691502e-06
1.642156932e-06
1.884086895e-06
2.659513953e-06
4.818420837e-06
1.547066214e-06
1.547066451e-06
1.547068208e-06
1.54707523e-06
1.547105497e-06
1.547235472e-06
1.547790791e-06
1.550158966e-06
1.560220183e-06
1.602574463e-06
1.777745189e-06
2.478816132e-06
5.116238152e-06
1.387964218e-05
1.547066447e-06
1.547066836e-06
1.547068928e-06
1.54707815e-06
1.547119918e-06
1.547306516e-06
1.54814996e-06
1.552000818e-06
1.569785354e-06
1.652850566e-06
2.044222823e-06
3.890890779e-06
1.245687103e-05
4.967807443e-05
1.547066775e-06
1.547067233e-06
1.547069518e-06
1.547079672e-06
1.547126818e-06
1.547342605e-06
1.548347792e-06
1.553130581e-06
1.576545515e-06
1.695433671e-06
2.327723997e-06
5.888231917e-06
2.732875062e-05
0.0001663293482
0.001142555081
1.547066846e-06
1.547067173e-06
1.547069204e-06
1.547078396e-06
1.547120069e-06
1.547306644e-06
1.548150205e-06
1.55200087e-06
1.569785459e-06
1.652849785e-06
2.044214638e-06
3.890821755e-06
1.245631379e-05
4.967345479e-05
0.0001784354692
1.547066355e-06
1.547066865e-06
1.547068435e-06
1.547075516e-06
1.54710597e-06
1.547235815e-06
1.54779084e-06
1.550159021e-06
1.56022015e-06
1.602572989e-06
1.777736237e-06
2.478763659e-06
5.115942085e-06
1.387808244e-05
3.561085213e-05
1.547066261e-06
1.547066459e-06
1.547067845e-06
1.547072736e-06
1.547092668e-06
1.547173755e-06
1.547498022e-06
1.54877956e-06
1.553762651e-06
1.572690996e-06
1.642152579e-06
1.884064468e-06
2.659408792e-06
4.817983813e-06
9.426314445e-06
1.54706601e-06
1.547066312e-06
1.547067292e-06
1.547070883e-06
1.547085466e-06
1.547140774e-06
1.547349382e-06
1.548118869e-06
1.55088409e-06
1.56047823e-06
1.592248079e-06
1.69090528e-06
1.970527492e-06
2.662685647e-06
4.052903879e-06
1.547065907e-06
1.547066235e-06
1.54706694e-06
1.547070353e-06
1.547083362e-06
1.547133792e-06
1.547321122e-06
1.548002723e-06
1.550411636e-06
1.558604375e-06
1.585086511e-06
1.664997685e-06
1.884273146e-06
2.410431061e-06
1.547066006e-06
1.547066158e-06
1.547067309e-06
1.547071924e-06
1.547090101e-06
1.547162971e-06
1.547449068e-06
1.548559085e-06
1.552772182e-06
1.568294587e-06
1.623096418e-06
1.804847484e-06
2.353447456e-06
3.782063032e-06
1.547066078e-06
1.5470663e-06
1.547067937e-06
1.547074489e-06
1.547101613e-06
1.547216421e-06
1.547696738e-06
1.549693046e-06
1.557893563e-06
1.590922854e-06
1.719785716e-06
2.197208161e-06
3.820557132e-06
8.571573451e-06
1.547066516e-06
1.547066902e-06
1.547068703e-06
1.547076999e-06
1.547113959e-06
1.547276645e-06
1.547992713e-06
1.551152496e-06
1.565092706e-06
1.626262195e-06
1.890777224e-06
2.999436846e-06
7.363940968e-06
2.246858124e-05
1.547066531e-06
1.547066916e-06
1.547068901e-06
1.547078224e-06
1.547119851e-06
1.547306697e-06
1.548150081e-06
1.552000933e-06
1.569786154e-06
1.652852739e-06
2.044232643e-06
3.890936879e-06
1.245707604e-05
4.967876408e-05
1.547066685e-06
1.547066962e-06
1.547068737e-06
1.547077064e-06
1.547114025e-06
1.547276715e-06
1.54799277e-06
1.551152696e-06
1.565092895e-06
1.626261482e-06
1.890772803e-06
2.999410367e-06
7.363801538e-06
2.246805058e-05
1.547066487e-06
1.547066775e-06
1.547068111e-06
1.547074595e-06
1.547101746e-06
1.547216621e-06
1.54769692e-06
1.549693353e-06
1.557893739e-06
1.590922028e-06
1.719780883e-06
2.197183038e-06
3.820437794e-06
8.571066581e-06
1.895887111e-05
1.5470662e-06
1.547066487e-06
1.547067649e-06
1.547072081e-06
1.547090165e-06
1.547163067e-06
1.54744938e-06
1.54855934e-06
1.552772114e-06
1.568294375e-06
1.623094017e-06
1.804834051e-06
2.353389436e-06
3.781847552e-06
6.697062822e-06
1.547066109e-06
1.547066292e-06
1.54706715e-06
1.547070577e-06
1.547083756e-06
1.547134071e-06
1.547321243e-06
1.548003156e-06
1.550411895e-06
1.558604281e-06
1.585085016e-06
1.664990361e-06
1.884244368e-06
2.41033436e-06
3.453830115e-06
1.54706585e-06
1.547065957e-06
1.547066652e-06
1.547069525e-06
1.547080045e-06
1.547118852e-06
1.547259906e-06
1.547757412e-06
1.549455858e-06
1.555015616e-06
1.572251928e-06
1.622025964e-06
1.752858095e-06
2.056287432e-06
1.547066022e-06
1.547065973e-06
1.547066884e-06
1.547070543e-06
1.547084778e-06
1.547139282e-06
1.547346943e-06
1.548120334e-06
1.550924525e-06
1.560732734e-06
1.5933841e-06
1.694862418e-06
1.980972551e-06
2.681484245e-06
1.547066075e-06
1.547066299e-06
1.547067356e-06
1.547072357e-06
1.547093092e-06
1.547176287e-06
1.547510164e-06
1.548830778e-06
1.553949371e-06
1.573220177e-06
1.642730567e-06
1.87802387e-06
2.601266366e-06
4.510687518e-06
1.547066376e-06
1.547066678e-06
1.547068006e-06
1.547074493e-06
1.547101792e-06
1.547216505e-06
1.54769676e-06
1.549693338e-06
1.557893823e-06
1.590923338e-06
1.719787717e-06
2.197214398e-06
3.820570229e-06
8.571572533e-06
1.547066504e-06
1.547066712e-06
1.547068427e-06
1.547075313e-06
1.547105717e-06
1.547235655e-06
1.547790764e-06
1.550159303e-06
1.560220945e-06
1.602575802e-06
1.777749321e-06
2.478830598e-06
5.116272649e-06
1.38796084e-05
1.547066628e-06
1.547066762e-06
1.54706801e-06
1.547074398e-06
1.547101703e-06
1.54721649e-06
1.547697063e-06
1.549693498e-06
1.557894029e-06
1.590923315e-06
1.719785968e-06
2.197205557e-06
3.820533581e-06
8.571456687e-06
1.547066452e-06
1.54706674e-06
1.547067783e-06
1.547072853e-06
1.547093415e-06
1.547176683e-06
1.547510367e-06
1.548830686e-06
1.553949494e-06
1.573220066e-06
1.642728284e-06
1.878014215e-06
2.601233523e-06
4.510624151e-06
1.547066241e-06
1.547066378e-06
1.547067319e-06
1.547070903e-06
1.547085011e-06
1.547139574e-06
1.547347205e-06
1.548120635e-06
1.550924808e-06
1.560732594e-06
1.593382801e-06
1.694856246e-06
1.980949528e-06
2.681413997e-06
4.076404627e-06
1.54706616e-06
1.547066205e-06
1.54706698e-06
1.547069744e-06
1.547080226e-06
1.54711916e-06
1.547260223e-06
1.547757674e-06
1.549456251e-06
1.555015599e-06
1.572251239e-06
1.622022335e-06
1.752844394e-06
2.05624396e-06
2.65374611e-06
1.547065825e-06
1.547066012e-06
1.547066555e-06
1.547068498e-06
1.547076342e-06
1.547104168e-06
1.547201086e-06
1.547530043e-06
1.548605478e-06
1.551968489e-06
1.561914261e-06
1.589330125e-06
1.658453078e-06
1.814201987e-06
1.547065893e-06
1.547065856e-06
1.547066705e-06
1.547069258e-06
1.547079387e-06
1.547116941e-06
1.547253127e-06
1.547735801e-06
1.549392602e-06
1.554853642e-06
1.571924543e-06
1.62165573e-06
1.753480332e-06
2.061119171e-06
1.547066111e-06
1.547066115e-06
1.547066977e-06
1.547070602e-06
1.547084687e-06
1.547139438e-06
1.547347071e-06
1.548120533e-06
1.55092463e-06
1.560732878e-06
1.593384502e-06
1.694863362e-06
1.980973877e-06
2.681484047e-06
1.547066241e-06
1.547066481e-06
1.547067619e-06
1.54707195e-06
1.547090249e-06
1.547163033e-06
1.547449259e-06
1.548559366e-06
1.552772263e-06
1.56829525e-06
1.623098317e-06
1.80485219e-06
2.353456844e-06
3.782068074e-06
1.547066439e-06
1.547066728e-06
1.547067757e-06
1.54707242e-06
1.547092727e-06
1.547173635e-06
1.547498113e-06
1.548779611e-06
1.553763124e-06
1.572692546e-06
1.642159707e-06
1.884094515e-06
2.659527585e-06
4.818406953e-06
1.54706642e-06
1.547066563e-06
1.547067568e-06
1.5470721e-06
1.547090365e-06
1.547163258e-06
1.547449496e-06
1.548559473e-06
1.552772477e-06
1.568295323e-06
1.623097764e-06
1.804849423e-06
2.353445986e-06
3.782036596e-06
1.547066309e-06
1.547066393e-06
1.547067306e-06
1.54707097e-06
1.547084997e-06
1.547139576e-06
1.547347108e-06
1.548120448e-06
1.550924814e-06
1.560733e-06
1.593384004e-06
1.69486066e-06
1.980965396e-06
2.68146807e-06
1.547066162e-06
1.547066322e-06
1.547066967e-06
1.547069659e-06
1.547079728e-06
1.547117151e-06
1.547253331e-06
1.54773589e-06
1.549392731e-06
1.554853749e-06
1.571924368e-06
1.621653922e-06
1.753475074e-06
2.061113166e-06
1.547065913e-06
1.54706617e-06
1.547066787e-06
1.54706885e-06
1.547076589e-06
1.547104314e-06
1.547201432e-06
1.54753049e-06
1.548605933e-06
1.551968652e-06
1.561914142e-06
1.589328879e-06
1.658448166e-06
1.81418836e-06
2.120160966e-06
1.547065632e-06
1.547065712e-06
1.547066322e-06
1.547067866e-06
1.547074086e-06
1.547095349e-06
1.547167514e-06
1.547403386e-06
1.548145967e-06
1.550376165e-06
1.556706166e-06
1.573477182e-06
1.61434965e-06
1.704471449e-06
1.547065845e-06
1.547065962e-06
1.547066431e-06
1.54706852e-06
1.54707612e-06
1.547104104e-06
1.54720115e-06
1.547530106e-06
1.548605564e-06
1.551968583e-06
1.56191456e-06
1.589330428e-06
1.658453434e-06
1.814202133e-06
1.547065995e-06
1.547066216e-06
1.547066832e-06
1.547069553e-06
1.547080132e-06
1.547119105e-06
1.547260109e-06
1.547757666e-06
1.54945607e-06
1.555015865e-06
1.57225262e-06
1.622027279e-06
1.752860152e-06
2.056289024e-06
1.547065976e-06
1.547066289e-06
1.547067031e-06
1.547070513e-06
1.547083729e-06
1.547134129e-06
1.547321509e-06
1.548003126e-06
1.550411982e-06
1.558605048e-06
1.585087977e-06
1.665001037e-06
1.884279013e-06
2.410436576e-06
1.547066341e-06
1.547066567e-06
1.547067237e-06
1.54707112e-06
1.547085494e-06
1.547140623e-06
1.547349141e-06
1.548118752e-06
1.550884175e-06
1.560479225e-06
1.592252182e-06
1.690920208e-06
1.970577302e-06
2.66283551e-06
1.547066292e-06
1.547066579e-06
1.547067303e-06
1.547070688e-06
1.547083908e-06
1.547134102e-06
1.547321526e-06
1.548003197e-06
1.550412225e-06
1.558605245e-06
1.5850878e-06
1.66500021e-06
1.884276233e-06
2.410428221e-06
1.547066205e-06
1.547066411e-06
1.547066941e-06
1.5470697e-06
1.547080159e-06
1.547119142e-06
1.547260231e-06
1.547757674e-06
1.549456556e-06
1.555016099e-06
1.57225267e-06
1.622026542e-06
1.752857598e-06
2.056283037e-06
1.547066221e-06
1.547066149e-06
1.547066614e-06
1.547068837e-06
1.54707663e-06
1.547104398e-06
1.547201519e-06
1.547530407e-06
1.548605925e-06
1.551968996e-06
1.561914562e-06
1.589329789e-06
1.658451428e-06
1.814199323e-06
1.547065988e-06
1.547066013e-06
1.547066473e-06
1.547068162e-06
1.547074343e-06
1.547095625e-06
1.547167974e-06
1.547403833e-06
1.548146372e-06
1.550376528e-06
1.556706372e-06
1.573476946e-06
1.614348351e-06
1.704471071e-06
)
;

boundaryField
{
    top
    {
        type            calculated;
        value           nonuniform List<scalar> 
134
(
1.547066036e-06
1.547066279e-06
1.547066235e-06
1.547066193e-06
1.54706601e-06
1.547066109e-06
1.54706616e-06
1.547065913e-06
1.547065988e-06
1.547066116e-06
1.547066369e-06
1.54706645e-06
1.547066534e-06
1.547066312e-06
1.547066292e-06
1.547066205e-06
1.54706617e-06
1.547066013e-06
1.547066723e-06
1.547066786e-06
1.547066937e-06
1.547067206e-06
1.547067292e-06
1.54706715e-06
1.54706698e-06
1.547066787e-06
1.547066473e-06
1.547068361e-06
1.547068752e-06
1.547069832e-06
1.547070624e-06
1.547070883e-06
1.547070577e-06
1.547069744e-06
1.54706885e-06
1.547068162e-06
1.547074397e-06
1.54707662e-06
1.54708035e-06
1.54708398e-06
1.547085466e-06
1.547083756e-06
1.547080226e-06
1.547076589e-06
1.547074343e-06
1.547095728e-06
1.547104327e-06
1.547119146e-06
1.547134144e-06
1.547140774e-06
1.547134071e-06
1.54711916e-06
1.547104314e-06
1.547095625e-06
1.547167821e-06
1.547201441e-06
1.547260136e-06
1.547321441e-06
1.547349382e-06
1.547321243e-06
1.547260223e-06
1.547201432e-06
1.547167974e-06
1.54740375e-06
1.547530397e-06
1.547757835e-06
1.548002921e-06
1.548118869e-06
1.548003156e-06
1.547757674e-06
1.54753049e-06
1.547403833e-06
1.548146255e-06
1.548605614e-06
1.549456198e-06
1.550411917e-06
1.55088409e-06
1.550411895e-06
1.549456251e-06
1.548605933e-06
1.548146372e-06
1.550376196e-06
1.55196821e-06
1.555015342e-06
1.558604049e-06
1.56047823e-06
1.558604281e-06
1.555015599e-06
1.551968652e-06
1.550376528e-06
1.556705181e-06
1.561912897e-06
1.572249865e-06
1.585084013e-06
1.592248079e-06
1.585085016e-06
1.572251239e-06
1.561914142e-06
1.556706372e-06
1.573473835e-06
1.589325118e-06
1.622017696e-06
1.664987167e-06
1.69090528e-06
1.664990361e-06
1.622022335e-06
1.589328879e-06
1.573476946e-06
1.614339621e-06
1.658437407e-06
1.752831269e-06
1.884234693e-06
1.970527492e-06
1.884244368e-06
1.752844394e-06
1.658448166e-06
1.614348351e-06
1.704446465e-06
1.814160531e-06
2.056211054e-06
2.41031004e-06
2.662685647e-06
2.41033436e-06
2.05624396e-06
1.81418836e-06
1.704471071e-06
1.881471842e-06
2.120097987e-06
2.653681838e-06
3.453784506e-06
4.052903879e-06
3.453830115e-06
2.65374611e-06
2.120160966e-06
)
;
    }
    bottom
    {
        type            calculated;
        value           nonuniform List<scalar> 
127
(
1.547065743e-06
1.547065797e-06
1.547065692e-06
1.547065808e-06
1.547066046e-06
1.547065907e-06
1.54706585e-06
1.547065825e-06
1.547065632e-06
1.547065802e-06
1.547065802e-06
1.547065933e-06
1.54706605e-06
1.547066177e-06
1.547066235e-06
1.547065957e-06
1.547066012e-06
1.547065712e-06
1.547066238e-06
1.54706658e-06
1.54706674e-06
1.547066928e-06
1.547067e-06
1.54706694e-06
1.547066652e-06
1.547066555e-06
1.547066322e-06
1.547067871e-06
1.547068581e-06
1.547069418e-06
1.54707031e-06
1.547070743e-06
1.547070353e-06
1.547069525e-06
1.547068498e-06
1.547067866e-06
1.547073908e-06
1.547076276e-06
1.547079961e-06
1.547083688e-06
1.547085144e-06
1.547083362e-06
1.547080045e-06
1.547076342e-06
1.547074086e-06
1.547095295e-06
1.547104165e-06
1.547118793e-06
1.547133868e-06
1.547140533e-06
1.547133792e-06
1.547118852e-06
1.547104168e-06
1.547095349e-06
1.547167448e-06
1.547201235e-06
1.547259765e-06
1.547321011e-06
1.547348909e-06
1.547321122e-06
1.547259906e-06
1.547201086e-06
1.547167514e-06
1.547403478e-06
1.547529938e-06
1.547757398e-06
1.548002684e-06
1.548118547e-06
1.548002723e-06
1.547757412e-06
1.547530043e-06
1.547403386e-06
1.54814586e-06
1.548605323e-06
1.549456064e-06
1.550411482e-06
1.550883747e-06
1.550411636e-06
1.549455858e-06
1.548605478e-06
1.548145967e-06
1.550375863e-06
1.551968255e-06
1.555015183e-06
1.558604017e-06
1.560478488e-06
1.558604375e-06
1.555015616e-06
1.551968489e-06
1.550376165e-06
1.556705162e-06
1.561913223e-06
1.572250596e-06
1.585085406e-06
1.592250387e-06
1.585086511e-06
1.572251928e-06
1.561914261e-06
1.556706166e-06
1.573474679e-06
1.58932729e-06
1.622022396e-06
1.664994777e-06
1.690916342e-06
1.664997685e-06
1.622025964e-06
1.589330125e-06
1.573477182e-06
1.614343849e-06
1.658447093e-06
1.752851044e-06
1.884267551e-06
1.970571453e-06
1.884273146e-06
1.752858095e-06
1.658453078e-06
1.61434965e-06
1.704459853e-06
1.814197034e-06
2.056281857e-06
2.41042671e-06
2.662838272e-06
2.410431061e-06
2.056287432e-06
1.814201987e-06
1.704471449e-06
1.881505109e-06
)
;
    }
    side-walls
    {
        type            calculated;
        value           nonuniform List<scalar> 
261
(
1.547065743e-06
1.547065764e-06
1.547065888e-06
1.54706606e-06
1.547066013e-06
1.547065993e-06
1.547065947e-06
1.547066261e-06
1.547066036e-06
1.547065802e-06
1.547065831e-06
1.547066027e-06
1.547066063e-06
1.547066267e-06
1.547066269e-06
1.54706627e-06
1.547066264e-06
1.547066116e-06
1.547066238e-06
1.547066416e-06
1.54706657e-06
1.5470671e-06
1.547067278e-06
1.54706718e-06
1.54706702e-06
1.547066673e-06
1.547066723e-06
1.547067871e-06
1.547068404e-06
1.547069398e-06
1.547070411e-06
1.54707096e-06
1.547070442e-06
1.547069791e-06
1.547068824e-06
1.547068361e-06
1.547073908e-06
1.547076161e-06
1.547079985e-06
1.547083767e-06
1.547085382e-06
1.547083798e-06
1.547080184e-06
1.547076419e-06
1.547074397e-06
1.547095295e-06
1.547104117e-06
1.547118913e-06
1.547133893e-06
1.547140613e-06
1.547134026e-06
1.547119021e-06
1.54710431e-06
1.547095728e-06
1.547167448e-06
1.547201096e-06
1.547259701e-06
1.547321109e-06
1.547349157e-06
1.54732134e-06
1.547260231e-06
1.547201401e-06
1.547167821e-06
1.547403478e-06
1.547529998e-06
1.547757253e-06
1.548002688e-06
1.548118575e-06
1.548002903e-06
1.547757583e-06
1.547530471e-06
1.54740375e-06
1.54814586e-06
1.548605445e-06
1.549455644e-06
1.550411491e-06
1.550883414e-06
1.550411618e-06
1.549456109e-06
1.548605773e-06
1.548146255e-06
1.550375863e-06
1.551967969e-06
1.55501476e-06
1.558603458e-06
1.560477242e-06
1.558603516e-06
1.555015051e-06
1.551968475e-06
1.550376196e-06
1.556705162e-06
1.561912926e-06
1.572249138e-06
1.585082575e-06
1.592245766e-06
1.585082419e-06
1.572249181e-06
1.561912966e-06
1.556705181e-06
1.573474679e-06
1.589325839e-06
1.622017201e-06
1.664983916e-06
1.690899717e-06
1.664983062e-06
1.622016152e-06
1.589324604e-06
1.573473835e-06
1.614343849e-06
1.658441212e-06
1.752832587e-06
1.88422915e-06
1.970514132e-06
1.884225465e-06
1.752828355e-06
1.658436524e-06
1.614339621e-06
1.704459853e-06
1.81417338e-06
2.056220507e-06
2.410306069e-06
2.662663361e-06
2.410294462e-06
2.056206606e-06
1.814158897e-06
1.704446465e-06
1.881505109e-06
2.120130025e-06
2.653712638e-06
3.453799326e-06
4.052892387e-06
3.453771214e-06
2.653678643e-06
2.120096127e-06
1.881471842e-06
1.547065632e-06
1.547065845e-06
1.547065995e-06
1.547065976e-06
1.547066341e-06
1.547066292e-06
1.547066205e-06
1.547066221e-06
1.547065988e-06
1.547065712e-06
1.547065962e-06
1.547066216e-06
1.547066289e-06
1.547066567e-06
1.547066579e-06
1.547066411e-06
1.547066149e-06
1.547066013e-06
1.547066322e-06
1.547066431e-06
1.547066832e-06
1.547067031e-06
1.547067237e-06
1.547067303e-06
1.547066941e-06
1.547066614e-06
1.547066473e-06
1.547067866e-06
1.54706852e-06
1.547069553e-06
1.547070513e-06
1.54707112e-06
1.547070688e-06
1.5470697e-06
1.547068837e-06
1.547068162e-06
1.547074086e-06
1.54707612e-06
1.547080132e-06
1.547083729e-06
1.547085494e-06
1.547083908e-06
1.547080159e-06
1.54707663e-06
1.547074343e-06
1.547095349e-06
1.547104104e-06
1.547119105e-06
1.547134129e-06
1.547140623e-06
1.547134102e-06
1.547119142e-06
1.547104398e-06
1.547095625e-06
1.547167514e-06
1.54720115e-06
1.547260109e-06
1.547321509e-06
1.547349141e-06
1.547321526e-06
1.547260231e-06
1.547201519e-06
1.547167974e-06
1.547403386e-06
1.547530106e-06
1.547757666e-06
1.548003126e-06
1.548118752e-06
1.548003197e-06
1.547757674e-06
1.547530407e-06
1.547403833e-06
1.548145967e-06
1.548605564e-06
1.54945607e-06
1.550411982e-06
1.550884175e-06
1.550412225e-06
1.549456556e-06
1.548605925e-06
1.548146372e-06
1.550376165e-06
1.551968583e-06
1.555015865e-06
1.558605048e-06
1.560479225e-06
1.558605245e-06
1.555016099e-06
1.551968996e-06
1.550376528e-06
1.556706166e-06
1.56191456e-06
1.57225262e-06
1.585087977e-06
1.592252182e-06
1.5850878e-06
1.57225267e-06
1.561914562e-06
1.556706372e-06
1.573477182e-06
1.589330428e-06
1.622027279e-06
1.665001037e-06
1.690920208e-06
1.66500021e-06
1.622026542e-06
1.589329789e-06
1.573476946e-06
1.61434965e-06
1.658453434e-06
1.752860152e-06
1.884279013e-06
1.970577302e-06
1.884276233e-06
1.752857598e-06
1.658451428e-06
1.614348351e-06
1.704471449e-06
1.814202133e-06
2.056289024e-06
2.410436576e-06
2.66283551e-06
2.410428221e-06
2.056283037e-06
1.814199323e-06
1.704471071e-06
)
;
    }
    inlet
    {
        type            calculated;
        value           nonuniform List<scalar> 
81
(
1.547065743e-06
1.547065764e-06
1.547065888e-06
1.54706606e-06
1.547066013e-06
1.547065993e-06
1.547065947e-06
1.547066261e-06
1.547066036e-06
1.547065797e-06
1.547065778e-06
1.547065931e-06
1.547066157e-06
1.547066119e-06
1.547066315e-06
1.547066374e-06
1.547066222e-06
1.547066279e-06
1.547065692e-06
1.547065951e-06
1.54706603e-06
1.547066302e-06
1.547066297e-06
1.547066491e-06
1.547066435e-06
1.547066478e-06
1.547066235e-06
1.547065808e-06
1.547065923e-06
1.547066341e-06
1.547066404e-06
1.547066659e-06
1.54706649e-06
1.547066426e-06
1.547066416e-06
1.547066193e-06
1.547066046e-06
1.547065937e-06
1.547066214e-06
1.547066447e-06
1.547066775e-06
1.547066846e-06
1.547066355e-06
1.547066261e-06
1.54706601e-06
1.547065907e-06
1.547066006e-06
1.547066078e-06
1.547066516e-06
1.547066531e-06
1.547066685e-06
1.547066487e-06
1.5470662e-06
1.547066109e-06
1.54706585e-06
1.547066022e-06
1.547066075e-06
1.547066376e-06
1.547066504e-06
1.547066628e-06
1.547066452e-06
1.547066241e-06
1.54706616e-06
1.547065825e-06
1.547065893e-06
1.547066111e-06
1.547066241e-06
1.547066439e-06
1.54706642e-06
1.547066309e-06
1.547066162e-06
1.547065913e-06
1.547065632e-06
1.547065845e-06
1.547065995e-06
1.547065976e-06
1.547066341e-06
1.547066292e-06
1.547066205e-06
1.547066221e-06
1.547065988e-06
)
;
    }
    outlet
    {
        type            calculated;
        value           nonuniform 0();
    }
    procBoundary0to1
    {
        type            processor;
        value           nonuniform List<scalar> 
97
(
2.189142237e-06
2.120159972e-06
2.636746668e-06
3.62424005e-06
5.068834373e-06
6.098329159e-06
5.068797907e-06
3.624199067e-06
2.636709041e-06
2.189116302e-06
2.120159972e-06
2.120159972e-06