/*--------------------------------*- C++ -*----------------------------------*\
| =========                 |                                                 |
| \\      /  F ield         | OpenFOAM: The Open Source CFD Toolbox           |
|  \\    /   O peration     | Version:  4.x                                   |
|   \\  /    A nd           | Web:      www.OpenFOAM.org                      |
|    \\/     M anipulation  |                                                 |
\*---------------------------------------------------------------------------*/
FoamFile
{
    version     2.0;
    format      ascii;
    class       volScalarField;
    location    "1000";
    object      Cpv;
}
// * * * * * * * * * * * * * * * * * * * * * * * * * * * * * * * * * * * * * //

dimensions      [0 2 -2 -1 0 0 0];

internalField   nonuniform List<scalar> 
1175
(
1277.53334
1277.533333
1277.533346
1277.533354
1277.533361
1277.533379
1277.53338
1277.533363
1277.533366
1277.533375
1277.533355
1277.533332
1277.533305
1277.53322
1277.533088
1277.533268
1277.533258
1277.53327
1277.533278
1277.533269
1277.533267
1277.533243
1277.533233
1277.533236
1277.533196
1277.53317
1277.533165
1277.533112
1277.532991
1277.532724
1277.533016
1277.532995
1277.533004
1277.533003
1277.53301
1277.533033
1277.533033
1277.533033
1277.533027
1277.533004
1277.533001
1277.532976
1277.532855
1277.532606
1277.532137
1277.53318
1277.533165
1277.53317
1277.533144
1277.533165
1277.533168
1277.533145
1277.533184
1277.533153
1277.533139
1277.533122
1277.533063
1277.532873
1277.532445
1277.531578
1277.533202
1277.533205
1277.533208
1277.533221
1277.533234
1277.533216
1277.533216
1277.533222
1277.533212
1277.533194
1277.533178
1277.533097
1277.532874
1277.532261
1277.531096
1277.53316
1277.533177
1277.533165
1277.533168
1277.533156
1277.53318
1277.533166
1277.53317
1277.533171
1277.53317
1277.533148
1277.533074
1277.532912
1277.532449
1277.531591
1277.533057
1277.533059
1277.533041
1277.533041
1277.533033
1277.533046
1277.533065
1277.533049
1277.533028
1277.533053
1277.533053
1277.532989
1277.532875
1277.532622
1277.532119
1277.533134
1277.533122
1277.533095
1277.533117
1277.533132
1277.53314
1277.53314
1277.533144
1277.533156
1277.533148
1277.533108
1277.533071
1277.533005
1277.532882
1277.53263
1277.533211
1277.533206
1277.533204
1277.533201
1277.533208
1277.533181
1277.533189
1277.5332
1277.533185
1277.533174
1277.53318
1277.533157
1277.533119
1277.533054
1277.532902
1277.533442
1277.533447
1277.533455
1277.533449
1277.533423
1277.533452
1277.533453
1277.533451
1277.533474
1277.533466
1277.533458
1277.533413
1277.533369
1277.533223
1277.533307
1277.533305
1277.533332
1277.533328
1277.533346
1277.533345
1277.533373
1277.533357
1277.533325
1277.533329
1277.53333
1277.533271
1277.533177
1277.532903
1277.532394
1277.533666
1277.533688
1277.533701
1277.533685
1277.533695
1277.53369
1277.533699
1277.533709
1277.533717
1277.533722
1277.533692
1277.533584
1277.533327
1277.532769
1277.531592
1277.533082
1277.533085
1277.533113
1277.533112
1277.533085
1277.533102
1277.533109
1277.533102
1277.533121
1277.533098
1277.533028
1277.532865
1277.532388
1277.531224
1277.528849
1277.533688
1277.533677
1277.533658
1277.533657
1277.533651
1277.53367
1277.533672
1277.53366
1277.533679
1277.53366
1277.533582
1277.533383
1277.53276
1277.531024
1277.527309
1277.533058
1277.533059
1277.533057
1277.533039
1277.533036
1277.53302
1277.532999
1277.533014
1277.533008
1277.533007
1277.532954
1277.532784
1277.532314
1277.531127
1277.528782
1277.533579
1277.533575
1277.533587
1277.533588
1277.533591
1277.533575
1277.533555
1277.533544
1277.533538
1277.533528
1277.533483
1277.533388
1277.533136
1277.532567
1277.531432
1277.532991
1277.533015
1277.533026
1277.532988
1277.532988
1277.532994
1277.533017
1277.533029
1277.533054
1277.533063
1277.533061
1277.533016
1277.5329
1277.532647
1277.532156
1277.533155
1277.533161
1277.533162
1277.533159
1277.53316
1277.533151
1277.533136
1277.533142
1277.533155
1277.533164
1277.533167
1277.533164
1277.533077
1277.53294
1277.532667
1277.533117
1277.533104
1277.533089
1277.533114
1277.533109
1277.533109
1277.533109
1277.533101
1277.533103
1277.533078
1277.533054
1277.533043
1277.532913
1277.532635
1277.533358
1277.533349
1277.533319
1277.533301
1277.533318
1277.533308
1277.533305
1277.533296
1277.533299
1277.533285
1277.533261
1277.533179
1277.532973
1277.532355
1277.533519
1277.533529
1277.533508
1277.533506
1277.533519
1277.533507
1277.533487
1277.53346
1277.533462
1277.533431
1277.533368
1277.533166
1277.53255
1277.53096
1277.527825
1277.533269
1277.533257
1277.533253
1277.533264
1277.533255
1277.533269
1277.533259
1277.533246
1277.533239
1277.533233
1277.533136
1277.532765
1277.531431
1277.527612
1277.519332
1277.533256
1277.533261
1277.533249
1277.533206
1277.533212
1277.533206
1277.533216
1277.533229
1277.533219
1277.533158
1277.532992
1277.5324
1277.530291
1277.523292
1277.506132
1277.533115
1277.533099
1277.533132
1277.53311
1277.53312
1277.533139
1277.533149
1277.533154
1277.53317
1277.533155
1277.533045
1277.532632
1277.531283
1277.527456
1277.51917
1277.532927
1277.532897
1277.532889
1277.532902
1277.532907
1277.532899
1277.532901
1277.532907
1277.532899
1277.532889
1277.532829
1277.532635
1277.53204
1277.530481
1277.527333
1277.533398
1277.533418
1277.533422
1277.533436
1277.533433
1277.533407
1277.533422
1277.5334
1277.533409
1277.533409
1277.53337
1277.533295
1277.533057
1277.532472
1277.531344
1277.532905
1277.532895
1277.532896
1277.53292
1277.532903
1277.532905
1277.532898
1277.532898
1277.53292
1277.532924
1277.532909
1277.532843
1277.532713
1277.532498
1277.531984
1277.53301
1277.533032
1277.53303
1277.533039
1277.533059
1277.53307
1277.533065
1277.533081
1277.533065
1277.533053
1277.533032
1277.532984
1277.532812
1277.532388
1277.533352
1277.533344
1277.533379
1277.533369
1277.533379
1277.533409
1277.533424
1277.53342
1277.533411
1277.533409
1277.533349
1277.533199
1277.532732
1277.531597
1277.533137
1277.533149
1277.533167
1277.533158
1277.533158
1277.533171
1277.533155
1277.533165
1277.533138
1277.533097
1277.532976
1277.532592
1277.531282
1277.527477
1277.533385
1277.533381
1277.533393
1277.533397
1277.533438
1277.533431
1277.533438
1277.533439
1277.533416
1277.533357
1277.533142
1277.532229
1277.528717
1277.516686
1277.486464
1277.533124
1277.533141
1277.533111
1277.533135
1277.533153
1277.53317
1277.533173
1277.533144
1277.533109
1277.533039
1277.532693
1277.531194
1277.524344
1277.495088
1277.389299
1277.532974
1277.532986
1277.532975
1277.533012
1277.533025
1277.533024
1277.533016
1277.533004
1277.532965
1277.532916
1277.532692
1277.531816
1277.528281
1277.516271
1277.486056
1277.533256
1277.533241
1277.533229
1277.533207
1277.533197
1277.533213
1277.533196
1277.533175
1277.533184
1277.53314
1277.533014
1277.532627
1277.531316
1277.527486
1277.519215
1277.533115
1277.533118
1277.533143
1277.533111
1277.533141
1277.53313
1277.533119
1277.533128
1277.533125
1277.533116
1277.533073
1277.53292
1277.532472
1277.531317
1277.52892
1277.533194
1277.533199
1277.533184
1277.533167
1277.533181
1277.533189
1277.533178
1277.533196
1277.533153
1277.533123
1277.5331
1277.533059
1277.532858
1277.532434
1277.531564
1277.533328
1277.533338
1277.53335
1277.533329
1277.533356
1277.533357
1277.533331
1277.533315
1277.533294
1277.533286
1277.533283
1277.533182
1277.53294
1277.532383
1277.533453
1277.53345
1277.533437
1277.533426
1277.5334
1277.533387
1277.533398
1277.533411
1277.533401
1277.533364
1277.533319
1277.533134
1277.532499
1277.530758
1277.533242
1277.533269
1277.533273
1277.533288
1277.533292
1277.533256
1277.53327
1277.533237
1277.533218
1277.533191
1277.533024
1277.532424
1277.530296
1277.523272
1277.533162
1277.533178
1277.533175
1277.53318
1277.533158
1277.533145
1277.533156
1277.533169
1277.533155
1277.533093
1277.532785
1277.531289
1277.52442
1277.495202
1277.533142
1277.533151
1277.533124
1277.533146
1277.533148
1277.533166
1277.533153
1277.533153
1277.533127
1277.533056
1277.532557
1277.529694
1277.512796
1277.405238
1273.923259
1277.533353
1277.533349
1277.53338
1277.533345
1277.533343
1277.533348
1277.533337
1277.533325
1277.5333
1277.533244
1277.53294
1277.531422
1277.524609
1277.495352
1277.389555
1277.533027
1277.533019
1277.532991
1277.532989
1277.532983
1277.532985
1277.532962
1277.532972
1277.532995
1277.532984
1277.532843
1277.532273
1277.53012
1277.523133
1277.505966
1277.533136
1277.533127
1277.533121
1277.5331
1277.5331
1277.533116
1277.5331
1277.533119
1277.533125
1277.533108
1277.533063
1277.53285
1277.532198
1277.53045
1277.526746
1277.53287
1277.532871
1277.532873
1277.532871
1277.532872
1277.532878
1277.532862
1277.532889
1277.532874
1277.53287
1277.532838
1277.532774
1277.532527
1277.531933
1277.530808
1277.533358
1277.533377
1277.533361
1277.533359
1277.533368
1277.533362
1277.533333
1277.533348
1277.533344
1277.533335
1277.533297
1277.5332
1277.533008
1277.532563
1277.533
1277.532986
1277.532976
1277.533008
1277.533019
1277.53302
1277.533025
1277.533014
1277.533013
1277.532991
1277.532929
1277.532758
1277.532334
1277.531179
1277.533449
1277.533471
1277.533468
1277.533457
1277.53346
1277.533462
1277.53345
1277.533456
1277.533455
1277.533397
1277.533277
1277.532876
1277.531531
1277.527704
1277.532905
1277.532922
1277.532933
1277.532953
1277.532933
1277.532953
1277.532959
1277.532956
1277.532938
1277.532892
1277.532662
1277.531788
1277.528282
1277.516292
1277.533078
1277.533058
1277.533043
1277.533046
1277.533062
1277.533067
1277.533071
1277.533067
1277.533062
1277.533016
1277.532667
1277.531162
1277.524327
1277.495106
1277.533289
1277.533298
1277.533296
1277.533331
1277.533331
1277.53333
1277.533363
1277.533353
1277.53337
1277.533323
1277.533104
1277.532223
1277.528694
1277.516679
1277.533136
1277.533147
1277.533165
1277.533165
1277.533175
1277.533172
1277.533168
1277.533174
1277.533143
1277.533137
1277.533017
1277.532638
1277.531313
1277.527477
1277.519237
1277.533221
1277.533235
1277.533249
1277.533263
1277.533243
1277.533238
1277.533246
1277.533244
1277.533235
1277.533216
1277.533186
1277.533028
1277.532588
1277.531403
1277.529023
1277.532948
1277.532942
1277.532935
1277.532921
1277.532928
1277.532916
1277.532917
1277.532916
1277.532898
1277.532912
1277.532869
1277.53279
1277.532592
1277.532141
1277.531279
1277.53295
1277.532922
1277.532933
1277.532913
1277.532902
1277.532934
1277.532927
1277.532941
1277.532942
1277.532944
1277.532915
1277.532895
1277.532768
1277.532533
1277.5333
1277.533323
1277.533337
1277.53331
1277.53328
1277.53331
1277.533316
1277.53333
1277.533336
1277.533293
1277.533248
1277.533138
1277.532873
1277.532318
1277.532952
1277.532966
1277.532992
1277.533014
1277.532993
1277.533009
1277.533017
1277.533016
1277.532996
1277.532976
1277.532926
1277.532746
1277.532171
1277.53061
1277.533437
1277.533438
1277.53344
1277.53345
1277.533463
1277.533465
1277.533457
1277.533448
1277.533395
1277.533362
1277.533251
1277.53283
1277.53152
1277.527721
1277.533264
1277.533255
1277.53326
1277.533243
1277.533242
1277.533276
1277.533287
1277.533251
1277.533215
1277.533164
1277.532992
1277.532416
1277.530291
1277.52328
1277.532897
1277.532912
1277.532914
1277.532902
1277.532884
1277.532905
1277.5329
1277.532925
1277.532943
1277.532915
1277.532809
1277.532419
1277.531104
1277.527261
1277.533058
1277.533071
1277.533073
1277.533093
1277.533048
1277.533064
1277.533059
1277.53306
1277.533038
1277.533036
1277.532989
1277.532759
1277.532131
1277.530545
1277.533169
1277.533172
1277.533182
1277.533162
1277.53317
1277.533151
1277.533159
1277.533164
1277.533158
1277.533128
1277.533094
1277.532988
1277.532787
1277.532212
1277.531034
1277.533072
1277.533073
1277.533075
1277.533078
1277.533081
1277.53309
1277.533085
1277.533076
1277.533074
1277.533071
1277.533031
1277.532983
1277.532868
1277.532626
1277.532129
1277.533178
1277.533171
1277.533155
1277.533149
1277.533159
1277.533158
1277.533165
1277.533148
1277.53314
1277.533131
1277.533116
1277.53311
1277.533031
1277.532904
1277.532981
1277.532953
1277.53296
1277.532934
1277.532905
1277.532895
1277.532903
1277.532934
1277.532915
1277.532915
1277.532921
1277.532895
1277.532778
1277.532492
1277.533331
1277.533309
1277.533322
1277.533293
1277.53328
1277.533286
1277.533277
1277.533285
1277.533279
1277.533261
1277.533248
1277.533146
1277.532919
1277.532336
1277.533523
1277.533499
1277.533505
1277.53351
1277.533492
1277.53345
1277.533459
1277.53345
1277.53346
1277.533465
1277.533423
1277.533254
1277.532787
1277.531627
1277.53341
1277.533391
1277.533385
1277.533419
1277.533431
1277.533451
1277.533446
1277.533472
1277.533465
1277.533461
1277.533403
1277.533214
1277.532548
1277.530773
1277.533158
1277.533161
1277.533176
1277.533171
1277.533147
1277.533147
1277.533135
1277.533108
1277.533092
1277.533084
1277.533026
1277.532834
1277.532391
1277.531221
1277.532885
1277.532866
1277.532866
1277.532877
1277.532853
1277.532871
1277.532859
1277.532862
1277.532874
1277.532865
1277.532873
1277.532835
1277.532577
1277.532002
1277.533249
1277.533273
1277.533269
1277.533252
1277.533283
1277.533293
1277.533313
1277.53333
1277.533344
1277.533326
1277.533281
1277.533242
1277.533132
1277.53288
1277.533308
1277.533279
1277.533256
1277.533265
1277.533271
1277.533252
1277.533259
1277.533251
1277.533256
1277.533275
1277.53328
1277.533281
1277.533206
1277.533067
1277.5328
1277.533164
1277.533163
1277.533156
1277.533146
1277.533144
1277.533158
1277.53316
1277.533171
1277.533181
1277.533192
1277.533178
1277.533143
1277.533113
1277.533026
1277.5332
1277.533206
1277.533222
1277.533206
1277.533208
1277.533209
1277.533218
1277.533206
1277.533218
1277.533207
1277.533202
1277.533179
1277.533106
1277.532991
1277.533458
1277.533441
1277.533462
1277.533449
1277.533441
1277.533457
1277.533464
1277.53344
1277.533458
1277.53346
1277.533462
1277.533404
1277.53332
1277.533061
1277.533236
1277.53322
1277.533225
1277.533219
1277.533224
1277.533234
1277.533247
1277.533241
1277.533228
1277.533226
1277.533177
1277.533103
1277.53293
1277.532497
1277.533208
1277.533228
1277.533259
1277.533239
1277.533239
1277.533228
1277.533227
1277.533241
1277.533253
1277.533246
1277.533206
1277.533103
1277.532866
1277.532318
1277.53311
1277.533107
1277.533081
1277.533093
1277.533074
1277.533074
1277.533091
1277.533075
1277.533075
1277.533098
1277.533075
1277.532997
1277.532824
1277.532371
1277.532684
1277.532691
1277.532693
1277.532681
1277.532683
1277.532682
1277.532682
1277.532688
1277.532691
1277.53267
1277.532644
1277.532617
1277.5325
1277.532242
1277.533151
1277.533154
1277.533167
1277.533171
1277.533163
1277.533145
1277.533161
1277.533157
1277.533125
1277.533125
1277.533142
1277.533126
1277.533078
1277.532923
1277.533222
1277.533219
1277.533232
1277.533215
1277.533214
1277.533224
1277.533212
1277.533212
1277.533219
1277.533243
1277.533212
1277.533203
1277.533158
1277.533065
)
;

boundaryField
{
    top
    {
        type            calculated;
        value           nonuniform List<scalar> 
134
(
1277.533211
1277.533155
1277.532905
1277.533194
1277.53287
1277.532948
1277.533072
1277.533308
1277.533222
1277.533206
1277.533161
1277.532895
1277.533199
1277.532871
1277.532942
1277.533073
1277.533279
1277.533219
1277.533204
1277.533162
1277.532896
1277.533184
1277.532873
1277.532935
1277.533075
1277.533256
1277.533232
1277.533201
1277.533159
1277.53292
1277.533167
1277.532871
1277.532921
1277.533078
1277.533265
1277.533215
1277.533208
1277.53316
1277.532903
1277.533181
1277.532872
1277.532928
1277.533081
1277.533271
1277.533214
1277.533181
1277.533151
1277.532905
1277.533189
1277.532878
1277.532916
1277.53309
1277.533252
1277.533224
1277.533189
1277.533136
1277.532898
1277.533178
1277.532862
1277.532917
1277.533085
1277.533259
1277.533212
1277.5332
1277.533142
1277.532898
1277.533196
1277.532889
1277.532916
1277.533076
1277.533251
1277.533212
1277.533185
1277.533155
1277.53292
1277.533153
1277.532874
1277.532898
1277.533074
1277.533256
1277.533219
1277.533174
1277.533164
1277.532924
1277.533123
1277.53287
1277.532912
1277.533071
1277.533275
1277.533243
1277.53318
1277.533167
1277.532909
1277.5331
1277.532838
1277.532869
1277.533031
1277.53328
1277.533212
1277.533157
1277.533164
1277.532843
1277.533059
1277.532774
1277.53279
1277.532983
1277.533281
1277.533203
1277.533119
1277.533077
1277.532713
1277.532858
1277.532527
1277.532592
1277.532868
1277.533206
1277.533158
1277.533054
1277.53294
1277.532498
1277.532434
1277.531933
1277.532141
1277.532626
1277.533067
1277.533065
1277.532902
1277.532667
1277.531984
1277.531564
1277.530808
1277.531279
1277.532129
1277.5328
)
;
    }
    bottom
    {
        type            calculated;
        value           nonuniform List<scalar> 
127
(
1277.53334
1277.533442
1277.533117
1277.53301
1277.533328
1277.533358
1277.53295
1277.533178
1277.533164
1277.533333
1277.533447
1277.533104
1277.533032
1277.533338
1277.533377
1277.532922
1277.533171
1277.533163
1277.533346
1277.533455
1277.533089
1277.53303
1277.53335
1277.533361
1277.532933
1277.533155
1277.533156
1277.533354
1277.533449
1277.533114
1277.533039
1277.533329
1277.533359
1277.532913
1277.533149
1277.533146
1277.533361
1277.533423
1277.533109
1277.533059
1277.533356
1277.533368
1277.532902
1277.533159
1277.533144
1277.533379
1277.533452
1277.533109
1277.53307
1277.533357
1277.533362
1277.532934
1277.533158
1277.533158
1277.53338
1277.533453
1277.533109
1277.533065
1277.533331
1277.533333
1277.532927
1277.533165
1277.53316
1277.533363
1277.533451
1277.533101
1277.533081
1277.533315
1277.533348
1277.532941
1277.533148
1277.533171
1277.533366
1277.533474
1277.533103
1277.533065
1277.533294
1277.533344
1277.532942
1277.53314
1277.533181
1277.533375
1277.533466
1277.533078
1277.533053
1277.533286
1277.533335
1277.532944
1277.533131
1277.533192
1277.533355
1277.533458
1277.533054
1277.533032
1277.533283
1277.533297
1277.532915
1277.533116
1277.533178
1277.533332
1277.533413
1277.533043
1277.532984
1277.533182
1277.5332
1277.532895
1277.53311
1277.533143
1277.533305
1277.533369
1277.532913
1277.532812
1277.53294
1277.533008
1277.532768
1277.533031
1277.533113
1277.53322
1277.533223
1277.532635
1277.532388
1277.532383
1277.532563
1277.532533
1277.532904
1277.533026
1277.533088
)
;
    }
    side-walls
    {
        type            calculated;
        value           nonuniform List<scalar> 
261
(
1277.53334
1277.533268
1277.533016
1277.53318
1277.533202
1277.53316
1277.533057
1277.533134
1277.533211
1277.533333
1277.533258
1277.532995
1277.533165
1277.533205
1277.533177
1277.533059
1277.533122
1277.533206
1277.533346
1277.53327
1277.533004
1277.53317
1277.533208
1277.533165
1277.533041
1277.533095
1277.533204
1277.533354
1277.533278
1277.533003
1277.533144
1277.533221
1277.533168
1277.533041
1277.533117
1277.533201
1277.533361
1277.533269
1277.53301
1277.533165
1277.533234
1277.533156
1277.533033
1277.533132
1277.533208
1277.533379
1277.533267
1277.533033
1277.533168
1277.533216
1277.53318
1277.533046
1277.53314
1277.533181
1277.53338
1277.533243
1277.533033
1277.533145
1277.533216
1277.533166
1277.533065
1277.53314
1277.533189
1277.533363
1277.533233
1277.533033
1277.533184
1277.533222
1277.53317
1277.533049
1277.533144
1277.5332
1277.533366
1277.533236
1277.533027
1277.533153
1277.533212
1277.533171
1277.533028
1277.533156
1277.533185
1277.533375
1277.533196
1277.533004
1277.533139
1277.533194
1277.53317
1277.533053
1277.533148
1277.533174
1277.533355
1277.53317
1277.533001
1277.533122
1277.533178
1277.533148
1277.533053
1277.533108
1277.53318
1277.533332
1277.533165
1277.532976
1277.533063
1277.533097
1277.533074
1277.532989
1277.533071
1277.533157
1277.533305
1277.533112
1277.532855
1277.532873
1277.532874
1277.532912
1277.532875
1277.533005
1277.533119
1277.53322
1277.532991
1277.532606
1277.532445
1277.532261
1277.532449
1277.532622
1277.532882
1277.533054
1277.533088
1277.532724
1277.532137
1277.531578
1277.531096
1277.531591
1277.532119
1277.53263
1277.532902
1277.533164
1277.5332
1277.533458
1277.533236
1277.533208
1277.53311
1277.532684
1277.533151
1277.533222
1277.533163
1277.533206
1277.533441
1277.53322
1277.533228
1277.533107
1277.532691
1277.533154
1277.533219
1277.533156
1277.533222
1277.533462
1277.533225
1277.533259
1277.533081
1277.532693
1277.533167
1277.533232
1277.533146
1277.533206
1277.533449
1277.533219
1277.533239
1277.533093
1277.532681
1277.533171
1277.533215
1277.533144
1277.533208
1277.533441
1277.533224
1277.533239
1277.533074
1277.532683
1277.533163
1277.533214
1277.533158
1277.533209
1277.533457
1277.533234
1277.533228
1277.533074
1277.532682
1277.533145
1277.533224
1277.53316
1277.533218
1277.533464
1277.533247
1277.533227
1277.533091
1277.532682
1277.533161
1277.533212
1277.533171
1277.533206
1277.53344
1277.533241
1277.533241
1277.533075
1277.532688
1277.533157
1277.533212
1277.533181
1277.533218
1277.533458
1277.533228
1277.533253
1277.533075
1277.532691
1277.533125
1277.533219
1277.533192
1277.533207
1277.53346
1277.533226
1277.533246
1277.533098
1277.53267
1277.533125
1277.533243
1277.533178
1277.533202
1277.533462
1277.533177
1277.533206
1277.533075
1277.532644
1277.533142
1277.533212
1277.533143
1277.533179
1277.533404
1277.533103
1277.533103
1277.532997
1277.532617
1277.533126
1277.533203
1277.533113
1277.533106
1277.53332
1277.53293
1277.532866
1277.532824
1277.5325
1277.533078
1277.533158
1277.533026
1277.532991
1277.533061
1277.532497
1277.532318
1277.532371
1277.532242
1277.532923
1277.533065
)
;
    }
    inlet
    {
        type            calculated;
        value           nonuniform List<scalar> 
81
(
1277.53334
1277.533268
1277.533016
1277.53318
1277.533202
1277.53316
1277.533057
1277.533134
1277.533211
1277.533442
1277.533307
1277.533666
1277.533082
1277.533688
1277.533058
1277.533579
1277.532991
1277.533155
1277.533117
1277.533358
1277.533519
1277.533269
1277.533256
1277.533115
1277.532927
1277.533398
1277.532905
1277.53301
1277.533352
1277.533137
1277.533385
1277.533124
1277.532974
1277.533256
1277.533115
1277.533194
1277.533328
1277.533453
1277.533242
1277.533162
1277.533142
1277.533353
1277.533027
1277.533136
1277.53287
1277.533358
1277.533
1277.533449
1277.532905
1277.533078
1277.533289
1277.533136
1277.533221
1277.532948
1277.53295
1277.5333
1277.532952
1277.533437
1277.533264
1277.532897
1277.533058
1277.533169
1277.533072
1277.533178
1277.532981
1277.533331
1277.533523
1277.53341
1277.533158
1277.532885
1277.533249
1277.533308
1277.533164
1277.5332
1277.533458
1277.533236
1277.533208
1277.53311
1277.532684
1277.533151
1277.533222
)
;
    }
    outlet
    {
        type            calculated;
        value           nonuniform 0();
    }
    procBoundary0to1
    {
        type            processor;
        value           nonuniform List<scalar> 
97
(
1277.532816
1277.532956
1277.532307
1277.531294
1277.530294
1277.529421
1277.530262
1277.531331
1277.532237
1277.532654
1277.532956
1277.532956
1277.531573
1277.53122
1277.529872
1277.525675
1277.522955
1277.525631
1277.529742
1277.53134
1277.532239
1277.532166
1277.53122
1277.53122
1277.523699
1277.519188
1277.510509
1277.493598
1277.510359
1277.523134
1277.52961
1277.531188
1277.531541
1277.5292
1277.519188
1277.519188
1277.466491
1277.389463
1277.375233
1277.466134
1277.510409
1277.525731
1277.530242
1277.531245
1277.527041
1277.506146
1277.389463
1277.389463
1274.288856
1277.38938
1277.375453
1277.486485
1277.49343
1277.522419
1277.52916
1277.531721
1277.528811
1277.519406
1277.486058
1277.38938
1277.486485
1277.486485
1277.510391
1277.527375
1277.525826
1277.529969
1277.53198
1277.531196
1277.527426
1277.51945
1277.506124
1277.518999
1277.527375
1277.527375
1277.529313
1277.532402
1277.531309
1277.532663
1277.531986
1277.531178
1277.529285
1277.527047
1277.528866
1277.530867
1277.532402
1277.532402
1277.532371
1277.532917
1277.532905
1277.532741
1277.532555
1277.531622
1277.531178
1277.531539
1277.531765
1277.53266
1277.532917
)
;
    }
}


// ************************************************************************* //
