/*--------------------------------*- C++ -*----------------------------------*\
| =========                 |                                                 |
| \\      /  F ield         | OpenFOAM: The Open Source CFD Toolbox           |
|  \\    /   O peration     | Version:  4.x                                   |
|   \\  /    A nd           | Web:      www.OpenFOAM.org                      |
|    \\/     M anipulation  |                                                 |
\*---------------------------------------------------------------------------*/
FoamFile
{
    version     2.0;
    format      ascii;
    class       volScalarField;
    location    "1000";
    object      H2;
}
// * * * * * * * * * * * * * * * * * * * * * * * * * * * * * * * * * * * * * //

dimensions      [0 0 0 0 0 0 0];

internalField   nonuniform List<scalar> 
1175
(
0.004463823206
0.004463823206
0.004463823205
0.004463823204
0.004463823201
0.004463823188
0.004463823147
0.004463823015
0.004463822605
0.004463821394
0.004463818008
0.004463809167
0.004463787917
0.004463741658
0.004463651844
0.004463823206
0.004463823206
0.004463823205
0.004463823204
0.0044638232
0.004463823184
0.004463823129
0.004463822947
0.004463822362
0.004463820561
0.004463815321
0.004463801094
0.004463765733
0.004463687103
0.004463534462
0.004463823206
0.004463823206
0.004463823205
0.004463823204
0.004463823197
0.004463823175
0.004463823097
0.004463822825
0.004463821914
0.004463818981
0.004463810034
0.004463784598
0.004463718711
0.004463567963
0.004463274666
0.004463823206
0.004463823205
0.004463823205
0.004463823203
0.004463823195
0.004463823167
0.004463823064
0.004463822695
0.004463821415
0.004463817138
0.004463803543
0.004463763174
0.004463654071
0.004463395918
0.004462890154
0.004463823206
0.004463823205
0.004463823205
0.004463823203
0.004463823195
0.004463823164
0.004463823049
0.004463822634
0.004463821172
0.004463816186
0.004463799963
0.00446375042
0.004463612216
0.00446327508
0.004462606343
0.004463823206
0.004463823206
0.004463823205
0.004463823203
0.004463823195
0.004463823167
0.004463823064
0.004463822695
0.004463821415
0.004463817138
0.004463803543
0.004463763174
0.004463654072
0.004463395922
0.004462890163
0.004463823206
0.004463823206
0.004463823205
0.004463823204
0.004463823197
0.004463823175
0.004463823097
0.004463822825
0.004463821914
0.004463818981
0.004463810034
0.004463784598
0.004463718713
0.004463567968
0.004463274677
0.004463823206
0.004463823206
0.004463823205
0.004463823204
0.0044638232
0.004463823184
0.004463823129
0.004463822947
0.004463822362
0.004463820561
0.004463815321
0.004463801095
0.004463765734
0.004463687108
0.004463534473
0.004463823206
0.004463823206
0.004463823205
0.004463823204
0.004463823201
0.004463823188
0.004463823147
0.004463823015
0.004463822605
0.004463821394
0.004463818009
0.004463809168
0.004463787918
0.004463741662
0.004463651854
0.004463823206
0.004463823206
0.004463823205
0.004463823204
0.0044638232
0.004463823184
0.004463823129
0.004463822947
0.004463822362
0.004463820561
0.004463815321
0.004463801094
0.004463765731
0.004463687098
0.004463823206
0.004463823206
0.004463823205
0.004463823204
0.004463823198
0.004463823177
0.004463823101
0.004463822838
0.00446382195
0.004463819074
0.004463810231
0.004463784873
0.004463718645
0.004463566185
0.004463269312
0.004463823206
0.004463823206
0.004463823205
0.004463823203
0.004463823195
0.004463823164
0.004463823051
0.004463822635
0.004463821155
0.004463816071
0.004463799429
0.004463748534
0.004463607198
0.004463265948
0.004462594729
0.004463823206
0.004463823205
0.004463823205
0.004463823202
0.004463823192
0.004463823152
0.004463822996
0.004463822406
0.004463820208
0.004463812254
0.004463784664
0.004463694675
0.004463427277
0.00446274091
0.004461357749
0.004463823206
0.004463823205
0.004463823205
0.004463823202
0.004463823191
0.004463823146
0.004463822971
0.004463822292
0.004463819706
0.004463810064
0.004463775326
0.004463656458
0.004463281754
0.004462254343
0.004460088491
0.004463823206
0.004463823205
0.004463823205
0.004463823202
0.004463823192
0.004463823152
0.004463822996
0.004463822406
0.004463820208
0.004463812254
0.004463784664
0.004463694677
0.004463427282
0.004462740926
0.004461357784
0.004463823206
0.004463823206
0.004463823205
0.004463823203
0.004463823195
0.004463823164
0.004463823051
0.004463822635
0.004463821155
0.004463816071
0.004463799429
0.004463748536
0.004463607203
0.004463265965
0.004462594769
0.004463823206
0.004463823206
0.004463823205
0.004463823204
0.004463823198
0.004463823177
0.004463823101
0.004463822838
0.00446382195
0.004463819074
0.004463810231
0.004463784874
0.004463718649
0.004463566198
0.004463269347
0.004463823206
0.004463823206
0.004463823205
0.004463823204
0.0044638232
0.004463823184
0.004463823129
0.004463822947
0.004463822362
0.004463820561
0.004463815321
0.004463801095
0.004463765734
0.004463687108
0.004463534473
0.004463823206
0.004463823206
0.004463823205
0.004463823204
0.004463823197
0.004463823175
0.004463823097
0.004463822825
0.004463821914
0.004463818981
0.004463810034
0.004463784597
0.004463718707
0.00446356795
0.004463823206
0.004463823206
0.004463823205
0.004463823203
0.004463823195
0.004463823164
0.004463823051
0.004463822635
0.004463821155
0.004463816071
0.004463799428
0.004463748533
0.004463607192
0.004463265925
0.004463823206
0.004463823205
0.004463823205
0.004463823202
0.00446382319
0.004463823145
0.004463822964
0.004463822266
0.004463819608
0.004463809782
0.004463774944
0.004463658931
0.004463307753
0.004462393643
0.004460543759
0.004463823205
0.004463823205
0.004463823204
0.004463823201
0.004463823186
0.004463823123
0.004463822867
0.004463821823
0.004463817616
0.004463800985
0.004463737247
0.004463505057
0.004462727924
0.004460486322
0.004455647146
0.004463823205
0.004463823205
0.004463823204
0.0044638232
0.004463823184
0.004463823113
0.004463822818
0.004463821586
0.004463816457
0.004463795281
0.004463709337
0.004463371509
0.004462121926
0.004458033658
0.004448017937
0.004463823205
0.004463823205
0.004463823204
0.004463823201
0.004463823186
0.004463823123
0.004463822867
0.004463821823
0.004463817616
0.004463800986
0.004463737248
0.004463505061
0.004462727942
0.004460486391
0.004455647337
0.004463823206
0.004463823205
0.004463823205
0.004463823202
0.00446382319
0.004463823145
0.004463822964
0.004463822266
0.004463819608
0.004463809782
0.004463774945
0.004463658936
0.00446330777
0.004462393706
0.004460543944
0.004463823206
0.004463823206
0.004463823205
0.004463823203
0.004463823195
0.004463823164
0.004463823051
0.004463822635
0.004463821155
0.004463816071
0.004463799429
0.004463748536
0.004463607203
0.004463265964
0.004462594769
0.004463823206
0.004463823206
0.004463823205
0.004463823204
0.004463823197
0.004463823175
0.004463823097
0.004463822825
0.004463821914
0.004463818981
0.004463810034
0.004463784598
0.004463718712
0.004463567967
0.004463274677
0.004463823206
0.004463823206
0.004463823205
0.004463823203
0.004463823195
0.004463823167
0.004463823064
0.004463822695
0.004463821415
0.004463817138
0.004463803542
0.004463763171
0.004463654063
0.004463395894
0.004463823206
0.004463823205
0.004463823205
0.004463823202
0.004463823192
0.004463823152
0.004463822996
0.004463822406
0.004463820208
0.004463812254
0.004463784663
0.004463694671
0.004463427261
0.004462740853
0.004463823205
0.004463823205
0.004463823204
0.004463823201
0.004463823186
0.004463823123
0.004463822867
0.004463821823
0.004463817616
0.004463800985
0.004463737246
0.00446350505
0.004462727894
0.004460486175
0.004463823205
0.004463823205
0.004463823204
0.004463823199
0.004463823179
0.004463823091
0.004463822714
0.004463821081
0.004463814023
0.004463783645
0.004463654679
0.004463123467
0.004461065805
0.004454049292
0.004436399569
0.004463823205
0.004463823205
0.004463823204
0.004463823199
0.004463823176
0.004463823076
0.004463822633
0.004463820657
0.004463811717
0.004463770813
0.004463581858
0.004462706827
0.004458717973
0.004441656536
0.00438336464
0.004463823205
0.004463823205
0.004463823204
0.004463823199
0.004463823179
0.004463823091
0.004463822714
0.004463821082
0.004463814023
0.004463783645
0.004463654681
0.004463123479
0.004461065869
0.004454049601
0.004436400771
0.004463823205
0.004463823205
0.004463823204
0.004463823201
0.004463823186
0.004463823123
0.004463822867
0.004463821823
0.004463817616
0.004463800986
0.004463737248
0.00446350506
0.004462727938
0.00446048638
0.004455647329
0.004463823206
0.004463823205
0.004463823205
0.004463823202
0.004463823192
0.004463823152
0.004463822996
0.004463822406
0.004463820208
0.004463812254
0.004463784664
0.004463694676
0.00446342728
0.00446274092
0.00446135778
0.004463823206
0.004463823206
0.004463823205
0.004463823203
0.004463823195
0.004463823167
0.004463823064
0.004463822695
0.004463821415
0.004463817138
0.004463803543
0.004463763174
0.004463654071
0.004463395919
0.004462890161
0.004463823206
0.004463823205
0.004463823205
0.004463823203
0.004463823195
0.004463823164
0.004463823049
0.004463822634
0.004463821172
0.004463816186
0.004463799962
0.004463750417
0.004463612205
0.004463275048
0.004463823206
0.004463823205
0.004463823205
0.004463823202
0.004463823191
0.004463823146
0.004463822971
0.004463822292
0.004463819705
0.004463810064
0.004463775324
0.004463656451
0.004463281727
0.004462254253
0.004463823205
0.004463823205
0.004463823204
0.0044638232
0.004463823184
0.004463823113
0.004463822818
0.004463821586
0.004463816456
0.00446379528
0.004463709333
0.004463371492
0.004462121847
0.004458033321
0.004463823205
0.004463823205
0.004463823204
0.004463823199
0.004463823176
0.004463823076
0.004463822633
0.004463820657
0.004463811717
0.004463770813
0.004463581853
0.004462706798
0.00445871779
0.004441655298
0.004463823205
0.004463823205
0.004463823204
0.004463823198
0.004463823172
0.004463823057
0.004463822533
0.004463820095
0.004463808426
0.004463750476
0.004463448841
0.004461784621
0.004451949415
0.004389254972
0.003954745649
0.004463823205
0.004463823205
0.004463823204
0.004463823199
0.004463823176
0.004463823076
0.004463822633
0.004463820657
0.004463811717
0.004463770813
0.004463581856
0.004462706819
0.00445871794
0.004441656415
0.004383364443
0.004463823205
0.004463823205
0.004463823204
0.0044638232
0.004463823184
0.004463823113
0.004463822818
0.004463821586
0.004463816456
0.00446379528
0.004463709335
0.004463371504
0.00446212191
0.004458033614
0.004448017893
0.004463823206
0.004463823205
0.004463823205
0.004463823202
0.004463823191
0.004463823146
0.004463822971
0.004463822292
0.004463819705
0.004463810064
0.004463775326
0.004463656456
0.004463281749
0.004462254332
0.004460088483
0.004463823206
0.004463823205
0.004463823205
0.004463823203
0.004463823195
0.004463823164
0.004463823049
0.004463822634
0.004463821172
0.004463816186
0.004463799962
0.00446375042
0.004463612214
0.004463275076
0.004462606341
0.004463823206
0.004463823206
0.004463823205
0.004463823203
0.004463823195
0.004463823167
0.004463823064
0.004463822695
0.004463821415
0.004463817138
0.004463803542
0.004463763171
0.004463654063
0.004463395896
0.004463823206
0.004463823205
0.004463823205
0.004463823202
0.004463823192
0.004463823152
0.004463822996
0.004463822406
0.004463820208
0.004463812254
0.004463784663
0.00446369467
0.00446342726
0.004462740861
0.004463823205
0.004463823205
0.004463823204
0.004463823201
0.004463823186
0.004463823123
0.004463822867
0.004463821823
0.004463817616
0.004463800985
0.004463737245
0.004463505047
0.004462727885
0.004460486196
0.004463823205
0.004463823205
0.004463823204
0.004463823199
0.004463823179
0.004463823091
0.004463822714
0.004463821081
0.004463814023
0.004463783644
0.004463654676
0.004463123454
0.004461065743
0.004454049059
0.004463823205
0.004463823205
0.004463823204
0.004463823199
0.004463823176
0.004463823076
0.004463822633
0.004463820657
0.004463811717
0.004463770812
0.004463581852
0.004462706794
0.004458717775
0.004441655275
0.004463823205
0.004463823205
0.004463823204
0.004463823199
0.004463823179
0.004463823091
0.004463822714
0.004463821081
0.004463814023
0.004463783645
0.004463654677
0.004463123458
0.004461065762
0.004454049093
0.004463823205
0.004463823205
0.004463823204
0.004463823201
0.004463823186
0.004463823123
0.004463822867
0.004463821823
0.004463817616
0.004463800985
0.004463737246
0.004463505051
0.004462727904
0.004460486264
0.004455646976
0.004463823206
0.004463823205
0.004463823205
0.004463823202
0.004463823192
0.004463823152
0.004463822996
0.004463822406
0.004463820208
0.004463812254
0.004463784663
0.004463694673
0.00446342727
0.004462740893
0.004461357719
0.004463823206
0.004463823206
0.004463823205
0.004463823203
0.004463823195
0.004463823167
0.004463823064
0.004463822695
0.004463821415
0.004463817138
0.004463803543
0.004463763173
0.004463654068
0.004463395912
0.004462890147
0.004463823206
0.004463823206
0.004463823205
0.004463823204
0.004463823197
0.004463823175
0.004463823097
0.004463822825
0.004463821914
0.004463818981
0.004463810034
0.004463784596
0.004463718707
0.004463567953
0.004463823206
0.004463823206
0.004463823205
0.004463823203
0.004463823195
0.004463823164
0.004463823051
0.004463822635
0.004463821155
0.00446381607
0.004463799428
0.004463748532
0.004463607191
0.004463265932
0.004463823206
0.004463823205
0.004463823205
0.004463823202
0.00446382319
0.004463823145
0.004463822964
0.004463822266
0.004463819608
0.004463809782
0.004463774943
0.004463658927
0.004463307742
0.004462393623
0.004463823205
0.004463823205
0.004463823204
0.004463823201
0.004463823186
0.004463823123
0.004463822867
0.004463821823
0.004463817616
0.004463800985
0.004463737245
0.004463505046
0.004462727882
0.004460486195
0.004463823205
0.004463823205
0.004463823204
0.0044638232
0.004463823184
0.004463823113
0.004463822818
0.004463821586
0.004463816456
0.00446379528
0.004463709332
0.004463371489
0.004462121838
0.004458033325
0.004463823205
0.004463823205
0.004463823204
0.004463823201
0.004463823186
0.004463823123
0.004463822867
0.004463821823
0.004463817616
0.004463800985
0.004463737245
0.004463505047
0.004462727887
0.004460486208
0.004463823206
0.004463823205
0.004463823205
0.004463823202
0.00446382319
0.004463823145
0.004463822964
0.004463822266
0.004463819608
0.004463809782
0.004463774944
0.004463658929
0.004463307745
0.004462393617
0.004463823206
0.004463823206
0.004463823205
0.004463823203
0.004463823195
0.004463823164
0.004463823051
0.004463822635
0.004463821155
0.004463816071
0.004463799428
0.004463748533
0.004463607194
0.004463265938
0.004462594704
0.004463823206
0.004463823206
0.004463823205
0.004463823204
0.004463823197
0.004463823175
0.004463823097
0.004463822825
0.004463821914
0.004463818981
0.004463810034
0.004463784597
0.004463718709
0.004463567959
0.00446327466
0.004463823206
0.004463823206
0.004463823205
0.004463823204
0.0044638232
0.004463823184
0.004463823129
0.004463822947
0.004463822362
0.004463820561
0.004463815321
0.004463801094
0.004463765731
0.0044636871
0.004463823206
0.004463823206
0.004463823205
0.004463823204
0.004463823198
0.004463823177
0.004463823101
0.004463822838
0.00446382195
0.004463819073
0.00446381023
0.004463784872
0.004463718643
0.004463566183
0.004463823206
0.004463823206
0.004463823205
0.004463823203
0.004463823195
0.004463823164
0.004463823051
0.004463822635
0.004463821155
0.00446381607
0.004463799428
0.004463748532
0.004463607191
0.004463265932
0.004463823206
0.004463823205
0.004463823205
0.004463823202
0.004463823192
0.004463823152
0.004463822996
0.004463822406
0.004463820208
0.004463812254
0.004463784662
0.00446369467
0.004463427258
0.004462740861
0.004463823206
0.004463823205
0.004463823205
0.004463823202
0.004463823191
0.004463823146
0.004463822971
0.004463822292
0.004463819705
0.004463810063
0.004463775324
0.00446365645
0.004463281725
0.004462254257
0.004463823206
0.004463823205
0.004463823205
0.004463823202
0.004463823192
0.004463823152
0.004463822996
0.004463822406
0.004463820208
0.004463812254
0.004463784662
0.00446369467
0.00446342726
0.004462740866
0.004463823206
0.004463823206
0.004463823205
0.004463823203
0.004463823195
0.004463823164
0.004463823051
0.004463822635
0.004463821155
0.00446381607
0.004463799428
0.004463748532
0.004463607192
0.004463265932
0.004463823206
0.004463823206
0.004463823205
0.004463823204
0.004463823198
0.004463823177
0.004463823101
0.004463822838
0.00446382195
0.004463819073
0.00446381023
0.004463784872
0.004463718643
0.00446356618
0.004463823206
0.004463823206
0.004463823205
0.004463823204
0.0044638232
0.004463823184
0.004463823129
0.004463822947
0.004463822362
0.004463820561
0.004463815321
0.004463801094
0.004463765732
0.004463687101
0.004463534456
0.004463823206
0.004463823206
0.004463823205
0.004463823204
0.004463823201
0.004463823188
0.004463823147
0.004463823015
0.004463822605
0.004463821394
0.004463818008
0.004463809167
0.004463787916
0.004463741657
0.004463823206
0.004463823206
0.004463823205
0.004463823204
0.0044638232
0.004463823184
0.004463823129
0.004463822947
0.004463822362
0.004463820561
0.004463815321
0.004463801093
0.004463765731
0.0044636871
0.004463823206
0.004463823206
0.004463823205
0.004463823204
0.004463823197
0.004463823175
0.004463823097
0.004463822825
0.004463821914
0.00446381898
0.004463810034
0.004463784596
0.004463718706
0.004463567952
0.004463823206
0.004463823206
0.004463823205
0.004463823203
0.004463823195
0.004463823167
0.004463823064
0.004463822695
0.004463821415
0.004463817138
0.004463803542
0.004463763171
0.004463654062
0.004463395896
0.004463823206
0.004463823205
0.004463823205
0.004463823203
0.004463823195
0.004463823164
0.004463823049
0.004463822634
0.004463821172
0.004463816186
0.004463799962
0.004463750416
0.004463612204
0.00446327505
0.004463823206
0.004463823206
0.004463823205
0.004463823203
0.004463823195
0.004463823167
0.004463823064
0.004463822695
0.004463821415
0.004463817138
0.004463803542
0.004463763171
0.004463654063
0.004463395898
0.004463823206
0.004463823206
0.004463823205
0.004463823204
0.004463823197
0.004463823175
0.004463823097
0.004463822825
0.004463821914
0.004463818981
0.004463810034
0.004463784596
0.004463718707
0.004463567954
0.004463823206
0.004463823206
0.004463823205
0.004463823204
0.0044638232
0.004463823184
0.004463823129
0.004463822947
0.004463822362
0.004463820561
0.004463815321
0.004463801094
0.004463765731
0.004463687099
0.004463823206
0.004463823206
0.004463823205
0.004463823204
0.004463823201
0.004463823188
0.004463823147
0.004463823015
0.004463822605
0.004463821394
0.004463818008
0.004463809167
0.004463787916
0.004463741656
)
;

boundaryField
{
    top
    {
        type            zeroGradient;
    }
    bottom
    {
        type            zeroGradient;
    }
    side-walls
    {
        type            zeroGradient;
    }
    inlet
    {
        type            zeroGradient;
    }
    outlet
    {
        type            zeroGradient;
    }
    procBoundary0to1
    {
        type            processor;
        value           nonuniform List<scalar> 
97
(
0.004463497411
0.004463534453
0.004463279411
0.004462803285
0.004462115647
0.004461632512
0.00446211566
0.004462803303
0.004463279427
0.004463497425
0.004463534453
0.004463534453
0.004462796167
0.00446259469
0.004461596102
0.004459497097
0.00445755082
0.00445949714
0.004461596156
0.004462796205
0.004463279427
0.004463274652
0.00446259469
0.00446259469
0.004458108801
0.004455646882
0.004450481204
0.004440664579
0.004450481388
0.004458108974
0.004461596158
0.004462803304
0.004462890132
0.004461357683
0.004455646882
0.004455646882
0.004424724651
0.004383363091
0.00437506222
0.004424725344
0.004450481396
0.004459497145
0.004462115662
0.004462606315
0.004460088408
0.004448017598
0.004383363091
0.004383363091
0.004163383424
0.004383363251
0.004375062247
0.004436400131
0.004440664597
0.004457550835
0.004461632518
0.004462890141
0.004461357727
0.004455647148
0.0044364003
0.004383363251
0.004436400131
0.004436400131
0.004450481206
0.00446054379
0.004459497091
0.004462115647
0.004463274666
0.004462594743
0.004460543873
0.004455647163
0.004448017668
0.004455647181
0.00446054379
0.00446054379
0.00446159611
0.004463269318
0.004462803285
0.004463534467
0.004463269336
0.004462594744
0.004461357733
0.004460088434
0.004461357743
0.004462594736
0.004463269318
0.004463269318
0.004463279412
0.004463651845
0.004463651851
0.004463534467
0.004463274666
0.004462890144
0.004462606325
0.004462890149
0.004463274667
0.004463534464
0.004463651845
)
;
    }
}


// ************************************************************************* //
