/*--------------------------------*- C++ -*----------------------------------*\
| =========                 |                                                 |
| \\      /  F ield         | OpenFOAM: The Open Source CFD Toolbox           |
|  \\    /   O peration     | Version:  4.x                                   |
|   \\  /    A nd           | Web:      www.OpenFOAM.org                      |
|    \\/     M anipulation  |                                                 |
\*---------------------------------------------------------------------------*/
FoamFile
{
    version     2.0;
    format      ascii;
    class       volScalarField;
    location    "1000";
    object      H2O;
}
// * * * * * * * * * * * * * * * * * * * * * * * * * * * * * * * * * * * * * //

dimensions      [0 0 0 0 0 0 0];

internalField   nonuniform List<scalar> 
1175
(
1.000012841e-05
1.000012786e-05
1.000012984e-05
1.000013842e-05
1.000016827e-05
1.000027096e-05
1.000060877e-05
1.000169765e-05
1.000506831e-05
1.001503314e-05
1.004289129e-05
1.011563891e-05
1.029052255e-05
1.067126963e-05
1.141068287e-05
1.000012896e-05
1.000012864e-05
1.000013186e-05
1.000014167e-05
1.000017955e-05
1.000030994e-05
1.000075871e-05
1.000225799e-05
1.000707303e-05
1.002188324e-05
1.006499622e-05
1.018205356e-05
1.047302807e-05
1.112012026e-05
1.237657045e-05
1.000012917e-05
1.000013055e-05
1.000013269e-05
1.000014688e-05
1.000019513e-05
1.000037703e-05
1.000102265e-05
1.000325779e-05
1.001075519e-05
1.003488528e-05
1.010848602e-05
1.031775048e-05
1.085984103e-05
1.210027607e-05
1.451419009e-05
1.000012866e-05
1.000013129e-05
1.000013389e-05
1.000015176e-05
1.000021335e-05
1.00004454e-05
1.000129583e-05
1.000432708e-05
1.001485513e-05
1.005004089e-05
1.016187695e-05
1.049396757e-05
1.139153789e-05
1.351553017e-05
1.76776352e-05
1.000013028e-05
1.000013159e-05
1.00001357e-05
1.0000153e-05
1.000022087e-05
1.000047386e-05
1.000141617e-05
1.00048276e-05
1.001686105e-05
1.005786944e-05
1.019132197e-05
1.05988595e-05
1.173578001e-05
1.450942878e-05
2.001225984e-05
1.00001299e-05
1.000013049e-05
1.000013544e-05
1.000015072e-05
1.000021329e-05
1.000044464e-05
1.000129432e-05
1.000432816e-05
1.001485503e-05
1.005004076e-05
1.016187575e-05
1.049396243e-05
1.139151561e-05
1.351545575e-05
1.767744224e-05
1.000012823e-05
1.000012964e-05
1.000013366e-05
1.000014659e-05
1.000019715e-05
1.000037802e-05
1.000102185e-05
1.000325738e-05
1.001075556e-05
1.003488526e-05
1.010848293e-05
1.031774086e-05
1.085980305e-05
1.210015703e-05
1.451390514e-05
1.000012873e-05
1.000012964e-05
1.000013302e-05
1.000014238e-05
1.000018013e-05
1.000031021e-05
1.000075982e-05
1.000225834e-05
1.000707245e-05
1.002188256e-05
1.006499249e-05
1.018204358e-05
1.047298749e-05
1.11199945e-05
1.23762832e-05
1.000012799e-05
1.000012931e-05
1.000013122e-05
1.000014013e-05
1.000016939e-05
1.000027186e-05
1.00006102e-05
1.000169774e-05
1.000506859e-05
1.001503324e-05
1.004288846e-05
1.011562732e-05
1.029048275e-05
1.067114735e-05
1.141038807e-05
1.000012853e-05
1.000012956e-05
1.00001318e-05
1.000014264e-05
1.000017967e-05
1.000031005e-05
1.000075983e-05
1.000225933e-05
1.000707331e-05
1.002188526e-05
1.006499919e-05
1.018206894e-05
1.047308271e-05
1.112032912e-05
1.000013015e-05
1.000012985e-05
1.000013311e-05
1.000014618e-05
1.00001934e-05
1.000036644e-05
1.000098998e-05
1.000315703e-05
1.001046084e-05
1.003412286e-05
1.010687463e-05
1.031550814e-05
1.086045257e-05
1.21151163e-05
1.455879462e-05
1.00001296e-05
1.000013022e-05
1.00001338e-05
1.00001513e-05
1.000021734e-05
1.000046797e-05
1.000140277e-05
1.000482247e-05
1.001699456e-05
1.005882254e-05
1.019572454e-05
1.061441229e-05
1.17772052e-05
1.458500462e-05
2.010887884e-05
1.000012935e-05
1.000013144e-05
1.000013588e-05
1.000015693e-05
1.000024228e-05
1.000057228e-05
1.000184916e-05
1.000670428e-05
1.002478791e-05
1.009020952e-05
1.031716265e-05
1.105739333e-05
1.325705292e-05
1.890364772e-05
3.028470513e-05
1.000012949e-05
1.000013121e-05
1.000013707e-05
1.000015981e-05
1.000025228e-05
1.000061988e-05
1.000206015e-05
1.000764019e-05
1.002891937e-05
1.010822495e-05
1.03939585e-05
1.137169353e-05
1.445382595e-05
2.290525034e-05
4.072418069e-05
1.000013019e-05
1.000013163e-05
1.000013725e-05
1.00001582e-05
1.000024171e-05
1.000057183e-05
1.000184966e-05
1.000670492e-05
1.002478898e-05
1.009020938e-05
1.031715885e-05
1.105737529e-05
1.325696563e-05
1.890332372e-05
3.028381291e-05
1.00001312e-05
1.000013075e-05
1.00001343e-05
1.000015152e-05
1.000021778e-05
1.000046859e-05
1.000140455e-05
1.000482318e-05
1.001699467e-05
1.005882143e-05
1.019571879e-05
1.061438307e-05
1.177707878e-05
1.458456546e-05
2.010775793e-05
1.000012966e-05
1.000012859e-05
1.000013302e-05
1.000014578e-05
1.000019425e-05
1.000037021e-05
1.000099088e-05
1.000315638e-05
1.001045876e-05
1.003412164e-05
1.010686689e-05
1.031547897e-05
1.086034047e-05
1.211473691e-05
1.455776103e-05
1.000012891e-05
1.000012978e-05
1.000013212e-05
1.000014272e-05
1.000018043e-05
1.000031139e-05
1.000076179e-05
1.000225824e-05
1.000707364e-05
1.002188335e-05
1.006499409e-05
1.018204413e-05
1.047299255e-05
1.112000601e-05
1.237629564e-05
1.00001291e-05
1.00001299e-05
1.000013373e-05
1.000014715e-05
1.000019724e-05
1.000037793e-05
1.000102305e-05
1.000325897e-05
1.001075693e-05
1.003489029e-05
1.010849927e-05
1.031779819e-05
1.086000573e-05
1.210081285e-05
1.000012934e-05
1.000013088e-05
1.000013517e-05
1.000015233e-05
1.000021771e-05
1.000046947e-05
1.000140387e-05
1.000482355e-05
1.001699707e-05
1.005882668e-05
1.019573944e-05
1.061446702e-05
1.177741466e-05
1.458586689e-05
1.00001307e-05
1.000013093e-05
1.000013624e-05
1.000016045e-05
1.000025589e-05
1.000063182e-05
1.00021134e-05
1.000786e-05
1.002972086e-05
1.011055155e-05
1.039712431e-05
1.135147688e-05
1.424051578e-05
2.176142776e-05
3.698482441e-05
1.000012998e-05
1.000013156e-05
1.000013903e-05
1.000016826e-05
1.000029451e-05
1.000080771e-05
1.000291531e-05
1.00115039e-05
1.004610627e-05
1.018289841e-05
1.070716396e-05
1.261701444e-05
1.900936979e-05
3.744888487e-05
7.726220669e-05
1.000012979e-05
1.000013128e-05
1.000013936e-05
1.000017328e-05
1.000031214e-05
1.000089055e-05
1.000331548e-05
1.001344907e-05
1.005564152e-05
1.02298119e-05
1.093669023e-05
1.371524108e-05
2.399271243e-05
5.761823673e-05
0.0001400042559
1.00001308e-05
1.000013265e-05
1.000013993e-05
1.000016967e-05
1.000029425e-05
1.000080738e-05
1.000291529e-05
1.001150456e-05
1.004610591e-05
1.018289528e-05
1.07071498e-05
1.261694068e-05
1.900898314e-05
3.744719748e-05
7.725688544e-05
1.000013048e-05
1.000012997e-05
1.000013666e-05
1.000015989e-05
1.000025534e-05
1.000063171e-05
1.000211305e-05
1.000786051e-05
1.002972065e-05
1.011054874e-05
1.039710689e-05
1.135138234e-05
1.424006904e-05
2.175960715e-05
3.697910299e-05
1.000012976e-05
1.000013097e-05
1.000013499e-05
1.000015089e-05
1.000021749e-05
1.000046887e-05
1.000140371e-05
1.00048231e-05
1.001699559e-05
1.005882394e-05
1.019572406e-05
1.061439769e-05
1.177711004e-05
1.45846174e-05
2.010779512e-05
1.000012931e-05
1.000013033e-05
1.000013287e-05
1.000014697e-05
1.000019699e-05
1.000037792e-05
1.000102309e-05
1.000325879e-05
1.001075634e-05
1.003488663e-05
1.010848905e-05
1.031775348e-05
1.085983083e-05
1.210019982e-05
1.451394212e-05
1.000013072e-05
1.000013093e-05
1.000013548e-05
1.000015085e-05
1.000021195e-05
1.00004446e-05
1.000129423e-05
1.00043276e-05
1.001485777e-05
1.005004999e-05
1.016190592e-05
1.049406954e-05
1.139187861e-05
1.351657557e-05
1.000013109e-05
1.000013146e-05
1.000013614e-05
1.000015842e-05
1.000024161e-05
1.000057222e-05
1.000184981e-05
1.000670593e-05
1.002479171e-05
1.00902213e-05
1.031720467e-05
1.105756476e-05
1.32577134e-05
1.890604025e-05
1.000013037e-05
1.000013214e-05
1.000013837e-05
1.000016794e-05
1.000029412e-05
1.000080745e-05
1.000291542e-05
1.001150383e-05
1.004610816e-05
1.018290842e-05
1.070721573e-05
1.261725942e-05
1.901052726e-05
3.745444636e-05
1.000013081e-05
1.000013304e-05
1.000014219e-05
1.000018104e-05
1.000034801e-05
1.000106911e-05
1.000417418e-05
1.001760008e-05
1.007565584e-05
1.032552154e-05
1.138627143e-05
1.575551581e-05
3.268017626e-05
9.039516202e-05
0.000235594253
1.00001316e-05
1.000013356e-05
1.000014288e-05
1.00001862e-05
1.000037327e-05
1.000119566e-05
1.000483451e-05
1.002109462e-05
1.009461921e-05
1.043104158e-05
1.198510221e-05
1.918159272e-05
5.198632638e-05
0.0001922999993
0.0006717073245
1.000013098e-05
1.000013368e-05
1.00001419e-05
1.000018119e-05
1.000034782e-05
1.000106886e-05
1.000417501e-05
1.001760028e-05
1.00756555e-05
1.032551696e-05
1.138623479e-05
1.57552705e-05
3.267864705e-05
9.038661527e-05
0.0002355569488
1.000012922e-05
1.000013168e-05
1.000013879e-05
1.000016793e-05
1.000029408e-05
1.000080723e-05
1.000291539e-05
1.001150527e-05
1.004610816e-05
1.018290375e-05
1.070717613e-05
1.261702626e-05
1.900923002e-05
3.744770932e-05
7.725721211e-05
1.000012953e-05
1.000013138e-05
1.000013614e-05
1.00001578e-05
1.000024215e-05
1.000057283e-05
1.000185062e-05
1.000670461e-05
1.002479003e-05
1.009021604e-05
1.031717834e-05
1.105743027e-05
1.325710331e-05
1.890356939e-05
3.028398062e-05
1.00001294e-05
1.000013089e-05
1.000013394e-05
1.000015077e-05
1.000021266e-05
1.000044504e-05
1.000129391e-05
1.000432679e-05
1.001485679e-05
1.005004596e-05
1.016188904e-05
1.049399626e-05
1.139158839e-05
1.35155775e-05
1.767754106e-05
1.000013052e-05
1.000013046e-05
1.000013484e-05
1.000015211e-05
1.000021951e-05
1.000047424e-05
1.000141589e-05
1.000482798e-05
1.001686357e-05
1.00578813e-05
1.019136358e-05
1.059900692e-05
1.173627031e-05
1.451089698e-05
1.000013042e-05
1.000013097e-05
1.000013642e-05
1.000016062e-05
1.000025261e-05
1.000061976e-05
1.000205982e-05
1.000764107e-05
1.002892257e-05
1.010824258e-05
1.039403108e-05
1.137198833e-05
1.445497895e-05
2.290934451e-05
1.000013125e-05
1.000013256e-05
1.00001391e-05
1.000017204e-05
1.000031054e-05
1.00008901e-05
1.000331539e-05
1.001345078e-05
1.005564763e-05
1.022983961e-05
1.093682316e-05
1.371588995e-05
2.399584546e-05
5.763248976e-05
1.000013184e-05
1.000013422e-05
1.00001427e-05
1.00001854e-05
1.000037346e-05
1.000119742e-05
1.000483526e-05
1.002109523e-05
1.009462499e-05
1.043106978e-05
1.198526796e-05
1.918260212e-05
5.199279459e-05
0.0001923436463
1.000013163e-05
1.000013342e-05
1.000014538e-05
1.000019259e-05
1.000040391e-05
1.000135045e-05
1.000566101e-05
1.002571278e-05
1.012169085e-05
1.059830987e-05
1.307905529e-05
2.676560292e-05
0.0001076473357
0.0006232104238
0.004196292921
1.00001314e-05
1.000013329e-05
1.000014256e-05
1.000018556e-05
1.000037409e-05
1.000119782e-05
1.000483668e-05
1.00210963e-05
1.009462449e-05
1.043106295e-05
1.198520438e-05
1.918207357e-05
5.198845349e-05
0.0001923078403
0.000671714986
1.00001303e-05
1.00001318e-05
1.000013994e-05
1.000017202e-05
1.000031078e-05
1.000089026e-05
1.00033154e-05
1.001345077e-05
1.005564663e-05
1.022983134e-05
1.093676712e-05
1.371553113e-05
2.399369228e-05
5.762072851e-05
0.0001400062031
1.000012948e-05
1.000013025e-05
1.00001364e-05
1.000016024e-05
1.000025256e-05
1.000062045e-05
1.000206131e-05
1.000764138e-05
1.002892177e-05
1.010823534e-05
1.039399504e-05
1.137181309e-05
1.445415835e-05
2.290593185e-05
4.072469103e-05
1.000012807e-05
1.000012997e-05
1.000013377e-05
1.000015315e-05
1.000022003e-05
1.00004745e-05
1.000141692e-05
1.00048271e-05
1.001686241e-05
1.005787653e-05
1.019134341e-05
1.059891662e-05
1.173591636e-05
1.450966837e-05
2.001245752e-05
1.000012907e-05
1.000013011e-05
1.000013328e-05
1.000014997e-05
1.000021179e-05
1.000044396e-05
1.000129341e-05
1.000432798e-05
1.001485653e-05
1.005005135e-05
1.016191447e-05
1.049409498e-05
1.139192795e-05
1.351661736e-05
1.000013028e-05
1.000013069e-05
1.000013601e-05
1.000015673e-05
1.000024231e-05
1.000057293e-05
1.000184966e-05
1.000670465e-05
1.002479163e-05
1.009022717e-05
1.031722683e-05
1.105763363e-05
1.325787859e-05
1.890620061e-05
1.000013122e-05
1.000013288e-05
1.000013909e-05
1.000016939e-05
1.000029433e-05
1.000080862e-05
1.000291557e-05
1.001150561e-05
1.004611219e-05
1.018292511e-05
1.070728008e-05
1.261750557e-05
1.901130179e-05
3.745574408e-05
1.00001315e-05
1.000013307e-05
1.000014217e-05
1.000018027e-05
1.00003496e-05
1.000106901e-05
1.000417462e-05
1.001760297e-05
1.007566324e-05
1.032555442e-05
1.138642999e-05
1.575625916e-05
3.268356133e-05
9.040935293e-05
1.000013167e-05
1.000013325e-05
1.000014374e-05
1.000018667e-05
1.000037435e-05
1.000119726e-05
1.000483643e-05
1.002109687e-05
1.009462931e-05
1.043109033e-05
1.198536224e-05
1.918302997e-05
5.199460302e-05
0.00019234952
1.000013157e-05
1.00001334e-05
1.000014224e-05
1.000018065e-05
1.000034961e-05
1.000107019e-05
1.000417562e-05
1.001760192e-05
1.007566216e-05
1.032555039e-05
1.138640016e-05
1.575607091e-05
3.268254088e-05
9.040544565e-05
1.000013158e-05
1.00001315e-05
1.000013853e-05
1.000016928e-05
1.000029365e-05
1.0000809e-05
1.000291609e-05
1.001150678e-05
1.004611342e-05
1.018291963e-05
1.070724579e-05
1.261731773e-05
1.901037919e-05
3.745180365e-05
7.727013778e-05
1.000013085e-05
1.000013083e-05
1.000013592e-05
1.000015718e-05
1.000024154e-05
1.000057287e-05
1.000185029e-05
1.000670493e-05
1.002479196e-05
1.009022193e-05
1.031720358e-05
1.105752246e-05
1.325740939e-05
1.890446794e-05
3.02860088e-05
1.000012873e-05
1.000013053e-05
1.000013322e-05
1.000014982e-05
1.00002122e-05
1.000044458e-05
1.00012936e-05
1.000432633e-05
1.001485701e-05
1.00500475e-05
1.016189765e-05
1.049402813e-05
1.139168292e-05
1.351581234e-05
1.767797765e-05
1.000012735e-05
1.000012852e-05
1.000013198e-05
1.000014609e-05
1.000019625e-05
1.000037609e-05
1.000102258e-05
1.000325817e-05
1.0010758e-05
1.003489253e-05
1.010851119e-05
1.031782851e-05
1.086006287e-05
1.210084887e-05
1.000012944e-05
1.000012978e-05
1.000013432e-05
1.000015144e-05
1.000021942e-05
1.000046981e-05
1.000140448e-05
1.000482303e-05
1.001699801e-05
1.005883478e-05
1.01957654e-05
1.061454534e-05
1.177759571e-05
1.458604913e-05
1.000013109e-05
1.000013177e-05
1.000013724e-05
1.000016009e-05
1.000025473e-05
1.000063185e-05
1.000211336e-05
1.00078606e-05
1.002972583e-05
1.011056992e-05
1.039719123e-05
1.135170636e-05
1.424123252e-05
2.176330684e-05
1.000013202e-05
1.000013328e-05
1.000013965e-05
1.000016901e-05
1.000029321e-05
1.000080702e-05
1.000291567e-05
1.001150642e-05
1.004611558e-05
1.018293243e-05
1.070730248e-05
1.261757012e-05
1.901145271e-05
3.745585062e-05
1.000013115e-05
1.000013191e-05
1.000014019e-05
1.00001727e-05
1.00003119e-05
1.000089062e-05
1.000331539e-05
1.001345106e-05
1.005565205e-05
1.022985702e-05
1.093688976e-05
1.371612013e-05
2.399649752e-05
5.763324086e-05
1.000013179e-05
1.00001325e-05
1.000014043e-05
1.000016984e-05
1.000029453e-05
1.00008074e-05
1.000291494e-05
1.001150515e-05
1.004611332e-05
1.01829289e-05
1.070728803e-05
1.261750295e-05
1.901117778e-05
3.745500087e-05
1.000013074e-05
1.000013221e-05
1.000013706e-05
1.000016067e-05
1.000025605e-05
1.000063144e-05
1.000211385e-05
1.000786078e-05
1.002972485e-05
1.011056603e-05
1.039717506e-05
1.13516404e-05
1.42410038e-05
2.176290102e-05
1.00001284e-05
1.000012997e-05
1.000013413e-05
1.000015113e-05
1.000021726e-05
1.000046787e-05
1.000140353e-05
1.000482299e-05
1.001699653e-05
1.005883072e-05
1.019575257e-05
1.061449483e-05
1.177741842e-05
1.45855034e-05
2.011002538e-05
1.000012891e-05
1.000012834e-05
1.000013187e-05
1.000014487e-05
1.000019508e-05
1.000037727e-05
1.000102233e-05
1.00032574e-05
1.001075667e-05
1.003489043e-05
1.010850116e-05
1.031779424e-05
1.085994441e-05
1.210048185e-05
1.451448378e-05
1.000012805e-05
1.000012972e-05
1.000013159e-05
1.000014257e-05
1.000018063e-05
1.000031147e-05
1.000075996e-05
1.000225917e-05
1.000707488e-05
1.002188809e-05
1.00650108e-05
1.01820945e-05
1.047313086e-05
1.112036187e-05
1.000012885e-05
1.00001291e-05
1.000013185e-05
1.000014592e-05
1.000019372e-05
1.000036936e-05
1.000099118e-05
1.000315652e-05
1.001046176e-05
1.003412932e-05
1.01068942e-05
1.031556467e-05
1.086059526e-05
1.211541676e-05
1.000012925e-05
1.000013046e-05
1.000013363e-05
1.00001511e-05
1.00002183e-05
1.000046916e-05
1.000140446e-05
1.00048246e-05
1.001699912e-05
1.005883574e-05
1.019576906e-05
1.061455389e-05
1.177761304e-05
1.45860596e-05
1.00001287e-05
1.000012975e-05
1.000013527e-05
1.000015715e-05
1.00002419e-05
1.000057311e-05
1.000185003e-05
1.000670678e-05
1.002479448e-05
1.009023261e-05
1.031724271e-05
1.105767435e-05
1.32579615e-05
1.890625031e-05
1.000012976e-05
1.000013244e-05
1.000013791e-05
1.0000161e-05
1.000025306e-05
1.000062074e-05
1.000206094e-05
1.000764281e-05
1.002892595e-05
1.01082517e-05
1.039406076e-05
1.137207741e-05
1.44551686e-05
2.290944112e-05
1.000013126e-05
1.000013079e-05
1.000013566e-05
1.000015728e-05
1.000024258e-05
1.000057243e-05
1.00018498e-05
1.000670626e-05
1.002479413e-05
1.0090232e-05
1.031723665e-05
1.105765164e-05
1.325787657e-05
1.890601118e-05
1.000013024e-05
1.000013111e-05
1.000013561e-05
1.000015119e-05
1.000021829e-05
1.000046842e-05
1.00014033e-05
1.000482294e-05
1.001699825e-05
1.005883446e-05
1.019576201e-05
1.061452964e-05
1.177754434e-05
1.45859359e-05
1.00001287e-05
1.000013037e-05
1.000013359e-05
1.000014611e-05
1.000019262e-05
1.000036722e-05
1.00009906e-05
1.000315613e-05
1.001046019e-05
1.003412814e-05
1.010688895e-05
1.03155476e-05
1.086055015e-05
1.211537412e-05
1.000012763e-05
1.000012841e-05
1.000013146e-05
1.000014107e-05
1.000017818e-05
1.000031047e-05
1.00007596e-05
1.00022588e-05
1.000707476e-05
1.002188708e-05
1.006500543e-05
1.018207807e-05
1.047308796e-05
1.112024852e-05
1.237683328e-05
1.000012881e-05
1.000012924e-05
1.00001311e-05
1.000014119e-05
1.00001701e-05
1.000027138e-05
1.000061014e-05
1.000169921e-05
1.000506983e-05
1.001503626e-05
1.004289921e-05
1.011566141e-05
1.029057332e-05
1.067136973e-05
1.000012817e-05
1.000012874e-05
1.00001309e-05
1.000014185e-05
1.000017995e-05
1.000031034e-05
1.00007597e-05
1.000225761e-05
1.000707479e-05
1.002188842e-05
1.006500996e-05
1.018209624e-05
1.047313603e-05
1.112036926e-05
1.000012844e-05
1.000012981e-05
1.000013208e-05
1.000014646e-05
1.000019647e-05
1.000037686e-05
1.000102296e-05
1.000325942e-05
1.00107588e-05
1.003489476e-05
1.010851504e-05
1.031783923e-05
1.086007965e-05
1.210086463e-05
1.000012927e-05
1.000013058e-05
1.000013485e-05
1.00001513e-05
1.000021401e-05
1.00004453e-05
1.000129431e-05
1.000432837e-05
1.00148587e-05
1.005005458e-05
1.016192448e-05
1.049411775e-05
1.139196799e-05
1.351664058e-05
1.000012949e-05
1.000013021e-05
1.000013406e-05
1.000015205e-05
1.000022064e-05
1.000047527e-05
1.000141704e-05
1.000482941e-05
1.001686488e-05
1.005788649e-05
1.019137828e-05
1.059904577e-05
1.173633777e-05
1.451091831e-05
1.000012966e-05
1.000012997e-05
1.000013389e-05
1.000015009e-05
1.000021423e-05
1.000044603e-05
1.000129518e-05
1.000432851e-05
1.001485854e-05
1.005005383e-05
1.01619222e-05
1.049410755e-05
1.139193669e-05
1.351655831e-05
1.000012868e-05
1.000012972e-05
1.000013285e-05
1.000014621e-05
1.000019568e-05
1.000037799e-05
1.00010225e-05
1.00032579e-05
1.001075723e-05
1.003489227e-05
1.010851079e-05
1.031782649e-05
1.086004889e-05
1.210080065e-05
1.000012888e-05
1.000012861e-05
1.000013055e-05
1.000014113e-05
1.000017897e-05
1.000031077e-05
1.000075933e-05
1.000225849e-05
1.000707539e-05
1.002188852e-05
1.006500857e-05
1.018208854e-05
1.04731176e-05
1.112034683e-05
1.000012876e-05
1.000012877e-05
1.000013042e-05
1.000013937e-05
1.000016864e-05
1.000027018e-05
1.000060905e-05
1.000169834e-05
1.000506937e-05
1.001503559e-05
1.004289775e-05
1.011565444e-05
1.029056052e-05
1.067136712e-05
)
;

boundaryField
{
    top
    {
        type            zeroGradient;
    }
    bottom
    {
        type            zeroGradient;
    }
    side-walls
    {
        type            zeroGradient;
    }
    inlet
    {
        type            zeroGradient;
    }
    outlet
    {
        type            zeroGradient;
    }
    procBoundary0to1
    {
        type            processor;
        value           nonuniform List<scalar> 
97
(
1.268169304e-05
1.237683599e-05
1.447569284e-05
1.83935182e-05
2.405124589e-05
2.802592047e-05
2.405100937e-05
1.839317397e-05
1.447537622e-05
1.268145933e-05
1.237683599e-05
1.237683599e-05
1.845227361e-05
2.01101708e-05
2.832654967e-05
4.55953773e-05
6.160556481e-05
4.559444347e-05
2.832546312e-05
1.845158866e-05
1.447540102e-05
1.451458611e-05
2.01101708e-05
2.01101708e-05
5.70187912e-05
7.727263291e-05
0.0001197683131
0.0002005149787
0.0001197641427
5.701549638e-05
2.832550746e-05
1.839322986e-05
1.76783857e-05
3.028703335e-05
7.727263291e-05
7.727263291e-05
0.000331647949
0.0006718447866
0.0007401287045
0.0003316329774
0.000119764443
4.5594629e-05
2.405114637e-05
2.001338805e-05
4.07281973e-05
0.0001400251417
0.0006718447866
0.0006718447866
0.002481214142
0.0006718406528
0.0007401291389
0.00023559386
0.0002005160158
6.160600918e-05
2.802616293e-05
1.767829842e-05
3.028625743e-05
7.726574298e-05
0.0002355890709
0.0006718406528
0.00023559386
0.00023559386
0.0001197684075
3.698473838e-05
4.559607222e-05
2.405159158e-05
1.451439115e-05
2.010890566e-05
3.69823427e-05
7.726576809e-05
0.0001400246928
7.726539326e-05
3.698473838e-05
3.698473838e-05
2.832651607e-05
1.455877716e-05
1.839371716e-05
1.237653006e-05
1.455825218e-05
2.010891516e-05
3.028628957e-05
4.072807359e-05
3.028599001e-05
2.010909224e-05
1.455877716e-05
1.455877716e-05
1.447570583e-05
1.141068577e-05
1.141053302e-05
1.237654289e-05
1.451441592e-05
1.767832335e-05
2.001336094e-05
1.767818678e-05
1.451436544e-05
1.237661055e-05
1.141068577e-05
)
;
    }
}


// ************************************************************************* //
