/*--------------------------------*- C++ -*----------------------------------*\
| =========                 |                                                 |
| \\      /  F ield         | OpenFOAM: The Open Source CFD Toolbox           |
|  \\    /   O peration     | Version:  4.x                                   |
|   \\  /    A nd           | Web:      www.OpenFOAM.org                      |
|    \\/     M anipulation  |                                                 |
\*---------------------------------------------------------------------------*/
FoamFile
{
    version     2.0;
    format      ascii;
    class       volScalarField;
    location    "1000";
    object      molarConc;
}
// * * * * * * * * * * * * * * * * * * * * * * * * * * * * * * * * * * * * * //

dimensions      [0 -3 0 0 1 0 0];

internalField   nonuniform List<scalar> 
1175
(
9.963270043
9.963270369
9.963269724
9.963269341
9.963268965
9.963268047
9.963268013
9.96326885
9.963268643
9.96326806
9.963268649
9.963268775
9.963267653
9.96326654
9.963262739
9.96327369
9.963274207
9.963273573
9.963273198
9.963273655
9.963273762
9.963274958
9.963275464
9.963275209
9.963277061
9.963277751
9.963276348
9.963274884
9.963271786
9.963267398
9.96328652
9.963287592
9.963287133
9.963287199
9.963286837
9.963285673
9.963285619
9.963285627
9.963285828
9.963286631
9.96328572
9.963283992
9.963282377
9.963277306
9.963266629
9.963278152
9.963278963
9.963278667
9.963280029
9.963278937
9.963278778
9.963279949
9.963277923
9.963279362
9.963279535
9.963278802
9.963277066
9.963273838
9.96326519
9.963249723
9.963277029
9.963276918
9.963276751
9.963276078
9.963275426
9.963276337
9.963276311
9.963275991
9.963276289
9.963276614
9.963275513
9.963273797
9.963268829
9.963260236
9.963240701
9.963279173
9.963278308
9.96327895
9.963278794
9.96327938
9.963278157
9.963278883
9.963278625
9.963278419
9.963277951
9.963277469
9.963276483
9.963271881
9.963264975
9.963249067
9.963284432
9.963284316
9.963285244
9.96328525
9.963285668
9.963285004
9.963284037
9.963284791
9.96328576
9.963284125
9.963283063
9.963283366
9.963281364
9.963276505
9.963267565
9.963280516
9.963281135
9.963282493
9.963281392
9.963280629
9.963280184
9.963280215
9.963279983
9.963279284
9.963279497
9.963280921
9.963281128
9.963280304
9.96327734
9.963272169
9.963276616
9.963276876
9.963276951
9.963277126
9.963276766
9.96327812
9.963277709
9.963277126
9.963277866
9.963278281
9.963277565
9.963277682
9.963277143
9.963275011
9.963272183
9.963264817
9.963264594
9.963264188
9.963264508
9.963265797
9.963264355
9.963264297
9.96326436
9.963263104
9.963263285
9.963263107
9.963263689
9.963261816
9.963259961
9.963271726
9.963271803
9.96327042
9.963270661
9.963269717
9.963269785
9.963268318
9.963269135
9.963270659
9.963270122
9.963269022
9.963269043
9.963266025
9.963261983
9.963252962
9.963253454
9.963252337
9.96325166
9.96325246
9.963251942
9.963252212
9.963251749
9.963251167
9.963250585
9.96324976
9.96324934
9.963248802
9.963245197
9.963233348
9.963214143
9.963283144
9.963283022
9.963281575
9.96328164
9.963282997
9.963282121
9.963281742
9.963282062
9.963280826
9.963281045
9.963281379
9.963279051
9.963271716
9.963249903
9.963207571
9.963252325
9.963252884
9.963253832
9.963253909
9.96325419
9.963253236
9.963253089
9.963253633
9.963252343
9.96325219
9.963252057
9.963248142
9.963235573
9.963202493
9.963135709
9.963284385
9.963284355
9.963284427
9.963285346
9.963285486
9.963286302
9.963287377
9.963286505
9.963286558
9.963285671
9.963285115
9.963283132
9.963275504
9.963254851
9.963210938
9.963257875
9.963258073
9.963257482
9.963257389
9.963257254
9.963258083
9.963259051
9.963259559
9.963259692
9.963259623
9.963259958
9.963258804
9.963254926
9.96324363
9.963222236
9.963287799
9.963286547
9.963286024
9.963287937
9.963287932
9.963287643
9.963286474
9.963285829
9.963284443
9.963283667
9.963282723
9.963281986
9.963280083
9.963274984
9.963265028
9.96327944
9.963279151
9.963279068
9.963279221
9.963279193
9.963279627
9.963280407
9.963280091
9.963279347
9.963278684
9.963277918
9.963276372
9.96327663
9.963274384
9.963270286
9.963281396
9.963282055
9.963282781
9.963281557
9.963281779
9.963281791
9.963281762
9.963282157
9.963281948
9.963282866
9.963283022
9.963280594
9.963279429
9.963275852
9.963269127
9.963269583
9.963271087
9.963272037
9.963271165
9.963271674
9.963271788
9.963272207
9.963271891
9.963271977
9.963271247
9.96326941
9.963263243
9.963254468
9.96326093
9.963260396
9.963261471
9.963261578
9.963260925
9.96326151
9.963262537
9.963263818
9.963263385
9.963263793
9.963262911
9.963259512
9.963249359
9.96322235
9.963163729
9.963273659
9.963274281
9.963274471
9.963273906
9.963274334
9.963273636
9.963274125
9.963274674
9.963274512
9.963272854
9.963270236
9.96326171
9.963237705
9.963167084
9.963016716
9.963274301
9.963274061
9.963274658
9.963276875
9.96327653
9.963276846
9.96327632
9.963275511
9.963275376
9.96327598
9.963274263
9.963264439
9.963223961
9.963096308
9.962784729
9.963281497
9.963282284
9.963280596
9.963281759
9.963281215
9.963280275
9.963279691
9.963279358
9.963278017
9.963276828
9.963274915
9.963268452
9.963245217
9.963174934
9.963024749
9.963291046
9.96329257
9.963292973
9.963292297
9.963292047
9.963292477
9.96329233
9.963291951
9.963292055
9.963291376
9.963290348
9.963286534
9.963275296
9.963246665
9.963188545
9.963267081
9.963266047
9.963265875
9.963265149
9.963265292
9.963266599
9.963265863
9.963266915
9.963266278
9.96326567
9.963265726
9.96326353
9.963258964
9.963248466
9.963226745
9.963292184
9.963292673
9.963292646
9.963291398
9.963292265
9.963292154
9.963292487
9.963292493
9.96329123
9.96329071
9.963290413
9.963290753
9.96328963
9.963282788
9.963274407
9.963286801
9.963285725
9.963285803
9.963285366
9.963284316
9.963283782
9.963283995
9.963283139
9.963283811
9.963283923
9.963283386
9.96328107
9.963276953
9.963268122
9.963269441
9.963269821
9.963268047
9.963268566
9.963268028
9.963266538
9.963265743
9.963265887
9.963266043
9.963265239
9.963265006
9.963262061
9.963254242
9.963231071
9.963280355
9.963279733
9.963278824
9.963279293
9.963279282
9.963278646
9.963279413
9.963278799
9.963279627
9.963279755
9.963278428
9.963270519
9.963245346
9.963174207
9.963267733
9.963267937
9.963267327
9.963267143
9.963265056
9.963265405
9.963264964
9.963264762
9.963265063
9.963264495
9.96326017
9.963243834
9.963179121
9.962961323
9.962412504
9.963281043
9.963280179
9.963281661
9.963280454
9.963279562
9.963278668
9.963278474
9.963279699
9.963280421
9.963279181
9.963274418
9.963247121
9.963123381
9.962591352
9.961071639
9.963288649
9.963288022
9.963288621
9.963286705
9.963286052
9.963286094
9.963286449
9.963286902
9.963288043
9.963286943
9.963283081
9.963264852
9.963201259
9.962982089
9.962431544
9.963274321
9.963275065
9.963275663
9.963276788
9.963277295
9.963276481
9.96327731
9.963278281
9.963277303
9.9632776
9.963276454
9.963268698
9.963243578
9.963173435
9.963022488
9.963281503
9.96328132
9.963280056
9.963281703
9.963280153
9.963280689
9.963281253
9.963280711
9.963280601
9.963280147
9.963279085
9.963276235
9.963267432
9.963245173
9.963203913
9.963277454
9.96327719
9.963277994
9.963278816
9.963278137
9.963277691
9.96327825
9.963277295
9.963279316
9.963280381
9.963279918
9.963277244
9.963274625
9.963265758
9.963250425
9.963270668
9.963270137
9.963269534
9.963270578
9.963269239
9.963269137
9.963270451
9.963271213
9.963272129
9.963271968
9.963270191
9.963269474
9.96326553
9.963254139
9.963264262
9.963264451
9.963265099
9.96326565
9.96326697
9.963267655
9.963267041
9.963266302
9.9632665
9.963267258
9.963265447
9.963260827
9.963248898
9.96321625
9.963275019
9.963273645
9.963273462
9.963272659
9.963272474
9.963274273
9.963273571
9.963275077
9.963275425
9.963274312
9.96327265
9.963263252
9.963223819
9.963098068
9.963279102
9.963278289
9.963278419
9.963278197
9.963279282
9.963279921
9.963279349
9.963278419
9.963278097
9.963276396
9.963269738
9.963242331
9.963119828
9.962587688
9.963280113
9.963279654
9.963281024
9.963279912
9.963279797
9.963278863
9.96327949
9.963279171
9.963279138
9.963275886
9.963265603
9.963214198
9.962908856
9.960953306
10.08599725
9.963269386
9.963269565
9.963268011
9.963269791
9.963269852
9.963269598
9.963270123
9.963270487
9.963270695
9.963268718
9.963261867
9.96323556
9.963110042
9.962578392
9.961059034
9.963285945
9.963286356
9.963287777
9.96328789
9.963288201
9.963288065
9.963289239
9.963288555
9.963286773
9.963284851
9.963281884
9.963270935
9.963232684
9.963104527
9.962793268
9.963280415
9.96328087
9.963281198
9.963282222
9.963282227
9.963281419
9.963282199
9.963281182
9.963280576
9.963280282
9.963278461
9.963275283
9.963264181
9.963231713
9.9631644
9.963293947
9.963293919
9.963293795
9.963293896
9.96329385
9.963293526
9.963294359
9.963292912
9.963293503
9.963293141
9.963292828
9.963290237
9.963286502
9.963276935
9.963255348
9.963269126
9.963268156
9.963268988
9.963269044
9.963268601
9.963268918
9.963270376
9.963269568
9.963269638
9.963269594
9.963269917
9.963270062
9.963267006
9.963259249
9.963287343
9.963288043
9.963288561
9.963286905
9.963286341
9.963286306
9.963286021
9.963286543
9.963286328
9.963286478
9.96328638
9.963284461
9.963274491
9.963252335
9.963264473
9.963263354
9.963263531
9.963264071
9.96326393
9.963263807
9.963264393
9.963263974
9.963263534
9.963264524
9.963263088
9.963256075
9.96323273
9.963162782
9.963292169
9.963291286
9.963290762
9.963289716
9.963290734
9.963289695
9.963289343
9.963289342
9.9632894
9.963288134
9.963284642
9.963266285
9.963201475
9.962982169
9.963283363
9.963284383
9.963285128
9.963285011
9.963284189
9.963283885
9.963283653
9.963283604
9.963282816
9.963280332
9.963275758
9.963248843
9.963124661
9.962593008
9.963272633
9.963272148
9.963272246
9.963270482
9.963270474
9.963270539
9.963268813
9.963269097
9.963267406
9.963266219
9.963262124
9.963244184
9.963180436
9.962962247
9.963280396
9.963279844
9.963278927
9.963278927
9.963278416
9.963278586
9.963278729
9.96327833
9.963279403
9.963277734
9.963276338
9.963268152
9.963243751
9.963174096
9.963021989
9.963276074
9.963275368
9.963274662
9.96327395
9.963274971
9.963275209
9.963274816
9.963274804
9.963275019
9.963275049
9.963273306
9.96327072
9.96326157
9.963240847
9.963198769
9.963289987
9.963290299
9.963290657
9.963291376
9.963291003
9.96329159
9.963291521
9.963291552
9.963292309
9.963291084
9.963291694
9.963290952
9.963288168
9.963280685
9.963264948
9.963289885
9.963291322
9.96329073
9.96329174
9.963292339
9.963290666
9.963291043
9.963290306
9.963290145
9.963289707
9.963290101
9.96328811
9.963286834
9.963281077
9.963272069
9.963270914
9.963270195
9.963271548
9.963273067
9.963271557
9.963271254
9.963270499
9.963269978
9.963271607
9.963271895
9.963271519
9.963268319
9.963256356
9.963289796
9.963289078
9.963287747
9.963286623
9.963287709
9.963286876
9.963286441
9.96328639
9.963287137
9.963286996
9.96328543
9.96328087
9.963268721
9.963240319
9.963265103
9.963265044
9.963264961
9.963264424
9.963263771
9.963263656
9.963264048
9.963264353
9.963266575
9.963266293
9.963264431
9.96325842
9.963233287
9.963161921
9.963273908
9.963274347
9.963274086
9.963274981
9.963275013
9.96327329
9.963272698
9.963274362
9.96327562
9.963275688
9.963274273
9.963263666
9.963224142
9.963097738
9.963292554
9.963291806
9.963291694
9.963292296
9.963293212
9.963292174
9.963292383
9.963290992
9.963289556
9.963289045
9.96328693
9.963279329
9.963254473
9.96318526
9.963284396
9.963283696
9.963283625
9.963282608
9.96328488
9.963284058
9.963284293
9.963284188
9.963284964
9.963283928
9.963282219
9.963280217
9.963270715
9.963243594
9.963278742
9.963278587
9.963278079
9.963279112
9.963278706
9.963279635
9.963279234
9.963278919
9.963279029
9.963279997
9.963279772
9.96327912
9.963272712
9.963261707
9.963242592
9.963283645
9.963283645
9.963283535
9.96328339
9.963283235
9.963282765
9.963283001
9.963283411
9.963283399
9.963283229
9.963284215
9.963283629
9.963281722
9.963276277
9.963267095
9.963278267
9.963278644
9.963279458
9.963279759
9.963279267
9.963279267
9.963278914
9.963279768
9.963280107
9.963280354
9.963280494
9.963279156
9.963278992
9.963276216
9.963288312
9.963289729
9.963289374
9.963290703
9.963292171
9.96329265
9.963292245
9.963290669
9.963291528
9.963291149
9.963289813
9.963288172
9.963286306
9.963282927
9.963270473
9.963271619
9.963270961
9.963272408
9.963273073
9.963272797
9.963273244
9.963272755
9.963272878
9.963273201
9.963271919
9.963271128
9.963265978
9.963255447
9.963260696
9.963261915
9.963261642
9.963261398
9.963262286
9.96326445
9.96326394
9.963264321
9.963263548
9.963262397
9.963261276
9.96325923
9.963251455
9.963229521
9.96326646
9.963267413
9.963267728
9.963266028
9.963265386
9.963264358
9.963264596
9.963263227
9.963263236
9.963262319
9.963261173
9.963256777
9.963246412
9.963215471
9.963279302
9.963279117
9.963278387
9.963278621
9.963279865
9.963279844
9.963280431
9.963281766
9.96328229
9.963281786
9.963281441
9.963280598
9.963271611
9.963250173
9.96329319
9.963294164
9.963294134
9.963293611
9.963294821
9.963293887
9.963294479
9.963294298
9.963293482
9.96329336
9.963290978
9.963286949
9.963283377
9.963272428
9.963274657
9.963273419
9.963273639
9.963274529
9.963272906
9.9632724
9.963271391
9.963270495
9.963269674
9.963270274
9.963271481
9.963270519
9.963268281
9.963263193
9.963271675
9.963273161
9.963274332
9.963273854
9.963273564
9.96327451
9.963274167
9.963274544
9.963274198
9.963273013
9.963272161
9.96327042
9.963270073
9.963267927
9.963263557
9.963278982
9.963279035
9.963279404
9.963279918
9.963280027
9.963279276
9.963279161
9.963278612
9.963278028
9.963277361
9.963277683
9.963278417
9.963277451
9.963276426
9.963277158
9.963276844
9.963276041
9.963276859
9.963276727
9.963276672
9.963276229
9.963276843
9.963276148
9.963276507
9.963276122
9.963275603
9.963275174
9.963271774
9.963264024
9.963264878
9.963263825
9.963264505
9.963264881
9.963264082
9.963263717
9.963264876
9.963263855
9.963263418
9.963262277
9.963262208
9.963258737
9.963254183
9.96327535
9.963276137
9.963275881
9.963276197
9.96327592
9.963275422
9.963274768
9.963275017
9.963275523
9.963275135
9.963276014
9.963275019
9.963270962
9.963262609
9.963276739
9.963275731
9.963274133
9.963275179
9.963275165
9.963275728
9.963275765
9.96327498
9.963274228
9.963273988
9.963274101
9.963273517
9.963269257
9.963257422
9.963281757
9.963281876
9.963283222
9.96328261
9.963283575
9.963283581
9.963282706
9.963283455
9.963283313
9.963281657
9.963281225
9.963280426
9.963276374
9.963268996
9.963303411
9.963303037
9.963302967
9.963303543
9.963303451
9.963303497
9.963303493
9.96330317
9.963302901
9.963303619
9.963303909
9.963302296
9.963300485
9.963295857
9.96327966
9.963279509
9.96327885
9.963278643
9.963279023
9.963279962
9.963279157
9.963279294
9.963280886
9.963280677
9.963279191
9.963278321
9.963276608
9.963275231
9.963276028
9.963276172
9.963275549
9.963276414
9.963276465
9.963275916
9.963276525
9.963276548
9.963276102
9.963274759
9.963275955
9.963275379
9.963275133
9.963274433
)
;

boundaryField
{
    top
    {
        type            calculated;
        value           nonuniform List<scalar> 
134
(
9.963276616
9.96327944
9.963292184
9.963277454
9.963293947
9.963289987
9.963283645
9.963271675
9.963276028
9.963276876
9.963279151
9.963292673
9.96327719
9.963293919
9.963290299
9.963283645
9.963273161
9.963276172
9.963276951
9.963279068
9.963292646
9.963277994
9.963293795
9.963290657
9.963283535
9.963274332
9.963275549
9.963277126
9.963279221
9.963291398
9.963278816
9.963293896
9.963291376
9.96328339
9.963273854
9.963276414
9.963276766
9.963279193
9.963292265
9.963278137
9.96329385
9.963291003
9.963283235
9.963273564
9.963276465
9.96327812
9.963279627
9.963292154
9.963277691
9.963293526
9.96329159
9.963282765
9.96327451
9.963275916
9.963277709
9.963280407
9.963292487
9.96327825
9.963294359
9.963291521
9.963283001
9.963274167
9.963276525
9.963277126
9.963280091
9.963292493
9.963277295
9.963292912
9.963291552
9.963283411
9.963274544
9.963276548
9.963277866
9.963279347
9.96329123
9.963279316
9.963293503
9.963292309
9.963283399
9.963274198
9.963276102
9.963278281
9.963278684
9.96329071
9.963280381
9.963293141
9.963291084
9.963283229
9.963273013
9.963274759
9.963277565
9.963277918
9.963290413
9.963279918
9.963292828
9.963291694
9.963284215
9.963272161
9.963275955
9.963277682
9.963276372
9.963290753
9.963277244
9.963290237
9.963290952
9.963283629
9.96327042
9.963275379
9.963277143
9.96327663
9.96328963
9.963274625
9.963286502
9.963288168
9.963281722
9.963270073
9.963275133
9.963275011
9.963274384
9.963282788
9.963265758
9.963276935
9.963280685
9.963276277
9.963267927
9.963274433
9.963272183
9.963270286
9.963274407
9.963250425
9.963255348
9.963264948
9.963267095
9.963263557
)
;
    }
    bottom
    {
        type            calculated;
        value           nonuniform List<scalar> 
127
(
9.963270043
9.963264817
9.963281396
9.963286801
9.963270668
9.963269126
9.963289885
9.963278267
9.963278982
9.963270369
9.963264594
9.963282055
9.963285725
9.963270137
9.963268156
9.963291322
9.963278644
9.963279035
9.963269724
9.963264188
9.963282781
9.963285803
9.963269534
9.963268988
9.96329073
9.963279458
9.963279404
9.963269341
9.963264508
9.963281557
9.963285366
9.963270578
9.963269044
9.96329174
9.963279759
9.963279918
9.963268965
9.963265797
9.963281779
9.963284316
9.963269239
9.963268601
9.963292339
9.963279267
9.963280027
9.963268047
9.963264355
9.963281791
9.963283782
9.963269137
9.963268918
9.963290666
9.963279267
9.963279276
9.963268013
9.963264297
9.963281762
9.963283995
9.963270451
9.963270376
9.963291043
9.963278914
9.963279161
9.96326885
9.96326436
9.963282157
9.963283139
9.963271213
9.963269568
9.963290306
9.963279768
9.963278612
9.963268643
9.963263104
9.963281948
9.963283811
9.963272129
9.963269638
9.963290145
9.963280107
9.963278028
9.96326806
9.963263285
9.963282866
9.963283923
9.963271968
9.963269594
9.963289707
9.963280354
9.963277361
9.963268649
9.963263107
9.963283022
9.963283386
9.963270191
9.963269917
9.963290101
9.963280494
9.963277683
9.963268775
9.963263689
9.963280594
9.96328107
9.963269474
9.963270062
9.96328811
9.963279156
9.963278417
9.963267653
9.963261816
9.963279429
9.963276953
9.96326553
9.963267006
9.963286834
9.963278992
9.963277451
9.96326654
9.963259961
9.963275852
9.963268122
9.963254139
9.963259249
9.963281077
9.963276216
9.963276426
9.963262739
)
;
    }
    side-walls
    {
        type            calculated;
        value           nonuniform List<scalar> 
261
(
9.963270043
9.96327369
9.96328652
9.963278152
9.963277029
9.963279173
9.963284432
9.963280516
9.963276616
9.963270369
9.963274207
9.963287592
9.963278963
9.963276918
9.963278308
9.963284316
9.963281135
9.963276876
9.963269724
9.963273573
9.963287133
9.963278667
9.963276751
9.96327895
9.963285244
9.963282493
9.963276951
9.963269341
9.963273198
9.963287199
9.963280029
9.963276078
9.963278794
9.96328525
9.963281392
9.963277126
9.963268965
9.963273655
9.963286837
9.963278937
9.963275426
9.96327938
9.963285668
9.963280629
9.963276766
9.963268047
9.963273762
9.963285673
9.963278778
9.963276337
9.963278157
9.963285004
9.963280184
9.96327812
9.963268013
9.963274958
9.963285619
9.963279949
9.963276311
9.963278883
9.963284037
9.963280215
9.963277709
9.96326885
9.963275464
9.963285627
9.963277923
9.963275991
9.963278625
9.963284791
9.963279983
9.963277126
9.963268643
9.963275209
9.963285828
9.963279362
9.963276289
9.963278419
9.96328576
9.963279284
9.963277866
9.96326806
9.963277061
9.963286631
9.963279535
9.963276614
9.963277951
9.963284125
9.963279497
9.963278281
9.963268649
9.963277751
9.96328572
9.963278802
9.963275513
9.963277469
9.963283063
9.963280921
9.963277565
9.963268775
9.963276348
9.963283992
9.963277066
9.963273797
9.963276483
9.963283366
9.963281128
9.963277682
9.963267653
9.963274884
9.963282377
9.963273838
9.963268829
9.963271881
9.963281364
9.963280304
9.963277143
9.96326654
9.963271786
9.963277306
9.96326519
9.963260236
9.963264975
9.963276505
9.96327734
9.963275011
9.963262739
9.963267398
9.963266629
9.963249723
9.963240701
9.963249067
9.963267565
9.963272169
9.963272183
9.963278982
9.963277158
9.963264024
9.96327535
9.963276739
9.963281757
9.963303411
9.96327966
9.963276028
9.963279035
9.963276844
9.963264878
9.963276137
9.963275731
9.963281876
9.963303037
9.963279509
9.963276172
9.963279404
9.963276041
9.963263825
9.963275881
9.963274133
9.963283222
9.963302967
9.96327885
9.963275549
9.963279918
9.963276859
9.963264505
9.963276197
9.963275179
9.96328261
9.963303543
9.963278643
9.963276414
9.963280027
9.963276727
9.963264881
9.96327592
9.963275165
9.963283575
9.963303451
9.963279023
9.963276465
9.963279276
9.963276672
9.963264082
9.963275422
9.963275728
9.963283581
9.963303497
9.963279962
9.963275916
9.963279161
9.963276229
9.963263717
9.963274768
9.963275765
9.963282706
9.963303493
9.963279157
9.963276525
9.963278612
9.963276843
9.963264876
9.963275017
9.96327498
9.963283455
9.96330317
9.963279294
9.963276548
9.963278028
9.963276148
9.963263855
9.963275523
9.963274228
9.963283313
9.963302901
9.963280886
9.963276102
9.963277361
9.963276507
9.963263418
9.963275135
9.963273988
9.963281657
9.963303619
9.963280677
9.963274759
9.963277683
9.963276122
9.963262277
9.963276014
9.963274101
9.963281225
9.963303909
9.963279191
9.963275955
9.963278417
9.963275603
9.963262208
9.963275019
9.963273517
9.963280426
9.963302296
9.963278321
9.963275379
9.963277451
9.963275174
9.963258737
9.963270962
9.963269257
9.963276374
9.963300485
9.963276608
9.963275133
9.963276426
9.963271774
9.963254183
9.963262609
9.963257422
9.963268996
9.963295857
9.963275231
9.963274433
)
;
    }
    inlet
    {
        type            calculated;
        value           nonuniform List<scalar> 
81
(
9.963270043
9.96327369
9.96328652
9.963278152
9.963277029
9.963279173
9.963284432
9.963280516
9.963276616
9.963264817
9.963271726
9.963253454
9.963283144
9.963252325
9.963284385
9.963257875
9.963287799
9.96327944
9.963281396
9.963269127
9.96326093
9.963273659
9.963274301
9.963281497
9.963291046
9.963267081
9.963292184
9.963286801
9.963269441
9.963280355
9.963267733
9.963281043
9.963288649
9.963274321
9.963281503
9.963277454
9.963270668
9.963264262
9.963275019
9.963279102
9.963280113
9.963269386
9.963285945
9.963280415
9.963293947
9.963269126
9.963287343
9.963264473
9.963292169
9.963283363
9.963272633
9.963280396
9.963276074
9.963289987
9.963289885
9.963272069
9.963289796
9.963265103
9.963273908
9.963292554
9.963284396
9.963278742
9.963283645
9.963278267
9.963288312
9.963270473
9.963260696
9.96326646
9.963279302
9.96329319
9.963274657
9.963271675
9.963278982
9.963277158
9.963264024
9.96327535
9.963276739
9.963281757
9.963303411
9.96327966
9.963276028
)
;
    }
    outlet
    {
        type            calculated;
        value           nonuniform 0();
    }
    procBoundary0to1
    {
        type            processor;
        value           nonuniform List<scalar> 
97
(
9.963258392
9.96325561
9.963258621
9.963254038
9.963223793
9.96321115
9.963225455
9.963252153
9.96326217
9.96326664
9.96325561
9.96325561
9.963239007
9.963233136
9.963184001
9.963149662
9.963057976
9.963151904
9.963190589
9.963250841
9.96326211
9.963265211
9.963233136
9.963233136
9.963086373
9.96302461
9.96285606
9.962555172
9.962863567
9.963115007
9.963197308
9.963259427
9.963251635
9.963189832
9.96302461
9.96302461
9.962050392
9.96107233
9.960817668
9.96206805
9.96286104
9.963146797
9.963226446
9.963233172
9.963149558
9.962785181
9.96107233
9.96107233
10.0927395
9.961076289
9.960806525
9.962411836
9.962563794
9.963085261
9.963224455
9.96324245
9.963209581
9.963013161
9.962433224
9.961076289
9.962411836
9.962411836
9.962862062
9.963186679
9.963142023
9.963240397
9.963274628
9.963234329
9.963183962
9.963010958
9.962786276
9.963033901
9.963186679
9.963186679
9.963212443
9.963252594
9.963253303
9.963270503
9.963273724
9.963235247
9.963185454
9.963149268
9.963206794
9.96325109
9.963252594
9.963252594
9.963255361
9.96327143
9.963272039
9.963266542
9.963245397
9.963247518
9.963236588
9.963251721
9.963285608
9.963270665
9.96327143
)
;
    }
}


// ************************************************************************* //
