/*--------------------------------*- C++ -*----------------------------------*\
| =========                 |                                                 |
| \\      /  F ield         | OpenFOAM: The Open Source CFD Toolbox           |
|  \\    /   O peration     | Version:  4.x                                   |
|   \\  /    A nd           | Web:      www.OpenFOAM.org                      |
|    \\/     M anipulation  |                                                 |
\*---------------------------------------------------------------------------*/
FoamFile
{
    version     2.0;
    format      ascii;
    class       volScalarField;
    location    "1000";
    object      N2;
}
// * * * * * * * * * * * * * * * * * * * * * * * * * * * * * * * * * * * * * //

dimensions      [0 0 0 0 0 0 0];

internalField   nonuniform List<scalar> 
1175
(
0.6203632254
0.6203632254
0.6203632254
0.6203632254
0.6203632254
0.6203632252
0.6203632248
0.6203632233
0.6203632189
0.6203632058
0.620363169
0.6203630731
0.6203628425
0.6203623406
0.6203613659
0.6203632254
0.6203632254
0.6203632254
0.6203632254
0.6203632254
0.6203632252
0.6203632246
0.6203632226
0.6203632163
0.6203631967
0.6203631399
0.6203629856
0.6203626021
0.6203617495
0.620360094
0.6203632254
0.6203632254
0.6203632254
0.6203632254
0.6203632253
0.6203632251
0.6203632242
0.6203632213
0.6203632114
0.6203631796
0.6203630826
0.6203628068
0.6203620927
0.620360459
0.62035728
0.6203632254
0.6203632254
0.6203632254
0.6203632254
0.6203632253
0.620363225
0.6203632239
0.6203632199
0.620363206
0.6203631596
0.6203630123
0.6203625748
0.6203613928
0.6203585962
0.6203531169
0.6203632254
0.6203632254
0.6203632254
0.6203632254
0.6203632253
0.620363225
0.6203632237
0.6203632192
0.6203632034
0.6203631493
0.6203629735
0.6203624367
0.6203609398
0.6203572886
0.6203500458
0.6203632254
0.6203632254
0.6203632254
0.6203632254
0.6203632253
0.620363225
0.6203632239
0.6203632199
0.620363206
0.6203631596
0.6203630123
0.6203625748
0.6203613928
0.6203585963
0.6203531171
0.6203632254
0.6203632254
0.6203632254
0.6203632254
0.6203632253
0.6203632251
0.6203632242
0.6203632213
0.6203632114
0.6203631796
0.6203630826
0.6203628069
0.6203620928
0.6203604591
0.6203572802
0.6203632254
0.6203632254
0.6203632254
0.6203632254
0.6203632254
0.6203632252
0.6203632246
0.6203632226
0.6203632163
0.6203631967
0.6203631399
0.6203629856
0.6203626021
0.6203617496
0.6203600943
0.6203632254
0.6203632254
0.6203632254
0.6203632254
0.6203632254
0.6203632252
0.6203632248
0.6203632233
0.6203632189
0.6203632058
0.620363169
0.6203630731
0.6203628425
0.6203623407
0.6203613662
0.6203632254
0.6203632254
0.6203632254
0.6203632254
0.6203632254
0.6203632252
0.6203632246
0.6203632226
0.6203632163
0.6203631967
0.6203631399
0.6203629856
0.6203626021
0.6203617493
0.6203632254
0.6203632254
0.6203632254
0.6203632254
0.6203632253
0.6203632251
0.6203632243
0.6203632214
0.6203632118
0.6203631806
0.6203630847
0.6203628098
0.620362092
0.6203604397
0.620357222
0.6203632254
0.6203632254
0.6203632254
0.6203632254
0.6203632253
0.620363225
0.6203632237
0.6203632192
0.6203632032
0.6203631481
0.6203629677
0.6203624163
0.6203608854
0.6203571894
0.620349919
0.6203632254
0.6203632254
0.6203632254
0.6203632254
0.6203632253
0.6203632248
0.6203632231
0.6203632167
0.6203631929
0.6203631067
0.6203628078
0.6203618333
0.6203589382
0.620351508
0.6203365343
0.6203632254
0.6203632254
0.6203632254
0.6203632254
0.6203632253
0.6203632248
0.6203632229
0.6203632155
0.6203631875
0.620363083
0.6203627068
0.6203614198
0.620357364
0.6203462457
0.6203228083
0.6203632254
0.6203632254
0.6203632254
0.6203632254
0.6203632253
0.6203632248
0.6203632231
0.6203632167
0.6203631929
0.6203631067
0.6203628078
0.6203618333
0.6203589383
0.6203515083
0.6203365351
0.6203632254
0.6203632254
0.6203632254
0.6203632254
0.6203632253
0.620363225
0.6203632237
0.6203632192
0.6203632032
0.6203631481
0.6203629677
0.6203624164
0.6203608855
0.6203571898
0.62034992
0.6203632254
0.6203632254
0.6203632254
0.6203632254
0.6203632253
0.6203632251
0.6203632243
0.6203632214
0.6203632118
0.6203631806
0.6203630847
0.6203628099
0.6203620922
0.6203604401
0.6203572229
0.6203632254
0.6203632254
0.6203632254
0.6203632254
0.6203632254
0.6203632252
0.6203632246
0.6203632226
0.6203632163
0.6203631967
0.6203631399
0.6203629856
0.6203626021
0.6203617496
0.6203600943
0.6203632254
0.6203632254
0.6203632254
0.6203632254
0.6203632253
0.6203632251
0.6203632242
0.6203632213
0.6203632114
0.6203631796
0.6203630826
0.6203628068
0.6203620926
0.6203604585
0.6203632254
0.6203632254
0.6203632254
0.6203632254
0.6203632253
0.620363225
0.6203632237
0.6203632192
0.6203632032
0.6203631481
0.6203629677
0.6203624163
0.6203608852
0.6203571886
0.6203632254
0.6203632254
0.6203632254
0.6203632254
0.6203632253
0.6203632248
0.6203632228
0.6203632152
0.6203631864
0.6203630799
0.6203627026
0.6203614463
0.6203576444
0.6203477494
0.6203277238
0.6203632254
0.6203632254
0.6203632254
0.6203632254
0.6203632252
0.6203632245
0.6203632217
0.6203632104
0.6203631648
0.6203629847
0.6203622946
0.6203597813
0.6203513718
0.6203271199
0.6202747667
0.6203632254
0.6203632254
0.6203632254
0.6203632254
0.6203632252
0.6203632244
0.6203632212
0.6203632079
0.6203631523
0.620362923
0.6203619926
0.6203583369
0.6203448194
0.6203006059
0.6201923036
0.6203632254
0.6203632254
0.6203632254
0.6203632254
0.6203632252
0.6203632245
0.6203632217
0.6203632104
0.6203631648
0.6203629847
0.6203622946
0.6203597814
0.6203513722
0.6203271216
0.6202747716
0.6203632254
0.6203632254
0.6203632254
0.6203632254
0.6203632253
0.6203632248
0.6203632228
0.6203632152
0.6203631864
0.62036308
0.6203627026
0.6203614464
0.6203576448
0.620347751
0.6203277289
0.6203632254
0.6203632254
0.6203632254
0.6203632254
0.6203632253
0.620363225
0.6203632237
0.6203632192
0.6203632032
0.6203631481
0.6203629677
0.6203624163
0.6203608855
0.6203571897
0.62034992
0.6203632254
0.6203632254
0.6203632254
0.6203632254
0.6203632253
0.6203632251
0.6203632242
0.6203632213
0.6203632114
0.6203631796
0.6203630826
0.6203628069
0.6203620928
0.6203604591
0.6203572802
0.6203632254
0.6203632254
0.6203632254
0.6203632254
0.6203632253
0.620363225
0.6203632239
0.6203632199
0.620363206
0.6203631596
0.6203630122
0.6203625747
0.6203613925
0.6203585954
0.6203632254
0.6203632254
0.6203632254
0.6203632254
0.6203632253
0.6203632248
0.6203632231
0.6203632167
0.6203631929
0.6203631067
0.6203628078
0.6203618332
0.6203589376
0.6203515061
0.6203632254
0.6203632254
0.6203632254
0.6203632254
0.6203632252
0.6203632245
0.6203632217
0.6203632104
0.6203631648
0.6203629847
0.6203622945
0.6203597811
0.6203513709
0.6203271153
0.6203632254
0.6203632254
0.6203632254
0.6203632253
0.6203632251
0.6203632242
0.6203632201
0.6203632024
0.6203631259
0.620362797
0.6203614012
0.6203556536
0.6203333967
0.6202575201
0.6200666771
0.6203632254
0.6203632254
0.6203632254
0.6203632253
0.6203632251
0.620363224
0.6203632192
0.6203631978
0.620363101
0.6203626582
0.6203606136
0.6203511489
0.6203080189
0.6201235969
0.6194936514
0.6203632254
0.6203632254
0.6203632254
0.6203632253
0.6203632251
0.6203632242
0.6203632201
0.6203632024
0.6203631259
0.620362797
0.6203614012
0.6203556538
0.6203333982
0.620257528
0.6200667102
0.6203632254
0.6203632254
0.6203632254
0.6203632254
0.6203632252
0.6203632245
0.6203632217
0.6203632104
0.6203631648
0.6203629847
0.6203622946
0.6203597814
0.6203513721
0.6203271212
0.6202747714
0.6203632254
0.6203632254
0.6203632254
0.6203632254
0.6203632253
0.6203632248
0.6203632231
0.6203632167
0.6203631929
0.6203631067
0.6203628078
0.6203618333
0.6203589382
0.6203515081
0.620336535
0.6203632254
0.6203632254
0.6203632254
0.6203632254
0.6203632253
0.620363225
0.6203632239
0.6203632199
0.620363206
0.6203631596
0.6203630123
0.6203625748
0.6203613928
0.6203585962
0.620353117
0.6203632254
0.6203632254
0.6203632254
0.6203632254
0.6203632253
0.620363225
0.6203632237
0.6203632192
0.6203632034
0.6203631493
0.6203629735
0.6203624366
0.6203609394
0.6203572874
0.6203632254
0.6203632254
0.6203632254
0.6203632254
0.6203632253
0.6203632248
0.6203632229
0.6203632155
0.6203631875
0.620363083
0.6203627067
0.6203614195
0.6203573631
0.6203462425
0.6203632254
0.6203632254
0.6203632254
0.6203632254
0.6203632252
0.6203632244
0.6203632212
0.6203632079
0.6203631523
0.620362923
0.6203619925
0.6203583364
0.6203448168
0.6203005944
0.6203632254
0.6203632254
0.6203632254
0.6203632253
0.6203632251
0.620363224
0.6203632192
0.6203631978
0.620363101
0.6203626582
0.6203606135
0.620351148
0.6203080134
0.6201235598
0.6203632254
0.6203632254
0.6203632254
0.6203632253
0.6203632251
0.6203632238
0.6203632181
0.6203631917
0.6203630654
0.6203624382
0.6203591752
0.6203411801
0.6202348728
0.6195574437
0.6148637551
0.6203632254
0.6203632254
0.6203632254
0.6203632253
0.6203632251
0.620363224
0.6203632192
0.6203631978
0.620363101
0.6203626582
0.6203606135
0.6203511485
0.6203080174
0.6201235913
0.6194936452
0.6203632254
0.6203632254
0.6203632254
0.6203632254
0.6203632252
0.6203632244
0.6203632212
0.6203632079
0.6203631523
0.620362923
0.6203619926
0.6203583367
0.6203448187
0.620300604
0.620192302
0.6203632254
0.6203632254
0.6203632254
0.6203632254
0.6203632253
0.6203632248
0.6203632229
0.6203632155
0.6203631875
0.620363083
0.6203627067
0.6203614197
0.6203573637
0.6203462452
0.6203228079
0.6203632254
0.6203632254
0.6203632254
0.6203632254
0.6203632253
0.620363225
0.6203632237
0.6203632192
0.6203632034
0.6203631493
0.6203629735
0.6203624367
0.6203609397
0.6203572884
0.6203500456
0.6203632254
0.6203632254
0.6203632254
0.6203632254
0.6203632253
0.620363225
0.6203632239
0.6203632199
0.620363206
0.6203631596
0.6203630122
0.6203625747
0.6203613925
0.6203585954
0.6203632254
0.6203632254
0.6203632254
0.6203632254
0.6203632253
0.6203632248
0.6203632231
0.6203632167
0.6203631929
0.6203631067
0.6203628078
0.6203618331
0.6203589375
0.620351506
0.6203632254
0.6203632254
0.6203632254
0.6203632254
0.6203632252
0.6203632245
0.6203632217
0.6203632104
0.6203631648
0.6203629847
0.6203622945
0.6203597809
0.6203513703
0.6203271147
0.6203632254
0.6203632254
0.6203632254
0.6203632254
0.6203632251
0.6203632242
0.6203632201
0.6203632024
0.6203631259
0.620362797
0.620361401
0.620355653
0.6203333941
0.6202575096
0.6203632254
0.6203632254
0.6203632254
0.6203632253
0.6203632251
0.620363224
0.6203632192
0.6203631978
0.620363101
0.6203626582
0.6203606134
0.6203511477
0.6203080122
0.6201235562
0.6203632254
0.6203632254
0.6203632254
0.6203632253
0.6203632251
0.6203632242
0.6203632201
0.6203632024
0.6203631259
0.620362797
0.6203614011
0.6203556532
0.6203333949
0.6202575123
0.6203632254
0.6203632254
0.6203632254
0.6203632254
0.6203632252
0.6203632245
0.6203632217
0.6203632104
0.6203631648
0.6203629847
0.6203622945
0.6203597811
0.6203513711
0.6203271177
0.6202747605
0.6203632254
0.6203632254
0.6203632254
0.6203632254
0.6203632253
0.6203632248
0.6203632231
0.6203632167
0.6203631929
0.6203631067
0.6203628078
0.6203618332
0.6203589379
0.6203515074
0.6203365332
0.6203632254
0.6203632254
0.6203632254
0.6203632254
0.6203632253
0.620363225
0.6203632239
0.6203632199
0.620363206
0.6203631596
0.6203630123
0.6203625748
0.6203613927
0.620358596
0.6203531166
0.6203632254
0.6203632254
0.6203632254
0.6203632254
0.6203632253
0.6203632251
0.6203632242
0.6203632213
0.6203632114
0.6203631796
0.6203630826
0.6203628068
0.6203620926
0.6203604585
0.6203632254
0.6203632254
0.6203632254
0.6203632254
0.6203632253
0.620363225
0.6203632237
0.6203632192
0.6203632032
0.6203631481
0.6203629677
0.6203624162
0.6203608851
0.6203571886
0.6203632254
0.6203632254
0.6203632254
0.6203632254
0.6203632253
0.6203632248
0.6203632228
0.6203632152
0.6203631864
0.6203630799
0.6203627025
0.6203614462
0.6203576439
0.6203477481
0.6203632254
0.6203632254
0.6203632254
0.6203632254
0.6203632252
0.6203632245
0.6203632217
0.6203632104
0.6203631648
0.6203629847
0.6203622945
0.6203597809
0.6203513702
0.6203271147
0.6203632254
0.6203632254
0.6203632254
0.6203632254
0.6203632252
0.6203632244
0.6203632212
0.6203632079
0.6203631523
0.6203629229
0.6203619925
0.6203583362
0.6203448163
0.620300594
0.6203632254
0.6203632254
0.6203632254
0.6203632254
0.6203632252
0.6203632245
0.6203632217
0.6203632104
0.6203631648
0.6203629847
0.6203622945
0.620359781
0.6203513704
0.6203271153
0.6203632254
0.6203632254
0.6203632254
0.6203632254
0.6203632253
0.6203632248
0.6203632228
0.6203632152
0.6203631864
0.6203630799
0.6203627026
0.6203614462
0.620357644
0.6203477483
0.6203632254
0.6203632254
0.6203632254
0.6203632254
0.6203632253
0.620363225
0.6203632237
0.6203632192
0.6203632032
0.6203631481
0.6203629677
0.6203624163
0.6203608852
0.620357189
0.6203499181
0.6203632254
0.6203632254
0.6203632254
0.6203632254
0.6203632253
0.6203632251
0.6203632242
0.6203632213
0.6203632114
0.6203631796
0.6203630826
0.6203628068
0.6203620927
0.6203604588
0.6203572797
0.6203632254
0.6203632254
0.6203632254
0.6203632254
0.6203632254
0.6203632252
0.6203632246
0.6203632226
0.6203632163
0.6203631967
0.6203631399
0.6203629855
0.620362602
0.6203617493
0.6203632254
0.6203632254
0.6203632254
0.6203632254
0.6203632253
0.6203632251
0.6203632243
0.6203632214
0.6203632118
0.6203631806
0.6203630847
0.6203628098
0.6203620919
0.6203604396
0.6203632254
0.6203632254
0.6203632254
0.6203632254
0.6203632253
0.620363225
0.6203632237
0.6203632192
0.6203632032
0.6203631481
0.6203629677
0.6203624162
0.6203608851
0.6203571886
0.6203632254
0.6203632254
0.6203632254
0.6203632254
0.6203632253
0.6203632248
0.6203632231
0.6203632167
0.6203631929
0.6203631067
0.6203628078
0.6203618331
0.6203589375
0.620351506
0.6203632254
0.6203632254
0.6203632254
0.6203632254
0.6203632253
0.6203632248
0.6203632229
0.6203632155
0.6203631875
0.620363083
0.6203627067
0.6203614195
0.6203573629
0.6203462424
0.6203632254
0.6203632254
0.6203632254
0.6203632254
0.6203632253
0.6203632248
0.6203632231
0.6203632167
0.6203631929
0.6203631067
0.6203628078
0.6203618331
0.6203589375
0.6203515062
0.6203632254
0.6203632254
0.6203632254
0.6203632254
0.6203632253
0.620363225
0.6203632237
0.6203632192
0.6203632032
0.6203631481
0.6203629677
0.6203624162
0.6203608851
0.6203571887
0.6203632254
0.6203632254
0.6203632254
0.6203632254
0.6203632253
0.6203632251
0.6203632243
0.6203632214
0.6203632118
0.6203631806
0.6203630847
0.6203628098
0.620362092
0.6203604396
0.6203632254
0.6203632254
0.6203632254
0.6203632254
0.6203632254
0.6203632252
0.6203632246
0.6203632226
0.6203632163
0.6203631967
0.6203631399
0.6203629856
0.6203626021
0.6203617494
0.6203600938
0.6203632254
0.6203632254
0.6203632254
0.6203632254
0.6203632254
0.6203632252
0.6203632248
0.6203632233
0.6203632189
0.6203632057
0.620363169
0.6203630731
0.6203628425
0.6203623405
0.6203632254
0.6203632254
0.6203632254
0.6203632254
0.6203632254
0.6203632252
0.6203632246
0.6203632226
0.6203632163
0.6203631967
0.6203631399
0.6203629855
0.620362602
0.6203617493
0.6203632254
0.6203632254
0.6203632254
0.6203632254
0.6203632253
0.6203632251
0.6203632242
0.6203632213
0.6203632114
0.6203631796
0.6203630826
0.6203628068
0.6203620926
0.6203604585
0.6203632254
0.6203632254
0.6203632254
0.6203632254
0.6203632253
0.620363225
0.6203632239
0.6203632199
0.620363206
0.6203631596
0.6203630122
0.6203625747
0.6203613925
0.6203585954
0.6203632254
0.6203632254
0.6203632254
0.6203632254
0.6203632253
0.620363225
0.6203632237
0.6203632192
0.6203632034
0.6203631493
0.6203629735
0.6203624366
0.6203609393
0.6203572874
0.6203632254
0.6203632254
0.6203632254
0.6203632254
0.6203632253
0.620363225
0.6203632239
0.6203632199
0.620363206
0.6203631596
0.6203630122
0.6203625747
0.6203613925
0.6203585955
0.6203632254
0.6203632254
0.6203632254
0.6203632254
0.6203632253
0.6203632251
0.6203632242
0.6203632213
0.6203632114
0.6203631796
0.6203630826
0.6203628068
0.6203620926
0.6203604586
0.6203632254
0.6203632254
0.6203632254
0.6203632254
0.6203632254
0.6203632252
0.6203632246
0.6203632226
0.6203632163
0.6203631967
0.6203631399
0.6203629855
0.620362602
0.6203617493
0.6203632254
0.6203632254
0.6203632254
0.6203632254
0.6203632254
0.6203632252
0.6203632248
0.6203632233
0.6203632189
0.6203632057
0.620363169
0.6203630731
0.6203628425
0.6203623405
)
;

boundaryField
{
    top
    {
        type            zeroGradient;
    }
    bottom
    {
        type            zeroGradient;
    }
    side-walls
    {
        type            zeroGradient;
    }
    inlet
    {
        type            zeroGradient;
    }
    outlet
    {
        type            zeroGradient;
    }
    procBoundary0to1
    {
        type            processor;
        value           nonuniform List<scalar> 
97
(
0.6203596901
0.6203600938
0.6203573278
0.62035217
0.6203447243
0.6203394954
0.6203447245
0.6203521704
0.6203573281
0.6203596904
0.6203600938
0.6203600938
0.6203520935
0.6203499179
0.6203391002
0.6203163848
0.6202953331
0.6203163857
0.6203391014
0.6203520943
0.6203573281
0.6203572796
0.6203499179
0.6203499179
0.6203013595
0.6202747581
0.6202188512
0.6201127175
0.6202188553
0.620301363
0.6203391014
0.6203521704
0.6203531162
0.6203365323
0.6202747581
0.6202747581
0.6199403448
0.619493557
0.6194035949
0.6199403602
0.6202188552
0.6203163856
0.6203447244
0.6203500448
0.6203228052
0.6201922882
0.619493557
0.619493557
0.6171163415
0.6194935608
0.619403595
0.6200666828
0.6201127171
0.620295333
0.6203394953
0.6203531164
0.6203365332
0.6202747647
0.620066687
0.6194935608
0.6200666828
0.6200666828
0.6202188511
0.6203277241
0.6203163843
0.620344724
0.6203572798
0.6203499191
0.6203277263
0.6202747648
0.6201922891
0.6202747652
0.6203277241
0.6203277241
0.6203391003
0.6203572221
0.6203521699
0.6203600941
0.6203572225
0.6203499191
0.6203365332
0.6203228055
0.6203365335
0.6203499189
0.6203572221
0.6203572221
0.6203573278
0.6203613659
0.6203613661
0.6203600941
0.6203572798
0.6203531164
0.6203500449
0.6203531165
0.6203572799
0.620360094
0.6203613659
)
;
    }
}


// ************************************************************************* //
