/*--------------------------------*- C++ -*----------------------------------*\
| =========                 |                                                 |
| \\      /  F ield         | OpenFOAM: The Open Source CFD Toolbox           |
|  \\    /   O peration     | Version:  4.x                                   |
|   \\  /    A nd           | Web:      www.OpenFOAM.org                      |
|    \\/     M anipulation  |                                                 |
\*---------------------------------------------------------------------------*/
FoamFile
{
    version     2.0;
    format      ascii;
    class       surfaceScalarField;
    location    "1000";
    object      phi;
}
// * * * * * * * * * * * * * * * * * * * * * * * * * * * * * * * * * * * * * //

dimensions      [1 0 -1 0 0 0 0];

internalField   nonuniform List<scalar> 
3175
(
9.165406948e-06
-2.249332397e-13
9.586737555e-13
9.165408524e-06
-4.489518713e-13
1.074377583e-12
9.165410244e-06
-8.870208771e-13
-3.254722287e-13
9.165408413e-06
-9.455402388e-13
1.470026133e-13
9.165408446e-06
-1.849640047e-12
-2.919581038e-13
9.165408057e-06
-1.709093425e-12
3.908742215e-13
9.165410748e-06
-1.391489019e-12
-2.316987921e-12
9.165416417e-06
-1.569307796e-12
-2.641904247e-12
9.165425035e-06
-4.129748792e-12
-4.665274563e-12
9.165437007e-06
-5.397480273e-12
-6.530666858e-12
9.165467714e-06
-1.360400288e-11
-1.43463026e-11
9.165505931e-06
-1.873065024e-11
-1.939441861e-11
9.165599598e-06
-4.788342964e-11
-4.865924754e-11
9.165690851e-06
-4.556863938e-11
-4.687240498e-11
-1.245285281e-10
9.165410517e-06
5.541171426e-13
9.088319774e-13
9.165411916e-06
1.590802814e-12
6.516246139e-13
9.165413075e-06
-1.175562873e-12
3.388142399e-13
9.165410576e-06
-6.646952752e-13
5.741792651e-14
9.165411974e-06
-9.51604212e-13
1.263932486e-12
9.16541416e-06
-2.832216637e-12
-1.581562773e-12
9.16541655e-06
-1.5517591e-12
-1.956840971e-12
9.165418925e-06
-1.88729175e-12
-1.372299303e-12
9.165426277e-06
-7.16015146e-12
-3.482933008e-12
9.165437015e-06
-1.201756142e-11
-5.760477501e-12
9.165461859e-06
-2.379371325e-11
-1.438290742e-11
9.16549288e-06
-3.113551644e-11
-1.946011097e-11
9.165583923e-06
-8.10277949e-11
-5.708233416e-11
9.165667537e-06
-8.125924706e-11
-5.175160032e-11
-2.385934397e-10
-1.904710011e-10
9.165423791e-06
9.199968248e-13
-4.35586562e-14
9.165421777e-06
-1.830733939e-13
5.554460345e-13
9.165424088e-06
-8.949061083e-14
1.081481765e-12
9.165422449e-06
-6.305169629e-13
-7.491402731e-13
9.165424042e-06
-6.207217483e-13
1.549699649e-12
9.165424659e-06
-3.743933005e-13
9.152276682e-14
9.165422855e-06
-1.302547589e-12
-1.771495371e-12
9.165422321e-06
-2.943574333e-12
-3.410568501e-12
9.165427703e-06
-5.03497078e-12
-3.956704742e-12
9.165432242e-06
-8.562114141e-12
-4.442274716e-12
9.165444954e-06
-1.980073512e-11
-1.577846181e-11
9.165460212e-06
-2.703904809e-11
-2.356853742e-11
9.165536106e-06
-7.781494765e-11
-7.891166174e-11
9.165596961e-06
-7.362626117e-11
-6.742410343e-11
-2.885472303e-10
-3.87987873e-10
9.165414609e-06
3.479549317e-13
2.95110548e-13
9.16541424e-06
1.405369345e-13
1.56924035e-12
9.165416535e-06
6.60099945e-13
9.258554611e-13
9.165415739e-06
2.484306959e-13
-9.683795453e-13
9.165416327e-06
-1.577643645e-13
-5.264359582e-13
9.165415425e-06
-1.626650759e-12
-3.412394471e-13
9.165413649e-06
-1.716689842e-12
-1.986239379e-12
9.165413863e-06
-2.02993064e-12
-1.888785092e-12
9.165415703e-06
-1.954284543e-12
-2.032113819e-12
9.165418356e-06
-3.366968754e-12
-3.573661849e-12
9.165422696e-06
-1.282471688e-11
-1.232788102e-11
9.165434659e-06
-1.729019137e-11
-2.056582086e-11
9.16549438e-06
-5.976036547e-11
-8.062570436e-11
9.165560025e-06
-6.53103406e-11
-7.373204197e-11
-2.521348574e-10
-6.068084263e-10
9.165412302e-06
4.72267391e-13
-5.756048152e-14
9.165411945e-06
9.272173279e-13
-1.476751172e-13
9.165413536e-06
6.924590933e-13
-2.494270366e-13
9.165411605e-06
-2.884917645e-13
-1.017753009e-12
9.165411844e-06
-2.834909948e-13
-8.167685886e-13
9.16541367e-06
-1.946384901e-13
-1.637590942e-13
9.165412393e-06
-7.044294428e-13
-3.949198728e-13
9.165410587e-06
-1.55549345e-13
-1.404458443e-12
9.165405998e-06
2.246859311e-12
-2.893449967e-12
9.165404075e-06
5.073003118e-12
-3.520657415e-12
9.165392541e-06
1.161787317e-11
-1.253179559e-11
9.165374266e-06
1.477998508e-11
-1.623477983e-11
9.165379659e-06
5.755957074e-11
-1.27008949e-10
9.165355986e-06
6.462582763e-11
-9.963371591e-11
2.507077499e-10
-1.381588412e-09
9.165414764e-06
-8.815005057e-15
-1.974026558e-12
9.165414691e-06
9.495124283e-13
-1.141423688e-12
9.165413369e-06
-1.20324255e-13
9.715010445e-14
9.165414989e-06
4.105291776e-13
3.205504097e-13
9.165414935e-06
1.053305656e-12
8.117165654e-13
9.165415472e-06
2.40670118e-12
-6.405071759e-13
9.165415766e-06
1.517823474e-12
4.159419351e-14
9.165415191e-06
1.555083657e-12
1.054208391e-13
9.16541489e-06
5.345235038e-12
-2.846298606e-12
9.165416035e-06
7.950721518e-12
-5.774954952e-12
9.165421758e-06
1.844344535e-11
-1.194837362e-11
9.165434147e-06
2.613619823e-11
-1.83080152e-11
9.165493942e-06
7.769261528e-11
-7.859453974e-11
9.165560044e-06
7.241769657e-11
-7.268967765e-11
2.857672869e-10
-6.070773279e-10
9.165420938e-06
-3.500291201e-14
-3.818000737e-13
9.165420336e-06
3.107980237e-13
-4.164392709e-13
9.165420513e-06
7.350368983e-13
-1.625124454e-13
9.165422426e-06
6.645301462e-13
5.234690812e-13
9.165421944e-06
3.387607266e-13
-1.832631052e-12
9.165418622e-06
4.538740537e-13
-1.642498186e-12
9.165423614e-06
5.194898254e-12
2.785911315e-13
9.165425112e-06
4.787464006e-12
1.097468018e-13
9.165426341e-06
7.108155116e-12
-2.893516461e-12
9.165428233e-06
1.043045257e-11
-5.440646784e-12
9.165443364e-06
2.383035255e-11
-1.514650809e-11
9.165459566e-06
3.339520695e-11
-2.099690132e-11
9.165535113e-06
8.096879992e-11
-7.839477927e-11
9.165595444e-06
7.923489307e-11
-6.78815108e-11
2.377425472e-10
-3.867440897e-10
9.165416783e-06
-1.174000384e-12
-1.434553959e-12
9.16541792e-06
-1.23348165e-13
-1.000821547e-12
9.165417728e-06
-2.387220301e-13
-8.719632155e-13
9.165417826e-06
1.151766254e-13
-6.363726068e-13
9.165416264e-06
4.077372787e-13
-2.066875707e-12
9.165420267e-06
1.342039486e-12
-2.362928807e-14
9.165419444e-06
6.769055671e-13
-1.357807436e-12
9.16542328e-06
3.219440615e-12
-2.197051525e-12
9.165429795e-06
6.011001251e-12
-3.631151966e-12
9.165439206e-06
7.816111094e-12
-4.881862293e-12
9.165465045e-06
1.464588966e-11
-1.465324916e-11
9.165494269e-06
1.825003416e-11
-1.937558952e-11
9.165585315e-06
4.574875669e-11
-5.771071541e-11
9.165668923e-06
4.368223467e-11
-5.007725411e-11
1.238425204e-10
-1.90099869e-10
9.165414049e-06
-7.752314225e-13
9.165413948e-06
-2.08207333e-12
9.165414724e-06
-2.692124439e-12
9.165413503e-06
-1.678221485e-12
9.165415445e-06
4.845933977e-13
9.165416462e-06
-7.212277954e-13
9.16541957e-06
-4.350618825e-13
9.165423949e-06
-2.73858332e-12
9.165434159e-06
-4.26470532e-12
9.165444208e-06
-5.857579063e-12
9.165475418e-06
-1.339207496e-11
9.165512782e-06
-1.788323824e-11
9.165607389e-06
-4.681826986e-11
9.165698295e-06
-4.440066182e-11
-1.231613929e-10
9.165402594e-06
-2.070595401e-13
-5.39324607e-14
9.165402714e-06
1.953587241e-13
3.700146417e-13
9.165400691e-06
-1.217824092e-13
-5.947496614e-13
9.16540278e-06
3.006759725e-13
1.173042066e-12
9.165405134e-06
6.688462747e-13
6.289088414e-13
9.165402635e-06
-2.947886722e-12
-1.192754131e-12
9.165405594e-06
-1.550965862e-12
-2.638568677e-12
9.165408431e-06
-3.81121215e-13
-1.746014787e-12
9.165416064e-06
-3.811255059e-12
-5.376978143e-12
9.165424025e-06
-6.236304654e-12
-1.13905688e-11
9.165448703e-06
-1.401573935e-11
-2.341137264e-11
9.165479894e-06
-1.849690206e-11
-3.100347446e-11
9.165572053e-06
-5.61176722e-11
-8.068771845e-11
-5.02033842e-11
-7.918564113e-11
9.165408295e-06
-5.089954977e-13
3.504104599e-13
9.165408289e-06
7.774129078e-13
8.023297064e-13
9.165408804e-06
9.521000875e-13
1.194363302e-12
9.165407678e-06
-1.082944289e-12
5.514346497e-13
9.16540613e-06
-9.978626758e-13
-4.216403118e-13
9.165408224e-06
-4.172257488e-13
1.159246653e-12
9.165408781e-06
-1.550562618e-12
-2.627094371e-13
9.165409515e-06
-3.298818139e-12
-3.177224906e-12
9.165416167e-06
-7.229016992e-12
-6.467055982e-12
9.165422996e-06
-9.791237735e-12
-1.12708554e-11
9.165437177e-06
-2.374360604e-11
-2.428398899e-11
9.165462991e-06
-3.2660606e-11
-3.257803332e-11
9.165544178e-06
-9.780550356e-11
-9.708691875e-11
9.165627716e-06
-9.008518195e-11
-8.930539402e-11
-3.910254926e-10
9.165393595e-06
1.330136693e-12
1.103442899e-12
9.165391953e-06
6.081235072e-14
-8.3159363e-13
9.16538997e-06
-1.596091491e-12
2.115814997e-13
9.165393154e-06
-2.31397306e-13
8.935204484e-13
9.16538999e-06
-1.526310452e-12
1.020976321e-12
9.165390506e-06
2.71880254e-13
-3.651819042e-13
9.165391171e-06
-1.13332428e-12
-9.975668813e-13
9.165390029e-06
-1.974279286e-12
-3.723665267e-12
9.165391046e-06
-3.467137125e-12
-5.666454282e-12
9.165388298e-06
-7.636812785e-12
-8.221592113e-12
9.165392091e-06
-1.879243654e-11
-2.159964231e-11
9.165397854e-06
-2.621237524e-11
-3.384128116e-11
9.165449346e-06
-9.391347436e-11
-1.309313039e-10
9.165498841e-06
-8.44129447e-11
-1.281330304e-10
-5.39026337e-10
-8.634767917e-10
9.165418647e-06
2.595797908e-13
-5.421331549e-13
9.16541683e-06
-1.4258409e-12
-1.281637547e-12
9.16541773e-06
-9.722580811e-14
9.861275401e-13
9.165418376e-06
1.368765396e-14
1.645876126e-12
9.165419553e-06
-1.463437777e-13
4.094726038e-13
9.165417056e-06
-1.140256265e-12
-1.382068729e-12
9.165418317e-06
-6.32208517e-13
-1.102368173e-12
9.165416784e-06
-1.225955676e-12
-3.513241025e-12
9.165413465e-06
-3.614073434e-12
-3.591243288e-12
9.165412963e-06
-4.800130232e-12
-4.488728823e-12
9.165407047e-06
-1.33266635e-11
-1.094203749e-11
9.165413414e-06
-1.691652361e-11
-2.877581224e-11
9.165431744e-06
-8.265736223e-11
-1.093802553e-10
9.165532033e-06
-8.980665863e-11
-1.675637845e-10
-5.126957682e-10
-1.44704868e-09
9.165389891e-06
-1.579782747e-12
-5.550005917e-13
9.165390774e-06
1.208315364e-13
4.522871481e-13
9.165392073e-06
6.400204471e-13
-3.666465842e-14
9.165391754e-06
5.615874172e-13
1.071265987e-12
9.165392935e-06
1.721821704e-12
-3.672758774e-13
9.165391093e-06
-6.819443263e-13
-1.63957714e-12
9.165389737e-06
-5.584018171e-13
-1.449933915e-12
9.16538799e-06
-2.397828868e-14
-9.035782752e-14
9.165379559e-06
1.064533167e-12
-7.927864031e-13
9.165373283e-06
3.843170874e-12
3.786322692e-13
9.165342115e-06
1.048248794e-11
-8.228362132e-12
9.165297203e-06
1.531557932e-11
-1.209265459e-11
9.165182509e-06
8.102330909e-11
-1.760738562e-10
9.16508301e-06
8.859118121e-11
-1.75697212e-10
5.110236836e-10
-3.930933835e-09
9.165420295e-06
7.827474769e-13
6.351258839e-13
9.165419564e-06
-3.559222937e-14
1.583210355e-12
9.165420476e-06
-4.82684701e-14
5.995185571e-13
9.165420699e-06
1.296242779e-14
-9.716963978e-14
9.165420616e-06
-1.637063975e-12
-7.424866304e-13
9.165422928e-06
1.037665535e-12
-4.784718737e-13
9.165423499e-06
1.824077326e-12
-8.441163295e-13
9.165420275e-06
1.446178374e-12
-2.656967569e-12
9.165418381e-06
5.12820474e-12
-2.770252291e-12
9.16541766e-06
8.019725277e-12
-3.82827333e-12
9.165411519e-06
1.884024253e-11
-1.172561987e-11
9.165416009e-06
2.484381811e-11
-3.069506763e-11
9.165434665e-06
9.36905337e-11
-1.100345362e-10
9.165535478e-06
8.302088393e-11
-1.666947627e-10
5.383213707e-10
-1.448610652e-09
9.165395086e-06
-4.448059732e-13
8.601941165e-14
9.165396314e-06
-4.272536082e-13
-5.274468408e-13
9.165396099e-06
-1.03747085e-12
4.244050863e-13
9.165393295e-06
-2.273944629e-13
-9.427201475e-13
9.165396056e-06
3.920700243e-13
5.215578163e-13
9.165396519e-06
1.9241355e-12
-4.244274719e-13
9.165396505e-06
2.485462305e-12
-1.293204145e-12
9.165398303e-06
2.498288708e-12
-1.594814782e-12
9.16539942e-06
7.14369455e-12
-4.42486449e-12
9.165397456e-06
9.656509678e-12
-7.097171229e-12
9.165400721e-06
2.240746383e-11
-2.200475445e-11
9.165408628e-06
3.348048214e-11
-3.39195353e-11
9.165456971e-06
9.68459989e-11
-1.301617154e-10
9.165508321e-06
9.059349459e-11
-1.261700428e-10
3.894669293e-10
-8.614013116e-10
9.165423413e-06
-1.368377201e-12
2.53369085e-13
9.165422753e-06
6.973408473e-16
7.493372751e-13
9.16542398e-06
-5.826385073e-13
7.930274863e-13
9.165422305e-06
-1.543985317e-12
-1.555817377e-12
9.165423663e-06
1.324176334e-13
3.39841981e-13
9.165423365e-06
-3.213832699e-13
-1.530581951e-12
9.165422593e-06
9.291762995e-13
-2.189800636e-12
9.165426487e-06
2.244154707e-12
-2.849737846e-12
9.165428499e-06
4.980297247e-12
-5.152044682e-12
9.165432777e-06
5.919056563e-12
-9.832056369e-12
9.165452046e-06
1.570065195e-11
-2.289967037e-11
9.165475367e-06
1.945776202e-11
-3.187112638e-11
9.165556064e-06
5.669956567e-11
-9.573237813e-11
9.165636264e-06
4.942410438e-11
-8.96768326e-11
1.903116556e-10
-3.888356202e-10
9.165416184e-06
-1.085391962e-12
9.165414816e-06
-1.16627104e-14
9.16541654e-06
2.772556844e-13
9.165416278e-06
-3.874777873e-13
9.165416641e-06
-6.379040092e-13
9.165418157e-06
2.573187699e-14
9.165419198e-06
-1.806984689e-12
9.16542267e-06
-1.809069707e-12
9.165428274e-06
-5.903586613e-12
9.165439021e-06
-8.899615816e-12
9.165462581e-06
-2.359175983e-11
9.165493411e-06
-3.181096062e-11
9.165584302e-06
-7.948524147e-11
9.165667988e-06
-7.818884653e-11
-2.378589862e-10
9.165418112e-06
-4.669960287e-14
6.099548045e-13
9.165418357e-06
-1.297569027e-13
1.125892112e-12
9.16541949e-06
1.375474823e-12
1.564358556e-12
9.165419136e-06
-3.460622998e-13
9.875666796e-13
9.16541871e-06
-4.853260472e-13
-6.469348429e-13
9.165415653e-06
-9.248647797e-13
-1.532219256e-12
9.16541997e-06
-2.962461768e-13
1.285510175e-12
9.165421177e-06
-1.936718389e-12
-1.849878832e-12
9.165421804e-06
-4.071547326e-12
-5.961939329e-12
9.165428203e-06
-6.635011787e-12
-8.265847868e-12
9.165441491e-06
-1.504481829e-11
-2.005256637e-11
9.165456925e-06
-2.0558156e-11
-2.523332637e-11
9.165534488e-06
-7.779812178e-11
-7.796496544e-11
-6.699760423e-11
-7.046395692e-11
9.165405809e-06
2.534117421e-13
6.523301507e-13
9.165408198e-06
-2.753617514e-13
9.788657524e-13
9.165408647e-06
-1.280059605e-12
7.711491075e-14
9.165408321e-06
-1.42430751e-12
-1.320665329e-12
9.165407848e-06
-5.140855573e-13
-2.179409772e-12
9.165407383e-06
-1.966659088e-12
-2.441010741e-12
9.16540916e-06
-2.09385654e-12
-1.629457934e-12
9.165407737e-06
-3.992408565e-12
-1.916953173e-12
9.165407221e-06
-7.052748641e-12
-4.287107018e-12
9.165408941e-06
-7.037855916e-12
-6.51636783e-12
9.165410426e-06
-2.14029603e-11
-1.847060061e-11
9.165415809e-06
-3.498720522e-11
-2.406412709e-11
9.165466407e-06
-1.308104101e-10
-9.294530978e-11
-1.295041601e-10
-8.201783436e-11
9.165398107e-06
-1.467094926e-13
-5.555441525e-13
9.165399622e-06
-1.009948117e-12
4.152911769e-13
9.165399235e-06
-1.042263281e-13
1.427177322e-12
9.165400713e-06
2.050322235e-13
1.086762865e-12
9.165396649e-06
-1.164909356e-12
-9.505054314e-13
9.165397387e-06
-8.949529292e-13
-5.443260395e-13
9.165397328e-06
-8.337522128e-13
-6.000035947e-13
9.165397795e-06
-1.473754827e-12
-1.311300902e-12
9.165394539e-06
-2.640716537e-12
-2.570650618e-12
9.165386769e-06
-4.308921423e-12
-6.039573728e-12
9.165367531e-06
-1.327111953e-11
-1.453080294e-11
9.165341598e-06
-1.899823228e-11
-2.016147268e-11
9.16532261e-06
-1.214660435e-10
-1.202217701e-10
9.165284107e-06
-1.090062743e-10
-1.084007619e-10
-1.408762952e-09
9.16540908e-06
2.510794437e-13
-8.850049708e-13
9.165413346e-06
-1.893687351e-13
2.050565662e-13
9.165412107e-06
-6.556746741e-13
-1.102791851e-13
9.165410977e-06
-8.165869956e-13
1.487865355e-12
9.165408405e-06
-1.463577054e-12
2.903801995e-14
9.165408406e-06
-2.095096506e-12
-2.560484338e-13
9.165407811e-06
-1.303300933e-12
5.070082146e-13
9.165408531e-06
8.578703612e-13
-5.881957825e-13
9.165401934e-06
-1.279016058e-12
-7.378643678e-14
9.165391289e-06
-3.992202152e-12
-3.703633826e-13
9.165370524e-06
-1.372155238e-11
4.1046922e-12
9.165336148e-06
-1.57335637e-11
-5.314784922e-12
9.16527681e-06
-1.306884e-10
-4.072824246e-11
9.165292866e-06
-1.446836358e-10
-1.42773085e-10
-1.463099515e-09
-2.802733256e-09
9.165409698e-06
-3.236520547e-13
-1.275176006e-12
9.165411281e-06
-6.804297791e-14
8.87774139e-13
9.16541367e-06
8.147568584e-13
7.904359571e-13
9.165411468e-06
-5.154601783e-13
7.871560165e-13
9.165411909e-06
4.94016913e-13
5.056726721e-13
9.165413315e-06
3.14546162e-13
1.106512112e-12
9.165410799e-06
-5.874405743e-13
9.399120541e-13
9.165405631e-06
-1.491454123e-12
1.157936965e-13
9.165398666e-06
7.472504625e-14
2.719802529e-12
9.165386545e-06
1.904293086e-12
1.046725251e-11
9.165332054e-06
1.073333415e-11
2.308967799e-11
9.165215272e-06
1.190488864e-11
7.905273604e-11
9.164832676e-06
1.280422837e-10
-4.965771884e-11
9.163998193e-06
1.454213577e-10
3.713259763e-10
1.461864332e-09
-1.021400524e-08
9.165417837e-06
-1.855910617e-13
-8.274756232e-13
9.165417343e-06
-8.694816441e-13
-1.359923338e-13
9.165416793e-06
1.107103065e-13
-1.40480519e-12
9.165417088e-06
6.126396505e-14
-4.879562461e-13
9.165416154e-06
4.618129725e-13
-1.51510791e-12
9.165415934e-06
4.244238067e-13
2.845247315e-13
9.165414112e-06
9.859861478e-13
3.466780329e-13
9.165410947e-06
2.480297856e-12
-6.217458371e-13
9.165405435e-06
3.318865438e-12
1.152569018e-12
9.165396206e-06
5.934382389e-12
2.269136678e-13
9.165375518e-06
1.346733344e-11
6.269043256e-12
9.165343763e-06
2.046339702e-11
-2.55055259e-12
9.165286935e-06
1.224917068e-10
-3.905727427e-11
9.165298006e-06
1.096786859e-10
-1.452899411e-10
1.412088602e-09
-2.800969836e-09
9.165426648e-06
-1.406447425e-13
-1.526736625e-12
9.165429941e-06
1.15779047e-12
1.465162946e-13
9.165428382e-06
-6.968662299e-13
-8.121605357e-14
9.165428243e-06
-9.437425268e-13
-7.373124829e-13
9.165424633e-06
-5.648218166e-13
-1.782141707e-12
9.165426989e-06
1.172750868e-12
-4.353476899e-14
9.165425849e-06
1.726006538e-12
-1.061472035e-12
9.165422793e-06
1.39634864e-12
-2.935679872e-12
9.165419775e-06
6.41799996e-12
-4.231270036e-12
9.165409419e-06
8.480331687e-12
-5.213290113e-12
9.16539351e-06
2.222093962e-11
-1.362678519e-11
9.165368202e-06
3.578778479e-11
-1.803880034e-11
9.165347457e-06
1.31261202e-10
-1.208896099e-10
9.165305326e-06
1.264031308e-10
-1.090890708e-10
8.622085755e-10
-1.410810979e-09
9.165404867e-06
-1.83724826e-12
2.484472088e-13
9.165403775e-06
-3.809761207e-13
5.928394533e-13
9.165403307e-06
-6.229470629e-13
-4.640395392e-13
9.165403984e-06
5.653021909e-15
-9.143474549e-13
9.165402708e-06
3.404791488e-13
-3.10610588e-13
9.165403731e-06
2.166827445e-12
-7.930675237e-13
9.165404192e-06
1.508030279e-12
-5.90730976e-13
9.165406397e-06
2.764001896e-12
-9.11263718e-13
9.165403088e-06
4.350657024e-12
-5.275603974e-12
9.165402555e-06
6.219113708e-12
-6.938536601e-12
9.165406796e-06
1.574032083e-11
-1.723167195e-11
9.165412605e-06
2.024164693e-11
-2.578975005e-11
9.165461329e-06
7.798129381e-11
-9.4380465e-11
9.165512035e-06
6.817080227e-11
-8.310151127e-11
3.856959976e-10
-5.391553943e-10
9.165428835e-06
2.5225533e-13
9.165428248e-06
-5.303245566e-13
9.165427819e-06
-7.655788136e-14
9.165427454e-06
-1.171452258e-12
9.165427918e-06
-4.705441811e-14
9.165428857e-06
-7.937172154e-13
9.165428598e-06
-1.032764265e-12
9.16543011e-06
-2.134045276e-12
9.16543154e-06
-5.56361971e-12
9.165434456e-06
-8.25043475e-12
9.165449064e-06
-1.908350468e-11
9.16546751e-06
-2.46003633e-11
9.165540632e-06
-7.814171086e-11
9.165601097e-06
-7.26080089e-11
-2.854345258e-10
9.165422742e-06
1.679982344e-13
4.266928611e-13
9.165422199e-06
-6.193572806e-13
-5.028722974e-15
9.165421179e-06
-1.016994461e-12
-2.875514974e-13
9.165420343e-06
-1.408820435e-12
-1.007400251e-12
9.165421914e-06
-4.221602156e-13
1.333223969e-13
9.165420622e-06
-1.995218421e-12
-1.423069443e-12
9.165418706e-06
-1.823950295e-12
-8.587569944e-13
9.165419972e-06
-1.934218933e-12
-1.74086329e-12
9.165418419e-06
-4.081991962e-12
-2.599273135e-12
9.165421196e-06
-4.949859207e-12
-3.82980107e-12
9.165427204e-06
-1.258653878e-11
-1.110968249e-11
9.165436666e-06
-1.86233284e-11
-1.725081584e-11
9.165500117e-06
-7.697535208e-11
-5.799655281e-11
-7.413409174e-11
-6.366396697e-11
9.165406088e-06
-8.517581062e-13
-6.186916706e-14
9.165406652e-06
-6.233039679e-13
-1.095025157e-12
9.165403963e-06
1.372612569e-15
-7.59783075e-13
9.165404969e-06
3.768470912e-13
4.757373238e-14
9.165404767e-06
8.90089356e-13
5.661997252e-13
9.165404425e-06
-7.962250029e-14
-2.73058096e-13
9.165402448e-06
-5.009748256e-13
2.984938161e-13
9.165400748e-06
-3.04445125e-12
-1.188724744e-12
9.165398206e-06
-3.847142602e-12
-1.219751546e-12
9.165398118e-06
-6.293683529e-12
-2.535779421e-12
9.165393078e-06
-1.227518631e-11
-1.203382954e-11
9.165395e-06
-3.237726598e-11
-1.927064351e-11
9.165414075e-06
-1.098799282e-10
-8.314289935e-11
-1.69339554e-10
-8.880962645e-11
9.165415907e-06
-9.487942219e-14
-9.494563104e-13
9.165416885e-06
-1.642874029e-12
-3.278777991e-13
9.165417359e-06
-1.134911793e-12
-1.560134855e-12
9.165416183e-06
2.230502922e-13
-2.104688327e-12
9.165413359e-06
-2.543102971e-14
-7.530493371e-13
9.165415035e-06
6.641508995e-13
6.401896844e-16
9.165411873e-06
-3.896888966e-13
1.550856932e-13
9.165412635e-06
-3.142523363e-13
6.012221186e-13
9.16540828e-06
2.034345237e-13
-5.806509e-13
9.165399078e-06
1.608298333e-12
-6.580928078e-13
9.165377418e-06
5.923139778e-12
-1.08685115e-11
9.165347157e-06
-4.244858637e-12
-1.393213262e-11
9.165284719e-06
-4.106598603e-11
-1.296581422e-10
-1.436997199e-10
-1.442158763e-10
9.165404021e-06
-4.257991081e-13
5.286731622e-13
9.165406426e-06
1.22493425e-12
8.73176545e-13
9.165405583e-06
-7.10207778e-13
-1.107095119e-12
9.165402765e-06
-1.369258266e-13
-2.564941676e-12
9.165402146e-06
-1.036358106e-12
-9.066960049e-13
9.165401953e-06
-8.367513339e-13
-5.567591714e-13
9.165400507e-06
-5.489934008e-13
9.072613488e-14
9.165400718e-06
1.400473931e-12
-5.757919397e-14
9.165399493e-06
1.085629431e-12
1.025255298e-12
9.165393022e-06
1.737268313e-12
9.027669387e-13
9.165403205e-06
9.1509737e-13
1.894713789e-12
9.165383124e-06
6.133064218e-12
7.351243566e-12
9.165497862e-06
-9.812404136e-11
-9.751366942e-11
9.165899441e-06
-3.479264232e-10
-3.463726572e-10
-3.04287934e-09
9.16541768e-06
1.52131179e-13
1.189821088e-12
9.165417669e-06
-1.808057052e-13
3.950134609e-13
9.165418774e-06
-1.939200239e-13
1.214603302e-12
9.165414363e-06
-1.59988232e-12
-8.901850113e-13
9.165415929e-06
-7.110035954e-13
4.375528498e-13
9.165415717e-06
-4.270540813e-13
8.48866539e-14
9.165415889e-06
-5.915152579e-13
8.916279836e-13
9.16541664e-06
-1.257464255e-12
6.365052794e-13
9.165416394e-06
-1.684271709e-13
3.203427526e-12
9.165420287e-06
-1.718135621e-12
1.603765898e-11
9.165423206e-06
-2.084310597e-12
2.714171212e-11
9.165351171e-06
-7.231173213e-12
1.633411651e-10
9.164985674e-06
9.763180318e-11
1.186284349e-10
9.162992649e-06
3.461103457e-10
1.681747445e-09
3.042978814e-09
-1.996464732e-08
9.165424782e-06
-7.871819863e-13
6.893074355e-13
9.165423709e-06
-1.920980837e-13
1.182009578e-12
9.165422576e-06
9.285966477e-13
-3.605709519e-14
9.165422198e-06
-3.319677743e-13
1.591436308e-13
9.165421439e-06
4.420567549e-13
5.429307782e-13
9.165421813e-06
4.74106278e-13
1.224142454e-12
9.165420547e-06
-2.055791177e-13
2.846923348e-13
9.165422333e-06
7.401611688e-13
8.647235906e-13
9.165417704e-06
-1.780627567e-12
4.283140752e-13
9.165416025e-06
-1.609555539e-13
3.235710508e-12
9.165423009e-06
-6.490216052e-12
2.834766124e-12
9.165402211e-06
4.301871506e-12
6.7244422e-12
9.16551614e-06
4.066008942e-11
-9.786971685e-11
9.165919733e-06
1.449474046e-10
-3.446453083e-10
2.801570531e-09
-3.041797896e-09
9.165413876e-06
1.529758664e-12
3.420236137e-13
9.165411887e-06
-5.226249602e-14
5.368667234e-13
9.165412504e-06
-1.016839248e-12
2.403813264e-13
9.165413691e-06
-1.58052134e-12
4.81580146e-13
9.165412214e-06
1.943957557e-13
-1.260618473e-13
9.165411965e-06
-3.035667009e-13
-8.030362706e-13
9.165412091e-06
1.517196801e-12
-1.688532868e-12
9.165409691e-06
2.8054456e-12
-4.915697408e-13
9.165405371e-06
4.304963878e-12
-6.851569469e-13
9.165395335e-06
5.788894054e-12
-1.670274255e-12
9.165377302e-06
1.297230006e-11
-9.818126794e-12
9.165343779e-06
3.07328489e-11
-1.302751311e-11
9.165284355e-06
1.081528336e-10
-1.295966934e-10
9.165295785e-06
1.671634831e-10
-1.439727088e-10
1.447359923e-09
-1.462109034e-09
9.165418295e-06
-2.206635103e-12
4.336828494e-13
9.165416202e-06
-1.008843474e-12
-7.102498994e-14
9.165415853e-06
-1.461498097e-13
-1.288548365e-12
9.165417675e-06
-3.19715763e-13
1.627317922e-12
9.165415181e-06
2.589568277e-13
-2.294418401e-13
9.165417131e-06
2.182770255e-12
2.014544409e-13
9.165416428e-06
1.987812615e-12
-5.864397665e-13
9.165415139e-06
1.136281639e-12
-1.197109551e-12
9.165413322e-06
2.921045142e-12
-2.358640255e-12
9.165410303e-06
4.388394132e-12
-2.905865718e-12
9.165404584e-06
1.123413253e-11
-1.070803164e-11
9.165408186e-06
1.956709404e-11
-1.780667435e-11
9.165428729e-06
7.898252177e-11
-8.256080637e-11
9.165528111e-06
7.3697218e-11
-8.954464934e-11
6.068290778e-10
-5.114616837e-10
9.165414312e-06
1.393000196e-12
9.165414732e-06
-4.235292384e-13
9.16541401e-06
-1.336295282e-12
9.165416059e-06
1.360514358e-12
9.165415064e-06
-2.828440496e-13
9.165414269e-06
-6.935885671e-13
9.165413344e-06
-4.012214733e-13
9.165415071e-06
-2.033503731e-12
9.165416499e-06
-3.578689696e-12
9.165416931e-06
-3.131487742e-12
9.165424556e-06
-1.019678673e-11
9.165433793e-06
-1.558098452e-11
9.165495824e-06
-5.864594119e-11
9.165560302e-06
-6.473345921e-11
-2.495139145e-10
9.165407058e-06
-2.461782063e-13
2.117965776e-14
9.16540722e-06
-4.871519526e-13
-2.385626351e-14
9.165407398e-06
-1.71224569e-12
-1.18682171e-12
9.165407322e-06
-7.403407489e-13
-6.928968202e-13
9.165406709e-06
-6.515212458e-13
-1.460969405e-12
9.165407959e-06
-6.392823707e-13
-2.867979775e-13
9.165406584e-06
-8.582484078e-13
3.76937267e-13
9.165407528e-06
-7.521871215e-13
1.897703542e-12
9.165404104e-06
-2.342676699e-12
2.057430743e-12
9.165399612e-06
-2.627186848e-12
5.708951811e-12
9.165386901e-06
-1.274680239e-11
1.247531696e-11
9.165369528e-06
-1.665006573e-11
1.841863495e-11
9.1653769e-06
-1.262843322e-10
5.990614664e-11
-1.007501977e-10
6.277346784e-11
9.165400586e-06
-1.750528174e-12
2.552302206e-13
9.165403089e-06
4.783946755e-13
3.549333654e-13
9.165403806e-06
-2.834801623e-13
-9.144183083e-13
9.165403688e-06
-7.065736348e-13
-1.629562237e-14
9.16540294e-06
-9.000359571e-13
-8.874443215e-13
9.165404711e-06
-7.355919247e-13
-5.202985845e-13
9.165402996e-06
2.777222587e-13
3.640401412e-13
9.1654005e-06
-1.403577939e-13
1.257499325e-12
9.165394652e-06
-1.668612731e-12
1.874158185e-12
9.165384351e-06
-7.99627436e-13
4.088939121e-12
9.165354364e-06
-7.973507193e-12
1.361401821e-11
9.16531112e-06
-1.052406121e-11
1.968142154e-11
9.165195909e-06
-1.754841289e-10
8.318974691e-11
-1.775814023e-10
8.943820582e-11
9.165411376e-06
1.636486606e-12
1.489071032e-12
9.165410018e-06
2.393059111e-13
1.644468199e-13
9.165410242e-06
-6.521411222e-13
-2.952892022e-13
9.165411688e-06
4.243654984e-13
-2.388961508e-13
9.165409579e-06
-1.252758039e-12
-6.285256413e-13
9.165409922e-06
-4.946294411e-13
3.055140495e-13
9.165407776e-06
-8.225725608e-13
3.349905425e-14
9.16540632e-06
-1.026786095e-12
7.096062767e-13
9.165398726e-06
3.051963804e-12
1.561835425e-12
9.16538441e-06
9.252757157e-12
1.664189772e-12
9.165331464e-06
2.248942574e-11
1.132559983e-11
9.165216458e-06
8.014830687e-11
1.461482942e-11
9.164833214e-06
-5.048184613e-11
1.297460333e-10
3.716529437e-10
1.450281927e-10
9.165414147e-06
3.271612438e-13
2.46714593e-13
9.165413887e-06
-2.401906367e-13
-4.999783621e-13
9.165415353e-06
2.818222326e-13
-4.608892958e-13
9.165415896e-06
-6.811591383e-14
-4.195421695e-13
9.165414506e-06
2.362924401e-13
-6.08966947e-13
9.16541569e-06
-4.807843038e-13
3.181905695e-13
9.165412895e-06
1.248764255e-13
-4.236054724e-13
9.165415399e-06
2.4671417e-12
8.506770124e-13
9.165414535e-06
3.836290592e-12
3.330332639e-13
9.165419211e-06
1.554732291e-11
-1.902431626e-12
9.165421779e-06
2.68993017e-11
-1.977367987e-12
9.165349217e-06
1.619912013e-10
-6.144195046e-12
9.164983035e-06
1.178594118e-10
9.844822239e-11
1.679668492e-09
3.467044413e-10
9.16541692e-06
-4.100323106e-13
1.4538877e-12
9.16541582e-06
-7.845901888e-14
-3.241545465e-13
9.165415393e-06
-1.738522625e-12
-2.791849365e-13
9.165414733e-06
-1.517677232e-12
-2.101121111e-12
9.165414893e-06
-6.343083727e-13
-1.152186633e-12
9.165416443e-06
7.52536246e-13
-6.727286254e-14
9.165415858e-06
-6.943567079e-13
-4.632952323e-13
9.165423486e-06
-1.077132282e-12
-1.109553243e-12
9.165434842e-06
-3.28418507e-12
-3.521739317e-12
9.165500541e-06
-1.438827053e-11
-1.511501668e-11
9.165607121e-06
-2.659762172e-11
-2.647551771e-11
9.166256413e-06
-1.628333762e-10
-1.626167601e-10
9.166732433e-06
-1.182432408e-10
-1.176129181e-10
9.173467666e-06
-1.680927198e-09
-1.679007652e-09
1.996560362e-08
9.165407758e-06
-1.473862813e-12
1.431536605e-12
9.165404526e-06
-7.709731728e-13
-8.617115581e-13
9.165407107e-06
2.378507967e-13
1.15774187e-12
9.165406863e-06
1.972634669e-13
-9.991705456e-13
9.165406725e-06
2.515716189e-14
-7.81569716e-13
9.165405116e-06
-8.629804939e-13
-8.320152035e-13
9.165406009e-06
-2.146403798e-12
1.36539311e-12
9.165406414e-06
-1.847610704e-12
-9.072124634e-13
9.165408742e-06
-3.613222479e-12
-1.56097573e-12
9.165410454e-06
-1.205696519e-11
-4.142016103e-12
9.165412664e-06
-2.3883972e-11
-1.570616281e-12
9.165340936e-06
-7.852601166e-11
-6.182396078e-12
9.164974356e-06
5.032745075e-11
9.775842611e-11
9.162979631e-06
-3.717826322e-10
3.455049109e-10
1.021357979e-08
9.165422877e-06
1.10529328e-12
9.48830629e-13
9.165420745e-06
-3.094373533e-13
2.252152153e-13
9.165423151e-06
-1.810356353e-12
-7.505864192e-13
9.165423598e-06
4.166430331e-13
-2.798127155e-13
9.165422585e-06
2.889469593e-13
-4.008326341e-13
9.165421731e-06
9.714218599e-13
1.049044602e-13
9.165422967e-06
1.456794846e-12
2.567495563e-12
9.165418254e-06
6.874312016e-13
1.100920633e-12
9.165409704e-06
1.608947627e-12
1.548389445e-12
9.165394158e-06
2.282619097e-12
1.838210877e-12
9.165339837e-06
9.221126927e-12
1.020118754e-11
9.165221839e-06