/*--------------------------------*- C++ -*----------------------------------*\
| =========                 |                                                 |
| \\      /  F ield         | OpenFOAM: The Open Source CFD Toolbox           |
|  \\    /   O peration     | Version:  4.x                                   |
|   \\  /    A nd           | Web:      www.OpenFOAM.org                      |
|    \\/     M anipulation  |                                                 |
\*---------------------------------------------------------------------------*/
FoamFile
{
    version     2.0;
    format      ascii;
    class       volScalarField;
    location    "1000";
    object      rho;
}
// * * * * * * * * * * * * * * * * * * * * * * * * * * * * * * * * * * * * * //

dimensions      [1 -3 0 0 0 0 0];

internalField   nonuniform List<scalar> 
1175
(
0.2699628934
0.2699628699
0.269962869
0.2699628644
0.2699628466
0.2699628549
0.2699628404
0.2699628511
0.2699628495
0.2699628387
0.26996287
0.2699629229
0.2699629943
0.2699631742
0.2699634891
0.2699630006
0.2699629823
0.2699629998
0.2699629796
0.2699630099
0.2699630057
0.269962989
0.2699630391
0.2699630477
0.2699630719
0.2699631335
0.2699631633
0.269963299
0.2699635875
0.2699641602
0.2699633353
0.2699633579
0.2699633336
0.2699633563
0.2699633093
0.2699633128
0.2699633193
0.2699633182
0.269963318
0.2699633484
0.2699633862
0.2699634587
0.2699637209
0.2699642705
0.2699653984
0.2699630833
0.2699631371
0.2699630984
0.2699631513
0.2699631349
0.2699631361
0.26996319
0.2699631369
0.2699631512
0.2699631698
0.2699632169
0.269963366
0.2699638136
0.269964761
0.2699667146
0.2699630955
0.2699630987
0.2699630856
0.2699630715
0.2699630713
0.2699630335
0.2699630433
0.2699630528
0.26996307
0.2699630794
0.2699631497
0.2699633449
0.2699638481
0.2699651982
0.2699678118
0.2699631501
0.269963128
0.2699631521
0.2699631253
0.2699631395
0.2699631059
0.2699631288
0.2699631551
0.2699631281
0.2699631412
0.2699631835
0.2699633282
0.2699637609
0.2699647486
0.2699667125
0.2699632517
0.2699632708
0.2699633019
0.2699633045
0.2699633207
0.2699633013
0.2699632649
0.2699632792
0.2699632895
0.2699632919
0.2699632934
0.269963418
0.2699636914
0.2699642707
0.2699654056
0.2699631842
0.2699631949
0.2699632171
0.269963183
0.2699631831
0.2699631546
0.2699631478
0.2699631567
0.269963142
0.2699631701
0.2699632062
0.2699633218
0.2699634532
0.2699637144
0.2699643041
0.2699630546
0.26996308
0.2699630704
0.269963089
0.2699630805
0.269963109
0.2699631137
0.26996309
0.2699631121
0.2699631238
0.2699631338
0.2699631666
0.2699632468
0.2699633936
0.2699637431
0.2699627354
0.2699627489
0.2699627281
0.2699627487
0.2699627517
0.2699627299
0.2699627267
0.2699627544
0.2699627084
0.2699627348
0.269962724
0.2699628044
0.2699629467
0.2699632466
0.2699629351
0.2699629061
0.2699628999
0.2699629109
0.2699628904
0.2699628322
0.2699628555
0.2699628928
0.2699629166
0.2699628959
0.2699629327
0.2699630508
0.2699632876
0.269963854
0.2699650374
0.2699624343
0.2699624275
0.2699624007
0.2699624165
0.2699624114
0.2699623984
0.2699623809
0.2699623823
0.2699623634
0.2699623874
0.2699624341
0.2699626268
0.2699632279
0.2699645574
0.269967147
0.2699632487
0.2699632579
0.2699632202
0.2699632049
0.2699632385
0.2699632153
0.2699632018
0.269963198
0.2699632017
0.2699632235
0.2699633866
0.26996373
0.2699647948
0.2699674431
0.2699728201
0.2699624024
0.2699624272
0.2699624463
0.2699624356
0.2699624379
0.2699624405
0.269962436
0.269962445
0.269962451
0.2699624884
0.269962651
0.2699630707
0.2699645027
0.2699684383
0.2699768411
0.2699632648
0.2699632827
0.2699633097
0.2699633172
0.2699632931
0.2699633039
0.2699633495
0.2699633435
0.2699633619
0.2699633677
0.2699634861
0.2699638517
0.2699649003
0.2699675974
0.2699728799
0.2699625936
0.2699625667
0.2699625287
0.2699625363
0.2699625506
0.2699625582
0.2699625988
0.2699626101
0.2699626086
0.2699626491
0.2699627292
0.2699629254
0.2699635031
0.2699648005
0.2699673869
0.2699633639
0.2699633091
0.2699633306
0.2699633447
0.2699633698
0.2699634054
0.2699633323
0.2699633181
0.2699632815
0.2699632914
0.2699632781
0.2699634085
0.2699636528
0.2699642455
0.2699653784
0.269963139
0.2699631431
0.2699631292
0.2699631342
0.269963144
0.26996315
0.2699631816
0.2699631424
0.269963148
0.2699631338
0.2699631503
0.26996316
0.2699633214
0.2699636493
0.2699642626
0.2699632104
0.2699632086
0.2699632208
0.2699632143
0.269963233
0.2699632126
0.2699632102
0.2699632326
0.2699632165
0.2699632645
0.2699632794
0.2699633494
0.2699636117
0.2699642148
0.2699628539
0.2699628957
0.2699629275
0.2699629497
0.2699629256
0.2699629678
0.2699629443
0.2699629553
0.2699629613
0.2699629654
0.2699630291
0.2699632162
0.2699637437
0.2699651021
0.2699626567
0.2699626305
0.269962634
0.2699626591
0.2699626797
0.2699626757
0.2699627008
0.2699627245
0.2699627324
0.2699627854
0.2699629154
0.2699633864
0.2699647637
0.269968306
0.2699754203
0.2699629874
0.2699629973
0.2699630089
0.2699629797
0.2699630242
0.2699629981
0.269962989
0.2699629942
0.2699630151
0.2699630862
0.2699633146
0.2699641666
0.2699671652
0.269975811
0.2699945169
0.269962988
0.2699629904
0.2699630219
0.2699630654
0.2699630849
0.2699630684
0.2699630792
0.2699630598
0.2699630667
0.2699631583
0.2699635287
0.2699648635
0.2699696292
0.2699854066
0.2700241007
0.2699631975
0.2699632023
0.2699632067
0.2699632005
0.2699632025
0.2699631681
0.269963156
0.2699631547
0.2699631385
0.2699631639
0.2699634111
0.2699643567
0.2699673701
0.269976019
0.2699947138
0.2699634998
0.2699634662
0.2699635017
0.2699634925
0.2699634984
0.2699634899
0.2699634808
0.2699635035
0.2699634955
0.2699635304
0.2699636616
0.2699641003
0.269965456
0.2699690114
0.2699761471
0.2699627954
0.2699628002
0.2699627969
0.2699627508
0.2699627629
0.2699627896
0.269962773
0.269962788
0.2699627958
0.2699628341
0.2699628762
0.2699630754
0.2699636126
0.2699649271
0.2699675347
0.2699634905
0.2699635016
0.2699634818
0.2699635008
0.2699635055
0.2699634874
0.2699634844
0.2699634958
0.2699634721
0.2699634712
0.2699635147
0.2699636163
0.2699639095
0.2699644474
0.2699655789
0.2699633478
0.2699633228
0.2699633315
0.2699633036
0.2699632601
0.2699632533
0.269963266
0.2699632519
0.2699632757
0.2699633086
0.2699633358
0.2699634712
0.2699638822
0.2699648762
0.2699628914
0.2699628809
0.2699628493
0.2699628681
0.2699628123
0.2699627825
0.269962774
0.2699627798
0.2699627877
0.2699628084
0.2699629142
0.2699632885
0.2699643497
0.2699669469
0.2699631442
0.269963152
0.2699631257
0.2699631086
0.2699631582
0.2699631411
0.2699631441
0.2699631184
0.2699631656
0.2699632362
0.2699635276
0.2699644095
0.2699673734
0.2699760277
0.2699628144
0.2699628356
0.2699628315
0.2699628073
0.2699627655
0.2699627822
0.2699627535
0.2699627459
0.2699628108
0.2699629285
0.2699634044
0.269965472
0.2699733994
0.27000053
0.2700687133
0.2699631615
0.2699631705
0.2699631724
0.2699631786
0.2699631435
0.2699631061
0.2699631159
0.26996317
0.2699631979
0.2699633756
0.2699641335
0.2699675405
0.2699829529
0.2700487818
0.2702820972
0.2699633789
0.269963394
0.2699633803
0.2699633663
0.2699633174
0.2699633336
0.2699633395
0.2699633339
0.2699634153
0.2699635635
0.2699640179
0.269966072
0.2699740186
0.2700010921
0.2700692358
0.2699629964
0.2699630253
0.2699630436
0.2699630437
0.2699631032
0.2699630823
0.2699630813
0.2699631222
0.269963129
0.2699632121
0.2699634449
0.2699643428
0.2699673298
0.2699759932
0.2699946873
0.2699631978
0.2699632035
0.2699631801
0.2699631913
0.2699631771
0.2699631767
0.2699632082
0.2699631617
0.2699631744
0.2699632068
0.2699633179
0.2699636504
0.2699646868
0.2699673335
0.2699727045
0.2699630747
0.2699630961
0.2699630819
0.269963104
0.269963098
0.2699631018
0.269963101
0.2699630865
0.2699631422
0.2699631907
0.2699632447
0.2699633962
0.2699637922
0.2699647759
0.2699667387
0.2699629179
0.2699628878
0.2699628871
0.2699628812
0.2699628683
0.2699628721
0.269962876
0.2699629061
0.2699629364
0.2699629703
0.2699630193
0.2699632247
0.2699637485
0.2699650633
0.2699627377
0.2699627305
0.2699627403
0.2699627912
0.2699627934
0.2699628082
0.2699627988
0.2699627999
0.2699627929
0.2699628652
0.2699630206
0.2699634058
0.269964838
0.2699688017
0.2699630145
0.2699630043
0.2699629689
0.2699629738
0.269962966
0.2699629848
0.269963007
0.2699630484
0.2699630591
0.2699631402
0.2699634865
0.2699647975
0.2699696218
0.2699854464
0.2699631282
0.2699631375
0.269963116
0.2699631156
0.2699631239
0.2699631505
0.2699631185
0.269963116
0.2699631651
0.2699632987
0.2699640183
0.2699673875
0.2699828211
0.2700486943
0.2699631543
0.2699631434
0.2699631812
0.2699631653
0.2699631536
0.2699631324
0.2699631491
0.2699631526
0.2699631937
0.2699633783
0.2699645421
0.2699709734
0.2700089523
0.2702511094
0.2757314792
0.2699628735
0.269962871
0.2699628415
0.2699628566
0.2699628848
0.2699629077
0.2699629259
0.2699629375
0.2699629618
0.2699630837
0.2699638079
0.2699672285
0.2699825813
0.2700484347
0.2702817724
0.2699633259
0.2699633403
0.2699633744
0.2699633669
0.2699633926
0.2699633826
0.269963386
0.2699633874
0.2699633711
0.2699634249
0.2699637666
0.2699650858
0.2699698971
0.2699856586
0.27002435
0.2699631635
0.2699631629
0.2699631913
0.2699632225
0.2699632053
0.2699632142
0.2699632341
0.2699632237
0.2699632022
0.2699632309
0.2699633568
0.2699637912
0.2699652558
0.2699692694
0.269977616
0.2699635298
0.2699635519
0.2699635245
0.2699635632
0.2699635495
0.2699635314
0.2699635479
0.2699634997
0.2699635262
0.2699635403
0.2699636273
0.2699637935
0.2699643374
0.2699656598
0.2699682145
0.2699628586
0.2699628599
0.2699628447
0.2699628559
0.269962842
0.2699628489
0.2699628796
0.2699629067
0.26996287
0.2699629132
0.269962972
0.2699631806
0.2699635923
0.2699646001
0.2699633776
0.2699633763
0.2699633865
0.2699633468
0.269963354
0.2699633477
0.2699633291
0.2699633039
0.2699633266
0.2699633833
0.269963492
0.2699638651
0.2699648614
0.2699675285
0.2699627084
0.2699627154
0.2699627011
0.2699627216
0.2699627315
0.2699627461
0.2699627225
0.2699627255
0.269962748
0.2699628366
0.2699630801
0.2699640144
0.2699670217
0.2699756985
0.2699634745
0.2699634464
0.2699634462
0.2699634098
0.2699634678
0.2699634197
0.2699634049
0.2699634322
0.2699634623
0.2699635677
0.2699640742
0.269966097
0.2699740173
0.2700010826
0.2699632458
0.2699632658
0.2699632935
0.2699632953
0.2699632787
0.2699632745
0.2699632712
0.2699632729
0.2699633003
0.2699634398
0.2699641783
0.2699675861
0.2699829789
0.2700488551
0.2699629492
0.2699629518
0.2699629534
0.2699629086
0.2699629283
0.2699629248
0.2699628806
0.2699628532
0.2699628812
0.2699629876
0.2699634634
0.2699654954
0.269973454
0.2700005379
0.2699631903
0.2699631416
0.2699631233
0.2699631332
0.2699631029
0.2699631344
0.2699630992
0.2699631286
0.2699631893
0.2699632113
0.2699634458
0.269964371
0.2699673284
0.2699760002
0.2699946561
0.2699630723
0.2699630453
0.269963031
0.2699630144
0.2699630195
0.2699630264
0.2699630282
0.2699630022
0.2699630373
0.2699630489
0.2699631795
0.2699635186
0.2699645221
0.2699671963
0.2699725606
0.2699634301
0.2699634614
0.2699634362
0.2699634505
0.2699634505
0.2699634629
0.2699634756
0.2699634665
0.269963508
0.2699635165
0.2699635574
0.2699637405
0.2699641811
0.2699651975
0.2699671552
0.269963418
0.2699634454
0.2699634557
0.2699634772
0.2699634782
0.2699634212
0.2699634543
0.2699634398
0.2699634485
0.2699634369
0.2699634926
0.2699635664
0.2699638468
0.2699644285
0.2699629388
0.2699629122
0.2699629176
0.2699629329
0.2699629888
0.2699629655
0.2699629338
0.2699629053
0.2699629063
0.2699629705
0.269963043
0.2699633023
0.2699638513
0.2699651768
0.2699634316
0.2699634044
0.2699633848
0.2699633484
0.2699633491
0.2699633539
0.2699633484
0.2699633367
0.2699633659
0.2699634173
0.2699635488
0.2699639695
0.2699653169
0.2699688273
0.2699627717
0.2699627729
0.2699627572
0.2699627351
0.2699627053
0.2699627032
0.2699627194
0.2699627453
0.2699628281
0.2699629002
0.2699631474
0.2699640563
0.2699670433
0.2699756566
0.2699630059
0.269962985
0.2699630057
0.2699630119
0.2699630342
0.2699629874
0.2699629685
0.2699629929
0.26996305
0.2699631502
0.269963544
0.2699648332
0.269969685
0.2699854539
0.2699635035
0.2699634723
0.2699635019
0.2699635065
0.2699635157
0.2699634855
0.2699634625
0.2699634415
0.269963452
0.2699635072
0.269963732
0.269964616
0.2699676157
0.2699762943
0.2699632689
0.2699632716
0.2699632472
0.2699632474
0.2699632927
0.2699632647
0.269963296
0.2699632909
0.2699632919
0.2699633289
0.2699634561
0.2699639294
0.2699652997
0.269968895
0.2699631001
0.2699631187
0.2699631175
0.2699631186
0.2699631323
0.2699631262
0.2699631347
0.2699631347
0.2699631163
0.2699631685
0.2699632613
0.2699634914
0.2699640197
0.2699653182
0.2699679313
0.2699632844
0.269963243
0.2699632446
0.2699632366
0.2699632418
0.2699632568
0.2699632487
0.2699632392
0.2699632533
0.2699632709
0.2699633055
0.2699634361
0.2699637074
0.2699642779
0.2699653862
0.269963103
0.2699631369
0.2699631276
0.2699631388
0.2699631626
0.2699631545
0.2699631192
0.269963152
0.2699631574
0.2699631656
0.269963216
0.2699632705
0.2699633908
0.2699636726
0.2699634063
0.2699634019
0.2699634003
0.2699634576
0.2699634733
0.2699635147
0.2699634888
0.2699634574
0.2699634701
0.2699634629
0.2699634747
0.2699635792
0.2699638379
0.2699644336
0.2699629279
0.2699629439
0.2699629148
0.2699629295
0.2699629718
0.2699629672
0.2699629711
0.2699629812
0.2699629772
0.2699630009
0.2699630608
0.2699632657
0.2699638142
0.269965134
0.2699626215
0.2699626283
0.2699626442
0.2699626605
0.2699626722
0.2699627184
0.2699627245
0.269962748
0.2699627311
0.2699627472
0.2699628396
0.2699631831
0.2699642686
0.2699669013
0.2699627671
0.2699628217
0.2699628267
0.2699628089
0.2699627647
0.2699627534
0.2699627412
0.2699627273
0.2699627093
0.2699627498
0.2699628768
0.2699633228
0.2699647947
0.2699687854
0.2699631764
0.2699631293
0.2699631116
0.2699631243
0.269963159
0.2699631452
0.2699631586
0.2699631943
0.2699632133
0.2699632794
0.2699633763
0.2699637673
0.2699647811
0.269967432
0.2699635439
0.2699635502
0.2699635697
0.2699635299
0.2699635581
0.2699635359
0.2699635322
0.2699635274
0.2699635345
0.2699635646
0.2699635699
0.2699637244
0.26996427
0.269965583
0.2699629985
0.2699630102
0.2699630037
0.269962999
0.2699629436
0.2699629322
0.2699629394
0.269962915
0.2699628743
0.2699629242
0.2699629681
0.2699631023
0.2699633395
0.2699639119
0.2699629475
0.2699629736
0.2699629971
0.2699629778
0.2699629766
0.2699630125
0.2699629847
0.2699630064
0.2699630109
0.2699629935
0.2699629953
0.2699629942
0.2699631637
0.2699634829
0.2699640582
0.2699631436
0.2699631367
0.2699631273
0.2699631671
0.2699631511
0.2699631389
0.2699631497
0.2699631507
0.2699631258
0.2699631035
0.2699630993
0.2699631739
0.2699632565
0.2699634235
0.2699630826
0.2699630794
0.2699630576
0.2699630672
0.2699630805
0.2699630645
0.2699630496
0.2699630358
0.2699630647
0.2699630747
0.2699630699
0.2699631457
0.2699632927
0.2699635955
0.2699627178
0.2699627375
0.2699627096
0.2699627345
0.2699627351
0.2699627104
0.2699627313
0.2699627563
0.2699627398
0.2699627344
0.2699627467
0.2699628648
0.2699630871
0.2699636606
0.2699630265
0.2699630436
0.2699630575
0.2699630664
0.2699630684
0.269963035
0.2699630236
0.2699630288
0.2699630396
0.269963053
0.2699631304
0.2699633176
0.2699637238
0.2699646754
0.2699630643
0.2699630453
0.2699630083
0.2699630136
0.2699630381
0.2699630415
0.2699630289
0.2699630342
0.2699630067
0.2699630397
0.2699630798
0.2699633244
0.2699638475
0.2699651219
0.2699632229
0.2699632176
0.2699632215
0.269963216
0.2699632669
0.2699632582
0.2699632649
0.2699632597
0.2699632408
0.2699632435
0.2699633172
0.2699634656
0.2699638731
0.269964883
0.269963784
0.2699637965
0.2699637925
0.2699637953
0.269963785
0.2699638013
0.2699637912
0.2699637847
0.269963778
0.2699637877
0.2699638466
0.2699639497
0.2699642049
0.2699647878
0.269963141
0.2699631245
0.2699630986
0.2699631019
0.2699631271
0.2699631586
0.2699631193
0.2699631469
0.2699631926
0.2699631964
0.2699631874
0.2699632222
0.2699633398
0.2699636365
0.2699630684
0.2699630551
0.2699630353
0.2699630596
0.2699630542
0.2699630415
0.2699630604
0.2699630688
0.2699630539
0.2699630297
0.2699630593
0.2699630924
0.2699631851
0.2699633936
)
;

boundaryField
{
    top
    {
        type            calculated;
        value           nonuniform List<scalar> 
134
(
0.2699630546
0.269963139
0.2699634905
0.2699630747
0.2699635298
0.2699634301
0.2699632844
0.2699629475
0.2699630684
0.26996308
0.2699631431
0.2699635016
0.2699630961
0.2699635519
0.2699634614
0.269963243
0.2699629736
0.2699630551
0.2699630704
0.2699631292
0.2699634818
0.2699630819
0.2699635245
0.2699634362
0.2699632446
0.2699629971
0.2699630353
0.269963089
0.2699631342
0.2699635008
0.269963104
0.2699635632
0.2699634505
0.2699632366
0.2699629778
0.2699630596
0.2699630805
0.269963144
0.2699635055
0.269963098
0.2699635495
0.2699634505
0.2699632418
0.2699629766
0.2699630542
0.269963109
0.26996315
0.2699634874
0.2699631018
0.2699635314
0.2699634629
0.2699632568
0.2699630125
0.2699630415
0.2699631137
0.2699631816
0.2699634844
0.269963101
0.2699635479
0.2699634756
0.2699632487
0.2699629847
0.2699630604
0.26996309
0.2699631424
0.2699634958
0.2699630865
0.2699634997
0.2699634665
0.2699632392
0.2699630064
0.2699630688
0.2699631121
0.269963148
0.2699634721
0.2699631422
0.2699635262
0.269963508
0.2699632533
0.2699630109
0.2699630539
0.2699631238
0.2699631338
0.2699634712
0.2699631907
0.2699635403
0.2699635165
0.2699632709
0.2699629935
0.2699630297
0.2699631338
0.2699631503
0.2699635147
0.2699632447
0.2699636273
0.2699635574
0.2699633055
0.2699629953
0.2699630593
0.2699631666
0.26996316
0.2699636163
0.2699633962
0.2699637935
0.2699637405
0.2699634361
0.2699629942
0.2699630924
0.2699632468
0.2699633214
0.2699639095
0.2699637922
0.2699643374
0.2699641811
0.2699637074
0.2699631637
0.2699631851
0.2699633936
0.2699636493
0.2699644474
0.2699647759
0.2699656598
0.2699651975
0.2699642779
0.2699634829
0.2699633936
0.2699637431
0.2699642626
0.2699655789
0.2699667387
0.2699682145
0.2699671552
0.2699653862
0.2699640582
)
;
    }
    bottom
    {
        type            calculated;
        value           nonuniform List<scalar> 
127
(
0.2699628934
0.2699627354
0.2699632104
0.2699633478
0.2699629179
0.2699628586
0.269963418
0.269963103
0.2699631436
0.2699628699
0.2699627489
0.2699632086
0.2699633228
0.2699628878
0.2699628599
0.2699634454
0.2699631369
0.2699631367
0.269962869
0.2699627281
0.2699632208
0.2699633315
0.2699628871
0.2699628447
0.2699634557
0.2699631276
0.2699631273
0.2699628644
0.2699627487
0.2699632143
0.2699633036
0.2699628812
0.2699628559
0.2699634772
0.2699631388
0.2699631671
0.2699628466
0.2699627517
0.269963233
0.2699632601
0.2699628683
0.269962842
0.2699634782
0.2699631626
0.2699631511
0.2699628549
0.2699627299
0.2699632126
0.2699632533
0.2699628721
0.2699628489
0.2699634212
0.2699631545
0.2699631389
0.2699628404
0.2699627267
0.2699632102
0.269963266
0.269962876
0.2699628796
0.2699634543
0.2699631192
0.2699631497
0.2699628511
0.2699627544
0.2699632326
0.2699632519
0.2699629061
0.2699629067
0.2699634398
0.269963152
0.2699631507
0.2699628495
0.2699627084
0.2699632165
0.2699632757
0.2699629364
0.26996287
0.2699634485
0.2699631574
0.2699631258
0.2699628387
0.2699627348
0.2699632645
0.2699633086
0.2699629703
0.2699629132
0.2699634369
0.2699631656
0.2699631035
0.26996287
0.269962724
0.2699632794
0.2699633358
0.2699630193
0.269962972
0.2699634926
0.269963216
0.2699630993
0.2699629229
0.2699628044
0.2699633494
0.2699634712
0.2699632247
0.2699631806
0.2699635664
0.2699632705
0.2699631739
0.2699629943
0.2699629467
0.2699636117
0.2699638822
0.2699637485
0.2699635923
0.2699638468
0.2699633908
0.2699632565
0.2699631742
0.2699632466
0.2699642148
0.2699648762
0.2699650633
0.2699646001
0.2699644285
0.2699636726
0.2699634235
0.2699634891
)
;
    }
    side-walls
    {
        type            calculated;
        value           nonuniform List<scalar> 
261
(
0.2699628934
0.2699630006
0.2699633353
0.2699630833
0.2699630955
0.2699631501
0.2699632517
0.2699631842
0.2699630546
0.2699628699
0.2699629823
0.2699633579
0.2699631371
0.2699630987
0.269963128
0.2699632708
0.2699631949
0.26996308
0.269962869
0.2699629998
0.2699633336
0.2699630984
0.2699630856
0.2699631521
0.2699633019
0.2699632171
0.2699630704
0.2699628644
0.2699629796
0.2699633563
0.2699631513
0.2699630715
0.2699631253
0.2699633045
0.269963183
0.269963089
0.2699628466
0.2699630099
0.2699633093
0.2699631349
0.2699630713
0.2699631395
0.2699633207
0.2699631831
0.2699630805
0.2699628549
0.2699630057
0.2699633128
0.2699631361
0.2699630335
0.2699631059
0.2699633013
0.2699631546
0.269963109
0.2699628404
0.269962989
0.2699633193
0.26996319
0.2699630433
0.2699631288
0.2699632649
0.2699631478
0.2699631137
0.2699628511
0.2699630391
0.2699633182
0.2699631369
0.2699630528
0.2699631551
0.2699632792
0.2699631567
0.26996309
0.2699628495
0.2699630477
0.269963318
0.2699631512
0.26996307
0.2699631281
0.2699632895
0.269963142
0.2699631121
0.2699628387
0.2699630719
0.2699633484
0.2699631698
0.2699630794
0.2699631412
0.2699632919
0.2699631701
0.2699631238
0.26996287
0.2699631335
0.2699633862
0.2699632169
0.2699631497
0.2699631835
0.2699632934
0.2699632062
0.2699631338
0.2699629229
0.2699631633
0.2699634587
0.269963366
0.2699633449
0.2699633282
0.269963418
0.2699633218
0.2699631666
0.2699629943
0.269963299
0.2699637209
0.2699638136
0.2699638481
0.2699637609
0.2699636914
0.2699634532
0.2699632468
0.2699631742
0.2699635875
0.2699642705
0.269964761
0.2699651982
0.2699647486
0.2699642707
0.2699637144
0.2699633936
0.2699634891
0.2699641602
0.2699653984
0.2699667146
0.2699678118
0.2699667125
0.2699654056
0.2699643041
0.2699637431
0.2699631436
0.2699630826
0.2699627178
0.2699630265
0.2699630643
0.2699632229
0.269963784
0.269963141
0.2699630684
0.2699631367
0.2699630794
0.2699627375
0.2699630436
0.2699630453
0.2699632176
0.2699637965
0.2699631245
0.2699630551
0.2699631273
0.2699630576
0.2699627096
0.2699630575
0.2699630083
0.2699632215
0.2699637925
0.2699630986
0.2699630353
0.2699631671
0.2699630672
0.2699627345
0.2699630664
0.2699630136
0.269963216
0.2699637953
0.2699631019
0.2699630596
0.2699631511
0.2699630805
0.2699627351
0.2699630684
0.2699630381
0.2699632669
0.269963785
0.2699631271
0.2699630542
0.2699631389
0.2699630645
0.2699627104
0.269963035
0.2699630415
0.2699632582
0.2699638013
0.2699631586
0.2699630415
0.2699631497
0.2699630496
0.2699627313
0.2699630236
0.2699630289
0.2699632649
0.2699637912
0.2699631193
0.2699630604
0.2699631507
0.2699630358
0.2699627563
0.2699630288
0.2699630342
0.2699632597
0.2699637847
0.2699631469
0.2699630688
0.2699631258
0.2699630647
0.2699627398
0.2699630396
0.2699630067
0.2699632408
0.269963778
0.2699631926
0.2699630539
0.2699631035
0.2699630747
0.2699627344
0.269963053
0.2699630397
0.2699632435
0.2699637877
0.2699631964
0.2699630297
0.2699630993
0.2699630699
0.2699627467
0.2699631304
0.2699630798
0.2699633172
0.2699638466
0.2699631874
0.2699630593
0.2699631739
0.2699631457
0.2699628648
0.2699633176
0.2699633244
0.2699634656
0.2699639497
0.2699632222
0.2699630924
0.2699632565
0.2699632927
0.2699630871
0.2699637238
0.2699638475
0.2699638731
0.2699642049
0.2699633398
0.2699631851
0.2699634235
0.2699635955
0.2699636606
0.2699646754
0.2699651219
0.269964883
0.2699647878
0.2699636365
0.2699633936
)
;
    }
    inlet
    {
        type            calculated;
        value           nonuniform List<scalar> 
81
(
0.2699628934
0.2699630006
0.2699633353
0.2699630833
0.2699630955
0.2699631501
0.2699632517
0.2699631842
0.2699630546
0.2699627354
0.2699629351
0.2699624343
0.2699632487
0.2699624024
0.2699632648
0.2699625936
0.2699633639
0.269963139
0.2699632104
0.2699628539
0.2699626567
0.2699629874
0.269962988
0.2699631975
0.2699634998
0.2699627954
0.2699634905
0.2699633478
0.2699628914
0.2699631442
0.2699628144
0.2699631615
0.2699633789
0.2699629964
0.2699631978
0.2699630747
0.2699629179
0.2699627377
0.2699630145
0.2699631282
0.2699631543
0.2699628735
0.2699633259
0.2699631635
0.2699635298
0.2699628586
0.2699633776
0.2699627084
0.2699634745
0.2699632458
0.2699629492
0.2699631903
0.2699630723
0.2699634301
0.269963418
0.2699629388
0.2699634316
0.2699627717
0.2699630059
0.2699635035
0.2699632689
0.2699631001
0.2699632844
0.269963103
0.2699634063
0.2699629279
0.2699626215
0.2699627671
0.2699631764
0.2699635439
0.2699629985
0.2699629475
0.2699631436
0.2699630826
0.2699627178
0.2699630265
0.2699630643
0.2699632229
0.269963784
0.269963141
0.2699630684
)
;
    }
    outlet
    {
        type            calculated;
        value           nonuniform 0();
    }
    procBoundary0to1
    {
        type            processor;
        value           nonuniform List<scalar> 
97
(
0.269964121
0.2699638486
0.2699651368
0.2699672661
0.2699697169
0.2699715873
0.2699697283
0.2699672261
0.2699652355
0.2699643263
0.2699638486
0.2699638486
0.2699668779
0.2699676798
0.2699710539
0.2699800188
0.2699866604
0.2699800733
0.2699712209
0.2699671968
0.2699652516
0.2699653474
0.2699676798
0.2699676798
0.2699848474
0.2699947189
0.2700144771
0.27005254
0.2700146767
0.2699855993
0.2699714082
0.269967403
0.2699667888
0.2699723153
0.2699947189
0.2699947189
0.2701138801
0.2702821013
0.2703144319
0.2701143818
0.2700146315
0.2699799222
0.2699697518
0.2699676227
0.2699771926
0.2700241322
0.2702821013
0.2702821013
0.2749085478
0.2702821945
0.2703141316
0.2700686661
0.2700527534
0.2699874042
0.2699719809
0.2699665368
0.2699728553
0.2699943953
0.2700692809
0.2702821945
0.2700686661
0.2700686661
0.2700146229
0.2699760627
0.2699797793
0.2699701597
0.2699655966
0.2699677134
0.2699759719
0.2699943509
0.2700241652
0.2699949656
0.2699760627
0.2699760627
0.2699718543
0.2699650564
0.2699672245
0.2699642655
0.2699656097
0.2699677086
0.269972224
0.2699772026
0.2699728002
0.2699681398
0.2699650564
0.2699650564
0.2699650631
0.2699637298
0.2699637754
0.2699641532
0.2699647902
0.2699666762
0.2699677213
0.2699667862
0.2699658867
0.2699642743
0.2699637298
)
;
    }
}


// ************************************************************************* //
