/*--------------------------------*- C++ -*----------------------------------*\
| =========                 |                                                 |
| \\      /  F ield         | OpenFOAM: The Open Source CFD Toolbox           |
|  \\    /   O peration     | Version:  4.x                                   |
|   \\  /    A nd           | Web:      www.OpenFOAM.org                      |
|    \\/     M anipulation  |                                                 |
\*---------------------------------------------------------------------------*/
FoamFile
{
    version     2.0;
    format      ascii;
    class       volScalarField;
    location    "1000";
    object      T;
}
// * * * * * * * * * * * * * * * * * * * * * * * * * * * * * * * * * * * * * //

dimensions      [0 0 0 1 0 0 0];

internalField   nonuniform List<scalar> 
1175
(
1223.151157
1223.151264
1223.151268
1223.151289
1223.151369
1223.151332
1223.151398
1223.151353
1223.151369
1223.151444
1223.151374
1223.151324
1223.151454
1223.151628
1223.152121
1223.150671
1223.150754
1223.150675
1223.150767
1223.15063
1223.150649
1223.150726
1223.150502
1223.150476
1223.150405
1223.150238
1223.150407
1223.150548
1223.150921
1223.151587
1223.149155
1223.149053
1223.149163
1223.14906
1223.149273
1223.149258
1223.14923
1223.149241
1223.149261
1223.149186
1223.149206
1223.149421
1223.14964
1223.15037
1223.151523
1223.150297
1223.150053
1223.150228
1223.149989
1223.150063
1223.150058
1223.149816
1223.150065
1223.150027
1223.150035
1223.150112
1223.150298
1223.1506
1223.151819
1223.153765
1223.150241
1223.150227
1223.150286
1223.15035
1223.150351
1223.150523
1223.150481
1223.150447
1223.1504
1223.150464
1223.150492
1223.150666
1223.151337
1223.152416
1223.154849
1223.149994
1223.150094
1223.149985
1223.150106
1223.150042
1223.150195
1223.150094
1223.149982
1223.150132
1223.150164
1223.150263
1223.15047
1223.150839
1223.151875
1223.153775
1223.149534
1223.149447
1223.149307
1223.149294
1223.149221
1223.14931
1223.149476
1223.149417
1223.14939
1223.149442
1223.149626
1223.149605
1223.149774
1223.150369
1223.15149
1223.149839
1223.149791
1223.149691
1223.149845
1223.149845
1223.149974
1223.150006
1223.14997
1223.150049
1223.14996
1223.149909
1223.149689
1223.149849
1223.150346
1223.150935
1223.150427
1223.150312
1223.150355
1223.150271
1223.150309
1223.150181
1223.15016
1223.15027
1223.150179
1223.150152
1223.150179
1223.15022
1223.15031
1223.150634
1223.150971
1223.151873
1223.151812
1223.151906
1223.151813
1223.151799
1223.151899
1223.151914
1223.151793
1223.152013
1223.151932
1223.152093
1223.152033
1223.152144
1223.152465
1223.150968
1223.151099
1223.151128
1223.151078
1223.151171
1223.151435
1223.151331
1223.151168
1223.151079
1223.151234
1223.151256
1223.151263
1223.151605
1223.152294
1223.153272
1223.153237
1223.153268
1223.15339
1223.153318
1223.153341
1223.153401
1223.153483
1223.153485
1223.153602
1223.153602
1223.153746
1223.15396
1223.154254
1223.155514
1223.158108
1223.149547
1223.149506
1223.149677
1223.149746
1223.149594
1223.1497
1223.149764
1223.149794
1223.149824
1223.149896
1223.149745
1223.150111
1223.150993
1223.15364
1223.158791
1223.153382
1223.15327
1223.153183
1223.153231
1223.153221
1223.15321
1223.153234
1223.153208
1223.153236
1223.153273
1223.153278
1223.153913
1223.155421
1223.159507
1223.167636
1223.149474
1223.149393
1223.149271
1223.149237
1223.149346
1223.149299
1223.149095
1223.149135
1223.149099
1223.149242
1223.149295
1223.14956
1223.150515
1223.152941
1223.158519
1223.152515
1223.152637
1223.152809
1223.152775
1223.15271
1223.152677
1223.152495
1223.152453
1223.152492
1223.152417
1223.152409
1223.152607
1223.153007
1223.154413
1223.157021
1223.149026
1223.149273
1223.149176
1223.149112
1223.148999
1223.148838
1223.149171
1223.149241
1223.149426
1223.149442
1223.149691
1223.149642
1223.14995
1223.15052
1223.151727
1223.150044
1223.150026
1223.150089
1223.150066
1223.150022
1223.149995
1223.149853
1223.150035
1223.150022
1223.150124
1223.150162
1223.150422
1223.150446
1223.150641
1223.151123
1223.149721
1223.149729
1223.149674
1223.149703
1223.149619
1223.149711
1223.149724
1223.149628
1223.149721
1223.149566
1223.14969
1223.149916
1223.150135
1223.150622
1223.151336
1223.151147
1223.151002
1223.150902
1223.151011
1223.150821
1223.15093
1223.150889
1223.150893
1223.150983
1223.15105
1223.151289
1223.151917
1223.153047
1223.15223
1223.152348
1223.152332
1223.152219
1223.152126
1223.152145
1223.152035
1223.151942
1223.151964
1223.151933
1223.152088
1223.15243
1223.153684
1223.157138
1223.164371
1223.150731
1223.150687
1223.150634
1223.150766
1223.150565
1223.150685
1223.150731
1223.15073
1223.150725
1223.150758
1223.151084
1223.152178
1223.15517
1223.163809
1223.182267
1223.150729
1223.150718
1223.150575
1223.150378
1223.15029
1223.150366
1223.150324
1223.150438
1223.150516
1223.150553
1223.150709
1223.151868
1223.156927
1223.172621
1223.210884
1223.149779
1223.149758
1223.149737
1223.149766
1223.149757
1223.149914
1223.149975
1223.150003
1223.150166
1223.150406
1223.150646
1223.151317
1223.154242
1223.162865
1223.181372
1223.14841
1223.148562
1223.148401
1223.148443
1223.148416
1223.148456
1223.148501
1223.148413
1223.148506
1223.148558
1223.148707
1223.149196
1223.150547
1223.153941
1223.161076
1223.151601
1223.151579
1223.151594
1223.151803
1223.151748
1223.151628
1223.151706
1223.151647
1223.151643
1223.151578
1223.151743
1223.151927
1223.152511
1223.153839
1223.156351
1223.148452
1223.148401
1223.148491
1223.148405
1223.148384
1223.148466
1223.148482
1223.148436
1223.148563
1223.14863
1223.148624
1223.148707
1223.148785
1223.149568
1223.150705
1223.149098
1223.149211
1223.149172
1223.149299
1223.149496
1223.149527
1223.149472
1223.149544
1223.149463
1223.149406
1223.149573
1223.149822
1223.150289
1223.151297
1223.151166
1223.151214
1223.151357
1223.151272
1223.151525
1223.151661
1223.151703
1223.151689
1223.1517
1223.151776
1223.151886
1223.152111
1223.15301
1223.155889
1223.150021
1223.149986
1223.150104
1223.150182
1223.149958
1223.150037
1223.150029
1223.150167
1223.150043
1223.150078
1223.150119
1223.151077
1223.154227
1223.162828
1223.151515
1223.151419
1223.151438
1223.151547
1223.151737
1223.151664
1223.151801
1223.151871
1223.151727
1223.151842
1223.152438
1223.154401
1223.162365
1223.189055
1223.256537
1223.149942
1223.149902
1223.149893
1223.149865
1223.150024
1223.150196
1223.150161
1223.149958
1223.150023
1223.15009
1223.150688
1223.153912
1223.169129
1223.234652
1223.421562
1223.148957
1223.148889
1223.148951
1223.149015
1223.149237
1223.149165
1223.149147
1223.149206
1223.148989
1223.148966
1223.149659
1223.151683
1223.159558
1223.186504
1223.254158
1223.150691
1223.15056
1223.150477
1223.150476
1223.150207
1223.150303
1223.150313
1223.15015
1223.150209
1223.150187
1223.150493
1223.15138
1223.154424
1223.162982
1223.181492
1223.149778
1223.149752
1223.149858
1223.149807
1223.149872
1223.149875
1223.149735
1223.149959
1223.149948
1223.149971
1223.150057
1223.150472
1223.151483
1223.154137
1223.159314
1223.150336
1223.150239
1223.150303
1223.150203
1223.15023
1223.150214
1223.15022
1223.150293
1223.150068
1223.14994
1223.149986
1223.150161
1223.150697
1223.151752
1223.153656
1223.151046
1223.151182
1223.151186
1223.151213
1223.151271
1223.151255
1223.151239
1223.151112
1223.151006
1223.150959
1223.151083
1223.151211
1223.151788
1223.153027
1223.151862
1223.151895
1223.151851
1223.15162
1223.15161
1223.151544
1223.151591
1223.1516
1223.151687
1223.151566
1223.151603
1223.152395
1223.153901
1223.15786
1223.150608
1223.150654
1223.150815
1223.150793
1223.150829
1223.150745
1223.150651
1223.15049
1223.150551
1223.150635
1223.1509
1223.152168
1223.156961
1223.172442
1223.150093
1223.150051
1223.150149
1223.150151
1223.150114
1223.149995
1223.15015
1223.150203
1223.150172
1223.150439
1223.15121
1223.154606
1223.169727
1223.235057
1223.149975
1223.150024
1223.149853
1223.149925
1223.149979
1223.150077
1223.150013
1223.150049
1223.150112
1223.150512
1223.151672
1223.158016
1223.195602
1223.43597
1208.274329
1223.151247
1223.151259
1223.151392
1223.151324
1223.151197
1223.151095
1223.151022
1223.151012
1223.151092
1223.151413
1223.152163
1223.155326
1223.170812
1223.236222
1223.423033
1223.149198
1223.149132
1223.148978
1223.149012
1223.148896
1223.148943
1223.148933
1223.148954
1223.149137
1223.149345
1223.149631
1223.150861
1223.155714
1223.171479
1223.209755
1223.149933
1223.149936
1223.149808
1223.149666
1223.149744
1223.149705
1223.149618
1223.14968
1223.149833
1223.149909
1223.15008
1223.150649
1223.152008
1223.155741
1223.164125
1223.148274
1223.148174
1223.148298
1223.148122
1223.148185
1223.148267
1223.148195
1223.148422
1223.148334
1223.148376
1223.148328
1223.148633
1223.14912
1223.150325
1223.153024
1223.151315
1223.151309
1223.151378
1223.151327
1223.15139
1223.151359
1223.151222
1223.151108
1223.151301
1223.151197
1223.151221
1223.151138
1223.151602
1223.152548
1223.148963
1223.148969
1223.148923
1223.149103
1223.149071
1223.1491
1223.149187
1223.149314
1223.149258
1223.149171
1223.149268
1223.149498
1223.150692
1223.153253
1223.151995
1223.151964
1223.152028
1223.151935
1223.151891
1223.151826
1223.151939
1223.151947
1223.151935
1223.151889
1223.152146
1223.152867
1223.15582
1223.164317
1223.148524
1223.148652
1223.148653
1223.148817
1223.148555
1223.148775
1223.14885
1223.148761
1223.148776
1223.148946
1223.149403
1223.15157
1223.159565
1223.186548
1223.149561
1223.14947
1223.149344
1223.149336
1223.149412
1223.149433
1223.149457
1223.149492
1223.149559
1223.1498
1223.150485
1223.153706
1223.169012
1223.234325
1223.150904
1223.150892
1223.150885
1223.151088
1223.150999
1223.151017
1223.151226
1223.151385
1223.151409
1223.151575
1223.152171
1223.154295
1223.162118
1223.189018
1223.149812
1223.150033
1223.150115
1223.150071
1223.150208
1223.150067
1223.150232
1223.150121
1223.149936
1223.150191
1223.150489
1223.151252
1223.154431
1223.162951
1223.181636
1223.150347
1223.150469
1223.150534
1223.150609
1223.150586
1223.150555
1223.150551
1223.150681
1223.150569
1223.150687
1223.150684
1223.151069
1223.152229
1223.154759
1223.159966
1223.148726
1223.148584
1223.148698
1223.148633
1223.148633
1223.148578
1223.148522
1223.148572
1223.148411
1223.148464
1223.148569
1223.148601
1223.148935
1223.149841
1223.151769
1223.14878
1223.148656
1223.148609
1223.148512
1223.148507
1223.148766
1223.148618
1223.14869
1223.14867
1223.148785
1223.148724
1223.148933
1223.14907
1223.149654
1223.150952
1223.151072
1223.151048
1223.150978
1223.150725
1223.150831
1223.150977
1223.151115
1223.151142
1223.15096
1223.150987
1223.150899
1223.151429
1223.152708
1223.148719
1223.148842
1223.14893
1223.149096
1223.149093
1223.149072
1223.149101
1223.149169
1223.149093
1223.14907
1223.149218
1223.149788
1223.151177
1223.154775
1223.151708
1223.151703
1223.151774
1223.151874
1223.15201
1223.15202
1223.151953
1223.151857
1223.151572
1223.151601
1223.151841
1223.152677
1223.155722
1223.164507
1223.150648
1223.150742
1223.150648
1223.15062
1223.15052
1223.150733
1223.150825
1223.150741
1223.150592
1223.15059
1223.15064
1223.152006
1223.156675
1223.172407
1223.148393
1223.148534
1223.1484
1223.14838
1223.148338
1223.148476
1223.148586
1223.148703
1223.148746
1223.148851
1223.149193
1223.150142
1223.153129
1223.161619
1223.149456
1223.149444
1223.149554
1223.149553
1223.149348
1223.149476
1223.149338
1223.149376
1223.149428
1223.149471
1223.149638
1223.14997
1223.151255
1223.154469
1223.150221
1223.150136
1223.150142
1223.150137
1223.150075
1223.150103
1223.150067
1223.150076
1223.150191
1223.150063
1223.149998
1223.150042
1223.150666
1223.152067
1223.154555
1223.149386
1223.149573
1223.149566
1223.149602
1223.149579
1223.149511
1223.14955
1223.149598
1223.149554
1223.149537
1223.149571
1223.149523
1223.149701
1223.150336
1223.151579
1223.150207
1223.150054
1223.150096
1223.150045
1223.149938
1223.149975
1223.150136
1223.149991
1223.149979
1223.149981
1223.149864
1223.149921
1223.150132
1223.150535
1223.148833
1223.148853
1223.14886
1223.148601
1223.14853
1223.148343
1223.148462
1223.148609
1223.148571
1223.148665
1223.148801
1223.148869
1223.149111
1223.149668
1223.151001
1223.150928
1223.15106
1223.150994
1223.150802
1223.150823
1223.150809
1223.150772
1223.150821
1223.150823
1223.150907
1223.151065
1223.151597
1223.152902
1223.152389
1223.152358
1223.152286
1223.152212
1223.15216
1223.151951
1223.151927
1223.151833
1223.151957
1223.152053
1223.152224
1223.152589
1223.153377
1223.156095
1223.151729
1223.151482
1223.151459
1223.15154
1223.151741
1223.151792
1223.151852
1223.151929
1223.152066
1223.152088
1223.152255
1223.152771
1223.154098
1223.157934
1223.149875
1223.150088
1223.150168
1223.150111
1223.149954
1223.150018
1223.14996
1223.149811
1223.149772
1223.149642
1223.149792
1223.149942
1223.151055
1223.15369
1223.14821
1223.148181
1223.148093
1223.148273
1223.148146
1223.148247
1223.148266
1223.148297
1223.148296
1223.148268
1223.1486
1223.148987
1223.149532
1223.150868
1223.150681
1223.150628
1223.150657
1223.150679
1223.15093
1223.150982
1223.150951
1223.151067
1223.15127
1223.151106
1223.151096
1223.15103
1223.15137
1223.152032
1223.150912
1223.150794
1223.150687
1223.150775
1223.15078
1223.150618
1223.150745
1223.150651
1223.150643
1223.15076
1223.150864
1223.151173
1223.151161
1223.151395
1223.152049
1223.150023
1223.150055
1223.150097
1223.149917
1223.14999
1223.150045
1223.149997
1223.149996
1223.150117
1223.150244
1223.150335
1223.150187
1223.150266
1223.150499
1223.1503
1223.150314
1223.150413
1223.150369
1223.15031
1223.150383
1223.150451
1223.150517
1223.150399
1223.150392
1223.150526
1223.150486
1223.150576
1223.150884
1223.151953
1223.151864
1223.15199
1223.151877
1223.151874
1223.151987
1223.151894
1223.151786
1223.151881
1223.151968
1223.152103
1223.152111
1223.152512
1223.153133
1223.150554
1223.150477
1223.150414
1223.150373
1223.150364
1223.150517
1223.15057
1223.150555
1223.150533
1223.150564
1223.150504
1223.150517
1223.151007
1223.152207
1223.150383
1223.150469
1223.150637
1223.150613
1223.150502
1223.150487
1223.150546
1223.150532
1223.150687
1223.150644
1223.150809
1223.150759
1223.151339
1223.152762
1223.149664
1223.149688
1223.149671
1223.149696
1223.149465
1223.149505
1223.149477
1223.149509
1223.149621
1223.149701
1223.149657
1223.149847
1223.15033
1223.151266
1223.147122
1223.147065
1223.147083
1223.147071
1223.147118
1223.147044
1223.147092
1223.147127
1223.147177
1223.147196
1223.14712
1223.147196
1223.147447
1223.148026
1223.150035
1223.15011
1223.150228
1223.150213
1223.150098
1223.149956
1223.150135
1223.150014
1223.149819
1223.149841
1223.149994
1223.15014
1223.150363
1223.150699
1223.150364
1223.150424
1223.150514
1223.150404
1223.150429
1223.150486
1223.150402
1223.150367
1223.150443
1223.150578
1223.150516
1223.150556
1223.15059
1223.150634
)
;

boundaryField
{
    top
    {
        type            zeroGradient;
    }
    bottom
    {
        type            zeroGradient;
    }
    side-walls
    {
        type            zeroGradient;
    }
    inlet
    {
        type            zeroGradient;
    }
    outlet
    {
        type            zeroGradient;
    }
    procBoundary0to1
    {
        type            processor;
        value           nonuniform List<scalar> 
97
(
1223.15256
1223.152999
1223.152613
1223.15313
1223.156702
1223.158535
1223.15665
1223.153311
1223.152166
1223.151629
1223.152999
1223.152999
1223.15504
1223.155695
1223.161728
1223.165888
1223.177302
1223.165641
1223.160971
1223.153594
1223.152092
1223.151754
1223.155695
1223.155695
1223.173628
1223.181352
1223.202069
1223.238967
1223.201162
1223.170218
1223.160122
1223.152509
1223.15343
1223.161078
1223.181352
1223.181352
1223.301149
1223.421491
1223.452781
1223.298865
1223.201366
1223.166325
1223.156543
1223.155705
1223.166043
1223.210737
1223.421491
1223.421491
1207.465757
1223.421067
1223.454139
1223.256732
1223.237999
1223.173932
1223.156751
1223.154571
1223.158631
1223.182815
1223.253945
1223.421067
1223.256732
1223.256732
1223.201409
1223.16146
1223.166973
1223.154695
1223.150625
1223.155542
1223.16187
1223.183015
1223.210586
1223.18023
1223.16146
1223.16146
1223.158102
1223.153186
1223.153318
1223.15111
1223.150679
1223.155563
1223.161491
1223.165997
1223.15888
1223.15361
1223.153186
1223.153186
1223.152947
1223.151031
1223.150824
1223.151619
1223.154279
1223.153939
1223.155259
1223.153441
1223.149311
1223.15107
1223.151031
)
;
    }
}


// ************************************************************************* //
