/*--------------------------------*- C++ -*----------------------------------*\
| =========                 |                                                 |
| \\      /  F ield         | OpenFOAM: The Open Source CFD Toolbox           |
|  \\    /   O peration     | Version:  4.x                                   |
|   \\  /    A nd           | Web:      www.OpenFOAM.org                      |
|    \\/     M anipulation  |                                                 |
\*---------------------------------------------------------------------------*/
FoamFile
{
    version     2.0;
    format      ascii;
    class       volVectorField;
    location    "1000";
    object      U;
}
// * * * * * * * * * * * * * * * * * * * * * * * * * * * * * * * * * * * * * //

dimensions      [0 1 -1 0 0 0 0];

internalField   nonuniform List<vector> 
1175
(
(0.01100000014 6.587546274e-11 5.812940571e-10)
(0.01100000097 -1.001154613e-10 1.437191429e-09)
(0.01100000307 -2.577047243e-10 -7.767375286e-10)
(0.01100000383 -2.257154492e-09 2.573930552e-09)
(0.01100000365 -8.828582145e-10 -1.027640669e-10)
(0.0110000024 -1.351060987e-09 2.8217585e-10)
(0.01100000616 -2.387687614e-09 -1.788751882e-09)
(0.01100000673 -1.56657946e-09 -1.907452329e-09)
(0.0110000207 -1.1720502e-09 -5.279079316e-09)
(0.01100002437 -1.690007869e-09 -6.572907257e-09)
(0.01100005804 -8.332879754e-09 -1.055342474e-08)
(0.01100007995 -1.283356464e-08 -1.355059015e-08)
(0.01100017113 -3.298482976e-08 -3.377896393e-08)
(0.01100024926 -3.007225481e-08 -3.000997593e-08)
(0.0110004329 -7.779303925e-08 -7.394326786e-08)
(0.01099999988 5.26615489e-10 5.616351035e-10)
(0.01100000153 1.0036586e-10 -1.359169653e-09)
(0.01100000311 -1.62741219e-09 4.550187869e-10)
(0.01100000106 -9.659233067e-10 6.752663228e-10)
(0.01100000235 -1.1392208e-09 3.59163936e-10)
(0.01100000161 -3.602959419e-09 -2.473492354e-09)
(0.01100000736 -1.006230617e-09 -7.472946937e-10)
(0.01100000323 -2.479302217e-09 -1.13250019e-09)
(0.01100001457 -9.252076808e-09 -2.799072885e-09)
(0.011000015 -1.31748926e-08 -4.855843591e-09)
(0.01100004781 -2.707955118e-08 -1.083128197e-08)
(0.01100005249 -3.56025029e-08 -1.31091965e-08)
(0.01100015123 -9.249170088e-08 -3.794088401e-08)
(0.01100019586 -9.37569959e-08 -3.240173531e-08)
(0.01100040125 -2.535593758e-07 -1.108334646e-07)
(0.01100000105 9.019700372e-10 2.275288495e-11)
(0.01099999974 1.239704207e-09 1.273339328e-09)
(0.0110000022 -1.403340691e-09 6.354605651e-10)
(0.01099999917 -1.711929618e-09 1.12411334e-09)
(0.01100000295 -2.070105339e-09 2.405539847e-09)
(0.01100000346 -7.294233416e-10 -1.986198223e-09)
(0.01100000332 -1.613792711e-09 -4.542640091e-10)
(0.01100000033 -3.558777098e-09 -5.193450263e-09)
(0.01100000742 -8.374861121e-09 -4.285504983e-09)
(0.01100000023 -1.421384703e-08 -4.541721009e-09)
(0.01100003067 -3.121737113e-08 -1.324406868e-08)
(0.01100000207 -4.14143024e-08 -1.899503266e-08)
(0.01100010116 -1.052095125e-07 -5.024702836e-08)
(0.01100007136 -1.008921131e-07 -4.27121501e-08)
(0.01100031908 -3.321300298e-07 -2.181946995e-07)
(0.01100000095 2.975028477e-10 2.943891961e-10)
(0.01099999793 4.248885375e-10 3.831520739e-09)
(0.01100000168 9.644088648e-10 1.887245853e-09)
(0.01100000008 2.945910546e-10 -2.109311943e-09)
(0.01100000236 -4.943774068e-10 -5.633838373e-10)
(0.01100000069 -2.580606163e-09 -1.495881671e-09)
(0.01100000027 -2.708525725e-09 -3.397556914e-09)
(0.01099999631 -2.649524881e-09 -2.374705959e-09)
(0.01100000355 -5.361909249e-09 -1.340819835e-09)
(0.01099999108 -7.991705905e-09 -3.283635148e-09)
(0.01100001944 -2.381951462e-08 -9.76454297e-09)
(0.01099997106 -3.283160729e-08 -1.490891926e-08)
(0.01100007458 -1.134414004e-07 -5.538368842e-08)
(0.0109999684 -1.142018196e-07 -4.457556928e-08)
(0.01100028956 -4.818734373e-07 -3.177709219e-07)
(0.01099999952 1.4530753e-09 -1.506717015e-09)
(0.01099999851 1.10983186e-09 -7.196160064e-10)
(0.01099999993 1.701597568e-09 -8.20677235e-10)
(0.01099999985 3.458956007e-10 -4.616724532e-10)
(0.01099999894 -8.765425028e-10 3.414987558e-11)
(0.01100000013 -1.196681073e-09 -1.030106566e-09)
(0.01100000232 -2.26507655e-09 -8.126778635e-10)
(0.01099999735 -1.751040516e-09 -3.555292513e-09)
(0.01099999983 -4.32457343e-10 -2.363656052e-09)
(0.01099997836 9.000522541e-10 -2.901800485e-09)
(0.01100000484 3.595493686e-12 -1.140427471e-08)
(0.01099990725 -2.080433935e-09 -1.688653579e-08)
(0.01100000531 -1.708508558e-09 -8.476994212e-08)
(0.01099969974 -7.710435257e-10 -7.01205663e-08)
(0.01100013717 2.650840613e-10 -7.054610181e-07)
(0.01099999991 -5.544012128e-10 -1.90568797e-09)
(0.01100000112 1.082573141e-10 -2.195887551e-09)
(0.0109999978 -1.245627862e-10 6.096094713e-10)
(0.01099999863 8.273298702e-11 1.48832163e-09)
(0.01099999999 1.318063507e-09 9.253011793e-10)
(0.01100000138 2.075490398e-09 -7.919909743e-10)
(0.0110000018 1.281825333e-09 8.600142504e-10)
(0.01099999808 1.974658795e-09 -1.619015076e-09)
(0.01100000473 5.469184736e-09 -1.573358399e-09)
(0.01099999267 8.661615367e-09 -4.541166991e-09)
(0.01100001697 2.270618443e-08 -1.039458623e-08)
(0.01099997146 3.156191734e-08 -1.280297242e-08)
(0.01100007575 1.124338021e-07 -5.291410769e-08)
(0.01099996736 1.138478287e-07 -4.367071233e-08)
(0.01100028943 4.782887041e-07 -3.187361051e-07)
(0.01100000137 2.127823622e-10 3.055308543e-10)
(0.01100000104 9.590960602e-10 -1.178864327e-12)
(0.01099999903 -1.856486476e-10 2.176446611e-10)
(0.0110000014 9.756639166e-10 1.749067793e-10)
(0.01100000071 9.810649369e-10 -9.332563585e-10)
(0.01099999858 2.54046901e-09 -5.079471431e-10)
(0.01100000254 3.595502019e-09 -1.101299835e-09)
(0.01100000271 3.206944625e-09 -6.262996864e-10)
(0.01100001005 9.275701795e-09 -1.112973284e-09)
(0.01099999936 1.376473452e-08 -4.058160248e-09)
(0.01100002909 2.966430354e-08 -1.169722907e-08)
(0.01100000224 4.118919278e-08 -1.435493251e-08)
(0.01100009907 1.063181827e-07 -5.12766777e-08)
(0.01100006993 9.875493024e-08 -4.174505518e-08)
(0.01100031795 3.297970496e-07 -2.160338608e-07)
(0.01100000021 -3.030243261e-10 -1.590828787e-09)
(0.01100000106 8.0636389e-10 -3.696598066e-10)
(0.01099999858 -2.64126008e-10 6.944404527e-10)
(0.0110000025 -4.348171436e-10 -2.209399454e-09)
(0.01100000062 8.564864035e-10 -1.814811801e-09)
(0.0110000013 7.662563031e-10 5.123457594e-10)
(0.0110000063 4.275167887e-09 -1.479001395e-09)
(0.01100000386 6.166316612e-09 -1.302678545e-09)
(0.01100001639 9.597791284e-09 -2.776827307e-09)
(0.01100001374 1.250167249e-08 -3.190734938e-09)
(0.01100004816 2.700692964e-08 -1.219328697e-08)
(0.0110000498 3.717199721e-08 -1.303695008e-08)
(0.01100014722 9.143910991e-08 -4.073200712e-08)
(0.01100019355 9.129974585e-08 -3.190674525e-08)
(0.01100039697 2.533589731e-07 -1.102895327e-07)
(0.01100000207 -9.250099739e-10 -3.698195248e-10)
(0.01100000031 -9.308480692e-10 -2.317654045e-09)
(0.01100000059 8.21067591e-10 -3.602938612e-09)
(0.0110000019 7.317576788e-10 -6.754500763e-10)
(0.01100000201 3.882369388e-10 2.490457922e-09)
(0.01100000109 1.521298049e-09 -9.92532234e-10)
(0.01100000558 1.743143433e-09 1.424188623e-09)
(0.01100000743 1.509174338e-09 -2.973037913e-09)
(0.01100001995 4.116999105e-09 -3.943535515e-09)
(0.01100002358 5.673400719e-09 -2.649273985e-09)
(0.01100005737 1.208517054e-08 -8.898244534e-09)
(0.01100007648 1.35421441e-08 -1.193543191e-08)
(0.01100016997 3.030154031e-08 -3.410074903e-08)
(0.0110002495 2.826130201e-08 -2.873513707e-08)
(0.01100043073 7.545398094e-08 -7.610063706e-08)
(0.01100000079 -4.076096446e-10 1.263999239e-09)
(0.01100000104 9.984383343e-10 -3.322704622e-11)
(0.01099999959 4.13104082e-10 -6.237294444e-11)
(0.01100000039 1.070681991e-09 -8.143242279e-10)
(0.01100000232 1.984369651e-09 -4.564184628e-10)
(0.0110000021 -2.190126734e-09 -6.403738677e-10)
(0.01100000406 -1.435029471e-09 -2.417087857e-09)
(0.01100000331 -4.997124599e-10 -2.36540569e-09)
(0.01100001686 -3.237549327e-09 -5.382696257e-09)
(0.01100001459 -5.876894849e-09 -1.220708115e-08)
(0.01100004842 -1.14387832e-08 -2.698100641e-08)
(0.0110000507 -1.253360478e-08 -3.638858775e-08)
(0.01100015051 -3.706313089e-08 -9.233192085e-08)
(0.01100019654 -3.118227746e-08 -9.366346661e-08)
(0.01099999918 1.926760751e-10 2.901615743e-10)
(0.01100000076 4.694058241e-10 6.94346939e-10)
(0.01100000251 4.310671725e-10 -1.219864204e-11)
(0.01100000079 -1.453641097e-09 4.226909416e-10)
(0.01099999963 -1.418136843e-09 1.239357521e-10)
(0.01100000268 -1.253816275e-09 -2.233704604e-10)
(0.01100000495 -1.182952073e-09 -1.744687109e-09)
(0.01100000097 -1.8634833e-09 -2.405468324e-09)
(0.01100001018 -8.488224277e-09 -7.13031301e-09)
(0.01100000544 -1.094283624e-08 -1.168706195e-08)
(0.0110000377 -2.616481306e-08 -2.771890616e-08)
(0.0110000173 -3.640052848e-08 -3.808572745e-08)
(0.01100012269 -1.125279575e-07 -1.115841708e-07)
(0.01100011335 -1.05194512e-07 -1.054135071e-07)
(0.01100035758 -4.001750316e-07 -4.022334244e-07)
(0.01100000213 8.398651584e-10 -1.350531185e-10)
(0.0110000035 1.312396716e-09 1.586719781e-10)
(0.01100000151 -5.436981219e-10 5.496557981e-10)
(0.01100000106 5.653883012e-11 4.616992018e-10)
(0.011000002 -7.095411199e-10 1.159100979e-09)
(0.01099999933 -7.717748316e-10 -1.226386082e-10)
(0.01100000248 -1.86468098e-09 -1.768090144e-09)
(0.01099999856 -4.296516491e-09 -3.924726403e-09)
(0.01100000692 -7.136934708e-09 -6.865334739e-09)
(0.01099999038 -1.341040202e-08 -8.083456484e-09)
(0.01100001499 -2.975240946e-08 -2.869586374e-08)
(0.01099995948 -4.206092274e-08 -4.1930611e-08)
(0.01100005592 -1.218364663e-07 -1.568635087e-07)
(0.01099989967 -1.101550679e-07 -1.441461623e-07)
(0.01100022038 -5.510213532e-07 -8.274324473e-07)
(0.01100000063 2.446065537e-10 -7.059532788e-10)
(0.01099999919 -1.155611699e-09 2.022637547e-11)
(0.01100000113 -1.003967124e-09 1.44965547e-09)
(0.01100000164 -6.531107999e-10 7.708447249e-10)
(0.01099999988 -1.608144634e-09 1.560896483e-10)
(0.0110000005 3.003175467e-10 -5.562754859e-10)
(0.01100000083 -1.279653555e-09 -1.51501037e-09)
(0.01099999814 -2.915766655e-09 -3.44475246e-09)
(0.01100000294 -4.874062567e-09 -5.278844626e-09)
(0.01099998308 -8.460687119e-09 -7.102123391e-09)
(0.01100000398 -2.372912292e-08 -2.136515424e-08)
(0.01099992667 -3.222750373e-08 -3.870587601e-08)
(0.01100001174 -1.506813455e-07 -1.601070877e-07)
(0.01099973118 -1.445168194e-07 -1.649705526e-07)
(0.01100014009 -9.899010718e-07 -1.324711055e-06)
(0.01099999979 -7.477759641e-10 -1.441640053e-10)
(0.01099999865 -9.03051175e-10 3.388911222e-10)
(0.01099999985 9.757807369e-10 3.858377811e-10)
(0.01100000035 6.884012566e-10 -9.898318483e-10)
(0.01100000087 1.45332723e-09 -9.674900166e-10)
(0.01100000051 -2.572635058e-09 -1.306197081e-09)
(0.01099999981 -1.077716948e-09 -1.155405122e-09)
(0.01099999475 -7.498881009e-10 -1.237985545e-09)
(0.01099999922 -1.431278069e-09 -3.923646676e-09)
(0.01099996872 7.148864677e-10 -4.571837662e-09)
(0.01099998564 -2.259510943e-09 -2.21510523e-08)
(0.01099983091 -1.621335085e-09 -2.842639422e-08)
(0.01099989594 -1.027221661e-09 -2.545479553e-07)
(0.01099913526 -1.720718176e-10 -2.174224103e-07)
(0.01099974853 -3.828568117e-10 -3.06161936e-06)
(0.01100000055 -6.502321545e-10 -5.199203039e-10)
(0.01100000227 2.646429977e-10 1.583686912e-09)
(0.01099999875 -4.981199057e-10 8.132533753e-10)
(0.010999999 -4.129516983e-10 -8.70115348e-10)
(0.01100000029 6.409604324e-10 7.367226829e-10)
(0.01099999926 3.095073843e-10 -6.511043651e-10)
(0.01100000125 1.255423689e-09 -9.609930967e-10)
(0.0109999978 1.133011402e-09 -1.62638823e-09)
(0.01100000071 3.448323883e-09 -4.592367511e-09)
(0.01099998472 7.070981087e-09 -7.363713596e-09)
(0.01100000505 2.320023409e-08 -2.07208688e-08)
(0.01099992524 2.98878157e-08 -3.732143713e-08)
(0.01100001385 1.482404449e-07 -1.601012452e-07)
(0.01099972645 1.414447686e-07 -1.645686062e-07)
(0.01100013984 9.879730575e-07 -1.325388625e-06)
(0.01099999891 6.535462186e-10 -6.408859524e-10)
(0.01100000069 -3.564052768e-10 -6.41769874e-10)
(0.01100000106 -7.987216348e-10 -6.366243529e-10)
(0.01099999998 2.238988527e-10 -2.202062388e-10)
(0.01100000018 -1.719338546e-10 -1.030281224e-09)
(0.01100000119 3.093188267e-09 -2.123545758e-09)
(0.01100000023 3.002344609e-09 -1.905867118e-09)
(0.01099999847 3.545355547e-09 -1.866244503e-09)
(0.01100000661 9.327923956e-09 -6.346899048e-09)
(0.01099999014 1.271504044e-08 -9.968549189e-09)
(0.01100001366 2.755473075e-08 -2.787170781e-08)
(0.01099995876 4.153966048e-08 -4.057956669e-08)
(0.01100005634 1.218025895e-07 -1.561042126e-07)
(0.01099989982 1.112554064e-07 -1.434283486e-07)
(0.01100021957 5.498987448e-07 -8.258525251e-07)
(0.01099999958 -1.470228076e-09 -2.862636731e-10)
(0.01100000264 4.272866414e-10 3.424219708e-10)
(0.01100000185 -4.811451369e-10 -1.669933438e-10)
(0.01100000064 -8.101511738e-10 -6.03648373e-10)
(0.01100000132 1.034318578e-11 -9.608506829e-10)
(0.01099999957 1.200072066e-09 -1.731404754e-09)
(0.01100000125 6.157652111e-10 -2.971526345e-09)
(0.01100000117 2.673089739e-09 -4.361602352e-09)
(0.01100001423 7.249647763e-09 -6.792964703e-09)
(0.01100000206 1.106835222e-08 -1.172587193e-08)
(0.01100003791 2.748494435e-08 -2.705383764e-08)
(0.01100002092 3.786305382e-08 -3.699008842e-08)
(0.01100012118 1.124326359e-07 -1.108578666e-07)
(0.01100011287 1.044544964e-07 -1.043671507e-07)
(0.01100035462 3.983909263e-07 -3.98228543e-07)
(0.0110000008 -2.362512873e-10 -1.002534189e-09)
(0.01100000021 -2.172742499e-10 -1.282541628e-09)
(0.0110000001 -5.90285927e-10 -1.570048365e-09)
(0.01100000183 -3.949610765e-10 -2.270610284e-09)
(0.01100000127 -8.413510335e-10 -2.622387345e-10)
(0.01100000129 -8.704997432e-10 2.908198341e-10)
(0.01100000355 1.779771196e-09 -1.76048401e-09)
(0.01100000445 2.904415462e-09 -3.89386175e-09)
(0.01100001387 3.987116697e-09 -7.051428455e-09)
(0.01100001341 3.746794922e-09 -1.010752979e-08)
(0.01100004908 1.189525702e-08 -2.638423079e-08)
(0.01100005176 1.332576752e-08 -3.589002279e-08)
(0.01100014959 3.748604655e-08 -9.042665922e-08)
(0.01100019604 3.034372101e-08 -9.152042765e-08)
(0.01100039826 1.104649668e-07 -2.533011219e-07)
(0.01100000057 -3.335844509e-10 6.22859689e-10)
(0.01100000091 4.614202583e-10 1.951355092e-09)
(0.01100000059 7.632454992e-10 -2.985711661e-10)
(0.0110000027 -2.59001636e-09 2.457965266e-09)
(0.01100000059 -5.838452957e-10 9.054285367e-10)
(0.01099999974 1.848466199e-09 -2.226486625e-09)
(0.01100000128 -1.055512495e-09 -8.682942749e-10)
(0.01100000039 -1.003089709e-09 -2.344264622e-09)
(0.01100000882 -1.685269183e-09 -9.444039801e-09)
(0.01099999845 -4.564717919e-09 -1.418985551e-08)
(0.01100002919 -1.009029066e-08 -3.171085095e-08)
(0.01100000319 -1.189616126e-08 -3.932367204e-08)
(0.01100010037 -5.158421828e-08 -1.047008934e-07)
(0.01100006998 -4.028748261e-08 -9.72285803e-08)
(0.01099999903 2.131871039e-10 1.455557772e-09)
(0.01100000129 -7.959512908e-10 2.324091509e-09)
(0.01100000098 1.179823316e-09 1.474081676e-09)
(0.01099999871 -6.469723671e-10 -3.958905121e-10)
(0.01100000229 -6.673886156e-10 -1.210980129e-09)
(0.01099999702 -1.665621955e-09 -3.051347237e-10)
(0.01100000169 -2.261260157e-09 -2.449808672e-09)
(0.01099999623 -3.975766916e-09 -3.441039211e-09)
(0.01100000407 -9.316695905e-09 -8.875192628e-09)
(0.01099998961 -9.765725249e-09 -1.274113054e-08)
(0.01100001442 -2.759910534e-08 -2.959143347e-08)
(0.01099995713 -4.168468813e-08 -4.016275887e-08)
(0.01100005651 -1.550142665e-07 -1.223223025e-07)
(0.01099989774 -1.447150132e-07 -1.095427931e-07)
(0.01099999971 4.40142273e-10 -5.373222767e-10)
(0.01100000119 -8.638947165e-10 4.216760061e-11)
(0.01100000246 -2.135190245e-09 1.895683972e-09)
(0.01100000114 -6.802835252e-10 4.470444408e-10)
(0.01099999911 -1.607919372e-09 7.824138071e-11)
(0.01099999705 -2.959742456e-09 -8.188495132e-10)
(0.01099999906 -1.96458098e-09 -1.026245654e-09)
(0.01099999419 -3.527448964e-09 -4.058040359e-09)
(0.01099999955 -5.854009402e-09 -6.126205803e-09)
(0.01099997432 -9.106251909e-09 -1.244549736e-08)
(0.01099999059 -2.272850747e-08 -2.426120623e-08)
(0.01099986907 -3.99851687e-08 -3.985723631e-08)
(0.01099993442 -1.542909661e-07 -1.537035997e-07)
(0.0109994444 -1.613998919e-07 -1.600514438e-07)
(0.01099984462 -1.273630796e-06 -1.278079966e-06)
(0.0109999994 -8.18378029e-10 -6.917364499e-10)
(0.01100000202 -1.294940598e-09 -5.347157294e-10)
(0.01100000057 -3.337372702e-11 -3.02160515e-10)
(0.01100000164 3.648433882e-11 1.632625205e-09)
(0.01100000018 -9.504271602e-10 1.404566762e-09)
(0.01099999699 -1.247419349e-09 -6.620818859e-10)
(0.01099999846 -1.134870094e-09 -3.771117988e-10)
(0.01099999416 -2.720872413e-10 -3.773026523e-09)
(0.01100000036 -2.126507882e-09 -2.584976908e-09)
(0.01099997007 -4.852496932e-09 -4.470400441e-09)
(0.01099997682 -1.930804611e-08 -2.882681504e-09)
(0.01099984279 -2.039374314e-08 -3.281203869e-08)
(0.01099980757 -2.160782896e-07 -7.634389995e-08)
(0.01099908179 -1.87708911e-07 -2.488944644e-07)
(0.01099922482 -2.757063342e-06 -2.043698979e-06)
(0.01100000049 2.932954261e-10 -1.286701332e-09)
(0.01100000085 5.842512359e-10 1.77709147e-09)
(0.01100000048 9.102269652e-10 4.69562993e-10)
(0.01099999978 -1.696808405e-09 2.134351332e-09)
(0.01099999777 -1.205523784e-09 2.060272537e-11)
(0.0109999999 -1.141801497e-09 -5.760528473e-10)
(0.01100000074 -3.853963582e-10 -1.187845708e-09)
(0.01099999286 1.389929516e-10 -3.898414584e-10)
(0.01099999527 -7.260188715e-10 1.657258771e-09)
(0.01099995955 -1.032839263e-09 5.325517902e-09)
(0.01099996611 -1.614206916e-09 1.076133784e-08)
(0.01099968773 -2.703453685e-09 1.164351558e-08)
(0.0109995862 -8.561231809e-10 -1.199417125e-07)
(0.01099746389 4.368257949e-10 -3.098894491e-07)
(0.01099713664 -1.144907029e-09 -6.448966178e-06)
(0.01099999969 4.468539255e-11 -1.874377983e-10)
(0.01100000173 -1.204617895e-09 -6.923285362e-11)
(0.0109999995 -1.15447284e-09 -1.612412303e-09)
(0.01099999881 -3.595692576e-10 -3.303261453e-10)
(0.01099999952 3.56839551e-10 -2.428477864e-09)
(0.01099999942 5.289020226e-11 3.674683429e-10)
(0.01099999938 -6.841581178e-10 -2.653214314e-10)
(0.01099999458 -2.201869661e-11 -2.878822257e-09)
(0.01099999794 1.586084782e-09 -1.599772711e-09)
(0.01099997198 3.820029916e-09 -3.678462941e-09)
(0.01099997745 1.733967081e-08 -3.424811231e-09)
(0.01099984278 1.983194246e-08 -3.188768228e-08)
(0.01099981174 2.14203092e-07 -7.664157669e-08)
(0.01099908128 1.887369615e-07 -2.51522721e-07)
(0.01099922576 2.758451506e-06 -2.04330661e-06)
(0.01099999877 -1.930800756e-10 -8.219736012e-10)
(0.01100000187 1.530246182e-09 -7.180556434e-10)
(0.01100000113 2.675004902e-10 5.583958984e-10)
(0.01100000279 -4.324101286e-10 -1.037851298e-09)
(0.01099999868 -3.386230978e-10 -1.923436456e-10)
(0.01099999829 1.768782428e-09 7.938675859e-11)
(0.01100000056 2.781212386e-09 -1.428182936e-09)
(0.01099999378 2.676881057e-09 -2.467867765e-09)
(0.01099999943 7.697826384e-09 -5.060981117e-09)
(0.01099997224 1.081214773e-08 -9.278810525e-09)
(0.01099999 2.30803574e-08 -2.422984864e-08)
(0.01099987066 4.153449959e-08 -3.951003756e-08)
(0.01099993888 1.543428286e-07 -1.5270075e-07)
(0.01099944411 1.592551219e-07 -1.587201522e-07)
(0.0109998441 1.278243754e-06 -1.276872613e-06)
(0.01100000023 -1.524067051e-09 9.394827761e-10)
(0.01100000267 5.047599291e-10 1.36699619e-09)
(0.01099999894 2.806833071e-10 1.03912425e-09)
(0.01100000159 -6.058119927e-10 -2.962510169e-09)
(0.01100000092 5.483735508e-11 -5.077878168e-10)
(0.0109999991 8.097778205e-10 -2.719618198e-09)
(0.01100000177 2.173638941e-09 -2.229121198e-09)
(0.01099999853 2.822939814e-09 -2.035465537e-09)
(0.01100000719 6.786325188e-09 -7.662078645e-09)
(0.01099998784 1.13337571e-08 -1.200511265e-08)
(0.01100001611 2.818366971e-08 -2.757741496e-08)
(0.01099995686 4.153185796e-08 -4.010329229e-08)
(0.01100005719 1.566292659e-07 -1.221235949e-07)
(0.01099989994 1.432717631e-07 -1.103743004e-07)
(0.01100022025 8.263397171e-07 -5.496056884e-07)
(0.01100000177 1.112555652e-10 -3.044563535e-10)
(0.01100000106 -1.278749019e-09 8.007633497e-11)
(0.01100000129 -1.67850468e-09 -5.994530105e-11)
(0.01100000048 6.203846039e-10 -8.64937172e-10)
(0.01100000058 8.229610681e-10 -1.382358762e-09)
(0.01100000075 2.015358746e-09 -6.409081327e-10)
(0.01100000379 3.193915225e-10 -1.933970886e-09)
(0.01099999969 2.922403195e-09 -2.15076353e-09)
(0.01100000858 3.999550278e-09 -8.168773613e-09)
(0.01099999902 4.046775345e-09 -1.359278677e-08)
(0.01100002922 1.248548219e-08 -3.084426241e-08)
(0.01100000291 1.378600772e-08 -3.997559207e-08)
(0.01100009991 5.137714121e-08 -1.055110331e-07)
(0.01100006965 4.338908677e-08 -9.859859343e-08)
(0.01100031658 2.151888374e-07 -3.289825298e-07)
(0.01099999958 2.181027563e-10 -2.227147e-10)
(0.01100000277 -1.359829565e-09 -4.292718727e-10)
(0.01100000034 -2.105644438e-09 6.062825014e-10)
(0.01099999975 5.976045656e-10 -1.500717196e-09)
(0.01100000216 -1.155787423e-09 -2.28515267e-10)
(0.01100000187 -6.022396435e-10 -2.271525242e-09)
(0.01100000157 -1.42788424e-09 4.06692164e-11)
(0.01099999814 -1.499163747e-09 -2.633176098e-09)
(0.01100000425 -3.240230504e-09 -5.71839298e-09)
(0.0109999903 -4.224266878e-09 -8.632497971e-09)
(0.0110000186 -1.047230477e-08 -2.301110371e-08)
(0.01099997105 -1.250778462e-08 -3.227211255e-08)
(0.01100007469 -5.037934696e-08 -1.126166326e-07)
(0.01099996762 -4.444142397e-08 -1.107536079e-07)
(0.01099999914 -6.272963043e-10 -1.038482836e-10)
(0.01100000117 -2.873835157e-11 -9.728450061e-10)
(0.01099999985 -3.080835189e-10 -1.028705947e-10)
(0.01099999733 -7.125345489e-10 -4.416893744e-10)
(0.01100000201 1.225545889e-09 -1.618084471e-09)
(0.01100000003 -1.766212129e-09 -2.248445662e-09)
(0.01100000054 -1.671413295e-09 -5.787502456e-10)
(0.01099999681 -3.265035206e-09 -1.501119192e-09)
(0.01100000091 -5.68059551e-09 -2.904989179e-09)
(0.01099998226 -8.106432979e-09 -5.736305561e-09)
(0.0110000066 -2.206598653e-08 -2.32828113e-08)
(0.01099992584 -3.937953617e-08 -3.23268388e-08)
(0.01100000955 -1.577201343e-07 -1.493168358e-07)
(0.01099972791 -1.670914134e-07 -1.407940783e-07)
(0.01100000059 -6.616588289e-11 2.774540244e-10)
(0.01100000123 -1.355748432e-09 1.028506965e-09)
(0.01100000216 -8.607757673e-10 -5.610282772e-10)
(0.01100000191 2.892251592e-10 9.599019789e-10)
(0.01100000006 6.242775555e-10 -1.83972218e-10)
(0.01099999706 3.885354506e-10 -5.844951346e-10)
(0.01099999856 -7.925642648e-10 -7.431155161e-10)
(0.0109999956 -3.916544059e-09 6.773309004e-10)
(0.01099999886 -2.620502697e-09 -1.451199589e-09)
(0.01099997164 -5.329768267e-09 -2.235434528e-09)
(0.01099997728 -3.051644537e-09 -1.845569451e-08)
(0.01099984324 -3.584393845e-08 -1.978098137e-08)
(0.01099981263 -7.862439505e-08 -2.139025781e-07)
(0.01099908036 -2.506843898e-07 -1.860413196e-07)
(0.01100000057 -1.784457772e-10 7.54874637e-10)
(0.01100000095 -3.125272391e-10 1.134522074e-10)
(0.01100000091 -8.92777523e-10 1.784634285e-11)
(0.01100000075 6.335586383e-11 -3.639817665e-10)
(0.01100000035 -6.89842601e-10 -1.552176131e-09)
(0.01099999708 -7.11377486e-11 -1.170443871e-09)
(0.01099999989 -2.121040849e-10 2.893754538e-10)
(0.01099999612 2.156437234e-09 3.567285911e-10)
(0.01099999929 1.022661241e-09 1.444820885e-09)
(0.01099998192 5.00905719e-09 3.738029439e-09)
(0.01099996379 8.720609797e-09 8.553041222e-09)
(0.01099990974 1.936300336e-08 1.993962321e-08)
(0.01099944124 -1.18930639e-07 -1.186630974e-07)
(0.01099910952 -2.929209845e-07 -2.908674679e-07)
(0.01099606912 -6.160772853e-06 -6.162036766e-06)
(0.01100000282 -5.892364914e-10 6.740101807e-10)
(0.01100000055 -4.662670155e-11 2.892344917e-10)
(0.01100000138 -7.157596628e-10 1.123340043e-09)
(0.01100000167 -9.213510663e-10 6.224935741e-10)
(0.0109999987 -1.314608591e-09 1.106893619e-10)
(0.01099999988 -1.641172685e-09 6.390458014e-10)
(0.01100000337 -1.708254714e-09 1.043793648e-09)
(0.01099999555 -8.906264532e-10 1.638298194e-09)
(0.01100000435 1.553761577e-09 5.85972647e-09)
(0.01099998283 -8.520721028e-11 2.57426096e-08)
(0.01099997925 -4.993895785e-10 4.593458335e-08)
(0.01099978848 8.557233468e-10 2.40727245e-07)
(0.01099890494 -1.833961095e-10 1.931729556e-08)
(0.01099609423 -1.038022643e-09 2.213393656e-06)
(0.0109829936 -6.481714546e-10 -2.804775002e-05)
(0.01100000066 -7.031780659e-10 -4.43420666e-10)
(0.01100000106 -4.19513492e-10 8.91023882e-10)
(0.0110000003 4.382799524e-10 3.354374971e-10)
(0.01099999884 -1.141068281e-09 4.67180544e-10)
(0.01100000194 -1.023433274e-09 1.39674242e-10)
(0.01099999863 3.518873431e-11 1.43601648e-10)
(0.01100000013 -5.442024232e-10 7.141589052e-10)
(0.01099999649 2.159873486e-10 1.053408761e-09)
(0.01099999785 -2.937912717e-09 2.731430425e-09)
(0.01099998156 -5.071816714e-09 5.940848979e-09)
(0.01099996493 -1.006877439e-08 1.071298964e-08)
(0.01099990983 -2.016583058e-08 2.122971465e-08)
(0.01099943714 1.18473101e-07 -1.177968222e-07)
(0.01099910921 2.91205125e-07 -2.909876232e-07)
(0.01099607214 6.161809116e-06 -6.159487814e-06)
(0.01100000231 1.018516805e-09 -1.28158716e-09)
(0.01100000159 -7.573995486e-11 8.733238774e-10)
(0.01099999873 7.833648888e-10 4.046156282e-10)
(0.01100000145 -1.837111277e-09 5.318343942e-10)
(0.01100000168 9.90715802e-10 -8.850553092e-10)
(0.01099999604 2.371925405e-10 -1.916251999e-10)
(0.011000001 9.641193831e-10 -1.308428061e-09)
(0.01099999411 2.642170239e-09 -2.533425862e-09)
(0.01099999766 2.309362702e-09 -3.502980199e-09)
(0.01099996891 6.556710552e-09 -4.666696637e-09)
(0.01099997778 2.937836753e-09 -1.660126306e-08)
(0.01099984324 3.349909837e-08 -1.744530705e-08)
(0.01099981096 7.635789767e-08 -2.142820676e-07)
(0.01099908085 2.513720611e-07 -1.879743576e-07)
(0.01099922311 2.042311282e-06 -2.757924331e-06)
(0.01100000019 -5.917930661e-10 -6.290360026e-10)
(0.01100000125 -5.899956055e-11 -6.104945563e-11)
(0.01099999895 -1.060112689e-09 -2.235477302e-09)
(0.01099999999 -1.065280333e-09 8.276720344e-10)
(0.01099999979 -7.120097837e-10 -2.930072654e-10)
(0.01099999948 8.800252204e-10 -5.246975788e-11)
(0.01100000076 2.502467232e-09 -2.437884444e-10)
(0.01099999762 1.800893904e-09 -1.486291007e-09)
(0.01100000249 5.999653363e-09 -5.49417845e-09)
(0.01099998225 6.527993747e-09 -5.660876166e-09)
(0.01100000386 2.258214575e-08 -2.08702592e-08)
(0.01099992436 3.792976697e-08 -3.141812287e-08)
(0.01100001497 1.578786003e-07 -1.492532919e-07)
(0.01099972974 1.645330205e-07 -1.427562746e-07)
(0.0110001395 1.324555814e-06 -9.892443195e-07)
(0.01100000188 -9.310296257e-10 6.359111124e-10)
(0.0109999996 1.108049698e-11 -4.831387742e-10)
(0.01099999926 4.751048077e-10 -5.538600406e-10)
(0.01100000069 2.410118861e-10 -1.863717783e-11)
(0.01100000254 1.171419412e-09 8.865050975e-11)
(0.0110000005 1.749486409e-09 -1.405396705e-09)
(0.0110000017 1.019287049e-09 -1.901024181e-09)
(0.01099999888 1.870298888e-09 -3.351079331e-09)
(0.01100000339 2.050418507e-09 -6.930917564e-09)
(0.01099999129 3.182769186e-09 -8.433854812e-09)
(0.0110000185 9.230665478e-09 -2.179574163e-08)
(0.01099997065 1.545498776e-08 -3.019652013e-08)
(0.01100007279 5.241173761e-08 -1.122620861e-07)
(0.010999969 4.375100659e-08 -1.137387768e-07)
(0.01100028943 3.17979868e-07 -4.792092216e-07)
(0.01099999867 5.453385336e-10 1.003892234e-09)
(0.01100000224 3.584013831e-10 4.16307833e-10)
(0.01100000031 -3.450325077e-10 -1.347628678e-09)
(0.01099999903 -1.320016268e-10 -8.882760073e-10)
(0.01100000238 -9.560477902e-11 -1.356128314e-09)
(0.0110000001 6.042370931e-10 -7.726874312e-10)
(0.01100000184 -1.943747467e-11 -1.082258518e-09)
(0.01099999563 5.321071992e-10 4.898014514e-10)
(0.01100000189 -1.227905189e-09 -7.746529776e-10)
(0.01099998122 -2.297895683e-09 2.275972431e-09)
(0.01100000227 -8.87936216e-09 6.473356691e-10)
(0.01099990692 -1.241619351e-08 1.459308111e-10)
(0.0110000046 -8.390519342e-08 7.648003143e-10)
(0.01099969957 -6.924825015e-08 -1.979921824e-09)
(0.01099999901 -1.692249972e-09 7.866564638e-10)
(0.0110000001 -1.125689853e-11 -4.554038426e-10)
(0.01100000152 -1.293878409e-09 -2.360933468e-09)
(0.01099999926 -1.736081312e-10 -1.631134141e-10)
(0.01100000012 -1.584103572e-09 5.570140279e-12)
(0.01099999961 -1.07999296e-09 -3.553879814e-10)
(0.01100000112 -7.983694892e-10 3.983801726e-10)
(0.01099999464 -1.298946764e-09 -3.911722569e-10)
(0.01100000041 -4.366881265e-09 -1.722019061e-11)
(0.01099996808 -4.25286637e-09 3.711282627e-10)
(0.01099998512 -2.266298994e-08 9.097479114e-10)
(0.01099983137 -2.905531042e-08 1.705625926e-10)
(0.0109998977 -2.521636641e-07 -5.715150333e-10)
(0.0109991371 -2.205054778e-07 -5.971693685e-10)
(0.0110000011 1.841217591e-10 -3.804804294e-10)
(0.01100000107 1.244621415e-09 -7.014212458e-10)
(0.0110000009 -3.868977934e-10 -1.621389663e-09)
(0.01100000175 -2.531608823e-10 -2.201454192e-09)
(0.01100000176 -1.686234728e-09 -1.535015779e-09)
(0.01099999925 -1.988858385e-09 5.86145885e-10)
(0.0109999994 -6.079510519e-10 1.930209263e-10)
(0.01099999197 -9.627675103e-10 4.277543825e-10)
(0.01099999701 1.682318132e-09 -4.579358231e-11)
(0.01099995728 3.808660452e-09 5.387866802e-10)
(0.01099996688 1.193035285e-08 -6.905134255e-10)
(0.01099969082 1.279930429e-08 2.157502996e-10)
(0.01099958837 -1.217551991e-07 1.293945806e-10)
(0.01099746312 -3.09823909e-07 -4.696303394e-10)
(0.01099999993 1.360074526e-09 2.780309779e-10)
(0.01099999874 -8.501310162e-10 -2.070850193e-10)
(0.01100000006 -3.444808714e-10 -1.254740297e-09)
(0.01100000113 -9.975654214e-10 -3.014088939e-09)
(0.01100000107 -1.486695685e-10 -1.290388247e-09)
(0.0109999971 7.136384656e-10 -4.248349975e-11)
(0.01100000183 -3.403504002e-10 -1.732851835e-09)
(0.01099999595 1.105318467e-09 6.672229834e-10)
(0.01100000372 5.963568822e-09 1.198422022e-09)
(0.01099998341 2.384583805e-08 -7.431606804e-10)
(0.01099998405 4.461293149e-08 -1.510391398e-10)
(0.01099979043 2.41951124e-07 8.524580973e-10)
(0.01099890846 1.732883864e-08 6.77688439e-10)
(0.01099609321 2.213221888e-06 2.462964232e-10)
(0.01100000026 -5.166103606e-10 1.733336223e-09)
(0.01100000213 8.416699904e-12 -4.4323622e-10)
(0.01099999879 -3.238141488e-10 6.131952982e-10)
(0.01099999892 -1.522841595e-09 -2.472562701e-09)
(0.01099999951 9.803337076e-10 6.745259972e-11)