/*--------------------------------*- C++ -*----------------------------------*\
| =========                 |                                                 |
| \\      /  F ield         | OpenFOAM: The Open Source CFD Toolbox           |
|  \\    /   O peration     | Version:  4.x                                   |
|   \\  /    A nd           | Web:      www.OpenFOAM.org                      |
|    \\/     M anipulation  |                                                 |
\*---------------------------------------------------------------------------*/
FoamFile
{
    version     2.0;
    format      ascii;
    class       volScalarField;
    location    "1000";
    object      X_CO2;
}
// * * * * * * * * * * * * * * * * * * * * * * * * * * * * * * * * * * * * * //

dimensions      [0 0 0 0 0 0 0];

internalField   nonuniform List<scalar> 
1175
(
0.04000731899
0.04000731899
0.04000731899
0.04000731901
0.04000731907
0.04000731929
0.04000732
0.04000732229
0.04000732936
0.04000735028
0.04000740872
0.04000756127
0.04000792787
0.04000872578
0.04001027502
0.04000731899
0.04000731899
0.040007319
0.04000731902
0.0400073191
0.04000731937
0.04000732032
0.04000732346
0.04000733357
0.04000736463
0.04000745501
0.04000770031
0.04000830981
0.04000966487
0.04001229547
0.04000731899
0.04000731899
0.040007319
0.04000731903
0.04000731913
0.04000731951
0.04000732087
0.04000732556
0.04000734128
0.04000739186
0.04000754606
0.04000798428
0.040009119
0.04001171468
0.0400167649
0.04000731899
0.04000731899
0.040007319
0.04000731904
0.04000731917
0.04000731965
0.04000732144
0.0400073278
0.04000734987
0.04000742359
0.04000765778
0.04000835286
0.04001023069
0.04001467278
0.04002337541
0.04000731899
0.04000731899
0.040007319
0.04000731904
0.04000731918
0.04000731972
0.04000732169
0.04000732885
0.04000735407
0.04000743997
0.04000771937
0.04000857214
0.04001095004
0.0400167489
0.04002825084
0.04000731899
0.04000731899
0.040007319
0.04000731904
0.04000731917
0.04000731965
0.04000732144
0.0400073278
0.04000734987
0.04000742359
0.04000765778
0.04000835285
0.04001023065
0.04001467268
0.04002337521
0.04000731899
0.04000731899
0.040007319
0.04000731903
0.04000731913
0.04000731951
0.04000732087
0.04000732556
0.04000734128
0.04000739186
0.04000754605
0.04000798426
0.04000911895
0.04001171455
0.04001676463
0.04000731899
0.04000731899
0.040007319
0.04000731902
0.0400073191
0.04000731937
0.04000732032
0.04000732346
0.04000733357
0.04000736463
0.04000745501
0.04000770029
0.04000830977
0.04000966476
0.04001229522
0.04000731899
0.04000731899
0.04000731899
0.04000731901
0.04000731907
0.04000731929
0.04000732
0.04000732229
0.04000732936
0.04000735028
0.04000740872
0.04000756126
0.04000792784
0.04000872568
0.04001027478
0.04000731899
0.04000731899
0.040007319
0.04000731902
0.0400073191
0.04000731937
0.04000732032
0.04000732346
0.04000733357
0.04000736463
0.04000745501
0.04000770032
0.04000830984
0.040009665
0.04000731899
0.04000731899
0.040007319
0.04000731902
0.04000731913
0.04000731949
0.0400073208
0.04000732534
0.04000734066
0.04000739025
0.04000754265
0.04000797947
0.04000911994
0.04001174479
0.04001685597
0.04000731899
0.04000731899
0.040007319
0.04000731904
0.04000731918
0.0400073197
0.04000732167
0.04000732884
0.04000735435
0.04000744195
0.04000772853
0.04000860453
0.04001103627
0.04001690608
0.0400284514
0.04000731899
0.04000731899
0.04000731901
0.04000731905
0.04000731923
0.04000731992
0.0400073226
0.04000733278
0.04000737066
0.04000750762
0.04000798246
0.04000953039
0.04001412799
0.04002592554
0.04004969851
0.04000731899
0.04000731899
0.04000731901
0.04000731906
0.04000731925
0.04000732002
0.04000732304
0.04000733474
0.0400073793
0.04000754528
0.04000814295
0.04001018693
0.04001662684
0.04003427778
0.0400714825
0.04000731899
0.04000731899
0.04000731901
0.04000731905
0.04000731923
0.04000731992
0.0400073226
0.04000733278
0.04000737066
0.04000750761
0.04000798245
0.04000953035
0.04001412787
0.04002592518
0.04004969769
0.04000731899
0.04000731899
0.040007319
0.04000731904
0.04000731918
0.0400073197
0.04000732167
0.04000732884
0.04000735434
0.04000744195
0.04000772852
0.04000860449
0.04001103614
0.04001690569
0.04002845048
0.04000731899
0.04000731899
0.040007319
0.04000731903
0.04000731913
0.04000731949
0.0400073208
0.04000732534
0.04000734066
0.04000739025
0.04000754264
0.04000797944
0.04000911984
0.04001174448
0.04001685518
0.04000731899
0.04000731899
0.040007319
0.04000731902
0.0400073191
0.04000731937
0.04000732032
0.04000732346
0.04000733357
0.04000736463
0.04000745501
0.04000770029
0.04000830977
0.04000966476
0.04001229522
0.04000731899
0.04000731899
0.040007319
0.04000731903
0.04000731913
0.04000731951
0.04000732087
0.04000732556
0.04000734128
0.04000739186
0.04000754607
0.0400079843
0.04000911908
0.04001171495
0.04000731899
0.04000731899
0.040007319
0.04000731904
0.04000731918
0.0400073197
0.04000732167
0.04000732884
0.04000735435
0.04000744195
0.04000772854
0.04000860456
0.04001103639
0.04001690658
0.04000731899
0.04000731899
0.04000731901
0.04000731906
0.04000731925
0.04000732005
0.04000732315
0.04000733519
0.04000738098
0.04000755015
0.04000814959
0.04001014479
0.0400161818
0.04003189126
0.04006368108
0.04000731899
0.040007319
0.04000731901
0.04000731907
0.04000731934
0.04000732041
0.04000732483
0.04000734282
0.04000741525
0.04000770141
0.04000879748
0.04001278819
0.04002613869
0.04006463451
0.04014773399
0.04000731899
0.040007319
0.04000731901
0.04000731908
0.04000731937
0.04000732059
0.04000732567
0.04000734689
0.04000743519
0.04000779945
0.04000927687
0.04001508086
0.04003653782
0.04010671165
0.04027861605
0.04000731899
0.040007319
0.04000731901
0.04000731907
0.04000731934
0.04000732041
0.04000732483
0.04000734282
0.04000741525
0.0400077014
0.04000879746
0.04001278808
0.04002613824
0.04006463289
0.04014772962
0.04000731899
0.04000731899
0.04000731901
0.04000731906
0.04000731925
0.04000732005
0.04000732315
0.04000733519
0.04000738097
0.04000755014
0.04000814956
0.04001014469
0.04001618139
0.04003188983
0.04006367693
0.04000731899
0.04000731899
0.040007319
0.04000731904
0.04000731918
0.0400073197
0.04000732167
0.04000732884
0.04000735434
0.04000744195
0.04000772852
0.04000860449
0.04001103615
0.04001690571
0.04002845049
0.04000731899
0.04000731899
0.040007319
0.04000731903
0.04000731913
0.04000731951
0.04000732087
0.04000732556
0.04000734128
0.04000739186
0.04000754605
0.04000798426
0.04000911896
0.04001171457
0.04001676465
0.04000731899
0.04000731899
0.040007319
0.04000731904
0.04000731917
0.04000731965
0.04000732144
0.0400073278
0.04000734987
0.04000742359
0.0400076578
0.04000835291
0.04001023085
0.04001467326
0.04000731899
0.04000731899
0.04000731901
0.04000731905
0.04000731923
0.04000731992
0.0400073226
0.04000733278
0.04000737066
0.04000750762
0.04000798248
0.04000953048
0.04001412833
0.04002592673
0.04000731899
0.040007319
0.04000731901
0.04000731907
0.04000731934
0.04000732041
0.04000732483
0.04000734282
0.04000741525
0.04000770141
0.04000879751
0.04001278832
0.04002613934
0.04006463769
0.040007319
0.040007319
0.04000731902
0.0400073191
0.04000731945
0.04000732096
0.04000732747
0.04000735558
0.04000747703
0.04000799944
0.04001021583
0.04001934002
0.04005466586
0.04017508989
0.04047804986
0.040007319
0.040007319
0.04000731902
0.04000731911
0.0400073195
0.04000732123
0.04000732885
0.04000736288
0.04000751666
0.04000821983
0.04001146592
0.04002648888
0.04009493732
0.04038766551
0.04138868566
0.040007319
0.040007319
0.04000731902
0.0400073191
0.04000731945
0.04000732096
0.04000732747
0.04000735558
0.04000747703
0.04000799943
0.04001021578
0.04001933972
0.04005466435
0.04017508282
0.04047802288
0.04000731899
0.040007319
0.04000731901
0.04000731907
0.04000731934
0.04000732041
0.04000732483
0.04000734282
0.04000741525
0.04000770141
0.04000879746
0.04001278811
0.04002613834
0.04006463312
0.0401477298
0.04000731899
0.04000731899
0.04000731901
0.04000731905
0.04000731923
0.04000731992
0.0400073226
0.04000733278
0.04000737066
0.04000750762
0.04000798245
0.04000953037
0.04001412792
0.04002592529
0.04004969777
0.04000731899
0.04000731899
0.040007319
0.04000731904
0.04000731917
0.04000731965
0.04000732144
0.0400073278
0.04000734987
0.04000742359
0.04000765778
0.04000835286
0.04001023067
0.04001467273
0.04002337525
0.04000731899
0.04000731899
0.040007319
0.04000731904
0.04000731918
0.04000731972
0.04000732169
0.04000732885
0.04000735407
0.04000743998
0.04000771939
0.04000857222
0.04001095027
0.04001674954
0.04000731899
0.04000731899
0.04000731901
0.04000731906
0.04000731925
0.04000732002
0.04000732304
0.04000733474
0.0400073793
0.04000754529
0.04000814299
0.04001018708
0.0400166274
0.04003427959
0.04000731899
0.040007319
0.04000731901
0.04000731908
0.04000731937
0.04000732059
0.04000732567
0.04000734689
0.04000743519
0.04000779946
0.04000927695
0.04001508122
0.04003653949
0.04010671856
0.040007319
0.040007319
0.04000731902
0.04000731911
0.0400073195
0.04000732123
0.04000732885
0.04000736288
0.04000751667
0.04000821985
0.04001146602
0.0400264895
0.0400949413
0.04038769243
0.040007319
0.040007319
0.04000731902
0.04000731912
0.04000731957
0.04000732155
0.04000733058
0.04000737253
0.04000757321
0.04000856902
0.04001374848
0.0400423064
0.04021100622
0.04128715892
0.04880730414
0.040007319
0.040007319
0.04000731902
0.04000731911
0.0400073195
0.04000732123
0.04000732885
0.04000736288
0.04000751666
0.04000821984
0.04001146594
0.040026489
0.0400949378
0.04038766729
0.04138868955
0.04000731899
0.040007319
0.04000731901
0.04000731908
0.04000731937
0.04000732059
0.04000732567
0.04000734689
0.04000743519
0.04000779945
0.04000927689
0.04001508094
0.0400365381
0.04010671242
0.04027861696
0.04000731899
0.04000731899
0.04000731901
0.04000731906
0.04000731925
0.04000732002
0.04000732304
0.04000733474
0.0400073793
0.04000754529
0.04000814296
0.04001018696
0.04001662693
0.04003427799
0.04007148271
0.04000731899
0.04000731899
0.040007319
0.04000731904
0.04000731918
0.04000731972
0.04000732169
0.04000732885
0.04000735407
0.04000743997
0.04000771937
0.04000857216
0.04001095007
0.04001674898
0.04002825091
0.04000731899
0.04000731899
0.040007319
0.04000731904
0.04000731917
0.04000731965
0.04000732144
0.0400073278
0.04000734987
0.04000742359
0.0400076578
0.04000835291
0.04001023085
0.0400146732
0.04000731899
0.04000731899
0.04000731901
0.04000731905
0.04000731923
0.04000731992
0.0400073226
0.04000733278
0.04000737066
0.04000750762
0.04000798248
0.04000953049
0.04001412832
0.04002592648
0.04000731899
0.040007319
0.04000731901
0.04000731907
0.04000731934
0.04000732041
0.04000732483
0.04000734282
0.04000741525
0.04000770142
0.04000879753
0.04001278839
0.04002613945
0.04006463686
0.040007319
0.040007319
0.04000731902
0.0400073191
0.04000731945
0.04000732096
0.04000732747
0.04000735558
0.04000747703
0.04000799945
0.04001021589
0.04001934028
0.04005466705
0.04017509402
0.040007319
0.040007319
0.04000731902
0.04000731911
0.0400073195
0.04000732123
0.04000732885
0.04000736288
0.04000751667
0.04000821985
0.04001146603
0.04002648955
0.04009494141
0.04038769205
0.040007319
0.040007319
0.04000731902
0.0400073191
0.04000731945
0.04000732096
0.04000732747
0.04000735558
0.04000747703
0.04000799944
0.04001021587
0.04001934018
0.04005466664
0.04017509362
0.04000731899
0.040007319
0.04000731901
0.04000731907
0.04000731934
0.04000732041
0.04000732483
0.04000734282
0.04000741525
0.04000770141
0.0400087975
0.04001278828
0.04002613906
0.04006463564
0.04014773741
0.04000731899
0.04000731899
0.04000731901
0.04000731905
0.04000731923
0.04000731992
0.0400073226
0.04000733278
0.04000737066
0.04000750762
0.04000798247
0.04000953043
0.04001412812
0.04002592591
0.04004969913
0.04000731899
0.04000731899
0.040007319
0.04000731904
0.04000731917
0.04000731965
0.04000732144
0.0400073278
0.04000734987
0.04000742359
0.04000765779
0.04000835288
0.04001023074
0.04001467289
0.04002337557
0.04000731899
0.04000731899
0.040007319
0.04000731903
0.04000731913
0.04000731951
0.04000732087
0.04000732556
0.04000734128
0.04000739186
0.04000754607
0.0400079843
0.04000911907
0.04001171486
0.04000731899
0.04000731899
0.040007319
0.04000731904
0.04000731918
0.0400073197
0.04000732167
0.04000732884
0.04000735435
0.04000744195
0.04000772854
0.04000860457
0.04001103639
0.04001690635
0.04000731899
0.04000731899
0.04000731901
0.04000731906
0.04000731925
0.04000732005
0.04000732315
0.04000733519
0.04000738098
0.04000755015
0.04000814961
0.04001014486
0.04001618198
0.04003189152
0.04000731899
0.040007319
0.04000731901
0.04000731907
0.04000731934
0.04000732041
0.04000732483
0.04000734282
0.04000741525
0.04000770142
0.04000879753
0.04001278841
0.04002613951
0.04006463685
0.04000731899
0.040007319
0.04000731901
0.04000731908
0.04000731937
0.04000732059
0.04000732567
0.04000734689
0.04000743519
0.04000779946
0.04000927696
0.04001508127
0.04003653963
0.04010671832
0.04000731899
0.040007319
0.04000731901
0.04000731907
0.04000731934
0.04000732041
0.04000732483
0.04000734282
0.04000741525
0.04000770142
0.04000879753
0.04001278837
0.04002613941
0.04006463664
0.04000731899
0.04000731899
0.04000731901
0.04000731906
0.04000731925
0.04000732005
0.04000732315
0.04000733519
0.04000738098
0.04000755015
0.0400081496
0.04001014483
0.04001618194
0.04003189178
0.04000731899
0.04000731899
0.040007319
0.04000731904
0.04000731918
0.0400073197
0.04000732167
0.04000732884
0.04000735435
0.04000744195
0.04000772854
0.04000860455
0.04001103635
0.04001690628
0.04002845193
0.04000731899
0.04000731899
0.040007319
0.04000731903
0.04000731913
0.04000731951
0.04000732087
0.04000732556
0.04000734128
0.04000739186
0.04000754606
0.04000798429
0.04000911903
0.04001171477
0.04001676504
0.04000731899
0.04000731899
0.040007319
0.04000731902
0.0400073191
0.04000731937
0.04000732032
0.04000732346
0.04000733357
0.04000736463
0.04000745502
0.04000770032
0.04000830984
0.04000966492
0.04000731899
0.04000731899
0.040007319
0.04000731902
0.04000731913
0.04000731949
0.0400073208
0.04000732534
0.04000734066
0.04000739026
0.04000754266
0.04000797948
0.04000911996
0.04001174479
0.04000731899
0.04000731899
0.040007319
0.04000731904
0.04000731918
0.0400073197
0.04000732167
0.04000732884
0.04000735435
0.04000744196
0.04000772854
0.04000860457
0.0400110364
0.04001690636
0.04000731899
0.04000731899
0.04000731901
0.04000731905
0.04000731923
0.04000731992
0.0400073226
0.04000733278
0.04000737066
0.04000750762
0.04000798249
0.0400095305
0.04001412836
0.04002592649
0.04000731899
0.04000731899
0.04000731901
0.04000731906
0.04000731925
0.04000732002
0.04000732304
0.04000733474
0.0400073793
0.0400075453
0.040008143
0.0400101871
0.04001662744
0.04003427948
0.04000731899
0.04000731899
0.04000731901
0.04000731905
0.04000731923
0.04000731992
0.0400073226
0.04000733278
0.04000737066
0.04000750762
0.04000798249
0.04000953049
0.04001412832
0.04002592639
0.04000731899
0.04000731899
0.040007319
0.04000731904
0.04000731918
0.0400073197
0.04000732167
0.04000732884
0.04000735435
0.04000744195
0.04000772854
0.04000860457
0.04001103639
0.04001690639
0.04000731899
0.04000731899
0.040007319
0.04000731902
0.04000731913
0.04000731949
0.0400073208
0.04000732534
0.04000734066
0.04000739026
0.04000754265
0.04000797948
0.04000911997
0.04001174488
0.04000731899
0.04000731899
0.040007319
0.04000731902
0.0400073191
0.04000731937
0.04000732032
0.04000732346
0.04000733357
0.04000736463
0.04000745501
0.04000770032
0.04000830983
0.04000966493
0.0400122956
0.04000731899
0.04000731899
0.04000731899
0.04000731901
0.04000731907
0.04000731929
0.04000732
0.04000732229
0.04000732936
0.04000735028
0.04000740872
0.04000756128
0.04000792788
0.04000872578
0.04000731899
0.04000731899
0.040007319
0.04000731902
0.0400073191
0.04000731937
0.04000732032
0.04000732346
0.04000733357
0.04000736463
0.04000745502
0.04000770032
0.04000830984
0.04000966493
0.04000731899
0.04000731899
0.040007319
0.04000731903
0.04000731913
0.04000731951
0.04000732087
0.04000732556
0.04000734128
0.04000739186
0.04000754607
0.04000798431
0.04000911908
0.04001171487
0.04000731899
0.04000731899
0.040007319
0.04000731904
0.04000731917
0.04000731965
0.04000732144
0.0400073278
0.04000734987
0.0400074236
0.0400076578
0.04000835292
0.04001023086
0.04001467319
0.04000731899
0.04000731899
0.040007319
0.04000731904
0.04000731918
0.04000731972
0.04000732169
0.04000732885
0.04000735407
0.04000743998
0.04000771939
0.04000857222
0.04001095028
0.0400167495
0.04000731899
0.04000731899
0.040007319
0.04000731904
0.04000731917
0.04000731965
0.04000732144
0.0400073278
0.04000734987
0.04000742359
0.0400076578
0.04000835292
0.04001023085
0.04001467315
0.04000731899
0.04000731899
0.040007319
0.04000731903
0.04000731913
0.04000731951
0.04000732087
0.04000732556
0.04000734128
0.04000739186
0.04000754607
0.0400079843
0.04000911907
0.04001171486
0.04000731899
0.04000731899
0.040007319
0.04000731902
0.0400073191
0.04000731937
0.04000732032
0.04000732346
0.04000733357
0.04000736463
0.04000745502
0.04000770032
0.04000830984
0.04000966495
0.04000731899
0.04000731899
0.04000731899
0.04000731901
0.04000731907
0.04000731929
0.04000732
0.04000732229
0.04000732936
0.04000735028
0.04000740872
0.04000756128
0.04000792788
0.04000872582
)
;

boundaryField
{
    top
    {
        type            calculated;
        value           nonuniform List<scalar> 
134
(
0.04000731899
0.04000731899
0.04000731899
0.04000731899
0.04000731899
0.04000731899
0.04000731899
0.04000731899
0.04000731899
0.04000731899
0.04000731899
0.04000731899
0.04000731899
0.04000731899
0.04000731899
0.04000731899
0.04000731899
0.04000731899
0.04000731899
0.040007319
0.040007319
0.040007319
0.040007319
0.040007319
0.040007319
0.040007319
0.04000731899
0.04000731901
0.04000731902
0.04000731903
0.04000731904
0.04000731904
0.04000731904
0.04000731903
0.04000731902
0.04000731901
0.04000731907
0.0400073191
0.04000731913
0.04000731917
0.04000731918
0.04000731917
0.04000731913
0.0400073191
0.04000731907
0.04000731929
0.04000731937
0.04000731951
0.04000731965
0.04000731972
0.04000731965
0.04000731951
0.04000731937
0.04000731929
0.04000732
0.04000732032
0.04000732087
0.04000732144
0.04000732169
0.04000732144
0.04000732087
0.04000732032
0.04000732
0.04000732229
0.04000732346
0.04000732556
0.0400073278
0.04000732885
0.0400073278
0.04000732556
0.04000732346
0.04000732229
0.04000732936
0.04000733357
0.04000734128
0.04000734987
0.04000735407
0.04000734987
0.04000734128
0.04000733357
0.04000732936
0.04000735028
0.04000736463
0.04000739186
0.04000742359
0.04000743997
0.04000742359
0.04000739186
0.04000736463
0.04000735028
0.04000740872
0.04000745501
0.04000754605
0.04000765778
0.04000771937
0.04000765779
0.04000754606
0.04000745501
0.04000740872
0.04000756126
0.04000770029
0.04000798426
0.04000835286
0.04000857216
0.04000835288
0.04000798429
0.04000770032
0.04000756128
0.04000792784
0.04000830977
0.04000911896
0.04001023067
0.04001095007
0.04001023074
0.04000911903
0.04000830983
0.04000792788
0.04000872568
0.04000966476
0.04001171457
0.04001467273
0.04001674898
0.04001467289
0.04001171477
0.04000966493
0.04000872582
0.04001027478
0.04001229522
0.04001676465
0.04002337525
0.04002825091
0.04002337557
0.04001676504
0.0400122956
)
;
    }
    bottom
    {
        type            calculated;
        value           nonuniform List<scalar> 
127
(
0.04000731899
0.04000731899
0.04000731899
0.04000731899
0.04000731899
0.04000731899
0.04000731899
0.04000731899
0.04000731899
0.04000731899
0.04000731899
0.04000731899
0.04000731899
0.04000731899
0.04000731899
0.04000731899
0.04000731899
0.04000731899
0.04000731899
0.040007319
0.040007319
0.040007319
0.040007319
0.040007319
0.040007319
0.040007319
0.04000731899
0.04000731901
0.04000731902
0.04000731903
0.04000731904
0.04000731904
0.04000731904
0.04000731903
0.04000731902
0.04000731901
0.04000731907
0.0400073191
0.04000731913
0.04000731917
0.04000731918
0.04000731917
0.04000731913
0.0400073191
0.04000731907
0.04000731929
0.04000731937
0.04000731951
0.04000731965
0.04000731972
0.04000731965
0.04000731951
0.04000731937
0.04000731929
0.04000732
0.04000732032
0.04000732087
0.04000732144
0.04000732169
0.04000732144
0.04000732087
0.04000732032
0.04000732
0.04000732229
0.04000732346
0.04000732556
0.0400073278
0.04000732885
0.0400073278
0.04000732556
0.04000732346
0.04000732229
0.04000732936
0.04000733357
0.04000734128
0.04000734987
0.04000735407
0.04000734987
0.04000734128
0.04000733357
0.04000732936
0.04000735028
0.04000736463
0.04000739186
0.04000742359
0.04000743998
0.04000742359
0.04000739186
0.04000736463
0.04000735028
0.04000740872
0.04000745501
0.04000754607
0.0400076578
0.04000771939
0.0400076578
0.04000754607
0.04000745502
0.04000740872
0.04000756127
0.04000770032
0.0400079843
0.04000835291
0.04000857222
0.04000835291
0.0400079843
0.04000770032
0.04000756128
0.04000792787
0.04000830984
0.04000911908
0.04001023085
0.04001095027
0.04001023085
0.04000911907
0.04000830984
0.04000792788
0.04000872578
0.040009665
0.04001171495
0.04001467326
0.04001674954
0.0400146732
0.04001171486
0.04000966492
0.04000872578
0.04001027502
)
;
    }
    side-walls
    {
        type            calculated;
        value           nonuniform List<scalar> 
261
(
0.04000731899
0.04000731899
0.04000731899
0.04000731899
0.04000731899
0.04000731899
0.04000731899
0.04000731899
0.04000731899
0.04000731899
0.04000731899
0.04000731899
0.04000731899
0.04000731899
0.04000731899
0.04000731899
0.04000731899
0.04000731899
0.04000731899
0.040007319
0.040007319
0.040007319
0.040007319
0.040007319
0.040007319
0.040007319
0.04000731899
0.04000731901
0.04000731902
0.04000731903
0.04000731904
0.04000731904
0.04000731904
0.04000731903
0.04000731902
0.04000731901
0.04000731907
0.0400073191
0.04000731913
0.04000731917
0.04000731918
0.04000731917
0.04000731913
0.0400073191
0.04000731907
0.04000731929
0.04000731937
0.04000731951
0.04000731965
0.04000731972
0.04000731965
0.04000731951
0.04000731937
0.04000731929
0.04000732
0.04000732032
0.04000732087
0.04000732144
0.04000732169
0.04000732144
0.04000732087
0.04000732032
0.04000732
0.04000732229
0.04000732346
0.04000732556
0.0400073278
0.04000732885
0.0400073278
0.04000732556
0.04000732346
0.04000732229
0.04000732936
0.04000733357
0.04000734128
0.04000734987
0.04000735407
0.04000734987
0.04000734128
0.04000733357
0.04000732936
0.04000735028
0.04000736463
0.04000739186
0.04000742359
0.04000743997
0.04000742359
0.04000739186
0.04000736463
0.04000735028
0.04000740872
0.04000745501
0.04000754606
0.04000765778
0.04000771937
0.04000765778
0.04000754605
0.04000745501
0.04000740872
0.04000756127
0.04000770031
0.04000798428
0.04000835286
0.04000857214
0.04000835285
0.04000798426
0.04000770029
0.04000756126
0.04000792787
0.04000830981
0.040009119
0.04001023069
0.04001095004
0.04001023065
0.04000911895
0.04000830977
0.04000792784
0.04000872578
0.04000966487
0.04001171468
0.04001467278
0.0400167489
0.04001467268
0.04001171455
0.04000966476
0.04000872568
0.04001027502
0.04001229547
0.0400167649
0.04002337541
0.04002825084
0.04002337521
0.04001676463
0.04001229522
0.04001027478
0.04000731899
0.04000731899
0.04000731899
0.04000731899
0.04000731899
0.04000731899
0.04000731899
0.04000731899
0.04000731899
0.04000731899
0.04000731899
0.04000731899
0.04000731899
0.04000731899
0.04000731899
0.04000731899
0.04000731899
0.04000731899
0.04000731899
0.040007319
0.040007319
0.040007319
0.040007319
0.040007319
0.040007319
0.040007319
0.04000731899
0.04000731901
0.04000731902
0.04000731903
0.04000731904
0.04000731904
0.04000731904
0.04000731903
0.04000731902
0.04000731901
0.04000731907
0.0400073191
0.04000731913
0.04000731917
0.04000731918
0.04000731917
0.04000731913
0.0400073191
0.04000731907
0.04000731929
0.04000731937
0.04000731951
0.04000731965
0.04000731972
0.04000731965
0.04000731951
0.04000731937
0.04000731929
0.04000732
0.04000732032
0.04000732087
0.04000732144
0.04000732169
0.04000732144
0.04000732087
0.04000732032
0.04000732
0.04000732229
0.04000732346
0.04000732556
0.0400073278
0.04000732885
0.0400073278
0.04000732556
0.04000732346
0.04000732229
0.04000732936
0.04000733357
0.04000734128
0.04000734987
0.04000735407
0.04000734987
0.04000734128
0.04000733357
0.04000732936
0.04000735028
0.04000736463
0.04000739186
0.0400074236
0.04000743998
0.04000742359
0.04000739186
0.04000736463
0.04000735028
0.04000740872
0.04000745502
0.04000754607
0.0400076578
0.04000771939
0.0400076578
0.04000754607
0.04000745502
0.04000740872
0.04000756128
0.04000770032
0.04000798431
0.04000835292
0.04000857222
0.04000835292
0.0400079843
0.04000770032
0.04000756128
0.04000792788
0.04000830984
0.04000911908
0.04001023086
0.04001095028
0.04001023085
0.04000911907
0.04000830984
0.04000792788
0.04000872578
0.04000966493
0.04001171487
0.04001467319
0.0400167495
0.04001467315
0.04001171486
0.04000966495
0.04000872582
)
;
    }
    inlet
    {
        type            calculated;
        value           nonuniform List<scalar> 
81
(
0.04000731899
0.04000731899
0.04000731899
0.04000731899
0.04000731899
0.04000731899
0.04000731899
0.04000731899
0.04000731899
0.04000731899
0.04000731899
0.04000731899
0.04000731899
0.04000731899
0.04000731899
0.04000731899
0.04000731899
0.04000731899
0.04000731899
0.04000731899
0.04000731899
0.04000731899
0.04000731899
0.04000731899
0.04000731899
0.04000731899
0.04000731899
0.04000731899
0.04000731899
0.04000731899
0.040007319
0.040007319
0.040007319
0.04000731899
0.04000731899
0.04000731899
0.04000731899
0.04000731899
0.04000731899
0.040007319
0.040007319
0.040007319
0.04000731899
0.04000731899
0.04000731899
0.04000731899
0.04000731899
0.04000731899
0.040007319
0.040007319
0.040007319
0.04000731899
0.04000731899
0.04000731899
0.04000731899
0.04000731899
0.04000731899
0.04000731899
0.04000731899
0.04000731899
0.04000731899
0.04000731899
0.04000731899
0.04000731899
0.04000731899
0.04000731899
0.04000731899
0.04000731899
0.04000731899
0.04000731899
0.04000731899
0.04000731899
0.04000731899
0.04000731899
0.04000731899
0.04000731899
0.04000731899
0.04000731899
0.04000731899
0.04000731899
0.04000731899
)
;
    }
    outlet
    {
        type            calculated;
        value           nonuniform 0();
    }
    procBoundary0to1
    {
        type            processor;
        value           nonuniform List<scalar> 
97
(
0.04001293937
0.04001229568
0.04001669206
0.04002488399
0.04003670754
0.04004500877
0.04003670723
0.04002488356
0.04001669166
0.04001293904
0.04001229568
0.04001229568
0.04002500452
0.04002845229
0.04004563547
0.0400816969
0.04011511064
0.04008169585
0.04004563418
0.04002500357
0.04001669166
0.04001676521
0.04002845229
0.04002845229
0.04010554971
0.04014773964
0.04023652652
0.04040501765
0.0402365221
0.04010554545
0.04004563414
0.04002488353
0.04002337591
0.04004969993
0.04014773964
0.04014773964
0.04067879555
0.04138870425
0.04153208939
0.04067877842
0.04023652183
0.04008169569
0.04003670716
0.04002825144
0.04007148418
0.0402786219
0.04138870425
0.04138870425
0.04518424538
0.04138870064
0.04153208819
0.04047803373
0.04040501688
0.04011511022
0.04004500861
0.04002337566
0.04004969886
0.04014773338
0.04047803047
0.04138870064
0.04047803373
0.04047803373
0.04023652649
0.04006368028
0.04008169697
0.0400367075
0.04001676488
0.04002845102
0.04006367836
0.04014773296
0.04027862006
0.04014773247
0.04006368028
0.04006368028
0.04004563532
0.04001685585
0.04002488398
0.04001229534
0.0400168554
0.04002845098
0.04004969868
0.04007148346
0.04004969846
0.0400284512
0.04001685585
0.04001685585
0.04001669203
0.04001027499
0.04001027485
0.04001229534
0.04001676487
0.04002337557
0.04002825117
0.04002337548
0.04001676486
0.04001229543
0.04001027499
)
;
    }
}


// ************************************************************************* //
