/*--------------------------------*- C++ -*----------------------------------*\
| =========                 |                                                 |
| \\      /  F ield         | OpenFOAM: The Open Source CFD Toolbox           |
|  \\    /   O peration     | Version:  4.x                                   |
|   \\  /    A nd           | Web:      www.OpenFOAM.org                      |
|    \\/     M anipulation  |                                                 |
\*---------------------------------------------------------------------------*/
FoamFile
{
    version     2.0;
    format      ascii;
    class       volScalarField;
    location    "1000";
    object      X_H2O;
}
// * * * * * * * * * * * * * * * * * * * * * * * * * * * * * * * * * * * * * //

dimensions      [0 0 0 0 0 0 0];

internalField   nonuniform List<scalar> 
1175
(
1.504088802e-05
1.504088747e-05
1.504089077e-05
1.504090294e-05
1.504094744e-05
1.504110119e-05
1.504160979e-05
1.504324942e-05
1.504832008e-05
1.506331287e-05
1.510522492e-05
1.521467361e-05
1.547778651e-05
1.60506232e-05
1.716307811e-05
1.504088815e-05
1.504088896e-05
1.504089312e-05
1.504090731e-05
1.504096475e-05
1.504116095e-05
1.504183676e-05
1.504409194e-05
1.505133534e-05
1.507361823e-05
1.513848139e-05
1.531459471e-05
1.575236624e-05
1.672592052e-05
1.861626836e-05
1.50408897e-05
1.504089061e-05
1.504089509e-05
1.504091566e-05
1.50409884e-05
1.504126161e-05
1.504223289e-05
1.504559572e-05
1.505687704e-05
1.509317988e-05
1.520391181e-05
1.551874994e-05
1.633432901e-05
1.82005766e-05
2.18323652e-05
1.504088959e-05
1.504089177e-05
1.504089619e-05
1.504092334e-05
1.504101563e-05
1.504136445e-05
1.5042643e-05
1.504720429e-05
1.506304458e-05
1.511598157e-05
1.528423856e-05
1.578386989e-05
1.713427055e-05
2.0329853e-05
2.659189468e-05
1.504089064e-05
1.504089213e-05
1.504089835e-05
1.50409244e-05
1.504102605e-05
1.504140825e-05
1.504282569e-05
1.504795783e-05
1.50660613e-05
1.512775965e-05
1.532853947e-05
1.594167975e-05
1.765218671e-05
2.18251996e-05
3.01044704e-05
1.504089001e-05
1.504089045e-05
1.504089776e-05
1.50409221e-05
1.5041016e-05
1.504136302e-05
1.504264189e-05
1.504720598e-05
1.506304532e-05
1.511598015e-05
1.528423712e-05
1.578386193e-05
1.713423701e-05
2.032974151e-05
2.659160208e-05
1.504088788e-05
1.504088968e-05
1.504089553e-05
1.504091575e-05
1.504099077e-05
1.504126295e-05
1.504223355e-05
1.50455969e-05
1.505687735e-05
1.50931798e-05
1.520390899e-05
1.551873668e-05
1.633427159e-05
1.820039734e-05
2.18319366e-05
1.504088789e-05
1.504089011e-05
1.504089536e-05
1.504091027e-05
1.504096478e-05
1.504116141e-05
1.50418376e-05
1.504409233e-05
1.505133611e-05
1.507361736e-05
1.513847591e-05
1.531457949e-05
1.575230553e-05
1.672573281e-05
1.861583673e-05
1.504088723e-05
1.504088959e-05
1.504089258e-05
1.504090558e-05
1.504095034e-05
1.504110381e-05
1.504161191e-05
1.504324891e-05
1.504832006e-05
1.50633117e-05
1.510522065e-05
1.521465668e-05
1.547772774e-05
1.605043971e-05
1.716263521e-05
1.504088773e-05
1.504088972e-05
1.5040893e-05
1.504090945e-05
1.504096475e-05
1.50411603e-05
1.504183848e-05
1.504409307e-05
1.505133705e-05
1.507361982e-05
1.513848662e-05
1.531461774e-05
1.575244864e-05
1.672623664e-05
1.504089039e-05
1.504089028e-05
1.504089554e-05
1.504091424e-05
1.504098539e-05
1.504124769e-05
1.504218425e-05
1.504544336e-05
1.505643184e-05
1.50920332e-05
1.520148819e-05
1.551537766e-05
1.633524923e-05
1.822290611e-05
2.189947397e-05
1.504088999e-05
1.504089006e-05
1.504089501e-05
1.504092267e-05
1.504102121e-05
1.504139889e-05
1.504280636e-05
1.504795001e-05
1.50662633e-05
1.512919229e-05
1.533516201e-05
1.596508127e-05
1.771451029e-05
2.193890339e-05
3.024983852e-05
1.504088985e-05
1.504089163e-05
1.504089839e-05
1.504093141e-05
1.504105919e-05
1.504155532e-05
1.504347681e-05
1.505078134e-05
1.5077988e-05
1.517641517e-05
1.551786652e-05
1.663154723e-05
1.994096487e-05
2.843648334e-05
4.5560353e-05
1.504088925e-05
1.504089264e-05
1.504090171e-05
1.504093511e-05
1.504107487e-05
1.504162683e-05
1.504379392e-05
1.505218962e-05
1.508420285e-05
1.520351951e-05
1.563340528e-05
1.710441182e-05
2.174153417e-05
3.445716968e-05
6.12682427e-05
1.504089e-05
1.504089208e-05
1.504090064e-05
1.504093332e-05
1.50410586e-05
1.504155674e-05
1.504347822e-05
1.505078178e-05
1.507798976e-05
1.517641621e-05
1.551786078e-05
1.66315196e-05
1.99408336e-05
2.843599582e-05
4.555901271e-05
1.504089128e-05
1.504089273e-05
1.504089639e-05
1.504092293e-05
1.504102302e-05
1.504140034e-05
1.504280713e-05
1.50479505e-05
1.506626312e-05
1.512919152e-05
1.533515398e-05
1.596503543e-05
1.77143202e-05
2.193824274e-05
3.024814855e-05
1.504088898e-05
1.504088934e-05
1.504089431e-05
1.504091345e-05
1.504098746e-05
1.504125008e-05
1.50421841e-05
1.504544301e-05
1.505643009e-05
1.509203069e-05
1.520147592e-05
1.551533319e-05
1.633507996e-05
1.82223337e-05
2.189792028e-05
1.504088911e-05
1.504088999e-05
1.504089356e-05
1.504090923e-05
1.504096582e-05
1.504116362e-05
1.504184007e-05
1.504409294e-05
1.505133675e-05
1.507361714e-05
1.513847794e-05
1.53145805e-05
1.575231427e-05
1.672575023e-05
1.861585425e-05
1.504088901e-05
1.50408907e-05
1.504089643e-05
1.504091667e-05
1.504099151e-05
1.504126328e-05
1.504223479e-05
1.504559813e-05
1.505687833e-05
1.509318684e-05
1.520393272e-05
1.551882408e-05
1.633457762e-05
1.820138605e-05
1.504088904e-05
1.504089152e-05
1.504089807e-05
1.504092383e-05
1.504102138e-05
1.504140061e-05
1.504280648e-05
1.504795189e-05
1.506626688e-05
1.512920032e-05
1.533518489e-05
1.596516242e-05
1.771482534e-05
2.19401995e-05
1.504089033e-05
1.504089214e-05
1.504090058e-05
1.504093637e-05
1.504107839e-05
1.50416445e-05
1.504387402e-05
1.505251978e-05
1.508540995e-05
1.52070194e-05
1.563816898e-05
1.70739971e-05
2.142060622e-05
3.273620221e-05
5.564169315e-05
1.504089e-05
1.504089333e-05
1.504090304e-05
1.504094814e-05
1.504113768e-05
1.504190929e-05
1.504508072e-05
1.505800329e-05
1.511006119e-05
1.531586487e-05
1.610462175e-05
1.897801058e-05
2.85955374e-05
5.63399117e-05
0.0001162510723
1.504089003e-05
1.504089257e-05
1.504090526e-05
1.504095506e-05
1.504116379e-05
1.504203432e-05
1.504568366e-05
1.506092786e-05
1.512440667e-05
1.538644771e-05
1.644994743e-05
2.063031104e-05
3.609332442e-05
8.668948702e-05
0.0002106859497
1.504089134e-05
1.504089369e-05
1.504090516e-05
1.504094949e-05
1.504113715e-05
1.50419104e-05
1.504508139e-05
1.505800341e-05
1.51100614e-05
1.531586133e-05
1.610460244e-05
1.89779005e-05
2.859495668e-05
5.633737292e-05
0.0001162430826
1.504088965e-05
1.504089145e-05
1.50409e-05
1.504093579e-05
1.504107832e-05
1.504164548e-05
1.504387397e-05
1.505252025e-05
1.508540953e-05
1.520701442e-05
1.563814255e-05
1.707385491e-05
2.14199315e-05
3.273345616e-05
5.563307354e-05
1.504089031e-05
1.504089125e-05
1.504089834e-05
1.504092167e-05
1.504102139e-05
1.504140024e-05
1.504280694e-05
1.504795066e-05
1.506626418e-05
1.512919506e-05
1.53351613e-05
1.596505712e-05
1.771436691e-05
2.193832078e-05
3.024820322e-05
1.504088975e-05
1.504089133e-05
1.504089555e-05
1.504091556e-05
1.504099072e-05
1.50412631e-05
1.504223499e-05
1.504559754e-05
1.505687724e-05
1.509318123e-05
1.52039163e-05
1.55187563e-05
1.633431306e-05
1.820046127e-05
2.183199375e-05
1.504089031e-05
1.50408913e-05
1.504089812e-05
1.504092217e-05
1.504101414e-05
1.50413631e-05
1.504264191e-05
1.504720598e-05
1.506304814e-05
1.511599428e-05
1.528428311e-05
1.578402332e-05
1.713478336e-05
2.033142433e-05
1.504089241e-05
1.504089302e-05
1.504089972e-05
1.504093246e-05
1.504105859e-05
1.504155656e-05
1.504347831e-05
1.505078387e-05
1.507799389e-05
1.51764326e-05
1.551793043e-05
1.663180396e-05
1.994195575e-05
2.844008337e-05
1.504089158e-05
1.504089354e-05
1.504090238e-05
1.50409475e-05
1.50411367e-05
1.504190917e-05
1.504508073e-05
1.505800286e-05
1.511006506e-05
1.531588048e-05
1.610470148e-05
1.897837922e-05
2.859727816e-05
5.634828245e-05
1.504089194e-05
1.504089502e-05
1.504090769e-05
1.504096591e-05
1.504121722e-05
1.504230166e-05
1.504697417e-05
1.506717436e-05
1.515451849e-05
1.553044069e-05
1.712634287e-05
2.369995974e-05
4.916460381e-05
0.0001360156431
0.0003546092623
1.504089382e-05
1.504089586e-05
1.504090993e-05
1.504097483e-05
1.504125691e-05
1.50424932e-05
1.504796778e-05
1.507243143e-05
1.51830496e-05
1.56891972e-05
1.802728803e-05
2.885463723e-05
7.821459653e-05
0.0002894164397
0.001011975778
1.504089201e-05
1.504089582e-05
1.504090932e-05
1.504096746e-05
1.504121807e-05
1.504230258e-05
1.504697484e-05
1.506717512e-05
1.51545185e-05
1.553043449e-05
1.712628821e-05
2.369959038e-05
4.916230085e-05
0.0001360027684
0.0003545530503
1.504088977e-05
1.504089238e-05
1.504090347e-05
1.50409483e-05
1.504113649e-05
1.504190966e-05
1.504508084e-05
1.505800514e-05
1.511006433e-05
1.531587309e-05
1.610464265e-05
1.897802921e-05
2.859532729e-05
5.63381407e-05
0.0001162435511
1.504088958e-05
1.504089158e-05
1.504089975e-05
1.504093207e-05
1.504105839e-05
1.504155704e-05
1.504347853e-05
1.505078228e-05
1.507799209e-05
1.517642548e-05
1.551788845e-05
1.663160178e-05
1.994103902e-05
2.843636438e-05
4.555926518e-05
1.504089059e-05
1.504089124e-05
1.504089601e-05
1.504092147e-05
1.504101421e-05
1.504136273e-05
1.504264122e-05
1.504720365e-05
1.506304629e-05
1.511598846e-05
1.528425773e-05
1.578391257e-05
1.713434646e-05
2.03299235e-05
2.659175367e-05
1.504089053e-05
1.504089021e-05
1.504089739e-05
1.504092382e-05
1.504102435e-05
1.504140855e-05
1.504282501e-05
1.504795839e-05
1.506606543e-05
1.512777729e-05
1.532860075e-05
1.594190188e-05
1.765292437e-05
2.182740699e-05
1.504089025e-05
1.504089241e-05
1.504090064e-05
1.504093573e-05
1.504107446e-05
1.504162789e-05
1.504379382e-05
1.505219066e-05
1.508420933e-05
1.520354581e-05
1.563351479e-05
1.710485702e-05
2.174327237e-05
3.44633293e-05
1.50408924e-05
1.504089393e-05
1.504090415e-05
1.504095398e-05
1.504116108e-05
1.504203395e-05
1.504568226e-05
1.506093162e-05
1.512441596e-05
1.538648817e-05
1.645014634e-05
2.063128951e-05
3.609804305e-05
8.671093817e-05
1.504089402e-05
1.504089621e-05
1.50409099e-05
1.504097437e-05
1.504125614e-05
1.504249508e-05
1.504797041e-05
1.507243283e-05
1.518305757e-05
1.56892401e-05
1.802753779e-05
2.885615853e-05
7.822433104e-05
0.0002894821302
1.504089325e-05
1.504089552e-05
1.504091287e-05
1.504098427e-05
1.504130181e-05
1.504272622e-05
1.504921128e-05
1.507937971e-05
1.52237788e-05
1.594085301e-05
1.967315175e-05
4.026536371e-05
0.0001619810132
0.0009388125664
0.006369660959
1.504089221e-05
1.504089546e-05
1.504090832e-05
1.50409749e-05
1.504125809e-05
1.504249616e-05
1.504797086e-05
1.507243394e-05
1.518305617e-05
1.56892274e-05
1.802744149e-05
2.885536351e-05
7.821779322e-05
0.0002894282291
0.001011987239
1.504089087e-05
1.504089242e-05
1.504090479e-05
1.504095383e-05
1.504116294e-05
1.504203377e-05
1.504568342e-05
1.506093092e-05
1.51244144e-05
1.538647588e-05
1.64500624e-05
2.063074793e-05
3.609480039e-05
8.669323152e-05
0.000210688868
1.504088931e-05
1.504089046e-05
1.504090035e-05
1.504093486e-05
1.50410743e-05
1.504162705e-05
1.504379497e-05
1.505219205e-05
1.508420736e-05
1.520353388e-05
1.563345962e-05
1.710459315e-05
2.174203568e-05
3.445819186e-05
6.126901257e-05
1.5040887e-05
1.504089005e-05
1.504089587e-05
1.504092376e-05
1.504102583e-05
1.504140798e-05
1.504282651e-05
1.504795635e-05
1.506606523e-05
1.512776966e-05
1.532857093e-05
1.594176626e-05
1.765239093e-05
2.18255591e-05
3.010476728e-05
1.504088854e-05
1.504088969e-05
1.504089536e-05
1.504092015e-05
1.504101379e-05
1.504136263e-05
1.504264143e-05
1.504720575e-05
1.506304724e-05
1.511599632e-05
1.528429524e-05
1.578406168e-05
1.71348578e-05
2.033149025e-05
1.504089009e-05
1.504089226e-05
1.504090032e-05
1.504093127e-05
1.504105885e-05
1.504155716e-05
1.50434785e-05
1.505078236e-05
1.507799558e-05
1.517644166e-05
1.551796264e-05
1.663190932e-05
1.994220673e-05
2.844032336e-05
1.504089278e-05
1.504089387e-05
1.504090409e-05
1.504094997e-05
1.504113678e-05
1.504191072e-05
1.50450814e-05
1.505800365e-05
1.51100708e-05
1.531590599e-05
1.610479874e-05
1.897874909e-05
2.859844607e-05
5.635023052e-05
1.504089233e-05
1.50408963e-05
1.504090977e-05
1.504096653e-05
1.504122086e-05
1.504230272e-05
1.504697594e-05
1.506717722e-05
1.515452967e-05
1.553049156e-05
1.71265835e-05
2.370107831e-05
4.916969906e-05
0.0001360369995
1.50408933e-05
1.504089734e-05
1.504091178e-05
1.504097542e-05
1.504125774e-05
1.504249683e-05
1.504797009e-05
1.507243533e-05
1.518306442e-05
1.568926859e-05
1.802767781e-05
2.885680292e-05
7.82270476e-05
0.0002894909796
1.504089332e-05
1.50408948e-05
1.504090865e-05
1.504096573e-05
1.504122057e-05
1.504230374e-05
1.504697542e-05
1.506717696e-05
1.515452869e-05
1.553048512e-05
1.712653756e-05
2.370079672e-05
4.916816421e-05
0.0001360311338
1.504089186e-05
1.504089204e-05
1.50409032e-05
1.504094895e-05
1.504113744e-05
1.504191127e-05
1.50450814e-05
1.505800598e-05
1.511007302e-05
1.531589692e-05
1.610474762e-05
1.897846735e-05
2.859705746e-05
5.634430788e-05
0.0001162630207
1.504089094e-05
1.50408913e-05
1.504089916e-05
1.50409302e-05
1.504105938e-05
1.504155678e-05
1.50434777e-05
1.505078317e-05
1.507799492e-05
1.517643473e-05
1.551792719e-05
1.663173971e-05
1.994149872e-05
2.84377162e-05
4.556231601e-05
1.504088817e-05
1.504089057e-05
1.504089582e-05
1.504091965e-05
1.504101385e-05
1.504136281e-05
1.504264082e-05
1.50472043e-05
1.506304645e-05
1.511599002e-05
1.528427033e-05
1.578396024e-05
1.71344893e-05
2.033027712e-05
2.659240874e-05
1.504088603e-05
1.504088847e-05
1.504089469e-05
1.504091458e-05
1.50409895e-05
1.504126136e-05
1.504223325e-05
1.504559617e-05
1.505688013e-05
1.509319143e-05
1.520395034e-05
1.551886852e-05
1.63346623e-05
1.820143717e-05
1.504088867e-05
1.504088969e-05
1.504089599e-05
1.504092374e-05
1.504102468e-05
1.504140149e-05
1.504280807e-05
1.504795072e-05
1.506626742e-05
1.512921111e-05
1.533522276e-05
1.596527878e-05
1.771509821e-05
2.194047265e-05
1.504089205e-05
1.504089235e-05
1.504089974e-05
1.504093505e-05
1.504107948e-05
1.504164558e-05
1.504387342e-05
1.505252071e-05
1.508541733e-05
1.52070469e-05
1.563826853e-05
1.707434205e-05
2.142168246e-05
3.273902736e-05
1.504089357e-05
1.504089489e-05
1.504090468e-05
1.504094898e-05
1.504113629e-05
1.504190963e-05
1.504508277e-05
1.50580055e-05
1.511007543e-05
1.531591567e-05
1.610483162e-05
1.897884836e-05
2.859866974e-05
5.635039337e-05
1.504089178e-05
1.504089375e-05
1.504090456e-05
1.504095486e-05
1.504116378e-05
1.504203387e-05
1.504568246e-05
1.506093335e-05
1.51244241e-05
1.538651449e-05
1.645024605e-05
2.063163475e-05
3.609901923e-05
8.671206527e-05
1.504089311e-05
1.504089378e-05
1.504090513e-05
1.504095021e-05
1.504113759e-05
1.504191032e-05
1.50450811e-05
1.505800524e-05
1.511007251e-05
1.531591091e-05
1.610480974e-05
1.897874658e-05
2.859825899e-05
5.634912086e-05
1.504089264e-05
1.504089278e-05
1.504090033e-05
1.504093535e-05
1.504108047e-05
1.504164551e-05
1.504387485e-05
1.505252192e-05
1.508541585e-05
1.520704146e-05
1.563824449e-05
1.707424305e-05
2.142133965e-05
3.273841643e-05
1.504088926e-05
1.504089085e-05
1.50408971e-05
1.504092277e-05
1.504102272e-05
1.504139918e-05
1.504280725e-05
1.504795128e-05
1.506626726e-05
1.512920695e-05
1.533520505e-05
1.596520322e-05
1.771483061e-05
2.19396517e-05
3.025156238e-05
1.5040888e-05
1.50408881e-05
1.504089256e-05
1.504091348e-05
1.504099013e-05
1.504126214e-05
1.504223223e-05
1.504559529e-05
1.505687902e-05
1.509318757e-05
1.52039363e-05
1.551881675e-05
1.633448456e-05
1.820088657e-05
2.183280701e-05
1.50408872e-05
1.504088948e-05
1.504089461e-05
1.504090904e-05
1.504096677e-05
1.504116213e-05
1.504183772e-05
1.504409291e-05
1.505133938e-05
1.507362638e-05
1.513850346e-05
1.531465649e-05
1.575252056e-05
1.672628535e-05
1.504088755e-05
1.504088873e-05
1.504089367e-05
1.504091414e-05
1.504098689e-05
1.50412502e-05
1.504218624e-05
1.50454447e-05
1.505643443e-05
1.509204205e-05
1.520151705e-05
1.551546219e-05
1.633546316e-05
1.822335755e-05
1.50408888e-05
1.504089053e-05
1.504089622e-05
1.504092252e-05
1.50410231e-05
1.504140036e-05
1.50428081e-05
1.504795263e-05
1.506626989e-05
1.512921325e-05
1.533522976e-05
1.596529182e-05
1.77151242e-05
2.194049113e-05
1.504088934e-05
1.504089061e-05
1.504089825e-05
1.504093051e-05
1.504105938e-05
1.504155841e-05
1.504347847e-05
1.505078558e-05
1.507799779e-05
1.517644984e-05
1.55179864e-05
1.663197072e-05
1.994233025e-05
2.844039956e-05
1.504089032e-05
1.504089396e-05
1.50409022e-05
1.504093637e-05
1.504107539e-05
1.504162805e-05
1.504379554e-05
1.505219217e-05
1.508421338e-05
1.520356014e-05
1.56335595e-05
1.710498999e-05
2.174355627e-05
3.446347517e-05
1.504089147e-05
1.504089161e-05
1.504089868e-05
1.504093124e-05
1.504105952e-05
1.504155602e-05
1.50434783e-05
1.50507852e-05
1.507799769e-05
1.517644846e-05
1.551797675e-05
1.663193397e-05
1.994220275e-05
2.844004187e-05
1.504088929e-05
1.504089053e-05
1.504089766e-05
1.504092231e-05
1.504102235e-05
1.504139929e-05
1.50428072e-05
1.504795157e-05
1.506626833e-05
1.512921166e-05
1.533521949e-05
1.596525517e-05
1.771502131e-05
2.194030579e-05
1.504088881e-05
1.504088996e-05
1.504089574e-05
1.504091486e-05
1.504098485e-05
1.504124855e-05
1.504218512e-05
1.504544272e-05
1.505643183e-05
1.509204104e-05
1.520151072e-05
1.551543664e-05
1.633539501e-05
1.822329183e-05
1.504088671e-05
1.504088869e-05
1.504089259e-05
1.504090693e-05
1.504096299e-05
1.504116192e-05
1.504183793e-05
1.504409347e-05
1.505133842e-05
1.507362331e-05
1.51384963e-05
1.531463222e-05
1.575245689e-05
1.672611423e-05
1.861666473e-05
1.504088834e-05
1.50408889e-05
1.504089255e-05
1.504090627e-05
1.504095092e-05
1.504110238e-05
1.504161254e-05
1.504325022e-05
1.504832227e-05
1.506331696e-05
1.510523731e-05
1.521470804e-05
1.547786317e-05
1.60507744e-05
1.504088812e-05
1.504088799e-05
1.504089144e-05
1.50409093e-05
1.504096501e-05
1.504116186e-05
1.504183712e-05
1.504409199e-05
1.505133822e-05
1.507362613e-05
1.513850323e-05
1.531466043e-05
1.575253021e-05
1.672629575e-05
1.504088772e-05
1.504088968e-05
1.50408941e-05
1.504091581e-05
1.504099029e-05
1.504126239e-05
1.504223349e-05
1.504559829e-05
1.505688182e-05
1.509319359e-05
1.520395568e-05
1.551888325e-05
1.633468833e-05
1.820146333e-05
1.504088929e-05
1.504089198e-05
1.504089796e-05
1.504092291e-05
1.504101635e-05
1.504136511e-05
1.504264189e-05
1.504720645e-05
1.506304991e-05
1.511600239e-05
1.528431055e-05
1.578409609e-05
1.713491865e-05
2.033152514e-05
1.504088929e-05
1.504089022e-05
1.504089568e-05
1.504092374e-05
1.504102697e-05
1.504140956e-05
1.504282753e-05
1.504796094e-05
1.506606839e-05
1.512778396e-05
1.532862396e-05
1.59419595e-05
1.765302539e-05
2.182743916e-05
1.504088907e-05
1.504089021e-05
1.504089628e-05
1.504092196e-05
1.504101653e-05
1.504136543e-05
1.504264231e-05
1.504720773e-05
1.506304985e-05
1.511600121e-05
1.528430632e-05
1.578408017e-05
1.71348699e-05
2.033139911e-05
1.504088852e-05
1.504088979e-05
1.504089347e-05
1.504091422e-05
1.504099016e-05
1.504126247e-05
1.504223348e-05
1.504559581e-05
1.505687844e-05
1.509319149e-05
1.520395038e-05
1.551886524e-05
1.633464292e-05
1.820136631e-05
1.504088875e-05
1.504088917e-05
1.504089163e-05
1.504090805e-05
1.504096554e-05
1.504116296e-05
1.504183695e-05
1.50440926e-05
1.505133917e-05
1.507362557e-05
1.513850038e-05
1.531464789e-05
1.575250187e-05
1.672626351e-05
1.50408879e-05
1.504088837e-05
1.504089044e-05
1.50409043e-05
1.504094888e-05
1.504110126e-05
1.504161198e-05
1.504325036e-05
1.504832184e-05
1.506331538e-05
1.510523456e-05
1.521469679e-05
1.547784362e-05
1.605076984e-05
)
;

boundaryField
{
    top
    {
        type            calculated;
        value           nonuniform List<scalar> 
134
(
1.504088723e-05
1.504088911e-05
1.504088975e-05
1.504089059e-05
1.5040887e-05
1.504088817e-05
1.5040888e-05
1.504088671e-05
1.50408879e-05
1.504088959e-05
1.504088999e-05
1.504089133e-05
1.504089124e-05
1.504089005e-05
1.504089057e-05
1.50408881e-05
1.504088869e-05
1.504088837e-05
1.504089258e-05
1.504089356e-05
1.504089555e-05
1.504089601e-05
1.504089587e-05
1.504089582e-05
1.504089256e-05
1.504089259e-05
1.504089044e-05
1.504090558e-05
1.504090923e-05
1.504091556e-05
1.504092147e-05
1.504092376e-05
1.504091965e-05
1.504091348e-05
1.504090693e-05
1.50409043e-05
1.504095034e-05
1.504096582e-05
1.504099072e-05
1.504101421e-05
1.504102583e-05
1.504101385e-05
1.504099013e-05
1.504096299e-05
1.504094888e-05
1.504110381e-05
1.504116362e-05
1.50412631e-05
1.504136273e-05
1.504140798e-05
1.504136281e-05
1.504126214e-05
1.504116192e-05
1.504110126e-05
1.504161191e-05
1.504184007e-05
1.504223499e-05
1.504264122e-05
1.504282651e-05
1.504264082e-05
1.504223223e-05
1.504183793e-05
1.504161198e-05
1.504324891e-05
1.504409294e-05
1.504559754e-05
1.504720365e-05
1.504795635e-05
1.50472043e-05
1.504559529e-05
1.504409347e-05
1.504325036e-05
1.504832006e-05
1.505133675e-05
1.505687724e-05
1.506304629e-05
1.506606523e-05
1.506304645e-05
1.505687902e-05
1.505133842e-05
1.504832184e-05
1.50633117e-05
1.507361714e-05
1.509318123e-05
1.511598846e-05
1.512776966e-05
1.511599002e-05
1.509318757e-05
1.507362331e-05
1.506331538e-05
1.510522065e-05
1.513847794e-05
1.52039163e-05
1.528425773e-05
1.532857093e-05
1.528427033e-05
1.52039363e-05
1.51384963e-05
1.510523456e-05
1.521465668e-05
1.53145805e-05
1.55187563e-05
1.578391257e-05
1.594176626e-05
1.578396024e-05
1.551881675e-05
1.531463222e-05
1.521469679e-05
1.547772774e-05
1.575231427e-05
1.633431306e-05
1.713434646e-05
1.765239093e-05
1.71344893e-05
1.633448456e-05
1.575245689e-05
1.547784362e-05
1.605043971e-05
1.672575023e-05
1.820046127e-05
2.03299235e-05
2.18255591e-05
2.033027712e-05
1.820088657e-05
1.672611423e-05
1.605076984e-05
1.716263521e-05
1.861585425e-05
2.183199375e-05
2.659175367e-05
3.010476728e-05
2.659240874e-05
2.183280701e-05
1.861666473e-05
)
;
    }
    bottom
    {
        type            calculated;
        value           nonuniform List<scalar> 
127
(
1.504088802e-05
1.504088773e-05
1.504088901e-05
1.504089031e-05
1.504089053e-05
1.504088854e-05
1.504088603e-05
1.50408872e-05
1.504088834e-05
1.504088747e-05
1.504088972e-05
1.50408907e-05
1.50408913e-05
1.504089021e-05
1.504088969e-05
1.504088847e-05
1.504088948e-05
1.50408889e-05
1.504089077e-05
1.5040893e-05
1.504089643e-05
1.504089812e-05
1.504089739e-05
1.504089536e-05
1.504089469e-05
1.504089461e-05
1.504089255e-05
1.504090294e-05
1.504090945e-05
1.504091667e-05
1.504092217e-05
1.504092382e-05
1.504092015e-05
1.504091458e-05
1.504090904e-05
1.504090627e-05
1.504094744e-05
1.504096475e-05
1.504099151e-05
1.504101414e-05
1.504102435e-05
1.504101379e-05
1.50409895e-05
1.504096677e-05
1.504095092e-05
1.504110119e-05
1.50411603e-05
1.504126328e-05
1.50413631e-05
1.504140855e-05
1.504136263e-05
1.504126136e-05
1.504116213e-05
1.504110238e-05
1.504160979e-05
1.504183848e-05
1.504223479e-05
1.504264191e-05
1.504282501e-05
1.504264143e-05
1.504223325e-05
1.504183772e-05
1.504161254e-05
1.504324942e-05
1.504409307e-05
1.504559813e-05
1.504720598e-05
1.504795839e-05
1.504720575e-05
1.504559617e-05
1.504409291e-05
1.504325022e-05
1.504832008e-05
1.505133705e-05
1.505687833e-05
1.506304814e-05
1.506606543e-05
1.506304724e-05
1.505688013e-05
1.505133938e-05
1.504832227e-05
1.506331287e-05
1.507361982e-05
1.509318684e-05
1.511599428e-05
1.512777729e-05
1.511599632e-05
1.509319143e-05
1.507362638e-05
1.506331696e-05
1.510522492e-05
1.513848662e-05
1.520393272e-05
1.528428311e-05
1.532860075e-05
1.528429524e-05
1.520395034e-05
1.513850346e-05
1.510523731e-05
1.521467361e-05
1.531461774e-05
1.551882408e-05
1.578402332e-05
1.594190188e-05
1.578406168e-05
1.551886852e-05
1.531465649e-05
1.521470804e-05
1.547778651e-05
1.575244864e-05
1.633457762e-05
1.713478336e-05
1.765292437e-05
1.71348578e-05
1.63346623e-05
1.575252056e-05
1.547786317e-05
1.60506232e-05
1.672623664e-05
1.820138605e-05
2.033142433e-05
2.182740699e-05
2.033149025e-05
1.820143717e-05
1.672628535e-05
1.60507744e-05
1.716307811e-05
)
;
    }
    side-walls
    {
        type            calculated;
        value           nonuniform List<scalar> 
261
(
1.504088802e-05
1.504088815e-05
1.50408897e-05
1.504088959e-05
1.504089064e-05
1.504089001e-05
1.504088788e-05
1.504088789e-05
1.504088723e-05
1.504088747e-05
1.504088896e-05
1.504089061e-05
1.504089177e-05
1.504089213e-05
1.504089045e-05
1.504088968e-05
1.504089011e-05
1.504088959e-05
1.504089077e-05
1.504089312e-05
1.504089509e-05
1.504089619e-05
1.504089835e-05
1.504089776e-05
1.504089553e-05
1.504089536e-05
1.504089258e-05
1.504090294e-05
1.504090731e-05
1.504091566e-05
1.504092334e-05
1.50409244e-05
1.50409221e-05
1.504091575e-05
1.504091027e-05
1.504090558e-05
1.504094744e-05
1.504096475e-05
1.50409884e-05
1.504101563e-05
1.504102605e-05
1.5041016e-05
1.504099077e-05
1.504096478e-05
1.504095034e-05
1.504110119e-05
1.504116095e-05
1.504126161e-05
1.504136445e-05
1.504140825e-05
1.504136302e-05
1.504126295e-05
1.504116141e-05
1.504110381e-05
1.504160979e-05
1.504183676e-05
1.504223289e-05
1.5042643e-05
1.504282569e-05
1.504264189e-05
1.504223355e-05
1.50418376e-05
1.504161191e-05
1.504324942e-05
1.504409194e-05
1.504559572e-05
1.504720429e-05
1.504795783e-05
1.504720598e-05
1.50455969e-05
1.504409233e-05
1.504324891e-05
1.504832008e-05
1.505133534e-05
1.505687704e-05
1.506304458e-05
1.50660613e-05
1.506304532e-05
1.505687735e-05
1.505133611e-05
1.504832006e-05
1.506331287e-05
1.507361823e-05
1.509317988e-05
1.511598157e-05
1.512775965e-05
1.511598015e-05
1.50931798e-05
1.507361736e-05
1.50633117e-05
1.510522492e-05
1.513848139e-05
1.520391181e-05
1.528423856e-05
1.532853947e-05
1.528423712e-05
1.520390899e-05
1.513847591e-05
1.510522065e-05
1.521467361e-05
1.531459471e-05
1.551874994e-05
1.578386989e-05
1.594167975e-05
1.578386193e-05
1.551873668e-05
1.531457949e-05
1.521465668e-05
1.547778651e-05
1.575236624e-05
1.633432901e-05
1.713427055e-05
1.765218671e-05
1.713423701e-05
1.633427159e-05
1.575230553e-05
1.547772774e-05
1.60506232e-05
1.672592052e-05
1.82005766e-05
2.0329853e-05
2.18251996e-05
2.032974151e-05
1.820039734e-05
1.672573281e-05
1.605043971e-05
1.716307811e-05
1.861626836e-05
2.18323652e-05
2.659189468e-05
3.01044704e-05
2.659160208e-05
2.18319366e-05
1.861583673e-05
1.716263521e-05
1.504088834e-05
1.504088812e-05
1.504088772e-05
1.504088929e-05
1.504088929e-05
1.504088907e-05
1.504088852e-05
1.504088875e-05
1.50408879e-05
1.50408889e-05
1.504088799e-05
1.504088968e-05
1.504089198e-05
1.504089022e-05
1.504089021e-05
1.504088979e-05
1.504088917e-05
1.504088837e-05
1.504089255e-05
1.504089144e-05
1.50408941e-05
1.504089796e-05
1.504089568e-05
1.504089628e-05
1.504089347e-05
1.504089163e-05
1.504089044e-05
1.504090627e-05
1.50409093e-05
1.504091581e-05
1.504092291e-05
1.504092374e-05
1.504092196e-05
1.504091422e-05
1.504090805e-05
1.50409043e-05
1.504095092e-05
1.504096501e-05
1.504099029e-05
1.504101635e-05
1.504102697e-05
1.504101653e-05
1.504099016e-05
1.504096554e-05
1.504094888e-05
1.504110238e-05
1.504116186e-05
1.504126239e-05
1.504136511e-05
1.504140956e-05
1.504136543e-05
1.504126247e-05
1.504116296e-05
1.504110126e-05
1.504161254e-05
1.504183712e-05
1.504223349e-05
1.504264189e-05
1.504282753e-05
1.504264231e-05
1.504223348e-05
1.504183695e-05
1.504161198e-05
1.504325022e-05
1.504409199e-05
1.504559829e-05
1.504720645e-05
1.504796094e-05
1.504720773e-05
1.504559581e-05
1.50440926e-05
1.504325036e-05
1.504832227e-05
1.505133822e-05
1.505688182e-05
1.506304991e-05
1.506606839e-05
1.506304985e-05
1.505687844e-05
1.505133917e-05
1.504832184e-05
1.506331696e-05
1.507362613e-05
1.509319359e-05
1.511600239e-05
1.512778396e-05
1.511600121e-05
1.509319149e-05
1.507362557e-05
1.506331538e-05
1.510523731e-05
1.513850323e-05
1.520395568e-05
1.528431055e-05
1.532862396e-05
1.528430632e-05
1.520395038e-05
1.513850038e-05
1.510523456e-05
1.521470804e-05
1.531466043e-05
1.551888325e-05
1.578409609e-05
1.59419595e-05
1.578408017e-05
1.551886524e-05
1.531464789e-05
1.521469679e-05
1.547786317e-05
1.575253021e-05
1.633468833e-05
1.713491865e-05
1.765302539e-05
1.71348699e-05
1.633464292e-05
1.575250187e-05
1.547784362e-05
1.60507744e-05
1.672629575e-05
1.820146333e-05
2.033152514e-05
2.182743916e-05
2.033139911e-05
1.820136631e-05
1.672626351e-05
1.605076984e-05
)
;
    }
    inlet
    {
        type            calculated;
        value           nonuniform List<scalar> 
81
(
1.504088802e-05
1.504088815e-05
1.50408897e-05
1.504088959e-05
1.504089064e-05
1.504089001e-05
1.504088788e-05
1.504088789e-05
1.504088723e-05
1.504088773e-05
1.504089039e-05
1.504088999e-05
1.504088985e-05
1.504088925e-05
1.504089e-05
1.504089128e-05
1.504088898e-05
1.504088911e-05
1.504088901e-05
1.504088904e-05
1.504089033e-05
1.504089e-05
1.504089003e-05
1.504089134e-05
1.504088965e-05
1.504089031e-05
1.504088975e-05
1.504089031e-05
1.504089241e-05
1.504089158e-05
1.504089194e-05
1.504089382e-05
1.504089201e-05
1.504088977e-05
1.504088958e-05
1.504089059e-05
1.504089053e-05
1.504089025e-05
1.50408924e-05
1.504089402e-05
1.504089325e-05
1.504089221e-05
1.504089087e-05
1.504088931e-05
1.5040887e-05
1.504088854e-05
1.504089009e-05
1.504089278e-05
1.504089233e-05
1.50408933e-05
1.504089332e-05
1.504089186e-05
1.504089094e-05
1.504088817e-05
1.504088603e-05
1.504088867e-05
1.504089205e-05
1.504089357e-05
1.504089178e-05
1.504089311e-05
1.504089264e-05
1.504088926e-05
1.5040888e-05
1.50408872e-05
1.504088755e-05
1.50408888e-05
1.504088934e-05
1.504089032e-05
1.504089147e-05
1.504088929e-05
1.504088881e-05
1.504088671e-05
1.504088834e-05
1.504088812e-05
1.504088772e-05
1.504088929e-05
1.504088929e-05
1.504088907e-05
1.504088852e-05
1.504088875e-05
1.50408879e-05
)
;
    }
    outlet
    {
        type            calculated;
        value           nonuniform 0();
    }
    procBoundary0to1
    {
        type            processor;
        value           nonuniform List<scalar> 
97
(
1.907533396e-05
1.861666824e-05
2.177444988e-05
2.766898251e-05
3.618144324e-05
4.216175791e-05
3.618109098e-05
2.766846741e-05
2.177397342e-05
1.907498105e-05
1.861666824e-05
1.861666824e-05
2.77573859e-05