/*--------------------------------*- C++ -*----------------------------------*\
| =========                 |                                                 |
| \\      /  F ield         | OpenFOAM: The Open Source CFD Toolbox           |
|  \\    /   O peration     | Version:  4.x                                   |
|   \\  /    A nd           | Web:      www.OpenFOAM.org                      |
|    \\/     M anipulation  |                                                 |
\*---------------------------------------------------------------------------*/
FoamFile
{
    version     2.0;
    format      ascii;
    class       volScalarField;
    location    "1000";
    object      X_H2;
}
// * * * * * * * * * * * * * * * * * * * * * * * * * * * * * * * * * * * * * //

dimensions      [0 0 0 0 0 0 0];

internalField   nonuniform List<scalar> 
1175
(
0.05987668974
0.05987668974
0.05987668973
0.05987668972
0.05987668968
0.05987668952
0.05987668901
0.05987668738
0.05987668231
0.05987666733
0.05987662545
0.05987651608
0.0598762532
0.05987568095
0.05987456988
0.05987668974
0.05987668974
0.05987668973
0.05987668972
0.05987668966
0.05987668946
0.05987668879
0.05987668653
0.05987667929
0.05987665703
0.0598765922
0.0598764162
0.05987597875
0.05987500601
0.05987311765
0.05987668974
0.05987668973
0.05987668973
0.05987668971
0.05987668964
0.05987668936
0.05987668839
0.05987668503
0.05987667376
0.05987663747
0.05987652679
0.05987621212
0.059875397
0.059873532
0.0598699034
0.05987668974
0.05987668973
0.05987668973
0.0598766897
0.05987668961
0.05987668926
0.05987668798
0.05987668342
0.05987666759
0.05987661468
0.05987644649
0.05987594706
0.05987459727
0.05987140339
0.05986514595
0.05987668974
0.05987668973
0.05987668973
0.0598766897
0.0598766896
0.05987668922
0.0598766878
0.05987668267
0.05987666457
0.0598766029
0.05987640219
0.05987578927
0.05987407941
0.05986990827
0.05986163427
0.05987668974
0.05987668973
0.05987668973
0.0598766897
0.05987668961
0.05987668926
0.05987668798
0.05987668342
0.05987666759
0.05987661468
0.05987644649
0.05987594707
0.05987459728
0.05987140344
0.05986514606
0.05987668974
0.05987668974
0.05987668973
0.05987668971
0.05987668964
0.05987668936
0.05987668839
0.05987668503
0.05987667376
0.05987663747
0.0598765268
0.05987621212
0.05987539703
0.05987353207
0.05986990355
0.05987668974
0.05987668974
0.05987668973
0.05987668972
0.05987668966
0.05987668946
0.05987668879
0.05987668653
0.0598766793
0.05987665703
0.05987659221
0.05987641621
0.05987597877
0.05987500608
0.05987311779
0.05987668974
0.05987668974
0.05987668973
0.05987668972
0.05987668968
0.05987668952
0.05987668901
0.05987668738
0.05987668231
0.05987666733
0.05987662545
0.05987651609
0.05987625322
0.059875681
0.05987457001
0.05987668974
0.05987668974
0.05987668973
0.05987668972
0.05987668966
0.05987668946
0.05987668879
0.05987668653
0.05987667929
0.05987665703
0.0598765922
0.0598764162
0.05987597873
0.05987500594
0.05987668974
0.05987668974
0.05987668973
0.05987668971
0.05987668964
0.05987668938
0.05987668844
0.05987668518
0.0598766742
0.05987663862
0.05987652922
0.05987621552
0.05987539617
0.05987350998
0.05986983712
0.05987668974
0.05987668973
0.05987668973
0.0598766897
0.0598766896
0.05987668923
0.05987668782
0.05987668268
0.05987666437
0.05987660147
0.05987639558
0.05987576593
0.05987401732
0.05986979528
0.05986149057
0.05987668973
0.05987668973
0.05987668973
0.05987668969
0.05987668957
0.05987668907
0.05987668715
0.05987667985
0.05987665265
0.05987655426
0.05987621291
0.05987509957
0.05987179121
0.05986329893
0.05984618456
0.05987668973
0.05987668973
0.05987668972
0.05987668969
0.05987668955
0.059876689
0.05987668683
0.05987667844
0.05987664644
0.05987652716
0.05987609738
0.05987462672
0.05986999064
0.05985727827
0.05983047791
0.05987668973
0.05987668973
0.05987668973
0.05987668969
0.05987668957
0.05987668907
0.05987668715
0.05987667985
0.05987665265
0.05987655426
0.05987621292
0.05987509959
0.05987179128
0.05986329912
0.059846185
0.05987668974
0.05987668973
0.05987668973
0.0598766897
0.0598766896
0.05987668923
0.05987668782
0.05987668268
0.05987666437
0.05987660147
0.05987639559
0.05987576596
0.05987401739
0.0598697955
0.05986149109
0.05987668974
0.05987668974
0.05987668973
0.05987668971
0.05987668964
0.05987668938
0.05987668844
0.05987668518
0.0598766742
0.05987663862
0.05987652923
0.05987621553
0.05987539623
0.05987351015
0.05986983757
0.05987668974
0.05987668974
0.05987668973
0.05987668972
0.05987668966
0.05987668946
0.05987668879
0.05987668653
0.0598766793
0.05987665703
0.05987659221
0.05987641621
0.05987597877
0.05987500607
0.05987311779
0.05987668974
0.05987668973
0.05987668973
0.05987668971
0.05987668963
0.05987668936
0.05987668839
0.05987668503
0.05987667376
0.05987663747
0.05987652679
0.0598762121
0.05987539695
0.05987353184
0.05987668974
0.05987668973
0.05987668973
0.0598766897
0.0598766896
0.05987668923
0.05987668782
0.05987668268
0.05987666437
0.05987660147
0.05987639558
0.05987576592
0.05987401725
0.05986979498
0.05987668973
0.05987668973
0.05987668972
0.05987668969
0.05987668955
0.05987668898
0.05987668675
0.05987667811
0.05987664523
0.05987652367
0.05987609266
0.05987465732
0.05987031235
0.05985900204
0.05983611204
0.05987668973
0.05987668973
0.05987668972
0.05987668968
0.05987668949
0.05987668872
0.05987668555
0.05987667263
0.05987662058
0.05987641483
0.05987562625
0.05987275346
0.05986313795
0.05983540048
0.05977551261
0.05987668973
0.05987668973
0.05987668972
0.05987668967
0.05987668946
0.05987668859
0.05987668494
0.0598766697
0.05987660624
0.05987634425
0.05987528092
0.05987110104
0.05985563939
0.05980504752
0.05968107137
0.05987668973
0.05987668973
0.05987668972
0.05987668968
0.05987668949
0.05987668872
0.05987668555
0.05987667263
0.05987662058
0.05987641484
0.05987562627
0.05987275352
0.05986313819
0.05983540136
0.05977551505
0.05987668973
0.05987668973
0.05987668972
0.05987668969
0.05987668955
0.05987668898
0.05987668675
0.05987667811
0.05987664523
0.05987652367
0.05987609267
0.05987465738
0.05987031258
0.05985900285
0.05983611443
0.05987668974
0.05987668973
0.05987668973
0.0598766897
0.0598766896
0.05987668923
0.05987668782
0.05987668268
0.05987666437
0.05987660147
0.05987639559
0.05987576595
0.05987401738
0.05986979548
0.05986149108
0.05987668974
0.05987668973
0.05987668973
0.05987668971
0.05987668964
0.05987668936
0.05987668839
0.05987668503
0.05987667376
0.05987663747
0.0598765268
0.05987621212
0.05987539702
0.05987353206
0.05986990354
0.05987668974
0.05987668973
0.05987668973
0.0598766897
0.05987668961
0.05987668926
0.05987668798
0.05987668342
0.05987666759
0.05987661467
0.05987644648
0.05987594703
0.05987459716
0.05987140307
0.05987668973
0.05987668973
0.05987668973
0.05987668969
0.05987668957
0.05987668907
0.05987668715
0.05987667985
0.05987665265
0.05987655425
0.0598762129
0.05987509951
0.059871791
0.05986329817
0.05987668973
0.05987668973
0.05987668972
0.05987668968
0.05987668949
0.05987668872
0.05987668555
0.05987667263
0.05987662058
0.05987641483
0.05987562624
0.05987275338
0.05986313756
0.05983539855
0.05987668973
0.05987668973
0.05987668972
0.05987668966
0.05987668941
0.05987668832
0.05987668365
0.05987666346
0.05987657614
0.05987620029
0.05987460465
0.05986803196
0.05984257072
0.05975573362
0.05953720099
0.05987668973
0.05987668973
0.05987668971
0.05987668965
0.05987668937
0.05987668813
0.05987668266
0.0598766582
0.05987654761
0.05987604153
0.05987370363
0.05986287656
0.05981351561
0.0596023025
0.05887970999
0.05987668973
0.05987668973
0.05987668972
0.05987668966
0.05987668941
0.05987668832
0.05987668365
0.05987666346
0.05987657614
0.0598762003
0.05987460468
0.05986803212
0.05984257153
0.05975573757
0.05953721651
0.05987668973
0.05987668973
0.05987668972
0.05987668968
0.05987668949
0.05987668872
0.05987668555
0.05987667263
0.05987662058
0.05987641484
0.05987562626
0.0598727535
0.05986313812
0.05983540121
0.05977551494
0.05987668973
0.05987668973
0.05987668973
0.05987668969
0.05987668957
0.05987668907
0.05987668715
0.05987667985
0.05987665265
0.05987655425
0.05987621291
0.05987509958
0.05987179124
0.05986329905
0.05984618495
0.05987668974
0.05987668973
0.05987668973
0.0598766897
0.05987668961
0.05987668926
0.05987668798
0.05987668342
0.05987666759
0.05987661467
0.05987644649
0.05987594706
0.05987459727
0.05987140341
0.05986514603
0.05987668974
0.05987668973
0.05987668973
0.0598766897
0.0598766896
0.05987668922
0.0598766878
0.05987668267
0.05987666457
0.0598766029
0.05987640218
0.05987578923
0.05987407926
0.05986990785
0.05987668973
0.05987668973
0.05987668972
0.05987668969
0.05987668955
0.059876689
0.05987668683
0.05987667844
0.05987664643
0.05987652715
0.05987609736
0.05987462662
0.05986999028
0.05985727706
0.05987668973
0.05987668973
0.05987668972
0.05987668967
0.05987668946
0.05987668859
0.05987668494
0.0598766697
0.05987660624
0.05987634424
0.05987528087
0.05987110082
0.05985563835
0.05980504302
0.05987668973
0.05987668973
0.05987668971
0.05987668965
0.05987668937
0.05987668813
0.05987668266
0.0598766582
0.0598765476
0.05987604152
0.05987370357
0.05986287619
0.05981351321
0.05960228631
0.05987668973
0.05987668973
0.05987668971
0.05987668964
0.05987668932
0.0598766879
0.05987668142
0.05987665126
0.05987650688
0.05987578989
0.05987205775
0.05985146494
0.05972973781
0.05895278859
0.0535208955
0.05987668973
0.05987668973
0.05987668972
0.05987668965
0.05987668937
0.05987668813
0.05987668266
0.0598766582
0.0598765476
0.05987604152
0.0598737036
0.05986287646
0.05981351514
0.05960230078
0.05887970734
0.05987668973
0.05987668973
0.05987668972
0.05987668967
0.05987668946
0.05987668859
0.05987668494
0.0598766697
0.05987660624
0.05987634425
0.0598752809
0.05987110098
0.05985563917
0.0598050469
0.05968107076
0.05987668973
0.05987668973
0.05987668972
0.05987668969
0.05987668955
0.059876689
0.05987668683
0.05987667844
0.05987664644
0.05987652715
0.05987609737
0.05987462669
0.05986999057
0.05985727811
0.05983047779
0.05987668974
0.05987668973
0.05987668973
0.0598766897
0.0598766896
0.05987668922
0.0598766878
0.05987668267
0.05987666457
0.0598766029
0.05987640219
0.05987578926
0.05987407939
0.05986990822
0.05986163424
0.05987668974
0.05987668973
0.05987668973
0.0598766897
0.05987668961
0.05987668926
0.05987668798
0.05987668342
0.05987666759
0.05987661467
0.05987644648
0.05987594702
0.05987459716
0.0598714031
0.05987668973
0.05987668973
0.05987668973
0.05987668969
0.05987668957
0.05987668907
0.05987668715
0.05987667985
0.05987665265
0.05987655425
0.05987621289
0.0598750995
0.05987179099
0.05986329826
0.05987668973
0.05987668973
0.05987668972
0.05987668968
0.05987668949
0.05987668872
0.05987668555
0.05987667263
0.05987662058
0.05987641483
0.05987562622
0.05987275333
0.05986313742
0.05983539874
0.05987668973
0.05987668973
0.05987668972
0.05987668966
0.05987668941
0.05987668832
0.05987668365
0.05987666346
0.05987657613
0.05987620028
0.05987460462
0.05986803178
0.05984256986
0.05975573036
0.05987668973
0.05987668973
0.05987668971
0.05987668965
0.05987668937
0.05987668813
0.05987668266
0.0598766582
0.0598765476
0.05987604151
0.05987370355
0.05986287613
0.05981351297
0.05960228583
0.05987668973
0.05987668973
0.05987668972
0.05987668966
0.05987668941
0.05987668832
0.05987668365
0.05987666346
0.05987657613
0.05987620028
0.05987460463
0.05986803183
0.05984257012
0.0597557309
0.05987668973
0.05987668973
0.05987668972
0.05987668968
0.05987668949
0.05987668872
0.05987668555
0.05987667263
0.05987662058
0.05987641483
0.05987562624
0.05987275339
0.05986313769
0.05983539969
0.05977551031
0.05987668973
0.05987668973
0.05987668973
0.05987668969
0.05987668957
0.05987668907
0.05987668715
0.05987667985
0.05987665265
0.05987655425
0.0598762129
0.05987509954
0.05987179112
0.05986329869
0.05984618416
0.05987668974
0.05987668973
0.05987668973
0.0598766897
0.05987668961
0.05987668926
0.05987668798
0.05987668342
0.05987666759
0.05987661467
0.05987644648
0.05987594705
0.05987459723
0.05987140331
0.05986514586
0.05987668974
0.05987668974
0.05987668973
0.05987668971
0.05987668964
0.05987668936
0.05987668839
0.05987668503
0.05987667376
0.05987663747
0.05987652679
0.0598762121
0.05987539695
0.05987353187
0.05987668974
0.05987668973
0.05987668973
0.0598766897
0.0598766896
0.05987668923
0.05987668782
0.05987668268
0.05987666437
0.05987660147
0.05987639558
0.0598757659
0.05987401723
0.05986979505
0.05987668973
0.05987668973
0.05987668972
0.05987668969
0.05987668955
0.05987668898
0.05987668675
0.05987667811
0.05987664523
0.05987652366
0.05987609265
0.05987465727
0.0598703122
0.05985900173
0.05987668973
0.05987668973
0.05987668972
0.05987668968
0.05987668949
0.05987668872
0.05987668555
0.05987667263
0.05987662058
0.05987641483
0.05987562622
0.05987275331
0.05986313738
0.05983539873
0.05987668973
0.05987668973
0.05987668972
0.05987668967
0.05987668946
0.05987668859
0.05987668494
0.0598766697
0.05987660624
0.05987634424
0.05987528086
0.05987110078
0.05985563822
0.05980504305
0.05987668973
0.05987668973
0.05987668972
0.05987668968
0.05987668949
0.05987668872
0.05987668555
0.05987667263
0.05987662058
0.05987641483
0.05987562622
0.05987275333
0.05986313746
0.05983539892
0.05987668973
0.05987668973
0.05987668972
0.05987668969
0.05987668955
0.05987668898
0.05987668675
0.05987667811
0.05987664523
0.05987652366
0.05987609265
0.05987465729
0.05987031224
0.05985900167
0.05987668974
0.05987668973
0.05987668973
0.0598766897
0.0598766896
0.05987668923
0.05987668782
0.05987668268
0.05987666437
0.05987660147
0.05987639558
0.05987576592
0.05987401727
0.05986979515
0.05986149024
0.05987668974
0.05987668974
0.05987668973
0.05987668971
0.05987668964
0.05987668936
0.05987668839
0.05987668503
0.05987667376
0.05987663747
0.05987652679
0.05987621211
0.05987539698
0.05987353195
0.05986990332
0.05987668974
0.05987668974
0.05987668973
0.05987668972
0.05987668966
0.05987668946
0.05987668879
0.05987668653
0.05987667929
0.05987665702
0.0598765922
0.05987641619
0.05987597873
0.05987500597
0.05987668974
0.05987668974
0.05987668973
0.05987668971
0.05987668964
0.05987668938
0.05987668844
0.05987668518
0.0598766742
0.05987663862
0.05987652922
0.05987621551
0.05987539615
0.05987350995
0.05987668974
0.05987668973
0.05987668973
0.0598766897
0.0598766896
0.05987668923
0.05987668782
0.05987668268
0.05987666437
0.05987660147
0.05987639557
0.0598757659
0.05987401722
0.05986979505
0.05987668973
0.05987668973
0.05987668973
0.05987668969
0.05987668957
0.05987668907
0.05987668715
0.05987667985
0.05987665265
0.05987655425
0.05987621289
0.05987509949
0.05987179096
0.05986329824
0.05987668973
0.05987668973
0.05987668972
0.05987668969
0.05987668955
0.059876689
0.05987668683
0.05987667844
0.05987664643
0.05987652715
0.05987609735
0.0598746266
0.05986999024
0.0598572771
0.05987668973
0.05987668973
0.05987668973
0.05987668969
0.05987668957
0.05987668907
0.05987668715
0.05987667985
0.05987665265
0.05987655425
0.05987621289
0.0598750995
0.05987179099
0.05986329832
0.05987668974
0.05987668973
0.05987668973
0.0598766897
0.0598766896
0.05987668923
0.05987668782
0.05987668268
0.05987666437
0.05987660147
0.05987639558
0.05987576591
0.05987401724
0.05986979506
0.05987668974
0.05987668974
0.05987668973
0.05987668971
0.05987668964
0.05987668938
0.05987668844
0.05987668518
0.0598766742
0.05987663862
0.05987652922
0.05987621551
0.05987539615
0.05987350992
0.05987668974
0.05987668974
0.05987668973
0.05987668972
0.05987668966
0.05987668946
0.05987668879
0.05987668653
0.05987667929
0.05987665703
0.0598765922
0.0598764162
0.05987597873
0.05987500598
0.05987311758
0.05987668974
0.05987668974
0.05987668973
0.05987668972
0.05987668968
0.05987668952
0.05987668901
0.05987668738
0.05987668231
0.05987666733
0.05987662544
0.05987651608
0.05987625319
0.05987568094
0.05987668974
0.05987668974
0.05987668973
0.05987668972
0.05987668966
0.05987668946
0.05987668879
0.05987668653
0.05987667929
0.05987665702
0.0598765922
0.05987641619
0.05987597872
0.05987500597
0.05987668974
0.05987668974
0.05987668973
0.05987668971
0.05987668964
0.05987668936
0.05987668839
0.05987668503
0.05987667376
0.05987663747
0.05987652679
0.05987621209
0.05987539694
0.05987353186
0.05987668974
0.05987668973
0.05987668973
0.0598766897
0.05987668961
0.05987668926
0.05987668798
0.05987668342
0.05987666759
0.05987661467
0.05987644647
0.05987594702
0.05987459715
0.05987140309
0.05987668974
0.05987668973
0.05987668973
0.0598766897
0.0598766896
0.05987668922
0.0598766878
0.05987668267
0.05987666457
0.05987660289
0.05987640218
0.05987578922
0.05987407925
0.05986990786
0.05987668974
0.05987668973
0.05987668973
0.0598766897
0.05987668961
0.05987668926
0.05987668798
0.05987668342
0.05987666759
0.05987661467
0.05987644647
0.05987594702
0.05987459716
0.05987140312
0.05987668974
0.05987668974
0.05987668973
0.05987668971
0.05987668964
0.05987668936
0.05987668839
0.05987668503
0.05987667376
0.05987663747
0.05987652679
0.0598762121
0.05987539695
0.05987353188
0.05987668974
0.05987668974
0.05987668973
0.05987668972
0.05987668966
0.05987668946
0.05987668879
0.05987668653
0.05987667929
0.05987665702
0.0598765922
0.05987641619
0.05987597873
0.05987500596
0.05987668974
0.05987668974
0.05987668973
0.05987668972
0.05987668968
0.05987668952
0.05987668901
0.05987668738
0.05987668231
0.05987666733
0.05987662544
0.05987651608
0.05987625319
0.05987568092
)
;

boundaryField
{
    top
    {
        type            calculated;
        value           nonuniform List<scalar> 
134
(
0.05987668974
0.05987668974
0.05987668974
0.05987668974
0.05987668974
0.05987668974
0.05987668974
0.05987668974
0.05987668974
0.05987668974
0.05987668974
0.05987668973
0.05987668973
0.05987668973
0.05987668973
0.05987668974
0.05987668974
0.05987668974
0.05987668973
0.05987668973
0.05987668973
0.05987668973
0.05987668973
0.05987668973
0.05987668973
0.05987668973
0.05987668973
0.05987668972
0.05987668972
0.05987668971
0.0598766897
0.0598766897
0.0598766897
0.05987668971
0.05987668972
0.05987668972
0.05987668968
0.05987668966
0.05987668964
0.05987668961
0.0598766896
0.05987668961
0.05987668964
0.05987668966
0.05987668968
0.05987668952
0.05987668946
0.05987668936
0.05987668926
0.05987668922
0.05987668926
0.05987668936
0.05987668946
0.05987668952
0.05987668901
0.05987668879
0.05987668839
0.05987668798
0.0598766878
0.05987668798
0.05987668839
0.05987668879
0.05987668901
0.05987668738
0.05987668653
0.05987668503
0.05987668342
0.05987668267
0.05987668342
0.05987668503
0.05987668653
0.05987668738
0.05987668231
0.0598766793
0.05987667376
0.05987666759
0.05987666457
0.05987666759
0.05987667376
0.05987667929
0.05987668231
0.05987666733
0.05987665703
0.05987663747
0.05987661467
0.0598766029
0.05987661467
0.05987663747
0.05987665703
0.05987666733
0.05987662545
0.05987659221
0.0598765268
0.05987644649
0.05987640219
0.05987644648
0.05987652679
0.0598765922
0.05987662544
0.05987651609
0.05987641621
0.05987621212
0.05987594706
0.05987578926
0.05987594705
0.05987621211
0.0598764162
0.05987651608
0.05987625322
0.05987597877
0.05987539702
0.05987459727
0.05987407939
0.05987459723
0.05987539698
0.05987597873
0.05987625319
0.059875681
0.05987500607
0.05987353206
0.05987140341
0.05986990822
0.05987140331
0.05987353195
0.05987500598
0.05987568092
0.05987457001
0.05987311779
0.05986990354
0.05986514603
0.05986163424
0.05986514586
0.05986990332
0.05987311758
)
;
    }
    bottom
    {
        type            calculated;
        value           nonuniform List<scalar> 
127
(
0.05987668974
0.05987668974
0.05987668974
0.05987668974
0.05987668974
0.05987668974
0.05987668974
0.05987668974
0.05987668974
0.05987668974
0.05987668974
0.05987668973
0.05987668973
0.05987668973
0.05987668973
0.05987668974
0.05987668974
0.05987668974
0.05987668973
0.05987668973
0.05987668973
0.05987668973
0.05987668973
0.05987668973
0.05987668973
0.05987668973
0.05987668973
0.05987668972
0.05987668972
0.05987668971
0.0598766897
0.0598766897
0.0598766897
0.05987668971
0.05987668972
0.05987668972
0.05987668968
0.05987668966
0.05987668963
0.05987668961
0.0598766896
0.05987668961
0.05987668964
0.05987668966
0.05987668968
0.05987668952
0.05987668946
0.05987668936
0.05987668926
0.05987668922
0.05987668926
0.05987668936
0.05987668946
0.05987668952
0.05987668901
0.05987668879
0.05987668839
0.05987668798
0.0598766878
0.05987668798
0.05987668839
0.05987668879
0.05987668901
0.05987668738
0.05987668653
0.05987668503
0.05987668342
0.05987668267
0.05987668342
0.05987668503
0.05987668653
0.05987668738
0.05987668231
0.05987667929
0.05987667376
0.05987666759
0.05987666457
0.05987666759
0.05987667376
0.05987667929
0.05987668231
0.05987666733
0.05987665703
0.05987663747
0.05987661467
0.0598766029
0.05987661467
0.05987663747
0.05987665702
0.05987666733
0.05987662545
0.0598765922
0.05987652679
0.05987644648
0.05987640218
0.05987644648
0.05987652679
0.0598765922
0.05987662544
0.05987651608
0.0598764162
0.0598762121
0.05987594703
0.05987578923
0.05987594702
0.0598762121
0.05987641619
0.05987651608
0.0598762532
0.05987597873
0.05987539695
0.05987459716
0.05987407926
0.05987459716
0.05987539695
0.05987597873
0.05987625319
0.05987568095
0.05987500594
0.05987353184
0.05987140307
0.05986990785
0.0598714031
0.05987353187
0.05987500597
0.05987568094
0.05987456988
)
;
    }
    side-walls
    {
        type            calculated;
        value           nonuniform List<scalar> 
261
(
0.05987668974
0.05987668974
0.05987668974
0.05987668974
0.05987668974
0.05987668974
0.05987668974
0.05987668974
0.05987668974
0.05987668974
0.05987668974
0.05987668973
0.05987668973
0.05987668973
0.05987668973
0.05987668974
0.05987668974
0.05987668974
0.05987668973
0.05987668973
0.05987668973
0.05987668973
0.05987668973
0.05987668973
0.05987668973
0.05987668973
0.05987668973
0.05987668972
0.05987668972
0.05987668971
0.0598766897
0.0598766897
0.0598766897
0.05987668971
0.05987668972
0.05987668972
0.05987668968
0.05987668966
0.05987668964
0.05987668961
0.0598766896
0.05987668961
0.05987668964
0.05987668966
0.05987668968
0.05987668952
0.05987668946
0.05987668936
0.05987668926
0.05987668922
0.05987668926
0.05987668936
0.05987668946
0.05987668952
0.05987668901
0.05987668879
0.05987668839
0.05987668798
0.0598766878
0.05987668798
0.05987668839
0.05987668879
0.05987668901
0.05987668738
0.05987668653
0.05987668503
0.05987668342
0.05987668267
0.05987668342
0.05987668503
0.05987668653
0.05987668738
0.05987668231
0.05987667929
0.05987667376
0.05987666759
0.05987666457
0.05987666759
0.05987667376
0.0598766793
0.05987668231
0.05987666733
0.05987665703
0.05987663747
0.05987661468
0.0598766029
0.05987661468
0.05987663747
0.05987665703
0.05987666733
0.05987662545
0.0598765922
0.05987652679
0.05987644649
0.05987640219
0.05987644649
0.0598765268
0.05987659221
0.05987662545
0.05987651608
0.0598764162
0.05987621212
0.05987594706
0.05987578927
0.05987594707
0.05987621212
0.05987641621
0.05987651609
0.0598762532
0.05987597875
0.059875397
0.05987459727
0.05987407941
0.05987459728
0.05987539703
0.05987597877
0.05987625322
0.05987568095
0.05987500601
0.059873532
0.05987140339
0.05986990827
0.05987140344
0.05987353207
0.05987500608
0.059875681
0.05987456988
0.05987311765
0.0598699034
0.05986514595
0.05986163427
0.05986514606
0.05986990355
0.05987311779
0.05987457001
0.05987668974
0.05987668974
0.05987668974
0.05987668974
0.05987668974
0.05987668974
0.05987668974
0.05987668974
0.05987668974
0.05987668974
0.05987668974
0.05987668974
0.05987668973
0.05987668973
0.05987668973
0.05987668974
0.05987668974
0.05987668974
0.05987668973
0.05987668973
0.05987668973
0.05987668973
0.05987668973
0.05987668973
0.05987668973
0.05987668973
0.05987668973
0.05987668972
0.05987668972
0.05987668971
0.0598766897
0.0598766897
0.0598766897
0.05987668971
0.05987668972
0.05987668972
0.05987668968
0.05987668966
0.05987668964
0.05987668961
0.0598766896
0.05987668961
0.05987668964
0.05987668966
0.05987668968
0.05987668952
0.05987668946
0.05987668936
0.05987668926
0.05987668922
0.05987668926
0.05987668936
0.05987668946
0.05987668952
0.05987668901
0.05987668879
0.05987668839
0.05987668798
0.0598766878
0.05987668798
0.05987668839
0.05987668879
0.05987668901
0.05987668738
0.05987668653
0.05987668503
0.05987668342
0.05987668267
0.05987668342
0.05987668503
0.05987668653
0.05987668738
0.05987668231
0.05987667929
0.05987667376
0.05987666759
0.05987666457
0.05987666759
0.05987667376
0.05987667929
0.05987668231
0.05987666733
0.05987665702
0.05987663747
0.05987661467
0.05987660289
0.05987661467
0.05987663747
0.05987665702
0.05987666733
0.05987662544
0.0598765922
0.05987652679
0.05987644647
0.05987640218
0.05987644647
0.05987652679
0.0598765922
0.05987662544
0.05987651608
0.05987641619
0.05987621209
0.05987594702
0.05987578922
0.05987594702
0.0598762121
0.05987641619
0.05987651608
0.05987625319
0.05987597872
0.05987539694
0.05987459715
0.05987407925
0.05987459716
0.05987539695
0.05987597873
0.05987625319
0.05987568094
0.05987500597
0.05987353186
0.05987140309
0.05986990786
0.05987140312
0.05987353188
0.05987500596
0.05987568092
)
;
    }
    inlet
    {
        type            calculated;
        value           nonuniform List<scalar> 
81
(
0.05987668974
0.05987668974
0.05987668974
0.05987668974
0.05987668974
0.05987668974
0.05987668974
0.05987668974
0.05987668974
0.05987668974
0.05987668974
0.05987668974
0.05987668973
0.05987668973
0.05987668973
0.05987668974
0.05987668974
0.05987668974
0.05987668974
0.05987668974
0.05987668973
0.05987668973
0.05987668973
0.05987668973
0.05987668973
0.05987668974
0.05987668974
0.05987668974
0.05987668973
0.05987668973
0.05987668973
0.05987668973
0.05987668973
0.05987668973
0.05987668973
0.05987668974
0.05987668974
0.05987668973
0.05987668973
0.05987668973
0.05987668973
0.05987668973
0.05987668973
0.05987668973
0.05987668974
0.05987668974
0.05987668973
0.05987668973
0.05987668973
0.05987668973
0.05987668973
0.05987668973
0.05987668973
0.05987668974
0.05987668974
0.05987668974
0.05987668973
0.05987668973
0.05987668973
0.05987668973
0.05987668973
0.05987668974
0.05987668974
0.05987668974
0.05987668974
0.05987668974
0.05987668973
0.05987668973
0.05987668973
0.05987668974
0.05987668974
0.05987668974
0.05987668974
0.05987668974
0.05987668974
0.05987668974
0.05987668974
0.05987668974
0.05987668974
0.05987668974
0.05987668974
)
;
    }
    outlet
    {
        type            calculated;
        value           nonuniform 0();
    }
    procBoundary0to1
    {
        type            processor;
        value           nonuniform List<scalar> 
97
(
0.05987265947
0.05987311754
0.05986996238
0.05986407159
0.05985556349
0.05984958538
0.05985556366
0.05986407182
0.05986996258
0.05987265963
0.05987311754
0.05987311754
0.05986398346
0.05986149007
0.05984913487
0.05982316126
0.05979907506
0.05982316181
0.05984913554
0.05986398393
0.05986996258
0.05986990323
0.05986149007
0.05986149007
0.05980598106
0.05977550912
0.05971157169
0.05959002719
0.05971157402
0.05980598322
0.05984913556
0.05986407183
0.05986514566
0.05984618371
0.05977550912
0.05977550912
0.05939258006
0.05887968662
0.05877668985
0.05939258878
0.0597115741
0.05982316186
0.05985556368
0.05986163391
0.05983047678
0.05968106659
0.05887968662
0.05887968662
0.05613947851
0.05887968867
0.05877669015
0.05953720763
0.05959002737
0.05979907522
0.05984958545
0.05986514578
0.05984618425
0.0597755125
0.05953720979
0.05887968867
0.05953720763
0.05953720763
0.05971157172
0.05983611241
0.05982316117
0.05985556349
0.0598699034
0.05986149074
0.05983611346
0.05977551268
0.05968106744
0.05977551291
0.05983611241
0.05983611241
0.05984913497
0.05986983718
0.05986407159
0.05987311771
0.05986983742
0.05986149075
0.05984618431
0.0598304771
0.05984618445
0.05986149065
0.05986983718
0.05986983718
0.0598699624
0.0598745699
0.05987456997
0.05987311771
0.05986990339
0.05986514581
0.05986163402
0.05986514587
0.05986990341
0.05987311767
0.0598745699
)
;
    }
}


// ************************************************************************* //
