/*--------------------------------*- C++ -*----------------------------------*\
| =========                 |                                                 |
| \\      /  F ield         | OpenFOAM: The Open Source CFD Toolbox           |
|  \\    /   O peration     | Version:  4.x                                   |
|   \\  /    A nd           | Web:      www.OpenFOAM.org                      |
|    \\/     M anipulation  |                                                 |
\*---------------------------------------------------------------------------*/
FoamFile
{
    version     2.0;
    format      ascii;
    class       volScalarField;
    location    "8000";
    object      CO;
}
// * * * * * * * * * * * * * * * * * * * * * * * * * * * * * * * * * * * * * //

dimensions      [0 0 0 0 0 0 0];

internalField   nonuniform List<scalar> 
1175
(
0.3999999994
0.3999999994
0.3999999994
0.3999999994
0.3999999993
0.3999999993
0.399999999
0.3999999981
0.3999999953
0.399999987
0.3999999632
0.3999999001
0.399999746
0.3999994053
0.3999987346
0.3999999994
0.3999999994
0.3999999994
0.3999999994
0.3999999993
0.3999999992
0.3999999989
0.3999999976
0.3999999936
0.399999981
0.3999999436
0.3999998402
0.399999579
0.3999989891
0.3999978275
0.3999999994
0.3999999994
0.3999999994
0.3999999994
0.3999999993
0.3999999992
0.3999999987
0.3999999968
0.3999999904
0.3999999695
0.3999999046
0.3999997165
0.3999992211
0.3999980693
0.3999957959
0.3999999994
0.3999999994
0.3999999994
0.3999999994
0.3999999993
0.3999999991
0.3999999984
0.3999999959
0.3999999868
0.399999956
0.399999856
0.3999995536
0.3999987218
0.3999967209
0.3999927431
0.3999999994
0.3999999994
0.3999999994
0.3999999994
0.3999999993
0.3999999991
0.3999999983
0.3999999954
0.399999985
0.3999999489
0.3999998289
0.3999994552
0.3999983932
0.3999957577
0.3999904515
0.3999999994
0.3999999994
0.3999999994
0.3999999994
0.3999999993
0.3999999991
0.3999999984
0.3999999959
0.3999999868
0.399999956
0.399999856
0.3999995537
0.3999987218
0.399996721
0.3999927432
0.3999999994
0.3999999994
0.3999999994
0.3999999994
0.3999999993
0.3999999992
0.3999999987
0.3999999968
0.3999999904
0.3999999695
0.3999999046
0.3999997165
0.3999992211
0.3999980693
0.399995796
0.3999999994
0.3999999994
0.3999999994
0.3999999994
0.3999999993
0.3999999992
0.3999999989
0.3999999976
0.3999999936
0.399999981
0.3999999436
0.3999998402
0.399999579
0.3999989891
0.3999978276
0.3999999994
0.3999999994
0.3999999994
0.3999999994
0.3999999993
0.3999999993
0.399999999
0.3999999981
0.3999999953
0.399999987
0.3999999632
0.3999999001
0.399999746
0.3999994054
0.3999987347
0.3999999994
0.3999999994
0.3999999994
0.3999999994
0.3999999993
0.3999999992
0.3999999989
0.3999999976
0.3999999936
0.399999981
0.3999999436
0.3999998402
0.399999579
0.399998989
0.3999999994
0.3999999994
0.3999999994
0.3999999994
0.3999999993
0.3999999992
0.3999999987
0.3999999969
0.3999999907
0.3999999701
0.3999999058
0.3999997178
0.3999992184
0.3999980501
0.3999957422
0.3999999994
0.3999999994
0.3999999994
0.3999999994
0.3999999993
0.3999999991
0.3999999983
0.3999999954
0.3999999849
0.3999999479
0.3999998246
0.3999994402
0.3999983536
0.3999956869
0.3999903638
0.3999999994
0.3999999994
0.3999999994
0.3999999994
0.3999999993
0.399999999
0.3999999979
0.3999999938
0.3999999779
0.3999999193
0.3999997119
0.3999990221
0.3999969345
0.3999914846
0.3999803356
0.3999999994
0.3999999994
0.3999999994
0.3999999994
0.3999999993
0.399999999
0.3999999978
0.3999999929
0.3999999742
0.3999999027
0.3999996395
0.3999987202
0.3999957655
0.3999875173
0.3999698637
0.3999999994
0.3999999994
0.3999999994
0.3999999994
0.3999999993
0.399999999
0.3999999979
0.3999999938
0.3999999779
0.3999999193
0.3999997119
0.3999990221
0.3999969346
0.3999914847
0.399980336
0.3999999994
0.3999999994
0.3999999994
0.3999999994
0.3999999993
0.3999999991
0.3999999983
0.3999999954
0.3999999849
0.3999999479
0.3999998246
0.3999994402
0.3999983537
0.3999956871
0.3999903643
0.3999999994
0.3999999994
0.3999999994
0.3999999994
0.3999999993
0.3999999992
0.3999999987
0.3999999969
0.3999999907
0.3999999701
0.3999999058
0.3999997178
0.3999992184
0.3999980503
0.3999957426
0.3999999994
0.3999999994
0.3999999994
0.3999999994
0.3999999993
0.3999999992
0.3999999989
0.3999999976
0.3999999936
0.399999981
0.3999999436
0.3999998402
0.399999579
0.3999989891
0.3999978276
0.3999999994
0.3999999994
0.3999999994
0.3999999994
0.3999999993
0.3999999992
0.3999999987
0.3999999968
0.3999999904
0.3999999695
0.3999999046
0.3999997165
0.399999221
0.399998069
0.3999999994
0.3999999994
0.3999999994
0.3999999994
0.3999999993
0.3999999991
0.3999999983
0.3999999954
0.3999999849
0.3999999479
0.3999998246
0.3999994401
0.3999983535
0.3999956865
0.3999999994
0.3999999994
0.3999999994
0.3999999994
0.3999999993
0.399999999
0.3999999977
0.3999999928
0.3999999735
0.3999999007
0.3999996374
0.3999987439
0.3999959901
0.3999887018
0.3999737295
0.3999999994
0.3999999994
0.3999999994
0.3999999993
0.3999999992
0.3999999988
0.399999997
0.3999999895
0.3999999586
0.3999998336
0.3999993445
0.3999975277
0.3999913333
0.3999731582
0.3999333193
0.3999999994
0.3999999994
0.3999999994
0.3999999993
0.3999999992
0.3999999987
0.3999999967
0.3999999877
0.3999999497
0.3999997893
0.3999991237
0.3999964519
0.3999863718
0.3999527886
0.3998692759
0.3999999994
0.3999999994
0.3999999994
0.3999999993
0.3999999992
0.3999999988
0.399999997
0.3999999895
0.3999999586
0.3999998336
0.3999993446
0.3999975277
0.3999913335
0.399973159
0.3999333215
0.3999999994
0.3999999994
0.3999999994
0.3999999994
0.3999999993
0.399999999
0.3999999977
0.3999999928
0.3999999735
0.3999999007
0.3999996374
0.3999987439
0.3999959903
0.3999887025
0.3999737317
0.3999999994
0.3999999994
0.3999999994
0.3999999994
0.3999999993
0.3999999991
0.3999999983
0.3999999954
0.3999999849
0.3999999479
0.3999998246
0.3999994402
0.3999983537
0.399995687
0.3999903643
0.3999999994
0.3999999994
0.3999999994
0.3999999994
0.3999999993
0.3999999992
0.3999999987
0.3999999968
0.3999999904
0.3999999695
0.3999999046
0.3999997165
0.3999992211
0.3999980693
0.399995796
0.3999999994
0.3999999994
0.3999999994
0.3999999994
0.3999999993
0.3999999991
0.3999999984
0.3999999959
0.3999999868
0.399999956
0.399999856
0.3999995536
0.3999987217
0.3999967206
0.3999999994
0.3999999994
0.3999999994
0.3999999994
0.3999999993
0.399999999
0.3999999979
0.3999999938
0.3999999779
0.3999999193
0.3999997119
0.3999990221
0.3999969343
0.3999914838
0.3999999994
0.3999999994
0.3999999994
0.3999999993
0.3999999992
0.3999999988
0.399999997
0.3999999895
0.3999999586
0.3999998336
0.3999993445
0.3999975276
0.3999913329
0.3999731563
0.3999999994
0.3999999994
0.3999999994
0.3999999993
0.3999999992
0.3999999986
0.3999999959
0.399999984
0.3999999313
0.3999996993
0.3999986933
0.3999944643
0.3999777703
0.3999198475
0.3997718884
0.3999999994
0.3999999994
0.3999999994
0.3999999993
0.3999999992
0.3999999985
0.3999999953
0.3999999808
0.3999999135
0.3999995981
0.3999981072
0.3999910508
0.399958224
0.3998152115
0.3993192844
0.3999999994
0.3999999994
0.3999999994
0.3999999993
0.3999999992
0.3999999986
0.3999999959
0.399999984
0.3999999313
0.3999996993
0.3999986933
0.3999944644
0.399977771
0.3999198509
0.3997719023
0.3999999994
0.3999999994
0.3999999994
0.3999999993
0.3999999992
0.3999999988
0.399999997
0.3999999895
0.3999999586
0.3999998336
0.3999993446
0.3999975277
0.3999913334
0.3999731588
0.3999333214
0.3999999994
0.3999999994
0.3999999994
0.3999999994
0.3999999993
0.399999999
0.3999999979
0.3999999938
0.3999999779
0.3999999193
0.3999997119
0.3999990221
0.3999969345
0.3999914846
0.3999803359
0.3999999994
0.3999999994
0.3999999994
0.3999999994
0.3999999993
0.3999999991
0.3999999984
0.3999999959
0.3999999868
0.399999956
0.399999856
0.3999995536
0.3999987218
0.3999967209
0.3999927431
0.3999999994
0.3999999994
0.3999999994
0.3999999994
0.3999999993
0.3999999991
0.3999999983
0.3999999954
0.399999985
0.3999999489
0.3999998289
0.3999994552
0.399998393
0.3999957572
0.3999999994
0.3999999994
0.3999999994
0.3999999994
0.3999999993
0.399999999
0.3999999978
0.3999999929
0.3999999742
0.3999999027
0.3999996395
0.3999987201
0.3999957651
0.3999875159
0.3999999994
0.3999999994
0.3999999994
0.3999999993
0.3999999992
0.3999999987
0.3999999967
0.3999999877
0.3999999497
0.3999997893
0.3999991236
0.3999964516
0.3999863707
0.3999527837
0.3999999994
0.3999999994
0.3999999994
0.3999999993
0.3999999992
0.3999999985
0.3999999953
0.3999999808
0.3999999135
0.3999995981
0.3999981071
0.3999910504
0.3999582217
0.3998151962
0.3999999994
0.3999999994
0.3999999994
0.3999999993
0.3999999992
0.3999999983
0.3999999946
0.3999999765
0.3999998878
0.3999994356
0.3999970223
0.3999833875
0.3999010319
0.3993657973
0.3956051288
0.3999999994
0.3999999994
0.3999999994
0.3999999993
0.3999999992
0.3999999985
0.3999999953
0.3999999808
0.3999999135
0.3999995981
0.3999981072
0.3999910506
0.3999582232
0.3998152087
0.3993192808
0.3999999994
0.3999999994
0.3999999994
0.3999999993
0.3999999992
0.3999999987
0.3999999967
0.3999999877
0.3999999497
0.3999997893
0.3999991237
0.3999964518
0.3999863714
0.3999527877
0.3998692749
0.3999999994
0.3999999994
0.3999999994
0.3999999994
0.3999999993
0.399999999
0.3999999978
0.3999999929
0.3999999742
0.3999999027
0.3999996395
0.3999987202
0.3999957654
0.3999875171
0.3999698635
0.3999999994
0.3999999994
0.3999999994
0.3999999994
0.3999999993
0.3999999991
0.3999999983
0.3999999954
0.399999985
0.3999999489
0.3999998289
0.3999994552
0.3999983932
0.3999957576
0.3999904515
0.3999999994
0.3999999994
0.3999999994
0.3999999994
0.3999999993
0.3999999991
0.3999999984
0.3999999959
0.3999999868
0.399999956
0.399999856
0.3999995536
0.3999987217
0.3999967205
0.3999999994
0.3999999994
0.3999999994
0.3999999994
0.3999999993
0.399999999
0.3999999979
0.3999999938
0.3999999779
0.3999999193
0.3999997119
0.399999022
0.3999969343
0.3999914837
0.3999999994
0.3999999994
0.3999999994
0.3999999993
0.3999999992
0.3999999988
0.399999997
0.3999999895
0.3999999586
0.3999998336
0.3999993445
0.3999975275
0.3999913327
0.3999731559
0.3999999994
0.3999999994
0.3999999994
0.3999999993
0.3999999992
0.3999999986
0.3999999959
0.399999984
0.3999999313
0.3999996993
0.3999986932
0.399994464
0.3999777691
0.3999198428
0.3999999994
0.3999999994
0.3999999994
0.3999999993
0.3999999992
0.3999999985
0.3999999953
0.3999999808
0.3999999135
0.399999598
0.3999981071
0.3999910502
0.3999582207
0.399815193
0.3999999994
0.3999999994
0.3999999994
0.3999999993
0.3999999992
0.3999999986
0.3999999959
0.399999984
0.3999999313
0.3999996993
0.3999986932
0.3999944641
0.3999777696
0.3999198442
0.3999999994
0.3999999994
0.3999999994
0.3999999993
0.3999999992
0.3999999988
0.399999997
0.3999999895
0.3999999586
0.3999998336
0.3999993445
0.3999975276
0.399991333
0.3999731573
0.3999333168
0.3999999994
0.3999999994
0.3999999994
0.3999999994
0.3999999993
0.399999999
0.3999999979
0.3999999938
0.3999999779
0.3999999193
0.3999997119
0.3999990221
0.3999969344
0.3999914843
0.3999803352
0.3999999994
0.3999999994
0.3999999994
0.3999999994
0.3999999993
0.3999999991
0.3999999984
0.3999999959
0.3999999868
0.399999956
0.399999856
0.3999995536
0.3999987218
0.3999967208
0.399992743
0.3999999994
0.3999999994
0.3999999994
0.3999999994
0.3999999993
0.3999999992
0.3999999987
0.3999999968
0.3999999904
0.3999999695
0.3999999046
0.3999997165
0.399999221
0.3999980691
0.3999999994
0.3999999994
0.3999999994
0.3999999994
0.3999999993
0.3999999991
0.3999999983
0.3999999954
0.3999999849
0.3999999479
0.3999998246
0.3999994401
0.3999983535
0.3999956865
0.3999999994
0.3999999994
0.3999999994
0.3999999994
0.3999999993
0.399999999
0.3999999977
0.3999999928
0.3999999735
0.3999999007
0.3999996374
0.3999987438
0.3999959899
0.3999887012
0.3999999994
0.3999999994
0.3999999994
0.3999999993
0.3999999992
0.3999999988
0.399999997
0.3999999895
0.3999999586
0.3999998336
0.3999993445
0.3999975275
0.3999913326
0.3999731559
0.3999999994
0.3999999994
0.3999999994
0.3999999993
0.3999999992
0.3999999987
0.3999999967
0.3999999877
0.3999999497
0.3999997893
0.3999991236
0.3999964515
0.3999863704
0.3999527832
0.3999999994
0.3999999994
0.3999999994
0.3999999993
0.3999999992
0.3999999988
0.399999997
0.3999999895
0.3999999586
0.3999998336
0.3999993445
0.3999975275
0.3999913327
0.3999731562
0.3999999994
0.3999999994
0.3999999994
0.3999999994
0.3999999993
0.399999999
0.3999999977
0.3999999928
0.3999999735
0.3999999007
0.3999996374
0.3999987438
0.39999599
0.3999887013
0.3999999994
0.3999999994
0.3999999994
0.3999999994
0.3999999993
0.3999999991
0.3999999983
0.3999999954
0.3999999849
0.3999999479
0.3999998246
0.3999994401
0.3999983536
0.3999956867
0.3999903634
0.3999999994
0.3999999994
0.3999999994
0.3999999994
0.3999999993
0.3999999992
0.3999999987
0.3999999968
0.3999999904
0.3999999695
0.3999999046
0.3999997165
0.399999221
0.3999980692
0.3999957958
0.3999999994
0.3999999994
0.3999999994
0.3999999994
0.3999999993
0.3999999992
0.3999999989
0.3999999976
0.3999999936
0.399999981
0.3999999436
0.3999998402
0.399999579
0.399998989
0.3999999994
0.3999999994
0.3999999994
0.3999999994
0.3999999993
0.3999999992
0.3999999987
0.3999999969
0.3999999907
0.3999999701
0.3999999058
0.3999997178
0.3999992183
0.39999805
0.3999999994
0.3999999994
0.3999999994
0.3999999994
0.3999999993
0.3999999991
0.3999999983
0.3999999954
0.3999999849
0.3999999479
0.3999998246
0.3999994401
0.3999983535
0.3999956865
0.3999999994
0.3999999994
0.3999999994
0.3999999994
0.3999999993
0.399999999
0.3999999979
0.3999999938
0.3999999779
0.3999999193
0.3999997119
0.399999022
0.3999969342
0.3999914837
0.3999999994
0.3999999994
0.3999999994
0.3999999994
0.3999999993
0.399999999
0.3999999978
0.3999999929
0.3999999742
0.3999999027
0.3999996394
0.3999987201
0.399995765
0.3999875159
0.3999999994
0.3999999994
0.3999999994
0.3999999994
0.3999999993
0.399999999
0.3999999979
0.3999999938
0.3999999779
0.3999999193
0.3999997119
0.399999022
0.3999969343
0.3999914838
0.3999999994
0.3999999994
0.3999999994
0.3999999994
0.3999999993
0.3999999991
0.3999999983
0.3999999954
0.3999999849
0.3999999479
0.3999998246
0.3999994401
0.3999983535
0.3999956866
0.3999999994
0.3999999994
0.3999999994
0.3999999994
0.3999999993
0.3999999992
0.3999999987
0.3999999969
0.3999999907
0.3999999701
0.3999999058
0.3999997178
0.3999992184
0.39999805
0.3999999994
0.3999999994
0.3999999994
0.3999999994
0.3999999993
0.3999999992
0.3999999989
0.3999999976
0.3999999936
0.399999981
0.3999999436
0.3999998402
0.399999579
0.399998989
0.3999978274
0.3999999994
0.3999999994
0.3999999994
0.3999999994
0.3999999993
0.3999999993
0.399999999
0.3999999981
0.3999999953
0.399999987
0.3999999632
0.3999999001
0.3999997459
0.3999994053
0.3999999994
0.3999999994
0.3999999994
0.3999999994
0.3999999993
0.3999999992
0.3999999989
0.3999999976
0.3999999936
0.399999981
0.3999999436
0.3999998402
0.399999579
0.399998989
0.3999999994
0.3999999994
0.3999999994
0.3999999994
0.3999999993
0.3999999992
0.3999999987
0.3999999968
0.3999999904
0.3999999695
0.3999999046
0.3999997165
0.399999221
0.399998069
0.3999999994
0.3999999994
0.3999999994
0.3999999994
0.3999999993
0.3999999991
0.3999999984
0.3999999959
0.3999999868
0.399999956
0.399999856
0.3999995536
0.3999987217
0.3999967205
0.3999999994
0.3999999994
0.3999999994
0.3999999994
0.3999999993
0.3999999991
0.3999999983
0.3999999954
0.399999985
0.3999999489
0.3999998289
0.3999994551
0.399998393
0.3999957571
0.3999999994
0.3999999994
0.3999999994
0.3999999994
0.3999999993
0.3999999991
0.3999999984
0.3999999959
0.3999999868
0.399999956
0.399999856
0.3999995536
0.3999987217
0.3999967206
0.3999999994
0.3999999994
0.3999999994
0.3999999994
0.3999999993
0.3999999992
0.3999999987
0.3999999968
0.3999999904
0.3999999695
0.3999999046
0.3999997165
0.399999221
0.3999980691
0.3999999994
0.3999999994
0.3999999994
0.3999999994
0.3999999993
0.3999999992
0.3999999989
0.3999999976
0.3999999936
0.399999981
0.3999999436
0.3999998402
0.399999579
0.399998989
0.3999999994
0.3999999994
0.3999999994
0.3999999994
0.3999999993
0.3999999993
0.399999999
0.3999999981
0.3999999953
0.399999987
0.3999999632
0.3999999001
0.3999997459
0.3999994053
)
;

boundaryField
{
    top
    {
        type            zeroGradient;
    }
    bottom
    {
        type            zeroGradient;
    }
    side-walls
    {
        type            zeroGradient;
    }
    inlet
    {
        type            zeroGradient;
    }
    outlet
    {
        type            zeroGradient;
    }
    procBoundary0to1
    {
        type            processor;
        value           nonuniform List<scalar> 
97
(
0.3999975667
0.3999978274
0.3999958621
0.3999920954
0.3999865738
0.3999826293
0.3999865739
0.3999920956
0.3999958623
0.3999975669
0.3999978274
0.3999978274
0.3999920172
0.3999903633
0.3999823393
0.3999651295
0.3999488834
0.39996513
0.3999823398
0.3999920175
0.3999958623
0.3999957957
0.3999903633
0.3999903633
0.3999537345
0.3999333158
0.3998900734
0.3998066458
0.3998900754
0.399953736
0.3999823398
0.3999920956
0.3999927429
0.3999803349
0.3999333158
0.3999333158
0.3996717014
0.3993192412
0.3992429122
0.399671708
0.3998900752
0.3999651299
0.3999865739
0.3999904512
0.3999698624
0.3998692689
0.3993192412
0.3993192412
0.3973963365
0.3993192394
0.3992429114
0.3997718899
0.3998066452
0.3999488833
0.3999826292
0.3999927429
0.3999803352
0.3999333183
0.3997718911
0.3993192394
0.3997718899
0.3997718899
0.3998900735
0.3999737297
0.3999651293
0.3999865736
0.3999957958
0.3999903639
0.3999737305
0.3999333182
0.3998692684
0.3999333185
0.3999737297
0.3999737297
0.3999823393
0.3999957422
0.3999920953
0.3999978276
0.3999957424
0.3999903639
0.3999803351
0.3999698623
0.3999803352
0.3999903638
0.3999957422
0.3999957422
0.3999958621
0.3999987346
0.3999987347
0.3999978275
0.3999957958
0.3999927429
0.3999904512
0.3999927429
0.3999957958
0.3999978275
0.3999987346
)
;
    }
}


// ************************************************************************* //
