/*--------------------------------*- C++ -*----------------------------------*\
| =========                 |                                                 |
| \\      /  F ield         | OpenFOAM: The Open Source CFD Toolbox           |
|  \\    /   O peration     | Version:  4.x                                   |
|   \\  /    A nd           | Web:      www.OpenFOAM.org                      |
|    \\/     M anipulation  |                                                 |
\*---------------------------------------------------------------------------*/
FoamFile
{
    version     2.0;
    format      ascii;
    class       volScalarField;
    location    "8000";
    object      CO2;
}
// * * * * * * * * * * * * * * * * * * * * * * * * * * * * * * * * * * * * * //

dimensions      [0 0 0 0 0 0 0];

internalField   nonuniform List<scalar> 
1175
(
1.25071637e-09
1.251144301e-09
1.2532147e-09
1.261226782e-09
1.290233542e-09
1.391580291e-09
1.735033977e-09
2.861070719e-09
6.412355838e-09
1.710225697e-08
4.751184985e-08
1.282659167e-07
3.255214137e-07
7.614644317e-07
1.619890067e-06
1.251025528e-09
1.251539513e-09
1.254049962e-09
1.263955484e-09
1.300718121e-09
1.43292165e-09
1.895666073e-09
3.46763981e-09
8.61894718e-09
2.476497545e-08
7.262977389e-08
2.048841063e-07
5.391229073e-07
1.293991618e-06
2.780409441e-06
1.251512957e-09
1.252166215e-09
1.255397886e-09
1.268449536e-09
1.318317359e-09
1.503722908e-09
2.177083386e-09
4.558420767e-09
1.270711719e-08
3.944537077e-08
1.225484156e-07
3.631224706e-07
9.970196638e-07
2.470663376e-06
5.379539737e-06
1.251950774e-09
1.25273543e-09
1.25665653e-09
1.272765781e-09
1.335650825e-09
1.575319635e-09
2.470416476e-09
5.736370655e-09
1.730752477e-08
5.67631185e-08
1.846304916e-07
5.714752182e-07
1.635664181e-06
4.195474713e-06
9.284869031e-06
1.252125446e-09
1.252964863e-09
1.25717544e-09
1.27458866e-09
1.343132532e-09
1.606982933e-09
2.60404158e-09
6.293088749e-09
1.958312713e-08
6.582063387e-08
2.193469706e-07
6.974011663e-07
2.055974087e-06
5.427629772e-06
1.221618589e-05
1.251948227e-09
1.252733092e-09
1.256653993e-09
1.272763905e-09
1.335650267e-09
1.575322809e-09
2.470429017e-09
5.736402128e-09
1.73075737e-08
5.676305744e-08
1.846296603e-07
5.714704207e-07
1.635644304e-06
4.195409889e-06
9.284706627e-06
1.251507853e-09
1.252161076e-09
1.255393159e-09
1.268445587e-09
1.318315427e-09
1.503726547e-09
2.177098884e-09
4.558455643e-09
1.270714171e-08
3.94451116e-08
1.225465183e-07
3.631135868e-07
9.969863992e-07
2.470561645e-06
5.37930136e-06
1.251017388e-09
1.251531811e-09
1.254043191e-09
1.263949931e-09
1.300715003e-09
1.432924091e-09
1.895677303e-09
3.467652901e-09
8.618881231e-09
2.476438852e-08
7.262679812e-08
2.04872081e-07
5.390814262e-07
1.293871425e-06
2.78014087e-06
1.250703541e-09
1.251134256e-09
1.253206934e-09
1.261221552e-09
1.290232219e-09
1.391586468e-09
1.735054214e-09
2.861105331e-09
6.41233955e-09
1.710178511e-08
4.75091507e-08
1.282545065e-07
3.254808969e-07
7.613410815e-07
1.619591452e-06
1.251025563e-09
1.251539706e-09
1.254050217e-09
1.263955804e-09
1.300719076e-09
1.432925762e-09
1.895682502e-09
3.467705133e-09
8.619203292e-09
2.47659486e-08
7.26334089e-08
2.048976085e-07
5.391737161e-07
1.294193819e-06
1.251374667e-09
1.252001697e-09
1.255103264e-09
1.267632524e-09
1.315551446e-09
1.494054613e-09
2.144357121e-09
4.454304386e-09
1.240454511e-08
3.867784035e-08
1.210103351e-07
3.614695476e-07
1.000451411e-06
2.495253391e-06
5.448449842e-06
1.251925785e-09
1.252737845e-09
1.256821127e-09
1.273783795e-09
1.340960848e-09
1.601487038e-09
2.594482414e-09
6.302678313e-09
1.978480346e-08
6.706569553e-08
2.248817232e-07
7.166451606e-07
2.106666134e-06
5.518366985e-06
1.232880251e-05
1.252423076e-09
1.253412274e-09
1.258449961e-09
1.27981759e-09
1.366674765e-09
1.713976272e-09
3.085001624e-09
8.414547832e-09
2.870014501e-08
1.036501642e-07
3.689925782e-07
1.251397289e-06
3.921894885e-06
1.089377963e-05
2.515690854e-05
1.252622386e-09
1.253686e-09
1.259130595e-09
1.282414198e-09
1.378060844e-09
1.765473106e-09
3.319102323e-09
9.476777641e-09
3.348921099e-08
1.249654824e-07
4.616442225e-07
1.637576081e-06
5.41716815e-06
1.596823574e-05
3.855165032e-05
1.252420799e-09
1.253409901e-09
1.258447564e-09
1.279815521e-09
1.366673795e-09
1.713976461e-09
3.085000599e-09
8.414519943e-09
2.869994278e-08
1.036490439e-07
3.689872448e-07
1.251374141e-06
3.921804165e-06
1.089347454e-05
2.515612894e-05
1.251920996e-09
1.252733143e-09
1.256816761e-09
1.273780458e-09
1.340959662e-09
1.601490895e-09
2.594494773e-09
6.302688614e-09
1.978467877e-08
6.706467054e-08
2.248760518e-07
7.166189579e-07
2.10656103e-06
5.518012673e-06
1.232790891e-05
1.251367045e-09
1.251994545e-09
1.255096846e-09
1.267627702e-09
1.315549502e-09
1.494058907e-09
2.144371734e-09
4.454315641e-09
1.240441085e-08
3.867676708e-08
1.210046858e-07
3.614447328e-07
1.000355754e-06
2.494931882e-06
5.447582087e-06
1.251014162e-09
1.251531068e-09
1.254043622e-09
1.263951854e-09
1.30071905e-09
1.432933022e-09
1.89570096e-09
3.467719361e-09
8.619068027e-09
2.47648934e-08
7.262808618e-08
2.048750358e-07
5.390874616e-07
1.293881287e-06
2.780150811e-06
1.251513189e-09
1.252166411e-09
1.25539826e-09
1.26845052e-09
1.31832097e-09
1.503736884e-09
2.177139503e-09
4.558642767e-09
1.270797571e-08
3.944860334e-08
1.225602426e-07
3.631644127e-07
9.971632072e-07
2.471130635e-06
1.251925956e-09
1.252737949e-09
1.256821359e-09
1.273784633e-09
1.340963815e-09
1.601499309e-09
2.594531753e-09
6.302878243e-09
1.97855977e-08
6.706880614e-08
2.248937176e-07
7.166911102e-07
2.106842669e-06
5.51907629e-06
1.252579954e-09
1.253655455e-09
1.259175181e-09
1.282875147e-09
1.380666664e-09
1.77840342e-09
3.378164485e-09
9.722863664e-09
3.438624321e-08
1.274975278e-07
4.642753521e-07
1.607345037e-06
5.130084358e-06
1.445388162e-05
3.360886568e-05
1.253173267e-09
1.254505162e-09
1.26144917e-09
1.292013575e-09
1.422115221e-09
1.971094314e-09
4.275842471e-09
1.388358004e-08
5.346303353e-08
2.133436369e-07
8.389070473e-07
3.163009858e-06
1.108667863e-05
3.433600525e-05
8.52993954e-05
1.253412382e-09
1.254853688e-09
1.262415826e-09
1.296037361e-09
1.441038873e-09
2.063005001e-09
4.728452691e-09
1.61345941e-08
6.474002714e-08
2.699771521e-07
1.121392773e-06
4.539033891e-06
1.74326997e-05
6.038954853e-05
0.0001672145138
1.253171176e-09
1.254502921e-09
1.261446967e-09
1.292011485e-09
1.422113514e-09
1.97109147e-09
4.275826652e-09
1.38834777e-08
5.3462453e-08
2.133405038e-07
8.38891119e-07
3.162932694e-06
1.108632878e-05
3.433459526e-05
8.529513989e-05
1.252575585e-09
1.253650976e-09
1.259171003e-09
1.282871849e-09
1.380664749e-09
1.778403447e-09
3.378157e-09
9.722776229e-09
3.438563855e-08
1.274941111e-07
4.642578445e-07
1.60726154e-06
5.129716452e-06
1.445244053e-05
3.36044363e-05
1.251918931e-09
1.252731489e-09
1.256815839e-09
1.27378029e-09
1.340961758e-09
1.60149995e-09
2.594526723e-09
6.302794121e-09
1.978502407e-08
6.70657499e-08
2.248792231e-07
7.166272184e-07
2.10657918e-06
5.518040031e-06
1.232791918e-05
1.251502626e-09
1.252158598e-09
1.255392655e-09
1.268447217e-09
1.318321821e-09
1.503744489e-09
2.177152429e-09
4.558616518e-09
1.270761994e-08
3.944647009e-08
1.225501225e-07
3.631222149e-07
9.970041571e-07
2.470588768e-06
5.379320202e-06
1.251951189e-09
1.252735893e-09
1.256657036e-09
1.272767398e-09
1.335656769e-09
1.575343815e-09
2.470514575e-09
5.736764897e-09
1.730907798e-08
5.676907004e-08
1.846526299e-07
5.715542469e-07
1.635930462e-06
4.196296583e-06
1.252423379e-09
1.253412547e-09
1.258450375e-09
1.279818741e-09
1.366679623e-09
1.713996827e-09
3.085090795e-09
8.414933242e-09
2.870179203e-08
1.036571237e-07
3.690216676e-07
1.251516377e-06
3.92236521e-06
1.089552378e-05
1.253173634e-09
1.25450558e-09
1.261449404e-09
1.292014325e-09
1.422118658e-09
1.971110047e-09
4.275915788e-09
1.388391887e-08
5.346462469e-08
2.133511742e-07
8.389429465e-07
3.163181718e-06
1.108750719e-05
3.434005184e-05
1.253857563e-09
1.255527092e-09
1.264391474e-09
1.304522834e-09
1.48152639e-09
2.260891169e-09
5.702264445e-09
2.093522494e-08
8.834742767e-08
3.850617187e-07
1.671993788e-06
7.081451453e-06
2.843540105e-05
0.0001025271278
0.0002917947545
1.254134289e-09
1.255949641e-09
1.265660031e-09
1.310141177e-09
1.509409787e-09
2.404547724e-09
6.461037976e-09
2.504229878e-08
1.111421039e-07
5.14594528e-07
2.421607021e-06
1.144742389e-05
5.343545677e-05
0.0002363575838
0.0008706806182
1.253855526e-09
1.255525108e-09
1.264389502e-09
1.304520935e-09
1.48152434e-09
2.260884581e-09
5.702227996e-09
2.093501214e-08
8.834622002e-08
3.850548811e-07
1.671954958e-06
7.081227923e-06
2.84341398e-05
0.0001025204818
0.0002917664828
1.253169357e-09
1.254501209e-09
1.261445635e-09
1.292011554e-09
1.422117758e-09
1.971111881e-09
4.27591088e-09
1.388380914e-08
5.346374842e-08
2.133455125e-07
8.38909626e-07
3.162995571e-06
1.108651008e-05
3.433497281e-05
8.529539525e-05
1.252416856e-09
1.253406624e-09
1.258445148e-09
1.279815292e-09
1.366679739e-09
1.714003928e-09
3.085103798e-09
8.414892318e-09
2.870125371e-08
1.036535227e-07
3.690017415e-07
1.251416841e-06
3.921911598e-06
1.089367524e-05
2.515630015e-05
1.251941324e-09
1.252728778e-09
1.256652037e-09
1.27276533e-09
1.335659294e-09
1.575354636e-09
2.470533986e-09
5.736743803e-09
1.730865524e-08
5.676635276e-08
1.846390392e-07
5.714948313e-07
1.635698848e-06
4.195502316e-06
9.284788787e-06
1.252125982e-09
1.252965579e-09
1.257176334e-09
1.274591087e-09
1.343141353e-09
1.607018214e-09
2.604185114e-09
6.293663228e-09
1.958538236e-08
6.582927334e-08
2.193789739e-07
6.975145938e-07
2.056351533e-06
5.4287659e-06
1.252622649e-09
1.253686598e-09
1.259131495e-09
1.28241623e-09
1.378069424e-09
1.765509946e-09
3.319261887e-09
9.477460876e-09
3.349214612e-08
1.2497797e-07
4.616966646e-07
1.637791368e-06
5.418011719e-06
1.597125083e-05
1.253412823e-09
1.254854107e-09
1.262416567e-09
1.296039608e-09
1.441048751e-09
2.063049607e-09
4.728656607e-09
1.613553771e-08
6.474445444e-08
2.699981513e-07
1.121493599e-06
4.539520793e-06
1.743502578e-05
6.04001182e-05
1.254134619e-09
1.255949984e-09
1.265660496e-09
1.310143023e-09
1.50941728e-09
2.404583323e-09
6.461208803e-09
2.504313754e-08
1.111463848e-07
5.146173463e-07
2.421734755e-06
1.144818142e-05
5.344025078e-05
0.0002363899456
1.254426942e-09
1.256404918e-09
1.267069123e-09
1.316544124e-09
1.542010334e-09
2.577951482e-09
7.416677721e-09
3.052174756e-08
1.440323595e-07
7.224227125e-07
3.809235756e-06
2.124921673e-05
0.000126586143
0.0008111668939
0.005621112867
1.254132373e-09
1.255948006e-09
1.26565876e-09
1.31014188e-09
1.509417446e-09
2.4045861e-09
6.461212243e-09
2.50430879e-08
1.111457485e-07
5.146118038e-07
2.421688354e-06
1.144780449e-05
5.343714352e-05
0.0002363637736
0.0008706875219
1.253408735e-09
1.254850086e-09
1.262412974e-09
1.29603709e-09
1.441048059e-09
2.063052311e-09
4.728652104e-09
1.613541577e-08
6.474342183e-08
2.699911595e-07
1.121449251e-06
4.53925129e-06
1.743344241e-05
6.03914914e-05
0.000167216268
1.252616723e-09
1.253681e-09
1.259126687e-09
1.282413216e-09
1.378069851e-09
1.765516511e-09
3.319269495e-09
9.477395243e-09
3.349145917e-08
1.249735044e-07
4.616717856e-07
1.63766419e-06
5.417412589e-06
1.596874335e-05
3.855207267e-05
1.252116783e-09
1.25295894e-09
1.257172012e-09
1.274589332e-09
1.343144027e-09
1.607028559e-09
2.604199797e-09
6.293618321e-09
1.958485525e-08
6.582607929e-08
2.193632213e-07
6.974455747e-07
2.056079293e-06
5.427821068e-06
1.221636797e-05
1.251948759e-09
1.252733583e-09
1.256655206e-09
1.272766676e-09
1.335660421e-09
1.575362988e-09
2.470588348e-09
5.737025246e-09
1.730995179e-08
5.677186328e-08
1.846609084e-07
5.715756835e-07
1.635974142e-06
4.196340556e-06
1.252421319e-09
1.253410552e-09
1.25844876e-09
1.279818524e-09
1.366684831e-09
1.714022266e-09
3.085193636e-09
8.415324665e-09
2.870324639e-08
1.036623727e-07
3.690394704e-07
1.251570384e-06
3.922495402e-06
1.089565481e-05
1.253171864e-09
1.254503751e-09
1.261448108e-09
1.292015017e-09
1.422127283e-09
1.97115127e-09
4.276091647e-09
1.388465597e-08
5.346768222e-08
2.133636744e-07
8.389925958e-07
3.163365998e-06
1.108808822e-05
3.434103954e-05
1.253855981e-09
1.255525597e-09
1.264390384e-09
1.304524172e-09
1.481537929e-09
2.260946374e-09
5.702515061e-09
2.093636476e-08
8.835267333e-08
3.850863815e-07
1.672110256e-06
7.08199756e-06
2.843789535e-05
0.0001025376671
1.254132619e-09
1.255948266e-09
1.265659314e-09
1.310144005e-09
1.509427125e-09
2.404631335e-09
6.461424639e-09
2.504411034e-08
1.111508497e-07
5.14638115e-07
2.421830799e-06
1.144861591e-05
5.344208119e-05
0.0002363960022
1.253854125e-09
1.255523592e-09
1.264388532e-09
1.30452246e-09
1.481536157e-09
2.260941783e-09
5.702487505e-09
2.093619042e-08
8.835165751e-08
3.85080574e-07
1.672077875e-06
7.081823412e-06
2.843703481e-05
0.0001025345108
1.253167857e-09
1.254499828e-09
1.261444796e-09
1.292012316e-09
1.422125852e-09
1.971150196e-09
4.276075077e-09
1.388450496e-08
5.346669429e-08
2.133580197e-07
8.389623694e-07
3.163213072e-06
1.108737046e-05
3.433804485e-05
8.530509072e-05
1.252415593e-09
1.253405209e-09
1.2584442e-09
1.279815669e-09
1.366684891e-09
1.714027401e-09
3.085199051e-09
8.415266889e-09
2.870269769e-08
1.036590017e-07
3.690220196e-07
1.25148886e-06
3.922150542e-06
1.089437267e-05
2.515787303e-05
1.251939989e-09
1.252727495e-09
1.256651124e-09
1.272765188e-09
1.335662772e-09
1.575370311e-09
2.470595033e-09
5.736966519e-09
1.730944762e-08
5.676910235e-08
1.846481482e-07
5.715233328e-07
1.635780171e-06
4.195702423e-06
9.285167868e-06
1.251508392e-09
1.252161802e-09
1.255394181e-09
1.268448151e-09
1.318324417e-09
1.503760539e-09
2.177230731e-09
4.558956594e-09
1.270898931e-08
3.945168707e-08
1.22568831e-07
3.631850431e-07
9.9719855e-07
2.471132712e-06
1.251921708e-09
1.252733845e-09
1.256817829e-09
1.273783168e-09
1.340969869e-09
1.601531899e-09
2.594660852e-09
6.303351112e-09
1.978726671e-08
6.707449313e-08
2.249119689e-07
7.167434442e-07
2.106961305e-06
5.519164691e-06
1.252576305e-09
1.253651742e-09
1.259172243e-09
1.28287529e-09
1.380678231e-09
1.778459235e-09
3.378393329e-09
9.723769436e-09
3.438976273e-08
1.275109185e-07
4.643245881e-07
1.607515486e-06
5.130617061e-06
1.445528876e-05
1.253169991e-09
1.254502017e-09
1.261446898e-09
1.292014877e-09
1.422131556e-09
1.971172104e-09
4.276175059e-09
1.38849804e-08
5.346893329e-08
2.133683393e-07
8.39009098e-07
3.163418063e-06
1.10882156e-05
3.434117278e-05
1.253409228e-09
1.254850725e-09
1.262413969e-09
1.296039862e-09
1.441059141e-09
2.063099743e-09
4.728866313e-09
1.613639707e-08
6.474796016e-08
2.700123077e-07
1.121548864e-06
4.539720574e-06
1.743562644e-05
6.040108848e-05
1.253168105e-09
1.254500231e-09
1.261445127e-09
1.292013374e-09
1.422130119e-09
1.971168496e-09
4.276157276e-09
1.388487496e-08
5.346836215e-08
2.133654453e-07
8.38995411e-07
3.163357482e-06
1.108798177e-05
3.434047253e-05
1.252572656e-09
1.253648377e-09
1.25916916e-09
1.282872655e-09
1.380676191e-09
1.778456673e-09
3.378376226e-09
9.723655433e-09
3.438912763e-08
1.275077929e-07
4.643105497e-07
1.607458969e-06
5.130430095e-06
1.445495972e-05
1.251916289e-09
1.252729029e-09
1.256813581e-09
1.273780369e-09
1.34096908e-09
1.601534246e-09
2.594661975e-09
6.303305177e-09
1.97869107e-08
6.707255762e-08
2.249030777e-07
7.167073867e-07
2.106832692e-06
5.518765222e-06
1.232973205e-05
1.251500116e-09
1.252156296e-09
1.25539063e-09
1.268446931e-09
1.318326414e-09
1.503766948e-09
2.177238377e-09
4.558924926e-09
1.270868905e-08
3.94500696e-08
1.225617293e-07
3.631575979e-07
9.97103345e-07
2.47083389e-06
5.379795558e-06
1.251017851e-09
1.251532363e-09
1.254044031e-09
1.263952193e-09
1.300722738e-09
1.432951936e-09
1.895780893e-09
3.468031544e-09
8.620220707e-09
2.476893514e-08
7.264148133e-08
2.049167186e-07
5.39207598e-07
1.294197516e-06
1.251367768e-09
1.251995371e-09
1.25509797e-09
1.267630277e-09
1.315558419e-09
1.494092377e-09
2.144500078e-09
4.454801533e-09
1.240620414e-08
3.868315137e-08
1.21026418e-07
3.615145846e-07
1.000563911e-06
2.495492211e-06
1.251919895e-09
1.252732266e-09
1.256816842e-09
1.273783487e-09
1.340972879e-09
1.601543389e-09
2.594700638e-09
6.303484824e-09
1.978770165e-08
6.707582943e-08
2.249157636e-07
7.167530166e-07
2.106980916e-06
5.519190368e-06
1.252417702e-09
1.253407281e-09
1.258446346e-09
1.279818495e-09
1.366690917e-09
1.714049475e-09
3.0852939e-09
8.415680187e-09
2.870447281e-08
1.036664153e-07
3.690519316e-07
1.251604542e-06
3.9225673e-06
1.089572739e-05
1.252617235e-09
1.253681511e-09
1.259127725e-09
1.282415676e-09
1.378078775e-09
1.765553957e-09
3.319430481e-09
9.478081104e-09
3.349436485e-08
1.24985683e-07
4.61721979e-07
1.637865442e-06
5.418180814e-06
1.597141215e-05
1.252416036e-09
1.253405805e-09
1.258444815e-09
1.279816905e-09
1.366689626e-09
1.714047467e-09
3.085286094e-09
8.415634248e-09
2.870423614e-08
1.036653307e-07
3.69047293e-07
1.251586397e-06
3.92250519e-06
1.089555332e-05
1.251916392e-09
1.252729124e-09
1.256813894e-09
1.273780752e-09
1.340970428e-09
1.601539714e-09
2.594685355e-09
6.303405533e-09
1.97873296e-08
6.70742517e-08
2.249097029e-07
7.167324676e-07
2.106924709e-06
5.519094947e-06
1.251362791e-09
1.251990856e-09
1.255094244e-09
1.267627438e-09
1.31555648e-09
1.49409053e-09
2.144489935e-09
4.454740729e-09
1.240590468e-08
3.868188754e-08
1.210217689e-07
3.614998187e-07
1.000527982e-06
2.495470558e-06
1.251010467e-09
1.251527787e-09
1.254041299e-09
1.263951532e-09
1.300724315e-09
1.432956349e-09
1.89578518e-09
3.468009663e-09
8.620040225e-09
2.47680601e-08
7.263804108e-08
2.04905016e-07
5.391726389e-07
1.294102371e-06
2.780649005e-06
1.250704057e-09
1.251134997e-09
1.25320799e-09
1.261223609e-09
1.290238678e-09
1.391609536e-09
1.735137311e-09
2.861401072e-09
6.413353181e-09
1.710511226e-08
4.751951348e-08
1.28284908e-07
3.255640582e-07
7.615514492e-07
1.251014966e-09
1.251531896e-09
1.254044841e-09
1.263954213e-09
1.300726852e-09
1.432961569e-09
1.895806872e-09
3.468104237e-09
8.620423408e-09
2.476947592e-08
7.264282789e-08
2.049197409e-07
5.39213355e-07
1.2942055e-06
1.251503538e-09
1.25215953e-09
1.255393888e-09
1.268450133e-09
1.318331173e-09
1.503779755e-09
2.177288141e-09
4.559129147e-09
1.270949547e-08
3.945308715e-08
1.225724216e-07
3.631930999e-07
9.972130393e-07
2.47114798e-06
1.251942058e-09
1.252729646e-09
1.256653344e-09
1.272768061e-09
1.335668854e-09
1.575391737e-09
2.470681462e-09
5.737319314e-09
1.731084839e-08
5.677444663e-08
1.846677382e-07
5.715913043e-07
1.63600029e-06
4.196352018e-06
1.252117206e-09
1.252959585e-09
1.257172874e-09
1.274591634e-09
1.343151948e-09
1.607059756e-09
2.604326829e-09
6.294128329e-09
1.958685195e-08
6.583370028e-08
2.193913295e-07
6.975444317e-07
2.05640551e-06
5.42879514e-06
1.251940458e-09
1.25272795e-09
1.25665169e-09
1.2727666e-09
1.335667422e-09
1.575389731e-09
2.470674363e-09
5.737285791e-09
1.731070265e-08
5.67738528e-08
1.846655103e-07
5.715837339e-07
1.635977057e-06
4.196291561e-06
1.251500391e-09
1.252156472e-09
1.255390988e-09
1.268447611e-09
1.318329042e-09
1.503777144e-09
2.177278892e-09
4.559084247e-09
1.270929734e-08
3.945232133e-08
1.225697347e-07
3.63184891e-07
9.97192088e-07
2.471107692e-06
1.251010448e-09
1.251527684e-09
1.254041406e-09
1.26395189e-09
1.300725486e-09
1.432960591e-09
1.895801342e-09
3.468070601e-09
8.620262937e-09
2.476884734e-08
7.264074741e-08
2.04914083e-07
5.392025293e-07
1.294203458e-06
1.250697853e-09
1.251131466e-09
1.25320641e-09
1.261223969e-09
1.290241276e-09
1.391614845e-09
1.735144122e-09
2.861395496e-09
6.41326944e-09
1.710470975e-08
4.751810897e-08
1.28281204e-07
3.255586353e-07
7.615675827e-07
)
;

boundaryField
{
    top
    {
        type            zeroGradient;
    }
    bottom
    {
        type            zeroGradient;
    }
    side-walls
    {
        type            zeroGradient;
    }
    inlet
    {
        type            zeroGradient;
    }
    outlet
    {
        type            zeroGradient;
    }
    procBoundary0to1
    {
        type            processor;
        value           nonuniform List<scalar> 
97
(
3.114408576e-06
2.780653609e-06
5.295370946e-06
1.011432702e-05
1.717815344e-05
2.222407408e-05
1.717795007e-05
1.011403729e-05
5.295073592e-06
3.114185097e-06
2.780653609e-06
2.780653609e-06
1.0214373e-05
1.232983843e-05
2.259548299e-05
4.461084399e-05
6.539236573e-05
4.460995473e-05
2.259459549e-05
1.02138177e-05
5.295097018e-06
5.379853109e-06
1.232983843e-05
1.232983843e-05
5.918844342e-05
8.530696706e-05
0.0001406236471
0.0002473384966
0.0001406200661
5.918575629e-05
2.259459815e-05
1.011407008e-05
9.285380026e-06
2.515848296e-05
8.530696706e-05
8.530696706e-05
0.0004199582995
0.0008707830255
0.0009684262883
0.000419946453
0.0001406203732
4.461017266e-05
1.717807525e-05
1.221697257e-05
3.855451662e-05
0.000167230117
0.0008707830255
0.0008707830255
0.003330380947
0.0008707841311
0.0009684276296
0.0002917943925
0.0002473397197
6.539276032e-05
2.222431638e-05
9.285329542e-06
2.51579301e-05
8.530194838e-05
0.0002917913025
0.0008707841311
0.0002917943925
0.0002917943925
0.0001406235479
3.360875e-05
4.46113552e-05
1.717848739e-05
5.379631627e-06
1.232873767e-05
3.360696513e-05
8.530209779e-05
0.000167230775
8.53016912e-05
3.360875e-05
3.360875e-05
2.259549851e-05
5.44841578e-06
1.011452495e-05
2.780301226e-06
5.447922048e-06
1.232877409e-05
2.515802342e-05
3.855462477e-05
2.51578139e-05
1.23289255e-05
5.44841578e-06
5.44841578e-06
5.295355956e-06
1.619878884e-06
1.619676048e-06
2.780319264e-06
5.379658333e-06
9.285336656e-06
1.221698282e-05
9.285248074e-06
5.379648787e-06
2.780420355e-06
1.619878884e-06
)
;
    }
}


// ************************************************************************* //
