/*--------------------------------*- C++ -*----------------------------------*\
| =========                 |                                                 |
| \\      /  F ield         | OpenFOAM: The Open Source CFD Toolbox           |
|  \\    /   O peration     | Version:  4.x                                   |
|   \\  /    A nd           | Web:      www.OpenFOAM.org                      |
|    \\/     M anipulation  |                                                 |
\*---------------------------------------------------------------------------*/
FoamFile
{
    version     2.0;
    format      ascii;
    class       volScalarField;
    location    "8000";
    object      Cpv;
}
// * * * * * * * * * * * * * * * * * * * * * * * * * * * * * * * * * * * * * //

dimensions      [0 2 -2 -1 0 0 0];

internalField   nonuniform List<scalar> 
1175
(
1210.459871
1210.459857
1210.459885
1210.459885
1210.459887
1210.459884
1210.459894
1210.459896
1210.459921
1210.459928
1210.459926
1210.459928
1210.459938
1210.459979
1210.460024
1210.460692
1210.460697
1210.460705
1210.460692
1210.460709
1210.460724
1210.460729
1210.460727
1210.460748
1210.460757
1210.460756
1210.460765
1210.460801
1210.460842
1210.460931
1210.459721
1210.459731
1210.45972
1210.459738
1210.45974
1210.459743
1210.459728
1210.459734
1210.459761
1210.459747
1210.459744
1210.459762
1210.459812
1210.459884
1210.460063
1210.459279
1210.459293
1210.45926
1210.45926
1210.459238
1210.459259
1210.459261
1210.45927
1210.459264
1210.459279
1210.459316
1210.45931
1210.459364
1210.459522
1210.459839
1210.45927
1210.459279
1210.459278
1210.459289
1210.459257
1210.459281
1210.459286
1210.459299
1210.459304
1210.459303
1210.459312
1210.459328
1210.45944
1210.459663
1210.460106
1210.459873
1210.459865
1210.459861
1210.459867
1210.459878
1210.459891
1210.459887
1210.459873
1210.459892
1210.45991
1210.4599
1210.459942
1210.460002
1210.46018
1210.460476
1210.460004
1210.46002
1210.460006
1210.460009
1210.460008
1210.460004
1210.459988
1210.459989
1210.459972
1210.459972
1210.459972
1210.459989
1210.460039
1210.460123
1210.460313
1210.459588
1210.459616
1210.459634
1210.459663
1210.459662
1210.45966
1210.459671
1210.4597
1210.45969
1210.4597
1210.459688
1210.459685
1210.459707
1210.459744
1210.459848
1210.459865
1210.459863
1210.459878
1210.459866
1210.459871
1210.459866
1210.459876
1210.459898
1210.459904
1210.459888
1210.459875
1210.459883
1210.459892
1210.459926
1210.459981
1210.460154
1210.460158
1210.460154
1210.460158
1210.460169
1210.460169
1210.460189
1210.460184
1210.460188
1210.460181
1210.460206
1210.460223
1210.460251
1210.460305
1210.458846
1210.458836
1210.458839
1210.458839
1210.458862
1210.458857
1210.458864
1210.458905
1210.458909
1210.458884
1210.458871
1210.458878
1210.458938
1210.459007
1210.459215
1210.458962
1210.458927
1210.458928
1210.458929
1210.458925
1210.458943
1210.458936
1210.458946
1210.458937
1210.458955
1210.458958
1210.458957
1210.459066
1210.459291
1210.459731
1210.460512
1210.460501
1210.460471
1210.460474
1210.460476
1210.460494
1210.460498
1210.460489
1210.460511
1210.460496
1210.460502
1210.460568
1210.460707
1210.461142
1210.462058
1210.460822
1210.460843
1210.460849
1210.460841
1210.460845
1210.460832
1210.460849
1210.460827
1210.46081
1210.460832
1210.460866
1210.460936
1210.461182
1210.461892
1210.463326
1210.459939
1210.459936
1210.459947
1210.459924
1210.459893
1210.459896
1210.459902
1210.459909
1210.459923
1210.459942
1210.459939
1210.460005
1210.460169
1210.46059
1210.461521
1210.459721
1210.459715
1210.459693
1210.459685
1210.459684
1210.459682
1210.459699
1210.459714
1210.459739
1210.459751
1210.459772
1210.459817
1210.459887
1210.460131
1210.460571
1210.460441
1210.460438
1210.460418
1210.460421
1210.460411
1210.460436
1210.460423
1210.460433
1210.460461
1210.460463
1210.460481
1210.460504
1210.460547
1210.460647
1210.460835
1210.459894
1210.459909
1210.459893
1210.45989
1210.459909
1210.459907
1210.459944
1210.459932
1210.459911
1210.459919
1210.459934
1210.459943
1210.45998
1210.460024
1210.460099
1210.459925
1210.459934
1210.45993
1210.459928
1210.459936
1210.459937
1210.459954
1210.459962
1210.459977
1210.460002
1210.460004
1210.460025
1210.46009
1210.460162
1210.460587
1210.460578
1210.460582
1210.460587
1210.460593
1210.460566
1210.460594
1210.460614
1210.460615
1210.460635
1210.460638
1210.460669
1210.46075
1210.460962
1210.460297
1210.460289
1210.460279
1210.460277
1210.460262
1210.46026
1210.460265
1210.460286
1210.46029
1210.460272
1210.460309
1210.460396
1210.460647
1210.461223
1210.462425
1210.460223
1210.460215
1210.460202
1210.460197
1210.460158
1210.46014
1210.460155
1210.460161
1210.460169
1210.460188
1210.460239
1210.460403
1210.460886
1210.462366
1210.465608
1210.459965
1210.459956
1210.459978
1210.459976
1210.45997
1210.459997
1210.460004
1210.460012
1210.460015
1210.460038
1210.460088
1210.460252
1210.461056
1210.463747
1210.470509
1210.459635
1210.459631
1210.459649
1210.459637
1210.459635
1210.459625
1210.459587
1210.459603
1210.459601
1210.459627
1210.459672
1210.459812
1210.460291
1210.461777
1210.464993
1210.459561
1210.459603
1210.459632
1210.459614
1210.459618
1210.459622
1210.459632
1210.459631
1210.459645
1210.459644
1210.459639
1210.45975
1210.459969
1210.460547
1210.461768
1210.45899
1210.458979
1210.458937
1210.458943
1210.458938
1210.458939
1210.458952
1210.458953
1210.458952
1210.458957
1210.458954
1210.458966
1210.459061
1210.459294
1210.459733
1210.459465
1210.459449
1210.459465
1210.459456
1210.459444
1210.459459
1210.459465
1210.459492
1210.459479
1210.459489
1210.459492
1210.459514
1210.459547
1210.459623
1210.459804
1210.45936
1210.459358
1210.459359
1210.459355
1210.459373
1210.459373
1210.45938
1210.459391
1210.459374
1210.459379
1210.459404
1210.459428
1210.459475
1210.459645
1210.459383
1210.459384
1210.459394
1210.459404
1210.459387
1210.459405
1210.459386
1210.459371
1210.459374
1210.459384
1210.459414
1210.459464
1210.459629
1210.460098
1210.459526
1210.459497
1210.459487
1210.459471
1210.459465
1210.459481
1210.459466
1210.459484
1210.459488
1210.459479
1210.459533
1210.459688
1210.460169
1210.461644
1210.460648
1210.460667
1210.460679
1210.460662
1210.460661
1210.460657
1210.460661
1210.460659
1210.460669
1210.460693
1210.460789
1210.46112
1210.46245
1210.467121
1210.47912
1210.458638
1210.458624
1210.45864
1210.458666
1210.458642
1210.458652
1210.458672
1210.458675
1210.458688
1210.458734
1210.458865
1210.459448
1210.462112
1210.473717
1210.513592
1210.459331
1210.459338
1210.459348
1210.459335
1210.459314
1210.45932
1210.45934
1210.459332
1210.459313
1210.459337
1210.459399
1210.459755
1210.461104
1210.465822
1210.477812
1210.459446
1210.459413
1210.459424
1210.459431
1210.459447
1210.459472
1210.459464
1210.459485
1210.459539
1210.459541
1210.459608
1210.459742
1210.460266
1210.461707
1210.464955
1210.46048
1210.460443
1210.460466
1210.460486
1210.460486
1210.460476
1210.460453
1210.460457
1210.460451
1210.460448
1210.460449
1210.460515
1210.460697
1210.461153
1210.462057
1210.459411
1210.459424
1210.459423
1210.459415
1210.459402
1210.459391
1210.459397
1210.459405
1210.459409
1210.459401
1210.459427
1210.45947
1210.459543
1210.459695
1210.460014
1210.459686
1210.459686
1210.459692
1210.459686
1210.459674
1210.459686
1210.459702
1210.459698
1210.459704
1210.459707
1210.459705
1210.459728
1210.459823
1210.46001
1210.459949
1210.459946
1210.459945
1210.459938
1210.459939
1210.459915
1210.459917
1210.459952
1210.459938
1210.459944
1210.459967
1210.460029
1210.460239
1210.460888
1210.460253
1210.460251
1210.460251
1210.46027
1210.460277
1210.460267
1210.46028
1210.460274
1210.460282
1210.460323
1210.460389
1210.460589
1210.461418
1210.464109
1210.458985
1210.458995
1210.45901
1210.459029
1210.459046
1210.459044
1210.459052
1210.459027
1210.459031
1210.459052
1210.459167
1210.459734
1210.462388
1210.473969
1210.460383
1210.460379
1210.460362
1210.460346
1210.460352
1210.460365
1210.460356
1210.460368
1210.460386
1210.460439
1210.460612
1210.46174
1210.468397
1210.511716
1210.242981
1210.459339
1210.459335
1210.459313
1210.459323
1210.459351
1210.459386
1210.45939
1210.459375
1210.459417
1210.459453
1210.459563
1210.460118
1210.462766
1210.474341
1210.514193
1210.460088
1210.460084
1210.460098
1210.460071
1210.460078
1210.460043
1210.460028
1210.460019
1210.460014
1210.460039
1210.460113
1210.460305
1210.461145
1210.463886
1210.470633
1210.460359
1210.460356
1210.46037
1210.460361
1210.460342
1210.460343
1210.460364
1210.460381
1210.460376
1210.460387
1210.460403
1210.460444
1210.46067
1210.46134
1210.462757
1210.45949
1210.45949
1210.459489
1210.459505
1210.459528
1210.459522
1210.45951
1210.459518
1210.459511
1210.459525
1210.459517
1210.459554
1210.459652
1210.45987
1210.460307
1210.460706
1210.460707
1210.46071
1210.460714
1210.460717
1210.460729
1210.460708
1210.460697
1210.460697
1210.460681
1210.460697
1210.460696
1210.460773
1210.460919
1210.45985
1210.459832
1210.45983
1210.459832
1210.459826
1210.459841
1210.459816
1210.45983
1210.459795
1210.459783
1210.459792
1210.459827
1210.459973
1210.460392
1210.460022
1210.460029
1210.460041
1210.460058
1210.460039
1210.460061
1210.460053
1210.460037
1210.460054
1210.460066
1210.460125
1210.460268
1210.460766
1210.462222
1210.459773
1210.459758
1210.459751
1210.459752
1210.459743
1210.459756
1210.459737
1210.459738
1210.459724
1210.459764
1210.459817
1210.460164
1210.461546
1210.466241
1210.460782
1210.460788
1210.460787
1210.460774
1210.460796
1210.460757
1210.460781
1210.460779
1210.460779
1210.460815
1210.460931
1210.461508
1210.464134
1210.475673
1210.458882
1210.458897
1210.458927
1210.458891
1210.458877
1210.458897
1210.458906
1210.458894
1210.458914
1210.45892
1210.459014
1210.459345
1210.460722
1210.465412
1210.459781
1210.459784
1210.459751
1210.459733
1210.459741
1210.459731
1210.459714
1210.459726
1210.459717
1210.459703
1210.459744
1210.459905
1210.460407
1210.461876
1210.465118
1210.460768
1210.460772
1210.46077
1210.460757
1210.460762
1210.460738
1210.460735
1210.460715
1210.460733
1210.46074
1210.460749
1210.460785
1210.460967
1210.461397
1210.46228
1210.459851
1210.459849
1210.45984
1210.459847
1210.459832
1210.459843
1210.459839
1210.459826
1210.459806
1210.459789
1210.459801
1210.459814
1210.459884
1210.46005
1210.460375
1210.459491
1210.459493
1210.45947
1210.459484
1210.459494
1210.459486
1210.459492
1210.459498
1210.45952
1210.459538
1210.459535
1210.459555
1210.459607
1210.459692
1210.458864
1210.458867
1210.458891
1210.45887
1210.458862
1210.458858
1210.45888
1210.458867
1210.458883
1210.458895
1210.458909
1210.458975
1210.459071
1210.45926
1210.460154
1210.460174
1210.46019
1210.460182
1210.460158
1210.460197
1210.46019
1210.460192
1210.460198
1210.460209
1210.460221
1210.460299
1210.460507
1210.461109
1210.459835
1210.459852
1210.459845
1210.459877
1210.459867
1210.45986
1210.459869
1210.459876
1210.459915
1210.459934
1210.459967
1210.4601
1210.460617
1210.462102
1210.460325
1210.460321
1210.460298
1210.460298
1210.46028
1210.460269
1210.460262
1210.460298
1210.460309
1210.460352
1210.460392
1210.460585
1210.461376
1210.464085
1210.459493
1210.459496
1210.459525
1210.459532
1210.459553
1210.459548
1210.459559
1210.45955
1210.459546
1210.459566
1210.459599
1210.459717
1210.460231
1210.46167
1210.459692
1210.459703
1210.459733
1210.45974
1210.459717
1210.459697
1210.459702
1210.459712
1210.459716
1210.459716
1210.459732
1210.459797
1210.460036
1210.460624
1210.459776
1210.459748
1210.459746
1210.459731
1210.459742
1210.459746
1210.459734
1210.459766
1210.459774
1210.459797
1210.459794
1210.459806
1210.459908
1210.460106
1210.460533
1210.459393
1210.459398
1210.459398
1210.459393
1210.459394
1210.459389
1210.459365
1210.459367
1210.459374
1210.459387
1210.45941
1210.459418
1210.459455
1210.459577
1210.459745
1210.459841
1210.459841
1210.459871
1210.459861
1210.459838
1210.459832
1210.459811
1210.459803
1210.459788
1210.459784
1210.459779
1210.45979
1210.459833
1210.459894
1210.459846
1210.459851
1210.45983
1210.459822
1210.459814
1210.459803
1210.459799
1210.459822
1210.459823
1210.459826
1210.459808
1210.459833
1210.459853
1210.459964
1210.459289
1210.459311
1210.459319
1210.459315
1210.459343
1210.459349
1210.459349
1210.459371
1210.459386
1210.459375
1210.459415
1210.459435
1210.459522
1210.459742
1210.460189
1210.460193
1210.46018
1210.460186
1210.460184
1210.46019
1210.460195
1210.460203
1210.460154
1210.46018
1210.460188
1210.460253
1210.460437
1210.460884
1210.460019
1210.460038
1210.460019
1210.460006
1210.460019
1210.460014
1210.460011
1210.460022
1210.460025
1210.460034
1210.460064
1210.460122
1210.460371
1210.46103
1210.46022
1210.460232
1210.460221
1210.460231
1210.460249
1210.460242
1210.460221
1210.460225
1210.460224
1210.460235
1210.460259
1210.460318
1210.4605
1210.460972
1210.45852
1210.458497
1210.458493
1210.458475
1210.458492
1210.458494
1210.458508
1210.458512
1210.45851
1210.458497
1210.458507
1210.458553
1210.458621
1210.458846
1210.458617
1210.458617
1210.45862
1210.458629
1210.458601
1210.458594
1210.458596
1210.458601
1210.458599
1210.458607
1210.458613
1210.458622
1210.458648
1210.458765
1210.459385
1210.459384
1210.4594
1210.459401
1210.459407
1210.459418
1210.45942
1210.459404
1210.459408
1210.459399
1210.459391
1210.459394
1210.459416
1210.459461
1210.459549
1210.459106
1210.459093
1210.459101
1210.459105
1210.459111
1210.459107
1210.459129
1210.459125
1210.459121
1210.459121
1210.459126
1210.459114
1210.459128
1210.459162
1210.460308
1210.460303
1210.460311
1210.460316
1210.460293
1210.460297
1210.460298
1210.460275
1210.460275
1210.460282
1210.460303
1210.460345
1210.460362
1210.460409
1210.459831
1210.459825
1210.45983
1210.459847
1210.459835
1210.459845
1210.459842
1210.459841
1210.459828
1210.459831
1210.459867
1210.459877
1210.459913
1210.459994
1210.45941
1210.459427
1210.45941
1210.459417
1210.459407
1210.459411
1210.459419
1210.459422
1210.459428
1210.459447
1210.459458
1210.459469
1210.459524
1210.459672
1210.459221
1210.459226
1210.459216
1210.459202
1210.459223
1210.459232
1210.459224
1210.459214
1210.459212
1210.459233
1210.459235
1210.459281
1210.459373
1210.459571
1210.459118
1210.459139
1210.459139
1210.459139
1210.459135
1210.459141
1210.459127
1210.459148
1210.459123
1210.459126
1210.459151
1210.459171
1210.45924
1210.459392
1210.459679
1210.459686
1210.459679
1210.459686
1210.459678
1210.459688
1210.459682
1210.459665
1210.459669
1210.459654
1210.459647
1210.459651
1210.459712
1210.45979
1210.460225
1210.460236
1210.460219
1210.4602
1210.4602
1210.4602
1210.460216
1210.460207
1210.460241
1210.460242
1210.460257
1210.46025
1210.460274
1210.460313
1210.459349
1210.459361
1210.45936
1210.459348
1210.459361
1210.459368
1210.459371
1210.459382
1210.459395
1210.459398
1210.459412
1210.459403
1210.459409
1210.459437
)
;

boundaryField
{
    top
    {
        type            calculated;
        value           nonuniform List<scalar> 
134
(
1210.459865
1210.459894
1210.459465
1210.459411
1210.45949
1210.459851
1210.459393
1210.459385
1210.459349
1210.459863
1210.459909
1210.459449
1210.459424
1210.45949
1210.459849
1210.459398
1210.459384
1210.459361
1210.459878
1210.459893
1210.459465
1210.459423
1210.459489
1210.45984
1210.459398
1210.4594
1210.45936
1210.459866
1210.45989
1210.459456
1210.459415
1210.459505
1210.459847
1210.459393
1210.459401
1210.459348
1210.459871
1210.459909
1210.459444
1210.459402
1210.459528
1210.459832
1210.459394
1210.459407
1210.459361
1210.459866
1210.459907
1210.459459
1210.459391
1210.459522
1210.459843
1210.459389
1210.459418
1210.459368
1210.459876
1210.459944
1210.459465
1210.459397
1210.45951
1210.459839
1210.459365
1210.45942
1210.459371
1210.459898
1210.459932
1210.459492
1210.459405
1210.459518
1210.459826
1210.459367
1210.459404
1210.459382
1210.459904
1210.459911
1210.459479
1210.459409
1210.459511
1210.459806
1210.459374
1210.459408
1210.459395
1210.459888
1210.459919
1210.459489
1210.459401
1210.459525
1210.459789
1210.459387
1210.459399
1210.459398
1210.459875
1210.459934
1210.459492
1210.459427
1210.459517
1210.459801
1210.45941
1210.459391
1210.459412
1210.459883
1210.459943
1210.459514
1210.45947
1210.459554
1210.459814
1210.459418
1210.459394
1210.459403
1210.459892
1210.45998
1210.459547
1210.459543
1210.459652
1210.459884
1210.459455
1210.459416
1210.459409
1210.459926
1210.460024
1210.459623
1210.459695
1210.45987
1210.46005
1210.459577
1210.459461
1210.459437
1210.459981
1210.460099
1210.459804
1210.460014
1210.460307
1210.460375
1210.459745
1210.459549
)
;
    }
    bottom
    {
        type            calculated;
        value           nonuniform List<scalar> 
127
(
1210.459871
1210.460154
1210.459925
1210.45936
1210.459686
1210.460706
1210.459491
1210.459841
1210.459106
1210.459857
1210.460158
1210.459934
1210.459358
1210.459686
1210.460707
1210.459493
1210.459841
1210.459093
1210.459885
1210.460154
1210.45993
1210.459359
1210.459692
1210.46071
1210.45947
1210.459871
1210.459101
1210.459885
1210.460158
1210.459928
1210.459355
1210.459686
1210.460714
1210.459484
1210.459861
1210.459105
1210.459887
1210.460169
1210.459936
1210.459373
1210.459674
1210.460717
1210.459494
1210.459838
1210.459111
1210.459884
1210.460169
1210.459937
1210.459373
1210.459686
1210.460729
1210.459486
1210.459832
1210.459107
1210.459894
1210.460189
1210.459954
1210.45938
1210.459702
1210.460708
1210.459492
1210.459811
1210.459129
1210.459896
1210.460184
1210.459962
1210.459391
1210.459698
1210.460697
1210.459498
1210.459803
1210.459125
1210.459921
1210.460188
1210.459977
1210.459374
1210.459704
1210.460697
1210.45952
1210.459788
1210.459121
1210.459928
1210.460181
1210.460002
1210.459379
1210.459707
1210.460681
1210.459538
1210.459784
1210.459121
1210.459926
1210.460206
1210.460004
1210.459404
1210.459705
1210.460697
1210.459535
1210.459779
1210.459126
1210.459928
1210.460223
1210.460025
1210.459428
1210.459728
1210.460696
1210.459555
1210.45979
1210.459114
1210.459938
1210.460251
1210.46009
1210.459475
1210.459823
1210.460773
1210.459607
1210.459833
1210.459128
1210.459979
1210.460305
1210.460162
1210.459645
1210.46001
1210.460919
1210.459692
1210.459894
1210.459162
1210.460024
)
;
    }
    side-walls
    {
        type            calculated;
        value           nonuniform List<scalar> 
261
(
1210.459871
1210.460692
1210.459721
1210.459279
1210.45927
1210.459873
1210.460004
1210.459588
1210.459865
1210.459857
1210.460697
1210.459731
1210.459293
1210.459279
1210.459865
1210.46002
1210.459616
1210.459863
1210.459885
1210.460705
1210.45972
1210.45926
1210.459278
1210.459861
1210.460006
1210.459634
1210.459878
1210.459885
1210.460692
1210.459738
1210.45926
1210.459289
1210.459867
1210.460009
1210.459663
1210.459866
1210.459887
1210.460709
1210.45974
1210.459238
1210.459257
1210.459878
1210.460008
1210.459662
1210.459871
1210.459884
1210.460724
1210.459743
1210.459259
1210.459281
1210.459891
1210.460004
1210.45966
1210.459866
1210.459894
1210.460729
1210.459728
1210.459261
1210.459286
1210.459887
1210.459988
1210.459671
1210.459876
1210.459896
1210.460727
1210.459734
1210.45927
1210.459299
1210.459873
1210.459989
1210.4597
1210.459898
1210.459921
1210.460748
1210.459761
1210.459264
1210.459304
1210.459892
1210.459972
1210.45969
1210.459904
1210.459928
1210.460757
1210.459747
1210.459279
1210.459303
1210.45991
1210.459972
1210.4597
1210.459888
1210.459926
1210.460756
1210.459744
1210.459316
1210.459312
1210.4599
1210.459972
1210.459688
1210.459875
1210.459928
1210.460765
1210.459762
1210.45931
1210.459328
1210.459942
1210.459989
1210.459685
1210.459883
1210.459938
1210.460801
1210.459812
1210.459364
1210.45944
1210.460002
1210.460039
1210.459707
1210.459892
1210.459979
1210.460842
1210.459884
1210.459522
1210.459663
1210.46018
1210.460123
1210.459744
1210.459926
1210.460024
1210.460931
1210.460063
1210.459839
1210.460106
1210.460476
1210.460313
1210.459848
1210.459981
1210.459106
1210.460308
1210.459831
1210.45941
1210.459221
1210.459118
1210.459679
1210.460225
1210.459349
1210.459093
1210.460303
1210.459825
1210.459427
1210.459226
1210.459139
1210.459686
1210.460236
1210.459361
1210.459101
1210.460311
1210.45983
1210.45941
1210.459216
1210.459139
1210.459679
1210.460219
1210.45936
1210.459105
1210.460316
1210.459847
1210.459417
1210.459202
1210.459139
1210.459686
1210.4602
1210.459348
1210.459111
1210.460293
1210.459835
1210.459407
1210.459223
1210.459135
1210.459678
1210.4602
1210.459361
1210.459107
1210.460297
1210.459845
1210.459411
1210.459232
1210.459141
1210.459688
1210.4602
1210.459368
1210.459129
1210.460298
1210.459842
1210.459419
1210.459224
1210.459127
1210.459682
1210.460216
1210.459371
1210.459125
1210.460275
1210.459841
1210.459422
1210.459214
1210.459148
1210.459665
1210.460207
1210.459382
1210.459121
1210.460275
1210.459828
1210.459428
1210.459212
1210.459123
1210.459669
1210.460241
1210.459395
1210.459121
1210.460282
1210.459831
1210.459447
1210.459233
1210.459126
1210.459654
1210.460242
1210.459398
1210.459126
1210.460303
1210.459867
1210.459458
1210.459235
1210.459151
1210.459647
1210.460257
1210.459412
1210.459114
1210.460345
1210.459877
1210.459469
1210.459281
1210.459171
1210.459651
1210.46025
1210.459403
1210.459128
1210.460362
1210.459913
1210.459524
1210.459373
1210.45924
1210.459712
1210.460274
1210.459409
1210.459162
1210.460409
1210.459994
1210.459672
1210.459571
1210.459392
1210.45979
1210.460313
1210.459437
)
;
    }
    inlet
    {
        type            calculated;
        value           nonuniform List<scalar> 
81
(
1210.459871
1210.460692
1210.459721
1210.459279
1210.45927
1210.459873
1210.460004
1210.459588
1210.459865
1210.460154
1210.458846
1210.458962
1210.460512
1210.460822
1210.459939
1210.459721
1210.460441
1210.459894
1210.459925
1210.460587
1210.460297
1210.460223
1210.459965
1210.459635
1210.459561
1210.45899
1210.459465
1210.45936
1210.459383
1210.459526
1210.460648
1210.458638
1210.459331
1210.459446
1210.46048
1210.459411
1210.459686
1210.459949
1210.460253
1210.458985
1210.460383
1210.459339
1210.460088
1210.460359
1210.45949
1210.460706
1210.45985
1210.460022
1210.459773
1210.460782
1210.458882
1210.459781
1210.460768
1210.459851
1210.459491
1210.458864
1210.460154
1210.459835
1210.460325
1210.459493
1210.459692
1210.459776
1210.459393
1210.459841
1210.459846
1210.459289
1210.460189
1210.460019
1210.46022
1210.45852
1210.458617
1210.459385
1210.459106
1210.460308
1210.459831
1210.45941
1210.459221
1210.459118
1210.459679
1210.460225
1210.459349
)
;
    }
    outlet
    {
        type            calculated;
        value           nonuniform 0();
    }
    procBoundary0to1
    {
        type            processor;
        value           nonuniform List<scalar> 
97
(
1210.460145
1210.460386
1210.461085
1210.460365
1210.460332
1210.460729
1210.46098
1210.460606
1210.460012
1210.460087
1210.460386
1210.460386
1210.459543
1210.461415
1210.460402
1210.463294
1210.465017
1210.462748
1210.461199
1210.461101
1210.460261
1210.460326
1210.461415
1210.461415
1210.464051
1210.464876
1210.469071
1210.475579
1210.468494
1210.463389
1210.460389
1210.460101
1210.459968
1210.460984
1210.464876
1210.464876
1210.487202
1210.513857
1210.519761
1210.485914
1210.468447
1210.463295
1210.460495
1210.460435
1210.462309
1210.470891
1210.513857
1210.513857
1210.098574
1210.515567
1210.520364
1210.477386
1210.475711
1210.464444
1210.460933
1210.461253
1210.461279
1210.465455
1210.478208
1210.515567
1210.477386
1210.477386
1210.468619
1210.461832
1210.463516
1210.460896
1210.459874
1210.459692
1210.462292
1210.465318
1210.470838
1210.464915
1210.461832
1210.461832
1210.461163
1210.458932
1210.460048
1210.460006
1210.460162
1210.46018
1210.461805
1210.462456
1210.461873
1210.459277
1210.458932
1210.458932
1210.459713
1210.459492
1210.459221
1210.460493
1210.460203
1210.460019
1210.460001
1210.4597
1210.459956
1210.460433
1210.459492
)
;
    }
}


// ************************************************************************* //
