/*--------------------------------*- C++ -*----------------------------------*\
| =========                 |                                                 |
| \\      /  F ield         | OpenFOAM: The Open Source CFD Toolbox           |
|  \\    /   O peration     | Version:  4.x                                   |
|   \\  /    A nd           | Web:      www.OpenFOAM.org                      |
|    \\/     M anipulation  |                                                 |
\*---------------------------------------------------------------------------*/
FoamFile
{
    version     2.0;
    format      ascii;
    class       volScalarField;
    location    "8000";
    object      molarConc;
}
// * * * * * * * * * * * * * * * * * * * * * * * * * * * * * * * * * * * * * //

dimensions      [0 -3 0 0 1 0 0];

internalField   nonuniform List<scalar> 
1175
(
9.963271983
9.963272714
9.963271209
9.963271214
9.963271106
9.963271258
9.963270693
9.963270609
9.963269255
9.96326891
9.963269088
9.963269295
9.963269386
9.963268652
9.963269185
9.963226889
9.963226607
9.963226136
9.963226873
9.963225945
9.963225111
9.963224841
9.963224934
9.963223819
9.963223404
9.963223597
9.963223549
9.963222765
9.963223118
9.9632234
9.963280215
9.963279658
9.963280265
9.963279254
9.963279179
9.963279019
9.963279819
9.963279522
9.963278047
9.963278903
9.963279346
9.963279212
9.963278641
9.963279807
9.963280102
9.963304458
9.963303732
9.963305501
9.963305506
9.963306731
9.963305603
9.963305477
9.963304998
9.963305341
9.963304675
9.963303076
9.963304745
9.963305464
9.963305669
9.963305929
9.963304945
9.963304497
9.963304505
9.963303933
9.963305679
9.963304367
9.963304123
9.963303417
9.963303179
9.963303403
9.963303412
9.963304197
9.963302795
9.963302224
9.963301464
9.963271835
9.963272297
9.963272496
9.963272199
9.963271588
9.963270838
9.963271103
9.963271867
9.963270862
9.963270034
9.963271004
9.963270063
9.963270436
9.963269564
9.963270979
9.963264649
9.963263754
9.963264529
9.963264367
9.963264436
9.963264656
9.963265553
9.963265502
9.963266457
9.963266528
9.963266832
9.963266714
9.963266163
9.963266712
9.963266339
9.963287497
9.963285962
9.963284972
9.963283393
9.963283433
9.96328353
9.963282948
9.963281369
9.963281916
9.963281421
9.963282247
9.963282881
9.963282854
9.963283434
9.963282859
9.963272272
9.9632724
9.963271582
9.963272244
9.963271967
9.963272215
9.963271669
9.96327048
9.963270148
9.963271102
9.963271913
9.963271763
9.963271925
9.963271601
9.963271524
9.96325639
9.963256201
9.963256423
9.963256211
9.963255613
9.963255606
9.96325452
9.96325478
9.963254565
9.963255002
9.963253801
9.963253348
9.963252938
9.96325261
9.963328264
9.963328783
9.96332865
9.963328624
9.963327373
9.963327643
9.963327281
9.963325006
9.963324845
9.963326313
9.963327323
9.963327766
9.963326651
9.963328062
9.963326882
9.963321887
9.963323808
9.963323736
9.963323689
9.963323904
9.963322914
9.963323338
9.963322801
9.96332333
9.963322525
9.963322905
9.963324658
9.963323493
9.963322945
9.963322431
9.963236775
9.963237358
9.963238985
9.963238815
9.963238731
9.963237769
9.963237525
9.963238047
9.963236909
9.963237995
9.963238585
9.963238031
9.963239664
9.96323998
9.963239176
9.963219722
9.96321858
9.96321824
9.963218659
9.963218477
9.963219205
9.963218272
9.963219484
9.963220495
9.963219582
9.963218914
9.963219171
9.963218765
9.963216411
9.963216019
9.963268202
9.963268391
9.963267812
9.963269064
9.963270739
9.96327057
9.963270262
9.963269873
9.963269205
9.963268405
9.963269506
9.963268917
9.963269179
9.963270277
9.963268653
9.963280195
9.963280518
9.963281759
9.963282198
9.963282224
9.963282371
9.963281395
9.963280599
9.963279301
9.963278803
9.963278173
9.963277392
9.963278367
9.963276843
9.96327629
9.963240627
9.963240832
9.963241892
9.96324177
9.963242305
9.963240934
9.963241668
9.963241124
9.963239598
9.963239587
9.963238893
9.963238419
9.96323829
9.963238006
9.963237939
9.963270707
9.963269875
9.963270727
9.963270925
9.963269894
9.963269967
9.963267938
9.963268601
9.963269771
9.963269392
9.963268754
9.963268698
9.963267839
9.96326807
9.963269074
9.963269022
9.963268475
9.963268707
9.963268813
9.963268394
9.963268347
9.963267407
9.963266973
9.963266166
9.963264904
9.963265062
9.963264732
9.963263412
9.963264533
9.96323263
9.963233112
9.963232896
9.963232623
9.963232286
9.963233813
9.963232262
9.963231171
9.963231158
9.963230237
9.963230623
9.963230593
9.96323099
9.963231176
9.963248569
9.963249015
9.963249569
9.963249671
9.963250475
9.963250575
9.963250343
9.963249174
9.963249057
9.963250352
9.963249506
9.963248727
9.963247152
9.963247882
9.963248335
9.963252643
9.963253083
9.96325379
9.963254065
9.96325618
9.963257174
9.963256391
9.963256099
9.963255795
9.963255263
9.963254634
9.96325374
9.963254716
9.963254147
9.963253004
9.963266804
9.963267293
9.963266075
9.963266168
9.963266502
9.96326507
9.963264681
9.963264272
9.963264265
9.963263746
9.963263919
9.963266762
9.96326738
9.963268748
9.963268198
9.963284901
9.963285127
9.963284139
9.963284787
9.963284921
9.963285493
9.963287551
9.963286711
9.963286993
9.963286103
9.963285803
9.96328619
9.963287367
9.963286472
9.963286725
9.963289011
9.963286666
9.963285102
9.963286078
9.963285837
9.963285645
9.963285112
9.963285177
9.963284484
9.96328489
9.963286292
9.963284175
9.963284409
9.96328502
9.963284454
9.963320359
9.963320941
9.963323248
9.963322924
9.963323201
9.963323157
9.963322465
9.963322378
9.963322507
9.963322373
9.963323118
9.963324166
9.963323773
9.963322823
9.963322363
9.963294244
9.963295135
9.963294261
9.96329473
9.963295428
9.963294595
9.96329428
9.963292769
9.963293521
9.963293093
9.963293186
9.963292833
9.963293217
9.963294144
9.963294309
9.963300015
9.963300163
9.963300072
9.963300303
9.963299339
9.96329932
9.963298951
9.963298353
9.963299321
9.963299157
9.963298249
9.963298278
9.963299411
9.963298919
9.963298765
9.963298686
9.963298172
9.963297592
9.963298539
9.963297565
9.963298589
9.963299443
9.963299334
9.963299089
9.963298327
9.963298644
9.963298869
9.963297322
9.963290913
9.96329251
9.963293073
9.963293937
9.963294263
9.963293405
9.963294226
9.963293287
9.963293172
9.963294252
9.963293415
9.96329299
9.963294068
9.963293769
9.963229293
9.963228244
9.963227576
9.963228505
9.963228581
9.963228801
9.963228568
9.963228724
9.963228407
9.963228122
9.963227313
9.963227936
9.963229051
9.96322967
9.963227726
9.963339707
9.96334044
9.963339567
9.963338156
9.963339447
9.963338927
9.96333782
9.963337754
9.963337344
9.963336175
9.963335618
9.963334916
9.963334357
9.963332023
9.963344036
9.963301605
9.963301238
9.963300704
9.963301408
9.963302535
9.963302238
9.963301133
9.963301657
9.963302928
9.963302601
9.963303682
9.9633029
9.963302929
9.963301026
9.963299444
9.963295283
9.96329709
9.963296536
9.96329611
9.963295233
9.963293903
9.963294314
9.963293183
9.963290359
9.963290826
9.963289304
9.96329002
9.963288773
9.963290301
9.963288855
9.963238532
9.963240526
9.96323926
9.963238157
9.963238173
9.963238754
9.963239998
9.963239805
9.963240176
9.9632406
9.963241474
9.963240943
9.963240211
9.963239347
9.963239229
9.963297248
9.963296514
9.963296581
9.963296985
9.963297732
9.963298346
9.963297991
9.963297585
9.963297408
9.963297983
9.963296959
9.963295953
9.963295628
9.963296214
9.963296326
9.963282128
9.963282117
9.963281816
9.963282107
9.96328278
9.963282124
9.96328123
9.963281461
9.963281219
9.963281217
9.963281856
9.963282206
9.963281756
9.963283147
9.963267675
9.963267864
9.963267919
9.963268298
9.963268246
9.963269546
9.96326943
9.963267529
9.963268403
9.963268374
9.963268308
9.963268975
9.963270529
9.963271566
9.963250982
9.96325109
9.963251077
9.963250068
9.963249644
9.963250206
9.96324952
9.963249883
9.963249611
9.963248083
9.9632474
9.963248258
9.963247525
9.963248884
9.963320637
9.963320049
9.963319261
9.963318186
9.963317282
9.963317414
9.963316951
9.9633184
9.963318491
9.963318701
9.963319056
9.963319222
9.963319246
9.963318304
9.963243822
9.963244033
9.96324497
9.963245872
9.963245544
9.963244814
9.963245368
9.963244751
9.963244179
9.963243272
9.963244478
9.963243052
9.963243104
9.963240448
9.994697005
9.963301169
9.963301414
9.963302588
9.963302077
9.963300528
9.963298626
9.963298399
9.963299264
9.963297274
9.963296699
9.963297282
9.963298156
9.963298491
9.963297784
9.963311021
9.963260067
9.963260258
9.963259517
9.963260975
9.963260598
9.963262529
9.963263372
9.963263873
9.96326431
9.963263694
9.963262554
9.963263894
9.963262528
9.963261098
9.963261393
9.963245154
9.963245305
9.963244527
9.963245053
9.963246083
9.963246058
9.963244905
9.963243969
9.963244335
9.963244033
9.963244331
9.963246149
9.963246864
9.963246737
9.963247292
9.963292894
9.96329287
9.963292938
9.963292091
9.963290822
9.963291152
9.963291802
9.96329136
9.963291799
9.963291215
9.963292189
9.963291797
9.963291145
9.963290842
9.963290396
9.963226074
9.963226034
9.963225882
9.963225666
9.963225467
9.963224829
9.963225995
9.963226611
9.963226661
9.963227641
9.963227237
9.963228644
9.963228068
9.963228939
9.963273132
9.963274125
9.963274207
9.963274083
9.963274413
9.963273605
9.963274987
9.96327423
9.963276213
9.96327715
9.963277587
9.963278727
9.963279957
9.963281184
9.963263646
9.963263257
9.963262631
9.963261663
9.963262711
9.96326154
9.963261983
9.963262892
9.963262088
9.963262007
9.963260937
9.963261131
9.963261297
9.963262059
9.963277351
9.96327816
9.963278539
9.963278521
9.963279009
9.963278279
9.963279317
9.96327932
9.963280318
9.963279159
9.963280715
9.963280461
9.963278713
9.963278076
9.963221902
9.963221598
9.963221634
9.963222352
9.963221134
9.963223306
9.963222021
9.963222156
9.963222488
9.963221878
9.963222157
9.963221813
9.963223372
9.963224739
9.963326301
9.963325453
9.963323828
9.963325778
9.963326549
9.963325442
9.963324964
9.963325684
9.963324848
9.96332552
9.963324849
9.963325428
9.963323923
9.963323588
9.963276923
9.963276722
9.963278575
9.963279544
9.963279093
9.963279675
9.963280571
9.963279991
9.963280614
9.963281945
9.963281825
9.963281061
9.963281002
9.963281029
9.963279936
9.963222683
9.963222489
9.963222583
9.963223316
9.963223029
9.963224354
9.963224528
9.963225622
9.963224708
9.963224573
9.963225023
9.963226106
9.963225374
9.963225957
9.963226964
9.963273058
9.963273145
9.963273681
9.963273282
9.96327409
9.963273487
9.963273709
9.963274446
9.963275607
9.96327665
9.963276436
9.963277057
9.96327693
9.963276685
9.963276525
9.963292849
9.963292726
9.963293962
9.963293194
9.963292652
9.963293126
9.963292803
9.963292477
9.96329128
9.963290406
9.963290816
9.963290555
9.963289943
9.963290341
9.96332729
9.963327096
9.963325778
9.963326949
9.963327403
9.96332762
9.963326411
9.9633271
9.963326274
9.963325824
9.963325601
9.963323677
9.963323232
9.963324663
9.963256409
9.963255292
9.96325446
9.963254855
9.96325619
9.963254046
9.963254434
9.96325437
9.963254106
9.963253833
9.963254351
9.963254045
9.963254836
9.963254132
9.963273949
9.963273001
9.963273406
9.963271635
9.963272183
9.963272583
9.963272109
9.963271705
9.96326972
9.963269215
9.963269609
9.963270339
9.963269483
9.963268625
9.963247016
9.963247269
9.963248482
9.9632485
9.963249476
9.963250078
9.963250496
9.963248559
9.963248102
9.963246487
9.963247228
9.963248514
9.963249805
9.963250188
9.963292705
9.963292536
9.963290974
9.963290576
9.963289431
9.963289696
9.963289115
9.963289621
9.963290015
9.963289433
9.963289793
9.963291393
9.963290702
9.96329238
9.963281775
9.963281173
9.963279564
9.963279179
9.963280446
9.963281522
9.963281238
9.963280706
9.963280614
9.963280931
9.963281213
9.963281597
9.963280702
9.963280809
9.963277204
9.963278709
9.963278842
9.963279658
9.963279052
9.96327881
9.963279465
9.963277732
9.96327734
9.963276246
9.963276979
9.963277999
9.963277213
9.96327822
9.963278395
9.963298231
9.963297953
9.96329795
9.963298219
9.963298183
9.963298414
9.963299762
9.963299629
9.963299301
9.963298704
9.963297725
9.963298117
9.963298272
9.963296673
9.963297551
9.963273628
9.963273592
9.96327198
9.963272495
9.963273752
9.963274124
9.963275249
9.963275695
9.963276547
9.963276844
9.963277279
9.963277091
9.963275889
9.963275171
9.963273346
9.96327308
9.963274226
9.963274665
9.963275094
9.963275673
9.963275931
9.96327467
9.963274611
9.96327456
9.963275834
9.963275316
9.963276413
9.963275514
9.963303933
9.963302734
9.96330229
9.963302497
9.963300965
9.963300641
9.963300646
9.963299435
9.963298671
9.963299444
9.963297784
9.9632984
9.96329844
9.963298231
9.963254468
9.963254276
9.963254996
9.963254687
9.963254745
9.963254432
9.963254147
9.96325374
9.963256538
9.963255331
9.963255843
9.963255294
9.963254505
9.96325416
9.963263816
9.963262777
9.963263817
9.963264521
9.963263838
9.963264127
9.963264268
9.963263713
9.963263624
9.963263411
9.963262951
9.963263839
9.963263317
9.963263731
9.963252776
9.963252126
9.96325276
9.963252203
9.963251202
9.963251578
9.963252733
9.96325252
9.963252643
9.9632523
9.963251931
9.963251763
9.963251052
9.963249288
9.963346145
9.963347445
9.96334764
9.963348614
9.963347681
9.963347615
9.96334685
9.963346612
9.963346802
9.963347634
9.963347679
9.963346858
9.963347926
9.963347427
9.963340828
9.963340833
9.963340656
9.963340199
9.963341716
9.963342087
9.96334197
9.963341747
9.963341855
9.963341539
9.963341452
9.963341831
9.963342624
9.963341378
9.963298666
9.963298715
9.963297805
9.963297796
9.963297466
9.963296847
9.963296741
9.963297595
9.963297399
9.963297976
9.96329859
9.963298878
9.963298831
9.963298992
9.963299308
9.963313953
9.963314679
9.963314272
9.963314054
9.9633137
9.963313945
9.963312705
9.963312947
9.963313164
9.963313237
9.963313066
9.963314006
9.963313908
9.963313521
9.963247961
9.963248221
9.963247773
9.963247512
9.963248807
9.963248541
9.963248517
9.963249801
9.963249808
9.963249445
9.963248473
9.963246632
9.963246881
9.963246889
9.963274161
9.963274505
9.9632742
9.963273258
9.963273964
9.963273413
9.963273572
9.963273642
9.963274383
9.96327429
9.963272609
9.963272879
9.9632731
9.963273782
9.963297264
9.963296336
9.963297283
9.963296891
9.963297457
9.963297223
9.963296809
9.963296637
9.963296343
9.963295457
9.963295284
9.963296001
9.963296687
9.963297458
9.963307669
9.96330739
9.963307928
9.963308692
9.963307572
9.963307069
9.963307517
9.963308038
9.963308234
9.963307245
9.96330766
9.963306758
9.963306449
9.963307257
9.963313295
9.963312193
9.963312172
9.963312163
9.963312368
9.963312063
9.963312851
9.96331171
9.963313099
9.963313069
9.963312147
9.9633124
9.963312295
9.963312846
9.963282494
9.963282149
9.963282498
9.96328214
9.963282566
9.963282029
9.963282359
9.96328329
9.96328308
9.963284027
9.963284659
9.963285296
9.96328414
9.96328498
9.963252513
9.963251926
9.96325285
9.963253914
9.963253878
9.963253913
9.96325302
9.963253501
9.963251661
9.963251652
9.963251008
9.963251855
9.963251669
9.963252163
9.963300632
9.963299998
9.963300024
9.963300712
9.96329999
9.963299582
9.963299406
9.963298801
9.963298139
9.963297996
9.963297348
9.963298129
9.963298462
9.963298437
)
;

boundaryField
{
    top
    {
        type            calculated;
        value           nonuniform List<scalar> 
134
(
9.963272272
9.963270707
9.963294244
9.963297248
9.963292894
9.963273058
9.963298231
9.963298666
9.963300632
9.9632724
9.963269875
9.963295135
9.963296514
9.96329287
9.963273145
9.963297953
9.963298715
9.963299998
9.963271582
9.963270727
9.963294261
9.963296581
9.963292938
9.963273681
9.96329795
9.963297805
9.963300024
9.963272244
9.963270925
9.96329473
9.963296985
9.963292091
9.963273282
9.963298219
9.963297796
9.963300712
9.963271967
9.963269894
9.963295428
9.963297732
9.963290822
9.96327409
9.963298183
9.963297466
9.96329999
9.963272215
9.963269967
9.963294595
9.963298346
9.963291152
9.963273487
9.963298414
9.963296847
9.963299582
9.963271669
9.963267938
9.96329428
9.963297991
9.963291802
9.963273709
9.963299762
9.963296741
9.963299406
9.96327048
9.963268601
9.963292769
9.963297585
9.96329136
9.963274446
9.963299629
9.963297595
9.963298801
9.963270148
9.963269771
9.963293521
9.963297408
9.963291799
9.963275607
9.963299301
9.963297399
9.963298139
9.963271102
9.963269392
9.963293093
9.963297983
9.963291215
9.96327665
9.963298704
9.963297976
9.963297996
9.963271913
9.963268754
9.963293186
9.963296959
9.963292189
9.963276436
9.963297725
9.96329859
9.963297348
9.963271763
9.963268698
9.963292833
9.963295953
9.963291797
9.963277057
9.963298117
9.963298878
9.963298129
9.963271925
9.963267839
9.963293217
9.963295628
9.963291145
9.96327693
9.963298272
9.963298831
9.963298462
9.963271601
9.96326807
9.963294144
9.963296214
9.963290842
9.963276685
9.963296673
9.963298992
9.963298437
9.963271524
9.963269074
9.963294309
9.963296326
9.963290396
9.963276525
9.963297551
9.963299308
)
;
    }
    bottom
    {
        type            calculated;
        value           nonuniform List<scalar> 
127
(
9.963271983
9.96325639
9.963269022
9.963300015
9.963282128
9.963226074
9.963292849
9.963273628
9.963313953
9.963272714
9.963256201
9.963268475
9.963300163
9.963282117
9.963226034
9.963292726
9.963273592
9.963314679
9.963271209
9.963256423
9.963268707
9.963300072
9.963281816
9.963225882
9.963293962
9.96327198
9.963314272
9.963271214
9.963256211
9.963268813
9.963300303
9.963282107
9.963225666
9.963293194
9.963272495
9.963314054
9.963271106
9.963255613
9.963268394
9.963299339
9.96328278
9.963225467
9.963292652
9.963273752
9.9633137
9.963271258
9.963255606
9.963268347
9.96329932
9.963282124
9.963224829
9.963293126
9.963274124
9.963313945
9.963270693
9.96325452
9.963267407
9.963298951
9.96328123
9.963225995
9.963292803
9.963275249
9.963312705
9.963270609
9.96325478
9.963266973
9.963298353
9.963281461
9.963226611
9.963292477
9.963275695
9.963312947
9.963269255
9.963254565
9.963266166
9.963299321
9.963281219
9.963226661
9.96329128
9.963276547
9.963313164
9.96326891
9.963255002
9.963264904
9.963299157
9.963281217
9.963227641
9.963290406
9.963276844
9.963313237
9.963269088
9.963253801
9.963265062
9.963298249
9.963281856
9.963227237
9.963290816
9.963277279
9.963313066
9.963269295
9.963253348
9.963264732
9.963298278
9.963282206
9.963228644
9.963290555
9.963277091
9.963314006
9.963269386
9.963252938
9.963263412
9.963299411
9.963281756
9.963228068
9.963289943
9.963275889
9.963313908
9.963268652
9.96325261
9.963264533
9.963298919
9.963283147
9.963228939
9.963290341
9.963275171
9.963313521
9.963269185
)
;
    }
    side-walls
    {
        type            calculated;
        value           nonuniform List<scalar> 
261
(
9.963271983
9.963226889
9.963280215
9.963304458
9.963304945
9.963271835
9.963264649
9.963287497
9.963272272
9.963272714
9.963226607
9.963279658
9.963303732
9.963304497
9.963272297
9.963263754
9.963285962
9.9632724
9.963271209
9.963226136
9.963280265
9.963305501
9.963304505
9.963272496
9.963264529
9.963284972
9.963271582
9.963271214
9.963226873
9.963279254
9.963305506
9.963303933
9.963272199
9.963264367
9.963283393
9.963272244
9.963271106
9.963225945
9.963279179
9.963306731
9.963305679
9.963271588
9.963264436
9.963283433
9.963271967
9.963271258
9.963225111
9.963279019
9.963305603
9.963304367
9.963270838
9.963264656
9.96328353
9.963272215
9.963270693
9.963224841
9.963279819
9.963305477
9.963304123
9.963271103
9.963265553
9.963282948
9.963271669
9.963270609
9.963224934
9.963279522
9.963304998
9.963303417
9.963271867
9.963265502
9.963281369
9.96327048
9.963269255
9.963223819
9.963278047
9.963305341
9.963303179
9.963270862
9.963266457
9.963281916
9.963270148
9.96326891
9.963223404
9.963278903
9.963304675
9.963303403
9.963270034
9.963266528
9.963281421
9.963271102
9.963269088
9.963223597
9.963279346
9.963303076
9.963303412
9.963271004
9.963266832
9.963282247
9.963271913
9.963269295
9.963223549
9.963279212
9.963304745
9.963304197
9.963270063
9.963266714
9.963282881
9.963271763
9.963269386
9.963222765
9.963278641
9.963305464
9.963302795
9.963270436
9.963266163
9.963282854
9.963271925
9.963268652
9.963223118
9.963279807
9.963305669
9.963302224
9.963269564
9.963266712
9.963283434
9.963271601
9.963269185
9.9632234
9.963280102
9.963305929
9.963301464
9.963270979
9.963266339
9.963282859
9.963271524
9.963313953
9.963247961
9.963274161
9.963297264
9.963307669
9.963313295
9.963282494
9.963252513
9.963300632
9.963314679
9.963248221
9.963274505
9.963296336
9.96330739
9.963312193
9.963282149
9.963251926
9.963299998
9.963314272
9.963247773
9.9632742
9.963297283
9.963307928
9.963312172
9.963282498
9.96325285
9.963300024
9.963314054
9.963247512
9.963273258
9.963296891
9.963308692
9.963312163
9.96328214
9.963253914
9.963300712
9.9633137
9.963248807
9.963273964
9.963297457
9.963307572
9.963312368
9.963282566
9.963253878
9.96329999
9.963313945
9.963248541
9.963273413
9.963297223
9.963307069
9.963312063
9.963282029
9.963253913
9.963299582
9.963312705
9.963248517
9.963273572
9.963296809
9.963307517
9.963312851
9.963282359
9.96325302
9.963299406
9.963312947
9.963249801
9.963273642
9.963296637
9.963308038
9.96331171
9.96328329
9.963253501
9.963298801
9.963313164
9.963249808
9.963274383
9.963296343
9.963308234
9.963313099
9.96328308
9.963251661
9.963298139
9.963313237
9.963249445
9.96327429
9.963295457
9.963307245
9.963313069
9.963284027
9.963251652
9.963297996
9.963313066
9.963248473
9.963272609
9.963295284
9.96330766
9.963312147
9.963284659
9.963251008
9.963297348
9.963314006
9.963246632
9.963272879
9.963296001
9.963306758
9.9633124
9.963285296
9.963251855
9.963298129
9.963313908
9.963246881
9.9632731
9.963296687
9.963306449
9.963312295
9.96328414
9.963251669
9.963298462
9.963313521
9.963246889
9.963273782
9.963297458
9.963307257
9.963312846
9.96328498
9.963252163
9.963298437
)
;
    }
    inlet
    {
        type            calculated;
        value           nonuniform List<scalar> 
81
(
9.963271983
9.963226889
9.963280215
9.963304458
9.963304945
9.963271835
9.963264649
9.963287497
9.963272272
9.96325639
9.963328264
9.963321887
9.963236775
9.963219722
9.963268202
9.963280195
9.963240627
9.963270707
9.963269022
9.96323263
9.963248569
9.963252643
9.963266804
9.963284901
9.963289011
9.963320359
9.963294244
9.963300015
9.963298765
9.963290913
9.963229293
9.963339707
9.963301605
9.963295283
9.963238532
9.963297248
9.963282128
9.963267675
9.963250982
9.963320637
9.963243822
9.963301169
9.963260067
9.963245154
9.963292894
9.963226074
9.963273132
9.963263646
9.963277351
9.963221902
9.963326301
9.963276923
9.963222683
9.963273058
9.963292849
9.96332729
9.963256409
9.963273949
9.963247016
9.963292705
9.963281775
9.963277204
9.963298231
9.963273628
9.963273346
9.963303933
9.963254468
9.963263816
9.963252776
9.963346145
9.963340828
9.963298666
9.963313953
9.963247961
9.963274161
9.963297264
9.963307669
9.963313295
9.963282494
9.963252513
9.963300632
)
;
    }
    outlet
    {
        type            calculated;
        value           nonuniform 0();
    }
    procBoundary0to1
    {
        type            processor;
        value           nonuniform List<scalar> 
97
(
9.963267732
9.963253334
9.963223646
9.963279928
9.963306291
9.963301989
9.963270697
9.963266689
9.963282619
9.963270892
9.963253334
9.963253334
9.963325454
9.963229934
9.963321212
9.963238844
9.963216358
9.963268834
9.963277438
9.963239875
9.963268917
9.963265646
9.963229934
9.963229934
9.963247852
9.963293228
9.963254872
9.963267865
9.963286522
9.963284197
9.96332197
9.963294456
9.963298877
9.963298168
9.963293228
9.963293228
9.963228778
9.96332984
9.96334454
9.963299465
9.963289118
9.963238761
9.963297318
9.963283373
9.963271907
9.96324725
9.96332984
9.96332984
9.994693567
9.963235946
9.963311438
9.96332298
9.963260615
9.96324781
9.96329077
9.963228312
9.963281939
9.963261411
9.963277827
9.963235946
9.96332298
9.96332298
9.963279656
9.963280958
9.963226622
9.963275307
9.963290444
9.963324606
9.963255649
9.963268926
9.963250184
9.963291074
9.963280958
9.963280958
9.963279462
9.963342425
9.963297356
9.963274183
9.96327491
9.963297783
9.963253072
9.963263809
9.963249331
9.963347399
9.963342425
9.963342425
9.963299008
9.963298374
9.963313257
9.963247426
9.963272393
9.963296054
9.963307215
9.963313588
9.963285992
9.963250753
9.963298374
)
;
    }
}


// ************************************************************************* //
