/*--------------------------------*- C++ -*----------------------------------*\
| =========                 |                                                 |
| \\      /  F ield         | OpenFOAM: The Open Source CFD Toolbox           |
|  \\    /   O peration     | Version:  4.x                                   |
|   \\  /    A nd           | Web:      www.OpenFOAM.org                      |
|    \\/     M anipulation  |                                                 |
\*---------------------------------------------------------------------------*/
FoamFile
{
    version     2.0;
    format      ascii;
    class       volScalarField;
    location    "8000";
    object      N2;
}
// * * * * * * * * * * * * * * * * * * * * * * * * * * * * * * * * * * * * * //

dimensions      [0 0 0 0 0 0 0];

internalField   nonuniform List<scalar> 
1175
(
0.5999999994
0.5999999994
0.5999999994
0.5999999994
0.5999999994
0.5999999993
0.5999999993
0.599999999
0.5999999982
0.5999999959
0.5999999893
0.5999999716
0.5999999285
0.5999998332
0.5999996455
0.5999999994
0.5999999994
0.5999999994
0.5999999994
0.5999999994
0.5999999993
0.5999999992
0.5999999989
0.5999999978
0.5999999942
0.5999999838
0.5999999549
0.5999998819
0.599999717
0.5999993921
0.5999999994
0.5999999994
0.5999999994
0.5999999994
0.5999999994
0.5999999993
0.5999999992
0.5999999986
0.5999999969
0.599999991
0.5999999729
0.5999999203
0.5999997819
0.5999994601
0.5999988246
0.5999999994
0.5999999994
0.5999999994
0.5999999994
0.5999999994
0.5999999993
0.5999999991
0.5999999984
0.5999999959
0.5999999872
0.5999999593
0.5999998749
0.5999996425
0.5999990836
0.599997972
0.5999999994
0.5999999994
0.5999999994
0.5999999994
0.5999999993
0.5999999993
0.5999999991
0.5999999983
0.5999999954
0.5999999853
0.5999999518
0.5999998474
0.5999995508
0.5999988147
0.5999973323
0.5999999994
0.5999999994
0.5999999994
0.5999999994
0.5999999994
0.5999999993
0.5999999991
0.5999999984
0.5999999959
0.5999999872
0.5999999593
0.5999998749
0.5999996425
0.5999990836
0.5999979721
0.5999999994
0.5999999994
0.5999999994
0.5999999994
0.5999999994
0.5999999993
0.5999999992
0.5999999986
0.5999999969
0.599999991
0.5999999729
0.5999999204
0.5999997819
0.5999994601
0.5999988247
0.5999999994
0.5999999994
0.5999999994
0.5999999994
0.5999999994
0.5999999993
0.5999999992
0.5999999989
0.5999999978
0.5999999942
0.5999999838
0.5999999549
0.5999998819
0.599999717
0.5999993922
0.5999999994
0.5999999994
0.5999999994
0.5999999994
0.5999999994
0.5999999993
0.5999999993
0.599999999
0.5999999982
0.5999999959
0.5999999893
0.5999999716
0.5999999285
0.5999998333
0.5999996457
0.5999999994
0.5999999994
0.5999999994
0.5999999994
0.5999999994
0.5999999993
0.5999999992
0.5999999989
0.5999999978
0.5999999942
0.5999999838
0.5999999549
0.5999998819
0.5999997168
0.5999999994
0.5999999994
0.5999999994
0.5999999994
0.5999999994
0.5999999993
0.5999999992
0.5999999987
0.5999999969
0.5999999912
0.5999999732
0.5999999207
0.5999997812
0.5999994546
0.5999988094
0.5999999994
0.5999999994
0.5999999994
0.5999999994
0.5999999994
0.5999999993
0.5999999991
0.5999999983
0.5999999953
0.599999985
0.5999999505
0.5999998432
0.5999995397
0.5999987948
0.5999973074
0.5999999994
0.5999999994
0.5999999994
0.5999999994
0.5999999993
0.5999999993
0.599999999
0.5999999978
0.5999999934
0.599999977
0.5999999191
0.5999997265
0.5999991436
0.5999976217
0.5999945075
0.5999999994
0.5999999994
0.5999999994
0.5999999994
0.5999999993
0.5999999993
0.5999999989
0.5999999976
0.5999999923
0.5999999724
0.5999998989
0.5999996422
0.5999988173
0.5999965145
0.5999915847
0.5999999994
0.5999999994
0.5999999994
0.5999999994
0.5999999993
0.5999999993
0.599999999
0.5999999978
0.5999999934
0.599999977
0.5999999191
0.5999997265
0.5999991436
0.5999976218
0.5999945079
0.5999999994
0.5999999994
0.5999999994
0.5999999994
0.5999999994
0.5999999993
0.5999999991
0.5999999983
0.5999999953
0.599999985
0.5999999505
0.5999998432
0.5999995398
0.5999987949
0.5999973078
0.5999999994
0.5999999994
0.5999999994
0.5999999994
0.5999999994
0.5999999993
0.5999999992
0.5999999987
0.5999999969
0.5999999912
0.5999999732
0.5999999207
0.5999997812
0.5999994548
0.5999988098
0.5999999994
0.5999999994
0.5999999994
0.5999999994
0.5999999994
0.5999999993
0.5999999992
0.5999999989
0.5999999978
0.5999999942
0.5999999838
0.5999999549
0.5999998819
0.599999717
0.5999993922
0.5999999994
0.5999999994
0.5999999994
0.5999999994
0.5999999994
0.5999999993
0.5999999992
0.5999999986
0.5999999969
0.599999991
0.5999999729
0.5999999203
0.5999997818
0.5999994598
0.5999999994
0.5999999994
0.5999999994
0.5999999994
0.5999999994
0.5999999993
0.5999999991
0.5999999983
0.5999999953
0.599999985
0.5999999505
0.5999998432
0.5999995396
0.5999987944
0.5999999994
0.5999999994
0.5999999994
0.5999999994
0.5999999993
0.5999999993
0.5999999989
0.5999999975
0.5999999921
0.5999999718
0.5999998983
0.5999996488
0.5999988798
0.5999968443
0.5999926616
0.5999999994
0.5999999994
0.5999999994
0.5999999994
0.5999999993
0.5999999992
0.5999999987
0.5999999966
0.599999988
0.5999999531
0.5999998165
0.5999993093
0.59999758
0.5999925058
0.5999813813
0.5999999994
0.5999999994
0.5999999994
0.5999999994
0.5999999993
0.5999999992
0.5999999986
0.5999999961
0.5999999855
0.5999999407
0.5999997549
0.5999990091
0.5999961955
0.5999868218
0.5999635096
0.5999999994
0.5999999994
0.5999999994
0.5999999994
0.5999999993
0.5999999992
0.5999999987
0.5999999966
0.599999988
0.5999999531
0.5999998165
0.5999993093
0.5999975802
0.5999925064
0.5999813833
0.5999999994
0.5999999994
0.5999999994
0.5999999994
0.5999999993
0.5999999993
0.5999999989
0.5999999975
0.5999999921
0.5999999718
0.5999998983
0.5999996488
0.59999888
0.599996845
0.5999926638
0.5999999994
0.5999999994
0.5999999994
0.5999999994
0.5999999994
0.5999999993
0.5999999991
0.5999999983
0.5999999953
0.599999985
0.5999999505
0.5999998432
0.5999995397
0.5999987949
0.5999973078
0.5999999994
0.5999999994
0.5999999994
0.5999999994
0.5999999994
0.5999999993
0.5999999992
0.5999999986
0.5999999969
0.599999991
0.5999999729
0.5999999203
0.5999997819
0.5999994601
0.5999988247
0.5999999994
0.5999999994
0.5999999994
0.5999999994
0.5999999994
0.5999999993
0.5999999991
0.5999999984
0.5999999959
0.5999999872
0.5999999593
0.5999998748
0.5999996424
0.5999990831
0.5999999994
0.5999999994
0.5999999994
0.5999999994
0.5999999993
0.5999999993
0.599999999
0.5999999978
0.5999999934
0.599999977
0.5999999191
0.5999997264
0.5999991433
0.5999976207
0.5999999994
0.5999999994
0.5999999994
0.5999999994
0.5999999993
0.5999999992
0.5999999987
0.5999999966
0.599999988
0.5999999531
0.5999998165
0.5999993092
0.5999975796
0.5999925036
0.5999999994
0.5999999994
0.5999999994
0.5999999994
0.5999999993
0.5999999991
0.5999999984
0.5999999951
0.5999999804
0.5999999156
0.5999996347
0.5999984543
0.5999937943
0.5999776254
0.5999363169
0.5999999994
0.5999999994
0.5999999994
0.5999999994
0.5999999993
0.5999999991
0.5999999982
0.5999999942
0.5999999754
0.5999998873
0.5999994712
0.5999975018
0.5999883405
0.5999484309
0.5998100349
0.5999999994
0.5999999994
0.5999999994
0.5999999994
0.5999999993
0.5999999991
0.5999999984
0.5999999951
0.5999999804
0.5999999156
0.5999996348
0.5999984544
0.5999937949
0.5999776287
0.5999363312
0.5999999994
0.5999999994
0.5999999994
0.5999999994
0.5999999993
0.5999999992
0.5999999987
0.5999999966
0.599999988
0.5999999531
0.5999998165
0.5999993093
0.5999975801
0.5999925063
0.5999813832
0.5999999994
0.5999999994
0.5999999994
0.5999999994
0.5999999993
0.5999999993
0.599999999
0.5999999978
0.5999999934
0.599999977
0.5999999191
0.5999997265
0.5999991435
0.5999976217
0.5999945078
0.5999999994
0.5999999994
0.5999999994
0.5999999994
0.5999999994
0.5999999993
0.5999999991
0.5999999984
0.5999999959
0.5999999872
0.5999999593
0.5999998749
0.5999996425
0.5999990836
0.5999979721
0.5999999994
0.5999999994
0.5999999994
0.5999999994
0.5999999993
0.5999999993
0.5999999991
0.5999999983
0.5999999954
0.5999999853
0.5999999517
0.5999998473
0.5999995506
0.5999988141
0.5999999994
0.5999999994
0.5999999994
0.5999999994
0.5999999993
0.5999999993
0.5999999989
0.5999999976
0.5999999923
0.5999999724
0.5999998988
0.5999996421
0.5999988169
0.5999965128
0.5999999994
0.5999999994
0.5999999994
0.5999999994
0.5999999993
0.5999999992
0.5999999986
0.5999999961
0.5999999855
0.5999999407
0.5999997549
0.5999990088
0.5999961943
0.5999868162
0.5999999994
0.5999999994
0.5999999994
0.5999999994
0.5999999993
0.5999999991
0.5999999982
0.5999999942
0.5999999754
0.5999998873
0.5999994711
0.5999975014
0.599988338
0.5999484139
0.5999999994
0.5999999994
0.5999999994
0.5999999994
0.5999999993
0.5999999991
0.599999998
0.599999993
0.5999999682
0.599999842
0.5999991684
0.5999953633
0.5999723819
0.5998230358
0.5987737584
0.5999999994
0.5999999994
0.5999999994
0.5999999994
0.5999999993
0.5999999991
0.5999999982
0.5999999942
0.5999999754
0.5999998873
0.5999994712
0.5999975016
0.5999883396
0.5999484276
0.5998100316
0.5999999994
0.5999999994
0.5999999994
0.5999999994
0.5999999993
0.5999999992
0.5999999986
0.5999999961
0.5999999855
0.5999999407
0.5999997549
0.599999009
0.5999961951
0.5999868208
0.5999635088
0.5999999994
0.5999999994
0.5999999994
0.5999999994
0.5999999993
0.5999999993
0.5999999989
0.5999999976
0.5999999923
0.5999999724
0.5999998989
0.5999996422
0.5999988172
0.5999965142
0.5999915844
0.5999999994
0.5999999994
0.5999999994
0.5999999994
0.5999999993
0.5999999993
0.5999999991
0.5999999983
0.5999999954
0.5999999853
0.5999999517
0.5999998474
0.5999995508
0.5999988146
0.5999973322
0.5999999994
0.5999999994
0.5999999994
0.5999999994
0.5999999994
0.5999999993
0.5999999991
0.5999999984
0.5999999959
0.5999999872
0.5999999593
0.5999998748
0.5999996424
0.5999990831
0.5999999994
0.5999999994
0.5999999994
0.5999999994
0.5999999993
0.5999999993
0.599999999
0.5999999978
0.5999999934
0.599999977
0.5999999191
0.5999997264
0.5999991432
0.5999976206
0.5999999994
0.5999999994
0.5999999994
0.5999999994
0.5999999993
0.5999999992
0.5999999987
0.5999999966
0.599999988
0.5999999531
0.5999998165
0.5999993091
0.5999975792
0.599992503
0.5999999994
0.5999999994
0.5999999994
0.5999999994
0.5999999993
0.5999999991
0.5999999984
0.5999999951
0.5999999804
0.5999999156
0.5999996347
0.599998454
0.599993793
0.5999776195
0.5999999994
0.5999999994
0.5999999994
0.5999999994
0.5999999993
0.5999999991
0.5999999982
0.5999999942
0.5999999754
0.5999998873
0.5999994711
0.5999975012
0.5999883372
0.599948411
0.5999999994
0.5999999994
0.5999999994
0.5999999994
0.5999999993
0.5999999991
0.5999999984
0.5999999951
0.5999999804
0.5999999156
0.5999996347
0.599998454
0.5999937934
0.5999776213
0.5999999994
0.5999999994
0.5999999994
0.5999999994
0.5999999993
0.5999999992
0.5999999987
0.5999999966
0.599999988
0.5999999531
0.5999998165
0.5999993092
0.5999975796
0.5999925047
0.5999813781
0.5999999994
0.5999999994
0.5999999994
0.5999999994
0.5999999993
0.5999999993
0.599999999
0.5999999978
0.5999999934
0.599999977
0.5999999191
0.5999997264
0.5999991434
0.5999976213
0.599994507
0.5999999994
0.5999999994
0.5999999994
0.5999999994
0.5999999994
0.5999999993
0.5999999991
0.5999999984
0.5999999959
0.5999999872
0.5999999593
0.5999998748
0.5999996425
0.5999990835
0.5999979719
0.5999999994
0.5999999994
0.5999999994
0.5999999994
0.5999999994
0.5999999993
0.5999999992
0.5999999986
0.5999999969
0.599999991
0.5999999729
0.5999999203
0.5999997818
0.5999994598
0.5999999994
0.5999999994
0.5999999994
0.5999999994
0.5999999994
0.5999999993
0.5999999991
0.5999999983
0.5999999953
0.599999985
0.5999999505
0.5999998431
0.5999995395
0.5999987943
0.5999999994
0.5999999994
0.5999999994
0.5999999994
0.5999999993
0.5999999993
0.5999999989
0.5999999975
0.5999999921
0.5999999718
0.5999998983
0.5999996487
0.5999988795
0.5999968435
0.5999999994
0.5999999994
0.5999999994
0.5999999994
0.5999999993
0.5999999992
0.5999999987
0.5999999966
0.599999988
0.5999999531
0.5999998165
0.5999993091
0.5999975792
0.599992503
0.5999999994
0.5999999994
0.5999999994
0.5999999994
0.5999999993
0.5999999992
0.5999999986
0.5999999961
0.5999999855
0.5999999407
0.5999997548
0.5999990087
0.599996194
0.5999868157
0.5999999994
0.5999999994
0.5999999994
0.5999999994
0.5999999993
0.5999999992
0.5999999987
0.5999999966
0.599999988
0.5999999531
0.5999998165
0.5999993091
0.5999975793
0.5999925033
0.5999999994
0.5999999994
0.5999999994
0.5999999994
0.5999999993
0.5999999993
0.5999999989
0.5999999975
0.5999999921
0.5999999718
0.5999998983
0.5999996487
0.5999988796
0.5999968437
0.5999999994
0.5999999994
0.5999999994
0.5999999994
0.5999999994
0.5999999993
0.5999999991
0.5999999983
0.5999999953
0.599999985
0.5999999505
0.5999998431
0.5999995396
0.5999987945
0.5999973069
0.5999999994
0.5999999994
0.5999999994
0.5999999994
0.5999999994
0.5999999993
0.5999999992
0.5999999986
0.5999999969
0.599999991
0.5999999729
0.5999999203
0.5999997819
0.59999946
0.5999988244
0.5999999994
0.5999999994
0.5999999994
0.5999999994
0.5999999994
0.5999999993
0.5999999992
0.5999999989
0.5999999978
0.5999999942
0.5999999838
0.5999999549
0.5999998818
0.5999997168
0.5999999994
0.5999999994
0.5999999994
0.5999999994
0.5999999994
0.5999999993
0.5999999992
0.5999999987
0.5999999969
0.5999999912
0.5999999732
0.5999999207
0.5999997811
0.5999994545
0.5999999994
0.5999999994
0.5999999994
0.5999999994
0.5999999994
0.5999999993
0.5999999991
0.5999999983
0.5999999953
0.599999985
0.5999999505
0.5999998431
0.5999995395
0.5999987943
0.5999999994
0.5999999994
0.5999999994
0.5999999994
0.5999999993
0.5999999993
0.599999999
0.5999999978
0.5999999934
0.599999977
0.5999999191
0.5999997264
0.5999991432
0.5999976206
0.5999999994
0.5999999994
0.5999999994
0.5999999994
0.5999999993
0.5999999993
0.5999999989
0.5999999976
0.5999999923
0.5999999724
0.5999998988
0.5999996421
0.5999988168
0.5999965127
0.5999999994
0.5999999994
0.5999999994
0.5999999994
0.5999999993
0.5999999993
0.599999999
0.5999999978
0.5999999934
0.599999977
0.5999999191
0.5999997264
0.5999991432
0.5999976207
0.5999999994
0.5999999994
0.5999999994
0.5999999994
0.5999999994
0.5999999993
0.5999999991
0.5999999983
0.5999999953
0.599999985
0.5999999505
0.5999998431
0.5999995396
0.5999987944
0.5999999994
0.5999999994
0.5999999994
0.5999999994
0.5999999994
0.5999999993
0.5999999992
0.5999999987
0.5999999969
0.5999999912
0.5999999732
0.5999999207
0.5999997811
0.5999994545
0.5999999994
0.5999999994
0.5999999994
0.5999999994
0.5999999994
0.5999999993
0.5999999992
0.5999999989
0.5999999978
0.5999999942
0.5999999838
0.5999999549
0.5999998819
0.5999997169
0.599999392
0.5999999994
0.5999999994
0.5999999994
0.5999999994
0.5999999994
0.5999999993
0.5999999993
0.599999999
0.5999999982
0.5999999959
0.5999999893
0.5999999716
0.5999999285
0.5999998332
0.5999999994
0.5999999994
0.5999999994
0.5999999994
0.5999999994
0.5999999993
0.5999999992
0.5999999989
0.5999999978
0.5999999942
0.5999999838
0.5999999549
0.5999998818
0.5999997168
0.5999999994
0.5999999994
0.5999999994
0.5999999994
0.5999999994
0.5999999993
0.5999999992
0.5999999986
0.5999999969
0.599999991
0.5999999729
0.5999999203
0.5999997818
0.5999994598
0.5999999994
0.5999999994
0.5999999994
0.5999999994
0.5999999994
0.5999999993
0.5999999991
0.5999999984
0.5999999959
0.5999999872
0.5999999593
0.5999998748
0.5999996423
0.5999990831
0.5999999994
0.5999999994
0.5999999994
0.5999999994
0.5999999993
0.5999999993
0.5999999991
0.5999999983
0.5999999954
0.5999999853
0.5999999517
0.5999998473
0.5999995506
0.5999988141
0.5999999994
0.5999999994
0.5999999994
0.5999999994
0.5999999994
0.5999999993
0.5999999991
0.5999999984
0.5999999959
0.5999999872
0.5999999593
0.5999998748
0.5999996424
0.5999990831
0.5999999994
0.5999999994
0.5999999994
0.5999999994
0.5999999994
0.5999999993
0.5999999992
0.5999999986
0.5999999969
0.599999991
0.5999999729
0.5999999203
0.5999997818
0.5999994598
0.5999999994
0.5999999994
0.5999999994
0.5999999994
0.5999999994
0.5999999993
0.5999999992
0.5999999989
0.5999999978
0.5999999942
0.5999999838
0.5999999549
0.5999998818
0.5999997168
0.5999999994
0.5999999994
0.5999999994
0.5999999994
0.5999999994
0.5999999993
0.5999999993
0.599999999
0.5999999982
0.5999999959
0.5999999893
0.5999999716
0.5999999285
0.5999998332
)
;

boundaryField
{
    top
    {
        type            zeroGradient;
    }
    bottom
    {
        type            zeroGradient;
    }
    side-walls
    {
        type            zeroGradient;
    }
    inlet
    {
        type            zeroGradient;
    }
    outlet
    {
        type            zeroGradient;
    }
    procBoundary0to1
    {
        type            processor;
        value           nonuniform List<scalar> 
97
(
0.5999993189
0.599999392
0.5999988425
0.5999977903
0.5999962481
0.5999951466
0.5999962481
0.5999977904
0.5999988427
0.599999319
0.599999392
0.599999392
0.5999977684
0.5999973068
0.5999950653
0.5999902596
0.5999857242
0.59999026
0.5999950657
0.5999977686
0.5999988427
0.5999988244
0.5999973068
0.5999973068
0.5999870771
0.5999813772
0.599969303
0.5999460157
0.5999693046
0.5999870782
0.5999950656
0.5999977904
0.5999979718
0.5999945066
0.5999813772
0.5999813772
0.5999083403
0.5998099758
0.5997886615
0.5999083456
0.5999693044
0.5999902599
0.5999962481
0.5999973318
0.5999915831
0.599963501
0.5998099758
0.5998099758
0.5992732825
0.5998099765
0.599788661
0.5999363157
0.5999460151
0.5999857239
0.5999951465
0.5999979718
0.5999945069
0.5999813798
0.5999363176
0.5998099765
0.5999363157
0.5999363157
0.599969303
0.5999926616
0.5999902593
0.5999962479
0.5999988245
0.5999973074
0.5999926625
0.5999813797
0.5999635008
0.5999813798
0.5999926616
0.5999926616
0.5999950652
0.5999988094
0.5999977901
0.5999993921
0.5999988096
0.5999973074
0.5999945069
0.5999915831
0.599994507
0.5999973073
0.5999988094
0.5999988094
0.5999988425
0.5999996455
0.5999996456
0.5999993921
0.5999988245
0.5999979718
0.5999973318
0.5999979718
0.5999988245
0.5999993921
0.5999996455
)
;
    }
}


// ************************************************************************* //
