/*--------------------------------*- C++ -*----------------------------------*\
| =========                 |                                                 |
| \\      /  F ield         | OpenFOAM: The Open Source CFD Toolbox           |
|  \\    /   O peration     | Version:  4.x                                   |
|   \\  /    A nd           | Web:      www.OpenFOAM.org                      |
|    \\/     M anipulation  |                                                 |
\*---------------------------------------------------------------------------*/
FoamFile
{
    version     2.0;
    format      ascii;
    class       surfaceScalarField;
    location    "8000";
    object      phi;
}
// * * * * * * * * * * * * * * * * * * * * * * * * * * * * * * * * * * * * * //

dimensions      [1 0 -1 0 0 0 0];

internalField   nonuniform List<scalar> 
3175
(
9.4753337e-06
-6.43362651e-13
-8.880295786e-14
9.475330477e-06
-2.667870497e-12
-1.62494284e-12
9.475329669e-06
-1.490185602e-12
-1.171635779e-12
9.475333569e-06
-1.441114911e-12
2.844888769e-12
9.475331656e-06
-1.640082235e-12
1.921534807e-13
9.475332747e-06
-2.394751175e-13
-6.822522518e-13
9.475333593e-06
2.249490177e-13
-1.559693194e-12
9.475335935e-06
6.55855177e-14
-7.086935229e-13
9.475339125e-06
-2.708813182e-12
-2.239242259e-12
9.475343911e-06
-5.284743918e-12
-3.856296948e-12
9.475351572e-06
-7.061496243e-12
-5.366799065e-12
9.475365664e-06
-8.484585988e-12
-7.934047369e-12
9.475386294e-06
-1.260766194e-11
-1.152756508e-11
9.475405237e-06
-1.037722989e-11
-9.869171044e-12
-2.339263383e-11
9.475287967e-06
-7.981453072e-13
1.302360322e-12
9.475288397e-06
-2.483348834e-13
-6.865386941e-13
9.475287744e-06
-1.321260335e-12
-7.012696344e-13
9.475290252e-06
6.982379725e-13
8.057768982e-13
9.475288664e-06
-1.852410979e-12
3.245412089e-13
9.475288664e-06
-1.611214827e-12
-1.259149727e-12
9.475288919e-06
-1.928236417e-12
-1.528601551e-12
9.475289689e-06
-3.525115334e-12
-2.050819629e-12
9.475294388e-06
-2.901014771e-12
9.580792448e-15
9.475300236e-06
-4.147102257e-12
-2.052520098e-12
9.475308334e-06
-5.98042523e-12
-4.211014526e-12
9.475321078e-06
-1.025487678e-11
-8.97460156e-12
9.47534259e-06
-1.752243905e-11
-1.313029262e-11
9.475362096e-06
-2.081104203e-11
-1.133644809e-11
-5.014421078e-11
-3.75150198e-11
9.475338509e-06
-5.113986855e-13
1.101641284e-12
9.475338516e-06
1.466379814e-12
5.985905884e-13
9.475339954e-06
1.920467005e-12
1.26364392e-12
9.475337778e-06
-6.482352298e-13
-2.988805232e-13
9.475339708e-06
-1.807756189e-12
-3.860671468e-14
9.475339149e-06
-1.778743686e-12
-2.344337017e-12
9.475339371e-06
-1.921040237e-12
-1.416637813e-12
9.475339811e-06
-2.372922934e-12
-3.436328981e-12
9.475343338e-06
-2.141235892e-12
-2.776328691e-12
9.475346628e-06
-4.916529867e-12
-3.868885403e-12
9.475352916e-06
-5.671573053e-12
-5.972112402e-12
9.475364666e-06
-1.181378659e-11
-1.541895115e-11
9.475382997e-06
-1.961536795e-11
-2.25343833e-11
9.475409082e-06
-1.871253246e-11
-2.444125597e-11
-5.837172399e-11
-8.486389529e-11
9.475363178e-06
-2.778142119e-13
3.401430839e-13
9.475360976e-06
-1.689889528e-12
1.531141217e-13
9.475361773e-06
-1.645349569e-12
-5.13658181e-13
9.475362872e-06
-2.22783299e-13
-7.04576289e-13
9.475365637e-06
-5.119307116e-13
-1.427965847e-12
9.475364066e-06
1.213164921e-14
-2.453066436e-12
9.475363576e-06
-2.145386459e-13
-1.330907158e-12
9.475365784e-06
-6.394565654e-13
-1.284788524e-12
9.475366604e-06
-2.298700288e-12
-1.056550928e-12
9.475372005e-06
-3.321078812e-12
-4.418601202e-12
9.475374782e-06
-6.369149211e-12
-5.046653672e-12
9.475390284e-06
-1.151906498e-11
-1.578119415e-11
9.475407875e-06
-1.930047635e-11
-1.729776259e-11
9.475438038e-06
-2.809957192e-11
-2.596249064e-11
-5.810184451e-11
-1.206007456e-10
9.475362111e-06
-9.165564131e-13
-3.561731826e-13
9.475361836e-06
-3.8189764e-13
9.809422977e-13
9.475362889e-06
-6.020744395e-13
4.857669464e-13
9.475360683e-06
-1.935535267e-12
-1.329825916e-13
9.475364887e-06
-1.339354304e-12
9.670721901e-13
9.475362715e-06
-1.752523991e-12
-2.548579658e-12
9.475361411e-06
-4.462535573e-13
-1.795533932e-12
9.475361476e-06
1.547621799e-12
-1.959213848e-12
9.475361161e-06
2.035740756e-12
-1.781614964e-12
9.475362551e-06
2.40862345e-12
-7.175696836e-12
9.475361107e-06
5.503860032e-12
-8.522300156e-12
9.475366583e-06
1.213950829e-11
-3.185715256e-11
9.475368438e-06
1.912554108e-11
-4.294923651e-11
9.475412868e-06
2.775677049e-11
-1.004670933e-10
5.977523024e-11
-3.289042602e-10
9.475331401e-06
4.531285077e-13
7.224790691e-13
9.475330878e-06
6.704200201e-15
-7.729040643e-14
9.475331414e-06
3.289541624e-15
-3.134043226e-13
9.475330974e-06
-1.031833875e-12
-5.404021902e-13
9.475333741e-06
-8.049143711e-13
4.794392883e-13
9.475331497e-06
-4.887781653e-13
-2.045139942e-13
9.475331868e-06
-2.039374576e-12
-3.419064528e-13
9.475332052e-06
1.952358252e-15
-2.821745887e-12
9.475333613e-06
2.361455559e-12
-1.371416043e-12
9.475339076e-06
5.670378554e-12
-3.417693114e-12
9.47534305e-06
7.16338888e-12
-5.111316897e-12
9.475356192e-06
1.118025796e-11
-1.564442347e-11
9.475373876e-06
1.859493475e-11
-1.557233178e-11
9.475406875e-06
1.952406704e-11
-2.401901582e-11
5.837539917e-11
-1.20179778e-10
9.475323457e-06
-7.429826259e-13
-4.155208475e-13
9.475323702e-06
5.566631703e-13
-2.427940494e-13
9.475321851e-06
-3.838002534e-13
1.142813177e-13
9.475323802e-06
4.741183828e-13
2.188506793e-13
9.475327417e-06
1.33411386e-12
1.057296901e-12
9.475326368e-06
1.003534493e-12
9.113155449e-13
9.475329575e-06
2.440182175e-12
-1.088048984e-13
9.475329772e-06
2.761178572e-12
-1.8225161e-12
9.475331939e-06
3.980842718e-12
-1.401908132e-12
9.475337272e-06
7.637030918e-12
-3.42085138e-12
9.475339668e-06
9.455746844e-12
-6.986211688e-12
9.475350204e-06
1.322800965e-11
-1.271673301e-11
9.475369864e-06
1.973528247e-11
-1.839727328e-11
9.47539729e-06
2.019776339e-11
-2.348840096e-11
4.844716035e-11
-8.38737069e-11
9.475345458e-06
1.368681031e-13
1.921413313e-13
9.475342855e-06
-7.608274501e-13
4.616072128e-13
9.475342793e-06
-1.969253235e-14
1.061969838e-13
9.47534278e-06
-2.07981042e-13
-4.918178646e-13
9.475344099e-06
4.832651637e-13
-3.822503056e-13
9.475342842e-06
-1.210990941e-13
-8.375303901e-13
9.475346363e-06
1.809306721e-12
6.243375028e-13
9.475348023e-06
1.06305365e-12
-1.4415568e-12
9.475351828e-06
2.244675465e-12
-3.072165655e-12
9.475354526e-06
2.536766761e-12
-4.554739988e-12
9.475362161e-06
4.642404435e-12
-5.940423283e-12
9.475375264e-06
7.977522801e-12
-8.468015583e-12
9.475398706e-06
1.225935984e-11
-1.196910285e-11
9.475420413e-06
1.02847039e-11
-1.007408765e-11
2.361884865e-11
-3.585731447e-11
9.475330354e-06
-3.04595611e-13
9.475330189e-06
-1.426116533e-13
9.475330817e-06
-9.8379008e-13
9.475332163e-06
-4.411227088e-13
9.475332548e-06
-2.130557401e-13
9.475335739e-06
6.830466588e-14
9.47533687e-06
-9.842979478e-14
9.475338551e-06
-1.180426227e-12
9.475341464e-06
-3.633726636e-12
9.475346947e-06
-3.230681374e-12
9.475355898e-06
-3.096447062e-12
9.475367965e-06
-6.76434682e-12
9.475388064e-06
-1.107824615e-11
9.475408683e-06
-8.07450032e-12
-2.217358692e-11
9.475316381e-06
2.797826121e-13
-5.172337324e-13
9.475314934e-06
-6.731607385e-13
-5.751304501e-13
9.475316055e-06
-8.009635269e-13
-1.62654819e-12
9.475315498e-06
-2.140525658e-12
-2.124917475e-12
9.475316843e-06
8.364200647e-14
-1.828061915e-12
9.475317278e-06
-2.011769709e-13
-2.357980189e-12
9.475318924e-06
-4.424073343e-13
-1.168833915e-12
9.475320894e-06
-1.043873169e-12
-3.012895762e-12
9.475323852e-06
-1.475737204e-12
-4.682980056e-12
9.475326593e-06
-4.349447528e-12
-6.780937642e-12
9.475333921e-06
-5.772800505e-12
-9.221732347e-12
9.475350329e-06
-9.192229901e-12
-1.259968754e-11
9.475370126e-06
-1.375392566e-11
-2.131665649e-11
-1.061905512e-11
-2.044186052e-11
9.475383335e-06
-2.752552383e-13
2.779912353e-14
9.475385093e-06
1.322194208e-13
9.225033206e-14
9.47538485e-06
3.562158105e-13
-7.743422198e-13
9.475386268e-06
8.711737785e-14
-9.126159386e-13
9.475383131e-06
-1.908013848e-12
-2.148162975e-12
9.475385e-06
-8.565825019e-13
-2.365717184e-12
9.475385552e-06
-1.771343382e-12
-1.530113317e-12
9.475388355e-06
-3.749323064e-12
-1.057628736e-12
9.475388501e-06
-4.099039066e-12
-3.666481772e-12
9.475394061e-06
-4.416490511e-12
-5.480662754e-12
9.475402271e-06
-6.373651771e-12
-8.714671938e-12
9.475418195e-06
-1.444173466e-11
-1.429957981e-11
9.475439233e-06
-2.322025699e-11
-2.26657715e-11
9.475462911e-06
-2.52219921e-11
-2.396415915e-11
-7.713327445e-11
9.475378695e-06
-5.169940791e-13
-5.612645939e-13
9.475380152e-06
5.945903519e-13
6.813538659e-13
9.475380274e-06
3.394436253e-13
-4.930956727e-13
9.475380719e-06
5.75126137e-13
-5.345841295e-13
9.475381624e-06
-2.072187657e-12
7.930709308e-14
9.475380283e-06
-1.548946801e-12
-1.284514194e-12
9.475381178e-06
-1.548986728e-12
-7.973672731e-13
9.475382827e-06
-1.709811081e-12
-2.586662832e-12
9.475383858e-06
-2.135203367e-12
-4.106760718e-12
9.475386042e-06
-5.944485031e-12
-9.105264988e-12
9.475388909e-06
-6.981675652e-12
-1.078970689e-11
9.475404261e-06
-1.52131202e-11
-2.586776703e-11
9.475416934e-06
-2.054218268e-11
-3.614136535e-11
9.475454462e-06
-2.893906773e-11
-5.397712054e-11
-1.094506622e-10
-1.892031766e-10
9.475298541e-06
-1.047957632e-12
-3.079145282e-13
9.475297928e-06
-6.269956416e-13
-1.318633585e-12
9.475298974e-06
2.189668089e-13
-8.530468981e-13
9.475297447e-06
1.344481247e-13
-1.652751287e-12
9.475298396e-06
1.247218854e-12
6.952972148e-13
9.475299777e-06
7.598219686e-14
-3.525355718e-13
9.475299226e-06
-1.466557692e-13
-6.742871602e-13
9.475300089e-06
-8.380147592e-13
-2.966263719e-12
9.475300763e-06
-2.715195058e-12
-4.728112769e-12
9.475304173e-06
-5.129362612e-12
-9.843469451e-12
9.475308082e-06
-7.184267535e-12
-7.006502679e-12
9.475328724e-06
-1.650118918e-11
-3.197073731e-11
9.475341377e-06
-2.835108915e-11
-2.295929474e-11
9.475402999e-06
-4.887801285e-11
-6.176474275e-11
-1.1431232e-10
-2.824007456e-10
9.47528106e-06
-1.348354352e-13
-1.626586707e-12
9.475280143e-06
-6.267991862e-13
-2.23350047e-12
9.47528116e-06
-1.588104583e-12
-1.474307292e-12
9.475278945e-06
-2.395161645e-12
-2.122621727e-12
9.475280359e-06
-1.510212328e-12
5.855913427e-13
9.475281451e-06
4.932717618e-13
-7.277232952e-13
9.475280532e-06
5.001540654e-13
-1.459441291e-12
9.475279107e-06
9.211166838e-13
-3.57012984e-12
9.475277522e-06
1.41777513e-12
-5.683550958e-12
9.475274505e-06
4.21076271e-12
-1.636456249e-11
9.475266184e-06
6.839098461e-12
-1.634615085e-11
9.475269206e-06
1.761327577e-11
-7.220852e-11
9.475245316e-06
2.879628767e-11
-7.603413763e-11
9.475349751e-06
4.847467668e-11
-3.033119315e-10
1.152866325e-10
-9.243041882e-10
9.475326335e-06
-6.220331773e-13
-1.357703795e-12
9.475327601e-06
1.94175693e-13
-6.540018414e-13
9.475328514e-06
-2.081576659e-13
-7.739388833e-13
9.475328401e-06
-1.602996944e-13
-5.547637755e-13
9.475330415e-06
-5.923724548e-13
5.617463569e-15
9.475328114e-06
-8.29876374e-15
-6.191718828e-13
9.475328509e-06
-3.668353809e-13
-1.514560896e-12
9.475330277e-06
1.320268035e-12
-3.371586246e-12
9.475330289e-06
2.3364892e-12
-3.363699317e-12
9.475333726e-06
5.315435529e-12
-1.016931133e-11
9.475340116e-06
7.076030863e-12
-7.293786821e-12
9.475358216e-06
1.533512342e-11
-3.040512776e-11
9.475370408e-06
2.24834823e-11
-2.21389535e-11
9.475431732e-06
3.047419119e-11
-6.227299334e-11
1.098521496e-10
-2.839099176e-10
9.475338788e-06
-4.095288685e-13
-1.242950011e-12
9.475338447e-06
-5.427757719e-13
-9.838559138e-13
9.475339417e-06
-7.115712531e-13
-2.004214797e-13
9.475338285e-06
-6.73317685e-13
-2.55701994e-13
9.475342167e-06
4.524364362e-13
1.261616466e-12
9.475341428e-06
-7.619528307e-13
6.732310553e-13
9.475342174e-06
1.995132204e-12
-1.415542328e-12
9.475343095e-06
2.460543442e-12
-3.482362265e-12
9.47534329e-06
1.989618686e-12
-4.188861196e-12
9.475344984e-06
6.313319146e-12
-8.82924608e-12
9.475346129e-06
8.565796534e-12
-9.609635488e-12
9.475361484e-06
1.484586773e-11
-2.611704017e-11
9.475372833e-06
2.266028198e-11
-3.594156447e-11
9.475411607e-06
2.524574042e-11
-5.449848919e-11
7.784123366e-11
-1.892000528e-10
9.475300909e-06
-7.199436164e-13
-7.602110565e-13
9.475301315e-06
-4.587948074e-13
-1.025018256e-12
9.475302685e-06
-1.133689652e-13
9.939596693e-13
9.475303068e-06
6.393525333e-13
1.630630431e-12
9.475304347e-06
1.515751965e-13
3.00410599e-13
9.475304278e-06
4.906245046e-13
-3.433381045e-14
9.475304459e-06
8.320587278e-13
-1.288748472e-12
9.475306506e-06
1.130703756e-12
-3.201707618e-12
9.475311134e-06
1.976678498e-12
-3.400751869e-12
9.475311831e-06
2.476038952e-12
-7.691042029e-12
9.475319084e-06
6.748174509e-12
-7.567800493e-12
9.475335103e-06
9.296371012e-12
-1.474534499e-11
9.475354241e-06
1.336391034e-11
-2.283715385e-11
9.475377864e-06
1.182609424e-11
-2.42882332e-11
3.692652729e-11
-7.70469481e-11
9.475329578e-06
4.897917271e-13
9.475328374e-06
-8.536562915e-13
9.475329813e-06
-1.31966937e-13
9.475330221e-06
6.582665214e-13
9.475330869e-06
1.003679782e-12
9.475332481e-06
-1.998774914e-13
9.475332196e-06
-6.06527523e-13
9.475334965e-06
-2.395370927e-12
9.475338839e-06
-2.344685403e-12
9.475344718e-06
-6.261952921e-12
9.475349025e-06
-9.607701308e-12
9.475363578e-06
-1.226232787e-11
9.475384376e-06
-1.997344747e-11
9.475404643e-06
-1.966318329e-11
-4.81414975e-11
9.475328022e-06
9.027740131e-13
-9.123875649e-13
9.475326764e-06
-9.221161835e-13
-4.67229578e-13
9.475329521e-06
-1.841801124e-13
3.193961017e-13
9.475327097e-06
-7.879635934e-13
1.129539615e-13
9.475326818e-06
-4.741640875e-13
-3.34028226e-13
9.475328075e-06
1.444870176e-13
7.099231676e-13
9.475328654e-06
-1.32223758e-12
-9.378281792e-13
9.475330241e-06
1.855006919e-14
-1.48488991e-12
9.475332186e-06
-1.114481966e-12
-2.670760044e-12
9.475333495e-06
-4.766165085e-12
-5.188681708e-12
9.475337698e-06
-6.86573639e-12
-7.927438292e-12
9.475349143e-06
-1.18986336e-11
-1.175407357e-11
9.475370119e-06
-1.820410288e-11
-1.92581077e-11
-2.231763211e-11
-2.108836436e-11
9.475292206e-06
-7.11118429e-13
-1.17614665e-12
9.475294366e-06
7.448333827e-13
-2.657290833e-13
9.475294919e-06
4.597816538e-13
-4.47353522e-13
9.475294386e-06
4.517621014e-15
-1.170295218e-12
9.475293865e-06
-1.029071767e-12
-9.186690888e-13
9.475295387e-06
2.407750472e-13
8.262629166e-14
9.475296743e-06
-1.561262203e-14
-1.253533913e-13
9.475293221e-06
-3.943524182e-12
-4.283455561e-12
9.475294448e-06
-4.292376596e-12
-3.350451274e-12
9.47529645e-06
-7.807045992e-12
-7.08227836e-12
9.475301618e-06
-8.468785645e-12
-7.701449566e-12
9.475315304e-06
-2.551175097e-11
-1.642845083e-11
9.475330094e-06
-3.650374415e-11
-2.347568462e-11
-5.555699569e-11
-2.912972324e-11
9.475308787e-06
-4.391396915e-13
-4.682456972e-14
9.475308414e-06
-3.347941546e-13
-1.457340585e-14
9.475309971e-06
-6.90706325e-13
-2.782457964e-14
9.475308587e-06
-2.00095975e-13
-6.822219331e-13
9.475310127e-06
-1.769675525e-12
-6.439835964e-13
9.475312276e-06
-1.237819225e-12
-1.060945719e-12
9.475309368e-06
-1.83925514e-12
-1.188862346e-12
9.47530903e-06
-2.705655941e-12
-3.03319282e-12
9.475308796e-06
-4.301547106e-12
-3.721206094e-12
9.475306773e-06
-8.276656547e-12
-1.116770839e-11
9.475301594e-06
-7.454636857e-12
-1.086177155e-11
9.475311547e-06
-3.055135343e-11
-3.141142524e-11
9.475308475e-06
-3.492421905e-11
-3.632581013e-11
9.475378638e-06
-8.939524221e-11
-9.126721471e-11
-3.257430604e-10
9.475313643e-06
-2.373659142e-12
-7.263145518e-13
9.475311444e-06
-1.886768518e-12
-3.561105088e-14
9.475313863e-06
-1.196360992e-13
7.172959285e-13
9.47531309e-06
-1.094861027e-12
-1.210814014e-12
9.475315181e-06
1.820663026e-12
-2.036772187e-12
9.475316608e-06
5.152858302e-15
-1.320705563e-12
9.475315083e-06
-1.348908811e-12
-1.275067089e-12
9.475312532e-06
-2.097040419e-12
-3.34443168e-12
9.475313572e-06
-1.885483224e-12
-2.383572004e-12
9.475310414e-06
-8.482079084e-12
-1.215477597e-11
9.475307146e-06
-1.353203405e-11
-4.361652527e-12
9.475325395e-06
-3.589448037e-11
-3.914535497e-11
9.4753274e-06
-5.462913099e-11
1.358533624e-12
9.475457382e-06
-1.451167697e-10
-1.426088589e-10
-3.52204144e-10
-5.923981662e-10
9.475327369e-06
-4.189750967e-13
4.734356679e-13
9.47532516e-06
2.42626444e-13
2.202297286e-14
9.475325658e-06
-6.188896568e-13
-7.303386545e-13
9.475327656e-06
-7.83263336e-13
-2.289546845e-12
9.47532332e-06
-1.22839672e-12
-2.003093294e-12
9.475322708e-06
2.224589291e-12
-1.20888375e-12
9.475321573e-06
1.455449401e-12
-7.595325772e-13
9.475316546e-06
7.224425999e-13
-4.061698651e-12
9.47531064e-06
3.237285841e-12
-3.044768475e-12
9.475297519e-06
7.716501513e-12
-2.037283019e-11
9.475273087e-06
1.125724619e-11
-1.344372606e-11
9.475242448e-06
3.737415046e-11
-1.135132976e-10
9.47512806e-06
5.589319287e-11
-7.575071913e-11
9.475388827e-06
1.446316336e-10
-8.499412246e-10
3.523094699e-10
-2.543081216e-09
9.475344299e-06
4.077380959e-14
1.603111282e-12
9.475343497e-06
8.143148246e-13
2.268762009e-13
9.475344943e-06
6.002775851e-13
8.280566099e-13
9.47534344e-06
-2.320753313e-13
-4.519727299e-13
9.475345588e-06
1.761952769e-13
-4.862225313e-14
9.475343895e-06
-1.789845009e-13
-2.534838508e-12
9.47534327e-06
5.348721792e-13
-1.839569922e-12
9.475344185e-06
1.147601694e-12
-3.778164997e-12
9.475340194e-06
1.980424245e-12
-3.499747509e-12
9.475340897e-06
8.337613215e-12
-1.217369053e-11
9.475341899e-06
9.073333058e-12
-3.707235342e-12
9.475356716e-06
2.924060944e-11
-3.745250892e-11
9.475356168e-06
3.551095741e-11
2.832204912e-12
9.475488416e-06
9.000165978e-11
-1.415712672e-10
3.287241119e-10
-5.91381593e-10
9.475348179e-06
-1.672596867e-14
1.603950052e-13
9.475345224e-06
-2.536348685e-13
-1.317083935e-12
9.475343239e-06
6.321764896e-14
-3.446157158e-13
9.475343248e-06
5.371869856e-13
-2.69059617e-14
9.475344801e-06
-4.884281848e-13
-3.921992776e-13
9.475342718e-06
-1.579447724e-13
-2.005333524e-12
9.475343657e-06
1.762719339e-12
-1.32176732e-12
9.475345672e-06
2.904582257e-12
-2.809553224e-12
9.475340805e-06
3.109358579e-12
-3.032190339e-12
9.475341026e-06
7.588300958e-12
-9.595371814e-12
9.475336802e-06
9.834037721e-12
-7.793826725e-12
9.475347514e-06
2.577365105e-11
-2.825246104e-11
9.475342655e-06
3.650485942e-11
-3.485563568e-11
9.475413843e-06
5.542498985e-11
-8.96858284e-11
1.898939005e-10
-3.30454794e-10
9.475377783e-06
1.084346634e-12
-8.478781712e-13
9.475377997e-06
7.49350346e-13
-9.999382576e-14
9.475379253e-06
-3.418636774e-13
-2.328473333e-13
9.475379546e-06
1.928852856e-13
-1.338882763e-12
9.47538135e-06
2.953251602e-13
4.017914781e-13
9.475381065e-06
-4.178781998e-13
-1.606046187e-12
9.475380019e-06
9.862744651e-13
-2.266232624e-12
9.475382652e-06
2.259628578e-12
-2.388155367e-12
9.475382565e-06
2.879554381e-12
-2.709797302e-12
9.475386052e-06
4.368894573e-12
-6.065662118e-12
9.47538934e-06
5.336327675e-12
-7.334113049e-12
9.475405689e-06
1.312293834e-11
-1.413195081e-11
9.475419819e-06
1.995053268e-11
-2.128713229e-11
9.475455841e-06
2.494415859e-11
-2.921320657e-11
8.386884363e-11
-1.113686969e-10
9.475352405e-06
-1.028517379e-12
9.475351452e-06
-1.0354985e-12
9.475353863e-06
-8.377918145e-13
9.475353005e-06
-4.664818379e-13
9.47535329e-06
3.196929221e-13
9.475356036e-06
1.532135959e-13
9.475354849e-06
-1.928962668e-12
9.475356811e-06
-1.813545026e-12
9.475356093e-06
-1.039807323e-12
9.475362315e-06
-3.229113388e-12
9.475367263e-06
-6.563828051e-12
9.475378392e-06
-1.185358827e-11
9.475398225e-06
-1.912032393e-11
9.475421736e-06
-2.063623286e-11
-5.90611659e-11
9.475357483e-06
4.553846643e-13
-5.839171836e-13
9.475357238e-06
-9.801141251e-13
4.327847804e-13
9.475359961e-06
-1.401571003e-12
2.130036485e-12
9.47535844e-06
-8.353813226e-13
-5.275948268e-14
9.475358306e-06
-1.051973471e-12
-1.038053729e-12
9.475357249e-06
-1.50842738e-12
-7.681039333e-13
9.475359904e-06
4.277865902e-14
-3.719358613e-13
9.475360281e-06
-1.941215407e-12
-1.644114286e-12
9.475360438e-06
-2.298875617e-12
-2.741825786e-12
9.475365397e-06
-5.48536331e-12
-5.057479065e-12
9.475370166e-06
-6.143856825e-12
-6.652703522e-12
9.475384018e-06
-1.43278632e-11
-1.185789142e-11
9.475401461e-06
-1.577680586e-11
-2.015856821e-11
-2.188714362e-11
-2.79875809e-11
9.475357127e-06
5.131245228e-13
-5.14426713e-13
9.475355898e-06
1.229965173e-12
-3.314517467e-13
9.475355749e-06
3.227117312e-13
1.655007379e-12
9.475356212e-06
-1.726693128e-13
-5.580988698e-13
9.475356422e-06
-3.009037666e-13
-1.3351736e-12
9.47535725e-06
-6.988670717e-13
-1.421410763e-12
9.475356531e-06
-1.15390273e-12
-1.29853031e-13
9.475356727e-06
-3.593029984e-12
-2.510560446e-12
9.475357676e-06
-3.830182569e-12
-3.471992955e-12
9.47536213e-06
-1.068883878e-11
-5.415103714e-12
9.475367481e-06
-7.418170631e-12
-7.256306947e-12
9.475384955e-06
-3.129727453e-11
-1.815243478e-11
9.475399599e-06
-2.188750402e-11
-2.936539307e-11
-6.363231776e-11
-5.194021314e-11
9.475347814e-06
-1.488744767e-12
-1.330266076e-12
9.475349571e-06
-9.599358768e-14
-1.995112156e-13
9.475351304e-06
-8.553711663e-13
-2.09623248e-13
9.475350943e-06
-1.218550883e-12
-8.015839235e-13
9.475350575e-06
-1.936732227e-12
-1.708280384e-12
9.475351654e-06
-1.229120243e-12
-1.084592518e-12
9.475350462e-06
-1.350547025e-12
-1.776878276e-12
9.475349318e-06
-2.831358947e-12
-3.865297923e-12
9.475347294e-06
-2.29229599e-12
-3.546000464e-12
9.475347929e-06
-9.346287508e-12
-7.438798744e-12
9.475347628e-06
-1.591590045e-12
-9.767262037e-12
9.475362947e-06
-3.785037577e-11
-3.666133265e-11
9.475363261e-06
2.181136534e-12
-5.595473394e-11
-1.417742543e-10
-1.459691015e-10
9.475291277e-06
-8.792490412e-13
-2.886881954e-13
9.475287819e-06
-1.866878051e-12
-1.96305799e-13
9.475288829e-06
-1.474709491e-12
-1.023567733e-12
9.475287289e-06
-2.155897465e-12
-9.91616305e-13
9.475291502e-06
1.329239522e-12
-3.980127333e-13
9.475288574e-06
-5.841653847e-13
-2.162944359e-12
9.475286831e-06
-1.048499011e-12
-2.507412859e-12
9.475285971e-06
-1.272606854e-12
-4.318875885e-12
9.4752863e-06
-2.25107943e-12
-5.091339e-12
9.475289045e-06
-1.185299533e-11
-1.132971711e-11
9.475309223e-06
-1.430774584e-11
-1.327648028e-11
9.475350669e-06
-5.916038139e-11
-6.062544298e-11
9.475476125e-06
-5.890768987e-11
-6.006470498e-11
9.475723153e-06
-2.634006255e-10
-2.650736128e-10
-5.939051687e-10
9.475396354e-06
7.683233119e-13
9.999931421e-14
9.475394145e-06
3.903260731e-13
7.927436718e-13
9.475394724e-06
8.960191443e-13
-1.680487051e-13
9.475395856e-06
1.071526913e-12
-2.487885289e-15
9.47539351e-06
1.198619734e-12
-1.142102755e-12
9.475391675e-06
1.061872136e-12
-2.726170686e-12
9.475390416e-06
1.003429351e-12
-1.799537708e-12
9.475383249e-06
1.101581393e-12
-4.509514055e-12
9.475373849e-06
3.186779269e-12
-5.946355193e-12
9.475355459e-06
1.082101171e-11
-1.765425553e-11
9.47534169e-06
1.348359987e-11
-2.862867054e-11
9.475267028e-06
6.075420736e-11
-1.640726261e-10
9.475328979e-06
6.158679168e-11
-2.594942051e-10
9.475899651e-06
2.636579719e-10
-1.952964839e-09
5.933408933e-10
-4.491241301e-09
9.475358785e-06
-1.837512466e-12
-6.381765004e-13
9.475358049e-06
-7.459109596e-13
-3.45931282e-13
9.475356234e-06
-7.474605786e-13
-6.444350832e-13
9.475359755e-06
6.368382213e-13
-9.677231235e-13
9.47535889e-06
-2.663916912e-13
-2.140113527e-12
9.475358364e-06
-1.62182186e-13
-2.86916689e-12
9.475357336e-06
3.840692008e-13
-2.783903729e-12
9.475358378e-06
1.812356961e-12
-2.201625837e-12
9.47535512e-06
2.253323257e-12
-4.525469387e-12
9.475359781e-06
1.089371532e-11
-9.695919844e-12
9.475382054e-06
4.397560365e-12
-1.320662088e-11
9.475422358e-06
3.909940294e-11
-6.056154751e-11
9.475544086e-06
-1.869898036e-12
-6.002706202e-11
9.475789565e-06
1.419710689e-10
-2.636887529e-10
5.895372624e-10
-5.940712527e-10
9.475353837e-06
-8.510366438e-13
3.634202329e-13
9.475354667e-06
-5.584986889e-13
3.343486016e-13
9.475354589e-06
1.178491024e-13
-1.834871965e-13
9.475353245e-06
-1.574694845e-13
-1.306936834e-12
9.47535084e-06
-5.822571778e-14
-1.813376849e-12
9.475350731e-06
5.194979823e-13
-1.404994515e-12
9.475349771e-06
1.015477718e-12
-6.917386916e-13
9.475350053e-06
4.076874159e-12
-1.425886901e-12
9.475343847e-06
3.289946283e-12
-3.568406901e-12
9.475345048e-06
9.398809054e-12
-7.280137651e-12
9.475344417e-06
6.723276642e-12
-1.16768618e-11
9.475357478e-06
3.045564552e-11
-3.692483781e-11
9.475358139e-06
2.204594041e-11
-5.524209053e-11
9.475490869e-06
6.251073671e-11
-1.443791356e-10
2.851931823e-10
-3.518355525e-10
9.475300254e-06
8.576313099e-13
4.104960968e-13
9.475299964e-06
-3.593319251e-13
2.928416313e-13
9.475299523e-06
-1.400667975e-12
1.586908638e-13
9.475300354e-06
6.254213827e-14
1.623347801e-13
9.475298075e-06
7.600315915e-14
-6.809579425e-13
9.475300871e-06
9.70147155e-13
-1.193893519e-12
9.47530161e-06
1.24099352e-12
-1.485214761e-12
9.475303454e-06
2.820727427e-12
1.782493445e-13
9.475302479e-06
3.868990608e-12
-1.378654886e-12
9.475306575e-06
6.89407431e-12
-3.327311404e-12
9.475313121e-06
5.417817599e-12
-7.402814947e-12
9.475330563e-06
1.310750529e-11
-1.888279032e-11
9.475345351e-06
1.432373779e-11
-2.954856019e-11
9.475403522e-06
2.441178837e-11
-4.848563773e-11
1.213898021e-10
-1.147312363e-10
9.475354382e-06
-1.757886903e-13
9.475354065e-06
2.325714996e-13
9.475356733e-06
-2.961546776e-13
9.475356967e-06
3.483668926e-14
9.475356711e-06
2.135577492e-13
9.475357009e-06
-6.233841561e-13
9.475358642e-06
-1.13110486e-12
9.475359515e-06
-1.957066071e-12
9.475358683e-06
-2.644760314e-12
9.475363036e-06
-2.68199598e-12
9.475369248e-06
-5.450370197e-12
9.475383161e-06
-1.110754482e-11
9.475402087e-06
-2.005510741e-11
9.475432395e-06
-2.754659904e-11
-5.766206235e-11
9.475341592e-06
2.170181203e-14
-1.837527246e-12
9.475340978e-06
-1.217656607e-12
-3.801914066e-12
9.475339455e-06
-4.712998584e-13
-6.387735903e-13
9.475339122e-06
-2.048602781e-12
-2.767482939e-13
9.475341974e-06
-1.470882042e-12
-1.473313712e-12
9.475341044e-06
-4.473418962e-13
-1.172109193e-12
9.475340002e-06
-6.353152832e-13
-1.341464935e-12
9.475339048e-06
-2.478382466e-12
4.48740836e-13
9.475339281e-06
-2.814443474e-12
1.41217247e-12
9.475340971e-06
-7.835902769e-12
3.145862085e-12
9.475339936e-06
-8.862268518e-12
6.059185773e-12
9.475345877e-06
-3.014256988e-11
8.23442285e-12
9.475350489e-06
-4.181948047e-11
1.734754389e-11
-1.002067208e-10
2.605399217e-11
9.475327422e-06
-3.561626714e-13
-1.675969728e-12
9.475327903e-06
-3.763690953e-13
-1.970757565e-12
9.475326138e-06
-6.380114393e-13
-2.407813298e-12
9.475327813e-06
2.825686194e-13
-4.683168773e-13
9.475328704e-06
-3.550185855e-13
1.135324737e-13
9.475329436e-06
-1.686929075e-12
-1.433626806e-12
9.475324495e-06
-3.68330808e-12
-2.532142232e-12
9.475326005e-06
-5.9154386e-12
-3.326091128e-13
9.475323512e-06
-5.904027851e-12
7.590782477e-13
9.47532323e-06
-1.64647959e-11
4.788058952e-12
9.475317462e-06
-1.397455398e-11
7.084921652e-12
9.475318644e-06
-7.041389131e-11
1.677577105e-11
9.4752966e-06
-7.449399959e-11
2.794568363e-11
-3.025832327e-10
4.906276868e-11
9.475311069e-06
-4.575311175e-13
-2.358306561e-12
9.475311857e-06
-1.306900392e-13
-7.929463276e-13
9.475310404e-06
-1.683844811e-12
-1.486305249e-12
9.475309705e-06
-1.156191597e-12
-1.145033021e-12
9.475309801e-06
-7.990955496e-13
2.177406685e-14
9.475309433e-06
-1.955852764e-12
2.142606278e-13
9.475305241e-06
-1.844256835e-12
-1.181049567e-12
9.475303481e-06
-3.58790665e-12
5.499321908e-13
9.475295201e-06
-4.271406925e-12
1.652065358e-12
9.47528453e-06
-1.753840033e-11
7.84432216e-12
9.475255208e-06
-1.303582021e-11
1.080789601e-11
9.475224122e-06
-1.131833014e-10
3.648173288e-11
9.475111092e-06
-7.460733164e-11
5.612915218e-11
-8.494289859e-10
1.449220446e-10
9.475378256e-06
-3.975805683e-13
-2.258235953e-12
9.475375227e-06
-2.342287775e-13
-1.543013878e-12
9.475376524e-06
-9.237154923e-13
-1.777076125e-13
9.475373896e-06
-1.446671268e-12
7.04831763e-13
9.475373369e-06
-1.643631436e-13
6.459250912e-13
9.47537411e-06
-1.070893181e-12
3.942347815e-13
9.475369375e-06
-1.678512298e-12
-4.388813873e-13
9.475363816e-06
-2.103208232e-12
2.078842372e-12
9.47536019e-06
-3.072704272e-12
2.756982368e-12
9.475339507e-06
-1.845764419e-11
1.068088218e-11
9.47532471e-06
-2.822637696e-11
1.305539824e-11
9.475253071e-06
-1.623664408e-10
6.058948054e-11
9.475316e-06
-2.577782996e-10
6.003474391e-11
-1.95114701e-09
2.641103117e-10
9.475304997e-06
-2.898833339e-13
-1.204714163e-12
9.47530256e-06
-5.076790194e-13
-8.91676648e-13
9.475304623e-06
9.821217653e-13
1.131826086e-12
9.475305828e-06
-1.951994989e-13
3.948250271e-13
9.475303927e-06
8.700513082e-13
1.598475833e-12
9.475303251e-06
6.852356488e-13
2.16537209e-12
9.475298547e-06
2.020613788e-13
1.320714814e-12
9.475284462e-06
3.575735302e-12
2.804981306e-12
9.47526433e-06
5.136524376e-12
4.156766346e-12
9.475185066e-06
1.953168976e-11
1.842904479e-11
9.475067876e-06
2.83322676e-11
2.931224906e-11
9.474411154e-06
1.636534095e-10
1.632625435e-10
9.473377483e-06
2.597969444e-10
2.585098455e-10
9.465563927e-06
1.95268429e-09
1.952256155e-09
4.491237401e-09
9.47535845e-06
1.544771108e-13
-2.741520223e-13
9.475359422e-06
1.162076001e-13
3.494846845e-13
9.475357861e-06
-9.277944676e-13
-1.482438956e-14
9.475358708e-06
3.71815844e-13
-4.714168758e-13
9.475355196e-06
-9.292328486e-13
-2.602276613e-13
9.475355176e-06
1.186556274e-12
1.003383472e-12
9.47535479e-06
2.969129983e-12
6.81507889e-13
9.475345174e-06
3.448737527e-12
1.244180259e-12
9.475338586e-06
4.407568884e-12
2.497310033e-12
9.47531612e-06
1.84150177e-11
1.094494578e-11
9.4753061e-06
1.453472671e-11
1.513871861e-11
9.475234247e-06
1.151954917e-10
6.11440878e-11
9.475295052e-06
7.662450507e-11
6.069648146e-11
9.475866924e-06
8.508543526e-10
2.643103241e-10
2.541861668e-09
9.475318822e-06
-1.082181378e-12
-1.163426807e-13
9.475318569e-06
-2.21696426e-13
5.825864816e-13
9.475318516e-06
1.30164728e-13
-1.27291294e-12
9.475319164e-06
9.306274105e-13
-7.956859365e-13
9.475321377e-06
1.346608849e-12
8.44338709e-13
9.475320995e-06
7.319572606e-13
6.05490252e-13
9.475318409e-06
6.798752812e-13
2.95827493e-13
9.475317526e-06
5.355667702e-12
2.447837104e-12
9.475309642e-06
5.053654922e-12
2.602249319e-12
9.475298505e-06
1.696276773e-11
1.01932521e-11