/*--------------------------------*- C++ -*----------------------------------*\
| =========                 |                                                 |
| \\      /  F ield         | OpenFOAM: The Open Source CFD Toolbox           |
|  \\    /   O peration     | Version:  4.x                                   |
|   \\  /    A nd           | Web:      www.OpenFOAM.org                      |
|    \\/     M anipulation  |                                                 |
\*---------------------------------------------------------------------------*/
FoamFile
{
    version     2.0;
    format      ascii;
    class       volScalarField;
    location    "8000";
    object      rho;
}
// * * * * * * * * * * * * * * * * * * * * * * * * * * * * * * * * * * * * * //

dimensions      [1 -3 0 0 0 0 0];

internalField   nonuniform List<scalar> 
1175
(
0.2790915788
0.2790915861
0.2790915543
0.279091562
0.2790915527
0.2790915533
0.2790915434
0.2790915348
0.2790915269
0.2790915043
0.2790915111
0.2790915312
0.279091548
0.2790915562
0.279091672
0.2790903134
0.2790902969
0.2790902736
0.2790902877
0.2790903026
0.2790902619
0.279090234
0.27909024
0.2790901884
0.2790902014
0.2790902224
0.2790902162
0.2790902681
0.279090348
0.2790905022
0.2790917977
0.2790917991
0.279091789
0.2790917893
0.2790917776
0.2790917837
0.279091791
0.2790917835
0.2790917528
0.2790917827
0.2790918029
0.2790918049
0.2790918584
0.2790920121
0.2790923423
0.2790924833
0.2790924682
0.2790925283
0.2790925047
0.2790925108
0.279092518
0.2790925227
0.279092501
0.2790925011
0.2790925089
0.2790924638
0.2790925335
0.2790926723
0.2790929608
0.2790934548
0.279092485
0.2790924828
0.2790924825
0.2790924853
0.2790925015
0.2790924777
0.2790924566
0.2790924365
0.2790924521
0.2790924595
0.279092467
0.2790925494
0.2790926559
0.2790929763
0.2790936527
0.2790915629
0.2790915974
0.2790915623
0.2790915729
0.2790915592
0.2790915644
0.2790915724
0.279091574
0.2790915539
0.279091505
0.279091573
0.2790915879
0.2790916787
0.2790919486
0.2790924549
0.2790913835
0.2790913578
0.2790913629
0.2790913656
0.2790913246
0.2790913653
0.2790913481
0.2790913916
0.2790914307
0.2790914176
0.2790914385
0.2790914774
0.2790915254
0.2790916707
0.2790919783
0.2790919947
0.2790919563
0.2790919506
0.2790919085
0.2790918849
0.279091911
0.2790918943
0.2790918668
0.2790918504
0.2790918506
0.2790918522
0.2790918967
0.2790919225
0.2790920074
0.2790921596
0.2790915939
0.2790915698
0.279091561
0.2790915819
0.2790915822
0.2790915672
0.2790915719
0.2790915419
0.2790915529
0.2790915591
0.2790915754
0.2790915606
0.2790915924
0.279091623
0.2790917277
0.2790911293
0.2790911509
0.2790911443
0.2790911313
0.2790911255
0.2790911111
0.2790910892
0.2790910931
0.2790911027
0.2790910957
0.2790910858
0.2790910916
0.2790910902
0.2790911736
0.2790931538
0.2790931579
0.279093168
0.2790931555
0.2790931538
0.2790931323
0.2790930915
0.2790930553
0.2790930505
0.2790930883
0.2790931301
0.2790931653
0.2790932137
0.2790933763
0.2790936754
0.2790929899
0.2790930118
0.2790930221
0.279092994
0.279093004
0.2790930056
0.2790930218
0.2790929758
0.2790930113
0.2790929799
0.2790930081
0.2790930722
0.2790932439
0.2790935796
0.2790942454
0.2790905937
0.2790906139
0.2790906388
0.2790906451
0.2790906153
0.2790906381
0.2790906158
0.2790906119
0.2790906039
0.2790906214
0.2790906638
0.2790907636
0.2790910606
0.2790917784
0.2790932124
0.2790901199
0.2790900714
0.2790900532
0.2790900807
0.2790900651
0.2790900864
0.2790900612
0.2790901285
0.2790901453
0.2790901296
0.2790901608
0.2790902501
0.2790906184
0.2790916477
0.2790939202
0.2790914834
0.279091477
0.2790914761
0.2790914922
0.2790915552
0.2790915518
0.279091558
0.2790915314
0.2790915213
0.2790914919
0.2790915231
0.2790916155
0.2790918888
0.2790926053
0.2790940559
0.2790918154
0.2790918374
0.2790918495
0.2790918586
0.279091875
0.2790918653
0.279091827
0.2790918046
0.2790917446
0.2790917499
0.2790917651
0.2790918278
0.279091968
0.2790922856
0.279092947
0.2790906865
0.2790906876
0.2790906928
0.2790907212
0.279090712
0.2790907018
0.2790907119
0.2790907037
0.2790906618
0.2790906638
0.2790906605
0.2790906581
0.2790907279
0.2790908815
0.2790911854
0.2790915166
0.2790915259
0.2790915009
0.2790915276
0.2790915083
0.2790915003
0.2790914729
0.2790914783
0.2790914939
0.2790915047
0.2790915162
0.2790914933
0.2790915228
0.2790916054
0.2790917584
0.2790914918
0.279091477
0.2790914784
0.2790914905
0.2790914933
0.2790914723
0.2790914592
0.2790914352
0.2790913913
0.2790913817
0.2790913989
0.2790914173
0.2790914583
0.2790916133
0.2790904596
0.2790904579
0.2790904663
0.2790904627
0.2790904477
0.2790904883
0.2790904653
0.2790904582
0.2790904706
0.2790904371
0.2790904364
0.2790905228
0.2790906276
0.2790909731
0.2790909185
0.2790909423
0.2790909466
0.279090943
0.2790909818
0.2790909455
0.2790909607
0.2790909222
0.2790909448
0.2790909701
0.2790909871
0.2790910763
0.2790914064
0.279092372
0.2790943108
0.279091013
0.2790910359
0.2790910681
0.2790910952
0.2790911173
0.279091143
0.2790911264
0.2790911556
0.2790911443
0.2790911566
0.2790911937
0.2790914084
0.2790921995
0.2790945778
0.2790997314
0.2790914211
0.2790914425
0.2790914198
0.2790914175
0.2790914136
0.2790913939
0.2790913806
0.2790913605
0.2790913626
0.279091369
0.2790914852
0.2790918872
0.2790932439
0.2790976045
0.2791084453
0.2790919291
0.2790919181
0.2790919104
0.2790919018
0.2790919327
0.279091966
0.2790919851
0.2790920124
0.2790920314
0.279091995
0.2790920145
0.2790922593
0.2790930823
0.2790954726
0.2791006636
0.2790920308
0.2790919754
0.2790919452
0.2790919649
0.2790919591
0.2790919381
0.2790919166
0.2790919286
0.2790919445
0.2790919874
0.2790919918
0.279092078
0.2790924603
0.2790934135
0.2790953334
0.2790929044
0.2790929424
0.2790930086
0.279092985
0.2790929853
0.2790929879
0.2790930035
0.2790929711
0.2790929775
0.279093002
0.2790930529
0.2790930906
0.2790932143
0.2790935343
0.2790942375
0.2790922108
0.2790922071
0.2790922241
0.2790921876
0.2790922248
0.2790922108
0.2790921934
0.2790921632
0.2790921766
0.2790921557
0.2790921677
0.2790921859
0.2790922875
0.2790924457
0.2790927705
0.2790923599
0.2790923566
0.2790923601
0.2790923472
0.2790923319
0.2790923499
0.2790923198
0.2790922936
0.2790923403
0.2790923402
0.2790923098
0.2790923968
0.2790925188
0.2790927635
0.2790923156
0.2790923049
0.2790923107
0.2790922864
0.279092286
0.2790922952
0.2790923114
0.2790923564
0.2790923659
0.2790923289
0.279092366
0.2790924685
0.2790927115
0.2790934065
0.2790921053
0.2790921629
0.2790921349
0.2790921755
0.2790921907
0.2790921971
0.2790921881
0.2790921576
0.2790921427
0.2790921951
0.2790922633
0.2790924826
0.2790932882
0.2790956887
0.2790903577
0.2790903339
0.2790903534
0.2790903617
0.2790903466
0.2790903947
0.2790903735
0.2790903431
0.2790903778
0.2790903701
0.2790904872
0.2790910512
0.2790932359
0.279100757
0.2791199376
0.2790934854
0.2790934741
0.2790934721
0.2790934128
0.2790934709
0.2790934458
0.2790934157
0.2790934473
0.2790934389
0.2790933958
0.279093614
0.2790945348
0.2790987738
0.2791172583
0.2791819408
0.2790923871
0.2790923835
0.2790923913
0.2790923909
0.2790924095
0.2790924083
0.2790923818
0.2790923934
0.279092454
0.2790924598
0.2790926311
0.2790931552
0.2790953042
0.279102786
0.2791219435
0.2790922331
0.2790922327
0.2790922377
0.2790922721
0.2790922394
0.2790921916
0.2790921955
0.2790921655
0.2790921237
0.2790921318
0.279092168
0.279092422
0.2790931807
0.2790955365
0.2791006733
0.2790906279
0.2790906734
0.2790906411
0.279090627
0.2790906296
0.279090652
0.2790906671
0.2790906691
0.2790906756
0.2790906911
0.2790907605
0.279090834
0.2790910754
0.2790917297
0.2790932046
0.2790922764
0.2790922611
0.2790922509
0.2790922819
0.2790922776
0.2790922997
0.279092275
0.2790923021
0.2790922948
0.2790922867
0.2790922667
0.279092295
0.2790923838
0.2790926587
0.2790931829
0.2790918688
0.2790918908
0.2790918575
0.2790918712
0.2790918788
0.279091857
0.2790918646
0.2790918395
0.2790918285
0.2790918552
0.2790918722
0.2790919204
0.2790920533
0.2790924238
0.279091447
0.2790914843
0.2790914747
0.2790914504
0.2790914599
0.2790915071
0.2790915422
0.2790914569
0.2790914728
0.2790914709
0.279091497
0.2790916409
0.2790920747
0.2790931963
0.2790909949
0.2790909981
0.2790909888
0.2790909365
0.2790909515
0.2790909676
0.2790909467
0.2790909147
0.2790909467
0.279090931
0.2790910056
0.2790913542
0.2790926744
0.2790970432
0.2790929601
0.2790929244
0.2790928946
0.2790928743
0.2790928533
0.2790928318
0.2790928221
0.2790928557
0.2790928873
0.2790929081
0.279093147
0.2790940692
0.2790983129
0.2791168711
0.2790907972
0.2790908084
0.2790908211
0.2790908158
0.2790908346
0.2790908093
0.2790908334
0.2790907938
0.2790908184
0.2790908484
0.2790911644
0.2790929144
0.2791036311
0.2791730215
0.2805450217
0.2790923787
0.2790924132
0.2790924149
0.2790924101
0.2790923872
0.2790923141
0.2790923006
0.2790923301
0.279092285
0.2790923248
0.2790925255
0.2790934646
0.2790977438
0.2791162719
0.2791810374
0.279091251
0.279091239
0.2790912375
0.2790912543
0.2790912289
0.2790913132
0.2790913403
0.2790913424
0.2790913522
0.2790913836
0.2790914212
0.2790918167
0.279093103
0.2790974287
0.2791082272
0.2790908191
0.2790908343
0.2790907962
0.2790907979
0.2790908366
0.2790908732
0.2790908166
0.2790908023
0.2790907942
0.2790907885
0.2790908388
0.279091012
0.2790914119
0.2790924886
0.2790947925
0.2790921678
0.2790921445
0.2790921485
0.2790921225
0.2790921136
0.2790921247
0.2790921243
0.2790921182
0.2790921364
0.2790921357
0.2790921586
0.2790922184
0.2790923049
0.2790926569
0.2790933315
0.2790902807
0.2790902799
0.2790903031
0.2790902568
0.2790902591
0.2790902794
0.2790902769
0.2790902772
0.2790902917
0.2790903211
0.2790903577
0.2790903813
0.2790905273
0.2790907936
0.2790916093
0.2790916156
0.2790916479
0.2790916369
0.2790916588
0.2790916195
0.2790916357
0.2790916355
0.2790916635
0.2790917253
0.279091774
0.2790918625
0.2790921836
0.2790929529
0.2790913587
0.2790913467
0.2790912881
0.279091312
0.2790913086
0.2790912968
0.2790912837
0.2790913258
0.279091318
0.279091319
0.2790913551
0.2790915756
0.2790924038
0.2790947878
0.2790917248
0.2790917331
0.2790917471
0.2790917639
0.2790917623
0.2790917578
0.2790917645
0.2790917923
0.2790917949
0.2790918564
0.2790919935
0.2790924948
0.2790946387
0.2791021354
0.279090152
0.279090172
0.2790901508
0.2790901635
0.2790901717
0.2790902167
0.2790902072
0.2790901843
0.2790901984
0.2790902363
0.2790904439
0.2790913481
0.27909563
0.279114218
0.2790931286
0.2790930569
0.2790930346
0.2790930548
0.2790930534
0.2790930645
0.279093077
0.279093068
0.2790930641
0.279093106
0.2790932361
0.2790937899
0.2790959299
0.279103436
0.2790916952
0.279091711
0.279091768
0.2790917777
0.2790917727
0.2790917633
0.2790918002
0.2790918009
0.279091806
0.2790918644
0.2790919466
0.2790921608
0.2790929463
0.2790953171
0.2791004424
0.279090209
0.2790901847
0.2790901904
0.279090222
0.2790902242
0.2790902287
0.279090221
0.2790902698
0.279090268
0.2790902523
0.2790903069
0.279090403
0.2790906659
0.2790913776
0.2790928545
0.2790916025
0.2790915878
0.2790916079
0.2790916019
0.2790916486
0.2790916335
0.2790916443
0.2790916482
0.2790916561
0.2790917106
0.2790916954
0.2790917588
0.2790918845
0.2790921191
0.2790926821
0.27909216
0.2790921635
0.279092167
0.2790921634
0.2790921426
0.2790921579
0.2790921588
0.2790921726
0.2790921225
0.2790921308
0.2790921016
0.2790921264
0.2790921707
0.2790923569
0.2790931179
0.2790931075
0.279093082
0.2790930767
0.2790931131
0.2790931228
0.2790931352
0.2790931329
0.2790930867
0.2790930776
0.2790931001
0.2790931152
0.2790932446
0.2790935757
0.2790911482
0.2790911125
0.2790910969
0.2790910998
0.2790911216
0.2790910734
0.2790910703
0.2790910701
0.2790910929
0.2790910991
0.2790911297
0.2790912635
0.2790916221
0.2790925268
0.2790916147
0.2790916011
0.2790915926
0.2790915463
0.2790915475
0.2790915961
0.2790915529
0.2790915411
0.2790915259
0.2790915318
0.2790916017
0.2790918365
0.2790926149
0.279094943
0.2790908854
0.2790908861
0.2790909004
0.2790909192
0.279090957
0.2790909539
0.2790909458
0.279090923
0.2790909156
0.2790908938
0.2790909932
0.2790913646
0.2790927178
0.279097105
0.2790921268
0.2790921576
0.2790921156
0.2790920988
0.2790920997
0.2790920608
0.2790920707
0.27909206
0.2790920869
0.2790920664
0.2790921573
0.2790923884
0.2790932338
0.2790956132
0.2790918604
0.2790918553
0.2790918128
0.2790917952
0.2790918133
0.2790918331
0.2790918382
0.2790918201
0.2790918035
0.2790918359
0.279091882
0.279092026
0.2790923501
0.2790932668
0.2790917241
0.2790917734
0.2790917351
0.2790917675
0.2790917619
0.2790917586
0.2790917924
0.279091755
0.2790917345
0.2790917227
0.279091764
0.2790918126
0.2790919652
0.279092322
0.2790930083
0.2790923077
0.279092311
0.2790922927
0.2790923079
0.2790923102
0.2790923136
0.2790923408
0.2790923453
0.2790923267
0.2790923305
0.2790923146
0.2790923496
0.2790923962
0.2790925277
0.2790928214
0.2790916247
0.2790915962
0.2790915817
0.2790915835
0.2790916328
0.2790916576
0.2790916549
0.2790916618
0.279091672
0.2790916973
0.2790917105
0.279091733
0.2790917426
0.2790917874
0.2790916242
0.2790916254
0.2790916306
0.279091623
0.2790916541
0.2790916723
0.2790916948
0.2790916579
0.2790916462
0.2790916489
0.2790916763
0.2790917072
0.2790918096
0.279091918
0.2790924701
0.2790924166
0.2790924024
0.2790924216
0.2790924075
0.2790923714
0.2790923635
0.2790923427
0.2790923262
0.2790923188
0.2790923267
0.2790923602
0.2790925189
0.2790928858
0.2790911099
0.2790910796
0.2790910806
0.2790911186
0.2790911003
0.2790910913
0.279091083
0.2790910723
0.279091123
0.2790911252
0.2790911411
0.2790912436
0.2790914806
0.2790921874
0.2790913234
0.2790913201
0.2790913517
0.2790913444
0.2790913384
0.2790913582
0.2790913471
0.27909133
0.2790913328
0.2790913466
0.2790913712
0.2790915091
0.2790918911
0.2790929529
0.2790910312
0.2790910438
0.2790910182
0.2790910141
0.2790910141
0.2790909983
0.2790910528
0.2790910218
0.2790909949
0.2790910335
0.279091049
0.2790911509
0.2790913784
0.2790920387
0.2790936492
0.2790936849
0.2790936956
0.2790937071
0.2790936908
0.2790936841
0.2790936699
0.279093666
0.2790936843
0.2790937013
0.2790937163
0.2790937255
0.2790939127
0.2790942541
0.2790935002
0.2790934996
0.2790935031
0.2790934923
0.279093509
0.2790935384
0.2790935216
0.2790935126
0.2790935119
0.2790934934
0.279093531
0.2790935758
0.2790936378
0.279093806
0.2790923222
0.2790923203
0.2790922896
0.2790923046
0.2790922861
0.2790922696
0.2790922591
0.2790922927
0.279092282
0.2790923066
0.2790923269
0.2790923408
0.2790923781
0.2790924436
0.2790926264
0.2790927482
0.2790927645
0.2790927719
0.2790927549
0.27909274
0.2790927416
0.2790926931
0.2790927177
0.2790927372
0.279092743
0.2790927297
0.27909274
0.2790927664
0.2790928138
0.2790908896
0.279090898
0.2790908977
0.2790908763
0.2790909051
0.279090922
0.2790909533
0.2790909498
0.2790909528
0.2790909389
0.2790909124
0.2790908931
0.2790909311
0.2790910069
0.2790916377
0.2790916304
0.2790916279
0.279091594
0.2790915997
0.2790915713
0.2790915935
0.2790916501
0.2790916677
0.2790916386
0.2790916225
0.2790916367
0.2790917101
0.2790918832
0.2790922892
0.279092285
0.2790922933
0.2790922744
0.2790922669
0.2790922675
0.2790922723
0.2790922737
0.2790922558
0.2790922375
0.2790922432
0.2790923001
0.2790924568
0.2790927124
0.2790925681
0.2790925845
0.2790925724
0.2790925843
0.2790925874
0.2790925657
0.2790925695
0.2790925976
0.2790925628
0.2790925472
0.2790925868
0.2790926075
0.2790927562
0.2790930836
0.2790927263
0.2790926971
0.2790927017
0.2790927031
0.2790926836
0.2790927
0.2790927155
0.2790927112
0.2790927465
0.2790927308
0.2790927037
0.2790927586
0.2790928657
0.2790931341
0.2790918853
0.279091863
0.2790918479
0.2790918377
0.2790918665
0.279091859
0.2790918622
0.2790918825
0.2790918675
0.2790919139
0.2790919244
0.2790919812
0.2790920222
0.2790921661
0.27909103
0.2790910084
0.2790910307
0.2790910784
0.2790910728
0.2790910624
0.2790910367
0.2790910593
0.2790910311
0.2790910031
0.2790910028
0.2790910374
0.2790910558
0.2790911032
0.2790923621
0.2790923503
0.2790923638
0.2790923506
0.279092357
0.2790923654
0.2790923532
0.2790923395
0.2790923233
0.2790922992
0.2790922915
0.2790923207
0.2790923435
0.2790924122
)
;

boundaryField
{
    top
    {
        type            calculated;
        value           nonuniform List<scalar> 
134
(
0.2790915939
0.2790915166
0.2790922108
0.2790922764
0.2790921678
0.2790916025
0.2790923077
0.2790923222
0.2790923621
0.2790915698
0.2790915259
0.2790922071
0.2790922611
0.2790921445
0.2790915878
0.279092311
0.2790923203
0.2790923503
0.279091561
0.2790915009
0.2790922241
0.2790922509
0.2790921485
0.2790916079
0.2790922927
0.2790922896
0.2790923638
0.2790915819
0.2790915276
0.2790921876
0.2790922819
0.2790921225
0.2790916019
0.2790923079
0.2790923046
0.2790923506
0.2790915822
0.2790915083
0.2790922248
0.2790922776
0.2790921136
0.2790916486
0.2790923102
0.2790922861
0.279092357
0.2790915672
0.2790915003
0.2790922108
0.2790922997
0.2790921247
0.2790916335
0.2790923136
0.2790922696
0.2790923654
0.2790915719
0.2790914729
0.2790921934
0.279092275
0.2790921243
0.2790916443
0.2790923408
0.2790922591
0.2790923532
0.2790915419
0.2790914783
0.2790921632
0.2790923021
0.2790921182
0.2790916482
0.2790923453
0.2790922927
0.2790923395
0.2790915529
0.2790914939
0.2790921766
0.2790922948
0.2790921364
0.2790916561
0.2790923267
0.279092282
0.2790923233
0.2790915591
0.2790915047
0.2790921557
0.2790922867
0.2790921357
0.2790917106
0.2790923305
0.2790923066
0.2790922992
0.2790915754
0.2790915162
0.2790921677
0.2790922667
0.2790921586
0.2790916954
0.2790923146
0.2790923269
0.2790922915
0.2790915606
0.2790914933
0.2790921859
0.279092295
0.2790922184
0.2790917588
0.2790923496
0.2790923408
0.2790923207
0.2790915924
0.2790915228
0.2790922875
0.2790923838
0.2790923049
0.2790918845
0.2790923962
0.2790923781
0.2790923435
0.279091623
0.2790916054
0.2790924457
0.2790926587
0.2790926569
0.2790921191
0.2790925277
0.2790924436
0.2790924122
0.2790917277
0.2790917584
0.2790927705
0.2790931829
0.2790933315
0.2790926821
0.2790928214
0.2790926264
)
;
    }
    bottom
    {
        type            calculated;
        value           nonuniform List<scalar> 
127
(
0.2790915788
0.2790911293
0.2790914918
0.2790923599
0.2790918688
0.2790902807
0.27909216
0.2790916247
0.2790927482
0.2790915861
0.2790911509
0.279091477
0.2790923566
0.2790918908
0.2790902799
0.2790921635
0.2790915962
0.2790927645
0.2790915543
0.2790911443
0.2790914784
0.2790923601
0.2790918575
0.2790903031
0.279092167
0.2790915817
0.2790927719
0.279091562
0.2790911313
0.2790914905
0.2790923472
0.2790918712
0.2790902568
0.2790921634
0.2790915835
0.2790927549
0.2790915527
0.2790911255
0.2790914933
0.2790923319
0.2790918788
0.2790902591
0.2790921426
0.2790916328
0.27909274
0.2790915533
0.2790911111
0.2790914723
0.2790923499
0.279091857
0.2790902794
0.2790921579
0.2790916576
0.2790927416
0.2790915434
0.2790910892
0.2790914592
0.2790923198
0.2790918646
0.2790902769
0.2790921588
0.2790916549
0.2790926931
0.2790915348
0.2790910931
0.2790914352
0.2790922936
0.2790918395
0.2790902772
0.2790921726
0.2790916618
0.2790927177
0.2790915269
0.2790911027
0.2790913913
0.2790923403
0.2790918285
0.2790902917
0.2790921225
0.279091672
0.2790927372
0.2790915043
0.2790910957
0.2790913817
0.2790923402
0.2790918552
0.2790903211
0.2790921308
0.2790916973
0.279092743
0.2790915111
0.2790910858
0.2790913989
0.2790923098
0.2790918722
0.2790903577
0.2790921016
0.2790917105
0.2790927297
0.2790915312
0.2790910916
0.2790914173
0.2790923968
0.2790919204
0.2790903813
0.2790921264
0.279091733
0.27909274
0.279091548
0.2790910902
0.2790914583
0.2790925188
0.2790920533
0.2790905273
0.2790921707
0.2790917426
0.2790927664
0.2790915562
0.2790911736
0.2790916133
0.2790927635
0.2790924238
0.2790907936
0.2790923569
0.2790917874
0.2790928138
0.279091672
)
;
    }
    side-walls
    {
        type            calculated;
        value           nonuniform List<scalar> 
261
(
0.2790915788
0.2790903134
0.2790917977
0.2790924833
0.279092485
0.2790915629
0.2790913835
0.2790919947
0.2790915939
0.2790915861
0.2790902969
0.2790917991
0.2790924682
0.2790924828
0.2790915974
0.2790913578
0.2790919563
0.2790915698
0.2790915543
0.2790902736
0.279091789
0.2790925283
0.2790924825
0.2790915623
0.2790913629
0.2790919506
0.279091561
0.279091562
0.2790902877
0.2790917893
0.2790925047
0.2790924853
0.2790915729
0.2790913656
0.2790919085
0.2790915819
0.2790915527
0.2790903026
0.2790917776
0.2790925108
0.2790925015
0.2790915592
0.2790913246
0.2790918849
0.2790915822
0.2790915533
0.2790902619
0.2790917837
0.279092518
0.2790924777
0.2790915644
0.2790913653
0.279091911
0.2790915672
0.2790915434
0.279090234
0.279091791
0.2790925227
0.2790924566
0.2790915724
0.2790913481
0.2790918943
0.2790915719
0.2790915348
0.27909024
0.2790917835
0.279092501
0.2790924365
0.279091574
0.2790913916
0.2790918668
0.2790915419
0.2790915269
0.2790901884
0.2790917528
0.2790925011
0.2790924521
0.2790915539
0.2790914307
0.2790918504
0.2790915529
0.2790915043
0.2790902014
0.2790917827
0.2790925089
0.2790924595
0.279091505
0.2790914176
0.2790918506
0.2790915591
0.2790915111
0.2790902224
0.2790918029
0.2790924638
0.279092467
0.279091573
0.2790914385
0.2790918522
0.2790915754
0.2790915312
0.2790902162
0.2790918049
0.2790925335
0.2790925494
0.2790915879
0.2790914774
0.2790918967
0.2790915606
0.279091548
0.2790902681
0.2790918584
0.2790926723
0.2790926559
0.2790916787
0.2790915254
0.2790919225
0.2790915924
0.2790915562
0.279090348
0.2790920121
0.2790929608
0.2790929763
0.2790919486
0.2790916707
0.2790920074
0.279091623
0.279091672
0.2790905022
0.2790923423
0.2790934548
0.2790936527
0.2790924549
0.2790919783
0.2790921596
0.2790917277
0.2790927482
0.2790908896
0.2790916377
0.2790922892
0.2790925681
0.2790927263
0.2790918853
0.27909103
0.2790923621
0.2790927645
0.279090898
0.2790916304
0.279092285
0.2790925845
0.2790926971
0.279091863
0.2790910084
0.2790923503
0.2790927719
0.2790908977
0.2790916279
0.2790922933
0.2790925724
0.2790927017
0.2790918479
0.2790910307
0.2790923638
0.2790927549
0.2790908763
0.279091594
0.2790922744
0.2790925843
0.2790927031
0.2790918377
0.2790910784
0.2790923506
0.27909274
0.2790909051
0.2790915997
0.2790922669
0.2790925874
0.2790926836
0.2790918665
0.2790910728
0.279092357
0.2790927416
0.279090922
0.2790915713
0.2790922675
0.2790925657
0.2790927
0.279091859
0.2790910624
0.2790923654
0.2790926931
0.2790909533
0.2790915935
0.2790922723
0.2790925695
0.2790927155
0.2790918622
0.2790910367
0.2790923532
0.2790927177
0.2790909498
0.2790916501
0.2790922737
0.2790925976
0.2790927112
0.2790918825
0.2790910593
0.2790923395
0.2790927372
0.2790909528
0.2790916677
0.2790922558
0.2790925628
0.2790927465
0.2790918675
0.2790910311
0.2790923233
0.279092743
0.2790909389
0.2790916386
0.2790922375
0.2790925472
0.2790927308
0.2790919139
0.2790910031
0.2790922992
0.2790927297
0.2790909124
0.2790916225
0.2790922432
0.2790925868
0.2790927037
0.2790919244
0.2790910028
0.2790922915
0.27909274
0.2790908931
0.2790916367
0.2790923001
0.2790926075
0.2790927586
0.2790919812
0.2790910374
0.2790923207
0.2790927664
0.2790909311
0.2790917101
0.2790924568
0.2790927562
0.2790928657
0.2790920222
0.2790910558
0.2790923435
0.2790928138
0.2790910069
0.2790918832
0.2790927124
0.2790930836
0.2790931341
0.2790921661
0.2790911032
0.2790924122
)
;
    }
    inlet
    {
        type            calculated;
        value           nonuniform List<scalar> 
81
(
0.2790915788
0.2790903134
0.2790917977
0.2790924833
0.279092485
0.2790915629
0.2790913835
0.2790919947
0.2790915939
0.2790911293
0.2790931538
0.2790929899
0.2790905937
0.2790901199
0.2790914834
0.2790918154
0.2790906865
0.2790915166
0.2790914918
0.2790904596
0.2790909185
0.279091013
0.2790914211
0.2790919291
0.2790920308
0.2790929044
0.2790922108
0.2790923599
0.2790923156
0.2790921053
0.2790903577
0.2790934854
0.2790923871
0.2790922331
0.2790906279
0.2790922764
0.2790918688
0.279091447
0.2790909949
0.2790929601
0.2790907972
0.2790923787
0.279091251
0.2790908191
0.2790921678
0.2790902807
0.2790916093
0.2790913587
0.2790917248
0.279090152
0.2790931286
0.2790916952
0.279090209
0.2790916025
0.27909216
0.2790931179
0.2790911482
0.2790916147
0.2790908854
0.2790921268
0.2790918604
0.2790917241
0.2790923077
0.2790916247
0.2790916242
0.2790924701
0.2790911099
0.2790913234
0.2790910312
0.2790936492
0.2790935002
0.2790923222
0.2790927482
0.2790908896
0.2790916377
0.2790922892
0.2790925681
0.2790927263
0.2790918853
0.27909103
0.2790923621
)
;
    }
    outlet
    {
        type            calculated;
        value           nonuniform 0();
    }
    procBoundary0to1
    {
        type            processor;
        value           nonuniform List<scalar> 
97
(
0.2790917623
0.2790913251
0.2790907767
0.2790928028
0.2790942742
0.2790946787
0.2790933049
0.2790924224
0.2790924091
0.2790918657
0.2790913251
0.2790913251
0.2790941272
0.2790916646
0.2790952609
0.2790951925
0.2790966479
0.2790959856
0.2790940283
0.2790916842
0.2790920432
0.2790919228
0.2790916646
0.2790916646
0.2790968966
0.2791008089
0.2791053466
0.2791165495
0.2791062483
0.2790978931
0.2790952655
0.2790932218
0.2790932898
0.2790948325
0.2791008089
0.2791008089
0.2791329526
0.2791815783
0.2791918829
0.2791349562
0.2791063352
0.2790951469
0.2790940405
0.2790931151
0.2790954615
0.2791078687
0.2791815783
0.2791815783
0.2803110218
0.279178951
0.2791909995
0.2791226143
0.2791163546
0.2790975061
0.2790943557
0.2790912932
0.2790944219
0.2790999069
0.2791213478
0.279178951
0.2791226143
0.2791226143
0.2791060733
0.2790952343
0.2790948123
0.2790934152
0.2790926409
0.2790943217
0.2790945023
0.2791001225
0.279107946
0.2791007682
0.2790952343
0.2790952343
0.2790940753
0.2790940955
0.2790933208
0.2790919298
0.2790922137
0.2790935311
0.2790936032
0.2790952676
0.2790934661
0.2790949334
0.2790940955
0.2790940955
0.2790928625
0.2790924821
0.2790928845
0.2790911787
0.2790921515
0.2790931862
0.2790938234
0.2790936837
0.2790924904
0.2790912858
0.2790924821
)
;
    }
}


// ************************************************************************* //
