/*--------------------------------*- C++ -*----------------------------------*\
| =========                 |                                                 |
| \\      /  F ield         | OpenFOAM: The Open Source CFD Toolbox           |
|  \\    /   O peration     | Version:  4.x                                   |
|   \\  /    A nd           | Web:      www.OpenFOAM.org                      |
|    \\/     M anipulation  |                                                 |
\*---------------------------------------------------------------------------*/
FoamFile
{
    version     2.0;
    format      ascii;
    class       volVectorField;
    location    "8000";
    object      U;
}
// * * * * * * * * * * * * * * * * * * * * * * * * * * * * * * * * * * * * * //

dimensions      [0 1 -1 0 0 0 0];

internalField   nonuniform List<vector> 
1175
(
(0.01100000061 -1.200213348e-09 -1.047459275e-11)
(0.01099999897 -1.775155293e-09 -1.387575515e-09)
(0.01100000084 -1.559058806e-09 -2.058775967e-09)
(0.01100000086 -2.145448161e-09 2.334162724e-09)
(0.01100000211 -2.21076971e-09 -3.482619232e-10)
(0.01100000271 -8.091373571e-10 -1.383351805e-09)
(0.01100000319 -4.42173706e-11 -1.336680034e-09)
(0.01100000538 -1.59140016e-09 -1.220951376e-09)
(0.01100000999 -2.074429082e-09 -3.713775044e-09)
(0.01100001325 -1.221952401e-09 -5.959218338e-09)
(0.01100002323 -4.61808285e-09 -4.93158045e-09)
(0.01100003017 -4.068004502e-09 -4.165203774e-09)
(0.01100005642 -6.1631578e-09 -6.567012638e-09)
(0.01100007086 -4.053393375e-09 -5.237520311e-09)
(0.01100010867 -1.216550297e-08 -1.113962254e-08)
(0.01100000021 -1.144401934e-10 7.914214038e-10)
(0.01099999938 -1.865360453e-09 -1.703760747e-09)
(0.0110000011 -1.784912407e-09 -1.204661274e-09)
(0.01100000179 -5.07491261e-10 -8.614902758e-10)
(0.01100000151 -5.660861351e-10 -1.829378239e-11)
(0.01100000193 -9.221226059e-10 -1.211898157e-09)
(0.0110000039 -2.021198176e-09 -1.758447236e-09)
(0.011000002 -2.019475709e-09 -1.676367736e-09)
(0.01100000819 -3.546789584e-09 -7.541191072e-10)
(0.01100001217 -6.855599305e-09 -1.752657888e-09)
(0.01100002224 -8.859250547e-09 -3.040240623e-09)
(0.01100002986 -1.425746788e-08 -5.758542181e-09)
(0.01100005676 -2.244450073e-08 -6.633615563e-09)
(0.01100006303 -2.482741576e-08 -4.446761813e-09)
(0.0110001121 -5.220315985e-08 -1.753787637e-08)
(0.01099999967 -1.575258623e-09 1.85819495e-09)
(0.01099999886 1.246055918e-09 1.873413183e-10)
(0.01100000058 5.649158511e-10 9.787644406e-10)
(0.01099999936 -5.987254535e-10 5.956065903e-10)
(0.01100000212 -3.860339106e-09 -6.995896871e-10)
(0.01100000081 -2.902808867e-09 -3.033905971e-09)
(0.01100000105 -2.40120219e-09 6.042541483e-10)
(0.01100000099 -4.117127637e-09 -2.653997471e-09)
(0.01100000516 -3.494664317e-09 -3.924817058e-09)
(0.01100000715 -5.561467118e-09 -3.20200604e-09)
(0.01100001281 -8.322901574e-09 -4.65865301e-09)
(0.01100001706 -1.24503015e-08 -1.148553718e-08)
(0.01100004559 -2.106000208e-08 -9.542119684e-09)
(0.0110000381 -1.874672832e-08 -1.046201308e-08)
(0.0110001112 -5.940656442e-08 -4.337995995e-08)
(0.0110000007 -5.333990198e-10 -7.691302386e-10)
(0.01100000218 -2.43546371e-10 1.061793254e-09)
(0.01099999782 -6.981017009e-10 -5.671025269e-10)
(0.01099999948 -2.700475476e-10 -8.470143424e-10)
(0.01100000019 -1.588768917e-09 -9.903843191e-10)
(0.01100000134 -2.058506209e-10 -6.396357459e-10)
(0.01100000097 -8.691885361e-10 -1.079504192e-09)
(0.01099999991 -2.162015254e-09 -1.021515048e-09)
(0.01100000596 -3.726996341e-09 -2.196305795e-10)
(0.01100000573 -6.699375224e-09 -2.347002328e-09)
(0.011000014 -9.223015334e-09 -2.619569558e-09)
(0.01100001521 -2.021992892e-08 -7.474952983e-09)
(0.01100004532 -3.408167902e-08 -9.524457416e-09)
(0.01100002481 -4.415670209e-08 -8.131232776e-09)
(0.01100011899 -1.080440711e-07 -5.23607289e-08)
(0.0109999999 -1.594132255e-10 -2.815662266e-10)
(0.01100000058 -2.257272096e-09 3.961889367e-10)
(0.01099999975 -1.884768174e-09 7.156525028e-10)
(0.0110000006 -1.033326021e-09 -1.328579613e-09)
(0.01099999873 -4.356793481e-10 -1.568976172e-12)
(0.01100000237 -1.64574039e-09 -3.218491666e-09)
(0.01100000056 -6.067496836e-10 -7.464643469e-10)
(0.01100000061 5.673404902e-10 -2.745683651e-09)
(0.01099999957 4.557250733e-10 -2.58273213e-09)
(0.01100000036 -2.555482428e-10 -4.737194763e-09)
(0.01100000174 -6.038624457e-10 -7.549178941e-09)
(0.01099999173 9.523543186e-10 -1.936767865e-08)
(0.01100001413 3.313029386e-10 -2.41504906e-08)
(0.01099996497 1.899411164e-10 -4.50301197e-08)
(0.01100013475 9.847576566e-10 -1.512540245e-07)
(0.01100000041 1.418032226e-10 -2.759433154e-10)
(0.01099999881 -3.838240857e-10 -2.814821486e-11)
(0.01100000057 -1.71354884e-10 -8.555863141e-10)
(0.01099999945 -1.886961741e-09 -2.55622023e-10)
(0.01100000267 -9.978513524e-10 5.968025126e-10)
(0.01100000175 -8.181509411e-10 2.288125457e-11)
(0.01100000198 -2.001713848e-09 2.114108762e-09)
(0.01100000146 1.217150413e-09 -1.714469577e-09)
(0.01100000285 3.293836383e-09 4.899235583e-10)
(0.01100000785 5.128136226e-09 -1.615639586e-09)
(0.01100001213 9.6000859e-09 -2.885292561e-09)
(0.01100001381 1.96694204e-08 -8.290989904e-09)
(0.01100004474 3.223513417e-08 -6.756447553e-09)
(0.01100002592 4.330834345e-08 -6.557951283e-09)
(0.01100012047 1.085345785e-07 -5.189115682e-08)
(0.01099999998 -1.279892528e-09 -3.966985502e-10)
(0.01099999741 1.341468254e-09 4.835150302e-10)
(0.01099999974 -5.682393328e-10 6.600401564e-10)
(0.01099999877 -1.047774788e-09 1.431899405e-10)
(0.01100000226 -4.300677128e-10 1.866222227e-09)
(0.01100000239 1.786145892e-10 2.012333668e-10)
(0.01100000563 1.283700573e-09 -1.403799022e-09)
(0.01100000444 2.769255031e-09 -9.785697699e-10)
(0.01100000599 4.670152179e-09 1.094599568e-09)
(0.01100000914 9.567359022e-09 -1.519996547e-09)
(0.01100001446 1.183458604e-08 -3.614049343e-09)
(0.01100001343 1.349597204e-08 -7.105307304e-09)
(0.01100004133 2.263003041e-08 -1.065972641e-08)
(0.01100004081 2.029189722e-08 -9.538634577e-09)
(0.01100010937 5.873254492e-08 -4.112526755e-08)
(0.01099999988 -5.729614196e-10 -8.988323022e-10)
(0.01099999983 -1.280434358e-09 1.255763277e-09)
(0.01099999896 -1.957567139e-10 -4.787992225e-10)
(0.01100000041 3.482842463e-10 -1.348885393e-09)
(0.01100000251 1.48898368e-09 -4.297888141e-10)
(0.01100000215 4.421557172e-10 -9.898231814e-10)
(0.01100000224 2.919787464e-09 -2.399860171e-10)
(0.01100000802 2.041610764e-09 -4.787081501e-10)
(0.01100001191 3.930114624e-09 -2.506452191e-09)
(0.01100001155 6.24416999e-09 -3.206904665e-09)
(0.01100002201 8.705590123e-09 -2.878263394e-09)
(0.01100002506 1.43765102e-08 -6.236657299e-09)
(0.01100005506 2.335215795e-08 -8.371631835e-09)
(0.01100006445 2.26936579e-08 -4.429283981e-09)
(0.01100010964 5.091295065e-08 -1.65990641e-08)
(0.01099999918 6.245166824e-10 -7.036943115e-10)
(0.01099999834 -6.169192287e-10 -1.316892734e-09)
(0.01099999976 1.466476367e-10 -3.237831228e-09)
(0.01099999997 2.671024395e-10 1.426877372e-09)
(0.01100000131 8.362495769e-10 1.809296075e-09)
(0.01100000376 -3.718861431e-10 5.509420197e-10)
(0.01100000462 4.582164664e-10 2.475719822e-09)
(0.01100000905 6.094360666e-10 -3.699570351e-10)
(0.01100001189 1.474538332e-09 -3.272708831e-09)
(0.01100001411 3.097926858e-09 1.871789095e-09)
(0.01100002367 3.812577428e-09 -5.313687058e-11)
(0.01100003161 5.714249783e-09 -3.547155413e-09)
(0.01100005594 6.268618903e-09 -8.236608501e-09)
(0.01100006958 5.777126077e-09 -3.062080161e-09)
(0.01100010903 1.193058283e-08 -1.204519382e-08)
(0.01100000048 -9.594468451e-10 -5.007515314e-10)
(0.0109999989 1.120957506e-09 -1.158397151e-09)
(0.01100000014 5.442089857e-10 -1.803982196e-09)
(0.01100000032 -7.009292964e-10 -3.131934995e-10)
(0.01099999997 1.864448522e-10 -1.134687664e-10)
(0.011000002 -7.78834467e-10 -1.258978372e-09)
(0.01100000312 -1.054066714e-09 -2.847889848e-10)
(0.01100000555 -3.539810799e-10 -1.680446533e-09)
(0.0110000095 -1.642666367e-09 -3.004516359e-09)
(0.01100000998 -2.855932142e-09 -5.553479863e-09)
(0.01100001974 -3.845150226e-09 -8.841701541e-09)
(0.01100002693 -5.815140573e-09 -1.372821471e-08)
(0.01100005741 -7.167943905e-09 -2.236292784e-08)
(0.01100006373 -4.360652793e-09 -2.201793225e-08)
(0.01100000012 5.23114422e-10 -4.131273875e-10)
(0.01099999761 -1.458920838e-09 -1.142385513e-09)
(0.01099999956 -1.214469472e-09 -5.44171e-10)
(0.01100000094 -1.041838511e-09 3.961251151e-10)
(0.01100000096 -1.098323214e-09 -4.995408243e-10)
(0.01100000014 -6.502035731e-10 -2.662382434e-09)
(0.01100000329 -1.18325754e-09 -1.460623317e-09)
(0.01100000432 -3.176563047e-09 -7.836208808e-10)
(0.01100000729 -3.157992409e-09 -2.817259331e-09)
(0.01100000731 -6.45682616e-09 -4.693090061e-09)
(0.01100001677 -1.015120486e-08 -8.38852102e-09)
(0.01100002414 -1.763590871e-08 -1.601575855e-08)
(0.01100005442 -2.764544756e-08 -2.796533221e-08)
(0.01100005213 -2.776412428e-08 -2.793318122e-08)
(0.01100011525 -8.011426775e-08 -8.065345996e-08)
(0.01100000021 -8.981567805e-10 -8.464033771e-10)
(0.01099999994 1.58194315e-09 -1.155796341e-09)
(0.01099999944 5.553407649e-10 -4.818367006e-10)
(0.01099999942 -8.165975139e-11 -4.000300891e-10)
(0.01100000147 -3.03974827e-09 6.033094245e-10)
(0.0110000012 -1.999862324e-09 -2.412565465e-09)
(0.01100000083 -1.893352929e-09 -2.796300428e-09)
(0.01100000338 -4.626012052e-09 -4.188502424e-09)
(0.01100000342 -3.45531669e-09 -4.132833257e-09)
(0.01100000465 -6.825073135e-09 -7.773376345e-09)
(0.01100000932 -7.084105586e-09 -1.208925354e-08)
(0.01100000872 -1.590396458e-08 -2.762134741e-08)
(0.01100003746 -2.211598981e-08 -4.501388898e-08)
(0.01100001069 -2.131895386e-08 -5.658087558e-08)
(0.0110001178 -9.48153996e-08 -1.819828335e-07)
(0.01100000087 -9.023947211e-10 1.719407001e-10)
(0.01099999923 -5.125749343e-10 -1.800432888e-09)
(0.01099999829 -1.222520619e-10 -3.140240684e-10)
(0.01099999912 1.751549042e-10 -1.837405985e-09)
(0.01099999858 -5.804045789e-10 -1.036797215e-09)
(0.01099999918 -1.242778633e-09 -2.603191929e-09)
(0.01100000141 -1.55609635e-09 -1.839685691e-09)
(0.01100000061 -1.699301254e-09 -2.375627606e-09)
(0.01100000188 -3.930852717e-09 -3.742390945e-09)
(0.01100000489 -8.926647591e-09 -9.999331143e-09)
(0.01100000566 -1.238822252e-08 -9.759114258e-09)
(0.01100000908 -2.863218358e-08 -3.312847827e-08)
(0.01100003927 -4.570950698e-08 -3.959029485e-08)
(0.01099999089 -7.775354789e-08 -6.596652828e-08)
(0.0110001264 -2.184372704e-07 -2.694577424e-07)
(0.01099999905 -2.655687721e-10 -1.429325583e-09)
(0.01100000008 -1.564958646e-09 -4.11141819e-10)
(0.0110000016 -9.796627831e-10 -1.552061547e-09)
(0.01099999839 -1.694556573e-09 -1.064446083e-09)
(0.01099999974 4.952831896e-10 1.451567974e-10)
(0.01099999896 1.225554039e-09 -1.410152644e-09)
(0.01100000198 2.630204448e-10 -2.197368853e-09)
(0.01099999741 -1.838400246e-10 -3.081146988e-09)
(0.01099999424 -3.655175321e-10 -5.262441303e-09)
(0.01099999528 -4.943940677e-11 -1.501233886e-08)
(0.01099998727 -3.716469999e-10 -1.723366228e-08)
(0.0109999718 1.626229445e-10 -6.649043787e-08)
(0.01099997582 5.765907905e-10 -9.173769898e-08)
(0.01099985507 -7.317727017e-10 -2.364730791e-07)
(0.01100016321 7.389897306e-11 -7.251651081e-07)
(0.01099999951 -7.068595036e-11 -1.904373089e-10)
(0.01099999863 6.219682754e-10 -1.64599057e-10)
(0.01100000077 -1.019872942e-09 2.671439953e-10)
(0.01100000001 -2.562340398e-10 -1.092036057e-09)
(0.01100000031 -1.373224178e-09 -7.283525972e-10)
(0.01099999854 -2.021366614e-10 -9.327355415e-10)
(0.01099999878 5.692564538e-11 -2.025832683e-09)
(0.01099999928 1.760293803e-09 -3.788528317e-09)
(0.01100000251 2.767120018e-09 -4.103095945e-09)
(0.01100000358 8.075451727e-09 -9.368653891e-09)
(0.0110000088 1.247740214e-08 -1.078867937e-08)
(0.01100001064 3.0460049e-08 -3.237112438e-08)
(0.01100004043 4.710769885e-08 -3.885500995e-08)
(0.01099999111 7.759089719e-08 -6.649498864e-08)
(0.01100012387 2.198917397e-07 -2.707315817e-07)
(0.01100000037 -1.480542397e-09 -6.395292423e-10)
(0.01099999883 -1.271781905e-09 -1.282121786e-09)
(0.01099999904 -1.35391545e-09 -3.750439561e-10)
(0.01099999737 -1.791496435e-09 2.745246792e-12)
(0.01099999894 -6.179611278e-10 3.70635449e-10)
(0.01100000052 -3.324833098e-10 3.308140117e-10)
(0.01100000236 1.709777203e-09 -1.342350077e-09)
(0.01100000301 2.872955729e-09 -3.759554789e-09)
(0.01100000529 2.338993925e-09 -3.842884812e-09)
(0.01100000639 7.034891004e-09 -8.131404883e-09)
(0.01100000991 9.084913272e-09 -1.339477603e-08)
(0.01100000894 1.623502625e-08 -2.606257774e-08)
(0.01100003731 2.267076196e-08 -4.23173741e-08)
(0.01100001128 2.283496189e-08 -5.685529382e-08)
(0.01100011862 9.508259356e-08 -1.808281511e-07)
(0.01100000007 -6.74794992e-10 2.439462252e-10)
(0.01099999805 -8.179427581e-11 8.363208576e-10)
(0.0110000008 -2.138952144e-10 7.436366776e-10)
(0.01099999994 5.257941353e-10 1.223893849e-10)
(0.01100000124 8.189099329e-10 -5.234700307e-10)
(0.01100000357 1.865010302e-10 -1.714725617e-10)
(0.01100000245 2.338356653e-09 -8.709794669e-10)
(0.01100000377 2.129112995e-09 -3.309390088e-09)
(0.01100000919 3.036152941e-09 -3.827762361e-09)
(0.01100001159 6.23450065e-09 -7.545203878e-09)
(0.01100001774 1.052236202e-08 -9.061372055e-09)
(0.01100002514 1.676543217e-08 -1.521534347e-08)
(0.01100005368 2.682859584e-08 -2.673388474e-08)
(0.01100005279 2.929641899e-08 -2.654338631e-08)
(0.01100011359 8.047967818e-08 -8.011323474e-08)
(0.01100000042 1.344505855e-11 2.338602507e-10)
(0.01099999774 -1.062351057e-09 6.336848258e-12)
(0.01100000089 -6.882554943e-11 -1.704598993e-10)
(0.01099999992 1.068628213e-09 -8.102580889e-10)
(0.01100000064 -2.477815457e-10 -1.385705654e-09)
(0.01100000319 3.028072681e-10 -5.597446476e-10)
(0.01100000514 -7.023013319e-11 -1.945416158e-09)
(0.01100000497 6.906486787e-10 -3.70784856e-09)
(0.01100001046 1.700181289e-09 -4.475906452e-09)
(0.01100001278 2.208381349e-09 -7.453265119e-09)
(0.01100002169 3.431655918e-09 -1.049157443e-08)
(0.01100002822 5.604704084e-09 -1.275641557e-08)
(0.01100005651 8.160030741e-09 -2.204800037e-08)
(0.01100006112 5.232172245e-09 -2.177550799e-08)
(0.01100011084 1.757187459e-08 -4.946231069e-08)
(0.01099999931 3.886890142e-10 -1.622461424e-09)
(0.01099999864 -2.178239906e-09 -1.216792206e-09)
(0.01100000096 -2.62697207e-10 -9.251364544e-10)
(0.01100000021 -1.303172615e-09 -2.717835431e-09)
(0.01099999896 -9.911431075e-10 -1.984132305e-09)
(0.01100000008 9.442866845e-10 -1.967010435e-09)
(0.01100000273 -2.676562895e-09 -2.436929516e-09)
(0.01100000293 1.214184626e-09 -2.430978696e-09)
(0.01100000775 1.906828668e-09 -6.019575295e-09)
(0.01100000748 -2.889543853e-09 -8.316260841e-09)
(0.01100001368 -2.913505139e-09 -1.092178573e-08)
(0.01100001496 -5.688158454e-09 -1.559329645e-08)
(0.01100004351 -1.147902915e-08 -2.396768934e-08)
(0.01100004044 -7.801221811e-09 -2.138329685e-08)
(0.0109999976 4.278842483e-10 -6.5159854e-10)
(0.01099999902 7.178843123e-11 2.38396025e-10)
(0.01100000093 -1.966129629e-10 -1.386889962e-09)
(0.01100000059 -4.687302208e-10 -1.744676317e-09)
(0.01100000036 -1.913308515e-10 -3.310097477e-09)
(0.0110000011 3.569616903e-10 -1.689778188e-09)
(0.01100000248 -6.344269745e-10 -1.014418773e-09)
(0.01100000293 -2.688240345e-09 -3.915303072e-09)
(0.01100000111 -3.938347516e-09 -4.778764105e-09)
(0.0110000026 -8.996382659e-09 -8.561204009e-09)
(0.0110000095 -1.286759617e-08 -1.024922658e-08)
(0.01100000687 -2.676684532e-08 -1.696306483e-08)
(0.01100003798 -4.235730045e-08 -2.381569269e-08)
(0.01100001106 -5.700046825e-08 -2.141546228e-08)
(0.0110000001 -7.55832318e-10 -5.532782159e-10)
(0.01099999912 6.516313895e-10 5.868649164e-10)
(0.01099999931 2.09167233e-10 3.862068305e-10)
(0.0109999999 2.732852523e-10 -7.264083198e-10)
(0.01099999721 -2.374979503e-09 -4.055370079e-10)
(0.01100000129 -8.90567469e-10 -2.64544168e-09)
(0.01099999904 -1.879327423e-09 -1.253561892e-09)
(0.01100000146 -4.464639627e-09 -3.396171001e-09)
(0.01099999837 -6.352614276e-09 -5.901910078e-09)
(0.01099999611 -9.545585069e-09 -1.410653163e-08)
(0.0109999929 -8.458684205e-09 -1.244383166e-08)
(0.01099998351 -2.92234971e-08 -3.18319078e-08)
(0.01099999969 -3.289987008e-08 -3.459602937e-08)
(0.0109999126 -5.906778709e-08 -5.987647569e-08)
(0.01100011457 -2.511483728e-07 -2.564360077e-07)
(0.01100000094 -1.67322961e-09 -9.398212148e-10)
(0.01099999967 -3.524906571e-10 -1.472273105e-10)
(0.0109999988 -5.908937245e-10 -5.9128698e-11)
(0.0109999988 -7.722863569e-10 -1.664112906e-09)
(0.01099999673 2.298513797e-10 -2.180048051e-10)
(0.01099999903 7.178827566e-11 -1.264707235e-09)
(0.01100000047 -2.294004811e-09 -9.759137086e-10)
(0.01099999782 -3.003385775e-09 -3.887619118e-09)
(0.01099999501 -3.961207231e-09 -4.646467758e-09)
(0.01099999799 -1.408356071e-08 -1.320765749e-08)
(0.01099998514 -1.67293673e-08 -4.311621524e-09)
(0.01099998899 -6.077534017e-08 -3.299181353e-08)
(0.01099997723 -8.284696189e-08 9.339027037e-09)
(0.01099986338 -2.250800344e-07 -3.910265262e-08)
(0.0110000516 -6.607257209e-07 -3.370762471e-07)
(0.01100000011 -1.043941147e-09 -4.757711549e-11)
(0.01099999983 -1.67122289e-09 -1.549913037e-09)
(0.011 -4.28088965e-10 -1.636903958e-10)
(0.01100000105 -2.472009534e-09 -2.268075985e-09)
(0.01099999995 9.083744565e-10 1.811435014e-10)
(0.01099999878 8.684046839e-10 -2.259338863e-09)
(0.01099999723 -6.564956231e-10 -1.235495147e-09)
(0.01099999578 -8.854693093e-10 -4.688029727e-09)
(0.01099998511 1.320567398e-09 -5.509104729e-09)
(0.01099998519 -5.720196576e-10 -2.342347642e-08)
(0.0109999422 -1.447408369e-09 -1.455863731e-08)
(0.01099992109 1.059708172e-09 -9.563422397e-08)
(0.01099977274 -8.017800949e-10 -5.755895192e-08)
(0.01099947085 -1.321760306e-09 -4.302942802e-07)
(0.01099998341 -2.253790053e-10 -1.350898041e-06)
(0.0110000005 -8.235609689e-10 -1.046477284e-10)
(0.01100000122 4.216004321e-10 -5.390106267e-10)
(0.01100000067 2.254587351e-10 7.090582829e-11)
(0.01100000166 -2.019306225e-10 -2.914366493e-10)
(0.01099999935 -1.290234767e-09 3.289439274e-10)
(0.01100000046 1.07042358e-09 -2.87945791e-09)
(0.01099999698 2.017996623e-09 -2.885234205e-09)
(0.0109999988 1.966463258e-09 -4.412835936e-09)
(0.01099999387 4.277775306e-09 -4.285309289e-09)
(0.01099999786 1.373177746e-08 -1.331009078e-08)
(0.01099998852 1.642607024e-08 -3.998443632e-09)
(0.01099999226 5.925081131e-08 -3.118539582e-08)
(0.01099997666 8.450766163e-08 1.116353341e-08)
(0.01099986349 2.272337132e-07 -3.685260146e-08)
(0.01100004998 6.623643193e-07 -3.378097725e-07)
(0.01100000005 -2.088069533e-10 -1.326091815e-09)
(0.0110000023 4.75089527e-10 -2.098761909e-09)
(0.01100000173 1.374648559e-10 -1.247676291e-10)
(0.01099999741 7.572304402e-10 2.869259921e-10)
(0.01099999975 -1.05239386e-09 1.021411626e-09)
(0.01100000031 3.06904878e-11 -1.126717292e-09)
(0.01100000019 1.790675795e-09 -1.467099229e-09)
(0.01100000179 3.370235415e-09 -4.71806023e-09)
(0.01099999977 3.135817392e-09 -4.335207875e-09)
(0.01099999667 9.842600125e-09 -1.213281537e-08)
(0.01099999286 1.197177351e-08 -9.949631135e-09)
(0.01099998529 3.067444495e-08 -3.030296189e-08)
(0.01099999971 3.362934083e-08 -3.26715646e-08)
(0.01099991192 5.801207135e-08 -5.791355246e-08)
(0.01100011613 2.561139466e-07 -2.57169382e-07)
(0.01100000041 9.897534231e-10 -1.51697822e-09)
(0.01099999945 1.160490695e-09 -9.176996903e-10)
(0.01099999772 2.018735764e-11 6.010529329e-10)
(0.01100000017 5.824051805e-10 5.419289247e-10)
(0.01100000056 1.175104231e-09 1.993260683e-09)
(0.01100000081 -7.31790459e-10 -1.254904687e-09)
(0.01100000071 1.677848992e-09 -2.549607861e-09)
(0.01100000226 3.666496548e-09 -4.468325302e-09)
(0.01100000433 4.618290859e-09 -4.653038952e-09)
(0.01100000579 7.947038992e-09 -9.467139447e-09)
(0.0110000079 1.100485698e-08 -1.011844135e-08)
(0.01100000884 2.5761976e-08 -1.66070064e-08)
(0.01100004013 4.276415568e-08 -2.227910976e-08)
(0.01100001245 5.84469043e-08 -2.175878576e-08)
(0.01100011973 1.824790409e-07 -9.460185437e-08)
(0.01100000024 1.102280687e-09 -1.46466048e-10)
(0.01099999819 -4.258129453e-10 -1.748933282e-09)
(0.01099999918 4.54447474e-10 3.448603909e-11)
(0.01100000073 -1.013896093e-10 1.124665631e-09)
(0.01100000012 -4.386258381e-10 2.368378319e-09)
(0.01100000248 1.237150225e-09 -1.318366919e-10)
(0.01100000425 7.817170921e-10 -2.028370137e-09)
(0.01100000478 6.27798486e-10 -1.517938745e-09)
(0.01100000538 1.028846433e-09 -1.757531355e-09)
(0.01100000801 2.754960485e-09 -6.835633277e-09)
(0.01100001647 2.096135285e-09 -1.023440548e-08)
(0.01100001732 8.225644479e-09 -1.478280243e-08)
(0.01100004488 1.162502309e-08 -2.245312333e-08)
(0.01100003965 1.191148988e-08 -2.026314007e-08)
(0.01100010961 4.058177956e-08 -5.922769942e-08)
(0.01099999967 6.68931125e-10 -8.84747716e-10)
(0.0109999994 -3.866460913e-09 1.18566018e-09)
(0.01099999998 -2.250683856e-09 1.528517614e-09)
(0.01100000134 -7.202843208e-11 5.382897998e-10)
(0.01100000171 1.272694205e-10 -9.238438784e-10)
(0.011 -1.4350027e-10 5.283915517e-10)
(0.01100000062 6.130973185e-11 -8.427541947e-10)
(0.01100000394 -1.024403731e-09 -2.406093539e-09)
(0.01100000337 -8.851200357e-10 -3.463547476e-09)
(0.01100000438 -3.714116136e-09 -7.059807104e-09)
(0.01100001588 -3.191934751e-09 -1.128419771e-08)
(0.01100001296 -7.639503972e-09 -1.955770175e-08)
(0.01100004284 -6.315448961e-09 -3.423993146e-08)
(0.01100002653 -3.74020433e-09 -4.36566476e-08)
(0.01100000019 1.659885638e-10 -5.246523204e-10)
(0.01100000014 6.744568187e-10 2.32979009e-10)
(0.01100000011 8.262215051e-11 1.198612069e-09)
(0.01099999981 -4.773631943e-10 -1.173815801e-09)
(0.01099999985 -1.409923577e-09 -6.288695922e-10)
(0.01100000126 -1.156991838e-09 4.114131689e-11)
(0.01100000145 -1.281802008e-09 -4.322423347e-10)
(0.01099999867 -3.623470644e-09 -4.085284129e-09)
(0.01099999913 -4.847812019e-09 -5.224587211e-09)
(0.01100000418 -9.772148083e-09 -9.407842339e-09)
(0.01100000778 -9.668383111e-09 -1.24593529e-08)
(0.01100000937 -3.314140205e-08 -2.998373842e-08)
(0.01100004096 -3.886486778e-08 -4.802368785e-08)
(0.01099999029 -6.665042809e-08 -7.885289849e-08)
(0.01099999948 -8.430672597e-10 -3.861548478e-10)
(0.01099999588 1.052073003e-09 5.108434322e-10)
(0.01100000117 -4.118926046e-10 -4.555940764e-10)
(0.01100000018 -1.807921426e-09 -7.682103863e-10)
(0.01099999809 -2.122492554e-09 -1.921063891e-09)
(0.01099999873 -1.513183174e-09 2.06353375e-10)
(0.01099999733 -2.523140512e-09 -5.771792937e-10)
(0.01099999934 -5.336824608e-09 -5.095362204e-09)
(0.01099999472 -3.776552512e-09 -5.232739548e-09)
(0.01099999818 -1.255418026e-08 -1.435798429e-08)
(0.01099998737 -2.853580423e-09 -1.567114464e-08)
(0.01099998986 -3.171249608e-08 -5.989814313e-08)
(0.01099997861 1.180056105e-08 -8.443907723e-08)
(0.01099986134 -3.874606105e-08 -2.273913474e-07)
(0.0109999995 -2.900790357e-10 -2.486851009e-10)
(0.01100000125 -1.291468112e-09 -8.689246607e-10)
(0.01099999877 7.535809032e-10 -6.75808295e-12)
(0.01099999722 -8.174878633e-10 -7.352973684e-10)
(0.01100000042 -2.581646865e-11 -1.045739081e-09)
(0.01099999983 -1.13858606e-09 -8.948295737e-10)
(0.0109999964 -1.565494357e-09 -2.203865529e-09)
(0.01099999909 -2.651373859e-09 -6.514168416e-09)
(0.01099999029 -3.280752723e-09 -5.627222927e-09)
(0.01100000302 -1.848533591e-08 -1.947269207e-08)
(0.01099998325 -1.647838126e-08 -1.635859993e-08)
(0.01100004236 -9.360562309e-08 -9.606979141e-08)
(0.01099994581 -6.863887359e-08 -6.802201888e-08)
(0.010999978 -4.476867664e-07 -4.499255806e-07)
(0.01099938599 -1.316466101e-06 -1.320676002e-06)
(0.0110000007 -7.685414852e-10 9.418147152e-11)
(0.01099999939 -6.826433942e-10 6.774865602e-10)
(0.01099999809 -8.223457161e-10 -1.037499868e-09)
(0.011000003 -7.433280176e-10 -2.40805212e-09)
(0.01099999941 8.658656151e-10 -1.360891362e-09)
(0.01099999788 -3.182075337e-10 -1.476008695e-09)
(0.01099999692 2.914951129e-10 -1.585966134e-09)
(0.01099999498 -1.088532879e-10 -7.295699733e-09)
(0.01099997457 -6.491199141e-11 -6.413414758e-09)
(0.01099998705 -2.472130398e-10 -3.211942732e-08)
(0.01099990182 2.831672501e-10 -3.689957251e-08)
(0.01099995751 1.025068898e-09 -2.507092556e-07)
(0.0109994415 2.973205195e-09 -2.892306286e-07)
(0.01099938154 1.262421924e-09 -2.534846666e-06)
(0.01099741516 -7.885035652e-10 -6.724201041e-06)
(0.01099999904 -7.175563821e-10 1.211609055e-09)
(0.01099999956 -4.05349556e-10 -2.925551404e-11)
(0.01099999823 -3.453044115e-10 6.533449259e-10)
(0.01099999913 1.147405187e-09 -6.289852688e-10)
(0.01099999897 7.824922298e-10 -1.790953856e-09)
(0.01099999831 6.982082839e-10 -2.821798946e-09)
(0.01100000021 1.076805805e-09 -2.422918886e-09)
(0.01099999952 2.135340198e-09 -5.009149898e-09)
(0.01099998976 4.609950641e-09 -6.503746917e-09)
(0.01100000399 1.888087331e-08 -1.941725304e-08)
(0.01099998183 1.684539693e-08 -1.617370936e-08)
(0.0110000441 9.562998256e-08 -9.478783831e-08)
(0.01099994594 6.906009102e-08 -6.843909241e-08)
(0.01099997679 4.472416769e-07 -4.488641964e-07)
(0.01099938501 1.317554104e-06 -1.31781015e-06)
(0.01099999995 -1.285344022e-09 5.920353006e-10)
(0.01099999951 -1.24809465e-09 1.549735349e-10)
(0.0110000005 -1.779558056e-10 -7.346348415e-10)
(0.01100000015 4.407412127e-10 -1.281364616e-09)
(0.01099999789 -1.060638774e-10 -1.999477351e-09)
(0.01100000004 4.448050767e-10 -2.120011503e-09)
(0.01099999653 2.94400559e-10 -9.017840503e-10)
(0.01099999856 4.859118522e-09 -3.215747825e-09)
(0.01099999569 3.484188477e-09 -5.287862834e-09)
(0.01099999651 1.220192748e-08 -1.323739887e-08)
(0.01099998805 4.120944998e-09 -1.659812989e-08)
(0.01099999022 3.2902796e-08 -5.84987846e-08)
(0.01099997469 -1.072549338e-08 -8.311055496e-08)
(0.01099986333 3.792471801e-08 -2.269579464e-07)
(0.01100005466 3.377958898e-07 -6.63149887e-07)
(0.0110000003 -2.141915209e-10 2.532084065e-11)
(0.01099999871 1.196073999e-09 -2.590057416e-10)
(0.01100000001 -2.487849873e-10 -4.768077459e-11)
(0.01100000123 -4.200235762e-10 -4.786921931e-10)
(0.01099999984 1.675692903e-10 -1.197989507e-09)
(0.0109999995 1.057432418e-09 -4.82154158e-10)
(0.01100000102 1.517372354e-09 -1.967876841e-09)
(0.01100000188 3.967052327e-09 -1.487253934e-09)
(0.01100000078 5.647647501e-09 -3.23870547e-09)
(0.0110000047 1.082346056e-08 -7.30739547e-09)
(0.01100000698 9.656879579e-09 -1.188076023e-08)
(0.01100001019 3.19138287e-08 -2.935569508e-08)
(0.01100004048 3.705107219e-08 -4.699072531e-08)
(0.01099999387 6.787061686e-08 -7.686331479e-08)
(0.01100012674 2.718849866e-07 -2.207524914e-07)
(0.01099999931 1.229574858e-09 -9.836830628e-10)
(0.01099999903 -7.64994842e-10 -4.471410879e-10)
(0.01100000225 -5.762687762e-10 -1.737519302e-09)
(0.01100000025 -3.513501983e-10 -9.608032781e-10)
(0.01100000153 2.19682909e-11 -8.233306203e-10)
(0.0110000012 1.168800038e-09 -1.006378731e-09)
(0.01100000381 1.38429901e-09 -1.841152282e-09)
(0.01100000253 1.533413725e-09 -2.256881076e-09)
(0.01100000314 1.126227577e-09 -2.355839062e-09)
(0.01100000441 3.301267942e-09 -3.871476096e-09)
(0.01100001424 2.526946394e-09 -8.95723323e-09)
(0.0110000155 4.148795444e-09 -1.948227956e-08)
(0.01100004598 5.846562519e-09 -3.408366191e-08)
(0.01100003059 6.162003032e-09 -4.45901511e-08)
(0.01100012185 5.282861547e-08 -1.074810625e-07)
(0.01100000068 1.471686168e-09 -1.335931606e-09)
(0.01099999961 -2.849730999e-10 -2.929153555e-09)
(0.01099999971 -7.576163438e-10 1.880941203e-10)
(0.01099999866 -2.492915851e-10 -6.698617298e-10)
(0.01099999927 -2.063868256e-09 -2.219527152e-09)
(0.01100000081 2.00660363e-09 -1.116715547e-09)
(0.01100000047 1.166534313e-09 -1.966626491e-09)
(0.01100000028 -1.914856944e-10 -2.441796494e-09)
(0.01099999983 -1.313134537e-09 2.212573056e-10)
(0.01099999874 -5.250765746e-09 -4.369568249e-10)
(0.01100000179 -4.235963356e-09 7.501893068e-10)
(0.0109999906 -1.466930358e-08 -2.436698057e-09)
(0.01100001774 -2.316550816e-08 -1.457247654e-09)
(0.01099996281 -4.276106396e-08 -2.298954512e-09)
(0.01100000036 -5.842358336e-10 -1.4693773e-09)
(0.01099999998 -1.217738299e-09 -1.780189328e-09)
(0.01099999817 -2.245864079e-10 -4.735022425e-10)
(0.01100000015 -1.984877691e-09 -1.126193194e-11)
(0.0110000017 -8.391828972e-11 -9.466143681e-10)
(0.01100000032 -1.781429243e-09 -2.038394934e-09)
(0.0109999976 -3.871357701e-09 -2.673611721e-09)
(0.01099999882 -4.648358728e-09 -2.689479338e-09)
(0.01099999512 -6.632882307e-09 -1.679695283e-09)
(0.01099999493 -1.521779095e-08 -2.80775506e-10)
(0.01099999049 -1.765809746e-08 -6.868070198e-10)
(0.01099997483 -6.504444616e-08 -1.776697522e-09)
(0.01099997544 -9.011160625e-08 -6.662857769e-10)
(0.01099985342 -2.360302936e-07 -2.62609977e-09)
(0.01099999958 -1.126626965e-09 -2.508369576e-09)
(0.01100000091 -6.481968351e-10 -5.949684021e-10)
(0.01099999827 -1.880416005e-09 -1.921851682e-09)
(0.0110000001 -9.247815047e-11 -1.744708063e-09)
(0.01100000034 -1.522064084e-09 -5.848739171e-10)
(0.01099999873 -3.14608291e-09 -1.36364842e-09)
(0.01099999631 -3.766634219e-09 -3.233885621e-09)
(0.01099999589 -7.422089613e-09 -1.44899142e-09)
(0.01099998581 -5.615815804e-09 -5.153444513e-10)
(0.01099998516 -2.181997435e-08 1.170143761e-09)
(0.01099994312 -1.265554236e-08 -3.346904151e-10)
(0.01099992061 -9.549285166e-08 -1.821760464e-10)
(0.01099977538 -5.575733666e-08 3.730747324e-10)
(0.0109994705 -4.29332887e-07 -1.649060392e-09)
(0.01099999822 2.970210989e-10 -1.493783765e-09)
(0.0109999992 3.222784282e-10 -1.345529984e-10)
(0.01099999929 -3.57879308e-10 -1.205056038e-09)
(0.01100000004 -1.243364414e-09 1.657288207e-11)
(0.01099999934 -5.730813209e-11 2.598775552e-10)
(0.01099999941 -2.245356049e-09 -1.81761032e-09)
(0.01099999693 -1.553218496e-09 -2.501662664e-09)
(0.01099999383 -4.51418256e-09 -1.368060527e-09)
(0.01099997819 -5.963568995e-09 -1.706562929e-09)
(0.01099998827 -3.088349092e-08 -7.369302367e-10)
(0.01099989996 -3.613753467e-08 -2.535679531e-10)
(0.010999957 -2.495142998e-07 2.490821231e-10)
(0.01099944385 -2.876674613e-07 9.115649587e-11)
(0.01099938166 -2.533813926e-06 1.560957917e-10)
(0.01099999997 -4.65852674e-10 -3.560723501e-10)
(0.01099999908 -6.99692939e-10 3.721167297e-10)
(0.01099999845 -6.049284126e-10 6.184246104e-10)