/*--------------------------------*- C++ -*----------------------------------*\
| =========                 |                                                 |
| \\      /  F ield         | OpenFOAM: The Open Source CFD Toolbox           |
|  \\    /   O peration     | Version:  4.x                                   |
|   \\  /    A nd           | Web:      www.OpenFOAM.org                      |
|    \\/     M anipulation  |                                                 |
\*---------------------------------------------------------------------------*/
FoamFile
{
    version     2.0;
    format      ascii;
    class       volScalarField;
    location    "8000";
    object      X_CO2;
}
// * * * * * * * * * * * * * * * * * * * * * * * * * * * * * * * * * * * * * //

dimensions      [0 0 0 0 0 0 0];

internalField   nonuniform List<scalar> 
1175
(
7.960295811e-10
7.963020179e-10
7.976204242e-10
8.027221772e-10
8.211919792e-10
8.857229865e-10
1.104407453e-09
1.821364822e-09
4.082452363e-09
1.088853848e-08
3.024952351e-08
8.166290456e-08
2.07247923e-07
4.8479598e-07
1.03132595e-06
7.962264487e-10
7.965537224e-10
7.981522712e-10
8.044595995e-10
8.278675709e-10
9.120443199e-10
1.206676511e-09
2.20753774e-09
5.487254588e-09
1.576684511e-08
4.624012014e-08
1.304391949e-07
3.432290203e-07
8.238077007e-07
1.770123826e-06
7.965367949e-10
7.969527613e-10
7.990105637e-10
8.073209004e-10
8.390728676e-10
9.571216245e-10
1.385842752e-09
2.901975305e-09
8.08990757e-09
2.511268683e-08
7.801898156e-08
2.311750019e-07
6.347283127e-07
1.572881195e-06
3.424742034e-06
7.968155555e-10
7.973151416e-10
7.998118121e-10
8.100690983e-10
8.50108832e-10
1.002704715e-09
1.572592765e-09
3.651897887e-09
1.101862827e-08
3.613738838e-08
1.175408227e-07
3.638127428e-07
1.041288785e-06
2.670893045e-06
5.910875075e-06
7.969267696e-10
7.974612789e-10
8.001422146e-10
8.112297106e-10
8.548722401e-10
1.022863447e-09
1.657664071e-09
4.006319882e-09
1.246731235e-08
4.190346914e-08
1.396413744e-07
4.43976809e-07
1.308855927e-06
3.455276752e-06
7.77694339e-06
7.968139326e-10
7.973136374e-10
7.998102752e-10
8.100679135e-10
8.50108509e-10
1.002706916e-09
1.572601027e-09
3.651918952e-09
1.101866099e-08
3.613735625e-08
1.175402894e-07
3.638096124e-07
1.041276121e-06
2.670851533e-06
5.910771261e-06
7.965335208e-10
7.969494699e-10
7.990074991e-10
8.073184816e-10
8.390717294e-10
9.571241414e-10
1.385853475e-09
2.901999265e-09
8.089926687e-09
2.511252744e-08
7.801778314e-08
2.311692962e-07
6.347068937e-07
1.57281564e-06
3.424588881e-06
7.962212746e-10
7.965488102e-10
7.981479055e-10
8.044559573e-10
8.278656165e-10
9.120460549e-10
1.206684315e-09
2.207547774e-09
5.487216143e-09
1.576647431e-08
4.62382131e-08
1.304314609e-07
3.432023258e-07
8.237302799e-07
1.769950823e-06
7.960213859e-10
7.962956855e-10
7.976154286e-10
8.02718839e-10
8.21191266e-10
8.857271738e-10
1.104421054e-09
1.821388748e-09
4.082446177e-09
1.088824482e-08
3.024780557e-08
8.165557495e-08
2.072218032e-07
4.847162648e-07
1.031132782e-06
7.962264497e-10
7.965538237e-10
7.981523754e-10
8.044597347e-10
8.278681478e-10
9.120469005e-10
1.206687023e-09
2.207579757e-09
5.487419422e-09
1.57674729e-08
4.624246422e-08
1.304479253e-07
3.432619593e-07
8.239388526e-07
7.964486877e-10
7.968480308e-10
7.988229144e-10
8.068007317e-10
8.373116348e-10
9.509655448e-10
1.365005468e-09
2.835683486e-09
7.897257731e-09
2.462399319e-08
7.703963253e-08
2.301222615e-07
6.369118605e-07
1.588532892e-06
3.468606053e-06
7.967995903e-10
7.973166776e-10
7.999166703e-10
8.107171709e-10
8.534891956e-10
1.019363067e-09
1.651573226e-09
4.012407896e-09
1.259565091e-08
4.269593692e-08
1.431644412e-07
4.562266806e-07
1.34112455e-06
3.513036161e-06
7.848627406e-06
7.971162535e-10
7.977461214e-10
8.009537513e-10
8.145588285e-10
8.698603991e-10
1.09097899e-09
1.963852866e-09
5.356863049e-09
1.827123669e-08
6.598568615e-08
2.349050363e-07
7.966469152e-07
2.49668752e-06
6.934996931e-06
1.601499413e-05
7.972432174e-10
7.97920394e-10
8.013871174e-10
8.16211991e-10
8.771094291e-10
1.123763923e-09
2.112887346e-09
6.03309186e-09
2.131997462e-08
7.955495737e-08
2.938864753e-07
1.042485136e-06
3.448566257e-06
1.016536993e-05
2.454213398e-05
7.971147905e-10
7.977446268e-10
8.009522215e-10
8.145575422e-10
8.698598134e-10
1.090979157e-09
1.963852685e-09
5.356846166e-09
1.827110835e-08
6.598497041e-08
2.349016091e-07
7.966320599e-07
2.496629385e-06
6.934801761e-06
1.601449522e-05
7.967965298e-10
7.973136764e-10
7.999138992e-10
8.107150501e-10
8.534885296e-10
1.0193657e-09
1.651581837e-09
4.012416114e-09
1.259557495e-08
4.269528477e-08
1.431607899e-07
4.562097836e-07
1.341056989e-06
3.512808769e-06
7.848055365e-06
7.964438539e-10
7.968434058e-10
7.988188877e-10
8.067976957e-10
8.373105683e-10
9.509685411e-10
1.365015515e-09
2.835692462e-09
7.897175832e-09
2.462330623e-08
7.703600124e-08
2.301062525e-07
6.368501575e-07
1.588325604e-06
3.468047266e-06
7.962192139e-10
7.965482792e-10
7.981482004e-10
8.044573097e-10
8.278682619e-10
9.120519059e-10
1.206699524e-09
2.207590909e-09
5.487336985e-09
1.576680294e-08
4.623904583e-08
1.304333708e-07
3.43206185e-07
8.237365827e-07
1.76995721e-06
7.965369014e-10
7.969528268e-10
7.990107682e-10
8.073215632e-10
8.390751361e-10
9.571305886e-10
1.385878754e-09
2.90211802e-09
8.090460168e-09
2.511477145e-08
7.802661487e-08
2.312020599e-07
6.348208985e-07
1.573182664e-06
7.967997162e-10
7.973167818e-10
7.999168382e-10
8.107177622e-10
8.534911352e-10
1.019370901e-09
1.651604792e-09
4.012535736e-09
1.25961598e-08
4.269793805e-08
1.431721455e-07
4.562561466e-07
1.341237969e-06
3.513492557e-06
7.972161376e-10
7.9790091e-10
8.014154891e-10
8.165054462e-10
8.787682236e-10
1.131995145e-09
2.150485437e-09
6.189748098e-09
2.189101879e-08
8.116686138e-08
2.955615253e-07
1.023240863e-06
3.265812857e-06
9.201345572e-06
2.139554896e-05
7.975939638e-10
7.984419675e-10
8.028633471e-10
8.223235414e-10
9.051563684e-10
1.254668178e-09
2.721963299e-09
8.838490718e-09
3.403530631e-08
1.358160772e-07
5.340492151e-07
2.013563662e-06
7.057739252e-06
2.185830231e-05
5.430256121e-05
7.977461654e-10
7.986638862e-10
8.034788128e-10
8.248854117e-10
9.172039775e-10
1.313180813e-09
3.010100131e-09
1.027149189e-08
4.121419787e-08
1.71868547e-07
7.138769305e-07
2.889527296e-06
1.109758075e-05
3.844424244e-05
0.000106453502
7.975926463e-10
7.984405882e-10
8.028619175e-10
8.223222719e-10
9.051553222e-10
1.254666423e-09
2.721953429e-09
8.838426183e-09
3.40349356e-08
1.358141017e-07
5.340391092e-07
2.013514629e-06
7.057515934e-06
2.185740331e-05
5.429984756e-05
7.972133625e-10
7.978981315e-10
8.014129085e-10
8.165034037e-10
8.787670984e-10
1.131995417e-09
2.150481588e-09
6.189693862e-09
2.189063465e-08
8.116467195e-08
2.955502972e-07
1.023187294e-06
3.265577153e-06
9.200424123e-06
2.139271693e-05
7.967953278e-10
7.973126775e-10
7.999132981e-10
8.107150377e-10
8.53489927e-10
1.019371675e-09
1.651602418e-09
4.01248426e-09
1.259579631e-08
4.269597761e-08
1.431628247e-07
4.562151309e-07
1.341068766e-06
3.512826672e-06
7.848062393e-06
7.965301661e-10
7.969479038e-10
7.990071583e-10
8.073195085e-10
8.390757788e-10
9.571357754e-10
1.385887948e-09
2.902103339e-09
8.090235822e-09
2.511340692e-08
7.802010251e-08
2.311748667e-07
6.347183238e-07
1.572833079e-06
3.424600927e-06
7.96815785e-10
7.973154365e-10
7.998122012e-10
8.100700939e-10
8.501126031e-10
1.002720158e-09
1.57265562e-09
3.652150865e-09
1.101962632e-08
3.614121704e-08
1.175550736e-07
3.638635741e-07
1.041460052e-06
2.67142165e-06
7.971164847e-10
7.97746321e-10
8.009540244e-10
8.145595588e-10
8.698635075e-10
1.090992157e-09
1.963910222e-09
5.357110305e-09
1.827229507e-08
6.599015926e-08
2.349237111e-07
7.967233401e-07
2.496988651e-06
6.93611337e-06
7.975941346e-10
7.984421938e-10
8.028635126e-10
8.22324069e-10
9.051585549e-10
1.254678156e-09
2.722010101e-09
8.838708224e-09
3.403633006e-08
1.358209243e-07
5.34072263e-07
2.013673613e-06
7.058268624e-06
2.186088672e-05
7.98029666e-10
7.990926193e-10
8.047366088e-10
8.302876579e-10
9.429797753e-10
1.439159231e-09
3.630038137e-09
1.332757928e-08
5.624257119e-08
2.451305253e-07
1.064384499e-06
4.50800908e-06
1.810189036e-05
6.527011114e-05
0.0001857730294
7.982057967e-10
7.993617373e-10
8.055443074e-10
8.338646744e-10
9.607311386e-10
1.530613298e-09
4.113076825e-09
1.594213186e-08
7.075349181e-08
3.275898583e-07
1.541580346e-06
7.287352663e-06
3.401708539e-05
0.0001504753822
0.0005544402983
7.980283126e-10
7.990914151e-10
8.047353735e-10
8.302865444e-10
9.429785143e-10
1.439155231e-09
3.630015299e-09
1.332744638e-08
5.624179895e-08
2.451261815e-07
1.064359745e-06
4.507866732e-06
1.810108649e-05
6.526587512e-05
0.000185755017
7.97591422e-10
7.984395064e-10
8.028611046e-10
8.223223329e-10
9.051580558e-10
1.254679795e-09
2.722007791e-09
8.838640201e-09
3.40357659e-08
1.358173008e-07
5.340508665e-07
2.013554423e-06
7.057631072e-06
2.185764605e-05
5.430002008e-05
7.971123487e-10
7.977425654e-10
8.009507733e-10
8.145573577e-10
8.698636208e-10
1.090996942e-09
1.963919258e-09
5.357086101e-09
1.827195283e-08
6.598784864e-08
2.349108893e-07
7.966593963e-07
2.496697993e-06
6.934930188e-06
1.601460759e-05
7.968095232e-10
7.973109237e-10
7.998090586e-10
8.100688434e-10
8.501143804e-10
1.00272754e-09
1.572669074e-09
3.652139523e-09
1.101935888e-08
3.613947591e-08
1.175463294e-07
3.638253234e-07
1.04131107e-06
2.670910711e-06
5.910823884e-06
7.969271127e-10
7.974616853e-10
8.001428046e-10
8.112312033e-10
8.548778189e-10
1.022886081e-09
1.65775594e-09
4.006688258e-09
1.246876061e-08
4.190902056e-08
1.396619353e-07
4.440496438e-07
1.309098233e-06
3.456005977e-06
7.972433352e-10
7.979207227e-10
8.013876003e-10
8.162133874e-10
8.771149596e-10
1.123787509e-09
2.112989418e-09
6.033530266e-09
2.132185582e-08
7.956297611e-08
2.939200875e-07
1.042622929e-06
3.449105689e-06
1.016729764e-05
7.977464261e-10
7.986641829e-10
8.034792635e-10
8.2488682e-10
9.172102828e-10
1.313209299e-09
3.010230615e-09
1.027209642e-08
4.121703211e-08
1.718819902e-07
7.139413379e-07
2.889838107e-06
1.109906554e-05
3.845098048e-05
7.982060272e-10
7.993618698e-10
8.055446767e-10
8.338658467e-10
9.607359737e-10
1.530636036e-09
4.113185787e-09
1.594266819e-08
7.075622702e-08
3.276044052e-07
1.541661778e-06
7.287836079e-06
3.402014173e-05
0.0001504959971
7.98392167e-10
7.996515597e-10
8.064414667e-10
8.379411011e-10
9.814856626e-10
1.641004493e-09
4.721439772e-09
1.943032581e-08
9.169115338e-08
4.598910579e-07
2.424930359e-06
1.352712515e-05
8.058692916e-05
0.0005165310718
0.003585658111
7.982046022e-10
7.993606868e-10
8.055435607e-10
8.338651366e-10
9.607361467e-10
1.530638086e-09
4.113188775e-09
1.594263722e-08
7.075582225e-08
3.276008517e-07
1.541632234e-06
7.287595377e-06
3.401815982e-05
0.0001504793269
0.0005544446438
7.977438102e-10
7.986615967e-10
8.034769758e-10
8.248852755e-10
9.172099525e-10
1.313211272e-09
3.0102284e-09
1.027201987e-08
4.121637045e-08
1.718775111e-07
7.139129595e-07
2.889666047e-06
1.109805431e-05
3.844547654e-05
0.0001064546355
7.972395604e-10
7.979172474e-10
8.01384604e-10
8.162114655e-10
8.771153592e-10
1.123791988e-09
2.112995368e-09
6.033489234e-09
2.132141892e-08
7.956011106e-08
2.939041125e-07
1.042541428e-06
3.448722376e-06
1.016569443e-05
2.454240346e-05
7.969212217e-10
7.974574946e-10
8.001401076e-10
8.112302253e-10
8.548796682e-10
1.022892944e-09
1.657766347e-09
4.00666171e-09
1.246842521e-08
4.190696671e-08
1.396518076e-07
4.440052561e-07
1.308923378e-06
3.455399081e-06
7.777059627e-06
7.968142556e-10
7.973140162e-10
7.998109955e-10
8.100696405e-10
8.501150297e-10
1.002732443e-09
1.572703043e-09
3.652318287e-09
1.10201873e-08
3.614300692e-08
1.175603702e-07
3.638772968e-07
1.0414879e-06
2.671449366e-06
7.971151682e-10
7.977450669e-10
8.009530162e-10
8.145594027e-10
8.698668427e-10
1.091008511e-09
1.96397632e-09
5.357361945e-09
1.827322942e-08
6.599351601e-08
2.349350717e-07
7.967578317e-07
2.497071704e-06
6.936195973e-06
7.97593047e-10
7.984410693e-10
8.028626352e-10
8.22324516e-10
9.051640858e-10
1.254704655e-09
2.722123023e-09
8.839181171e-09
3.403828539e-08
1.358289219e-07
5.341039183e-07
2.013791179e-06
7.058638743e-06
2.186151793e-05
7.980286268e-10
7.990917307e-10
8.047360156e-10
8.302885551e-10
9.429872308e-10
1.439194748e-09
3.630198671e-09
1.332831007e-08
5.624592876e-08
2.451462741e-07
1.064458856e-06
4.508357714e-06
1.81034797e-05
6.527682651e-05
7.982048131e-10
7.993608585e-10
8.055438749e-10
8.338664946e-10
9.607422816e-10
1.530666863e-09
4.113323763e-09
1.594329042e-08
7.075908111e-08
3.276176492e-07
1.541723052e-06
7.288112694e-06
3.402130719e-05
0.0001504998605
7.980274161e-10
7.990904483e-10
8.047347397e-10
8.302876127e-10
9.429861483e-10
1.439191915e-09
3.630181716e-09
1.332820046e-08
5.624528549e-08
2.451425933e-07
1.06443815e-06
4.508246834e-06
1.810293144e-05
6.527481366e-05
7.975904185e-10
7.984385312e-10
8.02860583e-10
8.223228444e-10
9.051632936e-10
1.254704321e-09
2.722113099e-09
8.839085965e-09
3.403765861e-08
1.358252969e-07
5.340845881e-07
2.013693482e-06
7.058180906e-06
2.185960651e-05
5.430620421e-05
7.971115016e-10
7.977416362e-10
8.009501076e-10
8.145576446e-10
8.69866894e-10
1.091012058e-09
1.963980427e-09
5.357326408e-09
1.827287774e-08
6.599134625e-08
2.349238741e-07
7.967054724e-07
2.496850773e-06
6.935375802e-06
1.601561081e-05
7.968086816e-10
7.973100848e-10
7.9980844e-10
8.100687667e-10
8.501165015e-10
1.002737556e-09
1.572708038e-09
3.652282612e-09
1.101986815e-08
3.614123915e-08
1.175521778e-07
3.638436107e-07
1.041363203e-06
2.671039208e-06
5.911066413e-06
7.965338764e-10
7.969499323e-10
7.990081749e-10
8.073200132e-10
8.390774288e-10
9.571458293e-10
1.385937684e-09
2.902320171e-09
8.091112485e-09
2.511675263e-08
7.803212682e-08
2.312152832e-07
6.348434362e-07
1.573183224e-06
7.967970455e-10
7.973141944e-10
7.999145636e-10
8.107168083e-10
8.534951067e-10
1.019391892e-09
1.651687951e-09
4.012840245e-09
1.259723386e-08
4.270158889e-08
1.431838314e-07
4.562896326e-07
1.341313636e-06
3.513548055e-06
7.972138329e-10
7.978985646e-10
8.014137142e-10
8.165056609e-10
8.787756517e-10
1.132031031e-09
2.150632681e-09
6.190329955e-09
2.1893277e-08
8.117543463e-08
2.955930222e-07
1.023349751e-06
3.266153171e-06
9.202244508e-06
7.975919001e-10
7.98439928e-10
8.028619468e-10
8.223245067e-10
9.051669499e-10
1.254718279e-09
2.722176945e-09
8.83938927e-09
3.403908581e-08
1.358319107e-07
5.341145252e-07
2.013824299e-06
7.058719583e-06
2.18616027e-05
7.977441285e-10
7.986619722e-10
8.034776011e-10
8.248870186e-10
9.172170114e-10
1.313241613e-09
3.010365539e-09
1.027264708e-08
4.121927299e-08
1.718910183e-07
7.139766091e-07
2.889965543e-06
1.109944865e-05
3.845159674e-05
7.975906922e-10
7.98438854e-10
8.028607422e-10
8.223235066e-10
9.051659628e-10
1.25471605e-09
2.722165552e-09
8.839322395e-09
3.40387233e-08
1.358300702e-07
5.341057981e-07
2.013786035e-06
7.058571065e-06
2.186115983e-05
7.972114764e-10
7.978963881e-10
8.014116067e-10
8.165038931e-10
8.787744972e-10
1.132029696e-09
2.150622398e-09
6.190258036e-09
2.189287252e-08
8.117344561e-08
2.955840717e-07
1.023313697e-06
3.266034133e-06
9.202037102e-06
7.967935444e-10
7.973110903e-10
7.999119215e-10
8.107150624e-10
8.534946618e-10
1.019393672e-09
1.651689151e-09
4.012811901e-09
1.259700729e-08
4.270034683e-08
1.431781371e-07
4.562665677e-07
1.341231236e-06
3.513291566e-06
7.849224378e-06
7.965286036e-10
7.969463897e-10
7.990058748e-10
8.073193053e-10
8.390787612e-10
9.571501365e-10
1.385943109e-09
2.902301174e-09
8.090922977e-09
2.511571727e-08
7.80275651e-08
2.311976141e-07
6.34782122e-07
1.572990842e-06
3.42490704e-06
7.962215358e-10
7.965491301e-10
7.981484484e-10
8.044574923e-10
8.278706223e-10
9.120637767e-10
1.206750473e-09
2.207790411e-09
5.488075704e-09
1.576939788e-08
4.624766832e-08
1.304602288e-07
3.432836504e-07
8.239406826e-07
7.964443234e-10
7.968438558e-10
7.988195596e-10
8.067992827e-10
8.373162143e-10
9.50989857e-10
1.365097528e-09
2.836003581e-09
7.898325601e-09
2.462740752e-08
7.70499669e-08
2.301511737e-07
6.369840189e-07
1.588686147e-06
7.967959097e-10
7.973131859e-10
7.999140062e-10
8.107170523e-10
8.53496971e-10
1.019399298e-09
1.651713651e-09
4.012926504e-09
1.259751376e-08
4.270245015e-08
1.431862739e-07
4.562957853e-07
1.341326262e-06
3.513563833e-06
7.971128405e-10
7.97742932e-10
8.00951523e-10
8.145593954e-10
8.698707926e-10
1.091026011e-09
1.964040944e-09
5.357590779e-09
1.827401594e-08
6.599610451e-08
2.349430597e-07
7.967794939e-07
2.497117589e-06
6.936242195e-06
7.972398856e-10
7.979175948e-10
8.013852814e-10
8.16213022e-10
8.771210004e-10
1.123815885e-09
2.113098351e-09
6.033929313e-09
2.132328017e-08
7.956790965e-08
2.939362607e-07
1.042670244e-06
3.449213427e-06
1.016739982e-05
7.971117658e-10
7.977420372e-10
8.009505387e-10
8.14558434e-10
8.698699481e-10
1.091024965e-09
1.96403622e-09
5.357562402e-09
1.827386713e-08
6.599542331e-08
2.349400793e-07
7.967679832e-07
2.49707826e-06
6.936131971e-06
7.967936554e-10
7.973111985e-10
7.999121027e-10
8.107152823e-10
8.534954318e-10
1.019397199e-09
1.651704342e-09
4.012876853e-09
1.259727782e-08
4.270144369e-08
1.431824067e-07
4.562827204e-07
1.341290659e-06
3.513504148e-06
7.964412012e-10
7.968410661e-10
7.988171519e-10
8.06797525e-10
8.373150771e-10
9.509888161e-10
1.365091423e-09
2.835965858e-09
7.898136509e-09
2.462660468e-08
7.704699521e-08
2.301417243e-07
6.36961206e-07
1.58867309e-06
7.962168231e-10
7.965462309e-10
7.981467666e-10
8.044570145e-10
8.278715859e-10
9.120667302e-10
1.206753597e-09
2.207777199e-09
5.487961586e-09
1.576884034e-08
4.624545885e-08
1.304527029e-07
3.432612091e-07
8.238794838e-07
1.77027923e-06
7.960217432e-10
7.962961602e-10
7.97616129e-10
8.0272009e-10
8.211953736e-10
8.857418321e-10
1.104474105e-09
1.821578131e-09
4.083096544e-09
1.089038256e-08
3.025447639e-08
8.167518194e-08
2.072754978e-07
4.848522784e-07
7.96219701e-10
7.965488781e-10
7.981489851e-10
8.044587267e-10
8.278731959e-10
9.12070007e-10
1.206767141e-09
2.207837185e-09
5.488206593e-09
1.576974649e-08
4.624853566e-08
1.304621612e-07
3.432873602e-07
8.239457916e-07
7.965307593e-10
7.969485291e-10
7.990079741e-10
8.073213732e-10
8.390817851e-10
9.57158304e-10
1.385974823e-09
2.902431717e-09
8.091439042e-09
2.511765578e-08
7.803443256e-08
2.312204626e-07
6.348527197e-07
1.573192889e-06
7.968099638e-10
7.973114441e-10
7.998098391e-10
8.100705655e-10
8.501204253e-10
1.002751251e-09
1.572763471e-09
3.652508623e-09
1.102076616e-08
3.614467442e-08
1.175647604e-07
3.638872898e-07
1.04150462e-06
2.671456492e-06
7.969215137e-10
7.974578593e-10
8.001406613e-10
8.112316644e-10
8.548847115e-10
1.022912961e-09
1.657847716e-09
4.006988795e-09
1.246970813e-08
4.191186443e-08
1.396698614e-07
4.440687729e-07
1.309132659e-06
3.456024515e-06
7.968089576e-10
7.973104053e-10
7.998088332e-10
8.100696509e-10
8.50119538e-10
1.00274996e-09
1.572759022e-09
3.652487533e-09
1.102067279e-08
3.614429569e-08
1.175633526e-07
3.638825014e-07
1.041489927e-06
2.671418389e-06
7.965287371e-10
7.969465491e-10
7.990061112e-10
8.073197709e-10
8.390804288e-10
9.571566648e-10
1.385969063e-09
2.902403701e-09
8.091314634e-09
2.511716819e-08
7.803273336e-08
2.312152462e-07
6.348394399e-07
1.573167866e-06
7.962167989e-10
7.965461688e-10
7.981467801e-10
8.044572847e-10
8.278723609e-10
9.120695176e-10
1.206763939e-09
2.207816465e-09
5.488104779e-09
1.576934678e-08
4.624720718e-08
1.304585623e-07
3.432805463e-07
8.239450291e-07
7.96017822e-10
7.962939128e-10
7.976151392e-10
8.027203579e-10
8.211970456e-10
8.857453174e-10
1.104478678e-09
1.821574993e-09
4.083044125e-09
1.089012783e-08
3.025358083e-08
8.167281444e-08
2.072720864e-07
4.848629903e-07
)
;

boundaryField
{
    top
    {
        type            calculated;
        value           nonuniform List<scalar> 
134
(
7.960213859e-10
7.962192139e-10
7.965301661e-10
7.968095232e-10
7.969212217e-10
7.968086816e-10
7.965286036e-10
7.962168231e-10
7.96017822e-10
7.962956855e-10
7.965482792e-10
7.969479038e-10
7.973109237e-10
7.974574946e-10
7.973100848e-10
7.969463897e-10
7.965462309e-10
7.962939128e-10
7.976154286e-10
7.981482004e-10
7.990071583e-10
7.998090586e-10
8.001401076e-10
7.9980844e-10
7.990058748e-10
7.981467666e-10
7.976151392e-10
8.02718839e-10
8.044573097e-10
8.073195085e-10
8.100688434e-10
8.112302253e-10
8.100687667e-10
8.073193053e-10
8.044570145e-10
8.027203579e-10
8.21191266e-10
8.278682619e-10
8.390757788e-10
8.501143804e-10
8.548796682e-10
8.501165015e-10
8.390787612e-10
8.278715859e-10
8.211970456e-10
8.857271738e-10
9.120519059e-10
9.571357754e-10
1.00272754e-09
1.022892944e-09
1.002737556e-09
9.571501365e-10
9.120667302e-10
8.857453174e-10
1.104421054e-09
1.206699524e-09
1.385887948e-09
1.572669074e-09
1.657766347e-09
1.572708038e-09
1.385943109e-09
1.206753597e-09
1.104478678e-09
1.821388748e-09
2.207590909e-09
2.902103339e-09
3.652139523e-09
4.00666171e-09
3.652282612e-09
2.902301174e-09
2.207777199e-09
1.821574993e-09
4.082446177e-09
5.487336985e-09
8.090235822e-09
1.101935888e-08
1.246842521e-08
1.101986815e-08
8.090922977e-09
5.487961586e-09
4.083044125e-09
1.088824482e-08
1.576680294e-08
2.511340692e-08
3.613947591e-08
4.190696671e-08
3.614123915e-08
2.511571727e-08
1.576884034e-08
1.089012783e-08
3.024780557e-08
4.623904583e-08
7.802010251e-08
1.175463294e-07
1.396518076e-07
1.175521778e-07
7.80275651e-08
4.624545885e-08
3.025358083e-08
8.165557495e-08
1.304333708e-07
2.311748667e-07
3.638253234e-07
4.440052561e-07
3.638436107e-07
2.311976141e-07
1.304527029e-07
8.167281444e-08
2.072218032e-07
3.43206185e-07
6.347183238e-07
1.04131107e-06
1.308923378e-06
1.041363203e-06
6.34782122e-07
3.432612091e-07
2.072720864e-07
4.847162648e-07
8.237365827e-07
1.572833079e-06
2.670910711e-06
3.455399081e-06
2.671039208e-06
1.572990842e-06
8.238794838e-07
4.848629903e-07
1.031132782e-06
1.76995721e-06
3.424600927e-06
5.910823884e-06
7.777059627e-06
5.911066413e-06
3.42490704e-06
1.77027923e-06
)
;
    }
    bottom
    {
        type            calculated;
        value           nonuniform List<scalar> 
127
(
7.960295811e-10
7.962264497e-10
7.965369014e-10
7.96815785e-10
7.969271127e-10
7.968142556e-10
7.965338764e-10
7.962215358e-10
7.960217432e-10
7.963020179e-10
7.965538237e-10
7.969528268e-10
7.973154365e-10
7.974616853e-10
7.973140162e-10
7.969499323e-10
7.965491301e-10
7.962961602e-10
7.976204242e-10
7.981523754e-10
7.990107682e-10
7.998122012e-10
8.001428046e-10
7.998109955e-10
7.990081749e-10
7.981484484e-10
7.97616129e-10
8.027221772e-10
8.044597347e-10
8.073215632e-10
8.100700939e-10
8.112312033e-10
8.100696405e-10
8.073200132e-10
8.044574923e-10
8.0272009e-10
8.211919792e-10
8.278681478e-10
8.390751361e-10
8.501126031e-10
8.548778189e-10
8.501150297e-10
8.390774288e-10
8.278706223e-10
8.211953736e-10
8.857229865e-10
9.120469005e-10
9.571305886e-10
1.002720158e-09
1.022886081e-09
1.002732443e-09
9.571458293e-10
9.120637767e-10
8.857418321e-10
1.104407453e-09
1.206687023e-09
1.385878754e-09
1.57265562e-09
1.65775594e-09
1.572703043e-09
1.385937684e-09
1.206750473e-09
1.104474105e-09
1.821364822e-09
2.207579757e-09
2.90211802e-09
3.652150865e-09
4.006688258e-09
3.652318287e-09
2.902320171e-09
2.207790411e-09
1.821578131e-09
4.082452363e-09
5.487419422e-09
8.090460168e-09
1.101962632e-08
1.246876061e-08
1.10201873e-08
8.091112485e-09
5.488075704e-09
4.083096544e-09
1.088853848e-08
1.57674729e-08
2.511477145e-08
3.614121704e-08
4.190902056e-08
3.614300692e-08
2.511675263e-08
1.576939788e-08
1.089038256e-08
3.024952351e-08
4.624246422e-08
7.802661487e-08
1.175550736e-07
1.396619353e-07
1.175603702e-07
7.803212682e-08
4.624766832e-08
3.025447639e-08
8.166290456e-08
1.304479253e-07
2.312020599e-07
3.638635741e-07
4.440496438e-07
3.638772968e-07
2.312152832e-07
1.304602288e-07
8.167518194e-08
2.07247923e-07
3.432619593e-07
6.348208985e-07
1.041460052e-06
1.309098233e-06
1.0414879e-06
6.348434362e-07
3.432836504e-07
2.072754978e-07
4.8479598e-07
8.239388526e-07
1.573182664e-06
2.67142165e-06
3.456005977e-06
2.671449366e-06
1.573183224e-06
8.239406826e-07
4.848522784e-07
1.03132595e-06
)
;
    }
    side-walls
    {
        type            calculated;
        value           nonuniform List<scalar> 
261
(
7.960295811e-10
7.962264487e-10
7.965367949e-10
7.968155555e-10
7.969267696e-10
7.968139326e-10
7.965335208e-10
7.962212746e-10
7.960213859e-10
7.963020179e-10
7.965537224e-10
7.969527613e-10
7.973151416e-10
7.974612789e-10
7.973136374e-10
7.969494699e-10
7.965488102e-10
7.962956855e-10
7.976204242e-10
7.981522712e-10
7.990105637e-10
7.998118121e-10
8.001422146e-10
7.998102752e-10
7.990074991e-10
7.981479055e-10
7.976154286e-10
8.027221772e-10
8.044595995e-10
8.073209004e-10
8.100690983e-10
8.112297106e-10
8.100679135e-10
8.073184816e-10
8.044559573e-10
8.02718839e-10
8.211919792e-10
8.278675709e-10
8.390728676e-10
8.50108832e-10
8.548722401e-10
8.50108509e-10
8.390717294e-10
8.278656165e-10
8.21191266e-10
8.857229865e-10
9.120443199e-10
9.571216245e-10
1.002704715e-09
1.022863447e-09
1.002706916e-09
9.571241414e-10
9.120460549e-10
8.857271738e-10
1.104407453e-09
1.206676511e-09
1.385842752e-09
1.572592765e-09
1.657664071e-09
1.572601027e-09
1.385853475e-09
1.206684315e-09
1.104421054e-09
1.821364822e-09
2.20753774e-09
2.901975305e-09
3.651897887e-09
4.006319882e-09
3.651918952e-09
2.901999265e-09
2.207547774e-09
1.821388748e-09
4.082452363e-09
5.487254588e-09
8.08990757e-09
1.101862827e-08
1.246731235e-08
1.101866099e-08
8.089926687e-09
5.487216143e-09
4.082446177e-09
1.088853848e-08
1.576684511e-08
2.511268683e-08
3.613738838e-08
4.190346914e-08
3.613735625e-08
2.511252744e-08
1.576647431e-08
1.088824482e-08
3.024952351e-08
4.624012014e-08
7.801898156e-08
1.175408227e-07
1.396413744e-07
1.175402894e-07
7.801778314e-08
4.62382131e-08
3.024780557e-08
8.166290456e-08
1.304391949e-07
2.311750019e-07
3.638127428e-07
4.43976809e-07
3.638096124e-07
2.311692962e-07
1.304314609e-07
8.165557495e-08
2.07247923e-07
3.432290203e-07
6.347283127e-07
1.041288785e-06
1.308855927e-06
1.041276121e-06
6.347068937e-07
3.432023258e-07
2.072218032e-07
4.8479598e-07
8.238077007e-07
1.572881195e-06
2.670893045e-06
3.455276752e-06
2.670851533e-06
1.57281564e-06
8.237302799e-07
4.847162648e-07
1.03132595e-06
1.770123826e-06
3.424742034e-06
5.910875075e-06
7.77694339e-06
5.910771261e-06
3.424588881e-06
1.769950823e-06
1.031132782e-06
7.960217432e-10
7.96219701e-10
7.965307593e-10
7.968099638e-10
7.969215137e-10
7.968089576e-10
7.965287371e-10
7.962167989e-10
7.96017822e-10
7.962961602e-10
7.965488781e-10
7.969485291e-10
7.973114441e-10
7.974578593e-10
7.973104053e-10
7.969465491e-10
7.965461688e-10
7.962939128e-10
7.97616129e-10
7.981489851e-10
7.990079741e-10
7.998098391e-10
8.001406613e-10
7.998088332e-10
7.990061112e-10
7.981467801e-10
7.976151392e-10
8.0272009e-10
8.044587267e-10
8.073213732e-10
8.100705655e-10
8.112316644e-10
8.100696509e-10
8.073197709e-10
8.044572847e-10
8.027203579e-10
8.211953736e-10
8.278731959e-10
8.390817851e-10
8.501204253e-10
8.548847115e-10
8.50119538e-10
8.390804288e-10
8.278723609e-10
8.211970456e-10
8.857418321e-10
9.12070007e-10
9.57158304e-10
1.002751251e-09
1.022912961e-09
1.00274996e-09
9.571566648e-10
9.120695176e-10
8.857453174e-10
1.104474105e-09
1.206767141e-09
1.385974823e-09
1.572763471e-09
1.657847716e-09
1.572759022e-09
1.385969063e-09
1.206763939e-09
1.104478678e-09
1.821578131e-09
2.207837185e-09
2.902431717e-09
3.652508623e-09
4.006988795e-09
3.652487533e-09
2.902403701e-09
2.207816465e-09
1.821574993e-09
4.083096544e-09
5.488206593e-09
8.091439042e-09
1.102076616e-08
1.246970813e-08
1.102067279e-08
8.091314634e-09
5.488104779e-09
4.083044125e-09
1.089038256e-08
1.576974649e-08
2.511765578e-08
3.614467442e-08
4.191186443e-08
3.614429569e-08
2.511716819e-08
1.576934678e-08
1.089012783e-08
3.025447639e-08
4.624853566e-08
7.803443256e-08
1.175647604e-07
1.396698614e-07
1.175633526e-07
7.803273336e-08
4.624720718e-08
3.025358083e-08
8.167518194e-08
1.304621612e-07
2.312204626e-07
3.638872898e-07
4.440687729e-07
3.638825014e-07
2.312152462e-07
1.304585623e-07
8.167281444e-08
2.072754978e-07
3.432873602e-07
6.348527197e-07
1.04150462e-06
1.309132659e-06
1.041489927e-06
6.348394399e-07
3.432805463e-07
2.072720864e-07
4.848522784e-07
8.239457916e-07
1.573192889e-06
2.671456492e-06
3.456024515e-06
2.671418389e-06
1.573167866e-06
8.239450291e-07
4.848629903e-07
)
;
    }
    inlet
    {
        type            calculated;
        value           nonuniform List<scalar> 
81
(
7.960295811e-10
7.962264487e-10
7.965367949e-10
7.968155555e-10
7.969267696e-10
7.968139326e-10
7.965335208e-10
7.962212746e-10
7.960213859e-10
7.962264497e-10
7.964486877e-10
7.967995903e-10
7.971162535e-10
7.972432174e-10
7.971147905e-10
7.967965298e-10
7.964438539e-10
7.962192139e-10
7.965369014e-10
7.967997162e-10
7.972161376e-10
7.975939638e-10
7.977461654e-10
7.975926463e-10
7.972133625e-10
7.967953278e-10
7.965301661e-10
7.96815785e-10
7.971164847e-10
7.975941346e-10
7.98029666e-10
7.982057967e-10
7.980283126e-10
7.97591422e-10
7.971123487e-10
7.968095232e-10
7.969271127e-10
7.972433352e-10
7.977464261e-10
7.982060272e-10
7.98392167e-10
7.982046022e-10
7.977438102e-10
7.972395604e-10
7.969212217e-10
7.968142556e-10
7.971151682e-10
7.97593047e-10
7.980286268e-10
7.982048131e-10
7.980274161e-10
7.975904185e-10
7.971115016e-10
7.968086816e-10
7.965338764e-10
7.967970455e-10
7.972138329e-10
7.975919001e-10
7.977441285e-10
7.975906922e-10
7.972114764e-10
7.967935444e-10
7.965286036e-10
7.962215358e-10
7.964443234e-10
7.967959097e-10
7.971128405e-10
7.972398856e-10
7.971117658e-10
7.967936554e-10
7.964412012e-10
7.962168231e-10
7.960217432e-10
7.96219701e-10
7.965307593e-10
7.968099638e-10
7.969215137e-10
7.968089576e-10
7.965287371e-10
7.962167989e-10
7.96017822e-10
)
;
    }
    outlet
    {
        type            calculated;
        value           nonuniform 0();
    }
    procBoundary0to1
    {
        type            processor;
        value           nonuniform List<scalar> 
97
(
1.982834745e-06
1.770281962e-06
3.371263121e-06
6.439046801e-06
1.093590618e-05
1.414814975e-05
1.093577532e-05
6.438860568e-06
3.371072102e-06