ITEM: TIMESTEP
10000
ITEM: NUMBER OF ATOMS
1
ITEM: BOX BOUNDS ff ff ff
0 1.5
0 0.5
0 0.5
ITEM: ATOMS id type x y z ix iy iz vx vy vz fx fy fz omegax omegay omegaz radius 
1 1 0.75 0.25 0.25 0 0 0 0 0 0 0 0 0 0 0 0 0.00553014 
ITEM: TIMESTEP
20000
ITEM: NUMBER OF ATOMS
1
ITEM: BOX BOUNDS ff ff ff
0 1.5
0 0.5
0 0.5
ITEM: ATOMS id type x y z ix iy iz vx vy vz fx fy fz omegax omegay omegaz radius 
1 1 0.75 0.25 0.25 0 0 0 0 0 0 1.30261e-11 -1.95582e-16 -1.02806e-16 0 0 0 0.00553315 
ITEM: TIMESTEP
30000
ITEM: NUMBER OF ATOMS
1
ITEM: BOX BOUNDS ff ff ff
0 1.5
0 0.5
0 0.5
ITEM: ATOMS id type x y z ix iy iz vx vy vz fx fy fz omegax omegay omegaz radius 
1 1 0.75 0.25 0.25 0 0 0 0 0 0 1.18507e-11 4.24112e-17 -1.39477e-16 0 0 0 0.00553655 
ITEM: TIMESTEP
40000
ITEM: NUMBER OF ATOMS
1
ITEM: BOX BOUNDS ff ff ff
0 1.5
0 0.5
0 0.5
ITEM: ATOMS id type x y z ix iy iz vx vy vz fx fy fz omegax omegay omegaz radius 
1 1 0.75 0.25 0.25 0 0 0 0 0 0 1.10667e-11 1.13566e-16 9.45162e-17 0 0 0 0.00554006 
ITEM: TIMESTEP
50000
ITEM: NUMBER OF ATOMS
1
ITEM: BOX BOUNDS ff ff ff
0 1.5
0 0.5
0 0.5
ITEM: ATOMS id type x y z ix iy iz vx vy vz fx fy fz omegax omegay omegaz radius 
1 1 0.75 0.25 0.25 0 0 0 0 0 0 1.04626e-11 1.07717e-16 -1.94751e-17 0 0 0 0.00554358 
ITEM: TIMESTEP
60000
ITEM: NUMBER OF ATOMS
1
ITEM: BOX BOUNDS ff ff ff
0 1.5
0 0.5
0 0.5
ITEM: ATOMS id type x y z ix iy iz vx vy vz fx fy fz omegax omegay omegaz radius 
1 1 0.75 0.25 0.25 0 0 0 0 0 0 9.96452e-12 -8.89343e-17 -1.83138e-16 0 0 0 0.00554707 
ITEM: TIMESTEP
70000
ITEM: NUMBER OF ATOMS
1
ITEM: BOX BOUNDS ff ff ff
0 1.5
0 0.5
0 0.5
ITEM: ATOMS id type x y z ix iy iz vx vy vz fx fy fz omegax omegay omegaz radius 
1 1 0.75 0.25 0.25 0 0 0 0 0 0 9.53634e-12 -3.48117e-16 -2.71146e-16 0 0 0 0.00555051 
ITEM: TIMESTEP
80000
ITEM: NUMBER OF ATOMS
1
ITEM: BOX BOUNDS ff ff ff
0 1.5
0 0.5
0 0.5
ITEM: ATOMS id type x y z ix iy iz vx vy vz fx fy fz omegax omegay omegaz radius 
1 1 0.75 0.25 0.25 0 0 0 0 0 0 9.15696e-12 -4.48035e-17 -1.44967e-17 0 0 0 0.00555389 
ITEM: TIMESTEP
90000
ITEM: NUMBER OF ATOMS
1
ITEM: BOX BOUNDS ff ff ff
0 1.5
0 0.5
0 0.5
ITEM: ATOMS id type x y z ix iy iz vx vy vz fx fy fz omegax omegay omegaz radius 
1 1 0.75 0.25 0.25 0 0 0 0 0 0 8.81811e-12 -5.91105e-16 1.28593e-16 0 0 0 0.00555719 
ITEM: TIMESTEP
100000
ITEM: NUMBER OF ATOMS
1
ITEM: BOX BOUNDS ff ff ff
0 1.5
0 0.5
0 0.5
ITEM: ATOMS id type x y z ix iy iz vx vy vz fx fy fz omegax omegay omegaz radius 
1 1 0.75 0.25 0.25 0 0 0 0 0 0 8.50919e-12 -1.24001e-17 4.32523e-18 0 0 0 0.00556043 
ITEM: TIMESTEP
110000
ITEM: NUMBER OF ATOMS
1
ITEM: BOX BOUNDS ff ff ff
0 1.5
0 0.5
0 0.5
ITEM: ATOMS id type x y z ix iy iz vx vy vz fx fy fz omegax omegay omegaz radius 
1 1 0.75 0.25 0.25 0 0 0 0 0 0 8.22707e-12 -4.1196e-16 -4.95469e-16 0 0 0 0.0055636 
ITEM: TIMESTEP
120000
ITEM: NUMBER OF ATOMS
1
ITEM: BOX BOUNDS ff ff ff
0 1.5
0 0.5
0 0.5
ITEM: ATOMS id type x y z ix iy iz vx vy vz fx fy fz omegax omegay omegaz radius 
1 1 0.75 0.25 0.25 0 0 0 0 0 0 7.96631e-12 5.01691e-16 4.83409e-17 0 0 0 0.00556669 
ITEM: TIMESTEP
130000
ITEM: NUMBER OF ATOMS
1
ITEM: BOX BOUNDS ff ff ff
0 1.5
0 0.5
0 0.5
ITEM: ATOMS id type x y z ix iy iz vx vy vz fx fy fz omegax omegay omegaz radius 
1 1 0.75 0.25 0.25 0 0 0 0 0 0 7.7248e-12 4.1715e-17 4.2813e-17 0 0 0 0.00556972 
ITEM: TIMESTEP
140000
ITEM: NUMBER OF ATOMS
1
ITEM: BOX BOUNDS ff ff ff
0 1.5
0 0.5
0 0.5
ITEM: ATOMS id type x y z ix iy iz vx vy vz fx fy fz omegax omegay omegaz radius 
1 1 0.75 0.25 0.25 0 0 0 0 0 0 7.49954e-12 3.32587e-16 -3.79252e-16 0 0 0 0.00557268 
ITEM: TIMESTEP
150000
ITEM: NUMBER OF ATOMS
1
ITEM: BOX BOUNDS ff ff ff
0 1.5
0 0.5
0 0.5
ITEM: ATOMS id type x y z ix iy iz vx vy vz fx fy fz omegax omegay omegaz radius 
1 1 0.75 0.25 0.25 0 0 0 0 0 0 7.28844e-12 -1.53677e-16 -1.77873e-16 0 0 0 0.00557559 
ITEM: TIMESTEP
160000
ITEM: NUMBER OF ATOMS
1
ITEM: BOX BOUNDS ff ff ff
0 1.5
0 0.5
0 0.5
ITEM: ATOMS id type x y z ix iy iz vx vy vz fx fy fz omegax omegay omegaz radius 
1 1 0.75 0.25 0.25 0 0 0 0 0 0 7.09104e-12 5.66609e-16 -4.53202e-16 0 0 0 0.00557842 
ITEM: TIMESTEP
170000
ITEM: NUMBER OF ATOMS
1
ITEM: BOX BOUNDS ff ff ff
0 1.5
0 0.5
0 0.5
ITEM: ATOMS id type x y z ix iy iz vx vy vz fx fy fz omegax omegay omegaz radius 
1 1 0.75 0.25 0.25 0 0 0 0 0 0 6.90494e-12 -4.69645e-17 8.80895e-17 0 0 0 0.00558121 
ITEM: TIMESTEP
180000
ITEM: NUMBER OF ATOMS
1
ITEM: BOX BOUNDS ff ff ff
0 1.5
0 0.5
0 0.5
ITEM: ATOMS id type x y z ix iy iz vx vy vz fx fy fz omegax omegay omegaz radius 
1 1 0.75 0.25 0.25 0 0 0 0 0 0 6.72904e-12 -5.39013e-16 2.36742e-16 0 0 0 0.00558393 
ITEM: TIMESTEP
190000
ITEM: NUMBER OF ATOMS
1
ITEM: BOX BOUNDS ff ff ff
0 1.5
0 0.5
0 0.5
ITEM: ATOMS id type x y z ix iy iz vx vy vz fx fy fz omegax omegay omegaz radius 
1 1 0.75 0.25 0.25 0 0 0 0 0 0 6.56244e-12 2.77468e-17 -2.65694e-16 0 0 0 0.0055866 
ITEM: TIMESTEP
200000
ITEM: NUMBER OF ATOMS
1
ITEM: BOX BOUNDS ff ff ff
0 1.5
0 0.5
0 0.5
ITEM: ATOMS id type x y z ix iy iz vx vy vz fx fy fz omegax omegay omegaz radius 
1 1 0.75 0.25 0.25 0 0 0 0 0 0 6.40418e-12 1.15933e-16 1.74383e-16 0 0 0 0.00558921 
ITEM: TIMESTEP
210000
ITEM: NUMBER OF ATOMS
1
ITEM: BOX BOUNDS ff ff ff
0 1.5
0 0.5
0 0.5
ITEM: ATOMS id type x y z ix iy iz vx vy vz fx fy fz omegax omegay omegaz radius 
1 1 0.75 0.25 0.25 0 0 0 0 0 0 6.25303e-12 3.79792e-16 -3.18343e-16 0 0 0 0.00559178 
ITEM: TIMESTEP
220000
ITEM: NUMBER OF ATOMS
1
ITEM: BOX BOUNDS ff ff ff
0 1.5
0 0.5
0 0.5
ITEM: ATOMS id type x y z ix iy iz vx vy vz fx fy fz omegax omegay omegaz radius 
1 1 0.75 0.25 0.25 0 0 0 0 0 0 6.11144e-12 -1.23059e-16 -2.28023e-16 0 0 0 0.00559429 
ITEM: TIMESTEP
230000
ITEM: NUMBER OF ATOMS
1
ITEM: BOX BOUNDS ff ff ff
0 1.5
0 0.5
0 0.5
ITEM: ATOMS id type x y z ix iy iz vx vy vz fx fy fz omegax omegay omegaz radius 
1 1 0.75 0.25 0.25 0 0 0 0 0 0 5.97474e-12 3.91388e-16 -1.66238e-16 0 0 0 0.00559676 
ITEM: TIMESTEP
240000
ITEM: NUMBER OF ATOMS
1
ITEM: BOX BOUNDS ff ff ff
0 1.5
0 0.5
0 0.5
ITEM: ATOMS id type x y z ix iy iz vx vy vz fx fy fz omegax omegay omegaz radius 
1 1 0.75 0.25 0.25 0 0 0 0 0 0 5.84366e-12 -1.38041e-16 -1.55463e-17 0 0 0 0.00559918 
ITEM: TIMESTEP
250000
ITEM: NUMBER OF ATOMS
1
ITEM: BOX BOUNDS ff ff ff
0 1.5
0 0.5
0 0.5
ITEM: ATOMS id type x y z ix iy iz vx vy vz fx fy fz omegax omegay omegaz radius 
1 1 0.75 0.25 0.25 0 0 0 0 0 0 5.71819e-12 -8.81613e-17 2.76298e-16 0 0 0 0.00560156 
ITEM: TIMESTEP
260000
ITEM: NUMBER OF ATOMS
1
ITEM: BOX BOUNDS ff ff ff
0 1.5
0 0.5
0 0.5
ITEM: ATOMS id type x y z ix iy iz vx vy vz fx fy fz omegax omegay omegaz radius 
1 1 0.75 0.25 0.25 0 0 0 0 0 0 5.59935e-12 -8.72957e-17 2.33335e-17 0 0 0 0.00560389 
ITEM: TIMESTEP
270000
ITEM: NUMBER OF ATOMS
1
ITEM: BOX BOUNDS ff ff ff
0 1.5
0 0.5
0 0.5
ITEM: ATOMS id type x y z ix iy iz vx vy vz fx fy fz omegax omegay omegaz radius 
1 1 0.75 0.25 0.25 0 0 0 0 0 0 5.48463e-12 3.70044e-16 -3.16835e-16 0 0 0 0.00560619 
ITEM: TIMESTEP
280000
ITEM: NUMBER OF ATOMS
1
ITEM: BOX BOUNDS ff ff ff
0 1.5
0 0.5
0 0.5
ITEM: ATOMS id type x y z ix iy iz vx vy vz fx fy fz omegax omegay omegaz radius 
1 1 0.75 0.25 0.25 0 0 0 0 0 0 5.37391e-12 -8.35986e-17 3.09462e-16 0 0 0 0.00560845 
ITEM: TIMESTEP
290000
ITEM: NUMBER OF ATOMS
1
ITEM: BOX BOUNDS ff ff ff
0 1.5
0 0.5
0 0.5
ITEM: ATOMS id type x y z ix iy iz vx vy vz fx fy fz omegax omegay omegaz radius 
1 1 0.75 0.25 0.25 0 0 0 0 0 0 5.2677e-12 -5.39984e-17 3.03693e-17 0 0 0 0.00561067 
ITEM: TIMESTEP
300000
ITEM: NUMBER OF ATOMS
1
ITEM: BOX BOUNDS ff ff ff
0 1.5
0 0.5
0 0.5
ITEM: ATOMS id type x y z ix iy iz vx vy vz fx fy fz omegax omegay omegaz radius 
1 1 0.75 0.25 0.25 0 0 0 0 0 0 5.16572e-12 -3.23078e-16 4.31477e-16 0 0 0 0.00561285 
ITEM: TIMESTEP
310000
ITEM: NUMBER OF ATOMS
1
ITEM: BOX BOUNDS ff ff ff
0 1.5
0 0.5
0 0.5
ITEM: ATOMS id type x y z ix iy iz vx vy vz fx fy fz omegax omegay omegaz radius 
1 1 0.75 0.25 0.25 0 0 0 0 0 0 5.06776e-12 7.30149e-17 -1.52132e-17 0 0 0 0.00561499 
ITEM: TIMESTEP
320000
ITEM: NUMBER OF ATOMS
1
ITEM: BOX BOUNDS ff ff ff
0 1.5
0 0.5
0 0.5
ITEM: ATOMS id type x y z ix iy iz vx vy vz fx fy fz omegax omegay omegaz radius 
1 1 0.75 0.25 0.25 0 0 0 0 0 0 4.97232e-12 2.74319e-17 -1.50174e-16 0 0 0 0.0056171 
ITEM: TIMESTEP
330000
ITEM: NUMBER OF ATOMS
1
ITEM: BOX BOUNDS ff ff ff
0 1.5
0 0.5
0 0.5
ITEM: ATOMS id type x y z ix iy iz vx vy vz fx fy fz omegax omegay omegaz radius 
1 1 0.75 0.25 0.25 0 0 0 0 0 0 4.88068e-12 -3.13679e-16 -6.29061e-16 0 0 0 0.00561918 
ITEM: TIMESTEP
340000
ITEM: NUMBER OF ATOMS
1
ITEM: BOX BOUNDS ff ff ff
0 1.5
0 0.5
0 0.5
ITEM: ATOMS id type x y z ix iy iz vx vy vz fx fy fz omegax omegay omegaz radius 
1 1 0.75 0.25 0.25 0 0 0 0 0 0 4.79154e-12 -1.69828e-16 -2.25778e-17 0 0 0 0.00562123 
ITEM: TIMESTEP
350000
ITEM: NUMBER OF ATOMS
1
ITEM: BOX BOUNDS ff ff ff
0 1.5
0 0.5
0 0.5
ITEM: ATOMS id type x y z ix iy iz vx vy vz fx fy fz omegax omegay omegaz radius 
1 1 0.75 0.25 0.25 0 0 0 0 0 0 4.70554e-12 -8.14169e-17 -4.08005e-16 0 0 0 0.00562324 
ITEM: TIMESTEP
360000
ITEM: NUMBER OF ATOMS
1
ITEM: BOX BOUNDS ff ff ff
0 1.5
0 0.5
0 0.5
ITEM: ATOMS id type x y z ix iy iz vx vy vz fx fy fz omegax omegay omegaz radius 
1 1 0.75 0.25 0.25 0 0 0 0 0 0 4.62256e-12 2.13124e-16 -4.28598e-16 0 0 0 0.00562522 
ITEM: TIMESTEP
370000
ITEM: NUMBER OF ATOMS
1
ITEM: BOX BOUNDS ff ff ff
0 1.5
0 0.5
0 0.5
ITEM: ATOMS id type x y z ix iy iz vx vy vz fx fy fz omegax omegay omegaz radius 
1 1 0.75 0.25 0.25 0 0 0 0 0 0 4.54127e-12 -3.83805e-16 -1.03672e-16 0 0 0 0.00562718 
ITEM: TIMESTEP
380000
ITEM: NUMBER OF ATOMS
1
ITEM: BOX BOUNDS ff ff ff
0 1.5
0 0.5
0 0.5
ITEM: ATOMS id type x y z ix iy iz vx vy vz fx fy fz omegax omegay omegaz radius 
1 1 0.75 0.25 0.25 0 0 0 0 0 0 4.46306e-12 -2.91191e-16 -1.46017e-16 0 0 0 0.00562911 
ITEM: TIMESTEP
390000
ITEM: NUMBER OF ATOMS
1
ITEM: BOX BOUNDS ff ff ff
0 1.5
0 0.5
0 0.5
ITEM: ATOMS id type x y z ix iy iz vx vy vz fx fy fz omegax omegay omegaz radius 
1 1 0.75 0.25 0.25 0 0 0 0 0 0 4.38723e-12 -6.70617e-17 -2.28928e-16 0 0 0 0.005631 
ITEM: TIMESTEP
400000
ITEM: NUMBER OF ATOMS
1
ITEM: BOX BOUNDS ff ff ff
0 1.5
0 0.5
0 0.5
ITEM: ATOMS id type x y z ix iy iz vx vy vz fx fy fz omegax omegay omegaz radius 
1 1 0.75 0.25 0.25 0 0 0 0 0 0 4.31253e-12 -1.82417e-16 -6.73015e-16 0 0 0 0.00563288 
ITEM: TIMESTEP
410000
ITEM: NUMBER OF ATOMS
1
ITEM: BOX BOUNDS ff ff ff
0 1.5
0 0.5
0 0.5
ITEM: ATOMS id type x y z ix iy iz vx vy vz fx fy fz omegax omegay omegaz radius 
1 1 0.75 0.25 0.25 0 0 0 0 0 0 4.24067e-12 2.01969e-17 -1.82158e-16 0 0 0 0.00563472 
ITEM: TIMESTEP
420000
ITEM: NUMBER OF ATOMS
1
ITEM: BOX BOUNDS ff ff ff
0 1.5
0 0.5
0 0.5
ITEM: ATOMS id type x y z ix iy iz vx vy vz fx fy fz omegax omegay omegaz radius 
1 1 0.75 0.25 0.25 0 0 0 0 0 0 4.17129e-12 -1.77842e-16 -5.1632e-16 0 0 0 0.00563654 
ITEM: TIMESTEP
430000
ITEM: NUMBER OF ATOMS
1
ITEM: BOX BOUNDS ff ff ff
0 1.5
0 0.5
0 0.5
ITEM: ATOMS id type x y z ix iy iz vx vy vz fx fy fz omegax omegay omegaz radius 
1 1 0.75 0.25 0.25 0 0 0 0 0 0 4.10447e-12 1.18276e-16 -1.12094e-16 0 0 0 0.00563833 
ITEM: TIMESTEP
440000
ITEM: NUMBER OF ATOMS
1
ITEM: BOX BOUNDS ff ff ff
0 1.5
0 0.5
0 0.5
ITEM: ATOMS id type x y z ix iy iz vx vy vz fx fy fz omegax omegay omegaz radius 
1 1 0.75 0.25 0.25 0 0 0 0 0 0 4.037e-12 -8.54492e-17 -6.62003e-17 0 0 0 0.0056401 
ITEM: TIMESTEP
450000
ITEM: NUMBER OF ATOMS
1
ITEM: BOX BOUNDS ff ff ff
0 1.5
0 0.5
0 0.5
ITEM: ATOMS id type x y z ix iy iz vx vy vz fx fy fz omegax omegay omegaz radius 
1 1 0.75 0.25 0.25 0 0 0 0 0 0 3.97322e-12 -1.70193e-17 -4.68246e-16 0 0 0 0.00564185 
ITEM: TIMESTEP
460000
ITEM: NUMBER OF ATOMS
1
ITEM: BOX BOUNDS ff ff ff
0 1.5
0 0.5
0 0.5
ITEM: ATOMS id type x y z ix iy iz vx vy vz fx fy fz omegax omegay omegaz radius 
1 1 0.75 0.25 0.25 0 0 0 0 0 0 3.91048e-12 7.31738e-16 -3.25442e-16 0 0 0 0.00564357 
ITEM: TIMESTEP
470000
ITEM: NUMBER OF ATOMS
1
ITEM: BOX BOUNDS ff ff ff
0 1.5
0 0.5
0 0.5
ITEM: ATOMS id type x y z ix iy iz vx vy vz fx fy fz omegax omegay omegaz radius 
1 1 0.75 0.25 0.25 0 0 0 0 0 0 3.84867e-12 9.39646e-17 -6.64893e-18 0 0 0 0.00564527 
ITEM: TIMESTEP
480000
ITEM: NUMBER OF ATOMS
1
ITEM: BOX BOUNDS ff ff ff
0 1.5
0 0.5
0 0.5
ITEM: ATOMS id type x y z ix iy iz vx vy vz fx fy fz omegax omegay omegaz radius 
1 1 0.75 0.25 0.25 0 0 0 0 0 0 3.78879e-12 -1.69607e-17 2.37796e-16 0 0 0 0.00564695 
ITEM: TIMESTEP
490000
ITEM: NUMBER OF ATOMS
1
ITEM: BOX BOUNDS ff ff ff
0 1.5
0 0.5
0 0.5
ITEM: ATOMS id type x y z ix iy iz vx vy vz fx fy fz omegax omegay omegaz radius 
1 1 0.75 0.25 0.25 0 0 0 0 0 0 3.73085e-12 1.63598e-16 -4.21766e-16 0 0 0 0.0056486 
ITEM: TIMESTEP
500000
ITEM: NUMBER OF ATOMS
1
ITEM: BOX BOUNDS ff ff ff
0 1.5
0 0.5
0 0.5
ITEM: ATOMS id type x y z ix iy iz vx vy vz fx fy fz omegax omegay omegaz radius 
1 1 0.75 0.25 0.25 0 0 0 0 0 0 3.67441e-12 -3.69924e-16 2.63707e-16 0 0 0 0.00565024 
ITEM: TIMESTEP
510000
ITEM: NUMBER OF ATOMS
1
ITEM: BOX BOUNDS ff ff ff
0 1.5
0 0.5
0 0.5
ITEM: ATOMS id type x y z ix iy iz vx vy vz fx fy fz omegax omegay omegaz radius 
1 1 0.75 0.25 0.25 0 0 0 0 0 0 3.6176e-12 -1.54036e-16 -2.08592e-16 0 0 0 0.00565185 
ITEM: TIMESTEP
520000
ITEM: NUMBER OF ATOMS
1
ITEM: BOX BOUNDS ff ff ff
0 1.5
0 0.5
0 0.5
ITEM: ATOMS id type x y z ix iy iz vx vy vz fx fy fz omegax omegay omegaz radius 
1 1 0.75 0.25 0.25 0 0 0 0 0 0 3.56297e-12 -1.80549e-16 -2.03707e-16 0 0 0 0.00565344 
ITEM: TIMESTEP
530000
ITEM: NUMBER OF ATOMS
1
ITEM: BOX BOUNDS ff ff ff
0 1.5
0 0.5
0 0.5
ITEM: ATOMS id type x y z ix iy iz vx vy vz fx fy fz omegax omegay omegaz radius 
1 1 0.75 0.25 0.25 0 0 0 0 0 0 3.50938e-12 -1.14249e-16 -1.94005e-16 0 0 0 0.00565502 
ITEM: TIMESTEP
540000
ITEM: NUMBER OF ATOMS
1
ITEM: BOX BOUNDS ff ff ff
0 1.5
0 0.5
0 0.5
ITEM: ATOMS id type x y z ix iy iz vx vy vz fx fy fz omegax omegay omegaz radius 
1 1 0.75 0.25 0.25 0 0 0 0 0 0 3.45738e-12 -6.17245e-17 -6.08173e-18 0 0 0 0.00565658 
ITEM: TIMESTEP
550000
ITEM: NUMBER OF ATOMS
1
ITEM: BOX BOUNDS ff ff ff
0 1.5
0 0.5
0 0.5
ITEM: ATOMS id type x y z ix iy iz vx vy vz fx fy fz omegax omegay omegaz radius 
1 1 0.75 0.25 0.25 0 0 0 0 0 0 3.40659e-12 -5.70402e-17 -3.03063e-16 0 0 0 0.00565811 
ITEM: TIMESTEP
560000
ITEM: NUMBER OF ATOMS
1
ITEM: BOX BOUNDS ff ff ff
0 1.5
0 0.5
0 0.5
ITEM: ATOMS id type x y z ix iy iz vx vy vz fx fy fz omegax omegay omegaz radius 
1 1 0.75 0.25 0.25 0 0 0 0 0 0 3.35633e-12 4.5886e-17 1.62347e-16 0 0 0 0.00565963 
ITEM: TIMESTEP
570000
ITEM: NUMBER OF ATOMS
1
ITEM: BOX BOUNDS ff ff ff
0 1.5
0 0.5
0 0.5
ITEM: ATOMS id type x y z ix iy iz vx vy vz fx fy fz omegax omegay omegaz radius 
1 1 0.75 0.25 0.25 0 0 0 0 0 0 3.30735e-12 3.57599e-16 1.04299e-16 0 0 0 0.00566113 
ITEM: TIMESTEP
580000
ITEM: NUMBER OF ATOMS
1
ITEM: BOX BOUNDS ff ff ff
0 1.5
0 0.5
0 0.5
ITEM: ATOMS id type x y z ix iy iz vx vy vz fx fy fz omegax omegay omegaz radius 
1 1 0.75 0.25 0.25 0 0 0 0 0 0 3.25795e-12 8.04667e-17 -1.92702e-16 0 0 0 0.00566262 
ITEM: TIMESTEP
590000
ITEM: NUMBER OF ATOMS
1
ITEM: BOX BOUNDS ff ff ff
0 1.5
0 0.5
0 0.5
ITEM: ATOMS id type x y z ix iy iz vx vy vz fx fy fz omegax omegay omegaz radius 
1 1 0.75 0.25 0.25 0 0 0 0 0 0 3.21179e-12 -1.19838e-16 2.43891e-16 0 0 0 0.00566408 
ITEM: TIMESTEP
600000
ITEM: NUMBER OF ATOMS
1
ITEM: BOX BOUNDS ff ff ff
0 1.5
0 0.5
0 0.5
ITEM: ATOMS id type x y z ix iy iz vx vy vz fx fy fz omegax omegay omegaz radius 
1 1 0.75 0.25 0.25 0 0 0 0 0 0 3.1645e-12 -7.37516e-16 8.80569e-17 0 0 0 0.00566553 
ITEM: TIMESTEP
610000
ITEM: NUMBER OF ATOMS
1
ITEM: BOX BOUNDS ff ff ff
0 1.5
0 0.5
0 0.5
ITEM: ATOMS id type x y z ix iy iz vx vy vz fx fy fz omegax omegay omegaz radius 
1 1 0.75 0.25 0.25 0 0 0 0 0 0 3.11959e-12 5.43716e-16 7.30278e-17 0 0 0 0.00566696 
ITEM: TIMESTEP
620000
ITEM: NUMBER OF ATOMS
1
ITEM: BOX BOUNDS ff ff ff
0 1.5
0 0.5
0 0.5
ITEM: ATOMS id type x y z ix iy iz vx vy vz fx fy fz omegax omegay omegaz radius 
1 1 0.75 0.25 0.25 0 0 0 0 0 0 3.07542e-12 6.36956e-16 -5.03709e-16 0 0 0 0.00566837 
ITEM: TIMESTEP
630000
ITEM: NUMBER OF ATOMS
1
ITEM: BOX BOUNDS ff ff ff
0 1.5
0 0.5
0 0.5
ITEM: ATOMS id type x y z ix iy iz vx vy vz fx fy fz omegax omegay omegaz radius 
1 1 0.75 0.25 0.25 0 0 0 0 0 0 3.03072e-12 -3.69735e-16 4.89812e-16 0 0 0 0.00566977 
ITEM: TIMESTEP
640000
ITEM: NUMBER OF ATOMS
1
ITEM: BOX BOUNDS ff ff ff
0 1.5
0 0.5
0 0.5
ITEM: ATOMS id type x y z ix iy iz vx vy vz fx fy fz omegax omegay omegaz radius 
1 1 0.75 0.25 0.25 0 0 0 0 0 0 2.98792e-12 -1.03229e-16 3.26031e-17 0 0 0 0.00567116 
ITEM: TIMESTEP
650000
ITEM: NUMBER OF ATOMS
1
ITEM: BOX BOUNDS ff ff ff
0 1.5
0 0.5
0 0.5
ITEM: ATOMS id type x y z ix iy iz vx vy vz fx fy fz omegax omegay omegaz radius 
1 1 0.75 0.25 0.25 0 0 0 0 0 0 2.94567e-12 3.32741e-16 -3.67208e-17 0 0 0 0.00567253 
ITEM: TIMESTEP
660000
ITEM: NUMBER OF ATOMS
1
ITEM: BOX BOUNDS ff ff ff
0 1.5
0 0.5
0 0.5
ITEM: ATOMS id type x y z ix iy iz vx vy vz fx fy fz omegax omegay omegaz radius 
1 1 0.75 0.25 0.25 0 0 0 0 0 0 2.90361e-12 -6.08653e-17 3.07492e-17 0 0 0 0.00567388 
ITEM: TIMESTEP
670000
ITEM: NUMBER OF ATOMS
1
ITEM: BOX BOUNDS ff ff ff
0 1.5
0 0.5
0 0.5
ITEM: ATOMS id type x y z ix iy iz vx vy vz fx fy fz omegax omegay omegaz radius 
1 1 0.75 0.25 0.25 0 0 0 0 0 0 2.8629e-12 -1.18885e-16 -4.41113e-16 0 0 0 0.00567522 
ITEM: TIMESTEP
680000
ITEM: NUMBER OF ATOMS
1
ITEM: BOX BOUNDS ff ff ff
0 1.5
0 0.5
0 0.5
ITEM: ATOMS id type x y z ix iy iz vx vy vz fx fy fz omegax omegay omegaz radius 
1 1 0.75 0.25 0.25 0 0 0 0 0 0 2.82201e-12 -3.32282e-16 -1.56069e-16 0 0 0 0.00567654 
ITEM: TIMESTEP
690000
ITEM: NUMBER OF ATOMS
1
ITEM: BOX BOUNDS ff ff ff
0 1.5
0 0.5
0 0.5
ITEM: ATOMS id type x y z ix iy iz vx vy vz fx fy fz omegax omegay omegaz radius 
1 1 0.75 0.25 0.25 0 0 0 0 0 0 2.78234e-12 -1.28129e-16 8.5403e-17 0 0 0 0.00567785 
ITEM: TIMESTEP
700000
ITEM: NUMBER OF ATOMS
1
ITEM: BOX BOUNDS ff ff ff
0 1.5
0 0.5
0 0.5
ITEM: ATOMS id type x y z ix iy iz vx vy vz fx fy fz omegax omegay omegaz radius 
1 1 0.75 0.25 0.25 0 0 0 0 0 0 2.74365e-12 -1.14967e-16 5.96135e-17 0 0 0 0.00567915 
ITEM: TIMESTEP
710000
ITEM: NUMBER OF ATOMS
1
ITEM: BOX BOUNDS ff ff ff
0 1.5
0 0.5
0 0.5
ITEM: ATOMS id type x y z ix iy iz vx vy vz fx fy fz omegax omegay omegaz radius 
1 1 0.75 0.25 0.25 0 0 0 0 0 0 2.70498e-12 2.32111e-16 -4.94963e-16 0 0 0 0.00568043 
ITEM: TIMESTEP
720000
ITEM: NUMBER OF ATOMS
1
ITEM: BOX BOUNDS ff ff ff
0 1.5
0 0.5
0 0.5
ITEM: ATOMS id type x y z ix iy iz vx vy vz fx fy fz omegax omegay omegaz radius 
1 1 0.75 0.25 0.25 0 0 0 0 0 0 2.66736e-12 7.33027e-17 1.5086e-16 0 0 0 0.00568169 
ITEM: TIMESTEP
730000
ITEM: NUMBER OF ATOMS
1
ITEM: BOX BOUNDS ff ff ff
0 1.5
0 0.5
0 0.5
ITEM: ATOMS id type x y z ix iy iz vx vy vz fx fy fz omegax omegay omegaz radius 
1 1 0.75 0.25 0.25 0 0 0 0 0 0 2.62938e-12 2.31044e-16 -4.8191e-16 0 0 0 0.00568294 
ITEM: TIMESTEP
740000
ITEM: NUMBER OF ATOMS
1
ITEM: BOX BOUNDS ff ff ff
0 1.5
0 0.5
0 0.5
ITEM: ATOMS id type x y z ix iy iz vx vy vz fx fy fz omegax omegay omegaz radius 
1 1 0.75 0.25 0.25 0 0 0 0 0 0 2.59204e-12 -7.35177e-17 1.2764e-16 0 0 0 0.00568419 
ITEM: TIMESTEP
750000
ITEM: NUMBER OF ATOMS
1
ITEM: BOX BOUNDS ff ff ff
0 1.5
0 0.5
0 0.5
ITEM: ATOMS id type x y z ix iy iz vx vy vz fx fy fz omegax omegay omegaz radius 
1 1 0.75 0.25 0.25 0 0 0 0 0 0 2.55567e-12 1.49155e-16 8.53463e-17 0 0 0 0.00568541 
ITEM: TIMESTEP
760000
ITEM: NUMBER OF ATOMS
1
ITEM: BOX BOUNDS ff ff ff
0 1.5
0 0.5
0 0.5
ITEM: ATOMS id type x y z ix iy iz vx vy vz fx fy fz omegax omegay omegaz radius 
1 1 0.75 0.25 0.25 0 0 0 0 0 0 2.51896e-12 -6.03303e-16 2.41004e-16 0 0 0 0.00568663 
ITEM: TIMESTEP
770000
ITEM: NUMBER OF ATOMS
1
ITEM: BOX BOUNDS ff ff ff
0 1.5
0 0.5
0 0.5
ITEM: ATOMS id type x y z ix iy iz vx vy vz fx fy fz omegax omegay omegaz radius 
1 1 0.75 0.25 0.25 0 0 0 0 0 0 2.47766e-12 9.71873e-17 1.35605e-16 0 0 0 0.00568784 
ITEM: TIMESTEP
780000
ITEM: NUMBER OF ATOMS
1
ITEM: BOX BOUNDS ff ff ff
0 1.5
0 0.5
0 0.5
ITEM: ATOMS id type x y z ix iy iz vx vy vz fx fy fz omegax omegay omegaz radius 
1 1 0.75 0.25 0.25 0 0 0 0 0 0 2.44287e-12 8.82451e-17 4.79479e-16 0 0 0 0.00568905 
ITEM: TIMESTEP
790000
ITEM: NUMBER OF ATOMS
1
ITEM: BOX BOUNDS ff ff ff
0 1.5
0 0.5
0 0.5
ITEM: ATOMS id type x y z ix iy iz vx vy vz fx fy fz omegax omegay omegaz radius 
1 1 0.75 0.25 0.25 0 0 0 0 0 0 2.36916e-12 -1.3577e-16 -3.32226e-16 0 0 0 0.00569026 
ITEM: TIMESTEP
800000
ITEM: NUMBER OF ATOMS
1
ITEM: BOX BOUNDS ff ff ff
0 1.5
0 0.5
0 0.5
ITEM: ATOMS id type x y z ix iy iz vx vy vz fx fy fz omegax omegay omegaz radius 
1 1 0.75 0.25 0.25 0 0 0 0 0 0 2.33748e-12 8.83066e-17 2.37392e-16 0 0 0 0.00569146 
ITEM: TIMESTEP
810000
ITEM: NUMBER OF ATOMS
1
ITEM: BOX BOUNDS ff ff ff
0 1.5
0 0.5
0 0.5
ITEM: ATOMS id type x y z ix iy iz vx vy vz fx fy fz omegax omegay omegaz radius 
1 1 0.75 0.25 0.25 0 0 0 0 0 0 2.30666e-12 6.07005e-16 -1.90386e-16 0 0 0 0.00569264 
ITEM: TIMESTEP
820000
ITEM: NUMBER OF ATOMS
1
ITEM: BOX BOUNDS ff ff ff
0 1.5
0 0.5
0 0.5
ITEM: ATOMS id type x y z ix iy iz vx vy vz fx fy fz omegax omegay omegaz radius 
1 1 0.75 0.25 0.25 0 0 0 0 0 0 2.27587e-12 -5.64698e-17 -1.83407e-16 0 0 0 0.0056938 
ITEM: TIMESTEP
830000
ITEM: NUMBER OF ATOMS
1
ITEM: BOX BOUNDS ff ff ff
0 1.5
0 0.5
0 0.5
ITEM: ATOMS id type x y z ix iy iz vx vy vz fx fy fz omegax omegay omegaz radius 
1 1 0.75 0.25 0.25 0 0 0 0 0 0 2.2457e-12 -6.47166e-17 -5.14482e-16 0 0 0 0.00569495 
ITEM: TIMESTEP
840000
ITEM: NUMBER OF ATOMS
1
ITEM: BOX BOUNDS ff ff ff
0 1.5
0 0.5
0 0.5
ITEM: ATOMS id type x y z ix iy iz vx vy vz fx fy fz omegax omegay omegaz radius 
1 1 0.75 0.25 0.25 0 0 0 0 0 0 2.21667e-12 -1.90802e-16 -4.0816e-17 0 0 0 0.00569609 
ITEM: TIMESTEP
850000
ITEM: NUMBER OF ATOMS
1
ITEM: BOX BOUNDS ff ff ff
0 1.5
0 0.5
0 0.5
ITEM: ATOMS id type x y z ix iy iz vx vy vz fx fy fz omegax omegay omegaz radius 
1 1 0.75 0.25 0.25 0 0 0 0 0 0 2.18825e-12 6.29554e-17 1.47927e-16 0 0 0 0.0056972 
ITEM: TIMESTEP
860000
ITEM: NUMBER OF ATOMS
1
ITEM: BOX BOUNDS ff ff ff
0 1.5
0 0.5
0 0.5
ITEM: ATOMS id type x y z ix iy iz vx vy vz fx fy fz omegax omegay omegaz radius 
1 1 0.75 0.25 0.25 0 0 0 0 0 0 2.15893e-12 -1.59256e-16 -8.28642e-18 0 0 0 0.00569831 
ITEM: TIMESTEP
870000
ITEM: NUMBER OF ATOMS
1
ITEM: BOX BOUNDS ff ff ff
0 1.5
0 0.5
0 0.5
ITEM: ATOMS id type x y z ix iy iz vx vy vz fx fy fz omegax omegay omegaz radius 
1 1 0.75 0.25 0.25 0 0 0 0 0 0 2.13203e-12 -1.46774e-16 8.3561e-17 0 0 0 0.00569939 
ITEM: TIMESTEP
880000
ITEM: NUMBER OF ATOMS
1
ITEM: BOX BOUNDS ff ff ff
0 1.5
0 0.5
0 0.5
ITEM: ATOMS id type x y z ix iy iz vx vy vz fx fy fz omegax omegay omegaz radius 
1 1 0.75 0.25 0.25 0 0 0 0 0 0 2.1053e-12 -1.84345e-16 -5.67185e-16 0 0 0 0.00570047 
ITEM: TIMESTEP
890000
ITEM: NUMBER OF ATOMS
1
ITEM: BOX BOUNDS ff ff ff
0 1.5
0 0.5
0 0.5
ITEM: ATOMS id type x y z ix iy iz vx vy vz fx fy fz omegax omegay omegaz radius 
1 1 0.75 0.25 0.25 0 0 0 0 0 0 2.0784e-12 -3.05592e-16 2.56847e-16 0 0 0 0.00570153 
ITEM: TIMESTEP
900000
ITEM: NUMBER OF ATOMS
1
ITEM: BOX BOUNDS ff ff ff
0 1.5
0 0.5
0 0.5
ITEM: ATOMS id type x y z ix iy iz vx vy vz fx fy fz omegax omegay omegaz radius 
1 1 0.75 0.25 0.25 0 0 0 0 0 0 2.05102e-12 1.52095e-16 -2.76862e-16 0 0 0 0.00570257 
ITEM: TIMESTEP
910000
ITEM: NUMBER OF ATOMS
1
ITEM: BOX BOUNDS ff ff ff
0 1.5
0 0.5
0 0.5
ITEM: ATOMS id type x y z ix iy iz vx vy vz fx fy fz omegax omegay omegaz radius 
1 1 0.75 0.25 0.25 0 0 0 0 0 0 2.02619e-12 8.4867e-17 1.05739e-16 0 0 0 0.0057036 
ITEM: TIMESTEP
920000
ITEM: NUMBER OF ATOMS
1
ITEM: BOX BOUNDS ff ff ff
0 1.5
0 0.5
0 0.5
ITEM: ATOMS id type x y z ix iy iz vx vy vz fx fy fz omegax omegay omegaz radius 
1 1 0.75 0.25 0.25 0 0 0 0 0 0 2.00119e-12 1.86762e-16 2.95883e-16 0 0 0 0.00570461 
ITEM: TIMESTEP
930000
ITEM: NUMBER OF ATOMS
1
ITEM: BOX BOUNDS ff ff ff
0 1.5
0 0.5
0 0.5
ITEM: ATOMS id type x y z ix iy iz vx vy vz fx fy fz omegax omegay omegaz radius 
1 1 0.75 0.25 0.25 0 0 0 0 0 0 1.97469e-12 -2.73303e-16 -2.38279e-16 0 0 0 0.00570561 
ITEM: TIMESTEP
940000
ITEM: NUMBER OF ATOMS
1
ITEM: BOX BOUNDS ff ff ff
0 1.5
0 0.5
0 0.5
ITEM: ATOMS id type x y z ix iy iz vx vy vz fx fy fz omegax omegay omegaz radius 
1 1 0.75 0.25 0.25 0 0 0 0 0 0 1.95149e-12 -2.97828e-16 -2.45318e-16 0 0 0 0.0057066 
ITEM: TIMESTEP
950000
ITEM: NUMBER OF ATOMS
1
ITEM: BOX BOUNDS ff ff ff
0 1.5
0 0.5
0 0.5
ITEM: ATOMS id type x y z ix iy iz vx vy vz fx fy fz omegax omegay omegaz radius 
1 1 0.75 0.25 0.25 0 0 0 0 0 0 1.92602e-12 2.51168e-16 5.29549e-16 0 0 0 0.00570758 
ITEM: TIMESTEP
960000
ITEM: NUMBER OF ATOMS
1
ITEM: BOX BOUNDS ff ff ff
0 1.5
0 0.5
0 0.5
ITEM: ATOMS id type x y z ix iy iz vx vy vz fx fy fz omegax omegay omegaz radius 
1 1 0.75 0.25 0.25 0 0 0 0 0 0 1.90302e-12 -1.04307e-16 9.50164e-17 0 0 0 0.00570854 
ITEM: TIMESTEP
970000
ITEM: NUMBER OF ATOMS
1
ITEM: BOX BOUNDS ff ff ff
0 1.5
0 0.5
0 0.5
ITEM: ATOMS id type x y z ix iy iz vx vy vz fx fy fz omegax omegay omegaz radius 
1 1 0.75 0.25 0.25 0 0 0 0 0 0 1.87847e-12 2.39861e-16 2.1226e-16 0 0 0 0.00570949 
ITEM: TIMESTEP
980000
ITEM: NUMBER OF ATOMS
1
ITEM: BOX BOUNDS ff ff ff
0 1.5
0 0.5
0 0.5
ITEM: ATOMS id type x y z ix iy iz vx vy vz fx fy fz omegax omegay omegaz radius 
1 1 0.75 0.25 0.25 0 0 0 0 0 0 1.85606e-12 3.27109e-16 -1.15189e-17 0 0 0 0.00571043 
ITEM: TIMESTEP
990000
ITEM: NUMBER OF ATOMS
1
ITEM: BOX BOUNDS ff ff ff
0 1.5
0 0.5
0 0.5
ITEM: ATOMS id type x y z ix iy iz vx vy vz fx fy fz omegax omegay omegaz radius 
1 1 0.75 0.25 0.25 0 0 0 0 0 0 1.83319e-12 2.95538e-16 -8.49383e-17 0 0 0 0.00571136 
ITEM: TIMESTEP
1000000
ITEM: NUMBER OF ATOMS
1
ITEM: BOX BOUNDS ff ff ff
0 1.5
0 0.5
0 0.5
ITEM: ATOMS id type x y z ix iy iz vx vy vz fx fy fz omegax omegay omegaz radius 
1 1 0.75 0.25 0.25 0 0 0 0 0 0 1.81196e-12 1.50976e-16 3.75378e-18 0 0 0 0.00571227 
ITEM: TIMESTEP
1010000
ITEM: NUMBER OF ATOMS
1
ITEM: BOX BOUNDS ff ff ff
0 1.5
0 0.5
0 0.5
ITEM: ATOMS id type x y z ix iy iz vx vy vz fx fy fz omegax omegay omegaz radius 
1 1 0.75 0.25 0.25 0 0 0 0 0 0 1.789e-12 -1.85876e-16 -4.50721e-16 0 0 0 0.00571317 
ITEM: TIMESTEP
1020000
ITEM: NUMBER OF ATOMS
1
ITEM: BOX BOUNDS ff ff ff
0 1.5
0 0.5
0 0.5
ITEM: ATOMS id type x y z ix iy iz vx vy vz fx fy fz omegax omegay omegaz radius 
1 1 0.75 0.25 0.25 0 0 0 0 0 0 1.76701e-12 -1.00535e-16 1.15522e-16 0 0 0 0.00571406 
ITEM: TIMESTEP
1030000
ITEM: NUMBER OF ATOMS
1
ITEM: BOX BOUNDS ff ff ff
0 1.5
0 0.5
0 0.5
ITEM: ATOMS id type x y z ix iy iz vx vy vz fx fy fz omegax omegay omegaz radius 
1 1 0.75 0.25 0.25 0 0 0 0 0 0 1.74635e-12 3.63014e-16 -1.40819e-16 0 0 0 0.00571494 
ITEM: TIMESTEP
1040000
ITEM: NUMBER OF ATOMS
1
ITEM: BOX BOUNDS ff ff ff
0 1.5
0 0.5
0 0.5
ITEM: ATOMS id type x y z ix iy iz vx vy vz fx fy fz omegax omegay omegaz radius 
1 1 0.75 0.25 0.25 0 0 0 0 0 0 1.72383e-12 -1.25025e-16 5.65848e-17 0 0 0 0.00571581 
ITEM: TIMESTEP
1050000
ITEM: NUMBER OF ATOMS
1
ITEM: BOX BOUNDS ff ff ff
0 1.5
0 0.5
0 0.5
ITEM: ATOMS id type x y z ix iy iz vx vy vz fx fy fz omegax omegay omegaz radius 
1 1 0.75 0.25 0.25 0 0 0 0 0 0 1.70244e-12 7.35069e-16 -3.19478e-16 0 0 0 0.00571666 
ITEM: TIMESTEP
1060000
ITEM: NUMBER OF ATOMS
1
ITEM: BOX BOUNDS ff ff ff
0 1.5
0 0.5
0 0.5
ITEM: ATOMS id type x y z ix iy iz vx vy vz fx fy fz omegax omegay omegaz radius 
1 1 0.75 0.25 0.25 0 0 0 0 0 0 1.6824e-12 1.0244e-16 -4.19229e-16 0 0 0 0.00571751 
ITEM: TIMESTEP
1070000
ITEM: NUMBER OF ATOMS
1
ITEM: BOX BOUNDS ff ff ff
0 1.5
0 0.5
0 0.5
ITEM: ATOMS id type x y z ix iy iz vx vy vz fx fy fz omegax omegay omegaz radius 
1 1 0.75 0.25 0.25 0 0 0 0 0 0 1.66216e-12 3.47648e-16 1.13521e-16 0 0 0 0.00571834 
ITEM: TIMESTEP
1080000
ITEM: NUMBER OF ATOMS
1
ITEM: BOX BOUNDS ff ff ff
0 1.5
0 0.5
0 0.5
ITEM: ATOMS id type x y z ix iy iz vx vy vz fx fy fz omegax omegay omegaz radius 
1 1 0.75 0.25 0.25 0 0 0 0 0 0 1.64236e-12 3.81915e-16 4.36736e-17 0 0 0 0.00571917 
ITEM: TIMESTEP
1090000
ITEM: NUMBER OF ATOMS
1
ITEM: BOX BOUNDS ff ff ff
0 1.5
0 0.5
0 0.5
ITEM: ATOMS id type x y z ix iy iz vx vy vz fx fy fz omegax omegay omegaz radius 
1 1 0.75 0.25 0.25 0 0 0 0 0 0 1.62305e-12 1.51233e-16 4.99687e-17 0 0 0 0.00571998 
ITEM: TIMESTEP
1100000
ITEM: NUMBER OF ATOMS
1
ITEM: BOX BOUNDS ff ff ff
0 1.5
0 0.5
0 0.5
ITEM: ATOMS id type x y z ix iy iz vx vy vz fx fy fz omegax omegay omegaz radius 
1 1 0.75 0.25 0.25 0 0 0 0 0 0 1.60321e-12 -2.60294e-17 -1.11354e-16 0 0 0 0.00572079 
ITEM: TIMESTEP
1110000
ITEM: NUMBER OF ATOMS
1
ITEM: BOX BOUNDS ff ff ff
0 1.5
0 0.5
0 0.5
ITEM: ATOMS id type x y z ix iy iz vx vy vz fx fy fz omegax omegay omegaz radius 
1 1 0.75 0.25 0.25 0 0 0 0 0 0 1.58351e-12 -3.97939e-16 -4.91187e-16 0 0 0 0.00572158 
