/*--------------------------------*- C++ -*----------------------------------*\
| =========                 |                                                 |
| \\      /  F ield         | OpenFOAM: The Open Source CFD Toolbox           |
|  \\    /   O peration     | Version:  4.x                                   |
|   \\  /    A nd           | Web:      www.OpenFOAM.org                      |
|    \\/     M anipulation  |                                                 |
\*---------------------------------------------------------------------------*/
FoamFile
{
    version     2.0;
    format      ascii;
    class       volScalarField;
    location    "11000";
    object      CO;
}
// * * * * * * * * * * * * * * * * * * * * * * * * * * * * * * * * * * * * * //

dimensions      [0 0 0 0 0 0 0];

internalField   nonuniform List<scalar> 
1175
(
0.3719638833
0.3719638831
0.3719638833
0.3719638834
0.3719638835
0.3719638835
0.3719638835
0.3719638827
0.3719638809
0.3719638754
0.3719638594
0.3719638173
0.3719637142
0.3719634863
0.3719630371
0.3719638833
0.3719638832
0.3719638834
0.3719638835
0.3719638835
0.3719638833
0.3719638831
0.3719638823
0.3719638797
0.3719638714
0.3719638463
0.371963777
0.3719636022
0.3719632064
0.3719624269
0.3719638832
0.3719638834
0.3719638834
0.3719638833
0.3719638832
0.371963883
0.3719638829
0.3719638813
0.3719638772
0.3719638636
0.37196382
0.371963694
0.3719633614
0.3719625876
0.3719610586
0.3719638832
0.3719638834
0.3719638833
0.3719638832
0.3719638833
0.3719638832
0.3719638827
0.3719638811
0.3719638749
0.3719638545
0.3719637873
0.3719635842
0.3719630255
0.3719616789
0.3719589999
0.3719638832
0.371963883
0.3719638831
0.3719638832
0.3719638833
0.3719638829
0.3719638826
0.3719638805
0.3719638734
0.3719638494
0.3719637691
0.371963518
0.371962804
0.3719610294
0.3719574527
0.3719638834
0.3719638831
0.371963883
0.371963883
0.3719638828
0.3719638828
0.3719638824
0.3719638807
0.3719638749
0.3719638542
0.3719637873
0.3719635844
0.3719630255
0.3719616791
0.371959
0.3719638832
0.3719638832
0.3719638834
0.3719638834
0.3719638831
0.371963883
0.3719638829
0.3719638816
0.3719638775
0.3719638635
0.3719638202
0.371963694
0.3719633615
0.3719625875
0.3719610586
0.3719638832
0.3719638833
0.3719638834
0.3719638834
0.3719638835
0.3719638833
0.3719638831
0.3719638823
0.3719638795
0.3719638712
0.3719638464
0.3719637769
0.371963602
0.3719632064
0.3719624266
0.3719638833
0.3719638835
0.3719638834
0.3719638835
0.3719638834
0.3719638833
0.3719638833
0.3719638826
0.3719638808
0.3719638751
0.3719638593
0.3719638172
0.3719637142
0.3719634862
0.371963037
0.3719638831
0.3719638833
0.3719638834
0.3719638833
0.3719638831
0.3719638831
0.3719638829
0.3719638823
0.3719638795
0.3719638714
0.3719638462
0.3719637769
0.3719636021
0.3719632063
0.3719638833
0.3719638833
0.3719638833
0.3719638834
0.3719638835
0.3719638831
0.371963883
0.3719638819
0.3719638777
0.3719638641
0.3719638209
0.371963695
0.3719633594
0.3719625745
0.3719610219
0.3719638836
0.3719638835
0.3719638833
0.3719638832
0.3719638832
0.3719638829
0.3719638826
0.3719638806
0.3719638736
0.3719638489
0.3719637663
0.3719635081
0.3719627775
0.371960982
0.3719573939
0.3719638832
0.3719638832
0.3719638834
0.371963883
0.3719638831
0.3719638831
0.3719638822
0.3719638796
0.3719638691
0.3719638296
0.3719636906
0.3719632266
0.3719618205
0.3719581451
0.3719506193
0.3719638833
0.371963883
0.3719638836
0.3719638834
0.3719638834
0.371963883
0.371963882
0.371963879
0.3719638664
0.3719638186
0.3719636419
0.3719630233
0.3719610313
0.3719554639
0.3719435352
0.3719638834
0.3719638833
0.3719638835
0.3719638833
0.3719638831
0.3719638828
0.3719638823
0.3719638796
0.3719638689
0.3719638296
0.3719636905
0.3719632267
0.3719618209
0.3719581455
0.3719506197
0.3719638833
0.3719638834
0.3719638832
0.3719638832
0.3719638832
0.3719638829
0.3719638823
0.3719638807
0.3719638738
0.3719638489
0.3719637659
0.3719635079
0.3719627774
0.3719609819
0.371957394
0.3719638835
0.3719638835
0.3719638835
0.3719638834
0.3719638833
0.3719638833
0.371963883
0.3719638815
0.3719638777
0.3719638639
0.3719638208
0.3719636948
0.3719633596
0.3719625743
0.3719610219
0.3719638832
0.3719638834
0.3719638835
0.3719638833
0.3719638833
0.3719638833
0.3719638831
0.3719638821
0.3719638795
0.371963871
0.3719638463
0.371963777
0.3719636021
0.3719632064
0.3719624269
0.3719638833
0.3719638833
0.3719638833
0.3719638833
0.3719638836
0.3719638834
0.3719638828
0.3719638816
0.3719638772
0.3719638635
0.3719638201
0.371963694
0.3719633615
0.3719625875
0.3719638832
0.3719638834
0.3719638834
0.3719638834
0.3719638834
0.3719638833
0.3719638829
0.3719638809
0.3719638735
0.371963849
0.3719637662
0.3719635082
0.3719627773
0.3719609815
0.3719638836
0.3719638833
0.3719638832
0.371963883
0.3719638831
0.3719638831
0.3719638824
0.3719638789
0.3719638663
0.3719638172
0.3719636404
0.3719630393
0.3719611838
0.3719562672
0.371946157
0.3719638836
0.3719638834
0.3719638833
0.3719638832
0.3719638832
0.3719638828
0.3719638816
0.3719638764
0.371963856
0.3719637721
0.3719634431
0.3719622189
0.3719580394
0.3719457608
0.3719188183
0.3719638833
0.3719638834
0.3719638831
0.3719638833
0.3719638831
0.371963883
0.3719638815
0.3719638755
0.3719638499
0.3719637422
0.3719632941
0.3719614921
0.3719546843
0.3719319708
0.3718754316
0.3719638834
0.3719638831
0.3719638829
0.3719638831
0.3719638831
0.3719638828
0.3719638815
0.3719638767
0.3719638559
0.3719637721
0.3719634432
0.3719622189
0.3719580394
0.3719457614
0.3719188194
0.3719638831
0.3719638833
0.3719638832
0.3719638833
0.3719638831
0.371963883
0.3719638822
0.3719638789
0.3719638658
0.371963817
0.3719636403
0.3719630392
0.3719611837
0.3719562676
0.3719461578
0.3719638833
0.3719638832
0.3719638833
0.3719638832
0.3719638832
0.3719638832
0.3719638826
0.3719638807
0.3719638734
0.3719638489
0.3719637663
0.3719635083
0.371962777
0.3719609813
0.3719573935
0.3719638832
0.3719638834
0.3719638835
0.3719638833
0.3719638834
0.3719638831
0.3719638829
0.3719638817
0.3719638775
0.3719638635
0.3719638201
0.3719636939
0.3719633615
0.3719625875
0.3719610585
0.3719638835
0.3719638834
0.3719638834
0.3719638836
0.3719638835
0.3719638832
0.3719638827
0.3719638809
0.3719638751
0.3719638544
0.3719637874
0.3719635844
0.3719630257
0.3719616793
0.3719638832
0.3719638833
0.3719638834
0.3719638835
0.3719638834
0.3719638833
0.3719638824
0.3719638793
0.371963869
0.3719638302
0.3719636906
0.3719632268
0.3719618204
0.3719581449
0.3719638837
0.3719638835
0.3719638832
0.3719638832
0.3719638836
0.3719638829
0.3719638818
0.3719638768
0.371963856
0.3719637721
0.371963443
0.3719622189
0.3719580395
0.37194576
0.3719638835
0.3719638835
0.3719638834
0.3719638832
0.3719638831
0.3719638827
0.371963881
0.371963873
0.3719638376
0.3719636818
0.3719630039
0.3719601506
0.3719488706
0.3719096807
0.3718094661
0.3719638834
0.3719638834
0.3719638833
0.3719638831
0.3719638832
0.3719638827
0.3719638805
0.3719638709
0.3719638258
0.3719636136
0.3719626081
0.3719578419
0.3719356347
0.3718387509
0.3715024375
0.3719638833
0.3719638834
0.3719638832
0.3719638833
0.3719638831
0.3719638828
0.371963881
0.3719638732
0.3719638377
0.3719636816
0.3719630038
0.3719601504
0.3719488706
0.3719096822
0.3718094727
0.3719638829
0.3719638833
0.3719638831
0.3719638831
0.3719638829
0.371963883
0.3719638819
0.3719638768
0.3719638558
0.3719637721
0.3719634432
0.371962219
0.3719580396
0.3719457613
0.3719188193
0.3719638834
0.3719638835
0.3719638838
0.3719638833
0.3719638832
0.3719638828
0.3719638822
0.3719638796
0.371963869
0.3719638298
0.3719636904
0.3719632264
0.3719618204
0.3719581455
0.3719506194
0.3719638834
0.3719638834
0.3719638834
0.3719638834
0.3719638833
0.3719638831
0.3719638827
0.3719638811
0.3719638752
0.3719638543
0.3719637874
0.3719635843
0.3719630253
0.3719616792
0.3719589999
0.3719638831
0.3719638832
0.3719638834
0.3719638834
0.3719638833
0.3719638832
0.3719638825
0.3719638807
0.3719638739
0.3719638493
0.3719637691
0.3719635183
0.3719628039
0.3719610292
0.3719638834
0.3719638833
0.3719638835
0.3719638836
0.3719638834
0.3719638833
0.3719638823
0.3719638788
0.3719638661
0.3719638184
0.3719636416
0.3719630229
0.3719610309
0.3719554629
0.3719638832
0.3719638831
0.3719638831
0.3719638834
0.3719638832
0.3719638831
0.3719638815
0.3719638755
0.3719638502
0.3719637426
0.3719632942
0.3719614924
0.3719546839
0.3719319688
0.3719638832
0.3719638831
0.3719638831
0.371963883
0.371963883
0.3719638826
0.3719638805
0.371963871
0.3719638255
0.3719636132
0.371962608
0.3719578416
0.3719356337
0.371838744
0.3719638834
0.371963883
0.371963883
0.371963883
0.3719638832
0.3719638826
0.3719638801
0.3719638678
0.3719638083
0.3719635034
0.3719618746
0.371952654
0.3718968648
0.3715337493
0.36897993
0.3719638832
0.3719638833
0.3719638834
0.3719638834
0.3719638835
0.371963883
0.3719638805
0.3719638708
0.3719638255
0.3719636134
0.371962608
0.371957842
0.3719356346
0.3718387503
0.3715024375
0.371963883
0.3719638834
0.3719638832
0.3719638835
0.3719638835
0.371963883
0.3719638817
0.3719638756
0.3719638501
0.371963742
0.3719632939
0.3719614922
0.3719546841
0.3719319709
0.3718754314
0.3719638837
0.3719638836
0.3719638833
0.3719638833
0.3719638835
0.3719638831
0.3719638824
0.3719638791
0.3719638665
0.3719638185
0.3719636415
0.3719630229
0.3719610314
0.3719554637
0.3719435351
0.3719638834
0.3719638833
0.3719638832
0.3719638834
0.3719638834
0.3719638833
0.3719638828
0.3719638807
0.3719638734
0.3719638495
0.3719637691
0.3719635181
0.3719628039
0.3719610291
0.3719574523
0.3719638832
0.3719638833
0.3719638834
0.3719638833
0.3719638831
0.3719638829
0.3719638825
0.3719638808
0.3719638751
0.3719638543
0.3719637876
0.3719635845
0.3719630256
0.3719616794
0.3719638834
0.3719638834
0.3719638834
0.3719638833
0.3719638833
0.3719638832
0.3719638822
0.3719638795
0.3719638688
0.3719638296
0.3719636906
0.3719632266
0.3719618206
0.3719581451
0.3719638835
0.3719638831
0.3719638833
0.3719638834
0.3719638831
0.3719638828
0.3719638815
0.3719638766
0.3719638559
0.371963772
0.3719634433
0.3719622189
0.3719580394
0.3719457601
0.3719638832
0.371963883
0.3719638832
0.3719638832
0.371963883
0.3719638827
0.3719638808
0.3719638728
0.3719638374
0.3719636816
0.3719630038
0.3719601505
0.3719488703
0.3719096788
0.3719638832
0.3719638833
0.371963883
0.3719638831
0.371963883
0.3719638828
0.3719638806
0.3719638707
0.3719638256
0.3719636135
0.371962608
0.3719578419
0.3719356335
0.3718387431
0.3719638831
0.3719638834
0.3719638833
0.3719638833
0.3719638829
0.3719638827
0.3719638812
0.3719638731
0.3719638377
0.3719636819
0.3719630042
0.3719601508
0.3719488702
0.3719096793
0.3719638835
0.3719638835
0.3719638834
0.3719638833
0.3719638829
0.3719638829
0.3719638817
0.3719638768
0.3719638562
0.3719637719
0.3719634431
0.3719622191
0.3719580397
0.3719457604
0.3719188172
0.3719638834
0.3719638834
0.3719638834
0.3719638833
0.3719638833
0.3719638831
0.3719638824
0.3719638797
0.3719638692
0.3719638298
0.3719636904
0.3719632264
0.3719618206
0.3719581455
0.3719506192
0.3719638834
0.3719638834
0.3719638836
0.3719638834
0.3719638834
0.3719638829
0.3719638825
0.3719638809
0.3719638749
0.3719638543
0.3719637875
0.3719635845
0.3719630255
0.3719616792
0.3719590002
0.3719638835
0.3719638833
0.3719638835
0.3719638836
0.3719638837
0.3719638835
0.3719638831
0.3719638817
0.3719638775
0.3719638635
0.3719638201
0.3719636942
0.3719633615
0.3719625876
0.3719638833
0.3719638832
0.3719638832
0.3719638833
0.3719638832
0.3719638831
0.3719638829
0.3719638808
0.3719638736
0.3719638488
0.3719637663
0.3719635078
0.3719627773
0.3719609817
0.3719638832
0.3719638831
0.3719638834
0.3719638833
0.3719638832
0.3719638831
0.3719638823
0.3719638791
0.3719638662
0.3719638173
0.3719636405
0.3719630391
0.3719611838
0.371956267
0.3719638836
0.3719638833
0.3719638833
0.3719638832
0.3719638833
0.3719638831
0.3719638818
0.3719638768
0.3719638559
0.3719637721
0.3719634431
0.371962219
0.3719580395
0.3719457599
0.3719638835
0.3719638832
0.3719638832
0.3719638831
0.3719638831
0.3719638829
0.3719638816
0.3719638757
0.3719638502
0.3719637423
0.3719632943
0.3719614924
0.371954684
0.3719319691
0.3719638832
0.3719638832
0.3719638832
0.3719638831
0.3719638829
0.3719638828
0.371963882
0.3719638768
0.3719638561
0.3719637723
0.3719634432
0.3719622193
0.3719580396
0.3719457603
0.3719638834
0.3719638834
0.3719638834
0.3719638831
0.3719638831
0.3719638831
0.3719638823
0.3719638788
0.3719638661
0.3719638173
0.3719636402
0.3719630393
0.3719611839
0.3719562671
0.3719638834
0.3719638834
0.3719638832
0.3719638832
0.3719638833
0.3719638832
0.3719638828
0.3719638809
0.3719638738
0.3719638491
0.3719637661
0.3719635082
0.3719627774
0.3719609816
0.3719573938
0.3719638832
0.3719638833
0.3719638833
0.3719638832
0.3719638832
0.3719638834
0.3719638829
0.3719638815
0.3719638772
0.3719638634
0.3719638197
0.3719636937
0.3719633613
0.3719625875
0.3719610586
0.3719638832
0.3719638834
0.3719638836
0.3719638835
0.3719638836
0.3719638837
0.3719638835
0.3719638825
0.3719638797
0.3719638713
0.3719638463
0.371963777
0.371963602
0.3719632065
0.3719638831
0.3719638832
0.3719638833
0.3719638835
0.3719638835
0.3719638832
0.3719638828
0.3719638817
0.3719638775
0.3719638638
0.3719638211
0.3719636951
0.3719633596
0.3719625746
0.371963883
0.3719638831
0.3719638832
0.3719638833
0.3719638835
0.3719638833
0.3719638825
0.3719638806
0.3719638737
0.3719638487
0.3719637662
0.3719635081
0.3719627777
0.371960982
0.3719638833
0.3719638831
0.3719638835
0.3719638834
0.3719638834
0.3719638832
0.3719638825
0.3719638799
0.3719638692
0.3719638298
0.3719636903
0.3719632265
0.3719618205
0.3719581451
0.3719638835
0.3719638833
0.3719638834
0.3719638834
0.3719638834
0.3719638831
0.3719638824
0.3719638793
0.3719638667
0.3719638188
0.3719636418
0.371963023
0.3719610313
0.371955463
0.3719638834
0.3719638834
0.3719638832
0.3719638834
0.3719638834
0.3719638831
0.3719638824
0.3719638798
0.3719638692
0.37196383
0.3719636906
0.3719632268
0.3719618207
0.3719581454
0.3719638832
0.3719638833
0.3719638834
0.3719638835
0.3719638833
0.3719638831
0.3719638827
0.3719638806
0.3719638736
0.3719638491
0.3719637664
0.3719635082
0.3719627775
0.3719609815
0.3719638833
0.3719638833
0.371963883
0.3719638832
0.3719638832
0.3719638832
0.3719638829
0.3719638817
0.3719638773
0.3719638637
0.3719638206
0.3719636948
0.3719633595
0.3719625743
0.3719638832
0.3719638831
0.371963883
0.3719638832
0.3719638832
0.3719638832
0.3719638832
0.3719638823
0.3719638795
0.3719638711
0.3719638461
0.3719637769
0.3719636021
0.3719632066
0.3719624269
0.3719638833
0.3719638833
0.3719638836
0.3719638834
0.3719638836
0.3719638835
0.3719638834
0.3719638826
0.3719638807
0.371963875
0.3719638592
0.3719638172
0.3719637142
0.3719634865
0.3719638832
0.3719638834
0.3719638833
0.3719638835
0.3719638834
0.3719638835
0.3719638831
0.3719638822
0.3719638793
0.3719638712
0.3719638462
0.371963777
0.371963602
0.3719632064
0.3719638833
0.3719638831
0.3719638833
0.3719638835
0.3719638834
0.3719638833
0.371963883
0.3719638818
0.3719638773
0.3719638636
0.3719638197
0.3719636938
0.3719633615
0.3719625876
0.3719638834
0.3719638833
0.3719638834
0.3719638832
0.3719638831
0.3719638834
0.3719638827
0.3719638811
0.3719638749
0.3719638544
0.3719637874
0.3719635843
0.3719630256
0.3719616792
0.3719638833
0.3719638836
0.3719638835
0.3719638833
0.3719638833
0.3719638833
0.3719638826
0.3719638808
0.3719638739
0.3719638498
0.3719637692
0.3719635183
0.371962804
0.3719610292
0.3719638834
0.3719638836
0.3719638834
0.3719638836
0.3719638833
0.371963883
0.3719638826
0.371963881
0.371963875
0.3719638544
0.3719637875
0.3719635845
0.3719630257
0.3719616793
0.3719638834
0.3719638834
0.3719638832
0.3719638832
0.3719638835
0.3719638834
0.371963883
0.3719638817
0.3719638777
0.3719638635
0.37196382
0.3719636941
0.3719633614
0.3719625875
0.3719638834
0.3719638837
0.3719638832
0.3719638834
0.3719638835
0.3719638832
0.371963883
0.3719638822
0.3719638793
0.3719638712
0.3719638462
0.3719637771
0.3719636022
0.3719632065
0.3719638835
0.3719638833
0.3719638833
0.3719638832
0.3719638831
0.3719638832
0.3719638833
0.3719638827
0.3719638808
0.3719638751
0.3719638592
0.3719638172
0.3719637141
0.3719634863
)
;

boundaryField
{
    top
    {
        type            zeroGradient;
    }
    bottom
    {
        type            zeroGradient;
    }
    side-walls
    {
        type            zeroGradient;
    }
    inlet
    {
        type            zeroGradient;
    }
    outlet
    {
        type            zeroGradient;
    }
    procBoundary0to1
    {
        type            processor;
        value           nonuniform List<scalar> 
97
(
0.3719622546
0.3719624268
0.3719611068
0.3719585679
0.3719548418
0.3719521763
0.3719548419
0.3719585679
0.3719611064
0.371962254
0.3719624268
0.3719624268
0.3719585142
0.3719573936
0.3719519807
0.3719403462
0.3719293472
0.3719403462
0.3719519804
0.3719585138
0.3719611065
0.3719610586
0.3719573936
0.3719573936
0.3719326421
0.3719188167
0.3718895426
0.3718329786
0.3718895437
0.3719326427
0.3719519805
0.371958568
0.371959
0.3719506191
0.3719188167
0.3719188167
0.371741516
0.3715024177
0.3714504372
0.3717415192
0.3718895433
0.3719403462
0.3719548417
0.3719574525
0.3719435343
0.3718754288
0.3715024177
0.3715024177
0.3701960227
0.3715024183
0.371450438
0.3718094675
0.3718329786
0.3719293469
0.3719521759
0.371959
0.3719506192
0.371918818
0.3718094683
0.3715024183
0.3718094675
0.3718094675
0.3718895426
0.3719461571
0.3719403459
0.3719548417
0.3719610588
0.3719573941
0.3719461573
0.3719188182
0.3718754286
0.3719188181
0.3719461571
0.3719461571
0.3719519807
0.3719610221
0.3719585679
0.3719624269
0.3719610224
0.3719573942
0.3719506192
0.3719435344
0.3719506194
0.3719573935
0.3719610221
0.3719610221
0.3719611067
0.3719630372
0.3719630372
0.3719624269
0.3719610592
0.3719590002
0.3719574525
0.3719589999
0.3719610586
0.3719624272
0.3719630372
)
;
    }
}


// ************************************************************************* //
