/*--------------------------------*- C++ -*----------------------------------*\
| =========                 |                                                 |
| \\      /  F ield         | OpenFOAM: The Open Source CFD Toolbox           |
|  \\    /   O peration     | Version:  4.x                                   |
|   \\  /    A nd           | Web:      www.OpenFOAM.org                      |
|    \\/     M anipulation  |                                                 |
\*---------------------------------------------------------------------------*/
FoamFile
{
    version     2.0;
    format      ascii;
    class       volScalarField;
    location    "11000";
    object      CO2;
}
// * * * * * * * * * * * * * * * * * * * * * * * * * * * * * * * * * * * * * //

dimensions      [0 0 0 0 0 0 0];

internalField   nonuniform List<scalar> 
1175
(
0.006506721209
0.006506721737
0.006506721346
0.006506720898
0.006506720846
0.006506720731
0.006506720513
0.00650672175
0.006506723969
0.006506731051
0.006506752
0.006506806466
0.006506939769
0.006507234479
0.006507815411
0.006506721219
0.006506721646
0.006506721029
0.006506720655
0.006506720786
0.006506721054
0.006506721406
0.006506722507
0.006506725694
0.006506736179
0.006506768871
0.006506858737
0.006507084581
0.006507596686
0.006508604421
0.006506721525
0.006506721023
0.006506721058
0.006506721262
0.006506721467
0.006506721852
0.00650672175
0.006506724194
0.006506729248
0.006506746406
0.006506803026
0.006506965863
0.006507396037
0.006508396666
0.006510373782
0.006506721575
0.006506720981
0.006506721387
0.006506721674
0.006506721144
0.006506721294
0.006506722006
0.006506724089
0.006506732158
0.006506758295
0.00650684545
0.006507108387
0.006507830332
0.006509571907
0.006513035992
0.006506721695
0.006506721979
0.006506721767
0.006506721574
0.00650672133
0.006506722185
0.006506722322
0.006506725181
0.006506734566
0.006506765375
0.006506869028
0.006507193975
0.006508116774
0.006510411212
0.006515035936
0.006506721122
0.006506721773
0.006506721973
0.006506722213
0.006506722452
0.00650672249
0.006506722788
0.006506725082
0.00650673222
0.006506758946
0.006506845595
0.006507107738
0.006507830319
0.006509571392
0.006513035697
0.006506721588
0.006506721634
0.006506721118
0.006506721114
0.006506721666
0.006506721817
0.006506721698
0.006506723444
0.006506728552
0.006506746666
0.006506802617
0.006506965939
0.00650739583
0.006508396996
0.006510373813
0.006506721466
0.006506721376
0.006506721076
0.006506721022
0.006506720603
0.006506721204
0.006506721289
0.006506722465
0.006506726112
0.006506736625
0.006506768651
0.006506858942
0.006507085091
0.006507596689
0.006508605383
0.006506721393
0.006506720881
0.006506720903
0.006506720888
0.006506720955
0.006506721222
0.00650672103
0.006506721975
0.006506724342
0.006506731841
0.006506752285
0.006506806551
0.006506939858
0.006507234831
0.00650781587
0.006506721764
0.006506721339
0.006506720903
0.006506721203
0.00650672191
0.006506721637
0.006506721891
0.006506722283
0.006506726055
0.006506736191
0.006506769217
0.006506859041
0.006507084776
0.006507596894
0.006506721333
0.00650672139
0.006506721319
0.006506720938
0.006506720703
0.006506721612
0.006506721478
0.006506722718
0.006506728365
0.006506745792
0.00650680167
0.006506964469
0.00650739898
0.00650841344
0.006510421287
0.00650672053
0.006506720822
0.006506721299
0.006506721524
0.006506721638
0.006506722054
0.006506722101
0.006506724793
0.006506733965
0.006506765739
0.006506872377
0.006507206223
0.006508150823
0.006510472281
0.006515112223
0.006506721442
0.006506721469
0.00650672103
0.006506722041
0.006506721767
0.006506721442
0.006506722837
0.006506726062
0.006506739363
0.006506790924
0.006506970236
0.00650757031
0.006509388542
0.006514141148
0.006523871956
0.006506721363
0.006506722093
0.006506720465
0.006506721137
0.00650672084
0.006506721619
0.006506723167
0.006506726976
0.006506743268
0.006506804781
0.006507033135
0.006507832749
0.006510408676
0.006517606782
0.006533030855
0.006506721131
0.006506721421
0.006506720719
0.006506721247
0.006506721729
0.006506722287
0.006506722678
0.006506726155
0.006506739992
0.006506790855
0.006506970538
0.006507570046
0.006509387606
0.006514140037
0.006523871116
0.006506721217
0.006506721146
0.006506721554
0.006506721501
0.006506721582
0.006506722151
0.006506723038
0.006506724509
0.006506733307
0.006506765787
0.006506873595
0.006507206777
0.006508151233
0.00651047252
0.00651511196
0.006506720711
0.006506720707
0.006506720674
0.006506721076
0.006506721143
0.006506721054
0.006506721491
0.006506723779
0.006506728245
0.006506746113
0.006506801998
0.006506964966
0.006507398393
0.006508414063
0.006510421422
0.00650672162
0.006506721165
0.006506720744
0.00650672122
0.006506721186
0.006506721152
0.006506721269
0.006506722898
0.006506726169
0.006506737206
0.006506768778
0.006506858581
0.006507084843
0.006507596521
0.006508604563
0.006506721208
0.006506721294
0.006506721422
0.006506721325
0.006506720494
0.006506720896
0.006506722039
0.006506723467
0.006506729367
0.006506746846
0.006506802855
0.006506966013
0.006507395843
0.006508396856
0.006506721696
0.006506721041
0.00650672096
0.006506720928
0.006506720911
0.006506720932
0.006506721349
0.006506724212
0.00650673407
0.006506765426
0.006506872583
0.006507206163
0.006508151248
0.006510473481
0.006506720424
0.006506721318
0.006506721447
0.006506722052
0.006506721665
0.006506721413
0.006506722254
0.006506726926
0.006506742847
0.006506806602
0.006507035224
0.006507812456
0.006510211726
0.006516568977
0.006529642026
0.00650672042
0.006506720951
0.006506721386
0.006506721521
0.006506721461
0.006506722099
0.006506723638
0.006506730549
0.006506756432
0.006506864971
0.00650729043
0.006508873348
0.006514277558
0.006530152935
0.00656498957
0.006506721219
0.00650672116
0.006506721765
0.006506721342
0.006506721583
0.006506721588
0.006506723548
0.00650673135
0.006506764655
0.006506903688
0.006507483028
0.006509813239
0.006518615058
0.006547981737
0.00662108314
0.006506720986
0.006506721742
0.006506722362
0.006506721779
0.006506721735
0.00650672199
0.006506723844
0.006506729848
0.006506756803
0.006506864948
0.006507290217
0.006508873471
0.006514277595
0.006530151896
0.006564987487
0.006506721797
0.006506721417
0.006506721478
0.006506721351
0.006506721734
0.006506721696
0.006506722593
0.006506726892
0.006506744083
0.006506807154
0.006507035437
0.006507812557
0.006510211946
0.006516568167
0.006529640367
0.006506721405
0.006506721484
0.006506721407
0.006506721616
0.006506721554
0.006506721191
0.006506722178
0.006506724682
0.006506734518
0.006506765767
0.006506872515
0.006507205916
0.006508152184
0.006510474008
0.006515113349
0.006506721663
0.006506721084
0.006506720895
0.006506721314
0.006506720898
0.006506721744
0.006506721723
0.006506723246
0.006506728638
0.006506746641
0.006506802841
0.0065069662
0.006507395844
0.006508396822
0.00651037428
0.006506720841
0.006506721095
0.00650672093
0.006506720391
0.006506720788
0.006506721305
0.006506722152
0.006506724521
0.006506731795
0.006506758499
0.006506845147
0.006507107811
0.006507829884
0.006509570915
0.006506721512
0.006506721209
0.006506720997
0.006506720843
0.006506721082
0.00650672092
0.006506722316
0.006506726759
0.006506739865
0.006506789341
0.006506970299
0.006507569822
0.006509388807
0.006514141467
0.006506720239
0.006506720891
0.006506721693
0.006506721426
0.006506720492
0.006506721745
0.006506723077
0.006506729492
0.00650675642
0.006506864876
0.006507290649
0.006508873302
0.006514277014
0.006530154886
0.006506720811
0.006506720797
0.006506720995
0.006506721622
0.006506721561
0.006506722077
0.006506724192
0.006506734517
0.006506780299
0.006506981515
0.006507858244
0.006511547371
0.006526131449
0.006576801591
0.006706376252
0.006506720989
0.006506721018
0.006506721384
0.006506721722
0.006506721397
0.006506722035
0.006506724902
0.00650673736
0.006506795287
0.006507069717
0.006508369934
0.006514532495
0.006543243607
0.006668502464
0.007103313973
0.006506721429
0.00650672102
0.006506721427
0.006506721272
0.006506721666
0.006506722022
0.006506724122
0.006506734216
0.006506780148
0.006506982289
0.006507858588
0.006511548078
0.006526131687
0.006576798867
0.006706362698
0.006506722248
0.00650672142
0.006506721901
0.00650672194
0.006506722229
0.006506721664
0.006506722978
0.006506729491
0.006506757137
0.006506865009
0.006507290106
0.006508873184
0.006514276996
0.006530151827
0.006564987583
0.006506721065
0.006506720724
0.006506720012
0.006506721228
0.006506721497
0.006506722268
0.006506722979
0.00650672599
0.006506739634
0.006506790346
0.006506970779
0.006507570841
0.006509388742
0.006514139995
0.006523871769
0.006506721092
0.006506721087
0.006506721107
0.006506720942
0.006506721321
0.006506721589
0.006506722064
0.006506723904
0.00650673144
0.006506758796
0.006506845309
0.006507107999
0.006507830805
0.006509571216
0.006513036115
0.006506721815
0.006506721464
0.006506721004
0.006506720888
0.006506721194
0.006506721382
0.006506722498
0.0065067247
0.006506733135
0.006506765643
0.00650686889
0.006507193092
0.00650811707
0.006510411674
0.006506721095
0.006506721198
0.006506720641
0.00650672045
0.006506720849
0.006506720903
0.006506722605
0.006506727408
0.006506744018
0.006506805277
0.006507033738
0.006507833755
0.006510409809
0.006517609275
0.006506721546
0.006506721938
0.006506721769
0.006506721131
0.006506721312
0.006506721264
0.006506723742
0.006506731333
0.006506763752
0.006506902671
0.006507482803
0.006509812403
0.006518615862
0.00654798624
0.006506721662
0.006506721957
0.006506721894
0.006506722006
0.006506722041
0.006506722449
0.006506725114
0.006506737066
0.006506796223
0.006507070623
0.006508370425
0.006514533078
0.006543245924
0.00666851797
0.006506720942
0.006506722086
0.006506722171
0.006506722096
0.006506721338
0.006506722257
0.006506725488
0.006506741479
0.006506818389
0.006507212895
0.006509318561
0.006521239464
0.006593367514
0.00706282117
0.01036449166
0.006506721647
0.006506721377
0.006506721092
0.00650672096
0.006506720568
0.006506721327
0.006506724977
0.006506737421
0.00650679631
0.00650707007
0.006508370338
0.006514532255
0.00654324416
0.006668504268
0.007103315063
0.006506722016
0.006506721149
0.006506721502
0.006506720735
0.006506720635
0.006506721474
0.006506723044
0.006506731098
0.006506764143
0.006506904404
0.006507483741
0.006509813121
0.006518615513
0.006547981306
0.006621083383
0.006506720365
0.006506720579
0.006506721254
0.006506721216
0.006506720762
0.006506721464
0.006506722279
0.006506726735
0.006506742977
0.006506805189
0.00650703409
0.006507833876
0.006510408538
0.006517607443
0.006533031058
0.006506721059
0.00650672121
0.006506721489
0.006506721042
0.006506720897
0.006506721092
0.006506721797
0.006506724513
0.006506734644
0.00650676498
0.006506869045
0.006507193638
0.00650811707
0.006510411991
0.00651503705
0.006506721541
0.006506721333
0.006506721097
0.006506721215
0.00650672188
0.006506722008
0.006506722496
0.006506724669
0.006506731747
0.006506758927
0.006506844705
0.006507107526
0.006507829948
0.006509570486
0.006506721166
0.00650672111
0.006506721069
0.006506721393
0.0065067212
0.006506721288
0.006506722859
0.006506726173
0.006506740193
0.006506790833
0.006506970331
0.006507570318
0.006509388387
0.006514141119
0.006506720824
0.006506721859
0.006506721196
0.006506720978
0.006506721672
0.006506722067
0.006506724049
0.006506730128
0.006506756717
0.006506865256
0.00650728982
0.006508873326
0.006514277379
0.006530154604
0.006506721675
0.006506721977
0.006506721587
0.006506721507
0.006506721825
0.006506722097
0.006506724645
0.006506735127
0.006506780846
0.006506982053
0.006507858618
0.006511547792
0.00652613234
0.006576806625
0.006506721687
0.006506721388
0.006506722109
0.006506721777
0.006506721837
0.006506721811
0.006506724861
0.006506737831
0.006506796066
0.00650706999
0.00650837033
0.006514532375
0.006543246451
0.006668520307
0.00650672193
0.006506721104
0.006506721176
0.006506721132
0.006506722121
0.00650672213
0.006506723642
0.006506734232
0.006506780032
0.006506981444
0.006507857572
0.006511546971
0.006526132548
0.006576805115
0.006506720763
0.006506720749
0.006506721136
0.006506721387
0.006506722372
0.00650672173
0.006506723422
0.006506729448
0.006506756086
0.006506865598
0.006507290405
0.006508872937
0.006514276566
0.006530153995
0.006564992249
0.006506721112
0.006506721014
0.006506721136
0.006506721263
0.006506721308
0.006506721468
0.006506722443
0.006506725779
0.00650673931
0.006506790396
0.006506970612
0.006507570887
0.006509388259
0.006514139917
0.006523872144
0.006506721099
0.006506720971
0.006506720534
0.006506721086
0.006506720898
0.006506722102
0.006506722616
0.006506724616
0.00650673232
0.006506758864
0.006506845018
0.006507107466
0.006507830301
0.006509571015
0.006513035267
0.006506720842
0.006506721267
0.006506720708
0.006506720373
0.006506720163
0.006506720534
0.006506721081
0.00650672318
0.006506728483
0.006506746712
0.006506802834
0.006506965514
0.006507395986
0.006508396509
0.006506721347
0.006506721473
0.006506721436
0.00650672138
0.006506721553
0.00650672149
0.006506721484
0.006506724436
0.006506733785
0.006506766041
0.006506872513
0.006507207198
0.006508151386
0.006510472934
0.006506721554
0.006506721786
0.006506721161
0.006506721389
0.006506721524
0.00650672135
0.006506722517
0.006506726526
0.006506743108
0.006506806452
0.006507034937
0.00650781285
0.006510211771
0.00651656949
0.006506720567
0.006506721169
0.006506721188
0.006506721564
0.006506721294
0.006506721386
0.00650672315
0.006506729665
0.006506756917
0.006506864923
0.006507290326
0.006508873074
0.00651427705
0.006530155188
0.006506720852
0.006506721614
0.00650672147
0.006506721695
0.00650672175
0.006506721905
0.006506723327
0.006506730794
0.006506763986
0.006506903402
0.00650748261
0.006509812355
0.006518615429
0.006547985539
0.006506721585
0.006506721597
0.006506721664
0.006506721707
0.006506722177
0.006506722002
0.00650672271
0.006506729568
0.006506756251
0.006506864371
0.006507290056
0.006508872197
0.006514276696
0.006530154224
0.006506721131
0.006506721028
0.006506721081
0.006506721863
0.006506721686
0.006506721518
0.006506722403
0.006506727134
0.006506743486
0.006506806375
0.006507035913
0.006507812424
0.006510211372
0.006516569292
0.006506721142
0.006506721042
0.006506721603
0.006506721514
0.006506721342
0.006506721328
0.006506721611
0.006506724212
0.006506733258
0.006506765267
0.006506872851
0.006507205996
0.006508151015
0.006510473208
0.006515112479
0.006506721469
0.006506721288
0.006506721201
0.006506721525
0.006506721395
0.006506720811
0.00650672158
0.006506723868
0.00650672928
0.006506747007
0.0065068039
0.006506966831
0.006507396322
0.006508396809
0.006510373809
0.006506721562
0.00650672111
0.006506720631
0.006506720673
0.006506720421
0.006506720201
0.006506720405
0.006506721985
0.006506725657
0.006506736522
0.006506768798
0.006506858656
0.006507085093
0.00650759636
0.006506721856
0.006506721476
0.006506721343
0.00650672084
0.006506720775
0.006506721325
0.006506722091
0.006506723283
0.006506728661
0.006506746429
0.006506801257
0.006506964213
0.006507398246
0.006508413296
0.006506722039
0.006506721739
0.006506721466
0.006506721283
0.006506720624
0.006506721007
0.006506722435
0.006506724981
0.006506733622
0.006506766299
0.006506872611
0.006507206304
0.006508150379
0.006510472133
0.006506721255
0.006506721729
0.006506720783
0.00650672092
0.006506720823
0.006506721207
0.006506722122
0.006506725257
0.006506739209
0.006506790373
0.006506970883
0.006507570499
0.006509388647
0.006514140978
0.006506720878
0.006506721193
0.006506721113
0.006506721075
0.00650672091
0.006506721352
0.006506722295
0.006506726129
0.006506742449
0.006506804176
0.006507033267
0.006507833563
0.006510408635
0.00651760895
0.006506720969
0.006506721143
0.006506721539
0.006506721075
0.006506720997
0.006506721428
0.006506722262
0.006506725606
0.006506739149
0.006506789659
0.006506970306
0.006507569769
0.006509387937
0.006514140275
0.006506721579
0.006506721298
0.00650672115
0.006506720789
0.006506721368
0.006506721685
0.006506721986
0.006506724878
0.006506733943
0.00650676525
0.006506872121
0.006507205942
0.006508150838
0.006510473572
0.006506721376
0.006506721271
0.006506722121
0.006506721465
0.006506721489
0.006506721326
0.006506721606
0.006506723275
0.006506729224
0.006506746712
0.006506802424
0.006506964962
0.006507398642
0.006508414095
0.006506721473
0.006506721704
0.006506721995
0.006506721666
0.006506721597
0.006506721396
0.00650672102
0.00650672234
0.006506726056
0.006506736893
0.006506769469
0.006506858935
0.006507084786
0.006507595923
0.006508604529
0.00650672138
0.00650672121
0.006506720515
0.00650672109
0.006506720474
0.006506720671
0.006506720775
0.006506722059
0.006506724632
0.006506732074
0.006506752399
0.006506806717
0.006506939724
0.006507234067
0.006506721655
0.006506720921
0.006506721235
0.006506720691
0.006506721079
0.006506720579
0.006506721439
0.006506722704
0.006506726805
0.006506736763
0.006506769181
0.006506858803
0.006507085
0.006507596546
0.006506721253
0.006506721721
0.00650672129
0.006506720886
0.006506720864
0.006506721105
0.006506721344
0.006506722835
0.006506729004
0.006506746533
0.006506803723
0.006506966361
0.006507395868
0.006508396455
0.006506720998
0.006506721358
0.006506720949
0.006506721488
0.006506721822
0.006506720802
0.00650672194
0.006506723951
0.00650673216
0.006506758502
0.006506845171
0.006507108144
0.006507830107
0.006509571184
0.00650672119
0.006506720514
0.006506720855
0.006506721228
0.006506721211
0.006506721175
0.006506722285
0.006506724303
0.006506733163
0.006506764388
0.006506868741
0.006507192985
0.006508116824
0.006510411531
0.006506720993
0.006506720623
0.006506721029
0.006506720588
0.006506721205
0.006506721836
0.006506722394
0.00650672423
0.006506731878
0.006506758446
0.006506844829
0.006507107671
0.006507829886
0.00650957079
0.006506721114
0.006506721115
0.006506721648
0.006506721436
0.006506720797
0.006506720894
0.00650672152
0.006506723309
0.006506728148
0.006506746625
0.006506802929
0.00650696572
0.006507396022
0.006508396856
0.00650672104
0.006506720206
0.006506721489
0.006506720951
0.006506720733
0.006506721416
0.006506721519
0.006506722628
0.006506726687
0.00650673681
0.006506768999
0.006506858273
0.006507084493
0.006507596293
0.006506720823
0.006506721222
0.006506721421
0.006506721477
0.006506721708
0.00650672139
0.006506720853
0.006506721706
0.006506724366
0.006506731755
0.006506752401
0.006506806768
0.006506940161
0.006507234576
)
;

boundaryField
{
    top
    {
        type            zeroGradient;
    }
    bottom
    {
        type            zeroGradient;
    }
    side-walls
    {
        type            zeroGradient;
    }
    inlet
    {
        type            zeroGradient;
    }
    outlet
    {
        type            zeroGradient;
    }
    procBoundary0to1
    {
        type            processor;
        value           nonuniform List<scalar> 
97
(
0.00650882697
0.006508604746
0.006510311492
0.006513594838
0.00651841279
0.006521858733
0.006518412485
0.006513594961
0.006510312459
0.006508828507
0.006508604746
0.006508604746
0.006513663937
0.006515113083
0.006522111948
0.006537155685
0.006551376721
0.006537155976
0.006522112926
0.006513665009
0.006510312275
0.006510373974
0.006515113083
0.006515113083
0.006547117562
0.006564993238
0.006602844347
0.006675977701
0.006602842474
0.006547116459
0.006522112728
0.006513594627
0.00651303572
0.006523872477
0.006564993238
0.006564993238
0.006794236541
0.007103364996
0.00717057626
0.00679423102
0.006602843397
0.006537155969
0.006518412979
0.006515036472
0.006533033014
0.006621089944
0.007103364996
0.007103364996
0.008792416139
0.007103363946
0.007170575581
0.006706375112
0.006675977731
0.006551377475
0.006521859829
0.006513035589
0.006523872122
0.00656499081
0.006706373483
0.007103363946
0.006706375112
0.006706375112
0.006602844581
0.006529641861
0.006537156413
0.006518412862
0.006510373373
0.006515111779
0.006529641572
0.006564990101
0.006621090538
0.00656499028
0.006529641861
0.006529641861
0.00652211197
0.006510420873
0.006513594908
0.006508604477
0.006510420111
0.00651511159
0.006523872122
0.006533032723
0.006523871783
0.006515113348
0.006510420873
0.006510420873
0.006510311655
0.006507815215
0.006507815281
0.006508604591
0.006510372426
0.00651303529
0.006515036503
0.006513036067
0.006510373902
0.006508603732
0.006507815215
)
;
    }
}


// ************************************************************************* //
