/*--------------------------------*- C++ -*----------------------------------*\
| =========                 |                                                 |
| \\      /  F ield         | OpenFOAM: The Open Source CFD Toolbox           |
|  \\    /   O peration     | Version:  4.x                                   |
|   \\  /    A nd           | Web:      www.OpenFOAM.org                      |
|    \\/     M anipulation  |                                                 |
\*---------------------------------------------------------------------------*/
FoamFile
{
    version     2.0;
    format      ascii;
    class       volScalarField;
    location    "11000";
    object      Cpv;
}
// * * * * * * * * * * * * * * * * * * * * * * * * * * * * * * * * * * * * * //

dimensions      [0 2 -2 -1 0 0 0];

internalField   nonuniform List<scalar> 
1175
(
1210.518804
1210.518794
1210.518811
1210.518799
1210.518806
1210.518811
1210.518808
1210.518799
1210.518799
1210.518814
1210.518807
1210.518812
1210.518829
1210.518855
1210.518879
1210.518008
1210.517993
1210.518
1210.517997
1210.518004
1210.518013
1210.518019
1210.518016
1210.518024
1210.518005
1210.518006
1210.517978
1210.517996
1210.518022
1210.51809
1210.518704
1210.518719
1210.518736
1210.518731
1210.51872
1210.518725
1210.518741
1210.518733
1210.518744
1210.518762
1210.518769
1210.518783
1210.518792
1210.51887
1210.518987
1210.518462
1210.518449
1210.518431
1210.518434
1210.518425
1210.518437
1210.518425
1210.518413
1210.518413
1210.518415
1210.51843
1210.518426
1210.51849
1210.518598
1210.518812
1210.51926
1210.519249
1210.519269
1210.519289
1210.519288
1210.51927
1210.519268
1210.519275
1210.519266
1210.519272
1210.519265
1210.51928
1210.519383
1210.519549
1210.519859
1210.519266
1210.519263
1210.519229
1210.51923
1210.519237
1210.519238
1210.519246
1210.519272
1210.519267
1210.519255
1210.519272
1210.519289
1210.519323
1210.519421
1210.519646
1210.51893
1210.5189
1210.518923
1210.51892
1210.51889
1210.518917
1210.518926
1210.518923
1210.51893
1210.518931
1210.518918
1210.518958
1210.518967
1210.519019
1210.519145
1210.519175
1210.519173
1210.519177
1210.519175
1210.519197
1210.519199
1210.51919
1210.519195
1210.519185
1210.519181
1210.519201
1210.519173
1210.519197
1210.519221
1210.519282
1210.519448
1210.519447
1210.519467
1210.519452
1210.519441
1210.519443
1210.51947
1210.519463
1210.519454
1210.519474
1210.519458
1210.51947
1210.519476
1210.519497
1210.519523
1210.518701
1210.518717
1210.518725
1210.518736
1210.518732
1210.518734
1210.518736
1210.518739
1210.518745
1210.518744
1210.518752
1210.518757
1210.518787
1210.518797
1210.518927
1210.518929
1210.518925
1210.518949
1210.51895
1210.518949
1210.518953
1210.518972
1210.518957
1210.51895
1210.518965
1210.518974
1210.518996
1210.51905
1210.519192
1210.520309
1210.520283
1210.520266
1210.520251
1210.520279
1210.520261
1210.520258
1210.520282
1210.520272
1210.520258
1210.520263
1210.520284
1210.52033
1210.52046
1210.520738
1210.518457
1210.518459
1210.518459
1210.518472
1210.518445
1210.518465
1210.518483
1210.518487
1210.518479
1210.518472
1210.518507
1210.518513
1210.518628
1210.518927
1210.519569
1210.51965
1210.519625
1210.519635
1210.519635
1210.519668
1210.519654
1210.519651
1210.519632
1210.519657
1210.519698
1210.519714
1210.5198
1210.519944
1210.520422
1210.521362
1210.517748
1210.517744
1210.517779
1210.517774
1210.517773
1210.517783
1210.51779
1210.51777
1210.517771
1210.517804
1210.517826
1210.517863
1210.517976
1210.518285
1210.518891
1210.520157
1210.520165
1210.520186
1210.520188
1210.520175
1210.520168
1210.520167
1210.520162
1210.520189
1210.520157
1210.520127
1210.520137
1210.520204
1210.520347
1210.52065
1210.518257
1210.518254
1210.518235
1210.518235
1210.51825
1210.518212
1210.518207
1210.518213
1210.518213
1210.518223
1210.518204
1210.518225
1210.518258
1210.518313
1210.518443
1210.519625
1210.519623
1210.519619
1210.519627
1210.519613
1210.519623
1210.51961
1210.519626
1210.519621
1210.519603
1210.519617
1210.519621
1210.519616
1210.51966
1210.51972
1210.518744
1210.518754
1210.518736
1210.518729
1210.518742
1210.51874
1210.518747
1210.518755
1210.518753
1210.518765
1210.518796
1210.518811
1210.518834
1210.518894
1210.517999
1210.518022
1210.517996
1210.518018
1210.518013
1210.518009
1210.517996
1210.517993
1210.517969
1210.517965
1210.517961
1210.518004
1210.518057
1210.5182
1210.518441
1210.51842
1210.518425
1210.518417
1210.518399
1210.518414
1210.518413
1210.518398
1210.51842
1210.518401
1210.518411
1210.518464
1210.518588
1210.519009
1210.519838
1210.518866
1210.518876
1210.518868
1210.518857
1210.518859
1210.518844
1210.518848
1210.51886
1210.518885
1210.518887
1210.51891
1210.51901
1210.519358
1210.520364
1210.52257
1210.518037
1210.518028
1210.518022
1210.518033
1210.518022
1210.518016
1210.518015
1210.518034
1210.518042
1210.518048
1210.518071
1210.518196
1210.518783
1210.520638
1210.525294
1210.518191
1210.518179
1210.51817
1210.518144
1210.518145
1210.518158
1210.518136
1210.518142
1210.518153
1210.518183
1210.518199
1210.518302
1210.518647
1210.519667
1210.521881
1210.519037
1210.519043
1210.519051
1210.519061
1210.519069
1210.519084
1210.519105
1210.519126
1210.519117
1210.519121
1210.519162
1210.519212
1210.519359
1210.519774
1210.52061
1210.519728
1210.519749
1210.519734
1210.519734
1210.519733
1210.519733
1210.519722
1210.519725
1210.519706
1210.51971
1210.519714
1210.519756
1210.519796
1210.519942
1210.520245
1210.517629
1210.517641
1210.517617
1210.517628
1210.517646
1210.517637
1210.517658
1210.517649
1210.517636
1210.517646
1210.517645
1210.517662
1210.5177
1210.517783
1210.517912
1210.519198
1210.5192
1210.519207
1210.519222
1210.519219
1210.519225
1210.51921
1210.519206
1210.519199
1210.519201
1210.519181
1210.519189
1210.519249
1210.519367
1210.519609
1210.519612
1210.519629
1210.519613
1210.519623
1210.519637
1210.519618
1210.519596
1210.519607
1210.519627
1210.519597
1210.519631
1210.519752
1210.520037
1210.518416
1210.518409
1210.518378
1210.518382
1210.518408
1210.518378
1210.518388
1210.518348
1210.518361
1210.518387
1210.518427
1210.518542
1210.518904
1210.519889
1210.519629
1210.519623
1210.519618
1210.5196
1210.519598
1210.519614
1210.51962
1210.519623
1210.519627
1210.519622
1210.519703
1210.519915
1210.520865
1210.524096
1210.532335
1210.520123
1210.520129
1210.520143
1210.520131
1210.520146
1210.52016
1210.520176
1210.520169
1210.520183
1210.52021
1210.520277
1210.520662
1210.522453
1210.530391
1210.557824
1210.518287
1210.51828
1210.51828
1210.518273
1210.51824
1210.518241
1210.518238
1210.518234
1210.518221
1210.518246
1210.518288
1210.518504
1210.519426
1210.522661
1210.530866
1210.51894
1210.518947
1210.518935
1210.51895
1210.518956
1210.518967
1210.518986
1210.518989
1210.518991
1210.51901
1210.519052
1210.519152
1210.519483
1210.520483
1210.522709
1210.517427
1210.517438
1210.517434
1210.517416
1210.517417
1210.517402
1210.517393
1210.517417
1210.517429
1210.517431
1210.517423
1210.517444
1210.517573
1210.517896
1210.518501
1210.518275
1210.518282
1210.518299
1210.51829
1210.518295
1210.518286
1210.518291
1210.518294
1210.518287
1210.518279
1210.518279
1210.518303
1210.518325
1210.518434
1210.518659
1210.519043
1210.51905
1210.519049
1210.519066
1210.519079
1210.519076
1210.519075
1210.519057
1210.519075
1210.519087
1210.51911
1210.519145
1210.519233
1210.519365
1210.518435
1210.518447
1210.518454
1210.518454
1210.518437
1210.5184
1210.51838
1210.518363
1210.518372
1210.518389
1210.518412
1210.518445
1210.518609
1210.519093
1210.518574
1210.518586
1210.518606
1210.518615
1210.518599
1210.518605
1210.518619
1210.518626
1210.518648
1210.518675
1210.518685
1210.518803
1210.519347
1210.521219
1210.519364
1210.519338
1210.51935
1210.519331
1210.519326
1210.519367
1210.519385
1210.519385
1210.519358
1210.519399
1210.519519
1210.519906
1210.52174
1210.529689
1210.518345
1210.518319
1210.518321
1210.518322
1210.518328
1210.518347
1210.518345
1210.518339
1210.518338
1210.51834
1210.51846
1210.519217
1210.523778
1210.553506
1210.368044
1210.519314
1210.51933
1210.519344
1210.519345
1210.519349
1210.519342
1210.519308
1210.519345
1210.519334
1210.519354
1210.51944
1210.519833
1210.521653
1210.529609
1210.557053
1210.519366
1210.519377
1210.519378
1210.519379
1210.519386
1210.519383
1210.519387
1210.519389
1210.519361
1210.519363
1210.519386
1210.519548
1210.520125
1210.52201
1210.52664
1210.519549
1210.519524
1210.519512
1210.519488
1210.519487
1210.519496
1210.5195
1210.519516
1210.519509
1210.519491
1210.5195
1210.519549
1210.51969
1210.52015
1210.521105
1210.519851
1210.519833
1210.519816
1210.519836
1210.519837
1210.519851
1210.519847
1210.51981
1210.519801
1210.519792
1210.519796
1210.519801
1210.519872
1210.520016
1210.520311
1210.519183
1210.519175
1210.519203
1210.519162
1210.519179
1210.519168
1210.519203
1210.519193
1210.519201
1210.519218
1210.519232
1210.519236
1210.519275
1210.519351
1210.518711
1210.518713
1210.518683
1210.518702
1210.518693
1210.518726
1210.518697
1210.518691
1210.518716
1210.51871
1210.518709
1210.518759
1210.518866
1210.51919
1210.519343
1210.519322
1210.519321
1210.519349
1210.519346
1210.519346
1210.519365
1210.519387
1210.519372
1210.519407
1210.519433
1210.519516
1210.519847
1210.520835
1210.518387
1210.518414
1210.518437
1210.518448
1210.518449
1210.518443
1210.518433
1210.518428
1210.51843
1210.518465
1210.518535
1210.518776
1210.519691
1210.522906
1210.519535
1210.519531
1210.519547
1210.519565
1210.519563
1210.519548
1210.519539
1210.519539
1210.519552
1210.519579
1210.519671
1210.520036
1210.521842
1210.529769
1210.518868
1210.518867
1210.518873
1210.518889
1210.518884
1210.51888
1210.518908
1210.518889
1210.518868
1210.518872
1210.518922
1210.519159
1210.520096
1210.523296
1210.518643
1210.518663
1210.518621
1210.518633
1210.518617
1210.518624
1210.518635
1210.518645
1210.518653
1210.518649
1210.518689
1210.518799
1210.519159
1210.520153
1210.522379
1210.519314
1210.519314
1210.519303
1210.519317
1210.519323
1210.519301
1210.519313
1210.519332
1210.519348
1210.519362
1210.519357
1210.519396
1210.519512
1210.519816
1210.520404
1210.519162
1210.519156
1210.519183
1210.519161
1210.519164
1210.519153
1210.519157
1210.519146
1210.519133
1210.519128
1210.519168
1210.519197
1210.519247
1210.519373
1210.519582
1210.518522
1210.518521
1210.518509
1210.518512
1210.518513
1210.518506
1210.518507
1210.518518
1210.518522
1210.518496
1210.518513
1210.518535
1210.518556
1210.518628
1210.519626
1210.519602
1210.519601
1210.519598
1210.519599
1210.519616
1210.519644
1210.519613
1210.519587
1210.519606
1210.519621
1210.519638
1210.51973
1210.519903
1210.51861
1210.518614
1210.518629
1210.518653
1210.518629
1210.518644
1210.518636
1210.518651
1210.518653
1210.518667
1210.518697
1210.518752
1210.51891
1210.519307
1210.519067
1210.519051
1210.519037
1210.51904
1210.51904
1210.519058
1210.519032
1210.519008
1210.51901
1210.519006
1210.519038
1210.51913
1210.519478
1210.520452
1210.518944
1210.518921
1210.518909
1210.518916
1210.518901
1210.518904
1210.518905
1210.518945
1210.518961
1210.518945
1210.518983
1210.519157
1210.51971
1210.521552
1210.519573
1210.51958
1210.519566
1210.519567
1210.519563
1210.519586
1210.519574
1210.519579
1210.519586
1210.519599
1210.519632
1210.519738
1210.520092
1210.52111
1210.51933
1210.519327
1210.519316
1210.519296
1210.519286
1210.519317
1210.519317
1210.519306
1210.519288
1210.519278
1210.519282
1210.519358
1210.519498
1210.5199
1210.518447
1210.518447
1210.51845
1210.51845
1210.518484
1210.518475
1210.518458
1210.518431
1210.518445
1210.518453
1210.518454
1210.518497
1210.518556
1210.518714
1210.519046
1210.518332
1210.51836
1210.518337
1210.518319
1210.518329
1210.518338
1210.518316
1210.518298
1210.518294
1210.518288
1210.518283
1210.518306
1210.518348
1210.518414
1210.518534
1210.519045
1210.519071
1210.519076
1210.519084
1210.519077
1210.51906
1210.519058
1210.519039
1210.519026
1210.51904
1210.519034
1210.519044
1210.519071
1210.51912
1210.51848
1210.518477
1210.518474
1210.518477
1210.518485
1210.518482
1210.518489
1210.518516
1210.518515
1210.518505
1210.518498
1210.518509
1210.518524
1210.51859
1210.519505
1210.519502
1210.519519
1210.519514
1210.519541
1210.519542
1210.519519
1210.519512
1210.519512
1210.519508
1210.519518
1210.519524
1210.519614
1210.519778
1210.518739
1210.518741
1210.518741
1210.51875
1210.518741
1210.518745
1210.518742
1210.518791
1210.518752
1210.518772
1210.518761
1210.518798
1210.518919
1210.519224
1210.519496
1210.5195
1210.519487
1210.519474
1210.519489
1210.51948
1210.519505
1210.519487
1210.519492
1210.519496
1210.51953
1210.519579
1210.519753
1210.520225
1210.518572
1210.518582
1210.518583
1210.518613
1210.518641
1210.518645
1210.518639
1210.518644
1210.518646
1210.518667
1210.518655
1210.518691
1210.518793
1210.519114
1210.518682
1210.518676
1210.518687
1210.518702
1210.518697
1210.518688
1210.518685
1210.518685
1210.51868
1210.518702
1210.518711
1210.518734
1210.518777
1210.518912
1210.518251
1210.51827
1210.518281
1210.518275
1210.518253
1210.518269
1210.518313
1210.518316
1210.518303
1210.518306
1210.518354
1210.518352
1210.5184
1210.51848
1210.519133
1210.519129
1210.519128
1210.519129
1210.519156
1210.519177
1210.519187
1210.519171
1210.519193
1210.519189
1210.519196
1210.519196
1210.519211
1210.51925
1210.519306
1210.519246
1210.519251
1210.519244
1210.519254
1210.51928
1210.519283
1210.519275
1210.51927
1210.519238
1210.519239
1210.519238
1210.519252
1210.519269
1210.519274
1210.5186
1210.518593
1210.518616
1210.518627
1210.518635
1210.518637
1210.51864
1210.518637
1210.518626
1210.518622
1210.518632
1210.518634
1210.518656
1210.5187
1210.519449
1210.519429
1210.519437
1210.519437
1210.519441
1210.519438
1210.519452
1210.519462
1210.51948
1210.519465
1210.519463
1210.519479
1210.519515
1210.519596
1210.517615
1210.517616
1210.517628
1210.517625
1210.517633
1210.517651
1210.517654
1210.517655
1210.517629
1210.517662
1210.517684
1210.517687
1210.517744
1210.517852
1210.518341
1210.518365
1210.518364
1210.518353
1210.51835
1210.518342
1210.518332
1210.518353
1210.518336
1210.518356
1210.518349
1210.518371
1210.518422
1210.518586
1210.519032
1210.519028
1210.51901
1210.518997
1210.518998
1210.518967
1210.518977
1210.518986
1210.519004
1210.518986
1210.518982
1210.519009
1210.51906
1210.519171
1210.51877
1210.518761
1210.518764
1210.518786
1210.518786
1210.518791
1210.518807
1210.518812
1210.51881
1210.518814
1210.518805
1210.518826
1210.518865
1210.518917
1210.51898
1210.518971
1210.51894
1210.518966
1210.518971
1210.518967
1210.518959
1210.518936
1210.518943
1210.51895
1210.518951
1210.518958
1210.518952
1210.518993
1210.518693
1210.518686
1210.518671
1210.518667
1210.518665
1210.518665
1210.518663
1210.518681
1210.518673
1210.518667
1210.518682
1210.518688
1210.518682
1210.518721
)
;

boundaryField
{
    top
    {
        type            calculated;
        value           nonuniform List<scalar> 
134
(
1210.519448
1210.519625
1210.517629
1210.518275
1210.519851
1210.519162
1210.518332
1210.519133
1210.518693
1210.519447
1210.519623
1210.517641
1210.518282
1210.519833
1210.519156
1210.51836
1210.519129
1210.518686
1210.519467
1210.519619
1210.517617
1210.518299
1210.519816
1210.519183
1210.518337
1210.519128
1210.518671
1210.519452
1210.519627
1210.517628
1210.51829
1210.519836
1210.519161
1210.518319
1210.519129
1210.518667
1210.519441
1210.519613
1210.517646
1210.518295
1210.519837
1210.519164
1210.518329
1210.519156
1210.518665
1210.519443
1210.519623
1210.517637
1210.518286
1210.519851
1210.519153
1210.518338
1210.519177
1210.518665
1210.51947
1210.51961
1210.517658
1210.518291
1210.519847
1210.519157
1210.518316
1210.519187
1210.518663
1210.519463
1210.519626
1210.517649
1210.518294
1210.51981
1210.519146
1210.518298
1210.519171
1210.518681
1210.519454
1210.519621
1210.517636
1210.518287
1210.519801
1210.519133
1210.518294
1210.519193
1210.518673
1210.519474
1210.519603
1210.517646
1210.518279
1210.519792
1210.519128
1210.518288
1210.519189
1210.518667
1210.519458
1210.519617
1210.517645
1210.518279
1210.519796
1210.519168
1210.518283
1210.519196
1210.518682
1210.51947
1210.519621
1210.517662
1210.518303
1210.519801
1210.519197
1210.518306
1210.519196
1210.518688
1210.519476
1210.519616
1210.5177
1210.518325
1210.519872
1210.519247
1210.518348
1210.519211
1210.518682
1210.519497
1210.51966
1210.517783
1210.518434
1210.520016
1210.519373
1210.518414
1210.51925
1210.518721
1210.519523
1210.51972
1210.517912
1210.518659
1210.520311
1210.519582
1210.518534
1210.519306
)
;
    }
    bottom
    {
        type            calculated;
        value           nonuniform List<scalar> 
127
(
1210.518804
1210.518701
1210.518744
1210.519198
1210.519043
1210.519183
1210.518522
1210.519045
1210.519246
1210.518794
1210.518717
1210.518754
1210.5192
1210.51905
1210.519175
1210.518521
1210.519071
1210.519251
1210.518811
1210.518725
1210.518736
1210.519207
1210.519049
1210.519203
1210.518509
1210.519076
1210.519244
1210.518799
1210.518736
1210.518729
1210.519222
1210.519066
1210.519162
1210.518512
1210.519084
1210.519254
1210.518806
1210.518732
1210.518742
1210.519219
1210.519079
1210.519179
1210.518513
1210.519077
1210.51928
1210.518811
1210.518734
1210.51874
1210.519225
1210.519076
1210.519168
1210.518506
1210.51906
1210.519283
1210.518808
1210.518736
1210.518747
1210.51921
1210.519075
1210.519203
1210.518507
1210.519058
1210.519275
1210.518799
1210.518739
1210.518755
1210.519206
1210.519057
1210.519193
1210.518518
1210.519039
1210.51927
1210.518799
1210.518745
1210.518753
1210.519199
1210.519075
1210.519201
1210.518522
1210.519026
1210.519238
1210.518814
1210.518744
1210.518765
1210.519201
1210.519087
1210.519218
1210.518496
1210.51904
1210.519239
1210.518807
1210.518752
1210.518796
1210.519181
1210.51911
1210.519232
1210.518513
1210.519034
1210.519238
1210.518812
1210.518757
1210.518811
1210.519189
1210.519145
1210.519236
1210.518535
1210.519044
1210.519252
1210.518829
1210.518787
1210.518834
1210.519249
1210.519233
1210.519275
1210.518556
1210.519071
1210.519269
1210.518855
1210.518797
1210.518894
1210.519367
1210.519365
1210.519351
1210.518628
1210.51912
1210.519274
1210.518879
)
;
    }
    side-walls
    {
        type            calculated;
        value           nonuniform List<scalar> 
261
(
1210.518804
1210.518008
1210.518704
1210.518462
1210.51926
1210.519266
1210.51893
1210.519175
1210.519448
1210.518794
1210.517993
1210.518719
1210.518449
1210.519249
1210.519263
1210.5189
1210.519173
1210.519447
1210.518811
1210.518
1210.518736
1210.518431
1210.519269
1210.519229
1210.518923
1210.519177
1210.519467
1210.518799
1210.517997
1210.518731
1210.518434
1210.519289
1210.51923
1210.51892
1210.519175
1210.519452
1210.518806
1210.518004
1210.51872
1210.518425
1210.519288
1210.519237
1210.51889
1210.519197
1210.519441
1210.518811
1210.518013
1210.518725
1210.518437
1210.51927
1210.519238
1210.518917
1210.519199
1210.519443
1210.518808
1210.518019
1210.518741
1210.518425
1210.519268
1210.519246
1210.518926
1210.51919
1210.51947
1210.518799
1210.518016
1210.518733
1210.518413
1210.519275
1210.519272
1210.518923
1210.519195
1210.519463
1210.518799
1210.518024
1210.518744
1210.518413
1210.519266
1210.519267
1210.51893
1210.519185
1210.519454
1210.518814
1210.518005
1210.518762
1210.518415
1210.519272
1210.519255
1210.518931
1210.519181
1210.519474
1210.518807
1210.518006
1210.518769
1210.51843
1210.519265
1210.519272
1210.518918
1210.519201
1210.519458
1210.518812
1210.517978
1210.518783
1210.518426
1210.51928
1210.519289
1210.518958
1210.519173
1210.51947
1210.518829
1210.517996
1210.518792
1210.51849
1210.519383
1210.519323
1210.518967
1210.519197
1210.519476
1210.518855
1210.518022
1210.51887
1210.518598
1210.519549
1210.519421
1210.519019
1210.519221
1210.519497
1210.518879
1210.51809
1210.518987
1210.518812
1210.519859
1210.519646
1210.519145
1210.519282
1210.519523
1210.519246
1210.5186
1210.519449
1210.517615
1210.518341
1210.519032
1210.51877
1210.51898
1210.518693
1210.519251
1210.518593
1210.519429
1210.517616
1210.518365
1210.519028
1210.518761
1210.518971
1210.518686
1210.519244
1210.518616
1210.519437
1210.517628
1210.518364
1210.51901
1210.518764
1210.51894
1210.518671
1210.519254
1210.518627
1210.519437
1210.517625
1210.518353
1210.518997
1210.518786
1210.518966
1210.518667
1210.51928
1210.518635
1210.519441
1210.517633
1210.51835
1210.518998
1210.518786
1210.518971
1210.518665
1210.519283
1210.518637
1210.519438
1210.517651
1210.518342
1210.518967
1210.518791
1210.518967
1210.518665
1210.519275
1210.51864
1210.519452
1210.517654
1210.518332
1210.518977
1210.518807
1210.518959
1210.518663
1210.51927
1210.518637
1210.519462
1210.517655
1210.518353
1210.518986
1210.518812
1210.518936
1210.518681
1210.519238
1210.518626
1210.51948
1210.517629
1210.518336
1210.519004
1210.51881
1210.518943
1210.518673
1210.519239
1210.518622
1210.519465
1210.517662
1210.518356
1210.518986
1210.518814
1210.51895
1210.518667
1210.519238
1210.518632
1210.519463
1210.517684
1210.518349
1210.518982
1210.518805
1210.518951
1210.518682
1210.519252
1210.518634
1210.519479
1210.517687
1210.518371
1210.519009
1210.518826
1210.518958
1210.518688
1210.519269
1210.518656
1210.519515
1210.517744
1210.518422
1210.51906
1210.518865
1210.518952
1210.518682
1210.519274
1210.5187
1210.519596
1210.517852
1210.518586
1210.519171
1210.518917
1210.518993
1210.518721
)
;
    }
    inlet
    {
        type            calculated;
        value           nonuniform List<scalar> 
81
(
1210.518804
1210.518008
1210.518704
1210.518462
1210.51926
1210.519266
1210.51893
1210.519175
1210.519448
1210.518701
1210.518927
1210.520309
1210.518457
1210.51965
1210.517748
1210.520157
1210.518257
1210.519625
1210.518744
1210.517999
1210.518441
1210.518866
1210.518037
1210.518191
1210.519037
1210.519728
1210.517629
1210.519198
1210.519609
1210.518416
1210.519629
1210.520123
1210.518287
1210.51894
1210.517427
1210.518275
1210.519043
1210.518435
1210.518574
1210.519364
1210.518345
1210.519314
1210.519366
1210.519549
1210.519851
1210.519183
1210.518711
1210.519343
1210.518387
1210.519535
1210.518868
1210.518643
1210.519314
1210.519162
1210.518522
1210.519626
1210.51861
1210.519067
1210.518944
1210.519573
1210.51933
1210.518447
1210.518332
1210.519045
1210.51848
1210.519505
1210.518739
1210.519496
1210.518572
1210.518682
1210.518251
1210.519133
1210.519246
1210.5186
1210.519449
1210.517615
1210.518341
1210.519032
1210.51877
1210.51898
1210.518693
)
;
    }
    outlet
    {
        type            calculated;
        value           nonuniform 0();
    }
    procBoundary0to1
    {
        type            processor;
        value           nonuniform List<scalar> 
97
(
1210.518959
1210.518869
1210.518186
1210.519191
1210.519171
1210.520278
1210.520016
1210.519326
1210.519395
1210.519581
1210.518869
1210.518869
1210.519443
1210.518514
1210.521185
1210.520405
1210.522555
1210.519712
1210.521093
1210.518636
1210.519839
1210.519048
1210.518514
1210.518514
1210.520949
1210.522092
1210.524972
1210.52876
1210.524259
1210.521732
1210.520692
1210.518114
1210.519596
1210.520674
1210.522092
1210.522092
1210.53791
1210.557116
1210.562099
1210.536421
1210.525098
1210.519335
1210.518995
1210.519653
1210.520082
1210.525861
1210.557116
1210.557116
1210.268816
1210.557193
1210.561345
1210.531521
1210.530105
1210.522239
1210.520744
1210.519578
1210.519803
1210.523066
1210.531113
1210.557193
1210.531521
1210.531521
1210.524753
1210.520751
1210.521242
1210.519919
1210.51877
1210.520197
1210.520115
1210.522685
1210.526205
1210.523321
1210.520751
1210.520751
1210.519494
1210.518594
1210.518731
1210.519182
1210.51874
1210.520087
1210.519818
1210.5212
1210.519735
1210.519148
1210.518594
1210.518594
1210.519416
1210.518749
1210.51932
1210.518748
1210.519726
1210.518091
1210.518859
1210.519402
1210.519054
1210.519048
1210.518749
)
;
    }
}


// ************************************************************************* //
