/*--------------------------------*- C++ -*----------------------------------*\
| =========                 |                                                 |
| \\      /  F ield         | OpenFOAM: The Open Source CFD Toolbox           |
|  \\    /   O peration     | Version:  4.x                                   |
|   \\  /    A nd           | Web:      www.OpenFOAM.org                      |
|    \\/     M anipulation  |                                                 |
\*---------------------------------------------------------------------------*/
FoamFile
{
    version     2.0;
    format      ascii;
    class       volScalarField;
    location    "11000";
    object      molarConc;
}
// * * * * * * * * * * * * * * * * * * * * * * * * * * * * * * * * * * * * * //

dimensions      [0 -3 0 0 1 0 0];

internalField   nonuniform List<scalar> 
1175
(
9.963284938
9.963285504
9.963284568
9.963285208
9.963284846
9.963284535
9.963284739
9.963285224
9.963285242
9.963284427
9.963284861
9.963284808
9.963284341
9.963283919
9.963284621
9.963328532
9.963329364
9.96332897
9.963329138
9.963328773
9.96332825
9.963327911
9.963328099
9.963327655
9.963328758
9.963328785
9.963330643
9.96333044
9.963330793
9.963330579
9.963290419
9.963289622
9.963288636
9.963288917
9.963289535
9.963289289
9.963288381
9.963288813
9.963288273
9.963287313
9.963287135
9.963286965
9.963287921
9.96328712
9.96328757
9.963303695
9.963304398
9.963305374
9.963305179
9.963305671
9.963305054
9.96330571
9.963306346
9.963306416
9.963306352
9.963305865
9.963306988
9.963305982
9.963306101
9.963306388
9.963259974
9.963260578
9.963259464
9.963258382
9.963258437
9.96325943
9.963259517
9.96325913
9.963259691
9.963259456
9.963260194
9.963260518
9.963258054
9.963256951
9.963255983
9.963259657
9.963259829
9.963261664
9.963261631
9.963261231
9.963261156
9.963260745
9.963259338
9.963259639
9.963260359
9.963259758
9.963259715
9.963260376
9.963261017
9.963260754
9.963278025
9.963279686
9.963278422
9.963278607
9.96328022
9.963278779
9.963278264
9.96327845
9.963278049
9.963278083
9.963278971
9.963277377
9.963278373
9.963279004
9.963278916
9.963264631
9.963264718
9.963264533
9.963264634
9.963263438
9.963263286
9.963263776
9.963263534
9.963264086
9.963264332
9.96326334
9.963265235
9.963264682
9.963265162
9.963265312
9.963249653
9.963249725
9.963248626
9.963249443
9.963250054
9.96324997
9.96324845
9.963248857
9.963249362
9.963248277
9.963249214
9.963248737
9.963248869
9.96324879
9.963249382
9.963290605
9.963289719
9.963289266
9.963288668
9.963288887
9.963288774
9.963288651
9.963288523
9.963288205
9.963288253
9.963287937
9.963287977
9.963287129
9.963288366
9.96327819
9.963278101
9.96327833
9.963277006
9.963276918
9.963276989
9.963276793
9.96327577
9.963276592
9.963277032
9.963276396
9.963276476
9.963276754
9.963277336
9.963276545
9.963202492
9.96320395
9.963204887
9.9632057
9.963204153
9.963205134
9.963205305
9.963203987
9.963204603
9.963205463
9.963205574
9.963205562
9.963206339
9.96320723
9.963208097
9.963303962
9.963303811
9.963303859
9.96330312
9.963304606
9.963303487
9.963302509
9.963302319
9.963302792
9.963303379
9.963302095
9.963303851
9.963303806
9.96330393
9.963302509
9.963238623
9.963239962
9.96323944
9.963239403
9.963237617
9.96323837
9.963238537
9.9632396
9.96323828
9.963236248
9.963236204
9.963234244
9.963235277
9.963234059
9.963236125
9.963342782
9.963343012
9.963341064
9.963341345
9.963341424
9.963340857
9.963340468
9.963341576
9.963341564
9.963339973
9.963339386
9.963339402
9.963339531
9.963339088
9.963339672
9.963210836
9.963210404
9.963209268
9.963209157
9.963209841
9.963210224
9.963210273
9.963210588
9.963209122
9.963210979
9.963213003
9.963213619
9.963213204
9.963213457
9.963212936
9.963314916
9.963315074
9.963316128
9.963316108
9.963315282
9.963317384
9.963317621
9.963317311
9.963317333
9.963316874
9.963318107
9.963317479
9.963317186
9.963317697
9.963317548
9.963239991
9.963240057
9.963240313
9.963239864
9.963240631
9.963240062
9.96324082
9.963239938
9.963240199
9.963241211
9.963240559
9.963240654
9.963241724
9.963241096
9.963241325
9.963288207
9.9632877
9.963288651
9.963289073
9.963288321
9.963288426
9.963288088
9.963287622
9.963287743
9.963287171
9.963285649
9.963285423
9.963285663
9.963285845
9.963329011
9.963327794
9.963329174
9.963327972
9.963328282
9.963328459
9.963329223
9.96332938
9.963330706
9.963331037
9.963331631
9.963330452
9.963330824
9.96333104
9.963304809
9.963305973
9.963305725
9.963306155
9.963307109
9.963306302
9.963306356
9.963307174
9.963306054
9.963307307
9.96330757
9.963307367
9.963308864
9.963307861
9.96330782
9.963281546
9.963281013
9.963281452
9.963282056
9.963281949
9.963282763
9.96328252
9.963281882
9.963280634
9.963280872
9.963281099
9.963281136
9.963280812
9.963280762
9.963280826
9.963326972
9.963327432
9.963327749
9.963327147
9.963327797
9.963328113
9.963328137
9.963327171
9.963326828
9.963326976
9.963327707
9.963328984
9.963327341
9.963327641
9.96332618
9.963318528
9.963319157
9.963319666
9.963321093
9.963321019
9.963320307
9.963321516
9.963321249
9.963320712
9.963319457
9.963320036
9.963319877
9.963319754
9.963318954
9.963318543
9.963272199
9.963271874
9.963271424
9.963270888
9.963270414
9.963269612
9.963268453
9.963267303
9.963267868
9.963267885
9.963266442
9.963266393
9.963266652
9.963265976
9.96326552
9.963234313
9.963233209
9.963233996
9.96323402
9.963234057
9.963234078
9.963234682
9.963234498
9.963235557
9.963235488
9.96323564
9.963234505
9.963235559
9.963235603
9.963235118
9.963349294
9.963348644
9.963349969
9.963349329
9.963348388
9.963348831
9.96334773
9.96334822
9.963348913
9.963348459
9.963348688
9.963348343
9.963347771
9.963346686
9.96334645
9.963263351
9.963263225
9.963262844
9.96326203
9.963262221
9.963261886
9.963262688
9.963262933
9.963263319
9.963263335
9.963264723
9.963265191
9.963264418
9.963263973
9.963240855
9.96324071
9.963239748
9.963240612
9.963240098
9.963239292
9.963240376
9.96324156
9.963241033
9.96324008
9.963242352
9.963242591
9.963242259
9.963243159
9.963306211
9.963306581
9.963308282
9.963308079
9.963306638
9.963308261
9.963307736
9.963309956
9.963309307
9.963308278
9.963307555
9.963306772
9.963305697
9.963306813
9.963239777
9.963240096
9.963240337
9.963241325
9.963241443
9.963240598
9.96324024
9.963240104
9.963240081
9.963241069
9.963239643
9.963240828
9.963239402
9.963238217
9.963236443
9.963212684
9.963212378
9.9632116
9.963212242
9.963211434
9.963210657
9.963209804
9.963210209
9.963209663
9.96320913
9.963209988
9.963210297
9.963211776
9.963211545
9.963217337
9.963313229
9.963313653
9.963313624
9.963314045
9.963315849
9.963315783
9.96331595
9.963316195
9.963317065
9.963316414
9.963317128
9.96331812
9.963318231
9.963316807
9.963316811
9.96327751
9.963277102
9.963277788
9.963276942
9.963276606
9.963275996
9.963274994
9.963274845
9.963274841
9.963274181
9.963273306
9.963273319
9.963273955
9.963274276
9.963273176
9.963360377
9.963359736
9.963359999
9.963360937
9.963360888
9.963361755
9.963362205
9.963360904
9.963360318
9.963360384
9.963361469
9.963362383
9.963361625
9.96336043
9.963361031
9.96331389
9.963313506
9.963312623
9.963313103
9.963312828
9.963313326
9.96331305
9.963312888
9.96331329
9.963313797
9.96331413
9.963313709
9.963315037
9.963315098
9.963314814
9.963271857
9.963271458
9.963271508
9.963270604
9.96326986
9.963270054
9.963270121
9.963271091
9.963270144
9.963269612
9.963268705
9.96326789
9.963266257
9.96326702
9.963305167
9.963304508
9.96330411
9.963304134
9.963305029
9.96330709
9.963308146
9.963309096
9.963308705
9.963307957
9.963307515
9.963308454
9.963308417
9.963306883
9.963297511
9.963296885
9.963295782
9.963295281
9.96329615
9.963295863
9.963295083
9.963294698
9.963293619
9.963292612
9.963294077
9.963295711
9.963296457
9.963295818
9.963254287
9.963255669
9.963255017
9.963256074
9.96325638
9.963254097
9.963253156
9.963253177
9.963254879
9.963253563
9.963251495
9.96325169
9.963250818
9.963250011
9.963310061
9.963311514
9.963311392
9.963311317
9.963311026
9.96330997
9.963310074
9.963310488
9.96331079
9.963312066
9.963312803
9.963312708
9.963313074
9.96331336
9.984922859
9.963257021
9.96325615
9.963255364
9.963255328
9.963255103
9.963255488
9.963257337
9.963255339
9.963256185
9.963256026
9.963255819
9.963255689
9.963255613
9.963254365
9.963259574
9.963254159
9.963253532
9.963253496
9.963253468
9.963253039
9.963253228
9.963253017
9.963252933
9.963254558
9.963254986
9.963255714
9.963254908
9.963253825
9.963252467
9.963252482
9.963244147
9.96324553
9.963246152
9.963247503
9.963247556
9.963247025
9.963246811
9.963245961
9.963246387
9.963247622
9.963247932
9.963248023
9.963249228
9.963249009
9.963250192
9.963227581
9.963228572
9.963229541
9.963228444
9.963228339
9.963227609
9.963227836
9.96322985
9.963230353
9.963230957
9.963231099
9.963231976
9.963231272
9.963231354
9.963231274
9.96326417
9.963264595
9.963263091
9.963265321
9.963264382
9.963264987
9.963263075
9.963263671
9.963263224
9.963262414
9.96326194
9.963262635
9.963263002
9.96326487
9.963290034
9.963289909
9.963291587
9.96329052
9.963291041
9.963289211
9.963290815
9.963291139
9.963289819
9.963290312
9.963291021
9.963290334
9.963290772
9.96328953
9.96325541
9.963256562
9.9632566
9.963255099
9.96325525
9.963255273
9.963254219
9.963253017
9.963253976
9.963252424
9.963252466
9.963253392
9.963254033
9.963255014
9.963307804
9.963306285
9.963305031
9.963304428
9.9633044
9.963304693
9.963305259
9.963305573
9.963305638
9.963304399
9.963303612
9.963303241
9.96330369
9.96330337
9.963244882
9.963245126
9.963244224
9.963243259
9.963243387
9.9632442
9.96324468
9.96324473
9.963244212
9.963243687
9.963243146
9.96324456
9.96324524
9.963245638
9.963281437
9.963281496
9.963281148
9.963280263
9.96328056
9.963280805
9.963279261
9.963280352
9.963281665
9.963282103
9.963282439
9.96328224
9.96328151
9.963282002
9.963293781
9.963292657
9.963294972
9.963294287
9.963295194
9.963294814
9.963294181
9.963293683
9.963293331
9.963293924
9.963293223
9.963292673
9.96329169
9.963292328
9.96329127
9.963257014
9.963257002
9.963257622
9.963256818
9.96325654
9.963257734
9.963257089
9.96325606
9.963255213
9.963254598
9.963255524
9.963255466
9.963255394
9.963255243
9.963256831
9.963265306
9.96326565
9.963264192
9.963265377
9.963265238
9.963265824
9.963265603
9.963266245
9.963266949
9.963267322
9.963265424
9.963264732
9.963264539
9.963263675
9.963264212
9.963300389
9.963300456
9.963301109
9.963300922
9.963300853
9.963301247
9.963301221
9.963300592
9.963300434
9.963301875
9.963301144
9.963300542
9.963300871
9.963300394
9.96323994
9.963241215
9.963241298
9.963241461
9.963241406
9.963240475
9.963238947
9.963240656
9.963242078
9.963241181
9.963240718
9.963240935
9.963239198
9.963237739
9.963295542
9.963295366
9.96329452
9.96329319
9.963294518
9.963293723
9.963294146
9.963293363
9.963293313
9.963292766
9.963291868
9.963291579
9.963291235
9.96329157
9.963270544
9.96327139
9.963272161
9.963272015
9.963272032
9.963271033
9.963272455
9.963273805
9.963273769
9.96327435
9.963274116
9.963274541
9.963274244
9.96327595
9.963277267
9.963278515
9.963279197
9.963278806
9.963279627
9.963279448
9.963279428
9.963277243
9.963276495
9.963277871
9.963277769
9.963276341
9.963276589
9.963277565
9.963242811
9.963242424
9.963243206
9.963243162
9.963243376
9.963242102
9.963242779
9.963242519
9.963242222
9.963241906
9.963241549
9.963241246
9.963240593
9.963239954
9.963256148
9.963256302
9.963256889
9.96325801
9.963258557
9.963256853
9.963256845
9.963257453
9.963258489
9.963259255
9.963259848
9.96325841
9.96325903
9.963259074
9.963304511
9.963304476
9.96330434
9.963304354
9.963302473
9.96330298
9.963303892
9.963305397
9.963304619
9.963304329
9.963304642
9.963303417
9.963303469
9.963302894
9.963300796
9.963310795
9.963309273
9.963310506
9.963311527
9.963310954
9.963310455
9.963311678
9.963312656
9.963312924
9.963313273
9.963313733
9.96331304
9.963312259
9.963312117
9.963312414
9.963271717
9.963270314
9.963270042
9.963269586
9.963269998
9.963270888
9.963271024
9.963272054
9.963272776
9.963272056
9.963272493
9.963272265
9.963271573
9.963270658
9.963302693
9.963302824
9.963303002
9.963302823
9.96330242
9.963302573
9.963302221
9.963300711
9.963300805
9.96330138
9.96330197
9.963301943
9.963302627
9.963302506
9.963246528
9.963246714
9.963245782
9.963246028
9.963244585
9.963244496
9.963245803
9.963246162
9.963246212
9.963246539
9.963246367
9.963247209
9.963245549
9.963244595
9.963288514
9.963288394
9.963288398
9.963287902
9.963288415
9.963288158
9.963288316
9.963285681
9.96328783
9.963286928
9.963288161
9.963288196
9.963287904
9.963287649
9.963247025
9.963246831
9.963247541
9.963248237
9.963247408
9.963247916
9.963246565
9.963247542
9.963247336
9.963247326
9.963246276
9.963246365
9.963245757
9.9632449
9.96329762
9.963297075
9.963297071
9.963295397
9.963293873
9.963293644
9.963294005
9.963293692
9.963293644
9.96329268
9.963293988
9.963294085
9.963294792
9.963293674
9.963291635
9.963291932
9.963291343
9.963290549
9.963290813
9.963291277
9.963291434
9.963291445
9.963291794
9.963290696
9.963290574
9.963290451
9.963291396
9.963292043
9.963315254
9.963314179
9.963313612
9.963313933
9.963315118
9.963314258
9.963311814
9.963311687
9.963312421
9.963312288
9.963309882
9.963310525
9.963309403
9.963308546
9.963266948
9.963267158
9.963267187
9.963267122
9.963265667
9.963264517
9.963263953
9.963264846
9.963263653
9.963263891
9.963263646
9.963263952
9.963263896
9.96326354
9.963264001
9.963260711
9.963260453
9.963260852
9.963260319
9.963258866
9.963258722
9.963259139
9.963259443
9.963261193
9.963261142
9.963261265
9.963260706
9.963260253
9.963260988
9.963296118
9.963296495
9.963295234
9.963294637
9.963294207
9.963294102
9.963293931
9.963294111
9.963294688
9.963294972
9.963294511
9.963294706
9.963294304
9.963293653
9.963249599
9.963250685
9.963250297
9.963250289
9.963250051
9.963250205
9.963249425
9.963248886
9.963247947
9.963248801
9.963249106
9.963248826
9.963248364
9.963247361
9.963350043
9.963350011
9.963349346
9.963349498
9.963349071
9.963348078
9.963347936
9.963347862
9.963349319
9.963347605
9.963346697
9.963347435
9.963346845
9.963346993
9.963310288
9.963308985
9.963309013
9.963309633
9.963309812
9.963310229
9.963310808
9.963309669
9.963310593
9.963309608
9.963310369
9.963310301
9.963310725
9.963309657
9.963272452
9.963272676
9.96327365
9.963274388
9.963274334
9.963276023
9.963275457
9.963275002
9.963274044
9.963275093
9.963275623
9.963275034
9.963274753
9.963274749
9.963286802
9.963287285
9.963287112
9.963285921
9.963285918
9.963285673
9.963284789
9.963284533
9.963284617
9.963284485
9.96328515
9.963284606
9.963283913
9.963284542
9.96327532
9.963275817
9.963277476
9.963276077
9.963275816
9.963276033
9.963276437
9.963277692
9.963277322
9.963277017
9.963277037
9.963276998
9.963278094
9.963277634
9.963291022
9.96329141
9.963292239
9.963292428
9.963292564
9.963292539
9.963292657
9.963291701
9.96329214
9.963292454
9.963291707
9.963291591
9.963292407
9.963291259
)
;

boundaryField
{
    top
    {
        type            calculated;
        value           nonuniform List<scalar> 
134
(
9.963249653
9.963239991
9.963349294
9.96331389
9.963227581
9.963265306
9.963310795
9.963266948
9.963291022
9.963249725
9.963240057
9.963348644
9.963313506
9.963228572
9.96326565
9.963309273
9.963267158
9.96329141
9.963248626
9.963240313
9.963349969
9.963312623
9.963229541
9.963264192
9.963310506
9.963267187
9.963292239
9.963249443
9.963239864
9.963349329
9.963313103
9.963228444
9.963265377
9.963311527
9.963267122
9.963292428
9.963250054
9.963240631
9.963348388
9.963312828
9.963228339
9.963265238
9.963310954
9.963265667
9.963292564
9.96324997
9.963240062
9.963348831
9.963313326
9.963227609
9.963265824
9.963310455
9.963264517
9.963292539
9.96324845
9.96324082
9.96334773
9.96331305
9.963227836
9.963265603
9.963311678
9.963263953
9.963292657
9.963248857
9.963239938
9.96334822
9.963312888
9.96322985
9.963266245
9.963312656
9.963264846
9.963291701
9.963249362
9.963240199
9.963348913
9.96331329
9.963230353
9.963266949
9.963312924
9.963263653
9.96329214
9.963248277
9.963241211
9.963348459
9.963313797
9.963230957
9.963267322
9.963313273
9.963263891
9.963292454
9.963249214
9.963240559
9.963348688
9.96331413
9.963231099
9.963265424
9.963313733
9.963263646
9.963291707
9.963248737
9.963240654
9.963348343
9.963313709
9.963231976
9.963264732
9.96331304
9.963263952
9.963291591
9.963248869
9.963241724
9.963347771
9.963315037
9.963231272
9.963264539
9.963312259
9.963263896
9.963292407
9.96324879
9.963241096
9.963346686
9.963315098
9.963231354
9.963263675
9.963312117
9.96326354
9.963291259
9.963249382
9.963241325
9.96334645
9.963314814
9.963231274
9.963264212
9.963312414
9.963264001
)
;
    }
    bottom
    {
        type            calculated;
        value           nonuniform List<scalar> 
127
(
9.963284938
9.963290605
9.963288207
9.963263351
9.963271857
9.96326417
9.963300389
9.963271717
9.963260711
9.963285504
9.963289719
9.9632877
9.963263225
9.963271458
9.963264595
9.963300456
9.963270314
9.963260453
9.963284568
9.963289266
9.963288651
9.963262844
9.963271508
9.963263091
9.963301109
9.963270042
9.963260852
9.963285208
9.963288668
9.963289073
9.96326203
9.963270604
9.963265321
9.963300922
9.963269586
9.963260319
9.963284846
9.963288887
9.963288321
9.963262221
9.96326986
9.963264382
9.963300853
9.963269998
9.963258866
9.963284535
9.963288774
9.963288426
9.963261886
9.963270054
9.963264987
9.963301247
9.963270888
9.963258722
9.963284739
9.963288651
9.963288088
9.963262688
9.963270121
9.963263075
9.963301221
9.963271024
9.963259139
9.963285224
9.963288523
9.963287622
9.963262933
9.963271091
9.963263671
9.963300592
9.963272054
9.963259443
9.963285242
9.963288205
9.963287743
9.963263319
9.963270144
9.963263224
9.963300434
9.963272776
9.963261193
9.963284427
9.963288253
9.963287171
9.963263335
9.963269612
9.963262414
9.963301875
9.963272056
9.963261142
9.963284861
9.963287937
9.963285649
9.963264723
9.963268705
9.96326194
9.963301144
9.963272493
9.963261265
9.963284808
9.963287977
9.963285423
9.963265191
9.96326789
9.963262635
9.963300542
9.963272265
9.963260706
9.963284341
9.963287129
9.963285663
9.963264418
9.963266257
9.963263002
9.963300871
9.963271573
9.963260253
9.963283919
9.963288366
9.963285845
9.963263973
9.96326702
9.96326487
9.963300394
9.963270658
9.963260988
9.963284621
)
;
    }
    side-walls
    {
        type            calculated;
        value           nonuniform List<scalar> 
261
(
9.963284938
9.963328532
9.963290419
9.963303695
9.963259974
9.963259657
9.963278025
9.963264631
9.963249653
9.963285504
9.963329364
9.963289622
9.963304398
9.963260578
9.963259829
9.963279686
9.963264718
9.963249725
9.963284568
9.96332897
9.963288636
9.963305374
9.963259464
9.963261664
9.963278422
9.963264533
9.963248626
9.963285208
9.963329138
9.963288917
9.963305179
9.963258382
9.963261631
9.963278607
9.963264634
9.963249443
9.963284846
9.963328773
9.963289535
9.963305671
9.963258437
9.963261231
9.96328022
9.963263438
9.963250054
9.963284535
9.96332825
9.963289289
9.963305054
9.96325943
9.963261156
9.963278779
9.963263286
9.96324997
9.963284739
9.963327911
9.963288381
9.96330571
9.963259517
9.963260745
9.963278264
9.963263776
9.96324845
9.963285224
9.963328099
9.963288813
9.963306346
9.96325913
9.963259338
9.96327845
9.963263534
9.963248857
9.963285242
9.963327655
9.963288273
9.963306416
9.963259691
9.963259639
9.963278049
9.963264086
9.963249362
9.963284427
9.963328758
9.963287313
9.963306352
9.963259456
9.963260359
9.963278083
9.963264332
9.963248277
9.963284861
9.963328785
9.963287135
9.963305865
9.963260194
9.963259758
9.963278971
9.96326334
9.963249214
9.963284808
9.963330643
9.963286965
9.963306988
9.963260518
9.963259715
9.963277377
9.963265235
9.963248737
9.963284341
9.96333044
9.963287921
9.963305982
9.963258054
9.963260376
9.963278373
9.963264682
9.963248869
9.963283919
9.963330793
9.96328712
9.963306101
9.963256951
9.963261017
9.963279004
9.963265162
9.96324879
9.963284621
9.963330579
9.96328757
9.963306388
9.963255983
9.963260754
9.963278916
9.963265312
9.963249382
9.963260711
9.963296118
9.963249599
9.963350043
9.963310288
9.963272452
9.963286802
9.96327532
9.963291022
9.963260453
9.963296495
9.963250685
9.963350011
9.963308985
9.963272676
9.963287285
9.963275817
9.96329141
9.963260852
9.963295234
9.963250297
9.963349346
9.963309013
9.96327365
9.963287112
9.963277476
9.963292239
9.963260319
9.963294637
9.963250289
9.963349498
9.963309633
9.963274388
9.963285921
9.963276077
9.963292428
9.963258866
9.963294207
9.963250051
9.963349071
9.963309812
9.963274334
9.963285918
9.963275816
9.963292564
9.963258722
9.963294102
9.963250205
9.963348078
9.963310229
9.963276023
9.963285673
9.963276033
9.963292539
9.963259139
9.963293931
9.963249425
9.963347936
9.963310808
9.963275457
9.963284789
9.963276437
9.963292657
9.963259443
9.963294111
9.963248886
9.963347862
9.963309669
9.963275002
9.963284533
9.963277692
9.963291701
9.963261193
9.963294688
9.963247947
9.963349319
9.963310593
9.963274044
9.963284617
9.963277322
9.96329214
9.963261142
9.963294972
9.963248801
9.963347605
9.963309608
9.963275093
9.963284485
9.963277017
9.963292454
9.963261265
9.963294511
9.963249106
9.963346697
9.963310369
9.963275623
9.96328515
9.963277037
9.963291707
9.963260706
9.963294706
9.963248826
9.963347435
9.963310301
9.963275034
9.963284606
9.963276998
9.963291591
9.963260253
9.963294304
9.963248364
9.963346845
9.963310725
9.963274753
9.963283913
9.963278094
9.963292407
9.963260988
9.963293653
9.963247361
9.963346993
9.963309657
9.963274749
9.963284542
9.963277634
9.963291259
)
;
    }
    inlet
    {
        type            calculated;
        value           nonuniform List<scalar> 
81
(
9.963284938
9.963328532
9.963290419
9.963303695
9.963259974
9.963259657
9.963278025
9.963264631
9.963249653
9.963290605
9.96327819
9.963202492
9.963303962
9.963238623
9.963342782
9.963210836
9.963314916
9.963239991
9.963288207
9.963329011
9.963304809
9.963281546
9.963326972
9.963318528
9.963272199
9.963234313
9.963349294
9.963263351
9.963240855
9.963306211
9.963239777
9.963212684
9.963313229
9.96327751
9.963360377
9.96331389
9.963271857
9.963305167
9.963297511
9.963254287
9.963310061
9.963257021
9.963254159
9.963244147
9.963227581
9.96326417
9.963290034
9.96325541
9.963307804
9.963244882
9.963281437
9.963293781
9.963257014
9.963265306
9.963300389
9.96323994
9.963295542
9.963270544
9.963277267
9.963242811
9.963256148
9.963304511
9.963310795
9.963271717
9.963302693
9.963246528
9.963288514
9.963247025
9.96329762
9.963291635
9.963315254
9.963266948
9.963260711
9.963296118
9.963249599
9.963350043
9.963310288
9.963272452
9.963286802
9.96327532
9.963291022
)
;
    }
    outlet
    {
        type            calculated;
        value           nonuniform 0();
    }
    procBoundary0to1
    {
        type            processor;
        value           nonuniform List<scalar> 
97
(
9.96328376
9.963287909
9.963331268
9.963287593
9.963305403
9.963256731
9.963259132
9.963280222
9.963265022
9.963249715
9.963287909
9.963287909
9.963274028
9.963329914
9.963207919
9.963302803
9.963234384
9.963340792
9.963212988
9.963318216
9.963240686
9.963284268
9.963329914
9.963329914
9.963307613
9.963307015
9.963280577
9.963326784
9.96331962
9.963264712
9.963234918
9.963346564
9.963263463
9.96324202
9.963307015
9.963307015
9.96323585
9.963256265
9.963216506
9.963317414
9.963273639
9.963361444
9.963315023
9.963267285
9.963306222
9.963295189
9.963256265
9.963256265
9.984912542
9.963252079
9.963257822
9.963281026
9.96325313
9.963251718
9.963231184
9.963264449
9.963289711
9.96325362
9.963303331
9.963252079
9.963281026
9.963281026
9.963292549
9.963257801
9.963256965
9.963264447
9.963299451
9.963237776
9.963292622
9.963274494
9.96327631
9.963239649
9.963257801
9.963257801
9.963300519
9.96330925
9.963312792
9.963270788
9.963301285
9.963243794
9.963288917
9.963245002
9.963293462
9.963295212
9.96330925
9.96330925
9.963263884
9.963291753
9.963260493
9.963294523
9.963247084
9.963345898
9.963310746
9.963274107
9.963283903
9.963278112
9.963291753
)
;
    }
}


// ************************************************************************* //
