/*--------------------------------*- C++ -*----------------------------------*\
| =========                 |                                                 |
| \\      /  F ield         | OpenFOAM: The Open Source CFD Toolbox           |
|  \\    /   O peration     | Version:  4.x                                   |
|   \\  /    A nd           | Web:      www.OpenFOAM.org                      |
|    \\/     M anipulation  |                                                 |
\*---------------------------------------------------------------------------*/
FoamFile
{
    version     2.0;
    format      ascii;
    class       volScalarField;
    location    "11000";
    object      N2;
}
// * * * * * * * * * * * * * * * * * * * * * * * * * * * * * * * * * * * * * //

dimensions      [0 0 0 0 0 0 0];

internalField   nonuniform List<scalar> 
1175
(
0.6215293955
0.6215293951
0.6215293954
0.6215293957
0.6215293957
0.6215293958
0.621529396
0.6215293955
0.6215293951
0.6215293935
0.6215293886
0.6215293763
0.621529346
0.6215292792
0.6215291475
0.6215293954
0.6215293952
0.6215293956
0.6215293958
0.6215293957
0.6215293956
0.6215293955
0.6215293952
0.6215293946
0.6215293924
0.6215293848
0.6215293643
0.6215293133
0.621529197
0.6215289687
0.6215293953
0.6215293956
0.6215293956
0.6215293954
0.6215293953
0.6215293951
0.6215293954
0.6215293945
0.6215293935
0.62152939
0.621529377
0.6215293401
0.6215292425
0.6215290158
0.6215285676
0.6215293952
0.6215293956
0.6215293953
0.6215293952
0.6215293955
0.6215293955
0.6215293953
0.6215293949
0.6215293929
0.6215293872
0.6215293672
0.6215293074
0.6215291442
0.6215287492
0.6215279641
0.6215293952
0.621529395
0.6215293951
0.6215293952
0.6215293954
0.6215293949
0.6215293951
0.6215293943
0.621529392
0.6215293852
0.6215293619
0.6215292881
0.6215290792
0.6215285594
0.6215275113
0.6215293955
0.6215293951
0.621529395
0.6215293948
0.6215293947
0.6215293947
0.6215293948
0.6215293942
0.6215293929
0.6215293868
0.6215293671
0.6215293078
0.6215291442
0.6215287495
0.6215279643
0.6215293952
0.6215293952
0.6215293955
0.6215293955
0.6215293952
0.6215293951
0.6215293954
0.6215293949
0.6215293939
0.6215293898
0.6215293772
0.6215293401
0.6215292427
0.6215290155
0.6215285675
0.6215293953
0.6215293954
0.6215293955
0.6215293956
0.6215293958
0.6215293955
0.6215293956
0.6215293953
0.6215293944
0.6215293921
0.621529385
0.6215293642
0.6215293129
0.6215291969
0.6215289681
0.6215293953
0.6215293957
0.6215293956
0.6215293957
0.6215293956
0.6215293955
0.6215293957
0.6215293954
0.6215293949
0.6215293931
0.6215293884
0.6215293762
0.621529346
0.621529279
0.6215291472
0.6215293951
0.6215293954
0.6215293956
0.6215293955
0.621529395
0.6215293952
0.6215293952
0.6215293954
0.6215293944
0.6215293924
0.6215293846
0.6215293641
0.6215293131
0.6215291968
0.6215293954
0.6215293953
0.6215293954
0.6215293956
0.6215293958
0.6215293953
0.6215293955
0.6215293954
0.621529394
0.6215293902
0.6215293774
0.6215293406
0.6215292417
0.6215290121
0.6215285568
0.6215293959
0.6215293957
0.6215293954
0.6215293953
0.6215293952
0.621529395
0.6215293953
0.6215293946
0.6215293925
0.6215293853
0.6215293613
0.6215292856
0.6215290717
0.6215285458
0.6215274939
0.6215293953
0.6215293953
0.6215293956
0.6215293949
0.6215293951
0.6215293954
0.6215293949
0.6215293943
0.6215293915
0.6215293795
0.6215293392
0.6215292031
0.621528791
0.6215277138
0.6215255087
0.6215293954
0.6215293949
0.6215293959
0.6215293955
0.6215293957
0.6215293953
0.6215293948
0.6215293941
0.6215293904
0.6215293766
0.621529325
0.621529144
0.62152856
0.6215269293
0.621523434
0.6215293955
0.6215293953
0.6215293958
0.6215293954
0.6215293952
0.6215293949
0.621529395
0.6215293943
0.6215293911
0.6215293795
0.621529339
0.6215292033
0.6215287915
0.6215277144
0.6215255092
0.6215293955
0.6215293955
0.6215293952
0.6215293953
0.6215293952
0.621529395
0.6215293947
0.6215293947
0.6215293929
0.6215293853
0.6215293605
0.6215292853
0.6215290714
0.6215285456
0.621527494
0.6215293958
0.6215293958
0.6215293958
0.6215293955
0.6215293955
0.6215293956
0.6215293955
0.6215293947
0.6215293941
0.6215293899
0.6215293772
0.6215293402
0.621529242
0.6215290116
0.6215285567
0.6215293952
0.6215293955
0.6215293957
0.6215293955
0.6215293955
0.6215293955
0.6215293956
0.621529395
0.6215293943
0.6215293918
0.6215293849
0.6215293644
0.6215293131
0.6215291971
0.6215289686
0.6215293955
0.6215293954
0.6215293953
0.6215293954
0.6215293959
0.6215293957
0.6215293952
0.6215293949
0.6215293934
0.6215293897
0.6215293771
0.62152934
0.6215292426
0.6215290156
0.6215293952
0.6215293956
0.6215293956
0.6215293956
0.6215293957
0.6215293957
0.6215293957
0.6215293949
0.6215293924
0.6215293855
0.6215293612
0.6215292857
0.6215290714
0.621528545
0.6215293959
0.6215293954
0.6215293953
0.6215293949
0.6215293952
0.6215293955
0.6215293954
0.6215293942
0.6215293909
0.6215293762
0.6215293244
0.6215291483
0.6215286045
0.6215271638
0.621524201
0.621529396
0.6215293956
0.6215293953
0.6215293953
0.6215293953
0.6215293951
0.6215293948
0.621529393
0.6215293875
0.6215293629
0.6215292665
0.6215289077
0.6215276831
0.6215240862
0.6215161921
0.6215293955
0.6215293955
0.6215293951
0.6215293954
0.6215293953
0.6215293954
0.6215293949
0.6215293931
0.6215293854
0.6215293541
0.6215292228
0.6215286946
0.6215267007
0.6215200474
0.6215034853
0.6215293956
0.6215293951
0.6215293947
0.6215293951
0.6215293952
0.6215293952
0.6215293946
0.6215293935
0.6215293873
0.6215293629
0.6215292666
0.6215289076
0.621527683
0.6215240867
0.6215161931
0.6215293951
0.6215293953
0.6215293953
0.6215293954
0.6215293952
0.6215293953
0.6215293952
0.6215293942
0.6215293901
0.6215293758
0.6215293242
0.6215291482
0.6215286043
0.6215271643
0.6215242018
0.6215293953
0.6215293953
0.6215293953
0.6215293952
0.6215293953
0.6215293956
0.6215293952
0.6215293946
0.6215293921
0.6215293853
0.6215293612
0.6215292858
0.6215290708
0.6215285447
0.6215274931
0.6215293952
0.6215293955
0.6215293957
0.6215293954
0.6215293957
0.6215293952
0.6215293954
0.6215293951
0.6215293939
0.6215293898
0.6215293771
0.6215293399
0.6215292426
0.6215290156
0.6215285672
0.6215293957
0.6215293955
0.6215293956
0.621529396
0.6215293957
0.6215293955
0.6215293952
0.6215293946
0.6215293932
0.6215293871
0.6215293674
0.6215293078
0.6215291445
0.6215287498
0.6215293953
0.6215293955
0.6215293956
0.6215293957
0.6215293956
0.6215293958
0.6215293953
0.6215293939
0.6215293912
0.6215293805
0.6215293391
0.6215292034
0.6215287908
0.6215277136
0.6215293961
0.6215293957
0.6215293952
0.6215293953
0.621529396
0.6215293953
0.6215293951
0.6215293937
0.6215293875
0.621529363
0.6215292663
0.6215289078
0.6215276834
0.6215240851
0.6215293957
0.6215293957
0.6215293956
0.6215293952
0.6215293953
0.6215293952
0.6215293948
0.6215293924
0.6215293821
0.6215293366
0.6215291378
0.621528302
0.621524998
0.6215135177
0.6214841577
0.6215293956
0.6215293956
0.6215293954
0.6215293952
0.6215293954
0.6215293952
0.6215293945
0.6215293918
0.6215293789
0.6215293167
0.6215290219
0.6215276257
0.6215211217
0.6214927467
0.6213942486
0.6215293953
0.6215293956
0.6215293953
0.6215293954
0.6215293952
0.6215293952
0.6215293948
0.6215293926
0.6215293821
0.6215293362
0.6215291376
0.6215283015
0.6215249977
0.621513519
0.6214841646
0.6215293948
0.6215293953
0.621529395
0.621529395
0.6215293949
0.6215293954
0.6215293952
0.6215293937
0.6215293871
0.6215293629
0.6215292667
0.6215289078
0.6215276834
0.6215240868
0.6215161931
0.6215293955
0.6215293958
0.6215293962
0.6215293955
0.6215293953
0.6215293949
0.6215293948
0.6215293944
0.6215293913
0.6215293799
0.6215293388
0.6215292028
0.6215287908
0.6215277145
0.6215255088
0.6215293955
0.6215293955
0.6215293955
0.6215293956
0.6215293954
0.6215293953
0.6215293952
0.621529395
0.6215293934
0.6215293869
0.6215293673
0.6215293077
0.6215291439
0.6215287496
0.621527964
0.6215293951
0.6215293953
0.6215293956
0.6215293957
0.6215293955
0.6215293954
0.621529395
0.6215293946
0.6215293929
0.6215293851
0.621529362
0.6215292886
0.621529079
0.6215285591
0.6215293955
0.6215293955
0.6215293958
0.6215293959
0.6215293957
0.6215293958
0.6215293951
0.6215293938
0.6215293899
0.6215293763
0.6215293246
0.6215291433
0.6215285593
0.6215269278
0.6215293952
0.621529395
0.6215293951
0.6215293955
0.6215293954
0.6215293956
0.6215293948
0.6215293931
0.621529386
0.6215293547
0.621529223
0.6215286952
0.6215267003
0.6215200449
0.6215293952
0.621529395
0.621529395
0.621529395
0.621529395
0.621529395
0.6215293944
0.621529392
0.6215293783
0.6215293161
0.6215290216
0.6215276253
0.6215211203
0.621492738
0.6215293956
0.6215293949
0.6215293949
0.6215293949
0.6215293955
0.6215293952
0.6215293944
0.6215293907
0.6215293734
0.6215292837
0.6215288069
0.6215261066
0.6215097676
0.6214034295
0.6206555784
0.6215293952
0.6215293954
0.6215293955
0.6215293956
0.6215293959
0.6215293957
0.6215293945
0.6215293917
0.6215293782
0.6215293165
0.6215290217
0.6215276258
0.6215211213
0.6214927454
0.6213942475
0.621529395
0.6215293955
0.6215293953
0.6215293958
0.6215293959
0.6215293955
0.6215293952
0.6215293933
0.6215293858
0.6215293536
0.6215292224
0.6215286947
0.6215267004
0.6215200478
0.6215034852
0.621529396
0.6215293959
0.6215293954
0.6215293955
0.6215293958
0.6215293954
0.6215293953
0.6215293942
0.6215293905
0.6215293764
0.6215293244
0.6215291433
0.6215285601
0.6215269289
0.6215234339
0.6215293956
0.6215293955
0.6215293953
0.6215293956
0.6215293957
0.6215293956
0.6215293955
0.6215293947
0.621529392
0.6215293855
0.6215293619
0.6215292883
0.621529079
0.6215285589
0.6215275106
0.6215293952
0.6215293954
0.6215293955
0.6215293955
0.6215293951
0.621529395
0.621529395
0.6215293945
0.6215293932
0.6215293868
0.6215293677
0.621529308
0.6215291444
0.6215287501
0.6215293955
0.6215293955
0.6215293955
0.6215293953
0.6215293955
0.6215293955
0.6215293949
0.6215293943
0.621529391
0.6215293796
0.6215293391
0.6215292031
0.6215287911
0.6215277138
0.6215293957
0.6215293951
0.6215293955
0.6215293956
0.6215293952
0.6215293951
0.6215293945
0.6215293933
0.6215293873
0.6215293627
0.6215292669
0.6215289078
0.6215276832
0.6215240853
0.6215293952
0.621529395
0.6215293952
0.6215293953
0.6215293951
0.6215293952
0.6215293945
0.6215293921
0.6215293817
0.6215293363
0.6215291376
0.6215283017
0.6215249974
0.6215135146
0.6215293952
0.6215293953
0.6215293949
0.6215293951
0.6215293951
0.6215293954
0.6215293946
0.6215293915
0.6215293784
0.6215293165
0.6215290217
0.6215276257
0.62152112
0.6214927366
0.621529395
0.6215293955
0.6215293955
0.6215293955
0.6215293949
0.6215293952
0.6215293951
0.6215293926
0.6215293822
0.6215293367
0.6215291382
0.6215283023
0.6215249973
0.6215135156
0.6215293957
0.6215293957
0.6215293955
0.6215293954
0.6215293948
0.6215293953
0.6215293949
0.6215293937
0.6215293877
0.6215293625
0.6215292665
0.621528908
0.6215276837
0.6215240856
0.6215161905
0.6215293955
0.6215293956
0.6215293955
0.6215293954
0.6215293954
0.6215293954
0.6215293952
0.6215293945
0.6215293915
0.6215293798
0.6215293389
0.6215292027
0.6215287911
0.6215277146
0.6215255086
0.6215293955
0.6215293956
0.6215293959
0.6215293955
0.6215293957
0.621529395
0.6215293949
0.6215293945
0.6215293928
0.6215293869
0.6215293675
0.621529308
0.6215291442
0.6215287497
0.6215279646
0.6215293957
0.6215293954
0.6215293958
0.621529396
0.6215293961
0.6215293959
0.6215293958
0.6215293951
0.621529394
0.6215293898
0.6215293771
0.6215293403
0.6215292426
0.6215290159
0.6215293954
0.6215293953
0.6215293953
0.6215293954
0.6215293953
0.6215293954
0.6215293956
0.6215293948
0.6215293926
0.6215293852
0.6215293612
0.621529285
0.6215290713
0.6215285454
0.6215293952
0.6215293951
0.6215293955
0.6215293954
0.6215293953
0.6215293955
0.6215293952
0.6215293944
0.6215293907
0.6215293762
0.6215293245
0.621529148
0.6215286044
0.6215271635
0.6215293959
0.6215293955
0.6215293955
0.6215293952
0.6215293954
0.6215293955
0.6215293951
0.6215293936
0.6215293872
0.621529363
0.6215292665
0.6215289079
0.6215276834
0.6215240849
0.6215293957
0.6215293952
0.6215293953
0.6215293952
0.6215293952
0.6215293952
0.6215293951
0.6215293935
0.6215293859
0.6215293543
0.6215292231
0.6215286952
0.6215267005
0.6215200454
0.6215293952
0.6215293952
0.6215293952
0.6215293952
0.6215293949
0.6215293952
0.6215293953
0.6215293936
0.6215293876
0.6215293633
0.6215292667
0.6215289085
0.6215276837
0.6215240855
0.6215293955
0.6215293956
0.6215293955
0.6215293951
0.6215293952
0.6215293954
0.6215293953
0.621529394
0.6215293905
0.6215293763
0.6215293239
0.6215291483
0.6215286047
0.6215271637
0.6215293955
0.6215293956
0.6215293952
0.6215293953
0.6215293954
0.6215293955
0.6215293956
0.6215293949
0.6215293929
0.6215293856
0.621529361
0.6215292858
0.6215290716
0.6215285452
0.6215274937
0.6215293953
0.6215293954
0.6215293955
0.6215293953
0.6215293954
0.6215293958
0.6215293955
0.6215293947
0.6215293935
0.6215293896
0.6215293764
0.6215293395
0.6215292423
0.6215290157
0.6215285676
0.6215293952
0.6215293955
0.6215293958
0.6215293958
0.621529396
0.6215293961
0.6215293961
0.6215293956
0.6215293946
0.6215293922
0.6215293849
0.6215293643
0.6215293129
0.6215291972
0.6215293951
0.6215293953
0.6215293954
0.6215293957
0.6215293957
0.6215293954
0.6215293951
0.621529395
0.6215293938
0.6215293898
0.6215293777
0.6215293407
0.6215292421
0.6215290121
0.6215293949
0.6215293951
0.6215293953
0.6215293954
0.6215293958
0.6215293957
0.621529395
0.6215293945
0.6215293927
0.621529385
0.6215293612
0.6215292856
0.621529072
0.6215285459
0.6215293954
0.6215293951
0.6215293957
0.6215293956
0.6215293957
0.6215293956
0.6215293954
0.6215293949
0.6215293916
0.6215293798
0.6215293388
0.621529203
0.6215287909
0.6215277139
0.6215293957
0.6215293955
0.6215293955
0.6215293955
0.6215293957
0.6215293955
0.6215293953
0.6215293946
0.6215293909
0.621529377
0.6215293249
0.6215291435
0.6215285601
0.621526928
0.6215293956
0.6215293955
0.6215293953
0.6215293955
0.6215293956
0.6215293954
0.6215293953
0.6215293946
0.6215293916
0.6215293803
0.6215293391
0.6215292034
0.6215287913
0.6215277144
0.6215293952
0.6215293954
0.6215293955
0.6215293957
0.6215293954
0.6215293953
0.6215293953
0.6215293945
0.6215293925
0.6215293857
0.6215293615
0.6215292858
0.6215290717
0.621528545
0.6215293954
0.6215293954
0.6215293949
0.6215293953
0.6215293953
0.6215293954
0.6215293954
0.621529395
0.6215293934
0.6215293896
0.6215293769
0.6215293402
0.6215292419
0.6215290116
0.6215293953
0.6215293951
0.621529395
0.6215293952
0.6215293952
0.6215293954
0.6215293957
0.6215293953
0.6215293944
0.621529392
0.6215293845
0.6215293642
0.6215293131
0.6215291974
0.6215289686
0.6215293953
0.6215293955
0.6215293959
0.6215293955
0.6215293959
0.6215293958
0.6215293959
0.6215293954
0.6215293947
0.6215293929
0.6215293884
0.6215293761
0.621529346
0.6215292795
0.6215293952
0.6215293956
0.6215293954
0.6215293958
0.6215293956
0.6215293959
0.6215293955
0.6215293951
0.6215293939
0.621529392
0.6215293846
0.6215293642
0.621529313
0.621529197
0.6215293954
0.6215293951
0.6215293954
0.6215293957
0.6215293957
0.6215293956
0.6215293956
0.6215293953
0.6215293937
0.6215293899
0.6215293765
0.6215293398
0.6215292426
0.6215290159
0.6215293956
0.6215293954
0.6215293956
0.6215293953
0.6215293951
0.6215293958
0.6215293953
0.6215293949
0.6215293929
0.6215293871
0.6215293674
0.6215293076
0.6215291443
0.6215287496
0.6215293955
0.6215293959
0.6215293957
0.6215293955
0.6215293955
0.6215293956
0.6215293951
0.6215293949
0.6215293929
0.6215293859
0.6215293621
0.6215292887
0.6215290792
0.6215285592
0.6215293956
0.6215293958
0.6215293956
0.6215293959
0.6215293955
0.6215293952
0.621529395
0.6215293948
0.6215293931
0.6215293871
0.6215293676
0.6215293079
0.6215291445
0.6215287499
0.6215293955
0.6215293955
0.6215293952
0.6215293953
0.6215293957
0.6215293957
0.6215293955
0.621529395
0.6215293942
0.6215293898
0.621529377
0.6215293402
0.6215292425
0.6215290156
0.6215293956
0.6215293961
0.6215293953
0.6215293956
0.6215293958
0.6215293954
0.6215293954
0.6215293952
0.621529394
0.621529392
0.6215293848
0.6215293646
0.6215293133
0.6215291972
0.6215293957
0.6215293954
0.6215293953
0.6215293953
0.6215293952
0.6215293954
0.6215293958
0.6215293956
0.6215293949
0.6215293931
0.6215293884
0.6215293761
0.6215293458
0.6215292792
)
;

boundaryField
{
    top
    {
        type            zeroGradient;
    }
    bottom
    {
        type            zeroGradient;
    }
    side-walls
    {
        type            zeroGradient;
    }
    inlet
    {
        type            zeroGradient;
    }
    outlet
    {
        type            zeroGradient;
    }
    procBoundary0to1
    {
        type            processor;
        value           nonuniform List<scalar> 
97
(
0.6215289184
0.6215289685
0.6215285817
0.6215278373
0.6215267455
0.6215259649
0.6215267456
0.6215278372
0.6215285811
0.6215289174
0.6215289685
0.6215289685
0.6215278219
0.6215274934
0.6215259073
0.6215224981
0.6215192761
0.6215224978
0.6215259067
0.6215278212
0.6215285812
0.6215285675
0.6215274934
0.6215274934
0.6215202403
0.62151619
0.621507613
0.6214910437
0.6215076138
0.6215202408
0.6215259068
0.6215278373
0.6215279643
0.6215255085
0.62151619
0.62151619
0.6214642474
0.6213942173
0.6213789865
0.6214642497
0.6215076133
0.6215224978
0.6215267453
0.621527511
0.6215234327
0.6215034813
0.6213942173
0.6213942173
0.6210115612
0.6213942177
0.6213789865
0.6214841574
0.6214910437
0.6215192756
0.6215259642
0.6215279644
0.6215255086
0.6215161912
0.6214841582
0.6213942177
0.6214841574
0.6214841574
0.6215076128
0.6215242011
0.6215224976
0.6215267454
0.6215285678
0.6215274941
0.6215242011
0.6215161917
0.6215034809
0.6215161916
0.6215242011
0.6215242011
0.6215259073
0.621528557
0.6215278372
0.6215289686
0.6215285575
0.6215274943
0.6215255086
0.6215234329
0.6215255089
0.6215274932
0.621528557
0.621528557
0.6215285816
0.6215291476
0.6215291475
0.6215289686
0.6215285684
0.6215279645
0.621527511
0.6215279641
0.6215285675
0.6215289691
0.6215291476
)
;
    }
}


// ************************************************************************* //
