/*--------------------------------*- C++ -*----------------------------------*\
| =========                 |                                                 |
| \\      /  F ield         | OpenFOAM: The Open Source CFD Toolbox           |
|  \\    /   O peration     | Version:  4.x                                   |
|   \\  /    A nd           | Web:      www.OpenFOAM.org                      |
|    \\/     M anipulation  |                                                 |
\*---------------------------------------------------------------------------*/
FoamFile
{
    version     2.0;
    format      ascii;
    class       surfaceScalarField;
    location    "11000";
    object      phi;
}
// * * * * * * * * * * * * * * * * * * * * * * * * * * * * * * * * * * * * * //

dimensions      [1 0 -1 0 0 0 0];

internalField   nonuniform List<scalar> 
3175
(
9.497838056e-06
1.252552727e-13
2.899762129e-13
9.497838246e-06
1.896975368e-13
-3.688175142e-13
9.497837578e-06
2.135343492e-13
-2.514079929e-12
9.497838432e-06
-2.530502129e-13
2.316818708e-14
9.497841268e-06
-6.9518884e-13
-1.99504603e-13
9.497840756e-06
-1.111767797e-12
-9.143022021e-13
9.49784389e-06
-1.061973018e-12
3.84182274e-13
9.497844978e-06
-1.497490675e-12
-1.475948688e-12
9.497851983e-06
-1.116115428e-12
-1.673057541e-13
9.497859316e-06
-2.168381421e-12
-2.983816286e-12
9.497868511e-06
-3.83149676e-12
-4.509161674e-12
9.497882475e-06
-6.994341742e-12
-6.910362457e-12
9.497898842e-06
-1.052979247e-11
-8.862140869e-12
9.497915993e-06
-1.010459611e-11
-9.01730472e-12
-1.77056149e-11
9.497879305e-06
9.054447683e-13
1.085225075e-13
9.497879795e-06
-1.325245507e-12
-5.483434411e-13
9.497879924e-06
-1.801191836e-12
-1.883498938e-12
9.497879836e-06
5.099875435e-13
-1.136929331e-12
9.49788186e-06
1.47569123e-12
-8.303541816e-13
9.497880061e-06
-4.835492182e-13
-1.059595206e-12
9.497882081e-06
-1.494838464e-12
-7.495446505e-13
9.497884782e-06
-3.135197597e-12
-1.08196688e-12
9.497889984e-06
-3.036538406e-12
-7.536263795e-13
9.497898907e-06
-4.146166802e-12
-3.253491444e-12
9.497909089e-06
-6.549802319e-12
-3.35680986e-12
9.497924229e-06
-1.256789719e-11
-8.192867988e-12
9.497942894e-06
-1.720831504e-11
-1.040603476e-11
9.497961915e-06
-1.837015011e-11
-1.150165705e-11
-3.502695128e-11
-2.587574899e-11
9.497841143e-06
-1.932613822e-12
-2.349810667e-13
9.49784151e-06
-5.135941377e-13
8.234674653e-13
9.497843089e-06
-7.62278872e-13
1.018942411e-12
9.497840871e-06
-6.28874415e-14
-3.455477636e-13
9.497840542e-06
-1.341141221e-12
3.498978374e-13
9.497841999e-06
-1.225786845e-12
-3.464533133e-13
9.49784396e-06
-1.211266206e-12
6.871680667e-13
9.497845467e-06
-5.522828408e-13
-1.197385274e-12
9.497849529e-06
-1.895596952e-12
-2.163066497e-12
9.497853686e-06
-4.560202058e-12
-5.950901374e-12
9.497859694e-06
-7.10723255e-12
-8.559942667e-12
9.497874339e-06
-1.221189462e-11
-1.614975166e-11
9.497893977e-06
-1.659301439e-11
-1.779485677e-11
9.497920175e-06
-1.881263878e-11
-2.759711106e-11
-4.205909465e-11
-6.222354241e-11
9.497855701e-06
-8.268308372e-13
-2.711554469e-13
9.497856741e-06
2.827658755e-13
-5.248169991e-14
9.497858502e-06
-3.285088583e-13
8.606921094e-14
9.497855635e-06
-1.612229474e-12
-1.518497298e-12
9.497858285e-06
-1.362589253e-12
2.334123183e-13
9.497857823e-06
3.666556048e-13
-1.011946274e-12
9.497861124e-06
1.078529236e-13
8.668927299e-14
9.497861372e-06
-7.105322609e-13
-2.082223344e-12
9.497865326e-06
-9.324514924e-13
-2.272296994e-12
9.497869903e-06
-2.465443755e-12
-6.505143802e-12
9.497876118e-06
-6.180860776e-12
-7.331867136e-12
9.49789406e-06
-1.232791113e-11
-1.788172665e-11
9.497913926e-06
-1.872916703e-11
-1.527773985e-11
9.497944459e-06
-2.955130732e-11
-3.105809045e-11
-4.498574035e-11
-8.35888674e-11
9.497814791e-06
2.120551697e-13
5.032985796e-14
9.497812741e-06
-4.0039295e-13
3.951504728e-14
9.497813739e-06
-6.159082483e-14
-1.694992157e-13
9.497812698e-06
-7.261184666e-13
-1.15170417e-12
9.497813398e-06
1.928529468e-13
-3.635881864e-13
9.497812501e-06
-6.720046331e-13
-2.029301146e-12
9.497813752e-06
3.161503915e-13
-2.067579736e-12
9.497815018e-06
1.172287971e-12
-4.359950272e-12
9.497814728e-06
2.457345887e-12
-4.841005747e-12
9.497816017e-06
3.696704276e-12
-1.042154382e-11
9.497818704e-06
5.657592446e-12
-1.32038882e-11
9.497829535e-06
1.293533894e-11
-3.915294183e-11
9.497835771e-06
1.815200105e-11
-4.310424806e-11
9.497893486e-06
2.537577012e-11
-1.175756359e-10
4.247334538e-11
-2.411738473e-10
9.497813969e-06
6.785141865e-13
5.488959373e-13
9.497812178e-06
9.264468647e-13
-8.84409972e-14
9.497815437e-06
-9.722339291e-14
2.33275771e-13
9.497815912e-06
-1.607871912e-12
-5.47299903e-13
9.497812668e-06
-2.832899078e-12
-1.778142798e-12
9.497816129e-06
3.17853002e-13
-8.835130782e-13
9.497816e-06
5.099569793e-13
-1.498011434e-12
9.497817879e-06
6.817539929e-13
-3.819172948e-12
9.49782021e-06
1.717762019e-12
-2.927127937e-12
9.497824899e-06
3.453768462e-12
-6.534829533e-12
9.497832926e-06
5.872627787e-12
-6.440328412e-12
9.497849902e-06
1.186067527e-11
-1.875994457e-11
9.497866423e-06
1.429493999e-11
-1.639708819e-11
9.497904032e-06
1.951222536e-11
-2.85501104e-11
4.197951872e-11
-8.219536339e-11
9.49783145e-06
-2.778516773e-13
-6.592570055e-13
9.497830724e-06
3.893850844e-14
-1.492701076e-12
9.497830856e-06
6.715148397e-13
-4.546964065e-14
9.497833405e-06
-7.036515711e-14
1.677764638e-13
9.497835045e-06
5.819329474e-13
5.503505662e-13
9.497832973e-06
1.001804849e-12
-1.22671304e-12
9.497834066e-06
7.721799552e-13
-1.960433473e-12
9.497836645e-06
3.597509986e-12
-2.022606298e-12
9.497839458e-06
3.563478944e-12
-2.074462655e-12
9.497845171e-06
6.262299281e-12
-4.38098577e-12
9.497852907e-06
7.749230075e-12
-4.530137393e-12
9.497864492e-06
1.126647721e-11
-1.485350162e-11
9.497884578e-06
1.672042878e-11
-1.864653675e-11
9.497913632e-06
1.808213923e-11
-2.680999095e-11
3.514004092e-11
-6.219122499e-11
9.497817698e-06
7.634813912e-13
8.26592595e-13
9.497817406e-06
-1.239144662e-13
5.292969007e-13
9.497816463e-06
3.252727922e-13
-1.277359758e-12
9.497819107e-06
9.768546897e-13
-7.346653489e-13
9.49782044e-06
1.54897618e-12
9.445602559e-13
9.497819174e-06
1.268257607e-13
-4.638068081e-14
9.497825315e-06
3.138317322e-12
-1.062587692e-12
9.49782441e-06
2.308511306e-12
-2.762558914e-12
9.497830568e-06
3.036523593e-12
-2.934948786e-12
9.497835895e-06
3.640953716e-12
-4.17888672e-12
9.497844946e-06
4.671616264e-12
-4.382063219e-12
9.497859823e-06
7.740531342e-12
-8.484044362e-12
9.497879932e-06
1.11141575e-11
-1.084943575e-11
9.49789944e-06
1.061708461e-11
-1.141399521e-11
1.705948834e-11
-2.594044452e-11
9.497803022e-06
1.038537896e-12
9.497804298e-06
7.665922539e-13
9.497803491e-06
-2.531739166e-12
9.497804964e-06
-1.001217087e-12
9.497805745e-06
-9.397834482e-14
9.497810492e-06
1.005958369e-12
9.497810024e-06
-1.085187428e-12
9.49781191e-06
-2.221778511e-12
9.497816698e-06
-2.501533031e-12
9.49782196e-06
-1.71451128e-12
9.497834085e-06
-2.794142328e-12
9.497846189e-06
-6.568224923e-12
9.4978661e-06
-1.011731177e-11
9.497882858e-06
-9.020889091e-12
-1.703909327e-11
9.497842506e-06
1.00276496e-14
-1.043347984e-12
9.497842207e-06
5.586687803e-13
-3.157120397e-14
9.497843724e-06
9.909779182e-13
-6.537206832e-13
9.497841097e-06
-1.238434343e-12
1.656909198e-13
9.497842359e-06
-1.073912591e-12
1.092665245e-13
9.497843961e-06
-4.017445159e-13
-8.364850624e-13
9.497844385e-06
-1.936615463e-12
-2.686183347e-12
9.497850013e-06
-7.397352351e-13
-2.887574654e-12
9.497850536e-06
-3.176276849e-12
-4.446073658e-12
9.497860466e-06
-4.155644163e-12
-5.67305375e-12
9.497867849e-06
-3.801311548e-12
-8.462248683e-12
9.497883941e-06
-8.205607702e-12
-1.309325976e-11
9.497899975e-06
-1.211628037e-11
-1.94249491e-11
-1.275453509e-11
-1.912625652e-11
9.497831984e-06
1.322748111e-12
-2.751227866e-13
9.497831158e-06
7.426615064e-14
7.501181815e-13
9.497830697e-06
9.869528991e-13
-3.006696118e-13
9.497831277e-06
8.110303295e-13
1.541070385e-13
9.497831974e-06
8.437863246e-13
3.062497646e-13
9.497832137e-06
-8.46518445e-14
-5.811440388e-13
9.497834157e-06
-4.517846187e-13
-9.581177224e-13
9.49783557e-06
-2.586883304e-12
-2.597165742e-12
9.497838565e-06
-3.169872333e-12
-3.165821361e-12
9.497848325e-06
-5.77944846e-12
-6.439911686e-12
9.497854397e-06
-1.025655744e-11
-1.075180144e-11
9.497871548e-06
-1.663733949e-11
-1.743333087e-11
9.497888632e-06
-2.049722529e-11
-2.159837263e-11
9.497916181e-06
-2.580251145e-11
-2.465252308e-11
-5.390456572e-11
9.497760039e-06
-1.062393478e-12
-9.083937102e-13
9.497760698e-06
-1.684428902e-12
-1.40355885e-12
9.497761131e-06
-1.201987087e-12
-4.378197546e-13
9.497760827e-06
2.256084441e-14
3.384213732e-13
9.497760333e-06
-2.671473684e-13
-3.202162331e-15
9.497762512e-06
-1.801009196e-12
2.70320453e-13
9.497762551e-06
-1.139788693e-12
-8.999801739e-13
9.497763803e-06
-2.10670752e-12
-3.6611012e-12
9.497766038e-06
-2.759892018e-12
-4.383003428e-12
9.497771118e-06
-6.606986784e-12
-1.001763136e-11
9.497778252e-06
-7.83493874e-12
-1.180617075e-11
9.497795904e-06
-1.775432718e-11
-3.072026415e-11
9.497808881e-06
-1.994424286e-11
-3.540667025e-11
9.497856835e-06
-3.11362533e-11
-6.09468859e-11
-7.71755498e-11
-1.385996941e-10
9.497854622e-06
-4.381637961e-13
-5.617332432e-13
9.497855816e-06
2.937101673e-13
4.47908675e-14
9.497856869e-06
3.159439093e-13
6.47542168e-13
9.497854755e-06
-1.387728799e-12
-6.920858758e-13
9.497854972e-06
-8.362443246e-13
-6.726428348e-13
9.49785599e-06
9.927705771e-14
-1.348149619e-12
9.497856021e-06
-1.25878368e-12
-2.14339209e-12
9.49785636e-06
-2.339508094e-12
-3.843177002e-12
9.49785853e-06
-2.534532815e-12
-4.502091231e-12
9.497861864e-06
-5.236124934e-12
-1.391998338e-11
9.497870116e-06
-8.173665576e-12
-1.069322548e-11
9.497894423e-06
-2.051415303e-11
-3.877969021e-11
9.497908512e-06
-2.93908423e-11
-2.658235411e-11
9.497972203e-06
-5.268001394e-11
-7.483712569e-11
-8.330200519e-11
-1.920056888e-10
9.497792809e-06
6.332587619e-14
-2.249879863e-14
9.497794588e-06
-3.669082358e-13
-3.161237829e-13
9.497795498e-06
-1.136168849e-13
-4.324630948e-13
9.497794873e-06
3.513498728e-13
1.153652287e-12
9.497793331e-06
-9.515298136e-13
-1.437420208e-13
9.497792784e-06
5.073720118e-13
-9.262524329e-13
9.497792719e-06
6.783877807e-15
-2.365759172e-12
9.497792404e-06
3.556129609e-13
-4.006322458e-12
9.497790332e-06
2.395842968e-12
-5.31278225e-12
9.497785245e-06
5.594685764e-12
-2.138041578e-11
9.497782107e-06
8.396098622e-12
-2.308471898e-11
9.497791066e-06
2.040541534e-11
-9.052767323e-11
9.497778891e-06
2.679916416e-11
-8.7450251e-11
9.497915658e-06
5.030665138e-11
-3.54115824e-10
8.152818448e-11
-6.66282195e-10
9.497891723e-06
-8.151352654e-13
2.886629561e-13
9.497892382e-06
-9.774301883e-13
3.241065157e-13
9.497892369e-06
-4.936849621e-14
7.77170656e-13
9.497891329e-06
-2.077641079e-13
1.786005612e-13
9.497890499e-06
5.437656195e-14
2.005426779e-13
9.497890503e-06
-4.800515791e-14
-1.407992349e-12
9.497892368e-06
8.635677315e-13
1.085318054e-13
9.497895463e-06
3.022576301e-12
-1.496311029e-12
9.497894275e-06
1.979276357e-12
-4.818518458e-12
9.497897098e-06
6.177008136e-12
-1.399947093e-11
9.497904186e-06
8.270984622e-12
-1.134843251e-11
9.497927476e-06
1.710786651e-11
-3.897618051e-11
9.497944615e-06
1.786686687e-11
-2.458469597e-11
9.498007749e-06
3.048905804e-11
-7.299356017e-11
7.687995857e-11
-1.893461174e-10
9.497765911e-06
8.455006359e-13
6.036896689e-13
9.497766974e-06
1.900607783e-12
5.271840506e-13
9.497764061e-06
-6.008464014e-13
-6.500206154e-13
9.497765896e-06
-3.552433513e-13
3.69247086e-14
9.497765905e-06
1.019930502e-12
-3.358300176e-13
9.497765962e-06
1.26603373e-12
-4.873653454e-13
9.497768902e-06
6.927339637e-13
-9.161929527e-13
9.497770056e-06
2.630926587e-12
-3.030475028e-12
9.497772116e-06
2.924751995e-12
-4.712392643e-12
9.497778301e-06
5.626741665e-12
-1.006647631e-11
9.497781933e-06
7.234521017e-12
-1.218545311e-11
9.497799711e-06
1.525295012e-11
-2.941553408e-11
9.497816844e-06
2.127589185e-11
-3.469815059e-11
9.497861915e-06
2.524658002e-11
-5.998407195e-11
5.400610146e-11
-1.367415259e-10
9.497867165e-06
1.064811352e-12
-2.659519899e-13
9.49786596e-06
8.441090277e-13
-7.382267778e-14
9.497866911e-06
2.251047477e-13
-3.748564418e-13
9.497868836e-06
7.101483355e-13
-1.099630803e-13
9.497868948e-06
-4.246194071e-13
1.410503948e-13
9.49786962e-06
5.569080025e-14
-1.135829962e-13
9.49787421e-06
9.816032046e-13
-1.936340111e-14
9.497873704e-06
1.76931427e-12
-2.517721747e-12
9.497878491e-06
3.303023024e-12
-2.99697218e-12
9.497885711e-06
5.119168315e-12
-6.487232629e-12
9.497892381e-06
6.078324547e-12
-8.416946139e-12
9.497910254e-06
9.005539653e-12
-1.579242873e-11
9.497928306e-06
1.151471548e-11
-2.041127056e-11
9.497956078e-06
1.322790043e-11
-2.331740707e-11
2.588017769e-11
-5.277166526e-11
9.497793526e-06
5.859926518e-14
9.49779314e-06
7.135564039e-14
9.497793571e-06
1.366572186e-14
9.497795361e-06
-3.414034907e-13
9.497796609e-06
-7.18071765e-13
9.497798114e-06
-7.275488646e-13
9.497800719e-06
-2.924429886e-13
9.497802958e-06
-2.080962311e-12
9.497807403e-06
-2.542851941e-12
9.497812942e-06
-6.359396658e-12
9.497822661e-06
-7.85204761e-12
9.497838897e-06
-1.093102905e-11
9.497857832e-06
-1.570944123e-11
9.49787769e-06
-1.810675587e-11
-3.28830739e-11
9.497840565e-06
2.280547591e-13
3.846461092e-13
9.497839723e-06
4.562158764e-13
5.267084785e-13
9.497842478e-06
9.473822081e-13
8.398466038e-13
9.49784229e-06
-7.518824477e-13
-7.952021367e-13
9.497842016e-06
-4.298107155e-13
-5.283339117e-13
9.497843246e-06
8.775840635e-13
1.130467988e-12
9.497843017e-06
-1.210603397e-12
8.725299942e-13
9.497846229e-06
-9.654401993e-13
-1.38395107e-12
9.497847731e-06
-1.392777695e-12
-3.20420435e-12
9.49785208e-06
-5.631673559e-12
-3.891948647e-12
9.497858385e-06
-6.946159462e-12
-6.105212244e-12
9.49787317e-06
-1.477326064e-11
-1.26707297e-11
9.497890918e-06
-1.929131185e-11
-1.758794804e-11
-2.800806236e-11
-2.23788374e-11
9.497879638e-06
7.299829015e-13
6.638120635e-14
9.497878001e-06
-1.340332574e-12
-1.045090896e-12
9.497879865e-06
9.715194757e-13
5.531348694e-13
9.497879236e-06
7.767016462e-13
-6.29244343e-13
9.497880628e-06
1.294764865e-13
-1.425524422e-12
9.497881605e-06
6.470503674e-13
-4.674730436e-13
9.497883542e-06
-2.647790719e-13
-1.512787556e-12
9.49788451e-06
-2.31046558e-12
-2.147388122e-12
9.497885852e-06
-3.631013628e-12
-1.762367718e-12
9.497890974e-06
-1.012843994e-11
-5.750588354e-12
9.497896343e-06
-1.261557807e-11
-7.527983106e-12
9.4979138e-06
-2.910479359e-11
-1.787931742e-11
9.49792889e-06
-3.378931625e-11
-2.048698362e-11
-6.183834071e-11
-3.345463506e-11
9.497855561e-06
-1.153628684e-12
-1.000312092e-13
9.497857525e-06
-8.869325469e-13
1.012947194e-12
9.497857347e-06
-1.204882139e-12
-1.053537889e-12
9.497856547e-06
-9.727108596e-13
-1.389417295e-12
9.497858507e-06
-6.769116039e-13
-1.214896731e-12
9.497858399e-06
-2.751930287e-12
-3.205910298e-12
9.497858656e-06
-2.395691241e-12
-2.389613122e-12
9.497858797e-06
-3.75391852e-12
-5.022344335e-12
9.497856907e-06
-4.729305685e-12
-4.290284259e-12
9.497859017e-06
-1.155548975e-11
-1.102790378e-11
9.497858063e-06
-1.05744617e-11
-1.200221747e-11
9.497872084e-06
-3.702562612e-11
-3.77208956e-11
9.497871857e-06
-3.707095581e-11
-3.680776086e-11
9.497963305e-06
-1.070431014e-10
-1.068949148e-10
-2.38962572e-10
9.497833665e-06
6.794301739e-13
4.767201479e-13
9.497833668e-06
8.198848509e-13
1.329351284e-12
9.497835031e-06
-9.900447643e-13
2.156361317e-13
9.497834473e-06
-2.410515284e-13
-2.222673133e-12
9.497833358e-06
-5.550886025e-13
-1.530017475e-12
9.497834223e-06
-5.025610257e-13
-2.579133784e-12
9.497834029e-06
-1.701349462e-12
-1.303828324e-12
9.497831553e-06
-2.049377473e-12
-4.691070866e-12
9.497828356e-06
-2.746440784e-12
-4.823199918e-12
9.497831647e-06
-9.335211978e-12
-1.419070444e-11
9.497830482e-06
-1.51659178e-11
-1.020049818e-11
9.497848716e-06
-4.545555313e-11
-5.358678772e-11
9.49785564e-06
-5.830479712e-11
-1.199258483e-11
9.498008822e-06
-1.577876242e-10
-1.736774473e-10
-2.549359299e-10
-4.046556105e-10
9.497878186e-06
-2.713768489e-13
-1.270207191e-14
9.497877156e-06
-6.249477844e-15
3.082284156e-13
9.497879072e-06
9.181891828e-13
5.041793667e-13
9.497876984e-06
-6.26737341e-13
-9.831397736e-13
9.497877332e-06
-1.332428482e-12
-1.227518017e-12
9.497876032e-06
-4.932279025e-13
-2.93500983e-12
9.49787592e-06
2.577080277e-12
-1.891944283e-12
9.497870936e-06
3.188784034e-12
-6.522656614e-12
9.497860272e-06
2.273379042e-12
-8.40482833e-12
9.497847614e-06
9.153800505e-12
-2.497368013e-11
9.497822728e-06
1.501967776e-11
-2.529587972e-11
9.497794401e-06
4.431111047e-11
-1.487886718e-10
9.497703672e-06
5.791214628e-11
-1.095777986e-10
9.498079581e-06
1.567104245e-10
-1.052220769e-09
2.55421036e-10
-1.859736758e-09
9.497869515e-06
-7.266048551e-14
9.879228875e-13
9.497870114e-06
-7.802591512e-13
-1.596035193e-13
9.497869141e-06
-2.001773382e-12
-7.622840757e-13
9.497870792e-06
-7.407716282e-13
1.053462873e-13
9.49787054e-06
3.629529808e-13
-3.32650677e-13
9.497872071e-06
1.671845061e-12
-1.640757135e-12
9.497870894e-06
6.933765943e-14
-3.588902445e-12
9.497869412e-06
1.743711222e-12
-5.784038309e-12
9.497866302e-06
3.055350751e-12
-6.245235382e-12
9.497868836e-06
1.172901436e-11
-1.351784075e-11
9.497867925e-06
1.197646871e-11
-9.040802209e-12
9.497886296e-06
3.684991284e-11
-5.197835168e-11
9.497892284e-06
3.503889226e-11
-1.220129012e-11
9.49804594e-06
1.058675436e-10
-1.735137823e-10
2.391042221e-10
-4.047287882e-10
9.497823756e-06
1.380938087e-13
1.034231564e-13
9.497825644e-06
1.750205697e-12
9.323505695e-13
9.49782458e-06
-9.220997125e-14
1.607030133e-12
9.497823091e-06
6.022353624e-13
-1.032306584e-13
9.497823383e-06
2.043300038e-12
-4.475433354e-13
9.497821572e-06
1.24876961e-12
-2.539609875e-12
9.497822129e-06
1.473593868e-12
-7.54968975e-13
9.49782039e-06
2.878477429e-12
-3.042200641e-12
9.497819745e-06
4.019336402e-12
-4.954933291e-12
9.497821628e-06
9.55263308e-12
-1.163105025e-11
9.497817685e-06
1.147701846e-11
-1.175701419e-11
9.497830032e-06
2.920475186e-11
-3.756665785e-11
9.497833528e-06
3.514991544e-11
-3.480127509e-11
9.497924819e-06
6.206338364e-11
-1.067391616e-10
1.381632974e-10
-2.404251669e-10
9.497788818e-06
1.182259481e-12
5.520834133e-14
9.497785686e-06
1.361746284e-12
-2.618264654e-13
9.497787777e-06
-2.504709827e-13
-2.209807853e-13
9.497790399e-06
3.459072452e-13
-9.832663645e-13
9.497788844e-06
-1.562487219e-12
-2.31640345e-12
9.497788628e-06
-2.7296665e-13
-1.891667593e-12
9.49779233e-06
1.267301622e-12
3.952741096e-13
9.497793272e-06
1.796271311e-12
-2.584221011e-12
9.497795288e-06
4.120811026e-12
-4.123216306e-12
9.497800876e-06
5.764499524e-12
-8.174318105e-12
9.497805798e-06
6.246710682e-12
-7.49379693e-12
9.497822048e-06
1.678719072e-11
-1.709334095e-11
9.497837049e-06
1.912192496e-11
-1.760307075e-11
9.497881008e-06
2.621315493e-11
-3.202668043e-11
6.122692937e-11
-7.892493299e-11
9.497897815e-06
-2.673498805e-13
9.497896528e-06
2.436856404e-13
9.497898001e-06
1.081974565e-12
9.497899961e-06
-3.830166665e-13
9.497898763e-06
-1.393771001e-12
9.497899543e-06
-2.73350495e-12
9.49790241e-06
-2.100983738e-12
9.497904381e-06
-3.318046978e-12
9.497906172e-06
-3.875586983e-12
9.497910813e-06
-6.310490097e-12
9.497919839e-06
-6.380130735e-12
9.497932721e-06
-1.260452394e-11
9.497948227e-06
-1.568061415e-11
9.497978384e-06
-1.969350593e-11
-4.34210515e-11
9.497817676e-06
4.788813058e-14
-3.758917641e-14
9.497814962e-06
-1.404528011e-12
-2.264597401e-12
9.497817361e-06
-2.490518473e-13
-1.506606042e-12
9.497817047e-06
2.872776769e-13
-7.216540203e-13
9.49781885e-06
-1.122875007e-12
4.288088765e-13
9.497817591e-06
-1.183395359e-12
-1.750031469e-12
9.497816497e-06
-2.530013371e-12
-1.062768646e-12
9.497821297e-06
-8.058307233e-13
2.998272852e-13
9.497825142e-06
-6.634271379e-13
-2.214802076e-12
9.497827806e-06
-6.830488194e-12
-3.640145541e-12
9.497835766e-06
-7.120364178e-12
-5.588320458e-12
9.497855017e-06
-1.764380661e-11
-1.330055018e-11
9.49787117e-06
-1.48996198e-11
-1.773268873e-11
-2.77748364e-11
-2.680053851e-11
9.497795603e-06
4.11578983e-13
-4.625148787e-13
9.497795307e-06
-3.614761604e-13
8.118733988e-14
9.497794066e-06
-8.460619579e-13
-5.941095189e-13
9.497794467e-06
4.302247779e-13
-2.346977308e-13
9.497796566e-06
6.284707933e-13
-1.162142627e-13
9.497794663e-06
-1.385930186e-12
-8.758670947e-13
9.497797816e-06
-1.033667185e-12
-7.783254718e-13
9.497797881e-06
-5.300550975e-12
-2.282166525e-12
9.497799792e-06
-5.260517822e-12
-3.590963019e-12
9.497803333e-06
-1.390226825e-11
-6.48668311e-12
9.497812165e-06
-1.181945151e-11
-7.41714085e-12
9.497834291e-06
-3.73887027e-11
-2.011214357e-11
9.497852082e-06
-2.415880756e-11
-2.755638368e-11
-7.2462151e-11
-5.230964865e-11
9.497858041e-06
-8.337948371e-13
-9.704283526e-13
9.497857588e-06
-1.36021494e-12
3.637480034e-13
9.497858671e-06
5.845115265e-14
1.246939195e-12
9.49785979e-06
-8.13547074e-13
1.823973797e-13
9.497858852e-06
-6.440078792e-13
-5.684912117e-13
9.49785898e-06
-2.331721951e-12
-1.210195822e-12
9.497859084e-06
-6.73457503e-13
-1.661784035e-12
9.497859612e-06
-3.225615453e-12
-1.852766066e-12
9.497857063e-06
-4.6341874e-12
-3.562979076e-12
9.497855395e-06
-1.505800753e-11
-1.092092916e-11
9.497856098e-06
-8.094889452e-12
-1.533299876e-11
9.497874526e-06
-5.309341539e-11
-4.477103657e-11
9.497879283e-06
-1.304701979e-11
-5.755921986e-11
-1.737589661e-10
-1.590803268e-10
9.49779351e-06
4.590738533e-13
-1.321530752e-12
9.49779479e-06
5.760681619e-13
7.654004781e-13
9.497793956e-06
2.783696939e-13
7.347534604e-13
9.497797268e-06
8.575641871e-13
6.860464578e-13
9.497792184e-06
-1.277383198e-12
-4.398933278e-13
9.497795367e-06
-1.271787668e-12
-8.132508105e-13
9.497792044e-06
-1.90273836e-12
-1.592171799e-12
9.497790494e-06
-3.441185914e-12
-2.79063946e-12
9.497789062e-06
-4.858140551e-12
-5.310499331e-12
9.497792161e-06
-1.404428705e-11
-1.481454094e-11
9.497808136e-06
-2.051445754e-11
-1.875196452e-11
9.497852726e-06
-7.442564035e-11
-7.330167529e-11
9.497970841e-06
-7.288155525e-11
-7.066873972e-11
9.498190516e-06
-2.851376183e-10
-2.851292302e-10
-3.773199489e-10
9.497768883e-06
5.904167905e-13
-2.075841251e-13
9.497768203e-06
-8.713234344e-14
1.226072548e-12
9.497767712e-06
-4.536781822e-14
8.573293595e-13
9.497768176e-06
9.328333023e-13
3.970558904e-13
9.497763394e-06
-7.962120292e-14
-1.224654513e-12
9.497764755e-06
1.144749366e-12
1.085743325e-13
9.497759274e-06
1.066724719e-12
-6.514593711e-14
9.497753383e-06
3.376278673e-12
-3.076936394e-12
9.497742937e-06
4.061256272e-12
-8.137217795e-12
9.497712776e-06
1.529445098e-11
-2.534913715e-11
9.497694447e-06
2.15977592e-11
-3.778085469e-11
9.497603199e-06
7.567898179e-11
-2.112146585e-10
9.497682658e-06
7.137909049e-11
-3.311158747e-10
9.498467125e-06
2.837703006e-10
-2.405689685e-09
3.782064953e-10
-3.069127814e-09
9.497863398e-06
-7.852294971e-13
-1.013939572e-12
9.497866234e-06
-4.203541818e-14
1.065134058e-12
9.49786512e-06
-5.987971986e-13
-7.790727752e-13
9.49786494e-06
-1.285817677e-12
-3.47401085e-13
9.497864077e-06
6.926514792e-13
-9.096335549e-13
9.497866111e-06
1.378384972e-12
2.020755997e-13
9.497866679e-06
2.343039266e-12
-1.863088758e-13
9.497863982e-06
3.618514489e-12
-1.939935843e-12
9.497863823e-06
4.887369218e-12
-3.987826231e-12
9.497863136e-06
1.358306164e-11
-1.566334819e-11
9.497881919e-06
9.121766412e-12
-1.84341692e-11
9.497924307e-06
5.156085614e-11
-7.649268089e-11
9.498044975e-06
1.293759272e-11
-7.352560694e-11
9.498267255e-06
1.729508842e-10
-2.851382796e-10
4.020011923e-10
-3.787546127e-10
9.497829723e-06
3.55902663e-13
-7.230024345e-14
9.497829938e-06
1.541278061e-13
3.489237456e-13
9.497828868e-06
-2.413863638e-12
-8.779941187e-13
9.497827735e-06
-1.058192323e-12
-3.236795298e-13
9.497826698e-06
-2.283777825e-13
-1.277770739e-12
9.497829563e-06
1.595677902e-12
-5.915399781e-13
9.497827397e-06
1.944634273e-12
-1.736020837e-12
9.497825273e-06
3.581857535e-12
-3.461175156e-12
9.497823598e-06
3.806254947e-12
-3.280239099e-12
9.49782416e-06
1.204802339e-11
-1.061545639e-11
9.49782274e-06
1.165896521e-11
-1.516186009e-11
9.497844279e-06
3.923352172e-11
-4.388829028e-11
9.497848549e-06
2.554897176e-11
-5.866227793e-11
9.498003317e-06
7.48079475e-11
-1.581677577e-10
1.904883827e-10
-2.54875831e-10
9.497908956e-06
3.648684515e-13
-1.107674476e-12
9.497908044e-06
1.645826733e-12
-3.310397683e-13
9.49791098e-06
2.042814907e-12
1.186291575e-12
9.497910592e-06
1.174442876e-12
4.869124301e-13
9.497910189e-06
1.102357989e-13
-1.993025193e-12
9.497910424e-06
-8.385479405e-13
-2.642701412e-12
9.497909685e-06
-1.610561959e-12
-2.266056427e-12
9.497911694e-06
4.104226826e-13
-2.985066169e-12
9.497913673e-06
2.973957235e-12
-2.347115562e-12
9.497920509e-06
7.311993352e-12
-5.227143764e-12
9.497924567e-06
6.400230416e-12
-8.410746266e-12
9.497948206e-06
1.886049473e-11
-2.025080454e-11
9.497963624e-06
1.471023692e-11
-2.861826292e-11
9.498026604e-06
2.839155587e-11
-5.343661418e-11
8.273455289e-11
-8.265600556e-11
9.497865413e-06
-1.2268646e-12
9.497862896e-06
-1.390774822e-12
9.497862814e-06
6.764200202e-14
9.497863395e-06
-2.972433684e-13
9.497863623e-06
-4.215058225e-13
9.497865015e-06
-2.527822577e-13
9.497867694e-06
-6.635635317e-13
9.497870996e-06
-1.557422276e-12
9.497871666e-06
-2.305237928e-12
9.49787766e-06
-4.569465198e-12
9.497884498e-06
-5.963326167e-12
9.497900703e-06
-1.222438923e-11
9.497918537e-06
-1.793481998e-11
9.497955872e-06
-2.679338574e-11
-4.260182887e-11
9.497823447e-06
2.401676292e-13
-1.101611964e-12
9.497822533e-06
9.744454213e-13
-5.287693002e-13
9.497825578e-06
9.227335455e-13
5.248261132e-13
9.497825863e-06
2.722489567e-13
8.761542473e-13
9.497822743e-06
-1.327643041e-12
3.221316588e-13
9.497824741e-06
-8.987069044e-13
-3.951022639e-13
9.497825089e-06
-1.661735804e-12
5.071343282e-14
9.497824542e-06
-2.198642759e-12
7.447567073e-13
9.497825823e-06
-2.141529324e-12
2.192269799e-12
9.497826752e-06
-1.129165761e-11
4.520643901e-12
9.49782334e-06
-1.139261289e-11
4.927942009e-12
9.497837885e-06
-3.650973753e-11
1.255114271e-11
9.497842753e-06
-4.272026912e-11
1.733989543e-11
-1.161141931e-10
2.584323389e-11
9.497857538e-06
5.682949416e-13
-7.854009066e-14
9.4978559e-06
-1.2900187e-13
-7.81675082e-14
9.497856429e-06
1.263286413e-12
-1.117147604e-12
9.497857244e-06
1.064676372e-12
6.21952457e-13
9.497858462e-06
9.350773348e-13
1.392760243e-12
9.497859559e-06
-1.016019284e-12
9.958954264e-14
9.497860096e-06
-1.370075446e-12
1.571222358e-12
9.497857729e-06
-5.047513057e-12
1.524544679e-12
9.497854595e-06
-6.720587029e-12
1.957483799e-12
9.497855114e-06
-2.135784546e-11
6.847930384e-12
9.497848568e-06
-2.460897627e-11
8.293841717e-12
9.497858661e-06
-9.024879387e-11
1.920053815e-11
9.497845347e-06
-8.651329096e-11
2.641070894e-11
-3.541926753e-10
5.265246129e-11
9.497849094e-06
-9.876949228e-13
-4.846782661e-13
9.497848284e-06
-3.564486516e-13
-4.143971278e-13
9.497846312e-06
-6.562422196e-13
-7.545882052e-13
9.497847633e-06
-8.027942496e-13
9.382267397e-16
9.497845807e-06
-1.275366752e-12
-8.816037365e-14
9.497845349e-06
-6.876653007e-13
1.229324792e-12
9.497843413e-06
-8.464347109e-13
1.645621042e-12
9.497839503e-06
-4.659977254e-12
2.892304396e-12
9.497829103e-06
-6.609111485e-12
3.469511821e-12
9.497815775e-06
-2.450428607e-11
1.009515495e-11
9.49779173e-06
-2.238575253e-11
1.512974452e-11
9.497764453e-06
-1.482077084e-10
4.452442237e-11
9.49767207e-06
-1.090333038e-10
5.670537425e-11
-1.051697987e-09
1.582080928e-10
9.497810291e-06
1.202963451e-12
4.25144533e-13
9.497808629e-06
-3.024551139e-13
-2.391700431e-13
9.497807218e-06
-4.496226672e-13
-9.27132006e-14
9.497808744e-06
7.221374882e-14
7.242022476e-13
9.497805741e-06
-1.334639452e-12
5.159758671e-13
9.497804536e-06
-7.044932837e-13
1.754697085e-12
9.497801387e-06
-1.45400242e-12
1.353750354e-13
9.497794765e-06
-4.014046805e-12
1.940389081e-12
9.497782878e-06
-8.210130562e-12
4.521240507e-12
9.49775654e-06
-2.489506786e-11
1.583074811e-11
9.497730942e-06
-4.038538729e-11
1.989534711e-11
9.497643714e-06
-2.109841136e-10
7.55246709e-11
9.497716963e-06
-3.332281147e-10
6.956640742e-11
-2.405707221e-09
2.849032261e-10
9.497861802e-06
-8.623297525e-13
2.99881887e-13
9.49786231e-06
-1.968400115e-13
8.236719424e-13
9.497861606e-06
-8.385359933e-13
3.273341119e-13
9.497860937e-06
-1.411705584e-13
-6.173805195e-13
9.497860211e-06
-8.985940167e-13
1.202786815e-12
9.497856982e-06
-2.442074204e-14
1.708087003e-12
9.497849692e-06
3.183421128e-13
1.691069038e-12
9.497834328e-06
5.237615498e-12
4.109973312e-12
9.49780933e-06
7.892930833e-12
7.925519935e-12
9.497704976e-06
2.504455728e-11
2.496919219e-11
9.497544886e-06
4.082872414e-11
4.012347066e-11
9.496699244e-06
2.105977676e-10
2.114335787e-10
9.495371321e-06
3.292040065e-10
3.327836456e-10
9.485745842e-06
2.405052335e-09
2.407101515e-09
3.067435691e-09
9.497811046e-06
3.547716257e-14
6.101166595e-13
9.497808563e-06
-5.632327347e-13
-7.638429309e-13
9.497810288e-06
-3.668189692e-13
-2.827344638e-13
9.497807164e-06
-3.609718863e-13
-1.484366486e-12
9.497809767e-06
-3.32106138e-13
1.124692041e-12
9.497808436e-06
1.015063866e-12
1.383971563e-12
9.497804784e-06
1.316301933e-12
2.182388531e-12
9.497795676e-06
3.856704222e-12
3.099634712e-12
9.497785671e-06
6.06092685e-12
4.457552029e-12
9.497758941e-06
2.421072064e-11
1.271106759e-11
9.497734206e-06
2.241090225e-11
1.676734801e-11
9.4976456e-06
1.497766759e-10
7.406022306e-11
9.497724863e-06
1.114085121e-10
7.328260769e-11
9.498506823e-06
1.05089961e-09
2.849791673e-10
1.859186877e-09
9.497807982e-06
-6.635742621e-13
-2.908138062e-13
9.497806529e-06
-1.415189196e-12
-5.512114966e-13
9.497807729e-06
4.8379294e-15
-5.839775472e-13
9.497804663e-06
-1.17742265e-12
2.179329904e-13
9.497807439e-06
-2.642811941e-13
2.703733007e-12
9.497806065e-06
6.03082009e-13
2.252538419e-12
9.497803722e-06
1.926957798e-12
1.614693568e-12
9.49780178e-06
4.262381057e-12
3.231412744e-12
9.497791679e-06
6.851952297e-12
3.20374942e-12
9.497779297e-06
2.211034183e-11
9.598322413e-12
9.497751631e-06
2.356724792e-11
1.381679276e-11