/*--------------------------------*- C++ -*----------------------------------*\
| =========                 |                                                 |
| \\      /  F ield         | OpenFOAM: The Open Source CFD Toolbox           |
|  \\    /   O peration     | Version:  4.x                                   |
|   \\  /    A nd           | Web:      www.OpenFOAM.org                      |
|    \\/     M anipulation  |                                                 |
\*---------------------------------------------------------------------------*/
FoamFile
{
    version     2.0;
    format      ascii;
    class       volScalarField;
    location    "11000";
    object      rho;
}
// * * * * * * * * * * * * * * * * * * * * * * * * * * * * * * * * * * * * * //

dimensions      [1 -3 0 0 0 0 0];

internalField   nonuniform List<scalar> 
1175
(
0.279754492
0.2797545092
0.2797544932
0.2797544813
0.2797544841
0.2797544762
0.2797544606
0.2797544898
0.2797544842
0.2797544752
0.2797544883
0.2797544883
0.2797545009
0.2797545247
0.2797545911
0.2797557152
0.2797557383
0.2797557157
0.2797557031
0.279755709
0.2797557031
0.2797557049
0.279755707
0.279755698
0.2797556893
0.2797557211
0.2797557694
0.279755782
0.279755866
0.2797559612
0.2797546522
0.2797546208
0.279754606
0.2797546042
0.2797546027
0.279754607
0.2797545744
0.2797546153
0.2797545927
0.2797545493
0.2797545694
0.2797545698
0.2797546302
0.279754725
0.279754935
0.2797550356
0.2797550142
0.2797550418
0.2797550581
0.2797550419
0.2797550528
0.2797550736
0.2797550797
0.2797550982
0.2797550692
0.2797550983
0.2797551612
0.2797551905
0.2797553965
0.2797557464
0.2797537877
0.2797537946
0.2797537691
0.2797537504
0.2797537467
0.2797537815
0.2797537643
0.2797537754
0.2797537983
0.2797537893
0.27975379
0.2797538412
0.2797538896
0.2797540845
0.2797545265
0.2797537664
0.279753796
0.2797538323
0.2797538396
0.2797538456
0.2797538315
0.2797538093
0.2797537993
0.2797537733
0.2797537926
0.2797538137
0.2797538277
0.2797538894
0.2797540961
0.2797544451
0.2797543015
0.2797543157
0.2797542905
0.279754304
0.2797543417
0.2797543376
0.2797543067
0.279754315
0.2797542977
0.2797542904
0.2797542864
0.2797543013
0.2797543524
0.2797544911
0.2797546944
0.2797539271
0.2797539266
0.2797539038
0.2797538927
0.2797538615
0.2797538808
0.2797538791
0.2797538792
0.2797539013
0.2797538938
0.2797538813
0.2797539418
0.2797539605
0.2797540042
0.2797541336
0.2797535016
0.2797534794
0.2797534745
0.2797534815
0.2797534958
0.2797535036
0.2797534779
0.279753478
0.2797534675
0.2797534697
0.2797534789
0.2797534678
0.2797534794
0.2797535162
0.2797535905
0.27975465
0.2797546209
0.2797545985
0.2797546005
0.2797546279
0.2797546139
0.2797546135
0.2797545763
0.2797545829
0.2797545514
0.2797545835
0.2797546051
0.2797545968
0.2797546817
0.2797542779
0.2797542858
0.2797542795
0.2797542526
0.2797542355
0.2797542716
0.2797542473
0.2797542215
0.279754243
0.2797542504
0.2797542538
0.2797542567
0.2797543576
0.2797544241
0.2797546183
0.2797521754
0.2797522029
0.2797522366
0.2797522498
0.2797522467
0.279752268
0.2797522384
0.2797522373
0.2797522509
0.2797522568
0.2797522635
0.279752312
0.279752404
0.2797526518
0.2797531665
0.2797550324
0.2797550293
0.2797549979
0.2797550225
0.2797550233
0.2797549781
0.2797549891
0.2797549707
0.2797549619
0.279755015
0.2797549927
0.2797550797
0.2797552802
0.279755789
0.2797567351
0.2797532004
0.2797532501
0.279753176
0.2797532019
0.2797531584
0.2797531821
0.2797532051
0.2797532029
0.2797531851
0.2797531348
0.2797531229
0.2797531587
0.2797534611
0.2797541691
0.2797557768
0.2797560931
0.279756107
0.2797560565
0.2797560669
0.2797560777
0.2797560843
0.2797560543
0.2797560599
0.2797560678
0.279756071
0.2797560587
0.2797561142
0.2797562744
0.2797567818
0.2797577653
0.2797523758
0.2797523721
0.2797523867
0.2797523765
0.2797523895
0.2797524092
0.2797524314
0.2797523887
0.2797523694
0.2797524179
0.2797524954
0.2797525309
0.279752623
0.2797528275
0.2797532885
0.2797553117
0.2797553121
0.2797553271
0.2797553556
0.2797553537
0.279755366
0.2797553755
0.2797554086
0.2797553684
0.2797553719
0.2797553912
0.2797554055
0.2797554497
0.2797555907
0.2797557844
0.2797532255
0.2797532201
0.279753205
0.2797532208
0.2797532301
0.2797532206
0.279753219
0.2797532357
0.2797532413
0.279753266
0.2797532435
0.2797532653
0.2797532983
0.2797533486
0.279753445
0.2797545698
0.2797545723
0.2797545782
0.2797545875
0.279754546
0.2797545544
0.2797545749
0.2797545608
0.2797545662
0.279754533
0.2797545111
0.2797545223
0.279754559
0.279754669
0.2797557358
0.2797556938
0.2797557067
0.2797557115
0.2797557119
0.2797557115
0.2797557041
0.2797557249
0.2797557853
0.2797557806
0.2797558105
0.2797558243
0.279755919
0.2797561643
0.2797550243
0.2797550732
0.2797550764
0.2797551109
0.2797551164
0.2797550919
0.2797550888
0.2797551154
0.2797550765
0.2797551157
0.2797551403
0.2797552297
0.2797554975
0.2797561439
0.2797574443
0.2797543778
0.2797543907
0.2797544139
0.2797544093
0.2797543953
0.2797544265
0.2797544148
0.2797544268
0.279754387
0.2797543827
0.2797544279
0.2797546015
0.2797551709
0.2797567661
0.2797603042
0.2797556627
0.2797556472
0.2797556863
0.2797556597
0.2797556867
0.2797556666
0.2797556704
0.2797556568
0.2797556798
0.2797556888
0.2797557517
0.2797560289
0.2797569005
0.2797599011
0.2797673168
0.2797554271
0.2797554594
0.2797555001
0.2797554989
0.2797554956
0.2797554851
0.279755515
0.279755499
0.2797554982
0.2797554793
0.2797555114
0.2797556955
0.2797562602
0.2797578162
0.2797613635
0.2797541258
0.2797541023
0.2797541068
0.2797540887
0.2797540939
0.2797540609
0.2797540292
0.2797540031
0.2797540162
0.2797540171
0.279754005
0.2797540617
0.2797543326
0.2797549538
0.2797562656
0.2797530548
0.2797530594
0.2797530635
0.2797530736
0.2797530673
0.2797530429
0.2797530701
0.2797530789
0.2797531306
0.2797531064
0.2797530994
0.2797531065
0.2797532659
0.2797535067
0.2797539856
0.2797563073
0.2797562755
0.27975628
0.2797562944
0.2797562605
0.2797563011
0.2797562802
0.2797562794
0.2797562744
0.2797562665
0.2797562698
0.2797562922
0.2797562961
0.2797563948
0.2797566063
0.2797538739
0.2797538819
0.2797538718
0.2797538299
0.2797538469
0.2797538529
0.2797538698
0.2797538913
0.2797538679
0.2797538815
0.2797539032
0.2797539575
0.2797539913
0.2797541564
0.2797532483
0.2797532297
0.2797532138
0.2797532014
0.2797532208
0.2797531913
0.279753228
0.2797532793
0.2797532658
0.279753209
0.2797532922
0.2797533556
0.2797535753
0.2797540712
0.279755057
0.2797550837
0.2797551362
0.2797551384
0.279755081
0.2797551485
0.2797551356
0.2797551496
0.2797551658
0.2797551681
0.2797552096
0.2797553392
0.2797558535
0.2797574849
0.2797532012
0.2797532052
0.2797532281
0.2797532604
0.2797532651
0.2797532505
0.2797532276
0.2797532278
0.279753232
0.2797532407
0.2797533397
0.2797537111
0.2797551552
0.2797602998
0.2797734697
0.2797524412
0.2797524368
0.2797524392
0.279752461
0.2797524217
0.2797524137
0.2797524021
0.2797523892
0.2797523569
0.2797523713
0.2797525447
0.2797532071
0.2797561403
0.2797689223
0.279813409
0.279755305
0.2797552945
0.2797553109
0.2797553089
0.2797553407
0.2797553554
0.2797553612
0.2797553639
0.2797553834
0.2797554297
0.2797555169
0.2797559056
0.2797573821
0.2797625352
0.2797757467
0.2797543065
0.2797542653
0.279754284
0.2797542804
0.2797542858
0.2797542272
0.2797542042
0.2797542048
0.2797542309
0.2797541867
0.2797542081
0.2797543812
0.2797549397
0.2797565323
0.279760098
0.2797566037
0.2797565808
0.2797565332
0.2797565947
0.2797566192
0.2797566643
0.2797566645
0.2797566312
0.2797566209
0.2797566232
0.2797566672
0.279756756
0.2797569419
0.2797573728
0.279758374
0.2797552926
0.2797552946
0.2797552819
0.2797552685
0.2797552806
0.2797552801
0.2797552815
0.2797552716
0.2797552691
0.2797553036
0.2797553105
0.2797553374
0.2797554289
0.2797556007
0.2797559757
0.279754114
0.2797541025
0.2797540871
0.2797540701
0.2797540615
0.2797540613
0.2797540779
0.279754074
0.2797540361
0.2797540786
0.2797540447
0.2797540479
0.2797541444
0.2797543503
0.2797550452
0.2797550433
0.279755017
0.2797550169
0.2797550479
0.2797550632
0.2797551123
0.2797551558
0.2797551867
0.2797551619
0.2797551654
0.2797552521
0.279755538
0.2797562365
0.2797548365
0.2797548399
0.2797548128
0.2797547754
0.2797547929
0.2797547682
0.279754781
0.2797547551
0.2797547171
0.279754701
0.2797548054
0.2797550661
0.2797559977
0.2797590018
0.2797536448
0.2797536632
0.2797536522
0.2797536787
0.2797536672
0.2797536382
0.2797536268
0.2797535824
0.2797536325
0.2797536474
0.2797537533
0.2797543833
0.2797572765
0.2797700127
0.2797551733
0.2797552364
0.279755238
0.2797552362
0.2797552059
0.2797552102
0.2797551943
0.2797552192
0.2797552298
0.2797553247
0.2797555397
0.2797567392
0.2797641199
0.2798119828
0.2807566638
0.279753702
0.27975368
0.2797536603
0.2797536469
0.2797536314
0.2797536442
0.2797537038
0.2797536868
0.2797537019
0.2797536884
0.2797538425
0.2797544463
0.2797573651
0.2797701054
0.2798145915
0.2797536464
0.2797536008
0.2797536232
0.2797535845
0.2797535647
0.2797535894
0.2797535721
0.2797535817
0.2797536021
0.2797536754
0.279753741
0.2797539576
0.2797548418
0.2797577723
0.2797652184
0.2797533297
0.2797533631
0.2797534058
0.2797534187
0.2797534056
0.2797534332
0.279753416
0.2797534169
0.2797534239
0.2797534459
0.2797534908
0.2797535784
0.2797538343
0.2797545958
0.2797561742
0.2797528982
0.2797529099
0.2797529279
0.2797529025
0.2797528878
0.279752879
0.2797528888
0.2797529125
0.2797529834
0.2797529574
0.2797529793
0.27975303
0.2797531296
0.2797533669
0.2797538411
0.2797539043
0.2797539048
0.2797538919
0.2797539024
0.2797539312
0.2797539355
0.2797539095
0.2797539059
0.2797538683
0.2797538784
0.2797538496
0.2797539174
0.2797539854
0.2797541586
0.2797546223
0.2797546251
0.2797546473
0.2797546599
0.279754632
0.2797546149
0.2797546538
0.2797546375
0.2797546512
0.2797546605
0.2797546646
0.2797547212
0.2797549083
0.2797553964
0.2797536347
0.2797536906
0.2797536672
0.2797536465
0.2797536554
0.2797536482
0.2797536393
0.2797536173
0.279753616
0.2797536258
0.2797536364
0.2797538362
0.2797543948
0.2797559992
0.2797551077
0.2797550908
0.2797550606
0.2797550415
0.2797550442
0.2797550316
0.2797550534
0.2797550671
0.2797550597
0.2797550541
0.2797551491
0.2797555153
0.2797569727
0.2797621508
0.2797533592
0.2797533492
0.2797533602
0.2797533335
0.2797533289
0.2797533138
0.2797533466
0.2797533634
0.2797533603
0.2797533627
0.2797535181
0.2797541421
0.2797571052
0.2797698921
0.2797544058
0.2797543743
0.2797543623
0.2797543492
0.2797543754
0.2797543618
0.279754323
0.2797543528
0.2797543783
0.2797544011
0.279754504
0.2797548851
0.2797563937
0.2797615359
0.2797547129
0.2797547072
0.2797547294
0.2797547432
0.2797548018
0.2797547521
0.2797547622
0.2797547326
0.2797547237
0.279754769
0.2797547725
0.279754914
0.2797554417
0.2797570987
0.2797606251
0.2797537011
0.2797537021
0.2797537106
0.2797537029
0.2797536967
0.279753702
0.279753699
0.2797536721
0.2797536477
0.2797536561
0.2797536824
0.2797537756
0.279753939
0.2797544003
0.279755435
0.2797539267
0.2797539275
0.2797538944
0.2797539266
0.2797539148
0.2797539687
0.2797539631
0.2797539578
0.279753956
0.2797539632
0.2797539349
0.2797539478
0.2797540251
0.279754192
0.279754528
0.2797549167
0.2797549385
0.2797549278
0.2797549121
0.2797549036
0.2797549205
0.2797549251
0.2797549375
0.2797549262
0.2797549442
0.2797549533
0.2797549468
0.2797550103
0.2797550983
0.2797532372
0.2797532525
0.2797532523
0.2797532678
0.2797532759
0.2797532497
0.2797531957
0.2797532187
0.2797532479
0.2797532577
0.2797532456
0.2797533309
0.2797533781
0.2797535699
0.279754775
0.2797547934
0.2797547464
0.279754743
0.2797547597
0.2797547376
0.2797547458
0.27975472
0.2797547055
0.2797547052
0.2797547059
0.2797547905
0.2797550185
0.2797556837
0.2797540679
0.2797540927
0.2797541191
0.2797541322
0.2797541187
0.2797541059
0.2797541311
0.2797541579
0.2797541946
0.2797542014
0.2797542524
0.2797544223
0.2797549609
0.2797566203
0.2797542607
0.2797543061
0.2797543233
0.279754331
0.2797543409
0.2797543395
0.279754317
0.2797542889
0.279754273
0.2797542926
0.2797543346
0.2797545684
0.2797554563
0.2797584353
0.2797533233
0.27975332
0.279753323
0.2797533179
0.2797533346
0.2797533168
0.2797532803
0.2797532848
0.2797532834
0.2797532738
0.2797533227
0.2797534415
0.279753992
0.2797556051
0.2797536873
0.279753683
0.2797536904
0.2797537413
0.279753745
0.2797537039
0.2797536878
0.2797537283
0.2797537452
0.2797537605
0.2797538323
0.2797538702
0.2797540964
0.2797547531
0.2797550256
0.2797550295
0.2797550388
0.2797550328
0.2797549937
0.2797549996
0.2797549931
0.2797550134
0.2797550075
0.2797550016
0.2797550491
0.2797550453
0.2797551323
0.2797553646
0.2797557849
0.2797552316
0.2797552109
0.2797552103
0.2797552305
0.2797552282
0.2797551993
0.2797552351
0.2797552775
0.2797552812
0.2797552694
0.2797553035
0.2797553237
0.2797553387
0.2797554257
0.2797556148
0.2797541247
0.2797540865
0.2797540625
0.2797540716
0.2797540736
0.2797540774
0.2797540845
0.2797541176
0.2797541351
0.2797541178
0.2797541201
0.2797541433
0.2797541593
0.2797541831
0.2797549973
0.2797549883
0.2797549921
0.2797549674
0.279754962
0.2797549711
0.2797549775
0.2797549524
0.2797549488
0.2797549667
0.279754948
0.2797549756
0.2797550517
0.2797551511
0.2797534428
0.2797534262
0.2797534075
0.2797534032
0.2797533545
0.2797533627
0.2797533977
0.2797534197
0.2797534036
0.2797534436
0.2797534287
0.2797534597
0.2797535044
0.2797537068
0.2797545808
0.2797546
0.2797545628
0.279754566
0.2797545663
0.2797545732
0.2797545655
0.2797545194
0.2797545396
0.2797545559
0.2797546039
0.2797546572
0.2797548621
0.2797553374
0.2797534067
0.2797534209
0.2797534148
0.2797534255
0.2797534139
0.2797534327
0.2797534202
0.2797534204
0.2797534208
0.2797534135
0.2797534379
0.2797535314
0.2797537593
0.2797545048
0.279754806
0.2797548164
0.2797548394
0.2797547921
0.2797547634
0.2797547451
0.2797547394
0.2797547325
0.2797547301
0.2797547187
0.2797547744
0.2797548195
0.2797550172
0.2797554786
0.2797546759
0.279754676
0.2797546551
0.2797546273
0.2797546513
0.2797546785
0.2797546684
0.2797546845
0.2797546863
0.2797546556
0.2797546501
0.2797546913
0.2797548163
0.2797550974
0.2797553245
0.2797552975
0.2797553192
0.2797553007
0.2797553161
0.2797552992
0.2797552658
0.2797552447
0.2797552659
0.2797552449
0.2797552249
0.2797552206
0.2797552673
0.2797553666
0.2797539847
0.2797539946
0.279754004
0.27975398
0.2797539605
0.2797539315
0.2797538853
0.2797538989
0.2797538948
0.2797538935
0.2797539043
0.2797539128
0.2797539236
0.2797539653
0.2797540875
0.2797537959
0.2797538
0.2797537715
0.2797537952
0.2797537564
0.2797537635
0.2797537636
0.279753784
0.2797538008
0.2797538242
0.2797538282
0.2797538259
0.2797538311
0.2797538469
0.279754813
0.2797547799
0.2797547913
0.2797547523
0.2797547607
0.2797547271
0.2797547469
0.2797547569
0.2797547845
0.2797547512
0.2797547568
0.2797547637
0.2797547877
0.2797548424
0.2797534795
0.2797535109
0.2797535021
0.2797534858
0.2797534851
0.2797535002
0.2797534812
0.2797534574
0.2797534758
0.279753455
0.2797535032
0.2797535078
0.2797535281
0.2797536149
0.2797562937
0.2797563097
0.2797562817
0.2797562959
0.2797563038
0.279756244
0.2797562636
0.2797562584
0.2797562845
0.2797562597
0.2797562547
0.2797563005
0.2797563318
0.2797565193
0.2797551925
0.2797551569
0.2797551743
0.2797551938
0.2797551971
0.2797551871
0.2797552157
0.2797551926
0.2797551894
0.2797551877
0.2797552254
0.2797552468
0.2797553583
0.2797555626
0.2797541434
0.2797541396
0.2797541684
0.2797541688
0.2797542011
0.2797542387
0.2797542364
0.2797542185
0.2797542087
0.2797542093
0.2797542094
0.2797542558
0.2797543006
0.2797544759
0.2797545418
0.2797545369
0.2797545466
0.2797545248
0.2797544851
0.2797544756
0.2797544736
0.2797544748
0.2797544482
0.2797544703
0.2797544824
0.2797544867
0.2797545366
0.2797546468
0.2797542173
0.2797541816
0.2797542484
0.2797542237
0.2797542063
0.2797542384
0.2797542477
0.279754262
0.2797542906
0.2797542643
0.2797542694
0.2797542758
0.2797543195
0.2797543878
0.2797546501
0.2797546695
0.2797546841
0.2797546942
0.279754709
0.2797547003
0.2797546744
0.2797546744
0.279754687
0.2797546978
0.2797546985
0.279754699
0.2797547184
0.2797547299
)
;

boundaryField
{
    top
    {
        type            calculated;
        value           nonuniform List<scalar> 
134
(
0.2797535016
0.2797532255
0.2797563073
0.2797552926
0.2797528982
0.2797539267
0.2797552316
0.2797539847
0.2797546501
0.2797534794
0.2797532201
0.2797562755
0.2797552946
0.2797529099
0.2797539275
0.2797552109
0.2797539946
0.2797546695
0.2797534745
0.279753205
0.27975628
0.2797552819
0.2797529279
0.2797538944
0.2797552103
0.279754004
0.2797546841
0.2797534815
0.2797532208
0.2797562944
0.2797552685
0.2797529025
0.2797539266
0.2797552305
0.27975398
0.2797546942
0.2797534958
0.2797532301
0.2797562605
0.2797552806
0.2797528878
0.2797539148
0.2797552282
0.2797539605
0.279754709
0.2797535036
0.2797532206
0.2797563011
0.2797552801
0.279752879
0.2797539687
0.2797551993
0.2797539315
0.2797547003
0.2797534779
0.279753219
0.2797562802
0.2797552815
0.2797528888
0.2797539631
0.2797552351
0.2797538853
0.2797546744
0.279753478
0.2797532357
0.2797562794
0.2797552716
0.2797529125
0.2797539578
0.2797552775
0.2797538989
0.2797546744
0.2797534675
0.2797532413
0.2797562744
0.2797552691
0.2797529834
0.279753956
0.2797552812
0.2797538948
0.279754687
0.2797534697
0.279753266
0.2797562665
0.2797553036
0.2797529574
0.2797539632
0.2797552694
0.2797538935
0.2797546978
0.2797534789
0.2797532435
0.2797562698
0.2797553105
0.2797529793
0.2797539349
0.2797553035
0.2797539043
0.2797546985
0.2797534678
0.2797532653
0.2797562922
0.2797553374
0.27975303
0.2797539478
0.2797553237
0.2797539128
0.279754699
0.2797534794
0.2797532983
0.2797562961
0.2797554289
0.2797531296
0.2797540251
0.2797553387
0.2797539236
0.2797547184
0.2797535162
0.2797533486
0.2797563948
0.2797556007
0.2797533669
0.279754192
0.2797554257
0.2797539653
0.2797547299
0.2797535905
0.279753445
0.2797566063
0.2797559757
0.2797538411
0.279754528
0.2797556148
0.2797540875
)
;
    }
    bottom
    {
        type            calculated;
        value           nonuniform List<scalar> 
127
(
0.279754492
0.27975465
0.2797545698
0.2797538739
0.279754114
0.2797539043
0.2797549167
0.2797541247
0.2797537959
0.2797545092
0.2797546209
0.2797545723
0.2797538819
0.2797541025
0.2797539048
0.2797549385
0.2797540865
0.2797538
0.2797544932
0.2797545985
0.2797545782
0.2797538718
0.2797540871
0.2797538919
0.2797549278
0.2797540625
0.2797537715
0.2797544813
0.2797546005
0.2797545875
0.2797538299
0.2797540701
0.2797539024
0.2797549121
0.2797540716
0.2797537952
0.2797544841
0.2797546279
0.279754546
0.2797538469
0.2797540615
0.2797539312
0.2797549036
0.2797540736
0.2797537564
0.2797544762
0.2797546139
0.2797545544
0.2797538529
0.2797540613
0.2797539355
0.2797549205
0.2797540774
0.2797537635
0.2797544606
0.2797546135
0.2797545749
0.2797538698
0.2797540779
0.2797539095
0.2797549251
0.2797540845
0.2797537636
0.2797544898
0.2797545763
0.2797545608
0.2797538913
0.279754074
0.2797539059
0.2797549375
0.2797541176
0.279753784
0.2797544842
0.2797545829
0.2797545662
0.2797538679
0.2797540361
0.2797538683
0.2797549262
0.2797541351
0.2797538008
0.2797544752
0.2797545514
0.279754533
0.2797538815
0.2797540786
0.2797538784
0.2797549442
0.2797541178
0.2797538242
0.2797544883
0.2797545835
0.2797545111
0.2797539032
0.2797540447
0.2797538496
0.2797549533
0.2797541201
0.2797538282
0.2797544883
0.2797546051
0.2797545223
0.2797539575
0.2797540479
0.2797539174
0.2797549468
0.2797541433
0.2797538259
0.2797545009
0.2797545968
0.279754559
0.2797539913
0.2797541444
0.2797539854
0.2797550103
0.2797541593
0.2797538311
0.2797545247
0.2797546817
0.279754669
0.2797541564
0.2797543503
0.2797541586
0.2797550983
0.2797541831
0.2797538469
0.2797545911
)
;
    }
    side-walls
    {
        type            calculated;
        value           nonuniform List<scalar> 
261
(
0.279754492
0.2797557152
0.2797546522
0.2797550356
0.2797537877
0.2797537664
0.2797543015
0.2797539271
0.2797535016
0.2797545092
0.2797557383
0.2797546208
0.2797550142
0.2797537946
0.279753796
0.2797543157
0.2797539266
0.2797534794
0.2797544932
0.2797557157
0.279754606
0.2797550418
0.2797537691
0.2797538323
0.2797542905
0.2797539038
0.2797534745
0.2797544813
0.2797557031
0.2797546042
0.2797550581
0.2797537504
0.2797538396
0.279754304
0.2797538927
0.2797534815
0.2797544841
0.279755709
0.2797546027
0.2797550419
0.2797537467
0.2797538456
0.2797543417
0.2797538615
0.2797534958
0.2797544762
0.2797557031
0.279754607
0.2797550528
0.2797537815
0.2797538315
0.2797543376
0.2797538808
0.2797535036
0.2797544606
0.2797557049
0.2797545744
0.2797550736
0.2797537643
0.2797538093
0.2797543067
0.2797538791
0.2797534779
0.2797544898
0.279755707
0.2797546153
0.2797550797
0.2797537754
0.2797537993
0.279754315
0.2797538792
0.279753478
0.2797544842
0.279755698
0.2797545927
0.2797550982
0.2797537983
0.2797537733
0.2797542977
0.2797539013
0.2797534675
0.2797544752
0.2797556893
0.2797545493
0.2797550692
0.2797537893
0.2797537926
0.2797542904
0.2797538938
0.2797534697
0.2797544883
0.2797557211
0.2797545694
0.2797550983
0.27975379
0.2797538137
0.2797542864
0.2797538813
0.2797534789
0.2797544883
0.2797557694
0.2797545698
0.2797551612
0.2797538412
0.2797538277
0.2797543013
0.2797539418
0.2797534678
0.2797545009
0.279755782
0.2797546302
0.2797551905
0.2797538896
0.2797538894
0.2797543524
0.2797539605
0.2797534794
0.2797545247
0.279755866
0.279754725
0.2797553965
0.2797540845
0.2797540961
0.2797544911
0.2797540042
0.2797535162
0.2797545911
0.2797559612
0.279754935
0.2797557464
0.2797545265
0.2797544451
0.2797546944
0.2797541336
0.2797535905
0.2797537959
0.279754813
0.2797534795
0.2797562937
0.2797551925
0.2797541434
0.2797545418
0.2797542173
0.2797546501
0.2797538
0.2797547799
0.2797535109
0.2797563097
0.2797551569
0.2797541396
0.2797545369
0.2797541816
0.2797546695
0.2797537715
0.2797547913
0.2797535021
0.2797562817
0.2797551743
0.2797541684
0.2797545466
0.2797542484
0.2797546841
0.2797537952
0.2797547523
0.2797534858
0.2797562959
0.2797551938
0.2797541688
0.2797545248
0.2797542237
0.2797546942
0.2797537564
0.2797547607
0.2797534851
0.2797563038
0.2797551971
0.2797542011
0.2797544851
0.2797542063
0.279754709
0.2797537635
0.2797547271
0.2797535002
0.279756244
0.2797551871
0.2797542387
0.2797544756
0.2797542384
0.2797547003
0.2797537636
0.2797547469
0.2797534812
0.2797562636
0.2797552157
0.2797542364
0.2797544736
0.2797542477
0.2797546744
0.279753784
0.2797547569
0.2797534574
0.2797562584
0.2797551926
0.2797542185
0.2797544748
0.279754262
0.2797546744
0.2797538008
0.2797547845
0.2797534758
0.2797562845
0.2797551894
0.2797542087
0.2797544482
0.2797542906
0.279754687
0.2797538242
0.2797547512
0.279753455
0.2797562597
0.2797551877
0.2797542093
0.2797544703
0.2797542643
0.2797546978
0.2797538282
0.2797547568
0.2797535032
0.2797562547
0.2797552254
0.2797542094
0.2797544824
0.2797542694
0.2797546985
0.2797538259
0.2797547637
0.2797535078
0.2797563005
0.2797552468
0.2797542558
0.2797544867
0.2797542758
0.279754699
0.2797538311
0.2797547877
0.2797535281
0.2797563318
0.2797553583
0.2797543006
0.2797545366
0.2797543195
0.2797547184
0.2797538469
0.2797548424
0.2797536149
0.2797565193
0.2797555626
0.2797544759
0.2797546468
0.2797543878
0.2797547299
)
;
    }
    inlet
    {
        type            calculated;
        value           nonuniform List<scalar> 
81
(
0.279754492
0.2797557152
0.2797546522
0.2797550356
0.2797537877
0.2797537664
0.2797543015
0.2797539271
0.2797535016
0.27975465
0.2797542779
0.2797521754
0.2797550324
0.2797532004
0.2797560931
0.2797523758
0.2797553117
0.2797532255
0.2797545698
0.2797557358
0.2797550243
0.2797543778
0.2797556627
0.2797554271
0.2797541258
0.2797530548
0.2797563073
0.2797538739
0.2797532483
0.279755057
0.2797532012
0.2797524412
0.279755305
0.2797543065
0.2797566037
0.2797552926
0.279754114
0.2797550452
0.2797548365
0.2797536448
0.2797551733
0.279753702
0.2797536464
0.2797533297
0.2797528982
0.2797539043
0.2797546223
0.2797536347
0.2797551077
0.2797533592
0.2797544058
0.2797547129
0.2797537011
0.2797539267
0.2797549167
0.2797532372
0.279754775
0.2797540679
0.2797542607
0.2797533233
0.2797536873
0.2797550256
0.2797552316
0.2797541247
0.2797549973
0.2797534428
0.2797545808
0.2797534067
0.279754806
0.2797546759
0.2797553245
0.2797539847
0.2797537959
0.279754813
0.2797534795
0.2797562937
0.2797551925
0.2797541434
0.2797545418
0.2797542173
0.2797546501
)
;
    }
    outlet
    {
        type            calculated;
        value           nonuniform 0();
    }
    procBoundary0to1
    {
        type            processor;
        value           nonuniform List<scalar> 
97
(
0.2797546632
0.2797547536
0.2797561583
0.279755279
0.2797562802
0.2797552094
0.2797549729
0.2797550466
0.2797542921
0.2797537154
0.2797547536
0.2797547536
0.2797549108
0.2797566237
0.2797538831
0.2797581006
0.279757631
0.2797591612
0.2797540688
0.2797561386
0.2797536099
0.2797548705
0.2797566237
0.2797566237
0.2797592608
0.2797610344
0.2797641582
0.2797728851
0.2797652273
0.2797580411
0.2797546677
0.2797569267
0.2797545302
0.2797550382
0.2797610344
0.2797610344
0.2797824179
0.2798145287
0.2798202575
0.2797847063
0.2797639793
0.2797597323
0.2797565244
0.2797548345
0.2797577804
0.2797664147
0.2798145287
0.2798145287
0.2805954211
0.2798144139
0.2798214271
0.2797747164
0.2797708294
0.2797580932
0.279754517
0.2797545622
0.2797563619
0.2797595743
0.2797753388
0.2798144139
0.2797747164
0.2797747164
0.2797645006
0.2797560494
0.2797568159
0.279755101
0.2797552762
0.2797540156
0.2797570289
0.279760129
0.2797659266
0.2797591629
0.2797560494
0.2797560494
0.2797564857
0.2797555275
0.2797559713
0.2797542922
0.2797553165
0.2797541943
0.2797563225
0.2797560729
0.2797564742
0.2797556247
0.2797555275
0.2797555275
0.279754262
0.2797547763
0.2797539208
0.2797549598
0.2797537722
0.2797568469
0.279756058
0.2797548669
0.2797548448
0.2797544605
0.2797547763
)
;
    }
}


// ************************************************************************* //
