/*--------------------------------*- C++ -*----------------------------------*\
| =========                 |                                                 |
| \\      /  F ield         | OpenFOAM: The Open Source CFD Toolbox           |
|  \\    /   O peration     | Version:  4.x                                   |
|   \\  /    A nd           | Web:      www.OpenFOAM.org                      |
|    \\/     M anipulation  |                                                 |
\*---------------------------------------------------------------------------*/
FoamFile
{
    version     2.0;
    format      ascii;
    class       volScalarField;
    location    "11000";
    object      T;
}
// * * * * * * * * * * * * * * * * * * * * * * * * * * * * * * * * * * * * * //

dimensions      [0 0 0 1 0 0 0];

internalField   nonuniform List<scalar> 
1175
(
1223.149319
1223.149244
1223.149314
1223.149365
1223.149353
1223.149387
1223.149456
1223.149328
1223.149354
1223.149396
1223.149349
1223.149373
1223.149377
1223.149405
1223.149373
1223.14397
1223.14387
1223.143968
1223.144023
1223.143998
1223.144023
1223.144016
1223.144007
1223.144048
1223.14409
1223.143966
1223.143795
1223.14384
1223.143701
1223.143735
1223.148618
1223.148755
1223.14882
1223.148828
1223.148835
1223.148816
1223.148959
1223.148781
1223.148882
1223.149079
1223.149017
1223.149087
1223.149015
1223.149047
1223.14901
1223.146942
1223.147035
1223.146915
1223.146844
1223.146914
1223.146867
1223.146776
1223.14675
1223.146673
1223.146811
1223.146723
1223.146565
1223.146759
1223.146635
1223.146649
1223.152398
1223.152368
1223.15248
1223.152561
1223.152577
1223.152426
1223.152501
1223.152454
1223.152358
1223.152411
1223.152454
1223.152375
1223.152575
1223.152745
1223.152874
1223.152491
1223.152362
1223.152204
1223.152171
1223.152145
1223.152207
1223.152304
1223.152349
1223.152466
1223.152394
1223.15234
1223.152395
1223.152448
1223.15232
1223.152338
1223.150152
1223.15009
1223.1502
1223.150141
1223.149976
1223.149994
1223.150129
1223.150093
1223.150172
1223.150211
1223.150254
1223.150261
1223.15023
1223.15007
1223.150062
1223.151788
1223.151791
1223.15189
1223.151939
1223.152075
1223.151991
1223.151999
1223.151998
1223.151903
1223.151941
1223.15201
1223.151785
1223.151805
1223.151842
1223.151726
1223.153649
1223.153746
1223.153767
1223.153737
1223.153674
1223.15364
1223.153752
1223.153752
1223.153799
1223.153793
1223.153762
1223.153835
1223.153843
1223.153814
1223.153748
1223.148628
1223.148755
1223.148853
1223.148844
1223.148725
1223.148786
1223.148788
1223.14895
1223.148923
1223.149065
1223.14894
1223.148885
1223.149023
1223.14888
1223.150255
1223.15022
1223.150248
1223.150365
1223.15044
1223.150282
1223.150389
1223.150502
1223.150411
1223.150386
1223.150396
1223.150456
1223.150208
1223.15037
1223.150416
1223.159447
1223.159327
1223.15918
1223.159122
1223.159136
1223.159043
1223.159172
1223.159178
1223.159123
1223.159111
1223.15913
1223.159067
1223.159085
1223.159037
1223.158854
1223.146956
1223.14697
1223.147107
1223.146999
1223.146996
1223.147193
1223.147146
1223.147228
1223.147272
1223.147063
1223.14724
1223.147128
1223.147061
1223.146955
1223.147156
1223.154966
1223.154749
1223.155072
1223.154959
1223.155149
1223.155046
1223.154946
1223.154958
1223.155043
1223.15529
1223.155444
1223.155643
1223.15547
1223.155582
1223.155428
1223.142318
1223.142257
1223.142478
1223.142433
1223.142386
1223.142357
1223.142488
1223.142465
1223.142437
1223.142446
1223.14258
1223.142604
1223.142714
1223.142614
1223.142651
1223.158571
1223.158587
1223.158524
1223.158568
1223.158512
1223.158425
1223.158329
1223.158516
1223.158605
1223.158407
1223.158116
1223.158109
1223.158128
1223.158268
1223.158321
1223.145734
1223.145733
1223.145667
1223.145543
1223.145551
1223.145497
1223.145456
1223.145312
1223.14549
1223.145482
1223.145423
1223.145433
1223.145433
1223.14527
1223.145317
1223.154856
1223.15488
1223.154946
1223.154877
1223.154836
1223.154878
1223.154884
1223.154812
1223.154789
1223.154686
1223.154799
1223.154743
1223.1547
1223.154708
1223.154736
1223.148978
1223.148968
1223.148942
1223.148901
1223.149082
1223.149046
1223.148956
1223.149019
1223.148998
1223.149151
1223.149272
1223.149295
1223.149326
1223.149292
1223.143881
1223.144064
1223.144007
1223.143987
1223.143985
1223.143987
1223.144019
1223.143929
1223.14367
1223.143704
1223.143621
1223.14371
1223.143717
1223.143679
1223.146991
1223.146777
1223.146764
1223.146613
1223.146589
1223.146696
1223.14671
1223.146595
1223.146773
1223.14663
1223.146624
1223.14658
1223.146478
1223.146486
1223.146627
1223.149818
1223.149762
1223.14966
1223.14968
1223.149742
1223.149605
1223.149657
1223.149608
1223.149793
1223.14986
1223.149853
1223.149799
1223.149719
1223.14982
1223.149879
1223.1442
1223.144268
1223.144097
1223.144213
1223.144095
1223.144183
1223.144167
1223.14423
1223.144144
1223.144167
1223.14415
1223.143977
1223.14409
1223.144061
1223.144223
1223.14523
1223.145089
1223.144912
1223.144916
1223.144931
1223.144977
1223.144847
1223.14492
1223.144935
1223.145066
1223.145115
1223.145016
1223.144956
1223.145229
1223.145247
1223.15092
1223.151022
1223.151003
1223.151082
1223.15106
1223.151204
1223.151343
1223.151459
1223.151409
1223.151433
1223.151588
1223.151687
1223.151571
1223.151689
1223.15178
1223.155603
1223.155582
1223.155565
1223.155521
1223.155548
1223.155655
1223.155536
1223.155499
1223.155277
1223.155397
1223.155475
1223.155593
1223.155317
1223.155299
1223.155273
1223.141382
1223.141521
1223.141501
1223.141438
1223.141586
1223.141409
1223.1415
1223.141505
1223.141529
1223.141571
1223.141582
1223.141557
1223.141732
1223.141746
1223.141703
1223.152021
1223.151986
1223.15203
1223.152213
1223.152139
1223.152113
1223.152039
1223.151946
1223.152052
1223.152005
1223.151948
1223.151828
1223.152002
1223.152056
1223.154757
1223.154838
1223.154907
1223.154961
1223.154876
1223.155006
1223.154846
1223.154623
1223.154688
1223.154959
1223.154675
1223.154666
1223.154516
1223.154466
1223.146848
1223.146731
1223.146502
1223.146492
1223.146743
1223.146448
1223.146505
1223.146447
1223.146388
1223.146427
1223.146435
1223.146574
1223.146734
1223.146678
1223.154962
1223.154945
1223.154845
1223.154704
1223.154683
1223.154747
1223.154848
1223.154852
1223.154854
1223.154906
1223.154864
1223.154884
1223.155071
1223.155163
1223.155343
1223.158285
1223.158304
1223.158294
1223.158199
1223.15837
1223.158406
1223.158458
1223.15852
1223.158687
1223.158746
1223.158567
1223.158418
1223.158391
1223.158341
1223.157699
1223.145764
1223.14581
1223.145738
1223.145747
1223.145608
1223.145544
1223.14552
1223.145512
1223.145448
1223.145335
1223.145344
1223.14529
1223.145335
1223.145389
1223.145382
1223.15013
1223.15031
1223.150229
1223.150244
1223.150221
1223.150477
1223.150578
1223.150578
1223.150476
1223.150718
1223.150813
1223.150762
1223.150729
1223.150842
1223.15078
1223.140086
1223.140186
1223.140394
1223.140125
1223.140018
1223.139821
1223.139821
1223.139968
1223.140019
1223.140032
1223.139919
1223.139798
1223.139796
1223.14003
1223.13999
1223.145818
1223.145809
1223.145865
1223.145923
1223.145871
1223.145873
1223.145867
1223.145911
1223.145926
1223.145787
1223.145795
1223.145795
1223.145717
1223.145741
1223.145647
1223.150971
1223.151022
1223.151089
1223.151163
1223.151201
1223.151202
1223.15113
1223.151148
1223.151317
1223.151146
1223.15134
1223.15147
1223.151461
1223.151583
1223.1469
1223.146908
1223.147023
1223.147023
1223.146888
1223.146821
1223.146607
1223.146419
1223.146291
1223.146427
1223.146514
1223.146491
1223.146389
1223.146545
1223.147812
1223.147798
1223.147916
1223.148079
1223.148003
1223.148111
1223.148056
1223.148173
1223.148354
1223.148486
1223.148288
1223.148186
1223.148037
1223.147994
1223.153023
1223.152943
1223.152991
1223.152875
1223.152925
1223.153052
1223.153103
1223.153303
1223.15311
1223.153167
1223.153283
1223.153276
1223.153425
1223.153581
1223.14634
1223.146064
1223.146057
1223.146065
1223.146198
1223.146179
1223.14625
1223.146148
1223.146136
1223.145897
1223.145896
1223.145965
1223.145846
1223.14588
1220.499057
1223.152773
1223.152869
1223.152955
1223.153014
1223.153081
1223.153025
1223.152766
1223.152847
1223.152807
1223.152988
1223.152893
1223.153
1223.153036
1223.15317
1223.15253
1223.153016
1223.153215
1223.153117
1223.153286
1223.153373
1223.153265
1223.153342
1223.153303
1223.153229
1223.152971
1223.152942
1223.153033
1223.153091
1223.153368
1223.153398
1223.1544
1223.154254
1223.154068
1223.154011
1223.154068
1223.153948
1223.154024
1223.154022
1223.153998
1223.15393
1223.153836
1223.153809
1223.153838
1223.153717
1223.153691
1223.156287
1223.156236
1223.156157
1223.156268
1223.156333
1223.156371
1223.156328
1223.156226
1223.15592
1223.156048
1223.155998
1223.155921
1223.155898
1223.155883
1223.155871
1223.151888
1223.151886
1223.151942
1223.151897
1223.151771
1223.151752
1223.151866
1223.151883
1223.15205
1223.152018
1223.152182
1223.152003
1223.152028
1223.152046
1223.148749
1223.148737
1223.14864
1223.148585
1223.148706
1223.148781
1223.148612
1223.148685
1223.148631
1223.148613
1223.148675
1223.148695
1223.148688
1223.148672
1223.153067
1223.152823
1223.152925
1223.153015
1223.152977
1223.153008
1223.153048
1223.153147
1223.153165
1223.15317
1223.153313
1223.153145
1223.153111
1223.153174
1223.146627
1223.146701
1223.146833
1223.146916
1223.146905
1223.14696
1223.146866
1223.146811
1223.146863
1223.146977
1223.146953
1223.146996
1223.147125
1223.147073
1223.154272
1223.154315
1223.154268
1223.154384
1223.154404
1223.15447
1223.154328
1223.154261
1223.1543
1223.154411
1223.154312
1223.15433
1223.154174
1223.15411
1223.149696
1223.149833
1223.149886
1223.149943
1223.149829
1223.149888
1223.150059
1223.149933
1223.149842
1223.149832
1223.149773
1223.149751
1223.149656
1223.149761
1223.148353
1223.148378
1223.148281
1223.148221
1223.147965
1223.148182
1223.148138
1223.14827
1223.148321
1223.148172
1223.148346
1223.148433
1223.148534
1223.148366
1223.148477
1223.152777
1223.152772
1223.152735
1223.152769
1223.152796
1223.152773
1223.152787
1223.152905
1223.153018
1223.153004
1223.15297
1223.152829
1223.152925
1223.153026
1223.152841
1223.15179
1223.151787
1223.151931
1223.15179
1223.151842
1223.151607
1223.151632
1223.151656
1223.151667
1223.151647
1223.15181
1223.15187
1223.151854
1223.1519
1223.151976
1223.147462
1223.147366
1223.147413
1223.147481
1223.147519
1223.147445
1223.147425
1223.147372
1223.147423
1223.147353
1223.147338
1223.147439
1223.147353
1223.147415
1223.154805
1223.154738
1223.154739
1223.154671
1223.154636
1223.15475
1223.154986
1223.154887
1223.154764
1223.154735
1223.154836
1223.154612
1223.154826
1223.155022
1223.148081
1223.148001
1223.148206
1223.148221
1223.148148
1223.148245
1223.14821
1223.148324
1223.148395
1223.148425
1223.148523
1223.1485
1223.148572
1223.148498
1223.151172
1223.151064
1223.150949
1223.150892
1223.150951
1223.151007
1223.150897
1223.150783
1223.150635
1223.150653
1223.15062
1223.150583
1223.150637
1223.150459
1223.15033
1223.150132
1223.150056
1223.150023
1223.149979
1223.149985
1223.150085
1223.150211
1223.150295
1223.150272
1223.150346
1223.150362
1223.150404
1223.150471
1223.154429
1223.154443
1223.15443
1223.154452
1223.15438
1223.154457
1223.154617
1223.154601
1223.154619
1223.154709
1223.154685
1223.15487
1223.154873
1223.154897
1223.152837
1223.152856
1223.152823
1223.152601
1223.152585
1223.152764
1223.152835
1223.15266
1223.152594
1223.152555
1223.152343
1223.152524
1223.152604
1223.152567
1223.146986
1223.146968
1223.146928
1223.146954
1223.147125
1223.147099
1223.147128
1223.14704
1223.14707
1223.14711
1223.14695
1223.147116
1223.147157
1223.147176
1223.147406
1223.146085
1223.146175
1223.146178
1223.14609
1223.1461
1223.146226
1223.14607
1223.145885
1223.145872
1223.145931
1223.145808
1223.145792
1223.145918
1223.145983
1223.146037
1223.150925
1223.151092
1223.151196
1223.151157
1223.151148
1223.151131
1223.1511
1223.150956
1223.150881
1223.150961
1223.150966
1223.150905
1223.150936
1223.151059
1223.14711
1223.147149
1223.147132
1223.14724
1223.147264
1223.147224
1223.147196
1223.147306
1223.147325
1223.147254
1223.14736
1223.147313
1223.147173
1223.147191
1223.153906
1223.153979
1223.15406
1223.154079
1223.154292
1223.154256
1223.154104
1223.154009
1223.154083
1223.153923
1223.154035
1223.154048
1223.154274
1223.154424
1223.14893
1223.148847
1223.149009
1223.148995
1223.148993
1223.148964
1223.148997
1223.149201
1223.149119
1223.14907
1223.148941
1223.148975
1223.148889
1223.14893
1223.154064
1223.154002
1223.154028
1223.153982
1223.154032
1223.15395
1223.154005
1223.154006
1223.154012
1223.154071
1223.154066
1223.154014
1223.154166
1223.154116
1223.147946
1223.1479
1223.1478
1223.148007
1223.148132
1223.148212
1223.148238
1223.148269
1223.148286
1223.148358
1223.148195
1223.148265
1223.148211
1223.148312
1223.148515
1223.148514
1223.148606
1223.148727
1223.148622
1223.148504
1223.148548
1223.148479
1223.148475
1223.148623
1223.148694
1223.148663
1223.148538
1223.148344
1223.145679
1223.145797
1223.145702
1223.145783
1223.145716
1223.145789
1223.145935
1223.146028
1223.145938
1223.146038
1223.146151
1223.146242
1223.146231
1223.146249
1223.151537
1223.151494
1223.151453
1223.151557
1223.151643
1223.151769
1223.151971
1223.151912
1223.151932
1223.151942
1223.15191
1223.151913
1223.151966
1223.152011
1223.151926
1223.152362
1223.152344
1223.152469
1223.152365
1223.152535
1223.152504
1223.152503
1223.152415
1223.152342
1223.152243
1223.152235
1223.152269
1223.152306
1223.152368
1223.147916
1223.14806
1223.14801
1223.14818
1223.148144
1223.14829
1223.148204
1223.148161
1223.148042
1223.148192
1223.148182
1223.148192
1223.148188
1223.148177
1223.153746
1223.153608
1223.153647
1223.153718
1223.153721
1223.153655
1223.153738
1223.153843
1223.153765
1223.153864
1223.153679
1223.153731
1223.153834
1223.1539
1223.141441
1223.141371
1223.141494
1223.141432
1223.141397
1223.141659
1223.141573
1223.141597
1223.141487
1223.141606
1223.141667
1223.141584
1223.141769
1223.141725
1223.146256
1223.146411
1223.146335
1223.14625
1223.146236
1223.146279
1223.146155
1223.146257
1223.146275
1223.146296
1223.146178
1223.146229
1223.146153
1223.146283
1223.150843
1223.150859
1223.150734
1223.150732
1223.150591
1223.150426
1223.150437
1223.150516
1223.150562
1223.150571
1223.150609
1223.150523
1223.15065
1223.150659
1223.149101
1223.149122
1223.14908
1223.149175
1223.149349
1223.14939
1223.149399
1223.149395
1223.149513
1223.149425
1223.149397
1223.149451
1223.149424
1223.149389
1223.150519
1223.150675
1223.150384
1223.150491
1223.150568
1223.150428
1223.150387
1223.150325
1223.150201
1223.150321
1223.150313
1223.150325
1223.150235
1223.150164
1223.148627
1223.148543
1223.148479
1223.148435
1223.14837
1223.148408
1223.148521
1223.148521
1223.148467
1223.148424
1223.14843
1223.148452
1223.148427
1223.148507
)
;

boundaryField
{
    top
    {
        type            zeroGradient;
    }
    bottom
    {
        type            zeroGradient;
    }
    side-walls
    {
        type            zeroGradient;
    }
    inlet
    {
        type            zeroGradient;
    }
    outlet
    {
        type            zeroGradient;
    }
    procBoundary0to1
    {
        type            processor;
        value           nonuniform List<scalar> 
97
(
1223.149509
1223.149014
1223.143633
1223.148941
1223.146711
1223.152929
1223.152427
1223.149958
1223.151793
1223.153653
1223.149014
1223.149014
1223.150582
1223.143739
1223.158841
1223.147107
1223.155499
1223.14247
1223.15803
1223.145214
1223.154776
1223.149292
1223.143739
1223.143739
1223.146475
1223.146688
1223.149903
1223.144348
1223.145228
1223.151807
1223.155411
1223.141737
1223.151966
1223.154576
1223.146688
1223.146688
1223.155389
1223.152827
1223.15775
1223.145382
1223.150684
1223.139973
1223.145644
1223.151528
1223.146669
1223.14817
1223.152827
1223.152827
1220.500215
1223.153328
1223.152637
1223.149892
1223.153336
1223.153479
1223.155957
1223.151826
1223.148788
1223.153071
1223.147171
1223.153328
1223.149892
1223.149892
1223.148406
1223.152726
1223.152724
1223.151867
1223.147518
1223.155141
1223.148443
1223.150645
1223.150304
1223.154869
1223.152726
1223.152726
1223.147462
1223.14644
1223.145914
1223.151031
1223.147363
1223.15436
1223.14896
1223.154135
1223.148296
1223.148107
1223.14644
1223.14644
1223.151925
1223.148563
1223.152304
1223.148113
1223.154093
1223.141837
1223.146178
1223.150494
1223.149404
1223.150295
1223.148563
)
;
    }
}


// ************************************************************************* //
