/*--------------------------------*- C++ -*----------------------------------*\
| =========                 |                                                 |
| \\      /  F ield         | OpenFOAM: The Open Source CFD Toolbox           |
|  \\    /   O peration     | Version:  4.x                                   |
|   \\  /    A nd           | Web:      www.OpenFOAM.org                      |
|    \\/     M anipulation  |                                                 |
\*---------------------------------------------------------------------------*/
FoamFile
{
    version     2.0;
    format      ascii;
    class       volVectorField;
    location    "11000";
    object      U;
}
// * * * * * * * * * * * * * * * * * * * * * * * * * * * * * * * * * * * * * //

dimensions      [0 1 -1 0 0 0 0];

internalField   nonuniform List<vector> 
1175
(
(0.01099999975 5.558130536e-10 -2.538474169e-10)
(0.01099999981 1.208218371e-09 -3.61950202e-10)
(0.01100000155 1.903560378e-10 -2.041665973e-09)
(0.0110000009 -1.105569996e-09 1.639897529e-09)
(0.01100000227 -1.210571128e-09 1.076807227e-09)
(0.01100000284 -1.153771052e-09 -6.953368655e-10)
(0.01100000637 1.439127491e-10 1.442986456e-09)
(0.01100000608 -1.675657026e-09 -1.145888564e-09)
(0.01100001349 4.858388921e-10 -2.000156217e-09)
(0.01100001873 4.707812563e-10 -5.047593909e-09)
(0.01100003038 -2.041873815e-09 -3.250618781e-09)
(0.01100004006 -4.465980972e-09 -4.1774051e-09)
(0.01100006446 -7.402717929e-09 -4.918429929e-09)
(0.01100007533 -5.63323587e-09 -3.637692152e-09)
(0.01100010689 -8.776179643e-09 -7.840066665e-09)
(0.01100000046 -2.441899227e-10 -8.203825706e-10)
(0.01099999985 -1.853691394e-09 -2.805415036e-09)
(0.01100000028 -7.76530365e-10 -1.665134544e-09)
(0.0110000018 -6.553536288e-10 -8.181207081e-10)
(0.01100000147 4.202925849e-10 -1.005260996e-09)
(0.01100000208 -3.026778098e-10 -1.082603817e-09)
(0.01100000224 -1.654619775e-09 -4.207837848e-10)
(0.01100000575 -1.871787289e-09 7.842622062e-11)
(0.01100001064 -2.487539495e-09 -8.458480654e-10)
(0.01100001679 -5.090398273e-09 -1.633978333e-09)
(0.01100002755 -7.490457647e-09 -2.270026344e-09)
(0.01100003735 -1.387442853e-08 -4.436833815e-09)
(0.01100006257 -2.049462506e-08 -4.420953449e-09)
(0.01100007136 -2.04451257e-08 -4.325091534e-09)
(0.0110001128 -3.809118348e-08 -1.120315146e-08)
(0.01099999912 2.341150501e-10 2.124899056e-10)
(0.0109999994 -1.059204433e-09 8.596389463e-10)
(0.01100000161 -1.997026045e-09 2.600060841e-10)
(0.01100000056 7.927880613e-10 7.736041733e-10)
(0.01099999992 6.041751485e-10 1.782893569e-10)
(0.01099999961 -1.839619342e-09 -1.252038296e-09)
(0.01100000246 -1.872289946e-09 1.574439865e-09)
(0.01100000422 -3.665519982e-09 -2.274042e-09)
(0.01100000652 -4.127760291e-09 -4.061203559e-09)
(0.01100001309 -5.608978399e-09 -4.760271643e-09)
(0.01100001922 -8.80473251e-09 -7.741439775e-09)
(0.01100002534 -1.493830964e-08 -1.038800797e-08)
(0.01100005388 -1.853950421e-08 -9.045135028e-09)
(0.01100005556 -1.846959449e-08 -1.317298478e-08)
(0.01100012035 -4.168751966e-08 -2.983117692e-08)
(0.01099999926 -1.348702872e-09 -4.029518083e-10)
(0.01100000172 -2.647893398e-11 1.335749552e-09)
(0.01100000075 -4.545528644e-10 6.259572161e-10)
(0.01099999978 1.821178618e-10 -2.175317094e-09)
(0.01100000034 -1.678064117e-09 4.969090512e-10)
(0.01100000184 -1.017922911e-09 -1.610558967e-09)
(0.0110000011 -1.141210487e-09 7.980202054e-10)
(0.01100000455 -1.294674111e-09 -2.111332766e-09)
(0.01100000484 -3.043092205e-09 -2.120426858e-09)
(0.01100001146 -6.120484012e-09 -3.666262547e-09)
(0.01100001653 -1.09479394e-08 -5.059769169e-09)
(0.01100002446 -2.052412618e-08 -9.794373846e-09)
(0.01100005567 -3.008539615e-08 -7.678780459e-09)
(0.01100004894 -4.547553583e-08 -9.539996595e-09)
(0.01100013107 -7.99000237e-08 -3.357051123e-08)
(0.01100000018 -4.089050654e-10 -7.83476378e-10)
(0.0109999996 7.299727944e-10 4.466090508e-10)
(0.01100000115 2.142811362e-11 -8.716760897e-10)
(0.01100000106 -2.485561872e-09 -1.363177028e-09)
(0.01100000104 -1.327745882e-09 -1.208813234e-10)
(0.01099999942 -3.326029752e-10 -2.020791391e-09)
(0.01100000081 8.609173635e-11 -1.789875758e-09)
(0.01100000146 4.662277713e-10 -4.463946299e-09)
(0.01100000117 1.662538939e-09 -4.131520601e-09)
(0.01100000144 1.118097028e-09 -5.172493448e-09)
(0.01100000235 2.881664577e-10 -8.986231224e-09)
(0.01100000665 -5.192200657e-10 -2.338528185e-08)
(0.01100002457 -1.226761915e-09 -2.439851417e-08)
(0.01100000815 -2.749577434e-09 -5.284739694e-08)
(0.01100016494 -2.19868047e-09 -1.07813079e-07)
(0.01100000083 6.3701588e-10 -4.265744308e-10)
(0.01099999943 -1.726111281e-09 1.066297949e-11)
(0.01099999868 1.74263244e-11 3.389753515e-11)
(0.01100000054 -8.15338129e-10 -2.389476722e-10)
(0.01099999815 -7.101607503e-11 -6.121216665e-10)
(0.01099999893 1.115541086e-09 5.572249034e-10)
(0.01100000226 8.925456303e-10 5.383509759e-10)
(0.01100000345 1.511029445e-09 -1.956103267e-09)
(0.01100000663 3.319729931e-09 -1.908567087e-09)
(0.01100000875 6.00829321e-09 -3.807582294e-09)
(0.01100001667 9.261901476e-09 -4.481083592e-09)
(0.0110000241 2.100323238e-08 -9.953475466e-09)
(0.01100005347 2.903247414e-08 -6.956664228e-09)
(0.01100004917 4.306253775e-08 -8.705880406e-09)
(0.01100013408 7.900759097e-08 -3.207350487e-08)
(0.01099999929 -3.797669001e-10 -1.630447283e-09)
(0.01099999922 1.576197735e-09 -8.675586064e-12)
(0.01099999857 -4.513935273e-10 -1.450573584e-10)
(0.01100000071 -5.379827812e-10 5.803033154e-10)
(0.01100000203 -1.875230299e-09 -5.693834459e-10)
(0.01100000292 2.515032795e-10 -1.254353716e-09)
(0.01100000244 9.524333729e-10 -2.288801851e-09)
(0.01100000371 2.639922902e-09 -2.48369884e-09)
(0.01100000956 3.408707472e-09 1.322200605e-09)
(0.01100001053 5.231240094e-09 -3.458670428e-09)
(0.01100002031 8.742704316e-09 -1.98598902e-09)
(0.01100002719 1.416177017e-08 -8.500532196e-09)
(0.01100005175 1.803763824e-08 -8.777554804e-09)
(0.01100005659 1.773482137e-08 -1.173466274e-08)
(0.01100012433 4.144308965e-08 -2.830272948e-08)
(0.01099999913 5.204048644e-10 -4.150711999e-10)
(0.01099999888 -5.400442854e-10 2.228543516e-09)
(0.01099999879 6.065184558e-10 6.079401126e-10)
(0.011000001 -7.684446494e-10 4.369257491e-11)
(0.01100000379 1.444463507e-09 1.544090304e-09)
(0.0110000023 1.4936928e-09 -9.091932186e-10)
(0.01100000541 2.484210418e-09 -8.127184406e-10)
(0.01100000947 4.986869681e-09 -1.613190152e-09)
(0.01100001044 4.325504071e-09 -2.903531178e-09)
(0.01100001765 6.954633292e-09 -2.386820956e-09)
(0.01100002648 9.405233566e-09 -2.728855905e-09)
(0.01100003502 1.406017232e-08 -4.416790003e-09)
(0.011000061 2.055117022e-08 -7.097607219e-09)
(0.01100007194 2.159487113e-08 -3.887302452e-09)
(0.01100011064 3.861724814e-08 -1.065324319e-08)
(0.0109999983 7.910527427e-10 7.589637618e-10)
(0.01100000097 2.317577338e-10 -4.975117247e-10)
(0.01100000017 9.638597364e-10 -4.209343801e-09)
(0.01100000077 1.697162468e-09 8.04072945e-10)
(0.01100000201 1.27787135e-09 1.727287837e-09)
(0.0110000037 1.313538495e-10 1.516378989e-09)
(0.0110000069 2.704583677e-09 7.754957866e-11)
(0.01100000881 1.517610631e-09 -2.237142764e-09)
(0.01100001351 7.881842902e-10 -2.483703405e-09)
(0.01100001764 2.864833535e-09 1.749333045e-09)
(0.01100002786 2.2172889e-09 -6.690230059e-10)
(0.01100003935 4.827271963e-09 -2.788766053e-09)
(0.01100006259 4.644937007e-09 -7.361321744e-09)
(0.01100007622 5.388426488e-09 -4.416249353e-09)
(0.01100010862 6.821036865e-09 -8.665056517e-09)
(0.01099999913 -2.926574608e-10 -1.560859106e-10)
(0.01100000004 3.02929276e-09 -5.556290414e-10)
(0.01100000203 -2.423485638e-10 -1.580141198e-09)
(0.01100000144 -8.537710831e-10 -4.50893361e-10)
(0.01100000057 -1.420035318e-09 -4.417896908e-10)
(0.01100000097 -6.833697969e-10 -1.209118213e-09)
(0.01100000431 -2.127166792e-09 -1.604607773e-09)
(0.01100000645 -1.062823784e-11 -2.347968812e-09)
(0.01100001034 -1.910023973e-09 -2.180407323e-09)
(0.01100001727 -2.551292942e-09 -4.830641367e-09)
(0.01100002691 -2.878634121e-09 -8.90698178e-09)
(0.01100003677 -5.676504472e-09 -1.377598233e-08)
(0.01100006242 -6.592706078e-09 -2.127093162e-08)
(0.01100006981 -4.6926469e-09 -2.198447795e-08)
(0.01099999992 3.176055893e-10 -4.098518923e-11)
(0.01100000026 -8.921906033e-10 5.019258857e-10)
(0.01099999903 4.450707133e-10 -3.603759603e-10)
(0.01100000041 2.186855182e-11 -4.813702946e-10)
(0.01100000286 -1.25174771e-09 7.079483385e-11)
(0.01099999993 -3.161286725e-10 -4.221902318e-10)
(0.0110000043 -1.367482114e-09 -1.444004543e-09)
(0.01100000662 -3.153207589e-09 -2.962333482e-09)
(0.01100000869 -3.729496208e-09 -2.558161869e-09)
(0.01100001511 -7.787521824e-09 -6.652450569e-09)
(0.01100002346 -9.033452201e-09 -9.667540035e-09)
(0.01100003497 -1.700093108e-08 -1.687190387e-08)
(0.01100005804 -2.540283653e-08 -2.464310466e-08)
(0.01100006568 -3.000862521e-08 -2.746475043e-08)
(0.01100012142 -5.721649871e-08 -5.747922617e-08)
(0.01100000168 7.105319118e-10 -7.971050187e-10)
(0.0110000002 -7.745323735e-10 -1.343879953e-10)
(0.01099999974 -2.523645248e-10 1.228841113e-11)
(0.01099999927 4.532871605e-10 -2.963069549e-10)
(0.01099999985 1.808404208e-09 8.843118349e-10)
(0.01099999875 -2.157221843e-09 1.844778328e-10)
(0.01100000244 -1.093507486e-09 4.711149488e-10)
(0.01100000405 -3.282717999e-09 -3.365389849e-09)
(0.0110000037 -4.156852346e-09 -3.788660347e-09)
(0.01100000743 -7.928199466e-09 -1.004502946e-08)
(0.01100001384 -1.175281539e-08 -1.428857288e-08)
(0.01100002157 -1.986574698e-08 -3.124490623e-08)
(0.0110000464 -1.993546961e-08 -3.932757183e-08)
(0.01100003906 -2.194610442e-08 -6.269999272e-08)
(0.01100013992 -6.18760962e-08 -1.355695014e-07)
(0.01100000013 -7.808263609e-10 -2.71653403e-10)
(0.01099999777 -5.365635643e-10 -3.349565164e-10)
(0.01100000183 -2.697082582e-10 7.195353691e-10)
(0.01099999979 -1.322900009e-09 -2.790927673e-10)
(0.01099999847 -1.547283575e-09 -1.082884781e-10)
(0.011000002 -6.079046006e-11 -2.038414848e-09)
(0.0110000017 -1.742176942e-09 -2.097876655e-09)
(0.01100000123 -3.089936001e-09 -4.200374015e-09)
(0.01100000303 -3.840861907e-09 -4.664162245e-09)
(0.01100000668 -9.640707345e-09 -1.344356867e-08)
(0.01100000942 -1.391108596e-08 -1.31811173e-08)
(0.01100002349 -3.459079066e-08 -3.899969068e-08)
(0.01100005127 -4.583173391e-08 -3.862069497e-08)
(0.01100002851 -8.390478768e-08 -7.951644228e-08)
(0.01100015312 -1.606744797e-07 -1.9323127e-07)
(0.01099999985 -3.09281481e-10 -2.226751871e-10)
(0.01099999746 1.359193708e-10 -3.483002124e-10)
(0.01100000307 -5.901244592e-10 4.499795353e-10)
(0.01100000019 -1.757773422e-10 -1.786973891e-10)
(0.01100000245 8.366050885e-11 -7.836922274e-10)
(0.01099999986 5.13405407e-10 -2.83583082e-09)
(0.01099999898 1.530630277e-10 -3.161980511e-09)
(0.01099999926 -1.187909515e-09 -6.191109287e-09)
(0.01099999727 -2.020575614e-10 -5.663241492e-09)
(0.01099999784 2.135048212e-10 -2.126983721e-08)
(0.01099998806 5.696872349e-10 -2.511196445e-08)
(0.01099999078 4.209868921e-10 -8.116215071e-08)
(0.01099998669 -9.601463711e-10 -9.315425366e-08)
(0.01099993691 -9.778250982e-10 -2.707879918e-07)
(0.01100023709 -1.00841127e-09 -5.362098508e-07)
(0.01100000006 -9.746265653e-10 1.182608395e-09)
(0.01099999918 -1.048745622e-09 -2.306935903e-10)
(0.0110000022 7.186934182e-10 5.46465269e-10)
(0.01100000074 -5.95965442e-10 8.685961461e-12)
(0.01099999939 -7.02738213e-10 -1.151275403e-09)
(0.01099999935 1.160118659e-09 -1.623938897e-09)
(0.01100000019 2.750532081e-10 -2.002506795e-09)
(0.01100000446 2.483860727e-09 -4.165022338e-09)
(0.01100000372 3.899913974e-09 -5.373796365e-09)
(0.01100000557 1.010572506e-08 -1.430181431e-08)
(0.01100001056 1.404517808e-08 -1.380444466e-08)
(0.0110000211 3.368379879e-08 -3.949634488e-08)
(0.01100005296 4.233215652e-08 -3.834927295e-08)
(0.01100003219 8.190932865e-08 -7.697680828e-08)
(0.01100015379 1.591001291e-07 -1.907328122e-07)
(0.01099999942 7.802523875e-11 2.897460706e-10)
(0.01100000137 8.79737369e-10 -8.389572155e-10)
(0.01099999929 -8.415275321e-10 2.240205174e-10)
(0.01100000021 4.903176327e-10 -1.628938319e-10)
(0.01100000147 1.043651273e-09 -3.241324385e-10)
(0.01099999997 5.742547525e-11 -8.7184629e-10)
(0.01099999994 1.153296952e-09 -2.39648646e-09)
(0.01100000401 3.904645058e-09 -3.679727879e-09)
(0.01100000595 2.566925699e-09 -5.736096784e-09)
(0.01100001004 6.393387031e-09 -9.90919175e-09)
(0.01100001122 8.383643514e-09 -1.306287779e-08)
(0.01100001731 1.751840231e-08 -3.011304542e-08)
(0.0110000468 2.022044547e-08 -4.018495996e-08)
(0.01100003936 2.089087062e-08 -6.237209846e-08)
(0.01100014102 6.312568057e-08 -1.351524866e-07)
(0.0110000003 1.405300444e-09 2.08817925e-10)
(0.01100000028 9.691918589e-10 2.757477998e-11)
(0.01099999971 -6.533200325e-10 -1.125440658e-09)
(0.01100000108 -3.713565301e-11 -5.480119391e-10)
(0.01100000131 3.624722558e-10 4.081745348e-10)
(0.01100000204 8.296041922e-10 3.825618767e-10)
(0.01100000357 7.757816016e-10 -9.051426238e-10)
(0.01100000498 3.772206943e-09 -3.730691133e-09)
(0.01100000968 4.915182106e-09 -4.206222163e-09)
(0.01100001529 7.605386192e-09 -8.009792804e-09)
(0.01100002129 1.074647868e-08 -9.702302479e-09)
(0.01100003341 1.744656406e-08 -1.782194075e-08)
(0.0110000608 2.407214283e-08 -2.440650933e-08)
(0.01100006563 3.009186412e-08 -2.675862467e-08)
(0.01100012238 5.848198754e-08 -5.705856914e-08)
(0.01099999959 1.455555837e-09 4.049032323e-10)
(0.01099999705 1.658907502e-09 1.081265992e-09)
(0.01099999974 1.021277389e-09 -4.096266671e-10)
(0.01100000014 4.804624915e-10 -8.40183136e-10)
(0.01100000191 -1.226801207e-09 -1.007880226e-09)
(0.01100000165 -4.989697862e-10 4.379621024e-10)
(0.01100000519 5.349806703e-10 -1.453938526e-09)
(0.01100000642 6.296531188e-10 -2.742045149e-09)
(0.01100001175 2.904686549e-09 -3.561725214e-09)
(0.01100001525 3.40940563e-09 -6.37117936e-09)
(0.01100002751 4.375742548e-09 -7.592061613e-09)
(0.01100003673 4.958243116e-09 -1.24209935e-08)
(0.01100006211 5.50095346e-09 -1.988024667e-08)
(0.01100007176 5.59491432e-09 -2.008358452e-08)
(0.0110001137 1.040335624e-08 -3.560514581e-08)
(0.01099999987 3.63996198e-10 -1.769269557e-10)
(0.0110000006 -2.831200695e-10 1.416362262e-09)
(0.01099999954 1.546154942e-09 3.379223188e-10)
(0.01100000219 -2.004224786e-09 -7.616398873e-11)
(0.01100000064 -2.254213967e-10 -4.177302755e-10)
(0.01100000133 3.559583025e-09 6.731038368e-11)
(0.01100000445 -2.014985702e-09 -1.684243203e-09)
(0.01100000473 -5.374817107e-10 -2.573286384e-09)
(0.0110000078 1.050542166e-09 -4.547587262e-09)
(0.01100001166 -2.967071544e-09 -7.404763164e-09)
(0.01100001895 -2.173248568e-09 -9.88347902e-09)
(0.01100002685 -6.572148161e-09 -1.634386312e-08)
(0.01100005152 -1.135244694e-08 -2.082322841e-08)
(0.01100005684 -1.060938366e-08 -2.143719411e-08)
(0.01099999843 -9.607937597e-11 1.777781119e-10)
(0.01100000113 9.468848307e-11 2.329252946e-10)
(0.01099999986 -5.126138081e-10 9.493209403e-10)
(0.01100000104 3.121701734e-10 -6.097145579e-11)
(0.01100000124 8.184250807e-11 -4.402393775e-10)
(0.01100000162 2.966923449e-10 -1.229248871e-09)
(0.01100000246 -1.202481652e-09 -2.071048466e-09)
(0.01100000482 -1.336384128e-09 -3.499131286e-09)
(0.01100000183 -4.707691315e-09 -3.466568323e-09)
(0.01100000804 -1.104389328e-08 -8.443598698e-09)
(0.01100001397 -1.528655085e-08 -1.142495504e-08)
(0.01100002121 -3.090216435e-08 -2.063788086e-08)
(0.0110000457 -4.016654866e-08 -2.189187272e-08)
(0.01100003913 -6.328886386e-08 -2.368573928e-08)
(0.0109999997 -4.043252633e-11 -6.416193921e-10)
(0.01100000038 -2.812433194e-09 3.657073149e-11)
(0.01100000077 8.725445923e-10 -8.959172004e-10)
(0.01099999766 -8.481633742e-10 -7.13222913e-10)
(0.0109999995 -1.709559604e-10 -1.818012152e-09)
(0.01100000086 -2.286605234e-09 -2.906036665e-09)
(0.01100000008 -9.988549933e-10 -3.121406718e-09)
(0.01100000047 -3.897290442e-09 -7.080046642e-09)
(0.01099999855 -4.531479911e-09 -6.395690091e-09)
(0.01099999984 -1.487465023e-08 -1.35408592e-08)
(0.01099999637 -1.38368597e-08 -1.374704285e-08)
(0.01099999867 -3.636497377e-08 -3.849912407e-08)
(0.01100000837 -3.330390812e-08 -3.456746026e-08)
(0.0109999684 -6.947394362e-08 -6.990282374e-08)
(0.01100017308 -1.749699137e-07 -1.802474687e-07)
(0.01100000078 8.745112517e-10 -3.04610917e-10)
(0.01100000059 9.133692472e-11 1.372136709e-09)
(0.01099999878 -2.704564957e-10 1.097101064e-09)
(0.01100000023 -4.404741663e-10 -2.16286899e-09)
(0.01099999904 -5.873844584e-10 -2.490921396e-09)
(0.01100000015 -2.09155809e-09 -1.315637374e-09)
(0.01099999804 -3.624389112e-09 -2.308912222e-09)
(0.01099999946 -4.516315314e-09 -5.566664131e-09)
(0.01099999241 -6.308787752e-09 -5.6108214e-09)
(0.01099999988 -1.644578969e-08 -1.738254869e-08)
(0.01099998751 -2.090532093e-08 -1.064525884e-08)
(0.01100000122 -7.344229432e-08 -4.431490492e-08)
(0.01099998916 -8.751834031e-08 -5.078248387e-11)
(0.01099994198 -2.581386306e-07 -4.835054814e-08)
(0.01100016347 -4.915309312e-07 -2.059728443e-07)
(0.01099999983 -3.155221804e-10 6.778735072e-10)
(0.01099999926 -3.142755167e-10 -4.381825102e-10)
(0.01099999869 7.005594108e-11 7.368242679e-10)
(0.01100000139 -8.793604411e-10 7.86131865e-10)
(0.01099999894 -1.513738901e-09 -7.052876304e-10)
(0.01099999928 -1.935988764e-09 -1.525704959e-09)
(0.01099999554 9.342079076e-10 -2.723784622e-09)
(0.01099999858 5.490380945e-10 -7.170293148e-09)
(0.0109999825 4.016705391e-10 -9.817122937e-09)
(0.01099998353 4.201716687e-10 -2.935168375e-08)
(0.0109999335 -1.09007033e-09 -2.635561271e-08)
(0.01099993316 1.560947156e-10 -1.26681062e-07)
(0.01099977987 5.76685444e-11 -8.419876164e-08)
(0.01099965755 -4.066911808e-10 -5.057126978e-07)
(0.01100029767 6.585384907e-10 -9.293581483e-07)
(0.01100000054 -3.596325883e-10 1.488178058e-09)
(0.01099999999 2.987277811e-10 1.037034601e-09)
(0.01099999855 -4.842511071e-11 5.006850068e-11)
(0.01099999771 -1.194397377e-09 2.300343054e-10)
(0.01099999878 -5.297824302e-11 3.132271999e-10)
(0.01100000077 2.251490322e-09 -1.878983525e-09)
(0.01099999915 2.083195469e-09 -2.458531673e-09)
(0.01099999908 4.195832948e-09 -4.494295857e-09)
(0.01099999277 4.122878925e-09 -7.74548081e-09)
(0.01099999963 1.721115602e-08 -1.672194384e-08)
(0.01099998739 2.292717674e-08 -9.389195976e-09)
(0.01100000139 7.161957136e-08 -4.430678069e-08)
(0.01099998935 8.477995233e-08 1.048203517e-09)
(0.01099994547 2.566823907e-07 -4.784569614e-08)
(0.01100016282 4.914188831e-07 -2.047326222e-07)
(0.01099999889 1.000131918e-09 1.212174603e-09)
(0.01099999932 2.279580087e-11 1.224791963e-09)
(0.01100000073 -1.332067535e-09 2.159054717e-10)
(0.01099999979 -2.373222953e-10 9.748818098e-10)
(0.01099999932 1.161587737e-09 2.087431323e-10)
(0.01100000069 1.702259994e-09 -2.80902929e-09)
(0.01100000032 7.632722183e-10 -2.941657394e-10)
(0.01100000215 3.021916577e-09 -3.859812384e-09)
(0.01099999685 5.021112056e-09 -7.119264654e-09)
(0.01100000087 1.340962309e-08 -1.400388679e-08)
(0.01099999648 1.376042356e-08 -1.272791912e-08)
(0.01099999618 3.682468332e-08 -3.679631591e-08)
(0.01100000816 3.499752197e-08 -3.235871244e-08)
(0.0109999715 6.975311315e-08 -6.711546922e-08)
(0.01100017328 1.78827382e-07 -1.77584876e-07)
(0.01100000044 -1.453963176e-10 2.608859517e-10)
(0.01099999801 2.583318195e-09 -1.136986309e-09)
(0.01099999893 -9.544554789e-10 -7.329083861e-10)
(0.01099999959 8.098813941e-10 -1.062554014e-09)
(0.01100000139 5.278421342e-10 -2.319994468e-09)
(0.01100000014 2.731895677e-10 -1.076389094e-09)
(0.01100000138 2.182765176e-09 4.457333202e-10)
(0.01100000377 3.419335163e-09 -3.458888562e-09)
(0.01100000321 5.184232806e-09 -4.381304242e-09)
(0.01100000811 1.015078442e-08 -9.055527395e-09)
(0.01100001366 1.25305593e-08 -9.181085392e-09)
(0.01100002212 3.16173265e-08 -1.827953471e-08)
(0.01100004575 4.052149788e-08 -1.794055347e-08)
(0.01100003783 6.264470305e-08 -2.189283861e-08)
(0.01100013877 1.351841673e-07 -6.260917461e-08)
(0.01099999959 1.345806768e-09 -1.091011531e-09)
(0.01099999804 1.877120503e-10 3.554159592e-11)
(0.0109999982 1.392213909e-10 4.436246359e-10)
(0.01100000046 5.070358626e-11 -1.140549803e-09)
(0.01100000309 -1.768240124e-09 -1.717882337e-09)
(0.01099999918 5.767637917e-10 -3.187290406e-09)
(0.01100000445 1.162235604e-09 -1.152187175e-09)
(0.01100000509 1.241692771e-09 -3.182359111e-09)
(0.01100000839 2.613113671e-09 -3.895980311e-09)
(0.01100001216 3.998631525e-09 -6.995509206e-09)
(0.01100001932 4.142004424e-09 -9.680257816e-09)
(0.01100002787 1.027787657e-08 -1.4966308e-08)
(0.01100005201 9.431499947e-09 -1.694044646e-08)
(0.01100005567 1.131396945e-08 -1.892309709e-08)
(0.01100012194 2.792860301e-08 -4.12947073e-08)
(0.01100000026 -8.905255674e-10 2.522436869e-12)
(0.01099999866 -3.779261576e-09 -2.176612841e-09)
(0.01099999991 -1.465546065e-09 -1.270294057e-10)
(0.01100000226 7.12433116e-10 -1.32596278e-09)
(0.01100000269 -6.851556551e-10 -8.967113261e-10)
(0.01100000215 -4.858550031e-10 9.827888216e-11)
(0.01100000159 -2.636486283e-09 7.674496385e-11)
(0.01100000173 6.119739743e-11 -2.193293594e-09)
(0.0110000073 -3.460425129e-10 -4.555511737e-09)
(0.01100000982 -4.632203698e-09 -5.864187087e-09)
(0.01100001474 -4.270984493e-09 -1.002321241e-08)
(0.01100002458 -8.939512591e-09 -2.139155575e-08)
(0.01100005339 -3.133247292e-09 -3.083219684e-08)
(0.0110000523 -6.791956523e-09 -4.495529016e-08)
(0.01099999937 -1.217002326e-10 -3.227242599e-10)
(0.01099999931 -4.622604333e-10 -3.64655739e-10)
(0.01099999991 -2.854375271e-10 -4.989281115e-10)
(0.01100000051 9.41567858e-10 -3.731602686e-10)
(0.01100000045 -7.849955899e-10 -1.769337417e-09)
(0.01100000236 -2.060612603e-09 -1.270758138e-09)
(0.0110000018 -2.142403105e-09 -1.692607655e-09)
(0.01100000174 -4.726475909e-09 -3.180330163e-09)
(0.01100000115 -3.964948388e-09 -4.517733111e-09)
(0.01100000965 -1.328715112e-08 -9.257356897e-09)
(0.0110000079 -1.344380413e-08 -1.27550802e-08)
(0.0110000237 -3.814507673e-08 -3.433518983e-08)
(0.01100004972 -3.790593324e-08 -4.296288476e-08)
(0.01100003136 -7.511116513e-08 -8.505365605e-08)
(0.01099999982 1.430126406e-11 -7.386090056e-10)
(0.01099999987 -4.37055678e-10 1.352169276e-09)
(0.01099999848 -4.82493466e-10 7.431720485e-10)
(0.01099999929 -7.96952304e-10 -1.200895864e-09)
(0.01100000264 -1.197849944e-10 -9.98898931e-10)
(0.01099999902 -2.107565203e-09 -2.395955854e-09)
(0.01099999842 -8.404990451e-10 -2.618069807e-09)
(0.01100000039 -5.272279111e-09 -4.283631963e-09)
(0.01099999475 -7.065565052e-09 -6.540788293e-09)
(0.01100000001 -1.749492834e-08 -1.759832255e-08)
(0.01099998528 -9.584845969e-09 -2.207884318e-08)
(0.01100000317 -4.304599122e-08 -7.303771805e-08)
(0.01099999005 3.270686178e-10 -8.786250266e-08)
(0.01099994383 -4.880128828e-08 -2.582661793e-07)
(0.01099999964 1.740328669e-10 4.918207805e-11)
(0.0110000004 -4.786689296e-10 5.98169943e-10)
(0.0110000007 8.335378283e-10 -5.606245533e-10)
(0.01099999803 -8.15829054e-10 -1.618692337e-09)
(0.01099999965 -5.566967627e-10 -1.109988264e-09)
(0.01099999944 -3.076662407e-09 -2.632641045e-09)
(0.01099999755 -3.097728111e-09 -2.271871423e-09)
(0.01099999763 -4.809830706e-09 -6.10425874e-09)
(0.01099998785 -7.44667496e-09 -8.651564761e-09)
(0.01100000439 -2.572797281e-08 -2.481400009e-08)
(0.01099997753 -2.577670471e-08 -2.563501737e-08)
(0.01100004423 -1.220611544e-07 -1.218141912e-07)
(0.01099998638 -9.408480414e-08 -9.221501022e-08)
(0.01100005766 -5.200658261e-07 -5.212396413e-07)
(0.01099972855 -9.139835557e-07 -9.130033699e-07)
(0.0110000013 9.681028397e-10 -1.983023554e-10)
(0.01099999995 6.038072456e-11 1.205033322e-09)
(0.01100000093 7.84767995e-10 -6.138502485e-10)
(0.01099999963 1.612380189e-09 1.620087328e-10)
(0.01099999704 -1.284324932e-09 -1.217291178e-09)
(0.01099999873 3.238191521e-10 -1.970968738e-09)
(0.01099999423 1.121301023e-10 -1.057430254e-09)
(0.01099999279 5.383376008e-11 -6.38344101e-09)
(0.01099997346 2.96795776e-10 -1.23278848e-08)
(0.01099998042 1.58629109e-09 -4.162660125e-08)
(0.01099987991 -4.744852881e-10 -5.324150894e-08)
(0.01099994695 -2.614199868e-10 -3.210471979e-07)
(0.01099945615 -2.249080828e-10 -3.753090333e-07)
(0.01099966062 -1.510468872e-09 -3.149175461e-06)
(0.01099883203 8.27352297e-10 -4.853387503e-06)
(0.01100000017 -3.204694302e-10 -9.829650775e-10)
(0.01100000027 -7.153385044e-11 -3.02750201e-10)
(0.01100000091 -1.103251921e-09 -1.020803605e-09)
(0.01100000029 2.971778071e-10 -3.791808005e-10)
(0.01099999525 1.291844644e-09 -4.2070009e-10)
(0.0109999994 1.392832042e-09 -2.203035715e-09)
(0.01099999722 1.616024172e-09 -2.150430206e-09)
(0.01099999996 6.083252596e-09 -5.370298848e-09)
(0.01099999045 6.413075885e-09 -7.586342498e-09)
(0.01100000324 2.525426437e-08 -2.441720699e-08)
(0.01099997527 2.808363275e-08 -2.554825254e-08)
(0.0110000444 1.223071731e-07 -1.225506829e-07)
(0.01099998201 9.305865571e-08 -9.47582191e-08)
(0.01100005811 5.191665915e-07 -5.2040727e-07)
(0.0109997262 9.122642784e-07 -9.144171575e-07)
(0.01099999913 -1.916408819e-10 1.764971184e-10)
(0.01100000069 6.870787215e-10 6.835606978e-10)
(0.0109999984 -2.443599615e-09 -2.311431864e-11)
(0.01099999864 -3.084921267e-09 -7.172052297e-10)
(0.0109999959 -2.887279063e-10 -1.527806213e-09)
(0.01100000006 2.036443612e-09 -1.246532785e-09)
(0.01099999984 3.081847336e-09 -1.995362042e-09)
(0.01100000049 4.256204989e-09 -3.708876273e-09)
(0.01099999285 5.951794636e-09 -5.208110216e-09)
(0.01099999891 1.491585922e-08 -1.729898595e-08)
(0.01099998831 9.832522583e-09 -2.32081783e-08)
(0.01100000091 4.371744021e-08 -7.322582177e-08)
(0.01099998934 4.261317858e-10 -8.703357916e-08)
(0.01099994551 4.90232206e-08 -2.590212584e-07)
(0.01100016281 2.031858937e-07 -4.921446047e-07)
(0.01100000001 -3.643641868e-10 -9.447964775e-10)
(0.01099999788 4.164964711e-10 6.911998552e-10)
(0.01100000069 3.786855091e-11 1.108865985e-09)
(0.01100000099 8.63480242e-10 -4.579696863e-10)
(0.01100000158 1.26314224e-09 -7.690150714e-10)
(0.01099999797 1.007683972e-09 -2.087273625e-09)
(0.01100000041 1.036065469e-09 -1.930664834e-09)
(0.01100000139 3.009194119e-09 -3.896118528e-09)
(0.01100000286 3.928984597e-09 -4.74544989e-09)
(0.01100000907 1.413253419e-08 -1.066443185e-08)
(0.011000009 1.300235239e-08 -1.357686133e-08)
(0.01100002223 3.980030114e-08 -3.381216085e-08)
(0.01100004983 3.834814516e-08 -4.3955592e-08)
(0.01100003048 7.805065539e-08 -8.411571084e-08)
(0.0110001544 1.926536567e-07 -1.631611824e-07)
(0.01100000048 6.625682728e-10 -1.065667663e-10)
(0.01099999979 2.162607978e-09 -3.685565168e-10)
(0.01099999839 1.458261813e-09 7.326799295e-10)
(0.01100000004 7.349547686e-10 -1.965142666e-10)
(0.01099999857 -7.968106434e-10 -4.262158029e-10)
(0.01099999915 -1.372758891e-09 -1.905745843e-09)
(0.01100000296 -1.792764918e-09 -2.559296316e-09)
(0.01100000538 6.722989399e-10 -4.688396016e-09)
(0.01100000704 2.352044053e-09 -4.422590724e-09)
(0.01100000906 3.661124069e-09 -8.320097037e-09)
(0.01100001837 4.052004664e-09 -9.586843687e-09)
(0.01100002547 8.973788686e-09 -1.959428496e-08)
(0.01100005095 5.613474187e-09 -2.960645452e-08)
(0.01100005022 7.42942667e-09 -4.381930086e-08)
(0.01100013369 3.221361563e-08 -8.028684013e-08)
(0.01100000011 3.904907572e-10 -9.279450355e-10)
(0.01099999809 1.076837792e-09 -1.557769867e-09)
(0.01100000049 -2.548980053e-10 1.570137467e-10)
(0.01100000236 6.056419737e-10 -8.526881649e-11)
(0.01099999969 -8.640489573e-11 1.579372475e-09)
(0.01100000112 1.039980023e-09 -1.805278274e-09)
(0.01100000075 -5.888222051e-10 -1.397355294e-09)
(0.01100000077 -6.603716459e-10 1.231608856e-09)
(0.01100000363 1.533247195e-10 1.766694452e-10)
(0.01100000193 -7.151563127e-09 2.019641137e-10)
(0.01100000284 -5.675538103e-09 6.454907851e-10)
(0.01100000497 -1.792801703e-08 -5.561628228e-10)
(0.01100002441 -2.085417361e-08 3.125825953e-10)
(0.01100000735 -4.757118415e-08 -9.518329344e-10)
(0.01100000069 2.07021362e-10 -5.178706652e-10)
(0.01099999997 2.403282606e-11 -1.534833388e-10)
(0.01100000017 -1.098698726e-10 -1.493657988e-09)
(0.01100000136 -1.203992824e-10 -5.125653588e-12)
(0.01099999986 -9.53902791e-10 3.48837975e-10)
(0.01100000184 -2.336583837e-09 -7.02693073e-10)
(0.01099999988 -2.414034504e-09 6.819507868e-10)
(0.01099999967 -3.678250342e-09 6.909928475e-10)
(0.01099999395 -5.673298043e-09 -8.165153285e-10)
(0.01099999757 -2.107120114e-08 1.129291337e-10)
(0.0109999857 -2.503404109e-08 1.643944798e-10)
(0.01099998852 -8.082467547e-08 -1.097387298e-09)
(0.01099998427 -9.499542106e-08 -1.733659134e-09)
(0.01099993447 -2.714870748e-07 1.662317995e-10)
(0.01100000068 3.8556681e-10 -7.454298301e-10)
(0.01099999912 -3.449756652e-10 -1.167328711e-09)
(0.0109999986 1.71019038e-09 9.635283053e-11)
(0.01100000054 -6.248880253e-10 5.233193812e-10)
(0.01099999704 -1.245174972e-09 3.046789022e-10)
(0.01099999988 -1.11690437e-09 -6.148792303e-10)
(0.01099999597 -9.945637546e-10 7.464571799e-10)
(0.01099999639 -7.542436125e-09 8.055171048e-10)
(0.01099998349 -9.70981619e-09 1.448307929e-10)
(0.0109999831 -2.743701176e-08 -8.297430529e-10)
(0.01099993617 -2.549457057e-08 -3.321762521e-10)
(0.01099993416 -1.242674472e-07 -6.024038448e-10)
(0.01099977942 -8.156875518e-08 -5.771153437e-12)
(0.01099965873 -5.042788195e-07 3.107029526e-10)
(0.01099999952 -2.700276158e-10 -7.641909676e-10)
(0.01100000037 -5.418326016e-10 1.747058616e-10)
(0.01099999816 -1.543824513e-10 -7.973777122e-11)
(0.01099999876 -2.410164295e-10 1.062773042e-09)
(0.0109999969 -7.964414382e-10 9.413205015e-10)
(0.0109999982 -3.883157442e-10 4.037269224e-10)
(0.01099999226 -2.242647721e-09 -3.523123021e-10)
(0.01099999489 -5.902600413e-09 4.983984031e-10)
(0.01099997103 -1.043596051e-08 -9.607320306e-10)
(0.01099997967 -4.144764963e-08 1.018731666e-09)
(0.01099987964 -5.365052893e-08 3.746391919e-10)
(0.01099994655 -3.218090022e-07 2.28792847e-09)
(0.01099945527 -3.765833727e-07 9.42189245e-10)
(0.01099965886 -3.14971066e-06 1.021082871e-09)
(0.01100000155 6.900504983e-10 -3.181459458e-10)
(0.01099999886 -2.106452233e-10 5.083316242e-10)
(0.01099999915 -1.889972171e-09 1.204186285e-09)
(0.01099999837 1.140798685e-09 -5.111556954e-10)