/*--------------------------------*- C++ -*----------------------------------*\
| =========                 |                                                 |
| \\      /  F ield         | OpenFOAM: The Open Source CFD Toolbox           |
|  \\    /   O peration     | Version:  4.x                                   |
|   \\  /    A nd           | Web:      www.OpenFOAM.org                      |
|    \\/     M anipulation  |                                                 |
\*---------------------------------------------------------------------------*/
FoamFile
{
    version     2.0;
    format      ascii;
    class       volScalarField;
    location    "11000";
    object      X_CO2;
}
// * * * * * * * * * * * * * * * * * * * * * * * * * * * * * * * * * * * * * //

dimensions      [0 0 0 0 0 0 0];

internalField   nonuniform List<scalar> 
1175
(
0.004151311606
0.004151311837
0.004151311459
0.004151311552
0.004151311409
0.004151311178
0.004151311298
0.00415131189
0.004151313526
0.004151317903
0.004151331525
0.004151366234
0.004151451178
0.004151639763
0.004152011512
0.004151311901
0.004151311903
0.004151311343
0.004151311406
0.004151311507
0.004151311631
0.00415131144
0.004151312255
0.004151314598
0.004151321532
0.004151342144
0.004151399693
0.004151544314
0.00415187142
0.004152516181
0.004151311701
0.004151311529
0.004151311447
0.004151311597
0.004151311766
0.004151311836
0.004151312397
0.004151313606
0.004151316776
0.004151327715
0.004151364053
0.004151468091
0.004151743308
0.004152383034
0.0041536479
0.004151311698
0.004151311911
0.004151311849
0.004151311872
0.004151311816
0.004151311776
0.004151312355
0.004151313453
0.004151318512
0.004151335487
0.004151391158
0.004151559157
0.004152021068
0.004153134645
0.004155350511
0.004151312074
0.004151312238
0.004151311998
0.004151311634
0.004151311688
0.004151312024
0.004151312295
0.004151313954
0.004151319934
0.004151339727
0.00415140643
0.004151614228
0.004152204167
0.00415367163
0.004156629839
0.004151311703
0.004151311976
0.004151312464
0.004151312149
0.004151312101
0.004151312208
0.004151312625
0.00415131366
0.004151318803
0.004151336076
0.004151391099
0.004151558711
0.004152020767
0.004153134821
0.00415535034
0.004151311695
0.004151311867
0.004151311559
0.004151311609
0.004151312136
0.004151312076
0.004151311818
0.004151312937
0.004151316494
0.004151328032
0.004151363874
0.004151467831
0.004151743393
0.004152383429
0.004153647958
0.004151311771
0.004151311897
0.004151311393
0.004151311599
0.004151311347
0.0041513115
0.004151311966
0.004151312383
0.004151314784
0.004151321688
0.004151342434
0.004151399933
0.004151544681
0.004151871709
0.004152516858
0.004151311665
0.004151311391
0.004151311222
0.004151311473
0.004151311927
0.004151311811
0.004151311538
0.004151312133
0.004151313638
0.004151318289
0.004151331712
0.004151366324
0.004151451732
0.004151640164
0.004152011908
0.004151312003
0.004151311728
0.00415131165
0.004151311469
0.00415131189
0.004151311858
0.004151312026
0.004151312594
0.004151314646
0.00415132142
0.004151342333
0.004151399512
0.0041515441
0.00415187168
0.004151311752
0.004151311986
0.004151311744
0.0041513114
0.004151311601
0.004151311803
0.004151312099
0.004151312716
0.00415131614
0.004151327694
0.004151362957
0.004151467136
0.004151744813
0.004152394162
0.004153678199
0.004151311259
0.004151311452
0.004151311708
0.004151311717
0.004151311708
0.004151312001
0.004151312153
0.004151313718
0.004151319585
0.004151340165
0.004151408426
0.004151621755
0.004152225933
0.004153711104
0.004156678473
0.004151311757
0.004151311868
0.004151311481
0.004151311958
0.00415131234
0.004151311954
0.00415131264
0.004151314806
0.004151323492
0.004151356255
0.004151471049
0.004151855046
0.004153017638
0.00415605725
0.004162280849
0.004151311652
0.004151311968
0.004151311326
0.004151311775
0.004151311491
0.004151311813
0.004151312822
0.004151315805
0.00415132582
0.004151365006
0.004151511274
0.00415202283
0.004153669958
0.004158273984
0.004168139277
0.004151311468
0.004151311851
0.004151311434
0.004151311716
0.004151311911
0.004151312252
0.004151313022
0.004151315279
0.004151323613
0.004151356123
0.004151471084
0.004151854505
0.00415301691
0.004156056704
0.004162280779
0.004151312021
0.004151311807
0.004151311549
0.004151311758
0.004151312006
0.00415131226
0.004151312662
0.004151313789
0.004151319279
0.00415134027
0.004151408839
0.004151622268
0.004152226446
0.004153711255
0.004156678281
0.004151311347
0.004151311322
0.004151311696
0.004151311913
0.004151311311
0.004151311738
0.004151312187
0.00415131339
0.004151316398
0.004151327767
0.004151363383
0.00415146746
0.00415174453
0.004152394495
0.00415367835
0.004151311834
0.004151311593
0.00415131151
0.004151311592
0.00415131176
0.004151311699
0.004151311719
0.00415131228
0.004151314594
0.004151321539
0.004151342154
0.004151399518
0.004151544292
0.004151871459
0.00415251654
0.004151311775
0.004151311563
0.004151311659
0.004151311906
0.004151311464
0.004151311644
0.004151312195
0.004151313349
0.004151317086
0.00415132837
0.004151364286
0.004151468257
0.00415174304
0.004152383178
0.004151311859
0.004151311371
0.004151311653
0.004151311446
0.004151311474
0.004151311731
0.004151312028
0.004151313605
0.004151319815
0.004151339899
0.004151408562
0.004151621853
0.004152226295
0.004153711551
0.004151310961
0.004151311689
0.004151311917
0.004151311851
0.004151311812
0.004151311545
0.004151312222
0.004151315129
0.004151325487
0.004151366059
0.004151512278
0.004152009573
0.004153544093
0.004157610073
0.004165971762
0.004151311612
0.004151311297
0.004151311889
0.00415131172
0.004151311628
0.004151312456
0.004151313121
0.00415131735
0.00415133432
0.004151403775
0.004151675653
0.004152688149
0.004156144563
0.004166298406
0.004188580308
0.004151311687
0.004151311623
0.004151312173
0.004151311691
0.004151312025
0.004151311993
0.004151313412
0.00415131797
0.004151339245
0.004151428421
0.004151799202
0.004153289491
0.00415891904
0.004177701511
0.004224459479
0.004151311473
0.004151311928
0.004151312155
0.004151312125
0.004151311974
0.004151312074
0.004151313237
0.004151317079
0.004151334133
0.004151403609
0.00415167558
0.004152688088
0.004156144391
0.004166297875
0.00418857878
0.004151312086
0.00415131202
0.004151312141
0.004151311935
0.004151312035
0.004151311988
0.004151312551
0.004151315134
0.004151325951
0.004151366536
0.00415151249
0.004152009785
0.004153544477
0.004157610028
0.00416597057
0.004151311956
0.004151311526
0.004151311708
0.004151312024
0.004151311672
0.004151311614
0.004151312351
0.00415131368
0.00415131991
0.004151340135
0.004151408426
0.004151621856
0.004152226972
0.004153711802
0.004156679033
0.004151311872
0.004151311619
0.004151311798
0.004151311674
0.004151311328
0.004151311766
0.004151311839
0.004151312914
0.004151316535
0.004151328005
0.004151364131
0.004151468345
0.004151743236
0.004152383268
0.00415364789
0.004151311579
0.004151311355
0.004151311631
0.004151311277
0.004151311464
0.004151311335
0.004151312107
0.004151313801
0.00415131835
0.00415133541
0.004151391094
0.004151559031
0.004152020794
0.004153134561
0.004151311796
0.004151311773
0.00415131163
0.004151311565
0.004151311782
0.00415131168
0.004151312581
0.00415131505
0.004151323673
0.004151355451
0.004151471091
0.004151854605
0.004153017863
0.004156057665
0.004151311126
0.004151311376
0.004151311974
0.004151311846
0.004151311183
0.004151312027
0.004151312582
0.004151317266
0.004151334222
0.004151403622
0.004151675611
0.004152687768
0.004156144047
0.004166299495
0.004151311261
0.004151311644
0.004151311849
0.00415131199
0.004151311922
0.004151312325
0.004151313416
0.004151320051
0.004151349265
0.004151478448
0.004152038837
0.004154398718
0.004163726305
0.004196135442
0.004279017851
0.004151311559
0.00415131164
0.004151311714
0.00415131218
0.004151311807
0.004151312364
0.004151313842
0.004151322078
0.004151359133
0.004151534391
0.004152366296
0.004156307384
0.004174671195
0.004254791248
0.004532968451
0.004151311614
0.004151311636
0.004151311644
0.004151311748
0.004151312077
0.004151312323
0.004151313635
0.004151320199
0.004151349376
0.004151478471
0.004152039129
0.004154398698
0.004163726413
0.004196133356
0.004279009022
0.004151312352
0.004151311866
0.004151312071
0.004151312048
0.004151312127
0.004151311651
0.004151312513
0.004151317044
0.00415133448
0.004151403445
0.004151675584
0.004152687732
0.004156143954
0.004166297756
0.004188579236
0.004151311206
0.004151311265
0.004151311372
0.004151311813
0.004151312082
0.004151312293
0.004151312568
0.004151314592
0.004151323302
0.004151356022
0.004151471432
0.004151855117
0.004153017658
0.004156056297
0.004162280864
0.004151311273
0.00415131154
0.004151311316
0.004151311455
0.004151311695
0.004151311756
0.004151312252
0.004151313406
0.004151318426
0.004151335683
0.004151391047
0.004151558802
0.004152021553
0.004153134663
0.00415535054
0.004151311925
0.004151312033
0.004151312041
0.004151311678
0.00415131152
0.004151311883
0.00415131242
0.004151314082
0.004151319514
0.004151339886
0.004151406058
0.004151613382
0.004152203811
0.004153672046
0.00415131152
0.00415131159
0.004151311263
0.004151311529
0.004151311423
0.004151311546
0.004151312808
0.004151315532
0.004151325993
0.004151365327
0.004151511187
0.004152023157
0.00415367085
0.004158275469
0.004151311869
0.004151312095
0.004151311876
0.004151311772
0.004151311607
0.004151312239
0.004151313241
0.004151318016
0.004151338949
0.004151427707
0.004151798849
0.004153289166
0.004158919344
0.004177704684
0.004151311891
0.004151312156
0.004151311965
0.004151312456
0.004151312168
0.004151312247
0.004151313978
0.004151321612
0.004151359904
0.004151535286
0.004152366294
0.004156307786
0.004174672457
0.004254801041
0.004151311537
0.0041513124
0.004151312085
0.004151312264
0.004151311847
0.004151312204
0.004151314238
0.004151324695
0.004151373859
0.004151626062
0.004152972901
0.004160597428
0.004206731284
0.004507058819
0.006622171251
0.004151311947
0.004151311566
0.004151311657
0.00415131122
0.004151311501
0.004151311549
0.004151313998
0.004151321765
0.004151359267
0.00415153499
0.004152366284
0.004156307727
0.004174671874
0.004254792443
0.004532969392
0.00415131211
0.004151311415
0.004151311838
0.004151311482
0.004151311367
0.004151311843
0.004151312901
0.004151318094
0.004151339389
0.004151428962
0.00415179954
0.004153289062
0.004158918977
0.004177701736
0.004224459099
0.004151311144
0.004151311458
0.004151311602
0.004151311787
0.004151311795
0.004151311859
0.004151312385
0.00415131494
0.004151325652
0.004151365567
0.004151511786
0.00415202343
0.004153670248
0.004158274522
0.004168139411
0.0041513114
0.00415131177
0.004151311811
0.004151311404
0.004151311512
0.004151311624
0.004151312259
0.004151313826
0.004151319927
0.004151339632
0.004151406123
0.004151613975
0.004152204621
0.00415367232
0.004156630346
0.004151311963
0.004151311842
0.004151311887
0.004151311953
0.004151311856
0.004151312145
0.004151312111
0.004151313807
0.004151318599
0.004151335622
0.004151390603
0.004151558879
0.004152021125
0.004153134439
0.004151311455
0.004151311749
0.004151311998
0.004151311918
0.004151311819
0.004151311846
0.004151312801
0.004151314976
0.004151323567
0.004151355853
0.004151470825
0.004151854733
0.004153017631
0.004156057447
0.004151311699
0.004151312138
0.004151311724
0.004151311588
0.004151311474
0.004151312202
0.004151313101
0.004151317206
0.00415133436
0.004151403676
0.00415167552
0.004152687898
0.004156144538
0.004166299498
0.004151312232
0.00415131207
0.004151312262
0.00415131196
0.004151312093
0.004151312306
0.004151314135
0.00415132096
0.004151349658
0.00415147842
0.004152038585
0.004154398423
0.00416372723
0.004196138754
0.004151311733
0.004151311967
0.004151312094
0.00415131183
0.004151311993
0.004151312109
0.004151314
0.004151322098
0.004151359297
0.004151534713
0.004152365999
0.004156307411
0.004174672934
0.004254802581
0.004151312047
0.004151311941
0.004151311708
0.004151311836
0.004151312174
0.004151312245
0.004151313213
0.004151319896
0.004151349481
0.004151478279
0.004152038646
0.004154398159
0.004163727199
0.0041961377
0.004151311439
0.004151311289
0.004151311699
0.00415131148
0.004151312392
0.004151311916
0.004151313056
0.004151316864
0.00415133411
0.004151403859
0.004151675678
0.004152687851
0.004156144221
0.004166298902
0.004188582128
0.004151311516
0.004151311623
0.004151311702
0.004151311714
0.004151311641
0.004151312172
0.00415131258
0.004151314616
0.004151323336
0.00415135588
0.004151471078
0.004151854821
0.004153017277
0.00415605651
0.004162281436
0.004151311772
0.00415131178
0.004151311313
0.004151311761
0.004151311625
0.004151312226
0.004151312408
0.004151313989
0.00415131891
0.004151336041
0.004151390854
0.004151558522
0.004152020916
0.004153134408
0.004155350174
0.004151311376
0.004151311541
0.004151311322
0.00415131128
0.004151311188
0.004151311218
0.004151311584
0.004151312854
0.004151316358
0.004151327922
0.004151363713
0.004151467934
0.004151743057
0.004152383314
0.004151311533
0.004151311922
0.004151311892
0.004151311977
0.004151311787
0.004151311674
0.004151311812
0.004151313632
0.004151320149
0.004151340333
0.004151408409
0.004151622218
0.004152226212
0.004153711132
0.004151311971
0.004151312096
0.004151311876
0.004151311419
0.004151311614
0.004151311777
0.004151312455
0.004151314971
0.004151325891
0.004151366231
0.004151512409
0.00415200994
0.004153544188
0.004157610692
0.004151311267
0.004151311366
0.004151311766
0.004151311554
0.004151311669
0.004151311573
0.004151312802
0.004151317017
0.004151334201
0.004151403586
0.004151675484
0.004152687976
0.004156144178
0.004166299941
0.004151311475
0.004151311773
0.004151312053
0.004151311672
0.004151312062
0.004151312067
0.004151313167
0.00415131768
0.004151338756
0.004151428276
0.004151798489
0.004153288793
0.004158918969
0.004177704479
0.004151311804
0.004151311848
0.004151312058
0.004151311903
0.004151312121
0.004151311938
0.004151312732
0.00415131681
0.004151334056
0.004151403348
0.004151675316
0.004152687519
0.004156144557
0.00416629947
0.004151311592
0.004151311483
0.004151311393
0.004151311979
0.004151312089
0.004151311827
0.0041513124
0.004151315485
0.004151326253
0.004151366467
0.004151512946
0.004152009675
0.004153543718
0.004157610273
0.004151311364
0.004151311634
0.004151311754
0.004151312123
0.004151311438
0.004151311573
0.004151311658
0.004151313923
0.004151319437
0.004151339862
0.004151408556
0.004151621718
0.004152226337
0.004153711517
0.004156678562
0.004151311727
0.004151311534
0.004151311768
0.0041513119
0.004151311499
0.004151311302
0.00415131182
0.004151313547
0.004151316915
0.004151328344
0.004151364325
0.004151468646
0.004151743318
0.004152383259
0.00415364789
0.004151311887
0.004151311333
0.004151311207
0.004151311411
0.004151310815
0.004151310989
0.004151311227
0.004151312216
0.004151314737
0.004151321577
0.00415134243
0.00415139968
0.004151544153
0.00415187114
0.004151311877
0.004151311594
0.004151311535
0.004151311285
0.004151311401
0.00415131178
0.004151312078
0.004151312979
0.004151316097
0.004151327571
0.004151363024
0.004151467402
0.004151744573
0.004152393817
0.004151312157
0.004151311839
0.004151311786
0.004151311691
0.004151311089
0.004151311635
0.00415131247
0.004151313986
0.004151319534
0.004151340217
0.004151408255
0.004151622064
0.004152225824
0.00415371046
0.004151311811
0.0041513117
0.00415131164
0.00415131161
0.004151311447
0.004151311622
0.004151312211
0.004151314171
0.004151323447
0.004151355844
0.00415147147
0.00415185504
0.004153017545
0.004156057331
0.004151311654
0.004151311648
0.004151311438
0.004151311694
0.00415131146
0.004151311897
0.004151312264
0.004151315199
0.004151325093
0.004151364915
0.004151511227
0.004152023046
0.004153670086
0.004158275073
0.004151311447
0.004151311734
0.004151311922
0.004151311507
0.004151311489
0.004151311645
0.004151312357
0.004151314362
0.004151323109
0.00415135568
0.004151471008
0.004151854409
0.004153017596
0.004156056958
0.004151311788
0.004151311896
0.004151311336
0.004151311488
0.004151311581
0.004151311999
0.004151311898
0.004151313778
0.004151319643
0.004151339899
0.004151408001
0.004151621595
0.004152226073
0.004153711428
0.004151311812
0.004151311434
0.004151311788
0.004151311854
0.004151311688
0.004151311938
0.004151312031
0.004151313047
0.004151316936
0.004151328014
0.004151363417
0.004151467644
0.004151744828
0.004152394146
0.004151311889
0.004151312184
0.004151312216
0.004151311913
0.004151311969
0.004151311807
0.004151311515
0.004151312512
0.004151314721
0.004151321766
0.004151342163
0.00415139932
0.004151544147
0.004151871202
0.004152516152
0.00415131178
0.004151311651
0.004151311463
0.004151311723
0.004151311251
0.004151311131
0.004151311519
0.004151312158
0.004151313854
0.004151318642
0.004151331493
0.00415136623
0.004151451256
0.004151639698
0.00415131185
0.004151311627
0.004151311873
0.004151311351
0.004151311466
0.004151311464
0.004151311729
0.004151312704
0.004151314965
0.004151321791
0.004151342655
0.004151399356
0.004151544069
0.004151871249
0.004151311818
0.004151311988
0.004151311636
0.004151311823
0.004151311613
0.004151311624
0.00415131178
0.004151312661
0.004151316311
0.004151328023
0.004151364081
0.00415146845
0.004151743067
0.004152382791
0.004151311688
0.004151311911
0.004151311558
0.004151311721
0.004151311793
0.004151311253
0.004151311973
0.00415131329
0.004151318744
0.004151335489
0.004151391082
0.00415155905
0.004152020773
0.004153134324
0.004151311668
0.004151311094
0.004151311379
0.004151311564
0.004151311789
0.004151311636
0.004151312382
0.004151313338
0.004151319355
0.004151339028
0.004151405837
0.004151613268
0.00415220427
0.00415367184
0.004151311341
0.004151311432
0.004151311446
0.004151311506
0.004151311565
0.004151312081
0.004151312342
0.004151313456
0.004151318295
0.004151335487
0.004151391044
0.004151558581
0.004152020727
0.004153134356
0.004151311655
0.004151311739
0.004151311999
0.004151311634
0.004151311516
0.004151311606
0.004151311988
0.004151312925
0.004151316199
0.00415132783
0.004151364
0.004151468029
0.004151743193
0.004152383361
0.004151311512
0.004151311351
0.004151312031
0.00415131176
0.004151311551
0.004151311811
0.004151311978
0.004151312832
0.004151315105
0.004151321554
0.00415134221
0.004151398992
0.004151544254
0.004151871413
0.004151311383
0.004151311701
0.004151312019
0.004151311962
0.004151311821
0.004151311602
0.004151311568
0.004151312046
0.004151313782
0.004151318352
0.004151331356
0.004151366272
0.004151451539
0.004151639928
)
;

boundaryField
{
    top
    {
        type            calculated;
        value           nonuniform List<scalar> 
134
(
0.004151311665
0.004151311834
0.004151311872
0.004151311273
0.0041513114
0.004151311772
0.004151311727
0.004151311889
0.004151311383
0.004151311391
0.004151311593
0.004151311619
0.00415131154
0.00415131177
0.00415131178
0.004151311534
0.004151312184
0.004151311701
0.004151311222
0.00415131151
0.004151311798
0.004151311316
0.004151311811
0.004151311313
0.004151311768
0.004151312216
0.004151312019
0.004151311473
0.004151311592
0.004151311674
0.004151311455
0.004151311404
0.004151311761
0.0041513119
0.004151311913
0.004151311962
0.004151311927
0.00415131176
0.004151311328
0.004151311695
0.004151311512
0.004151311625
0.004151311499
0.004151311969
0.004151311821
0.004151311811
0.004151311699
0.004151311766
0.004151311756
0.004151311624
0.004151312226
0.004151311302
0.004151311807
0.004151311602
0.004151311538
0.004151311719
0.004151311839
0.004151312252
0.004151312259
0.004151312408
0.00415131182
0.004151311515
0.004151311568
0.004151312133
0.00415131228
0.004151312914
0.004151313406
0.004151313826
0.004151313989
0.004151313547
0.004151312512
0.004151312046
0.004151313638
0.004151314594
0.004151316535
0.004151318426
0.004151319927
0.00415131891
0.004151316915
0.004151314721
0.004151313782
0.004151318289
0.004151321539
0.004151328005
0.004151335683
0.004151339632
0.004151336041
0.004151328344
0.004151321766
0.004151318352
0.004151331712
0.004151342154
0.004151364131
0.004151391047
0.004151406123
0.004151390854
0.004151364325
0.004151342163
0.004151331356
0.004151366324
0.004151399518
0.004151468345
0.004151558802
0.004151613975
0.004151558522
0.004151468646
0.00415139932
0.004151366272
0.004151451732
0.004151544292
0.004151743236
0.004152021553
0.004152204621
0.004152020916
0.004151743318
0.004151544147
0.004151451539
0.004151640164
0.004151871459
0.004152383268
0.004153134663
0.00415367232
0.004153134408
0.004152383259
0.004151871202
0.004151639928
0.004152011908
0.00415251654
0.00415364789
0.00415535054
0.004156630346
0.004155350174
0.00415364789
0.004152516152
)
;
    }
    bottom
    {
        type            calculated;
        value           nonuniform List<scalar> 
127
(
0.004151311606
0.004151312003
0.004151311775
0.004151311579
0.004151311925
0.004151311963
0.004151311376
0.004151311887
0.00415131178
0.004151311837
0.004151311728
0.004151311563
0.004151311355
0.004151312033
0.004151311842
0.004151311541
0.004151311333
0.004151311651
0.004151311459
0.00415131165
0.004151311659
0.004151311631
0.004151312041
0.004151311887
0.004151311322
0.004151311207
0.004151311463
0.004151311552
0.004151311469
0.004151311906
0.004151311277
0.004151311678
0.004151311953
0.00415131128
0.004151311411
0.004151311723
0.004151311409
0.00415131189
0.004151311464
0.004151311464
0.00415131152
0.004151311856
0.004151311188
0.004151310815
0.004151311251
0.004151311178
0.004151311858
0.004151311644
0.004151311335
0.004151311883
0.004151312145
0.004151311218
0.004151310989
0.004151311131
0.004151311298
0.004151312026
0.004151312195
0.004151312107
0.00415131242
0.004151312111
0.004151311584
0.004151311227
0.004151311519
0.00415131189
0.004151312594
0.004151313349
0.004151313801
0.004151314082
0.004151313807
0.004151312854
0.004151312216
0.004151312158
0.004151313526
0.004151314646
0.004151317086
0.00415131835
0.004151319514
0.004151318599
0.004151316358
0.004151314737
0.004151313854
0.004151317903
0.00415132142
0.00415132837
0.00415133541
0.004151339886
0.004151335622
0.004151327922
0.004151321577
0.004151318642
0.004151331525
0.004151342333
0.004151364286
0.004151391094
0.004151406058
0.004151390603
0.004151363713
0.00415134243
0.004151331493
0.004151366234
0.004151399512
0.004151468257
0.004151559031
0.004151613382
0.004151558879
0.004151467934
0.00415139968
0.00415136623
0.004151451178
0.0041515441
0.00415174304
0.004152020794
0.004152203811
0.004152021125
0.004151743057
0.004151544153
0.004151451256
0.004151639763
0.00415187168
0.004152383178
0.004153134561
0.004153672046
0.004153134439
0.004152383314
0.00415187114
0.004151639698
0.004152011512
)
;
    }
    side-walls
    {
        type            calculated;
        value           nonuniform List<scalar> 
261
(
0.004151311606
0.004151311901
0.004151311701
0.004151311698
0.004151312074
0.004151311703
0.004151311695
0.004151311771
0.004151311665
0.004151311837
0.004151311903
0.004151311529
0.004151311911
0.004151312238
0.004151311976
0.004151311867
0.004151311897
0.004151311391
0.004151311459
0.004151311343
0.004151311447
0.004151311849
0.004151311998
0.004151312464
0.004151311559
0.004151311393
0.004151311222
0.004151311552
0.004151311406
0.004151311597
0.004151311872
0.004151311634
0.004151312149
0.004151311609
0.004151311599
0.004151311473
0.004151311409
0.004151311507
0.004151311766
0.004151311816
0.004151311688
0.004151312101
0.004151312136
0.004151311347
0.004151311927
0.004151311178
0.004151311631
0.004151311836
0.004151311776
0.004151312024
0.004151312208
0.004151312076
0.0041513115
0.004151311811
0.004151311298
0.00415131144
0.004151312397
0.004151312355
0.004151312295
0.004151312625
0.004151311818
0.004151311966
0.004151311538
0.00415131189
0.004151312255
0.004151313606
0.004151313453
0.004151313954
0.00415131366
0.004151312937
0.004151312383
0.004151312133
0.004151313526
0.004151314598
0.004151316776
0.004151318512
0.004151319934
0.004151318803
0.004151316494
0.004151314784
0.004151313638
0.004151317903
0.004151321532
0.004151327715
0.004151335487
0.004151339727
0.004151336076
0.004151328032
0.004151321688
0.004151318289
0.004151331525
0.004151342144
0.004151364053
0.004151391158
0.00415140643
0.004151391099
0.004151363874
0.004151342434
0.004151331712
0.004151366234
0.004151399693
0.004151468091
0.004151559157
0.004151614228
0.004151558711
0.004151467831
0.004151399933
0.004151366324
0.004151451178
0.004151544314
0.004151743308
0.004152021068
0.004152204167
0.004152020767
0.004151743393
0.004151544681
0.004151451732
0.004151639763
0.00415187142
0.004152383034
0.004153134645
0.00415367163
0.004153134821
0.004152383429
0.004151871709
0.004151640164
0.004152011512
0.004152516181
0.0041536479
0.004155350511
0.004156629839
0.00415535034
0.004153647958
0.004152516858
0.004152011908
0.00415131178
0.00415131185
0.004151311818
0.004151311688
0.004151311668
0.004151311341
0.004151311655
0.004151311512
0.004151311383
0.004151311651
0.004151311627
0.004151311988
0.004151311911
0.004151311094
0.004151311432
0.004151311739
0.004151311351
0.004151311701
0.004151311463
0.004151311873
0.004151311636
0.004151311558
0.004151311379
0.004151311446
0.004151311999
0.004151312031
0.004151312019
0.004151311723
0.004151311351
0.004151311823
0.004151311721
0.004151311564
0.004151311506
0.004151311634
0.00415131176
0.004151311962
0.004151311251
0.004151311466
0.004151311613
0.004151311793
0.004151311789
0.004151311565
0.004151311516
0.004151311551
0.004151311821
0.004151311131
0.004151311464
0.004151311624
0.004151311253
0.004151311636
0.004151312081
0.004151311606
0.004151311811
0.004151311602
0.004151311519
0.004151311729
0.00415131178
0.004151311973
0.004151312382
0.004151312342
0.004151311988
0.004151311978
0.004151311568
0.004151312158
0.004151312704
0.004151312661
0.00415131329
0.004151313338
0.004151313456
0.004151312925
0.004151312832
0.004151312046
0.004151313854
0.004151314965
0.004151316311
0.004151318744
0.004151319355
0.004151318295
0.004151316199
0.004151315105
0.004151313782
0.004151318642
0.004151321791
0.004151328023
0.004151335489
0.004151339028
0.004151335487
0.00415132783
0.004151321554
0.004151318352
0.004151331493
0.004151342655
0.004151364081
0.004151391082
0.004151405837
0.004151391044
0.004151364
0.00415134221
0.004151331356
0.00415136623
0.004151399356
0.00415146845
0.00415155905
0.004151613268
0.004151558581
0.004151468029
0.004151398992
0.004151366272
0.004151451256
0.004151544069
0.004151743067
0.004152020773
0.00415220427
0.004152020727
0.004151743193
0.004151544254
0.004151451539
0.004151639698
0.004151871249
0.004152382791
0.004153134324
0.00415367184
0.004153134356
0.004152383361
0.004151871413
0.004151639928
)
;
    }
    inlet
    {
        type            calculated;
        value           nonuniform List<scalar> 
81
(
0.004151311606
0.004151311901
0.004151311701
0.004151311698
0.004151312074
0.004151311703
0.004151311695
0.004151311771
0.004151311665
0.004151312003
0.004151311752
0.004151311259
0.004151311757
0.004151311652
0.004151311468
0.004151312021
0.004151311347
0.004151311834
0.004151311775
0.004151311859
0.004151310961
0.004151311612
0.004151311687
0.004151311473
0.004151312086
0.004151311956
0.004151311872
0.004151311579
0.004151311796
0.004151311126
0.004151311261
0.004151311559
0.004151311614
0.004151312352
0.004151311206
0.004151311273
0.004151311925
0.00415131152
0.004151311869
0.004151311891
0.004151311537
0.004151311947
0.00415131211
0.004151311144
0.0041513114
0.004151311963
0.004151311455
0.004151311699
0.004151312232
0.004151311733
0.004151312047
0.004151311439
0.004151311516
0.004151311772
0.004151311376
0.004151311533
0.004151311971
0.004151311267
0.004151311475
0.004151311804
0.004151311592
0.004151311364
0.004151311727
0.004151311887
0.004151311877
0.004151312157
0.004151311811
0.004151311654
0.004151311447
0.004151311788
0.004151311812
0.004151311889
0.00415131178
0.00415131185
0.004151311818
0.004151311688
0.004151311668
0.004151311341
0.004151311655
0.004151311512
0.004151311383
)
;
    }
    outlet
    {
        type            calculated;
        value           nonuniform 0();
    }
    procBoundary0to1
    {
        type            processor;
        value           nonuniform List<scalar> 
97
(
0.004152658524
0.00415251635
0.00415360799
0.004155707521
0.00415878934
0.004160993494
0.004158789178
0.004155707979
0.004153608463
0.0041526592
0.00415251635
0.00415251635
0.004155751837
0.004156678818
0.004161155334
0.00417077715
0.004179873202
0.004170777246
0.00416115608
0.004155752494
0.004153608216
0.004153647947
0.004156678818
0.004156678818
0.004177148933
0.004188582777
0.004212793006
0.004259572743
0.004212792216
0.004177148194
0.004161155764
0.004155707772
0.004155350353
0.004162281413
0.004188582777
0.004188582777
0.004335222342
0.004533001089
0.00457600871
0.004335218982
0.004212792646
0.004170777778
0.00415878979
0.004156630012
0.004168140272
0.004224463768
0.004533001089
0.004533001089
0.005614435053
0.004533000245
0.004576008056
0.004279017606
0.004259573333
0.004179874186
0.004160994157
0.004155350423
0.004162281348
0.004188580914
0.004279016619
0.004533000245
0.004279017606
0.004279017606
0.004212793144
0.004165971539
0.004170777713
0.004158789465
0.004153647488
0.004156678072
0.004165971478
0.004188580769
0.004224463772
0.004188580716
0.004165971539
0.004165971539
0.004161155838
0.004153678033
0.004155708103
0.004152516149
0.004153677553
0.004156677942
0.004162281262
0.004168140153
0.004162281003
0.004156679302
0.004153678033
0.004153678033
0.004153607957
0.004152011388
0.004152011362
0.004152516167
0.004153647126
0.004155349978
0.004156629977
0.00415535044
0.004153647799
0.004152515718
0.004152011388
)
;
    }
}


// ************************************************************************* //
