/*--------------------------------*- C++ -*----------------------------------*\
| =========                 |                                                 |
| \\      /  F ield         | OpenFOAM: The Open Source CFD Toolbox           |
|  \\    /   O peration     | Version:  4.x                                   |
|   \\  /    A nd           | Web:      www.OpenFOAM.org                      |
|    \\/     M anipulation  |                                                 |
\*---------------------------------------------------------------------------*/
FoamFile
{
    version     2.0;
    format      ascii;
    class       volScalarField;
    location    "11000";
    object      X_CO;
}
// * * * * * * * * * * * * * * * * * * * * * * * * * * * * * * * * * * * * * //

dimensions      [0 0 0 0 0 0 0];

internalField   nonuniform List<scalar> 
1175
(
0.3728740608
0.3728740607
0.3728740608
0.3728740608
0.3728740608
0.3728740609
0.3728740608
0.3728740602
0.3728740587
0.3728740542
0.3728740409
0.3728740061
0.372873921
0.3728737325
0.3728733611
0.3728740607
0.3728740607
0.3728740609
0.3728740609
0.3728740608
0.3728740607
0.3728740607
0.3728740599
0.3728740577
0.3728740507
0.3728740301
0.3728739728
0.3728738282
0.3728735011
0.3728728565
0.3728740607
0.3728740608
0.3728740608
0.3728740608
0.3728740607
0.3728740606
0.3728740602
0.3728740591
0.3728740558
0.3728740444
0.3728740084
0.3728739042
0.3728736292
0.3728729895
0.3728717252
0.3728740608
0.3728740607
0.3728740607
0.3728740607
0.3728740607
0.3728740606
0.3728740602
0.3728740589
0.3728740539
0.3728740368
0.3728739814
0.3728738135
0.3728733514
0.3728722382
0.372870023
0.3728740606
0.3728740605
0.3728740606
0.3728740608
0.3728740607
0.3728740605
0.3728740602
0.3728740585
0.3728740527
0.3728740328
0.3728739662
0.3728737586
0.3728731684
0.372871701
0.3728687436
0.3728740607
0.3728740606
0.3728740605
0.3728740606
0.3728740606
0.3728740605
0.3728740601
0.3728740588
0.3728740538
0.3728740366
0.3728739814
0.3728738137
0.3728733516
0.3728722382
0.3728700231
0.3728740608
0.3728740607
0.3728740608
0.3728740608
0.3728740606
0.3728740605
0.3728740605
0.3728740594
0.3728740559
0.3728740443
0.3728740084
0.3728739043
0.3728736292
0.3728729893
0.3728717252
0.3728740607
0.3728740607
0.3728740609
0.3728740608
0.3728740609
0.3728740608
0.3728740605
0.3728740599
0.3728740576
0.3728740507
0.37287403
0.3728739727
0.372873828
0.372873501
0.3728728563
0.3728740608
0.3728740609
0.3728740609
0.3728740608
0.3728740607
0.3728740607
0.3728740607
0.3728740602
0.3728740586
0.372874054
0.3728740408
0.3728740061
0.3728739208
0.3728737324
0.3728733609
0.3728740606
0.3728740607
0.3728740608
0.3728740608
0.3728740607
0.3728740606
0.3728740605
0.3728740598
0.3728740577
0.3728740508
0.37287403
0.3728739729
0.3728738282
0.372873501
0.3728740607
0.3728740606
0.3728740607
0.3728740609
0.3728740608
0.3728740606
0.3728740604
0.3728740595
0.3728740561
0.3728740447
0.3728740092
0.372873905
0.3728736277
0.3728729785
0.3728716948
0.3728740609
0.3728740608
0.3728740607
0.3728740607
0.3728740607
0.3728740605
0.3728740602
0.3728740586
0.3728740528
0.3728740323
0.372873964
0.3728737506
0.3728731464
0.3728716616
0.372868695
0.3728740607
0.3728740607
0.3728740608
0.3728740606
0.3728740605
0.3728740605
0.3728740599
0.3728740577
0.3728740489
0.3728740163
0.3728739013
0.3728735176
0.3728723551
0.3728693162
0.3728630936
0.3728740608
0.3728740606
0.3728740609
0.3728740607
0.3728740608
0.3728740606
0.3728740598
0.372874057
0.3728740467
0.3728740073
0.372873861
0.3728733495
0.3728717026
0.3728670991
0.3728572357
0.3728740608
0.3728740607
0.3728740608
0.3728740607
0.3728740606
0.3728740604
0.3728740598
0.3728740575
0.3728740489
0.3728740164
0.3728739013
0.3728735178
0.3728723554
0.3728693164
0.3728630937
0.3728740606
0.3728740607
0.3728740608
0.3728740607
0.3728740606
0.3728740604
0.37287406
0.3728740586
0.3728740529
0.3728740323
0.3728739638
0.3728737504
0.3728731462
0.3728716616
0.3728686951
0.3728740609
0.3728740609
0.3728740608
0.3728740607
0.3728740609
0.3728740607
0.3728740603
0.3728740593
0.372874056
0.3728740446
0.372874009
0.3728739049
0.3728736278
0.3728729784
0.3728716948
0.3728740607
0.3728740608
0.3728740608
0.3728740608
0.3728740607
0.3728740607
0.3728740606
0.3728740599
0.3728740577
0.3728740507
0.3728740301
0.3728739729
0.3728738282
0.3728735011
0.3728728564
0.3728740607
0.3728740608
0.3728740608
0.3728740607
0.3728740608
0.3728740607
0.3728740603
0.3728740592
0.3728740556
0.3728740442
0.3728740083
0.3728739042
0.3728736293
0.3728729894
0.3728740607
0.3728740609
0.3728740608
0.3728740608
0.3728740608
0.3728740606
0.3728740603
0.3728740587
0.3728740527
0.3728740324
0.3728739639
0.3728737505
0.3728731463
0.3728716614
0.372874061
0.3728740608
0.3728740607
0.3728740607
0.3728740607
0.3728740607
0.37287406
0.3728740572
0.3728740466
0.3728740062
0.37287386
0.3728733628
0.3728718287
0.3728677634
0.3728594037
0.3728740608
0.3728740609
0.3728740607
0.3728740607
0.3728740607
0.3728740603
0.3728740594
0.3728740552
0.3728740381
0.3728739687
0.3728736968
0.3728726846
0.3728692287
0.3728590761
0.372836798
0.3728740608
0.3728740608
0.3728740606
0.3728740607
0.3728740606
0.3728740604
0.3728740592
0.3728740544
0.3728740332
0.3728739441
0.3728735735
0.3728720836
0.3728664544
0.3728476734
0.3728009208
0.3728740608
0.3728740607
0.3728740606
0.3728740606
0.3728740606
0.3728740604
0.3728740594
0.3728740553
0.3728740382
0.3728739688
0.3728736968
0.3728726846
0.3728692288
0.3728590764
0.3728367989
0.3728740606
0.3728740606
0.3728740606
0.3728740607
0.3728740606
0.3728740605
0.3728740599
0.3728740572
0.3728740465
0.372874006
0.3728738599
0.3728733628
0.3728718286
0.3728677635
0.3728594044
0.3728740607
0.3728740608
0.3728740607
0.3728740606
0.3728740607
0.3728740607
0.3728740601
0.3728740586
0.3728740527
0.3728740323
0.372873964
0.3728737505
0.372873146
0.3728716614
0.3728686948
0.3728740607
0.3728740608
0.3728740607
0.3728740608
0.3728740609
0.3728740607
0.3728740604
0.3728740594
0.3728740559
0.3728740443
0.3728740083
0.3728739041
0.3728736293
0.3728729894
0.3728717252
0.3728740608
0.3728740609
0.3728740608
0.3728740609
0.3728740608
0.3728740608
0.3728740603
0.3728740588
0.3728740539
0.3728740369
0.3728739814
0.3728738136
0.3728733515
0.3728722382
0.3728740607
0.3728740607
0.3728740608
0.3728740608
0.3728740607
0.3728740606
0.3728740599
0.3728740576
0.3728740488
0.3728740166
0.3728739013
0.3728735178
0.372872355
0.372869316
0.372874061
0.3728740609
0.3728740606
0.3728740607
0.3728740609
0.3728740604
0.3728740596
0.3728740553
0.3728740382
0.3728739688
0.3728736968
0.3728726847
0.3728692289
0.3728590755
0.3728740609
0.3728740608
0.3728740607
0.3728740606
0.3728740606
0.3728740602
0.3728740589
0.3728740523
0.3728740231
0.372873894
0.3728733337
0.3728709742
0.3728616473
0.3728292419
0.3727463714
0.3728740608
0.3728740608
0.3728740607
0.3728740606
0.3728740606
0.3728740602
0.3728740585
0.3728740504
0.3728740132
0.3728738377
0.3728730063
0.3728690654
0.3728507028
0.3727705873
0.3724924255
0.3728740608
0.3728740608
0.3728740608
0.3728740607
0.3728740605
0.3728740602
0.3728740588
0.3728740522
0.372874023
0.372873894
0.3728733336
0.3728709743
0.3728616474
0.3728292431
0.3727463763
0.3728740605
0.3728740607
0.3728740606
0.3728740606
0.3728740605
0.3728740606
0.3728740596
0.3728740553
0.3728740381
0.3728739688
0.3728736968
0.3728726847
0.372869229
0.3728590764
0.3728367987
0.3728740609
0.3728740609
0.3728740609
0.3728740607
0.3728740606
0.3728740604
0.3728740599
0.3728740577
0.372874049
0.3728740164
0.3728739012
0.3728735176
0.3728723551
0.3728693166
0.3728630936
0.3728740609
0.3728740608
0.3728740609
0.3728740608
0.3728740607
0.3728740606
0.3728740602
0.3728740589
0.3728740539
0.3728740368
0.3728739814
0.3728738136
0.3728733513
0.3728722382
0.372870023
0.3728740607
0.3728740606
0.3728740606
0.3728740608
0.3728740608
0.3728740606
0.3728740601
0.3728740585
0.3728740529
0.3728740327
0.3728739664
0.3728737589
0.3728731685
0.3728717008
0.3728740608
0.3728740608
0.3728740609
0.3728740608
0.3728740608
0.3728740607
0.3728740598
0.3728740571
0.3728740467
0.3728740071
0.3728738611
0.3728733494
0.3728717023
0.3728670985
0.3728740607
0.3728740606
0.3728740607
0.3728740607
0.3728740607
0.3728740603
0.3728740592
0.3728740544
0.3728740333
0.3728739443
0.3728735736
0.3728720837
0.3728664542
0.3728476719
0.3728740607
0.3728740606
0.3728740606
0.3728740605
0.3728740605
0.3728740602
0.3728740585
0.3728740506
0.3728740129
0.3728738374
0.3728730063
0.3728690653
0.3728507022
0.3727705826
0.3728740608
0.3728740605
0.3728740606
0.3728740605
0.3728740606
0.3728740602
0.3728740581
0.372874048
0.3728739987
0.3728737467
0.3728723998
0.3728647756
0.3728186439
0.3725183256
0.3704032522
0.3728740607
0.3728740608
0.3728740608
0.3728740609
0.3728740608
0.3728740605
0.3728740585
0.3728740505
0.3728740131
0.3728738375
0.3728730063
0.3728690653
0.3728507026
0.372770587
0.3724924256
0.3728740606
0.3728740609
0.3728740607
0.3728740608
0.3728740608
0.3728740605
0.3728740594
0.3728740543
0.3728740332
0.3728739439
0.3728735733
0.3728720837
0.3728664544
0.3728476733
0.3728009209
0.372874061
0.3728740608
0.3728740608
0.3728740607
0.3728740607
0.3728740606
0.3728740599
0.3728740573
0.3728740468
0.3728740071
0.3728738608
0.3728733493
0.3728717025
0.3728670989
0.3728572356
0.3728740609
0.3728740607
0.3728740607
0.3728740609
0.3728740608
0.3728740607
0.3728740602
0.3728740586
0.3728740527
0.3728740328
0.3728739663
0.3728737587
0.3728731682
0.3728717007
0.3728687434
0.3728740607
0.3728740607
0.3728740607
0.3728740606
0.3728740607
0.3728740605
0.3728740603
0.3728740588
0.3728740538
0.3728740368
0.3728739816
0.3728738136
0.3728733514
0.3728722383
0.3728740608
0.3728740607
0.3728740606
0.3728740607
0.3728740607
0.3728740606
0.3728740598
0.3728740576
0.3728740489
0.3728740165
0.3728739014
0.3728735177
0.3728723551
0.3728693161
0.3728740607
0.3728740606
0.3728740607
0.3728740608
0.3728740608
0.3728740604
0.3728740594
0.3728740553
0.3728740381
0.3728739688
0.3728736968
0.3728726846
0.3728692287
0.3728590756
0.3728740605
0.3728740606
0.3728740605
0.3728740606
0.3728740605
0.3728740603
0.3728740586
0.372874052
0.3728740229
0.372873894
0.3728733338
0.3728709743
0.3728616469
0.3728292406
0.3728740607
0.3728740606
0.3728740606
0.3728740607
0.3728740606
0.3728740603
0.3728740585
0.3728740504
0.3728740131
0.3728738376
0.3728730064
0.3728690654
0.372850702
0.372770582
0.3728740606
0.3728740607
0.3728740607
0.3728740607
0.3728740605
0.3728740603
0.372874059
0.3728740524
0.372874023
0.3728738941
0.3728733337
0.3728709745
0.372861647
0.372829241
0.3728740608
0.3728740609
0.3728740607
0.3728740608
0.3728740604
0.3728740605
0.3728740594
0.3728740554
0.3728740382
0.3728739687
0.3728736968
0.3728726847
0.3728692288
0.3728590758
0.3728367973
0.3728740608
0.3728740608
0.3728740607
0.3728740607
0.3728740607
0.3728740604
0.3728740599
0.3728740577
0.372874049
0.3728740165
0.3728739013
0.3728735177
0.3728723553
0.3728693165
0.3728630933
0.3728740607
0.3728740607
0.3728740609
0.3728740607
0.3728740608
0.3728740605
0.3728740602
0.3728740587
0.3728740537
0.3728740366
0.3728739815
0.3728738138
0.3728733515
0.3728722383
0.3728700231
0.3728740609
0.3728740608
0.3728740609
0.3728740609
0.3728740609
0.3728740609
0.3728740605
0.3728740594
0.3728740559
0.3728740444
0.3728740085
0.3728739043
0.3728736293
0.3728729894
0.3728740608
0.3728740607
0.3728740607
0.3728740606
0.3728740607
0.3728740607
0.3728740603
0.3728740587
0.3728740526
0.3728740322
0.372873964
0.3728737504
0.3728731463
0.3728716616
0.3728740606
0.3728740606
0.3728740607
0.3728740608
0.3728740607
0.3728740606
0.3728740599
0.3728740572
0.3728740465
0.3728740061
0.3728738599
0.3728733627
0.3728718287
0.3728677632
0.3728740609
0.3728740609
0.3728740607
0.3728740608
0.3728740607
0.3728740606
0.3728740595
0.3728740553
0.3728740382
0.3728739688
0.3728736968
0.3728726846
0.3728692288
0.3728590754
0.3728740608
0.3728740607
0.3728740606
0.3728740607
0.3728740606
0.3728740604
0.3728740593
0.3728740545
0.3728740334
0.3728739441
0.3728735737
0.3728720838
0.3728664543
0.372847672
0.3728740607
0.3728740607
0.3728740606
0.3728740607
0.3728740605
0.3728740605
0.3728740595
0.3728740554
0.3728740382
0.3728739689
0.3728736969
0.3728726848
0.3728692287
0.3728590756
0.3728740608
0.3728740608
0.3728740609
0.3728740606
0.3728740606
0.3728740606
0.3728740599
0.372874057
0.3728740463
0.372874006
0.3728738597
0.3728733628
0.3728718288
0.3728677633
0.3728740609
0.3728740608
0.3728740607
0.3728740606
0.3728740608
0.3728740607
0.3728740604
0.3728740586
0.3728740529
0.3728740324
0.3728739639
0.3728737506
0.3728731463
0.3728716614
0.372868695
0.3728740607
0.3728740608
0.3728740607
0.3728740607
0.3728740608
0.3728740608
0.3728740605
0.3728740592
0.3728740557
0.3728740442
0.3728740083
0.372873904
0.3728736292
0.3728729894
0.3728717252
0.3728740607
0.3728740609
0.3728740609
0.3728740609
0.3728740611
0.372874061
0.3728740608
0.37287406
0.3728740576
0.3728740507
0.37287403
0.3728739728
0.3728738282
0.3728735012
0.3728740607
0.3728740608
0.3728740608
0.3728740609
0.3728740608
0.3728740607
0.3728740604
0.3728740594
0.3728740561
0.3728740447
0.3728740092
0.3728739049
0.3728736278
0.3728729786
0.3728740606
0.3728740607
0.3728740607
0.3728740607
0.372874061
0.3728740607
0.3728740601
0.3728740585
0.3728740528
0.3728740323
0.372873964
0.3728737504
0.3728731464
0.3728716618
0.3728740607
0.3728740607
0.3728740608
0.3728740608
0.3728740608
0.3728740607
0.3728740601
0.3728740579
0.3728740489
0.3728740165
0.3728739012
0.3728735176
0.3728723552
0.3728693161
0.3728740608
0.3728740608
0.3728740608
0.3728740607
0.3728740608
0.3728740605
0.37287406
0.3728740572
0.372874047
0.3728740073
0.3728738611
0.3728733494
0.3728717025
0.3728670986
0.3728740608
0.3728740607
0.3728740607
0.3728740608
0.3728740608
0.3728740606
0.37287406
0.3728740578
0.3728740491
0.3728740166
0.3728739013
0.3728735179
0.3728723551
0.3728693163
0.3728740607
0.3728740607
0.3728740609
0.3728740608
0.3728740608
0.3728740605
0.3728740603
0.3728740586
0.3728740528
0.3728740324
0.3728739641
0.3728737506
0.3728731464
0.3728716615
0.3728740607
0.3728740608
0.3728740607
0.3728740607
0.3728740607
0.3728740606
0.3728740604
0.3728740594
0.3728740558
0.3728740445
0.372874009
0.3728739048
0.3728736277
0.3728729785
0.3728740607
0.3728740606
0.3728740606
0.3728740607
0.3728740606
0.3728740607
0.3728740606
0.3728740599
0.3728740576
0.3728740507
0.3728740301
0.3728739729
0.3728738282
0.3728735012
0.3728728565
0.3728740607
0.3728740608
0.3728740608
0.3728740607
0.3728740609
0.3728740609
0.3728740607
0.3728740601
0.3728740586
0.3728740539
0.3728740409
0.3728740061
0.372873921
0.3728737326
0.3728740607
0.3728740608
0.3728740607
0.3728740609
0.3728740608
0.3728740608
0.3728740606
0.3728740598
0.3728740575
0.3728740506
0.3728740299
0.3728739729
0.3728738283
0.3728735012
0.3728740607
0.3728740606
0.3728740608
0.3728740607
0.3728740608
0.3728740607
0.3728740605
0.3728740595
0.3728740559
0.3728740443
0.3728740084
0.3728739041
0.3728736293
0.3728729895
0.3728740608
0.3728740607
0.3728740608
0.3728740607
0.3728740607
0.3728740608
0.3728740603
0.3728740589
0.3728740538
0.3728740368
0.3728739814
0.3728738136
0.3728733516
0.3728722383
0.3728740608
0.372874061
0.3728740609
0.3728740608
0.3728740607
0.3728740607
0.3728740601
0.3728740588
0.3728740529
0.3728740331
0.3728739664
0.372873759
0.3728731683
0.3728717009
0.3728740609
0.3728740608
0.3728740608
0.3728740608
0.3728740608
0.3728740605
0.3728740602
0.3728740589
0.372874054
0.3728740368
0.3728739814
0.3728738137
0.3728733516
0.3728722383
0.3728740608
0.3728740607
0.3728740606
0.3728740608
0.3728740608
0.3728740607
0.3728740604
0.3728740594
0.372874056
0.3728740444
0.3728740084
0.3728739043
0.3728736293
0.3728729893
0.3728740608
0.3728740609
0.3728740606
0.3728740607
0.3728740608
0.3728740607
0.3728740605
0.3728740597
0.3728740575
0.3728740507
0.3728740301
0.3728739731
0.3728738282
0.3728735011
0.3728740609
0.3728740607
0.3728740606
0.3728740606
0.3728740607
0.3728740607
0.3728740607
0.3728740602
0.3728740586
0.372874054
0.3728740409
0.3728740061
0.3728739209
0.3728737325
)
;

boundaryField
{
    top
    {
        type            calculated;
        value           nonuniform List<scalar> 
134
(
0.3728740608
0.3728740607
0.3728740607
0.3728740609
0.3728740609
0.3728740607
0.3728740607
0.3728740607
0.3728740609
0.3728740609
0.3728740608
0.3728740608
0.3728740608
0.3728740607
0.3728740607
0.3728740608
0.3728740606
0.3728740607
0.3728740609
0.3728740608
0.3728740607
0.3728740609
0.3728740607
0.3728740609
0.3728740607
0.3728740606
0.3728740606
0.3728740608
0.3728740608
0.3728740608
0.3728740608
0.3728740609
0.3728740607
0.3728740607
0.3728740607
0.3728740606
0.3728740607
0.3728740607
0.3728740609
0.3728740607
0.3728740608
0.3728740608
0.3728740608
0.3728740606
0.3728740607
0.3728740607
0.3728740607
0.3728740607
0.3728740606
0.3728740607
0.3728740605
0.3728740608
0.3728740607
0.3728740607
0.3728740607
0.3728740606
0.3728740604
0.3728740602
0.3728740602
0.3728740602
0.3728740605
0.3728740606
0.3728740607
0.3728740602
0.3728740599
0.3728740594
0.3728740589
0.3728740586
0.3728740587
0.3728740592
0.3728740599
0.3728740602
0.3728740586
0.3728740577
0.3728740559
0.3728740539
0.3728740527
0.3728740537
0.3728740557
0.3728740576
0.3728740586
0.372874054
0.3728740507
0.3728740443
0.3728740368
0.3728740328
0.3728740366
0.3728740442
0.3728740507
0.372874054
0.3728740408
0.3728740301
0.3728740083
0.3728739814
0.3728739663
0.3728739815
0.3728740083
0.3728740301
0.3728740409
0.3728740061
0.3728739729
0.3728739041
0.3728738136
0.3728737587
0.3728738138
0.372873904
0.3728739729
0.3728740061
0.3728739208
0.3728738282
0.3728736293
0.3728733513
0.3728731682
0.3728733515
0.3728736292
0.3728738282
0.3728739209
0.3728737324
0.3728735011
0.3728729894
0.3728722382
0.3728717007
0.3728722383
0.3728729894
0.3728735012
0.3728737325
0.3728733609
0.3728728564
0.3728717252
0.372870023
0.3728687434
0.3728700231
0.3728717252
0.3728728565
)
;
    }
    bottom
    {
        type            calculated;
        value           nonuniform List<scalar> 
127
(
0.3728740608
0.3728740606
0.3728740607
0.3728740608
0.3728740607
0.3728740607
0.3728740609
0.3728740607
0.3728740607
0.3728740607
0.3728740607
0.3728740608
0.3728740609
0.3728740606
0.3728740607
0.3728740608
0.3728740609
0.3728740608
0.3728740608
0.3728740608
0.3728740608
0.3728740608
0.3728740606
0.3728740607
0.3728740609
0.3728740609
0.3728740608
0.3728740608
0.3728740608
0.3728740607
0.3728740609
0.3728740608
0.3728740606
0.3728740609
0.3728740609
0.3728740607
0.3728740608
0.3728740607
0.3728740608
0.3728740608
0.3728740608
0.3728740607
0.3728740609
0.3728740611
0.3728740609
0.3728740609
0.3728740606
0.3728740607
0.3728740608
0.3728740606
0.3728740605
0.3728740609
0.372874061
0.3728740609
0.3728740608
0.3728740605
0.3728740603
0.3728740603
0.3728740601
0.3728740603
0.3728740605
0.3728740608
0.3728740607
0.3728740602
0.3728740598
0.3728740592
0.3728740588
0.3728740585
0.3728740588
0.3728740594
0.37287406
0.3728740601
0.3728740587
0.3728740577
0.3728740556
0.3728740539
0.3728740529
0.3728740538
0.3728740559
0.3728740576
0.3728740586
0.3728740542
0.3728740508
0.3728740442
0.3728740369
0.3728740327
0.3728740368
0.3728740444
0.3728740507
0.3728740539
0.3728740409
0.37287403
0.3728740083
0.3728739814
0.3728739664
0.3728739816
0.3728740085
0.37287403
0.3728740409
0.3728740061
0.3728739729
0.3728739042
0.3728738136
0.3728737589
0.3728738136
0.3728739043
0.3728739728
0.3728740061
0.372873921
0.3728738282
0.3728736293
0.3728733515
0.3728731685
0.3728733514
0.3728736293
0.3728738282
0.372873921
0.3728737325
0.372873501
0.3728729894
0.3728722382
0.3728717008
0.3728722383
0.3728729894
0.3728735012
0.3728737326
0.3728733611
)
;
    }
    side-walls
    {
        type            calculated;
        value           nonuniform List<scalar> 
261
(
0.3728740608
0.3728740607
0.3728740607
0.3728740608
0.3728740606
0.3728740607
0.3728740608
0.3728740607
0.3728740608
0.3728740607
0.3728740607
0.3728740608
0.3728740607
0.3728740605
0.3728740606
0.3728740607
0.3728740607
0.3728740609
0.3728740608
0.3728740609
0.3728740608
0.3728740607
0.3728740606
0.3728740605
0.3728740608
0.3728740609
0.3728740609
0.3728740608
0.3728740609
0.3728740608
0.3728740607
0.3728740608
0.3728740606
0.3728740608
0.3728740608
0.3728740608
0.3728740608
0.3728740608
0.3728740607
0.3728740607
0.3728740607
0.3728740606
0.3728740606
0.3728740609
0.3728740607
0.3728740609
0.3728740607
0.3728740606
0.3728740606
0.3728740605
0.3728740605
0.3728740605
0.3728740608
0.3728740607
0.3728740608
0.3728740607
0.3728740602
0.3728740602
0.3728740602
0.3728740601
0.3728740605
0.3728740605
0.3728740607
0.3728740602
0.3728740599
0.3728740591
0.3728740589
0.3728740585
0.3728740588
0.3728740594
0.3728740599
0.3728740602
0.3728740587
0.3728740577
0.3728740558
0.3728740539
0.3728740527
0.3728740538
0.3728740559
0.3728740576
0.3728740586
0.3728740542
0.3728740507
0.3728740444
0.3728740368
0.3728740328
0.3728740366
0.3728740443
0.3728740507
0.372874054
0.3728740409
0.3728740301
0.3728740084
0.3728739814
0.3728739662
0.3728739814
0.3728740084
0.37287403
0.3728740408
0.3728740061
0.3728739728
0.3728739042
0.3728738135
0.3728737586
0.3728738137
0.3728739043
0.3728739727
0.3728740061
0.372873921
0.3728738282
0.3728736292
0.3728733514
0.3728731684
0.3728733516
0.3728736292
0.372873828
0.3728739208
0.3728737325
0.3728735011
0.3728729895
0.3728722382
0.372871701
0.3728722382
0.3728729893
0.372873501
0.3728737324
0.3728733611
0.3728728565
0.3728717252
0.372870023
0.3728687436
0.3728700231
0.3728717252
0.3728728563
0.3728733609
0.3728740607
0.3728740607
0.3728740607
0.3728740608
0.3728740608
0.3728740609
0.3728740608
0.3728740608
0.3728740609
0.3728740608
0.3728740608
0.3728740606
0.3728740607
0.372874061
0.3728740608
0.3728740607
0.3728740609
0.3728740607
0.3728740608
0.3728740607
0.3728740608
0.3728740608
0.3728740609
0.3728740608
0.3728740606
0.3728740606
0.3728740606
0.3728740607
0.3728740609
0.3728740607
0.3728740607
0.3728740608
0.3728740608
0.3728740608
0.3728740607
0.3728740606
0.3728740609
0.3728740608
0.3728740608
0.3728740607
0.3728740607
0.3728740608
0.3728740608
0.3728740608
0.3728740607
0.3728740609
0.3728740608
0.3728740607
0.3728740608
0.3728740607
0.3728740605
0.3728740607
0.3728740607
0.3728740607
0.3728740607
0.3728740606
0.3728740605
0.3728740603
0.3728740601
0.3728740602
0.3728740604
0.3728740605
0.3728740607
0.3728740601
0.3728740598
0.3728740595
0.3728740589
0.3728740588
0.3728740589
0.3728740594
0.3728740597
0.3728740602
0.3728740586
0.3728740575
0.3728740559
0.3728740538
0.3728740529
0.372874054
0.372874056
0.3728740575
0.3728740586
0.3728740539
0.3728740506
0.3728740443
0.3728740368
0.3728740331
0.3728740368
0.3728740444
0.3728740507
0.372874054
0.3728740409
0.3728740299
0.3728740084
0.3728739814
0.3728739664
0.3728739814
0.3728740084
0.3728740301
0.3728740409
0.3728740061
0.3728739729
0.3728739041
0.3728738136
0.372873759
0.3728738137
0.3728739043
0.3728739731
0.3728740061
0.372873921
0.3728738283
0.3728736293
0.3728733516
0.3728731683
0.3728733516
0.3728736293
0.3728738282
0.3728739209
0.3728737326
0.3728735012
0.3728729895
0.3728722383
0.3728717009
0.3728722383
0.3728729893
0.3728735011
0.3728737325
)
;
    }
    inlet
    {
        type            calculated;
        value           nonuniform List<scalar> 
81
(
0.3728740608
0.3728740607
0.3728740607
0.3728740608
0.3728740606
0.3728740607
0.3728740608
0.3728740607
0.3728740608
0.3728740606
0.3728740607
0.3728740609
0.3728740607
0.3728740608
0.3728740608
0.3728740606
0.3728740609
0.3728740607
0.3728740607
0.3728740607
0.372874061
0.3728740608
0.3728740608
0.3728740608
0.3728740606
0.3728740607
0.3728740607
0.3728740608
0.3728740607
0.372874061
0.3728740609
0.3728740608
0.3728740608
0.3728740605
0.3728740609
0.3728740609
0.3728740607
0.3728740608
0.3728740607
0.3728740607
0.3728740608
0.3728740607
0.3728740606
0.372874061
0.3728740609
0.3728740607
0.3728740608
0.3728740607
0.3728740605
0.3728740607
0.3728740606
0.3728740608
0.3728740608
0.3728740607
0.3728740609
0.3728740608
0.3728740606
0.3728740609
0.3728740608
0.3728740607
0.3728740608
0.3728740609
0.3728740607
0.3728740607
0.3728740607
0.3728740606
0.3728740607
0.3728740608
0.3728740608
0.3728740607
0.3728740607
0.3728740607
0.3728740607
0.3728740607
0.3728740607
0.3728740608
0.3728740608
0.3728740609
0.3728740608
0.3728740608
0.3728740609
)
;
    }
    outlet
    {
        type            calculated;
        value           nonuniform 0();
    }
    procBoundary0to1
    {
        type            processor;
        value           nonuniform List<scalar> 
97
(
0.372872714
0.3728728565
0.372871765
0.372869666
0.3728665849
0.3728643809
0.372866585
0.3728696658
0.3728717648
0.3728727138
0.3728728565
0.3728728565
0.3728696215
0.3728686949
0.3728642192
0.3728545992
0.3728455043
0.3728545993
0.372864219
0.3728696213
0.3728717649
0.3728717252
0.3728686949
0.3728686949
0.372848229
0.3728367969
0.3728125904
0.3727658156
0.3728125911
0.3728482294
0.3728642191
0.3728696659
0.372870023
0.3728630933
0.3728367969
0.3728367969
0.3726901773
0.3724924126
0.372449413
0.3726901797
0.3728125908
0.3728545991
0.3728665848
0.3728687435
0.3728572353
0.372800919
0.3724924126
0.3724924126
0.3714110734
0.3724924131
0.3724494137
0.3727463725
0.3727658154
0.372845504
0.3728643806
0.372870023
0.3728630934
0.3728367979
0.372746373
0.3724924131
0.3727463725
0.3727463725
0.3728125904
0.3728594038
0.372854599
0.3728665848
0.3728717253
0.3728686952
0.372859404
0.372836798
0.372800919
0.372836798
0.3728594038
0.3728594038
0.372864219
0.3728716949
0.3728696658
0.3728728565
0.3728716951
0.3728686952
0.3728630934
0.3728572353
0.3728630935
0.3728686947
0.3728716949
0.3728716949
0.372871765
0.3728733611
0.3728733611
0.3728728565
0.3728717255
0.3728700232
0.3728687435
0.372870023
0.3728717252
0.3728728567
0.3728733611
)
;
    }
}


// ************************************************************************* //
