/*--------------------------------*- C++ -*----------------------------------*\
| =========                 |                                                 |
| \\      /  F ield         | OpenFOAM: The Open Source CFD Toolbox           |
|  \\    /   O peration     | Version:  2.3.x                                 |
|   \\  /    A nd           | Web:      www.OpenFOAM.org                      |
|    \\/     M anipulation  |                                                 |
\*---------------------------------------------------------------------------*/
FoamFile
{
    version     2.0;
    format      ascii;
    class       volScalarField;
    location    "0.1";
    object      particleRelTemp;
}
// * * * * * * * * * * * * * * * * * * * * * * * * * * * * * * * * * * * * * //

dimensions      [0 0 0 0 0 0 0];

internalField   nonuniform List<scalar> 
23100
(
-0.0380894
-0.0385982
-0.0372674
-0.0401901
-0.0375731
-0.036511
-0.0379294
-0.0384398
-0.0381766
-0.0389004
-0.0392824
-0.0401149
-0.0402017
-0.039895
-0.0393744
-0.035367
-0.0318669
-0.0274069
-0.0306606
-0.0338617
-0.0363072
-0.0415826
-0.0430004
-0.0390119
-0.0396472
-0.0402824
-0.0398006
-0.0389161
-0.0358821
-0.0404778
-0.0372206
-0.0393672
-0.0393043
-0.0373315
-0.0374466
-0.0358341
-0.036594
-0.0384307
-0.0382648
-0.0368674
-0.0387518
-0.0386741
-0.0371708
-0.0385693
-0.0390785
-0.0407307
-0.0394777
-0.0402132
-0.0406825
-0.0243027
-0.00865017
-0.0016328
-0.00196297
-0.00375314
-0.00705196
-0.0248371
-0.0400927
-0.0410076
-0.0410954
-0.0382667
-0.0392003
-0.0367388
-0.0387941
-0.0373872
-0.0398533
-0.0376234
-0.0360927
-0.0380451
-0.0384288
-0.0374834
-0.0387225
-0.0375009
-0.0380351
-0.0358507
-0.0370899
-0.0394948
-0.0381402
-0.0410313
-0.037692
-0.0394195
-0.0419703
-0.0410047
-0.0388941
-0.0391365
-0.0222531
-0.00148565
0.00151802
0.00183623
0.00154588
-0.00257197
-0.0222993
-0.0386255
-0.0403838
-0.0405764
-0.0408892
-0.0394164
-0.0375602
-0.0380532
-0.0386518
-0.0395655
-0.0388452
-0.0390374
-0.0383296
-0.0392142
-0.0375904
-0.0374978
-0.0370906
-0.0387035
-0.0384116
-0.0385832
-0.0375713
-0.0374339
-0.038297
-0.0395048
-0.0407416
-0.0409475
-0.0403641
-0.0389842
-0.0389005
-0.0251743
-0.0026308
0.00152307
0.00186674
0.00140901
-0.00256991
-0.0227194
-0.041245
-0.0379986
-0.0399589
-0.0413106
-0.0395964
-0.0405602
-0.0390427
-0.0392606
-0.0408832
-0.0385128
-0.0381263
-0.0368926
-0.0367351
-0.0384023
-0.0372984
-0.0381519
-0.0388379
-0.0375733
-0.0396293
-0.0373367
-0.0394365
-0.0398865
-0.0396791
-0.0392418
-0.0386224
-0.0382666
-0.0388313
-0.0370775
-0.0288895
-0.00612015
-0.0033911
-0.00415059
-0.00201759
-0.00704453
-0.0266983
-0.0393913
-0.0414483
-0.0399629
-0.0386728
-0.0404131
-0.0377595
-0.0376042
-0.0390163
-0.0384002
-0.0394622
-0.0365512
-0.0377287
-0.0351249
-0.0371115
-0.0391177
-0.038216
-0.0364089
-0.0376942
-0.0383071
-0.0393169
-0.0397491
-0.0391416
-0.0398248
-0.0360183
-0.0367301
-0.0402167
-0.0409069
-0.0413023
-0.040166
-0.0337182
-0.0343079
-0.0312203
-0.0290328
-0.0355006
-0.038438
-0.0411745
-0.0420119
-0.0408744
-0.0402662
-0.040086
-0.039684
-0.0362513
-0.037662
-0.0384547
-0.0390243
-0.0383255
-0.0368062
-0.0373785
-0.0395966
-0.0184576
-0.0171442
-0.0187062
-0.0202795
-0.0176768
-0.0161651
-0.0180944
-0.02089
-0.0210301
-0.0186153
-0.0145442
-0.0177088
-0.0189132
-0.0182603
-0.0122872
-0.00689616
-0.00644582
-0.00540289
-0.00656052
-0.0093077
-0.0127102
-0.0207061
-0.023758
-0.0184439
-0.0186644
-0.0208963
-0.0188117
-0.0171527
-0.0152734
-0.0160029
-0.0158846
-0.0180717
-0.0190376
-0.0165685
-0.01664
-0.0144239
-0.0142364
-0.0152546
-0.0155721
-0.0152227
-0.0190437
-0.0167999
-0.0139289
-0.0122493
-0.015529
-0.016029
-0.0171754
-0.0203255
-0.0151306
-0.0052902
0.000674727
0.00254169
0.00326822
0.00267725
0.000480774
-0.00388372
-0.0152889
-0.0194112
-0.0208875
-0.0151816
-0.0197221
-0.0166038
-0.0158427
-0.0189048
-0.0186575
-0.0159419
-0.0146085
-0.0159722
-0.0160234
-0.0167937
-0.0157179
-0.0153757
-0.0122069
-0.0111952
-0.0133377
-0.0157194
-0.017989
-0.0191089
-0.0133878
-0.012057
-0.0214256
-0.0244716
-0.0193322
-0.0150139
-0.00403981
0.00219835
0.00347496
0.00365181
0.00352375
0.00216144
-0.00283339
-0.0118785
-0.0175167
-0.0183501
-0.0190777
-0.0179074
-0.0159913
-0.0168021
-0.0187132
-0.021976
-0.0183405
-0.0155633
-0.0177754
-0.0155743
-0.015562
-0.0159995
-0.0149212
-0.0164521
-0.0161589
-0.0147606
-0.0178684
-0.0162193
-0.0166271
-0.0181208
-0.0165208
-0.0216876
-0.0198493
-0.0175214
-0.0132776
-0.00678204
0.00159619
0.00343447
0.00357988
0.0034084
0.0021883
-0.00458245
-0.0144987
-0.0160807
-0.0190175
-0.0206992
-0.0210458
-0.01702
-0.0169618
-0.0172352
-0.0222053
-0.0189787
-0.0179995
-0.0130394
-0.0128509
-0.0134878
-0.0152171
-0.0150474
-0.0164731
-0.0144914
-0.0190731
-0.0175366
-0.0163021
-0.0180614
-0.0196722
-0.0185452
-0.0178339
-0.017471
-0.0185117
-0.0132739
-0.0070364
0.000509182
0.00233968
0.00316212
0.00132416
-2.25676e-05
-0.00439748
-0.0154134
-0.0198771
-0.018117
-0.0161761
-0.0167244
-0.0143572
-0.015202
-0.0148396
-0.0151268
-0.0150443
-0.015709
-0.0130282
-0.012284
-0.0144342
-0.0172379
-0.0156621
-0.0143439
-0.0162815
-0.0171558
-0.0211079
-0.0204227
-0.0214071
-0.0193981
-0.0134391
-0.0116255
-0.0191904
-0.0214787
-0.0229692
-0.0129867
-0.00838421
-0.00672883
-0.00518791
-0.00564182
-0.00920503
-0.0132247
-0.0189003
-0.022164
-0.0186034
-0.0156312
-0.0179912
-0.0194779
-0.0167145
-0.0163975
-0.0170687
-0.0160375
-0.0177087
-0.0151787
-0.0159523
-0.0180729
-0.0131866
-0.00949749
-0.0104297
-0.00969332
-0.00969332
-0.0114084
-0.0122334
-0.0149965
-0.0149965
-0.0127907
-0.00879596
-0.00914197
-0.0114898
-0.008799
-0.00658202
-0.00332405
-0.000323505
-0.000243383
-0.00108165
-0.00234454
-0.0075957
-0.0110358
-0.0105867
-0.0112264
-0.0114502
-0.0124335
-0.0114325
-0.0101135
-0.0109025
-0.00955362
-0.0082784
-0.0110685
-0.0103015
-0.00873751
-0.0113815
-0.00820782
-0.00680596
-0.00685157
-0.00703679
-0.0109433
-0.0108071
-0.00956367
-0.00828952
-0.0062449
-0.00591731
-0.0069289
-0.00960888
-0.0113455
-0.00961345
-0.00505981
-0.000804917
0.00269096
0.00349889
0.00261968
0.00125777
-0.0040691
-0.00816872
-0.0103147
-0.00910429
-0.00950554
-0.0101001
-0.00658664
-0.0075788
-0.00973275
-0.0118607
-0.0080872
-0.00702216
-0.00895351
-0.00619792
-0.00746626
-0.009086
-0.00695726
-0.00526509
-0.00543784
-0.00556117
-0.00713905
-0.00965608
-0.00756018
-0.00626988
-0.00594595
-0.00871928
-0.0116396
-0.0114908
-0.00901378
-0.00395497
0.00081822
0.00318517
0.00372553
0.00352882
0.00133494
-0.00349023
-0.00660849
-0.00774229
-0.00977936
-0.00862366
-0.00893519
-0.00681315
-0.00713165
-0.011492
-5.20281
-5.20281
-0.00583307
-0.00767986
-0.00791372
-0.00891989
-0.0103421
-0.00806005
-0.00764886
-0.00618747
-0.00597823
-0.00850634
-0.0110635
-0.00913487
-0.00875979
-0.0112371
-0.00934628
-0.00938182
-0.0107898
-0.00723119
-0.00321361
0.00144295
0.00331863
0.00373206
0.00339636
0.00155579
-0.00288584
-0.00709141
-0.00773923
-0.0109814
-0.0126616
-0.0108782
-0.00746042
-0.00584563
-0.00765519
-0.0121424
-0.0127341
-0.0136556
-0.00419344
-0.00568599
-0.00786282
-0.00973905
-0.00722015
-0.00889185
-0.00771451
-0.00961506
-0.0101675
-0.00853245
-0.00951005
-0.0102301
-0.00927023
-0.00830522
-0.0100426
-0.00818529
-0.00658065
-0.00333253
0.000272403
0.00275709
0.00350054
0.00218127
-0.000367741
-0.00428103
-0.00938251
-0.0116235
-0.00950583
-0.00762207
-0.0100801
-0.00895239
-0.00716786
-0.00732354
-0.00645434
-0.00655286
-0.00928099
-0.00616001
-0.00578676
-0.00769746
-0.00979087
-0.00709737
-0.00634421
-0.00938489
-0.0115812
-0.0184989
-0.0114617
-0.0154721
-0.0131999
-0.00857071
-0.00684808
-0.0119815
-0.0135054
-0.0121976
-0.00727811
-0.00358574
-0.000743504
0.000272898
-0.00125992
-0.00386537
-0.00710955
-0.0114547
-0.0107326
-0.00966024
-0.00949472
-0.0102409
-0.0100023
-0.0122749
-0.00914368
-0.00957701
-0.00866768
-0.00983762
-0.0105494
-0.00946566
-0.0131479
-0.0112809
-0.0082944
-0.00924558
-0.0085453
-0.0098132
-0.00998099
-5.20281
-0.014712
-5.20281
-0.0120878
-0.00699394
-0.00663829
-0.00645073
-0.00645985
-0.00475314
-0.00326512
-0.00013348
0.000768036
-0.000270876
-0.00328452
-0.00784182
-0.00776696
-0.00768582
-0.00804369
-0.010185
-5.20281
-0.0115301
-0.00958874
-0.00905031
-0.00562812
-0.00654184
-0.0095605
-0.00857992
-0.00796151
-0.00722967
-0.00724561
-0.00609383
-0.00509618
-0.00629445
-0.00677994
-0.00687259
-0.00753865
-0.00913434
-0.00394569
-0.00356128
-0.00436025
-0.00486737
-0.00562199
-0.0069159
-0.00470031
-0.00134264
0.00223529
0.00355904
0.0026889
-0.000222041
-0.00463766
-0.00473467
-0.00694784
-0.00612863
-0.00587789
-0.00677861
-0.00609414
-0.00565522
-0.00677636
-0.00779148
-0.00467465
-0.00528239
-0.00587495
-0.00392033
-0.00484649
-0.00776123
-0.00332104
-0.00312988
-0.00422585
-0.00386813
-0.00647831
-0.00812178
-0.00794102
-0.00377458
-0.00415488
-0.00693438
-0.00973427
-0.0077567
-0.00676437
-0.00505151
-0.000399532
0.00289246
0.00374045
0.00311425
0.000402169
-0.00381441
-0.00480103
-0.00468223
-0.00505919
-0.00634751
-0.00664228
-0.00570764
-0.00611964
-0.00944129
-0.00894497
-0.00845003
-0.00606159
-0.0064688
-0.00524191
-0.00633818
-0.00800241
-0.00632546
-0.00596971
-5.20281
-0.00531662
-0.00692126
-0.00735779
-0.00623351
-0.00676363
-0.00629307
-0.00706426
-0.00630732
-0.00597375
-0.00487166
-0.0035869
0.00109525
0.0035234
0.00375201
0.00308964
0.000472526
-0.00403751
-0.0047995
-0.00585904
-0.00671099
-0.0105422
-0.00962903
-0.00656487
-0.00541199
-0.00843234
-0.0121014
-0.0111317
-0.00837774
-0.00626081
-0.00365791
-0.00572767
-0.00683767
-0.0044869
-0.00574524
-0.00484227
-0.00768079
-0.010459
-0.00712635
-0.0067127
-0.00670419
-0.00704581
-0.0077574
-0.00739189
-0.00795161
-0.00549314
-0.00511254
-1.05913e-05
0.00255889
0.00333273
0.0022077
-0.000448853
-0.00360603
-0.00709665
-0.00931367
-0.00608923
-0.00703413
-0.00729729
-0.00717266
-0.00589538
-0.00714321
-0.00910767
-0.00475512
-0.00774792
-0.00492663
-0.00524396
-0.00511213
-0.00955069
-0.0038555
-0.00335029
-0.00897617
-0.0101983
-0.0126843
-0.0135288
-0.0124558
-0.0101612
-0.00773969
-0.00647333
-0.01067
-0.0120316
-5.20281
-0.00846738
-0.00311609
-0.000257384
0.000936657
0.000252017
-0.00322775
-0.00691717
-0.00902126
-0.00767628
-0.00681549
-0.00852246
-0.00929132
-0.00884334
-0.00922068
-0.00770542
-0.00613929
-0.00630697
-0.0085658
-0.00791554
-0.00794453
-0.00781556
-0.0075328
-0.00689258
-0.00873012
-0.00632378
-0.00994176
-0.00926898
-0.00739092
-0.0144087
-0.0144087
-0.0120878
-0.00412842
-0.00526787
-0.00741102
-0.00450964
-0.00329562
-0.00243534
-0.000465124
0.000479558
-6.08531e-05
-0.00159198
-0.00616756
-0.007932
-0.00713506
-0.00641974
-0.0090732
-0.0106343
-0.00756439
-0.00650269
-0.00677614
-0.00613562
-0.00350731
-0.00871914
-0.00557384
-0.0070884
-0.00939332
-0.00645203
-0.00377044
-0.00246597
-0.00298716
-5.20281
-0.0058802
-0.00655823
-0.00552679
-0.00647693
-0.00242249
-0.0027452
-0.0045447
-0.00393613
-0.00310657
-0.00254821
-0.00139439
0.00215743
0.00343818
0.00261646
5.16038e-05
-0.00321587
-0.00305793
-0.00338868
-0.00429155
-0.00519357
-0.00606509
-0.00349377
-0.00287106
-0.00378714
-0.00807459
-0.00415456
-0.00361419
-0.00400087
-0.00261871
-0.00339309
-0.00478241
-0.00220888
-0.00136361
-0.0020678
-0.00167438
-0.00357965
-0.00696109
-0.00453245
-0.00199133
-0.00228742
-0.0072924
-0.00880088
-0.00518035
-0.00484596
-0.00427237
-0.00189042
0.00252053
0.00373802
0.00311196
0.000836056
-0.00250808
-0.00195863
-0.00211213
-0.00225527
-0.00373965
-0.00496755
-0.00239465
-0.00348419
-0.00894717
-0.0104374
-0.00728037
-0.00306865
-0.00520004
-0.00387456
-0.00470717
-0.00633953
-0.00338296
-0.00409527
-0.00268308
-0.00310996
-0.00372939
-0.00662709
-0.00478489
-0.00353398
-0.00531161
-0.00543764
-0.00497752
-0.00435932
-0.00400121
-0.00299698
0.000295194
0.00335968
0.00374628
0.0030106
0.00101041
-0.00290436
-0.00247514
-0.00384389
-0.00833913
-0.00797779
-0.00634251
-0.00276216
-0.00300081
-0.00639174
-5.20281
-5.20281
-0.00708579
-0.00148749
-0.00185877
-0.0050071
-0.00806008
-0.00638102
-0.00422153
-0.00360911
-0.00476995
-0.00580105
-0.00604833
-0.00509528
-0.00643137
-0.00671883
-0.00645149
-0.00667559
-0.00609788
-0.00455443
-0.00349936
-0.000275491
0.00283358
0.00347238
0.00232437
-7.81055e-05
-0.00358066
-0.00283622
-0.00543521
-0.00383368
-0.00644566
-0.00635936
-0.00396278
-0.00392774
-0.00523521
-0.00345296
-0.00290479
-0.00782694
-0.00424224
-0.00439977
-0.00640864
-0.00966681
-0.00309218
-0.00276619
-0.00733084
-0.00984802
-0.0129672
-0.0108384
-0.0109223
-0.0102569
-0.00638229
-0.00523742
-0.00854008
-0.0111057
-5.20281
-0.0115912
-0.00490861
-0.000586375
0.00107265
-3.49038e-06
-0.00357843
-0.00817486
-0.0085188
-0.00650746
-0.00626659
-0.00792071
-0.00829832
-0.00825903
-0.00813245
-0.00687928
-0.00530544
-0.00580902
-0.00786566
-0.00754178
-0.00772658
-0.0134785
-0.0101956
-0.00589838
-0.00517559
-0.00478437
-0.006974
-0.00741062
-0.00813596
-5.20281
-5.20281
-0.00840205
-0.00509652
-0.00369669
-0.00778117
-0.00374659
-0.00301745
-0.00222268
-0.000509411
0.000432311
6.85039e-05
-0.00196491
-0.00629277
-0.00614487
-0.00526749
-0.00541273
-0.00789074
-0.00948868
-0.00895623
-0.00641482
-0.00641428
-0.00582654
-0.00359377
-0.00632698
-0.00485149
-0.0048041
-0.00943534
-0.00656699
-0.00318182
-0.0012123
-0.00202888
-0.00331301
-0.0043923
-0.00504109
-0.00612768
-0.00488551
-0.00357112
-0.00258193
-0.00214567
-0.00223255
-0.00187631
-0.0015615
-0.000500651
0.0020701
0.0035645
0.00306753
0.000516758
-0.00171535
-0.00246249
-0.0036101
-0.00258033
-0.00335202
-0.00490998
-0.00381524
-0.00283148
-0.00568357
-0.00386953
-0.0012512
-0.00267408
-0.00205669
-0.0011667
-0.00316201
-0.00525323
-0.00114878
-0.000267881
-0.00101389
-0.00103334
-0.0031752
-0.00510181
-0.00335642
-0.00113997
-0.00120471
-0.00357982
-0.00662567
-0.00397748
-0.00208699
-0.00216348
-5.17476e-05
0.00302101
0.00373645
0.00326155
0.00077583
-0.00124243
-0.00163253
-0.00120476
-0.00133039
-0.0037004
-0.00322592
-0.00180012
-0.00279297
-0.00616983
-0.00570053
-0.00461566
-0.00189064
-0.00253991
-0.00207248
-0.00423683
-0.00479614
-0.00184191
-0.00327371
-0.0016693
-0.001761
-0.00488454
-0.0046586
-0.00275887
-0.00234326
-0.00270951
-0.00293998
-0.00274294
-0.00278449
-0.00175315
-0.00118809
0.000382491
0.00308893
0.00375431
0.0032891
0.00111396
-0.0019364
-0.00146609
-0.00385472
-0.00533046
-0.00758695
-0.00675321
-0.00300156
-0.00225821
-0.00598454
-0.008779
-0.00829357
-0.00411383
-0.00148706
-0.00100954
-0.00323633
-0.00742233
-0.00310661
-0.00296285
-0.00282076
-0.00338004
-0.00488323
-0.00575507
-0.00441885
-0.00389508
-0.00329731
-0.00347573
-0.00384769
-0.00477269
-0.00228877
-0.00254094
0.000973618
0.00309657
0.00367793
0.00263433
0.000188238
-0.00151836
-0.00507161
-0.00518438
-0.00315159
-0.002894
-0.00485687
-0.00371104
-0.00306049
-0.00390281
-0.00382923
-0.00406135
-0.00398568
-0.00267182
-0.00176362
-0.00385805
-0.00990477
-0.00287798
-0.00308526
-0.00573311
-0.00721239
-0.00969072
-0.0088655
-0.00804491
-0.00886204
-0.00578167
-0.00470175
-0.0065772
-0.0120713
-5.20281
-0.0115912
-0.00288329
-7.52079e-05
0.00132598
-0.000275881
-0.00346181
-0.00662213
-0.00836002
-0.0053327
-0.00527555
-0.00656974
-0.00748099
-0.00526062
-0.0062564
-0.00417486
-0.00300645
-0.00372826
-0.00553089
-0.0059062
-0.00468911
-0.00953136
-0.00859764
-0.00628539
-0.00585338
-0.0053255
-0.00683836
-0.00587073
-0.0126337
-0.0124682
-5.20281
-5.20281
-0.00339731
-0.00431658
-0.00469088
-0.00355822
-0.00229203
-0.00194193
-0.000493331
0.000455172
0.000919328
-0.00115251
-0.0066894
-0.00648241
-0.00424895
-0.00437497
-0.0051257
-0.00907122
-0.00707482
-0.00533078
-0.00563471
-0.00465752
-0.00239223
-0.00689668
-0.00309513
-0.00450629
-0.0108917
-0.00453936
-0.000972352
-0.000451448
-0.00121943
-0.00550889
-0.00201009
-0.00324443
-0.00446203
-0.00345098
-0.00450883
-0.000790034
-0.00117603
-0.00219207
-0.000531215
-0.000249525
9.96169e-05
0.00215477
0.0031548
0.00316858
0.000445945
-0.000386284
-0.000594799
-0.002144
-0.00129068
-0.00219022
-0.00366282
-0.00116633
-0.000604771
-0.0053721
-0.00546201
-0.000792207
-0.0012222
-0.00121458
-0.00126404
-0.0031289
-0.00418995
0.000973311
-0.000106596
0.000366941
0.000628656
-0.00246204
-0.00323192
-0.00221118
0.000138429
-0.000267177
-0.00387907
-0.00565438
-0.00349354
-0.00131694
-0.000768311
0.000305451
0.0028403
0.00373901
0.00350608
0.00207029
-0.000563295
-0.000244393
0.000543378
-0.000107924
-0.00257147
-0.00186422
-0.00024565
-0.000664698
-0.00629124
-0.00218087
-0.00182907
-0.00220363
-0.00250231
-0.00175451
-0.00297244
-0.00435726
0.00050906
-0.00225057
-0.000637793
-0.000404815
-0.00485365
-0.0044091
-0.00183321
-0.001231
-0.00131966
-0.00152676
-0.00118507
-0.00201294
-0.00160766
-0.000809138
0.00162688
0.00330349
0.00374775
0.00351762
0.00210321
-0.000344801
0.000207975
-0.00084263
-0.00462079
-0.0047717
-0.00311037
-0.00141581
-0.000924274
-0.00469298
-0.00540471
-0.00384335
-0.00224919
-0.000627158
-0.000336885
-0.00302397
-0.00619891
-0.00347901
-0.00188974
-0.00129254
-0.000396401
-0.00191236
-0.00287897
-0.00217312
-0.00284181
-0.00280797
-0.00235288
-0.00408837
-0.00791668
-0.0049592
-0.00300977
0.000779659
0.00289882
0.00346393
0.00291982
0.00151074
-0.000945283
-0.00285834
-0.00382571
-0.00241538
-0.00309417
-0.0032068
-0.00208966
-0.00213444
-0.00367439
-0.00139841
-0.00162306
-0.00221402
-0.000972806
-0.00218975
-0.00472498
-0.00887784
-0.00207519
-0.00197567
-0.00438647
-0.0038637
-0.00845946
-0.00791477
-0.0060404
-0.00864842
-0.00563048
-0.00374569
-0.00786775
-0.00891785
-0.0118185
-0.00613732
-0.00394316
-0.000365249
0.00133226
0.000166911
-0.00371285
-0.00671912
-0.00847338
-0.00428467
-0.00391696
-0.00591048
-0.00648527
-0.00534304
-0.00556001
-0.00377332
-0.00207252
-0.00372603
-0.00546928
-0.00575271
-0.00488843
-0.0101845
-0.00954068
-0.00434131
-0.00423699
-0.00300114
-0.00509965
-0.00583145
-0.00952393
-0.0124682
-5.20281
-0.0113872
-0.00741864
-0.00356451
-0.00501099
-0.00211662
-0.00200043
-0.00149025
-0.000323533
0.000878096
0.000477976
-0.000904873
-0.0066003
-0.00616046
-0.00451999
-0.00419008
-0.00668961
-0.00752435
-0.00548096
-0.00500894
-0.00528893
-0.00467286
-0.00324745
-0.00519559
-0.00253583
-0.00286194
-0.00746347
-0.0055836
-0.00165536
-0.000287723
0.000865403
-0.00123784
-0.00193609
-0.00207556
-0.00553153
-0.00716886
-0.0044142
-0.00201977
-0.000705295
-0.00037934
0.000594985
4.3328e-05
0.000691451
0.00243645
0.00353941
0.00271939
0.00115949
-0.00118737
0.000173322
-0.000954233
-0.000379227
-0.0023534
-0.00383981
-0.00103624
-0.000111025
-0.00360939
-0.0012475
0.000394487
0.000349011
0.000718319
-0.000294177
-0.00197977
-0.00329584
0.000766224
0.00104534
0.00082867
0.000990369
-0.00112818
-0.0014958
-0.000719498
0.000200039
6.98327e-05
-0.00218141
-0.00248378
-0.00193575
-0.000213563
0.000243423
0.00277985
0.00347071
0.00374517
0.00348327
0.00228275
0.000456878
4.18432e-05
0.000764061
0.000531708
8.18387e-06
-0.00115542
0.000723417
4.78608e-05
-0.00350084
-0.00455956
-0.00138713
-0.000466918
-0.000546593
-0.000172973
-0.00312559
-0.00472502
0.000863439
-0.000527693
7.69925e-06
0.000117533
-0.00336451
-0.00237531
-0.00121306
-0.000140235
-0.000632701
-0.000369935
-0.000980967
-0.00048509
-0.000452445
1.0278e-05
0.0018956
0.00352295
0.00374378
0.00338345
0.00225862
0.000145027
0.000556986
-0.00193071
-0.00365832
-0.00316796
-0.00285917
-0.000383139
0.000143354
-0.00363026
-0.00508929
-0.00398143
-0.000959534
0.000705475
0.00044053
-0.00220538
-0.00458144
-0.00145995
-0.00104794
-0.000326759
0.000744346
-0.00317942
-0.00175947
-0.00179664
-7.17939e-05
-0.00122341
-0.00116923
-0.00294582
-0.00456402
-0.00376261
-0.00532529
0.00238918
0.00311214
0.00345443
0.00277501
-0.000247605
-0.000145301
-0.00208469
-0.00330605
-0.00117987
-0.000768435
-0.00178772
-0.00188761
-0.000455292
-0.00177185
-0.00129526
-0.00251577
-0.000632021
0.000165045
-0.00183395
-0.00366289
-0.0082809
-0.00641031
-0.00159368
-0.00355994
-0.00312143
-0.00470283
-0.00504507
-0.00609764
-0.00733343
-0.00345356
-0.00401796
-0.0059104
-0.0091156
-0.0130881
-0.0112995
-0.00169659
0.00067032
0.00135383
0.000122168
-0.00326415
-0.00691164
-0.00847338
-0.00494
-0.00325544
-0.00536542
-0.00479611
-0.00473994
-0.00451553
-0.00392335
-0.00144668
-0.0028292
-0.00459816
-0.00485048
-0.00551605
-0.0101795
-0.00829629
-0.00380781
-0.00491785
-0.00412739
-0.00549672
-0.00764735
-0.00990864
-0.010614
-5.20281
-0.00714832
-0.0057113
-0.00356451
-5.20281
-0.0034917
-0.00148379
-0.00124752
-0.000456686
0.000271541
0.000243813
-0.000957664
-0.00489786
-5.20281
-0.00424209
-0.00361247
-0.00725675
-5.20281
-5.20281
-5.20281
-0.00503111
-0.00399047
-0.00355984
-0.00483007
-0.00235339
-0.00285846
-5.20281
-0.00593749
0.000833957
4.3779e-05
2.10165e-05
-0.00230789
-0.00206348
-0.00357557
-0.00452925
-0.00187001
5.74559e-05
-0.00107572
-0.00100437
-0.000255974
0.000208922
0.000799567
0.00162263
0.00260061
0.0034887
0.00306907
0.000996432
0.000270191
0.00105356
-0.00211801
0.000497191
0.000637136
-0.00184436
-0.000794634
-5.20281
-0.00240209
-0.00174094
0.000815096
-5.20281
-0.000292016
-0.00124978
0.000811827
-0.0018192
0.00136589
0.00152775
0.00142914
0.000517603
0.000166526
-0.00168249
-0.000430853
0.00136747
0.00122667
-0.000945929
-0.00175591
-0.000578581
0.000630957
0.00111673
0.00164314
0.00334633
0.00373459
0.00362249
0.00242809
0.000658416
0.000733058
-0.000632569
0.000456677
-0.000343651
-0.000355654
0.00085919
0.000491829
-0.00296715
-0.00291706
6.37149e-05
0.000152758
-0.000726228
7.3261e-05
-0.00238754
-0.00458417
0.00109361
0.000258995
0.000681213
0.00134391
-5.20281
-0.00188428
-3.11015e-05
0.000665534
0.000494781
-0.000123309
0.000252657
-4.12871e-05
9.19912e-05
0.000280228
0.0018514
0.00357822
0.00374751
0.0034065
0.00222312
0.000826025
0.000990462
2.00546e-05
-0.0028771
-0.00308107
-5.20281
-0.000409924
-5.20281
-0.00193542
-5.20281
-0.00223442
-6.24963e-06
0.001462
0.00130542
-0.00291219
-0.00409326
-0.00040078
-0.000306036
9.54525e-06
-6.22607e-05
-0.00135942
-0.00245798
-0.00051635
-0.00134109
-0.000799478
-3.99118e-05
-0.00197837
-0.0054096
-0.00341577
-0.0019879
0.000948193
0.00312111
0.00340086
0.00270058
0.00163803
-0.00182764
-7.17363e-05
-0.00247203
-0.00177999
-0.000298716
-0.0013556
-0.000747889
-0.00490833
-0.00186212
-0.000289154
3.99547e-06
-0.00096552
-0.00229896
-0.00104042
-0.00346257
-0.0103875
-0.00497685
-0.00190217
-0.00371625
-0.00331963
-0.00593839
-0.00553057
-0.00392452
-0.0079335
-0.0044566
-0.00361311
-0.0066032
-0.00729414
-0.00893557
-5.20281
-0.00433376
0.000439173
0.00127718
-0.00015239
-0.00228805
-0.00547387
-5.20281
-0.00324152
-0.00272298
-0.00500495
-0.0054089
-0.00441634
-0.00504945
-0.00217222
-0.00179309
-0.00352838
-0.00511425
-0.00442202
-0.00483733
-0.0108847
-0.00651361
-0.00361839
-0.00418244
-0.0031619
-0.00531283
-0.00622077
-0.010614
-0.010614
-5.20281
-5.20281
-0.00454541
-0.0038794
-0.00660901
-0.00273273
-0.0017524
-0.00115645
-0.000161207
0.000636667
0.000861513
0.000176421
-5.20281
-0.00645479
-0.00566936
-0.00372337
-0.00587665
-0.00725675
-5.20281
-0.00496861
-0.00495582
-0.00430751
-0.00304815
-0.00317959
-0.00249825
-0.00341597
-5.20281
-5.20281
-0.00104972
0.00172672
-0.000213009
-0.00199216
-0.000633339
7.68302e-05
-0.00138052
0.00010581
-0.00181665
8.69923e-05
-0.00132217
0.000463711
0.00180652
0.00145252
0.00228296
0.0030731
0.00308705
0.0032278
0.00192763
0.000545214
0.000841521
-7.25026e-05
-0.000167253
-0.00087043
-0.00105553
-0.000493949
0.000480255
-0.00138717
-0.000685743
0.000111771
-0.000782563
0.000790777
-0.00110156
-0.00266668
-0.00428922
0.000228853
0.00182864
0.00156542
0.00152074
0.00159035
-0.000790251
8.21193e-05
0.000898794
0.00118365
-0.000938643
-0.00131221
-0.000751014
0.00138666
0.00158476
0.00206239
0.00326612
0.00375023
0.00349678
0.00253069
0.00117225
0.00126373
0.00151902
0.00136914
0.00111267
0.00158164
0.00150072
0.00108685
-0.00214762
-0.00134693
0.000419432
0.000827983
-0.000293669
0.000457411
-0.000834606
-0.00427949
-0.00122296
-0.000111817
0.000858329
0.00124866
-0.0012387
-5.20281
-0.000214161
0.000892269
0.00103209
0.000817773
0.000685117
-0.000410718
0.000344743
0.000724893
0.00219721
0.00353285
0.00374811
0.00350223
0.00267157
0.00101725
0.00129149
0.000764431
-0.000597352
0.00114141
-0.00126588
0.000984863
0.00141936
-0.00219133
-0.00220304
-0.000831844
0.000289981
0.00131954
0.000431752
-0.00263893
-0.00351468
-5.20281
-6.45064e-05
0.00113409
0.00129066
0.000385929
-3.67951e-05
-6.96559e-05
-0.000847877
-0.00050895
0.000563045
-0.000728586
-0.00413111
-0.00171804
-0.000854491
0.00251848
0.00315567
0.00341892
0.00234577
0.00161534
-0.00173932
-0.00120246
-0.00251495
-0.000281101
-0.00117616
-0.00176178
-5.80001e-05
-0.00160105
-5.20281
-0.000834594
-0.0005024
-0.00116105
0.00110061
0.000374038
-0.00321602
-5.20281
-5.20281
-0.00155899
-0.00249058
-0.00162445
-0.00286162
-0.00502885
-0.00386735
-0.00509989
-5.20281
-5.20281
-5.20281
-0.0084504
-0.00923368
-0.00934869
-0.00322366
0.000326465
0.00133127
0.000163126
-0.00227987
-0.00628424
-0.00624235
-0.00394866
-0.00222838
-0.00442505
-0.00510245
-0.00327486
-0.0047943
-0.00277122
-0.00167707
-0.0028532
-5.20281
-5.20281
-5.20281
-5.20281
-0.00797493
-0.00444763
-0.00349621
-0.00197205
-0.0047422
-0.00482858
-0.00939916
-0.0107051
-0.0117949
-0.0118482
-0.000231518
-5.20281
-5.20281
-0.0038469
-0.00138029
-0.00103811
-0.000467501
0.000286153
0.000995694
-0.000701231
-0.00369206
-0.00546746
-0.00427045
-0.00337331
-0.00594074
-0.00667005
-0.00629718
-0.00388412
-0.00461559
-0.00383631
-0.00247584
-0.0030199
-0.00219618
-0.00445784
-5.20281
-0.00466394
0.000171544
0.000654087
0.00133682
0.000904917
-0.000404372
-0.00236449
-0.00150886
0.000255969
-0.00158342
2.34535e-05
0.0003663
0.000119717
0.00214031
0.00137432
0.00201271
0.00238972
0.00310012
0.00360307
0.00257905
-0.00148317
0.000995413
0.000113808
-0.000125766
-0.00208684
-0.001643
0.000489609
-0.0011892
-0.0027504
-0.0006726
0.00116541
-0.00173748
0.000850011
-0.000532718
-0.0029692
-0.0031714
0.00135194
0.00225897
0.00173925
0.00189263
-0.00173947
-0.00035974
0.000688755
0.00108147
0.00123898
-0.000522912
-4.49113e-05
0.000375994
0.00199867
0.00192866
0.00267347
0.00356563
0.00374051
0.00352022
0.00283218
0.00160585
0.00162893
0.00133234
0.00156403
0.00128195
0.000354151
0.00175397
0.00113716
-0.00069249
9.67064e-05
0.0015975
0.000914049
0.000168793
0.000570436
-0.00253477
-0.00375919
0.00148615
0.00041284
0.00131728
0.00142602
-0.00160724
-0.000495813
0.000504498
0.00151698
0.00164202
0.00151572
0.00159232
0.000616193
0.0011869
0.00124985
0.00239227
0.00358669
0.003749
0.0035796
0.00238422
0.00129781
0.00148372
0.000707803
0.000169961
-0.00162849
-0.00109535
0.00129315
0.00107863
-0.00166391
-0.00106861
0.00050962
0.000756447
0.00175937
0.00203261
-0.00125081
-0.00459231
-0.000985456
0.00014274
0.00132405
0.00152442
-0.000356223
5.71963e-05
0.000499955
0.000750092
0.00175463
-0.000507929
-0.00285069
-0.000436985
0.000323115
-0.00122265
0.00153917
0.00323338
0.00347239
0.00300013
0.00133163
5.82108e-05
-0.00191563
-0.00111194
-0.000260934
-0.00104632
-0.00134024
0.000106298
0.000469463
-5.20281
9.31873e-06
0.000103109
-5.20281
-0.000164301
-0.00230909
-0.00744393
-0.0109089
-0.00800759
-0.00183052
-0.0022235
-0.00134953
-0.00311309
-0.00368871
-0.00462253
-5.20281
-0.0044072
-0.00485126
-0.00548239
-0.00651438
-0.00881001
-0.00820189
-0.0028512
0.000681725
0.0014104
0.000110828
-0.00227493
-5.20281
-0.0073973
-0.00378764
-0.00210863
-0.00453164
-0.00466176
-0.00373993
-0.00374338
-0.00550605
-0.00141931
-0.00405167
-0.00488288
-0.00420415
-0.0048573
-0.0118041
-0.00855631
-0.00302182
-0.0031574
-0.00126404
-0.00424752
-0.00596271
-0.00747297
-0.00811051
-0.0108506
-5.20281
-0.00456282
-0.00475063
-0.0048911
-0.00365171
-0.000800614
-0.000722024
-0.000140317
0.00071869
0.00044308
-0.00208201
-0.00397134
-0.00213093
-0.00264276
-0.0031503
-0.00428364
-0.00559018
-0.00602116
-0.0049972
-0.00443958
-0.00388368
-0.00164133
-0.00285182
-0.00199735
-0.000955884
-5.20281
-0.00547862
0.00165075
0.00103481
0.00172948
0.000800663
-0.00170573
-0.00083245
-0.000479529
-0.00460133
-0.00662975
-0.000969747
-0.00121628
-0.000840611
0.00209932
0.00234036
0.00189942
0.00292412
0.0035917
0.00335552
0.00186399
-0.000938236
0.000164812
0.00119886
0.00129261
4.36407e-05
-0.00142025
0.000568529
0.00126883
-9.03617e-05
0.000479088
0.000543741
-0.000420335
0.00103856
0.00225305
-0.00646282
-0.00234601
0.000502988
0.00242786
0.00217489
0.00169292
-0.000293967
0.000340926
0.000665222
0.00180951
0.00178958
0.00176797
0.000291662
0.000991014
0.00213254
0.00250898
0.00263157
0.0035904
0.00373078
0.00360163
0.00264733
0.00171455
0.00163612
0.00148779
0.00204963
0.00136256
0.000589258
0.00209819
0.00165358
-1.65899e-05
0.00156601
0.002055
0.00135504
0.000564505
0.00146374
-0.00177291
-0.00327942
0.00015684
0.000860216
0.00180396
0.000944424
-4.74446e-05
-0.000426795
0.00107686
0.00174608
0.00210004
0.00190134
0.00169188
0.00128201
0.00149805
0.00179888
0.00265615
0.00365144
0.00374934
0.00361098
0.00265123
0.00182362
0.00149934
0.00178693
-0.00105209
-0.00165669
-0.000194941
0.00143129
0.00185332
-0.00103162
-0.00101571
0.00105459
0.00115814
0.00194177
0.00144417
-0.00228454
-0.00310528
-0.000826385
0.000461476
0.00108227
0.00134159
0.0015049
0.000296836
0.000838626
-0.000295061
0.00175463
0.000954637
-0.00131587
-0.00290358
-0.0021661
-0.000605561
0.00148775
0.00342406
0.00350677
0.00300097
0.00148905
0.000625437
0.00024585
-0.000394266
0.000436252
0.000671428
-0.000532819
0.00055507
0.00115243
-0.000224625
0.00109361
0.000983014
-0.00198558
0.00125969
-0.000152028
-0.00267054
-0.0108055
-0.0047147
-0.00337215
-0.00274667
-0.000975037
-0.00156986
-0.00373557
-0.00360808
-0.00686854
-0.00418833
-0.00430784
-0.00526489
-0.00575645
-0.00728747
-0.00672682
-0.00271427
0.000944911
0.001329
0.000348359
-0.00331666
-0.00540074
-5.20281
-0.002871
-0.00234433
-0.00426315
-0.00310691
-0.00188598
-0.004483
-0.00240377