/*--------------------------------*- C++ -*----------------------------------*\
| =========                 |                                                 |
| \\      /  F ield         | OpenFOAM: The Open Source CFD Toolbox           |
|  \\    /   O peration     | Version:  4.0                                   |
|   \\  /    A nd           | Web:      www.OpenFOAM.org                      |
|    \\/     M anipulation  |                                                 |
\*---------------------------------------------------------------------------*/
FoamFile
{
    version     2.0;
    format      ascii;
    class       surfaceScalarField;
    location    "0";
    object      phi;
}
// * * * * * * * * * * * * * * * * * * * * * * * * * * * * * * * * * * * * * //

dimensions      [1 0 -1 0 0 0 0];

internalField   nonuniform List<scalar> 
64580
(
-1.52412e-07
-6.37549e-08
1.06325e-06
-7.02182e-08
-2.9962e-08
7.94962e-07
-5.86377e-08
-6.16577e-08
8.97314e-07
-3.98992e-08
-9.32053e-08
9.21671e-07
1.94593e-08
-8.23958e-08
8.70223e-07
2.34179e-08
-9.76064e-08
9.4083e-07
-1.08888e-08
-9.1362e-08
9.72893e-07
6.71675e-08
-4.50347e-08
8.1427e-07
9.18672e-08
-5.65028e-08
8.79019e-07
1.39959e-07
-6.26277e-08
8.61865e-07
1.94554e-07
-6.60763e-08
8.58728e-07
1.8399e-07
-1.0092e-07
9.58696e-07
2.09286e-07
-4.73885e-09
8.26721e-07
2.63845e-07
-6.0371e-09
7.98789e-07
3.18853e-07
3.06441e-08
7.6163e-07
1.7481e-07
2.8791e-07
7.03379e-07
7.22511e-08
2.96469e-07
6.5341e-07
3.504e-08
3.57713e-07
5.26847e-07
-1.28357e-07
2.27006e-07
7.83696e-07
-2.34812e-07
2.49988e-07
7.03975e-07
-1.72752e-07
1.02476e-07
6.82953e-07
-2.05954e-07
-1.08433e-08
8.91318e-07
-1.78898e-07
1.17776e-08
8.08473e-07
-2.95299e-07
-1.10541e-07
1.07416e-06
-1.16405e-07
3.50092e-08
6.33523e-07
-2.07818e-08
3.79376e-08
7.13926e-07
-3.40891e-08
3.35051e-09
8.5752e-07
-7.7264e-08
-2.84625e-08
9.1884e-07
3.56383e-09
-1.51106e-08
7.81654e-07
-6.32772e-08
-3.69501e-08
9.51164e-07
-5.78534e-09
-1.35291e-09
7.9128e-07
1.00901e-07
5.10373e-08
6.89659e-07
1.55044e-07
-1.23825e-08
8.05577e-07
1.23344e-07
-4.14158e-08
9.20403e-07
-7.0436e-08
1.04096e-06
-9.95622e-08
-3.60462e-08
9.19031e-07
-9.65624e-08
-3.00401e-08
8.44405e-07
-9.5118e-08
-2.46935e-08
8.08912e-07
-2.66021e-08
-1.43996e-08
7.00065e-07
1.92995e-08
-1.96516e-08
7.38866e-07
3.32749e-08
-5.34454e-08
7.89185e-07
4.80443e-08
-2.02265e-08
7.61388e-07
4.35745e-08
-3.63017e-08
8.43002e-07
5.80861e-08
-1.81579e-08
7.94544e-07
1.33555e-07
-1.74259e-08
7.26667e-07
1.54963e-07
-3.35544e-08
7.93357e-07
2.61951e-07
-2.27274e-08
6.62151e-07
2.50638e-07
-2.05074e-08
8.74375e-07
3.83147e-07
-4.7867e-10
7.09246e-07
5.4854e-07
3.19548e-08
6.80622e-07
2.66521e-07
9.44878e-08
4.74313e-07
1.03292e-07
9.55785e-08
3.62953e-07
-1.43249e-07
1.14713e-07
4.88388e-07
-4.40267e-07
1.01043e-07
4.21777e-07
-7.61498e-07
1.30381e-07
4.39501e-07
-4.56407e-07
4.00064e-09
6.40671e-07
-2.87796e-07
-5.10541e-08
7.18907e-07
-1.83816e-07
-2.0973e-08
7.76091e-07
-1.85998e-07
-6.6591e-08
8.05616e-07
-1.85754e-07
-5.4155e-08
9.36016e-07
-1.29481e-07
-7.93688e-08
9.08325e-07
-1.13399e-07
-4.46768e-08
8.79195e-07
-7.21341e-08
2.91027e-11
7.77548e-07
1.65624e-09
-1.70165e-08
7.75355e-07
-6.4613e-09
-3.23657e-08
8.50726e-07
6.08225e-08
-3.18179e-08
8.10501e-07
3.76942e-08
-3.97269e-08
9.61077e-07
7.30029e-08
-4.08285e-08
8.40405e-07
7.89058e-08
-6.22626e-08
8.6226e-07
-4.5836e-08
9.01521e-07
-1.38095e-07
-2.91314e-08
9.78347e-07
-8.15841e-08
-1.16071e-09
7.61887e-07
-7.33026e-08
-9.54917e-09
8.2397e-07
-6.89179e-08
1.26378e-09
8.27288e-07
1.15225e-08
2.53224e-08
7.21831e-07
6.34348e-08
1.1634e-08
7.30339e-07
1.9529e-08
-3.91101e-10
8.71337e-07
5.58011e-08
2.29715e-08
7.51702e-07
7.5223e-08
2.09563e-09
8.07688e-07
9.90779e-08
-2.224e-09
8.08218e-07
1.41128e-07
6.97472e-08
7.02028e-07
2.16469e-07
3.30837e-09
7.4602e-07
2.82837e-07
4.92616e-08
7.11136e-07
4.4349e-07
-2.9972e-09
6.8922e-07
7.22573e-07
-6.55641e-09
6.06716e-07
3.86173e-07
2.83846e-08
4.01191e-07
1.00914e-07
2.7495e-08
3.52167e-07
-7.62201e-08
3.12703e-08
2.59421e-07
-3.71752e-07
-2.44586e-08
4.19838e-07
-6.67846e-07
1.09484e-08
4.14297e-07
-4.41876e-07
-2.66277e-08
6.51969e-07
-3.24247e-07
2.90303e-08
6.49606e-07
-3.38342e-07
-3.81157e-08
8.78365e-07
-1.70308e-07
1.78787e-08
5.94837e-07
-1.09116e-07
2.73876e-08
7.04701e-07
-7.95466e-08
-5.79499e-08
7.96187e-07
-3.3735e-08
4.90448e-09
7.51985e-07
-8.75395e-08
6.5091e-09
8.94613e-07
-1.62107e-08
7.15927e-08
6.87486e-07
-6.15244e-08
2.80868e-08
8.32111e-07
2.57115e-08
6.53989e-08
6.62978e-07
7.38138e-08
4.01229e-08
7.19323e-07
1.30962e-07
2.99325e-08
7.19392e-07
1.15768e-07
-2.2978e-08
8.23142e-07
3.90174e-08
8.78111e-07
-9.74867e-08
6.57863e-08
8.49765e-07
-8.5603e-08
6.60967e-08
7.6805e-07
-7.89036e-08
1.99889e-08
8.1102e-07
-3.72859e-08
5.28997e-08
7.54132e-07
-1.3563e-08
3.57783e-08
8.13082e-07
6.51538e-08
1.30047e-07
6.50143e-07
5.54586e-08
3.55979e-08
8.20924e-07
5.21631e-08
8.72009e-08
7.86447e-07
6.69955e-08
2.35481e-08
8.10922e-07
1.73273e-07
3.43639e-08
7.04587e-07
1.5993e-07
5.23523e-08
8.77889e-07
2.7664e-07
4.86475e-08
6.85323e-07
2.71815e-07
-1.77768e-09
9.0311e-07
3.56389e-07
4.93354e-10
7.59227e-07
6.02509e-07
4.90856e-09
5.89804e-07
3.53862e-07
-1.21455e-07
3.97273e-07
1.19993e-07
-8.07024e-08
3.40825e-07
-1.49052e-07
-1.3116e-07
4.30176e-07
-3.21728e-07
-1.10527e-07
2.5767e-07
-6.01055e-07
-1.12005e-07
4.01028e-07
-3.60435e-07
-4.17047e-08
6.2187e-07
-2.75129e-07
3.1305e-08
7.59709e-07
-1.6359e-07
1.18555e-08
6.85854e-07
-2.36736e-07
3.94124e-09
9.34422e-07
-1.97111e-07
4.618e-08
7.88782e-07
-2.63542e-08
5.34163e-08
5.65391e-07
5.12992e-09
4.36302e-08
7.77103e-07
-1.31765e-08
6.04481e-08
8.117e-07
-3.53249e-08
3.5862e-08
9.05203e-07
-1.29482e-08
3.93655e-08
8.13576e-07
2.71877e-08
5.20619e-08
8.20466e-07
-2.09156e-09
2.037e-08
8.96515e-07
2.86553e-08
3.4759e-08
8.11868e-07
1.22945e-07
4.82429e-08
6.81853e-07
1.02035e-07
9.072e-07
-1.14748e-07
8.40525e-08
9.43654e-07
-1.27524e-07
9.66644e-08
8.29536e-07
-6.51909e-08
1.02678e-07
7.02208e-07
-1.93442e-08
8.33117e-08
7.71025e-07
4.01109e-08
5.94081e-08
7.64366e-07
3.95965e-08
1.69335e-07
8.08471e-07
3.88448e-08
2.70676e-08
8.56625e-07
-8.83001e-10
9.22043e-08
8.8201e-07
7.38658e-08
5.57208e-08
7.4039e-07
1.60904e-07
5.33693e-08
7.413e-07
1.68583e-07
3.16529e-08
8.60295e-07
2.42113e-07
2.84777e-08
7.93937e-07
2.39738e-07
-3.11622e-08
8.78952e-07
4.03128e-07
4.51845e-08
6.39263e-07
5.93298e-07
3.60002e-08
6.26036e-07
3.03811e-07
-2.52292e-07
4.19142e-07
6.1152e-08
-2.90386e-07
4.5119e-07
-1.21761e-07
-3.03047e-07
3.53729e-07
-2.67255e-07
-2.56745e-07
2.90475e-07
-5.19562e-07
-2.80742e-07
4.19942e-07
-3.78936e-07
-8.96667e-08
7.54628e-07
-3.09519e-07
-2.79599e-08
8.37156e-07
-2.3131e-07
1.26046e-09
7.79679e-07
-1.32757e-07
7.44381e-08
6.7841e-07
-1.25185e-07
8.00018e-08
8.05913e-07
-5.41928e-08
1.1942e-07
7.10324e-07
-3.00242e-08
3.11397e-08
8.35587e-07
-3.38689e-08
1.44174e-07
7.67304e-07
-4.29815e-08
3.65758e-09
8.88507e-07
-5.37144e-08
3.43113e-08
8.63038e-07
1.78711e-08
7.86935e-08
7.49018e-07
4.24759e-08
6.14796e-08
7.81609e-07
8.85408e-08
6.4401e-08
7.71471e-07
1.59251e-07
7.47352e-08
7.50138e-07
1.38571e-07
9.69794e-07
-9.41069e-08
1.0253e-06
-1.24556e-07
9.7428e-07
-8.51601e-08
9.10504e-07
-1.37592e-08
8.59214e-07
6.56115e-08
8.27226e-07
-2.83387e-08
1.11042e-06
6.3232e-08
7.82798e-07
9.04056e-09
9.93625e-07
7.00826e-08
8.41993e-07
1.36387e-07
8.34297e-07
9.97746e-08
9.15621e-07
1.91855e-07
7.83762e-07
2.54384e-07
7.53579e-07
3.00517e-07
8.46459e-07
3.498e-07
8.33946e-07
1.43347e-07
8.01342e-07
3.39298e-08
6.66337e-07
-6.06452e-08
6.38805e-07
-2.61498e-07
7.9147e-07
-3.4718e-07
6.52234e-07
-2.39734e-07
6.50166e-07
-2.418e-07
8.21338e-07
-1.40206e-07
7.46898e-07
-1.7974e-07
9.61297e-07
-2.1023e-07
9.57682e-07
-1.30133e-07
8.86468e-07
-5.5987e-09
7.53987e-07
-1.02564e-07
1.08829e-06
-1.34053e-08
7.61875e-07
2.26606e-08
8.45477e-07
1.86584e-08
9.30019e-07
2.58458e-08
9.01488e-07
1.1627e-07
8.21228e-07
1.8082e-07
8.57446e-07
1.16664e-06
-2.50835e-08
8.79507e-09
1.07821e-06
-3.93003e-08
-1.99591e-08
8.27995e-07
-7.04988e-08
-5.10106e-09
9.32339e-07
-5.31631e-08
2.81002e-09
9.00247e-07
-8.30851e-09
4.0406e-09
8.20088e-07
7.56076e-08
7.6296e-09
8.47971e-07
4.31876e-08
-1.03622e-08
1.01437e-06
4.50685e-08
-1.59477e-08
8.27132e-07
8.4947e-08
7.63014e-09
8.30303e-07
1.20462e-07
4.36868e-09
8.20726e-07
1.73887e-07
4.41928e-09
7.997e-07
1.41975e-07
-2.2098e-08
1.01151e-06
1.55018e-07
-4.48596e-08
8.57385e-07
1.7127e-07
-2.06732e-08
8.02066e-07
1.28806e-07
-3.21255e-08
8.35122e-07
9.9182e-08
7.38113e-08
6.58138e-07
5.26645e-08
4.8447e-08
6.50435e-07
-4.45284e-08
5.63334e-08
5.66782e-07
-1.12967e-07
5.97121e-08
7.91207e-07
-2.20661e-07
1.38853e-08
7.96592e-07
-2.72592e-07
-3.80219e-08
7.71839e-07
-2.01885e-07
-5.40845e-09
8.24804e-07
-1.31737e-07
-2.31288e-08
7.60301e-07
-1.17386e-07
-3.0059e-08
1.08852e-06
-5.50518e-08
-3.95799e-08
6.09733e-07
-9.1839e-08
-7.71306e-08
8.26703e-07
-1.33589e-07
-8.27606e-08
9.80754e-07
-2.67002e-08
-3.33888e-09
8.14075e-07
1.69429e-08
-2.71298e-08
7.63967e-07
-6.86135e-08
-1.07951e-07
1.14336e-06
-5.19604e-09
1.03502e-09
7.2561e-07
4.17422e-08
-3.3491e-08
6.75122e-07
5.82258e-08
-4.65453e-08
8.3446e-07
1.87593e-08
-9.26994e-08
1.05129e-06
-4.37883e-08
1.10214e-06
-5.8205e-08
-3.72599e-08
1.02206e-06
-3.078e-08
-2.96408e-08
8.25432e-07
-2.25953e-08
-2.44025e-08
8.18831e-07
-2.58837e-08
-3.17289e-08
7.3677e-07
-4.35251e-08
-5.96654e-08
8.1899e-07
3.10136e-08
5.98588e-09
7.15099e-07
2.31638e-08
-3.60142e-08
7.93758e-07
7.09221e-08
-1.23954e-08
7.90525e-07
6.9757e-08
-2.29119e-08
8.25047e-07
7.10365e-08
-4.78723e-09
7.3346e-07
8.31182e-08
-1.6718e-08
8.01282e-07
1.00871e-07
-5.31225e-09
6.26607e-07
1.52957e-07
-2.83297e-08
8.04546e-07
1.97816e-07
1.56323e-08
6.26971e-07
2.84507e-07
-3.85278e-09
5.64565e-07
1.52206e-07
2.05492e-08
6.5874e-07
3.98863e-08
9.85103e-09
5.12841e-07
-6.36129e-08
2.73259e-08
6.19719e-07
-9.4281e-08
2.8652e-08
4.82427e-07
-1.96625e-07
-1.52187e-08
5.69972e-07
-2.03341e-07
-1.97821e-08
6.28096e-07
-1.46596e-07
5.91221e-09
6.49712e-07
-1.39667e-07
-4.7451e-08
7.92338e-07
-1.68212e-07
-3.15664e-08
8.34474e-07
-9.59115e-08
3.35946e-09
8.19632e-07
-7.18858e-08
-4.16762e-08
8.47582e-07
-4.10235e-08
-1.92878e-08
7.83639e-07
-5.28126e-08
-2.31829e-08
8.08033e-07
-2.18771e-08
1.29372e-08
7.03243e-07
1.3894e-08
-1.37486e-08
7.19568e-07
6.39063e-09
1.49929e-08
8.02847e-07
2.35621e-08
-1.06714e-08
9.19786e-07
5.70721e-08
-1.94383e-08
7.78562e-07
6.59817e-08
-5.59748e-08
8.1533e-07
-2.3169e-08
9.4562e-07
-4.80734e-08
-4.73367e-08
1.0352e-06
-3.03466e-08
-2.19451e-08
7.35295e-07
-9.7579e-08
-5.86018e-08
9.24138e-07
-6.26243e-08
-8.76567e-10
7.60257e-07
3.21898e-08
2.17781e-08
5.44473e-07
1.73751e-08
-3.80946e-09
7.53815e-07
2.58966e-08
3.39635e-09
8.22146e-07
5.96821e-08
3.45388e-08
6.69891e-07
6.7053e-08
-1.52873e-08
7.91497e-07
8.94068e-08
4.45682e-08
7.35367e-07
1.10771e-07
-6.50862e-09
6.69357e-07
8.69911e-08
-1.45333e-08
7.77893e-07
1.5847e-07
1.90399e-08
5.91214e-07
1.39475e-07
-2.22793e-08
7.45055e-07
1.51573e-07
1.63011e-08
5.73441e-07
8.14871e-08
2.83205e-09
4.88058e-07
4.50336e-08
-2.19906e-09
3.99672e-07
-4.83986e-08
1.58977e-09
3.77719e-07
-1.41971e-07
-1.88941e-08
5.5988e-07
-2.17136e-07
-2.14369e-08
4.94665e-07
-1.6621e-07
1.50823e-09
5.78699e-07
-1.77565e-07
9.39694e-09
6.5646e-07
-7.3305e-08
4.39573e-08
6.81544e-07
-6.61364e-08
9.45482e-09
5.45676e-07
-9.39304e-08
-9.89306e-09
7.44639e-07
-2.91326e-08
2.75176e-08
6.61159e-07
-4.87848e-08
-1.34077e-08
7.64614e-07
-3.09422e-08
-1.9182e-08
8.71521e-07
-1.11422e-08
3.82764e-09
6.75678e-07
1.49627e-08
-7.33864e-10
7.91829e-07
-2.45398e-08
-3.52196e-08
7.51617e-07
-3.20362e-09
3.64578e-08
6.49799e-07
7.6536e-09
-1.5738e-10
6.88152e-07
4.11237e-08
3.17233e-08
7.00786e-07
4.84551e-08
8.46371e-07
-3.45483e-08
3.15426e-08
8.04194e-07
-1.51191e-08
4.55059e-08
6.80057e-07
-9.69127e-09
-4.75749e-09
7.50542e-07
-2.43229e-08
3.75447e-08
7.29123e-07
-7.9015e-09
5.42491e-08
7.63035e-07
3.21048e-08
4.67901e-08
5.58527e-07
4.36994e-08
4.81634e-08
7.63424e-07
4.56245e-08
7.44636e-08
7.43397e-07
9.0876e-08
1.81265e-08
7.3115e-07
3.42044e-08
1.69257e-08
7.87786e-07
1.07865e-07
5.66715e-08
7.39892e-07
1.28497e-07
-1.2586e-08
6.61682e-07
1.55521e-07
2.28341e-09
8.91643e-07
2.02093e-07
1.89606e-08
6.70263e-07
2.08078e-07
2.9883e-09
5.96084e-07
1.08186e-07
-7.44702e-09
5.06364e-07
3.65287e-08
-2.21271e-08
4.31446e-07
-4.20551e-08
-1.24592e-08
5.2168e-07
-1.36448e-07
-2.45741e-08
3.56825e-07
-2.20086e-07
-1.28227e-08
4.7495e-07
-1.9873e-07
-3.89281e-08
6.39866e-07
-1.43734e-07
1.53514e-08
6.97617e-07
-1.78573e-07
6.46103e-09
7.57107e-07
-1.56298e-07
2.50668e-08
8.95271e-07
-3.4998e-08
2.98486e-08
6.26661e-07
-8.07211e-08
-4.30244e-09
6.41896e-07
-5.30757e-08
1.09185e-08
7.23989e-07
-5.90035e-09
1.45944e-08
7.29504e-07
-4.85945e-08
-1.4699e-08
9.65154e-07
-9.43901e-09
1.69218e-08
7.55587e-07
5.90416e-08
6.88861e-09
7.08664e-07
1.02822e-08
3.65454e-09
9.76726e-07
4.26945e-08
8.00226e-09
7.70006e-07
9.34387e-08
3.85703e-08
6.23137e-07
-3.91985e-09
1.05175e-06
-5.14384e-08
1.87415e-08
1.00662e-06
-6.58845e-08
3.02617e-08
8.57989e-07
3.08493e-09
4.917e-08
5.78242e-07
2.12885e-08
7.63785e-08
7.12848e-07
1.47886e-08
1.28219e-08
8.11073e-07
2.52412e-08
4.35002e-08
8.00163e-07
4.67327e-08
4.23756e-08
8.39678e-07
1.36456e-08
6.70978e-08
9.21247e-07
8.05264e-08
3.45952e-08
6.55924e-07
6.17997e-08
1.43154e-08
7.61542e-07
4.29403e-08
2.79269e-08
9.0673e-07
1.40882e-07
6.09655e-08
6.2125e-07
1.8138e-07
5.38537e-08
7.8572e-07
1.47366e-07
4.74169e-08
6.43787e-07
1.80364e-07
3.93213e-09
5.91085e-07
1.27692e-07
-6.22764e-08
5.25616e-07
5.68525e-08
-6.46246e-08
5.63381e-07
-7.16635e-08
-7.65289e-08
5.45269e-07
-9.41068e-08
5.80066e-09
2.81625e-07
-2.40491e-07
-8.92424e-08
6.41671e-07
-1.82814e-07
-5.73811e-08
7.14281e-07
-1.82585e-07
-6.79499e-08
9.19043e-07
-1.17212e-07
-3.64996e-08
7.56155e-07
-1.02031e-07
-5.66207e-09
6.92839e-07
-1.00215e-07
6.95209e-10
8.32126e-07
-6.99512e-08
1.1434e-08
6.63249e-07
-4.65426e-08
3.16448e-08
7.90276e-07
-3.13583e-08
4.54946e-08
7.20138e-07
-1.14009e-08
4.10447e-08
8.11608e-07
1.52616e-09
3.26685e-08
8.33129e-07
1.28178e-08
5.125e-08
6.92285e-07
4.23355e-10
-2.67655e-08
8.23237e-07
5.05982e-08
5.88273e-08
6.69387e-07
-7.55796e-10
2.3638e-08
8.15251e-07
1.33526e-07
8.30336e-07
-2.56604e-08
1.06835e-06
-5.98777e-09
9.83565e-07
1.46233e-08
9.37793e-07
-5.12528e-08
1.00025e-06
3.11919e-08
7.56447e-07
5.03796e-08
1.1334e-06
5.65432e-08
8.17851e-07
1.14419e-08
1.10455e-06
6.7549e-08
8.1928e-07
8.30495e-08
8.32027e-07
1.30308e-07
8.95023e-07
1.24464e-07
8.49425e-07
1.63192e-07
7.6764e-07
1.76994e-07
8.7885e-07
1.70612e-07
8.43094e-07
1.07089e-07
8.01451e-07
4.21124e-08
6.65603e-07
-6.6756e-08
6.7011e-07
-2.09455e-07
9.38788e-07
-1.80779e-07
5.33262e-07
-1.35449e-07
5.46416e-07
-1.29485e-07
7.46246e-07
-1.00169e-07
6.7999e-07
-1.34067e-07
9.88202e-07
-8.71689e-08
9.10247e-07
-5.6604e-08
8.66212e-07
-4.66916e-08
7.74533e-07
-3.75376e-08
1.12329e-06
-2.68821e-08
7.91078e-07
-1.25081e-08
8.6257e-07
-2.44193e-08
9.91888e-07
7.2522e-08
7.76495e-07
5.70125e-08
8.94398e-07
1.21145e-07
8.15713e-07
1.41984e-06
-3.91165e-08
-1.15222e-08
1.12762e-06
-5.90397e-08
6.8642e-09
8.39846e-07
-4.13349e-08
-6.00603e-09
9.19461e-07
-5.20765e-08
1.94269e-08
8.90427e-07
4.92465e-09
2.06429e-08
7.41306e-07
6.53365e-08
5.27029e-08
7.33801e-07
8.84968e-08
1.18282e-09
9.8886e-07
3.51945e-08
1.40127e-08
8.65335e-07
1.90306e-08
-1.79735e-08
8.63359e-07
1.27883e-07
5.86849e-08
6.5214e-07
8.30707e-08
-4.69315e-08
8.90427e-07
1.19937e-07
1.69356e-08
9.56505e-07
1.61378e-07
-1.37236e-08
8.28527e-07
1.22531e-07
-4.12801e-08
8.81144e-07
1.80907e-07
1.57409e-08
7.59847e-07
1.14192e-07
3.50042e-08
6.88806e-07
3.07198e-08
8.1023e-09
7.24785e-07
-1.06882e-07
3.65557e-08
6.66771e-07
-9.40392e-08
1.21238e-08
7.65214e-07
-6.81362e-08
6.99391e-08
6.99682e-07
-1.80814e-07
-2.61914e-08
9.09635e-07
-1.16354e-07
3.19154e-08
7.27417e-07
-1.24122e-07
-4.40478e-09
7.7146e-07
-3.56107e-08
1.26286e-08
9.86225e-07
-1.15772e-07
-3.03836e-08
7.19258e-07
-1.3149e-07
-4.51499e-08
8.86436e-07
-3.37449e-08
2.83857e-08
8.53485e-07
-4.50537e-08
5.15133e-09
8.19161e-07
-8.79453e-08
1.7124e-08
7.88653e-07
-1.72688e-08
7.5144e-08
9.96227e-07
6.57886e-08
2.66793e-08
6.14841e-07
2.29066e-08
-2.53829e-08
7.42284e-07
-8.78465e-08
-4.79843e-08
9.92063e-07
-4.2567e-08
-8.72104e-09
1.01343e-06
3.57494e-08
1.02256e-06
-3.84584e-08
-7.55318e-08
1.12327e-06
-4.94465e-08
-1.32113e-08
8.55431e-07
-2.58813e-08
-3.17624e-08
8.19879e-07
-3.82222e-08
-1.87575e-08
7.86176e-07
5.42056e-08
4.36275e-08
7.02479e-07
6.83703e-09
3.40105e-09
8.10787e-07
4.35117e-08
-1.15339e-08
7.68635e-07
1.82663e-08
-1.10744e-08
8.39799e-07
8.55777e-08
2.30677e-08
7.15616e-07
8.15029e-08
-4.6978e-10
7.95603e-07
1.03637e-07
-2.71638e-08
7.58262e-07
3.84299e-08
-2.13878e-08
7.29084e-07
9.22063e-08
3.9961e-08
6.96062e-07
1.06285e-07
-1.42729e-08
5.8491e-07
1.51101e-07
2.08289e-08
5.13741e-07
1.28562e-07
3.923e-08
6.75995e-07
5.30734e-08
3.96652e-09
5.91452e-07
-9.92231e-08
1.31602e-08
7.94458e-07
-8.7428e-08
4.10112e-08
4.40763e-07
-1.06291e-07
5.16554e-08
6.06004e-07
-1.15701e-07
-1.3007e-08
6.23315e-07
-1.37145e-07
1.58308e-09
7.00552e-07
-1.57253e-07
-5.81551e-09
8.12792e-07
-8.1753e-08
2.97081e-08
7.40799e-07
-1.25674e-07
-2.16838e-08
8.53757e-07
-2.16351e-08
5.09015e-08
6.46431e-07
3.6047e-09
3.47495e-08
7.50993e-07
-3.45849e-08
-5.09948e-08
9.01246e-07
-3.08718e-08
-1.5385e-08
7.30958e-07
-4.43902e-08
-3.92383e-09
8.11115e-07
-3.00168e-08
1.11996e-08
8.02845e-07
2.63332e-09
1.83507e-08
8.42273e-07
-4.73884e-09
-1.28508e-08
7.49716e-07
3.94854e-08
3.62503e-08
7.25071e-07
3.85545e-08
9.81079e-07
6.97682e-09
3.05283e-08
9.20913e-07
-2.48755e-08
4.70988e-08
7.05737e-07
1.79096e-08
2.40223e-08
8.24395e-07
1.32767e-08
-1.26634e-08
7.57777e-07
-1.27237e-08
2.27656e-08
5.9038e-07
-1.17307e-08
4.17834e-08
7.13333e-07
8.25734e-08
5.23415e-08
6.62903e-07
4.90111e-08
-2.62555e-08
7.17589e-07
2.8312e-08
1.42603e-08
8.19971e-07
6.07469e-08
2.04064e-08
6.80994e-07
1.04394e-07
-1.29055e-08
6.1043e-07
1.10831e-07
-2.05574e-08
7.69554e-07
9.73936e-08
-3.79001e-09
6.47461e-07
1.6103e-07
-2.93249e-08
6.95367e-07
1.56333e-07
-2.32533e-09
6.00311e-07
5.67879e-08
-2.93375e-08
6.55147e-07
4.2471e-08
7.14868e-09
4.09903e-07
-8.06825e-08
-1.54837e-08
5.28557e-07
-8.4724e-08
3.61677e-08
5.67738e-07
-9.89047e-08
-9.58941e-09
5.69103e-07
-1.27248e-07
-1.92686e-08
6.12373e-07
-1.36587e-07
-5.43907e-08
7.20733e-07
-8.01513e-08
7.27025e-09
6.11081e-07
-8.12014e-08
-3.21791e-08
6.07594e-07
-6.14002e-08
-7.63162e-09
7.09715e-07
-6.81556e-08
2.89106e-08
6.88836e-07
-9.90641e-08
-4.73323e-09
8.33938e-07
-2.25838e-08
-1.13376e-08
7.54285e-07
-1.64083e-08
-2.1492e-08
6.74541e-07
1.49254e-08
-7.01242e-09
7.62454e-07
4.09619e-08
-1.33161e-08
7.48912e-07
-1.72687e-08
-7.31516e-08
7.98447e-07
-8.00591e-09
-3.87977e-08
7.03736e-07
9.74492e-09
1.24038e-08
7.05857e-07
1.68043e-08
8.76734e-07
1.24255e-08
3.32622e-08
7.87965e-07
-8.91794e-08
-3.08651e-08
8.58589e-07
-3.49393e-08
4.44228e-08
6.7484e-07
7.37584e-08
5.27665e-08
5.53959e-07
5.32813e-08
-1.01273e-08
8.15351e-07
-1.57807e-08
-9.39173e-09
6.77771e-07
-2.57015e-08
-1.68928e-08
8.41503e-07
5.66548e-08
4.30637e-09
6.29453e-07
4.81074e-08
1.08159e-09
7.51809e-07
3.45495e-08
4.65342e-08
7.74087e-07
1.15847e-07
3.22252e-08
6.12402e-07
9.88399e-08
-3.58395e-08
6.9293e-07
5.47081e-08
-1.46282e-08
9.45534e-07
1.43628e-07
2.93183e-08
5.21714e-07
1.59952e-07
1.02345e-08
5.6621e-07
1.07157e-07
-2.964e-08
5.58481e-07
3.9966e-08
-4.30825e-08
5.4791e-07
-5.56878e-08
-4.48647e-08
6.45788e-07
-8.64187e-08
2.07018e-08
4.02101e-07
-1.22142e-07
6.17989e-09
4.93989e-07
-1.41293e-07
2.08965e-09
6.36673e-07
-1.25016e-07
-1.72604e-08
6.4319e-07
-1.54537e-07
1.40111e-08
7.7879e-07
-3.91196e-08
8.11356e-09
7.38516e-07
-3.47272e-08
-3.98059e-10
6.14015e-07
-6.83051e-08
2.97109e-08
6.73612e-07
-8.32967e-08
-1.93053e-08
7.52515e-07
-2.73335e-08
3.6159e-08
6.25051e-07
7.96182e-09
4.60228e-08
8.61169e-07
-3.49071e-08
4.50478e-09
7.8585e-07
-5.95489e-08
2.97291e-08
6.89224e-07
1.15731e-08
2.92107e-08
8.02106e-07
8.25298e-08
7.34627e-08
5.85782e-07
3.42104e-08
-7.31223e-09
6.90132e-07
-1.69901e-10
1.10166e-06
-3.17998e-08
1.47245e-08
1.05577e-06
5.02899e-09
-2.61241e-08
8.15319e-07
-2.09214e-08
-1.89683e-08
6.6658e-07
-2.11435e-08
3.52626e-08
7.29502e-07
1.98396e-08
2.38116e-08
7.35078e-07
-3.41893e-08
-1.16928e-08
8.55361e-07
4.95021e-08
3.82201e-08
6.99792e-07
9.39996e-08
3.76917e-08
8.42179e-07
6.15811e-08
-3.09348e-09
6.9152e-07
2.38101e-08
7.22328e-08
7.72497e-07
1.41102e-08
3.00481e-08
9.17441e-07
1.12602e-07
5.19535e-08
4.3408e-07
1.39002e-07
-8.33474e-09
7.52012e-07
1.54587e-07
6.51647e-09
6.49951e-07
1.06603e-07
-3.7325e-08
6.85619e-07
6.48279e-08
-2.41239e-08
5.60847e-07
8.35664e-08
-3.45897e-08
5.35164e-07
3.38813e-08
-3.79997e-08
5.87037e-07
-1.244e-07
-4.40141e-08
5.03839e-07
-1.79033e-07
7.05814e-10
7.00702e-07
-1.9072e-07
-8.58977e-09
7.3567e-07
-1.34177e-07
-9.62897e-09
8.53712e-07
-1.12617e-07
-2.00272e-09
7.49551e-07
-6.00437e-08
-3.5649e-08
6.83002e-07
-4.27636e-08
-2.87057e-08
8.42026e-07
-9.03419e-08
1.62575e-08
7.2325e-07
-4.13766e-08
-1.23892e-08
7.33313e-07
-4.64088e-08
-3.21921e-08
7.9241e-07
-4.51538e-08
3.19911e-08
8.23292e-07
4.4299e-10
3.34846e-08
7.57467e-07
-7.17252e-09
1.04497e-08
7.18066e-07
3.02763e-08
1.21759e-08
8.01678e-07
-1.20096e-08
5.80343e-08
7.26015e-07
2.35591e-08
2.40791e-08
7.47124e-07
-3.19579e-08
8.84582e-07
-6.43292e-08
1.14625e-06
-1.41534e-08
9.06092e-07
4.11976e-08
8.62311e-07
1.1681e-08
1.06379e-06
9.84393e-09
7.80998e-07
1.23536e-08
1.118e-06
1.77983e-08
8.49494e-07
7.0604e-08
1.08818e-06
1.20377e-07
7.65355e-07
2.69344e-08
9.96549e-07
6.90759e-08
8.81895e-07
1.10365e-07
8.58966e-07
1.19782e-07
7.48736e-07
1.52584e-07
8.51499e-07
1.68902e-07
7.8833e-07
9.51136e-08
8.50006e-07
7.62828e-08
6.48787e-07
-2.17646e-08
7.29087e-07
-7.35504e-08
9.45448e-07
-9.549e-08
5.55029e-07
-1.17173e-07
5.5861e-07
-9.16271e-08
7.10067e-07
-1.51362e-07
7.36714e-07
-4.13774e-08
8.4148e-07
-5.80857e-09
8.44848e-07
-1.22812e-07
9.98328e-07
-6.27839e-08
7.01041e-07
1.91151e-08
1.00797e-06
-2.15965e-08
8.62697e-07
-4.96478e-08
9.22958e-07
-2.8573e-08
9.80103e-07
7.90319e-08
6.80031e-07
9.11491e-10
1.02933e-06
-4.97986e-08
8.89387e-07
1.33672e-06
-1.02013e-09
-2.29025e-09
1.12974e-06
1.28668e-08
4.30956e-08
7.81867e-07
1.05179e-08
-5.9373e-09
9.26694e-07
-1.39882e-09
-5.31339e-09
9.06614e-07
2.29937e-08
2.84159e-08
6.87573e-07
4.01819e-08
7.86358e-09
7.07759e-07
6.03307e-08
-1.80291e-08
9.85681e-07
3.14577e-08
-8.75432e-09
9.01931e-07
3.96819e-08
4.47639e-09
8.49616e-07
6.96777e-08
4.4415e-09
6.16803e-07
1.3587e-08
-5.32471e-08
9.98666e-07
7.26746e-08
5.74521e-08
8.38957e-07
1.51987e-07
4.22578e-08
7.0598e-07
8.78725e-08
-1.93278e-08
9.63528e-07
8.68846e-08
3.80928e-08
7.21873e-07
9.68213e-08
3.54411e-09
6.74376e-07
1.69131e-08
-5.66515e-09
8.09374e-07
-4.34657e-08
1.99094e-08
7.06335e-07
-5.24468e-08
1.45422e-08
7.58629e-07
-1.35028e-07
-6.67912e-09
7.88034e-07
-8.29306e-08
3.62715e-08
8.20176e-07
-8.08955e-08
9.80385e-09
7.14622e-07
-1.44417e-07
-4.74389e-08
8.81432e-07
-6.94721e-08
1.37625e-08
8.96484e-07
-8.20288e-08
-2.53603e-08
7.56172e-07
-2.08134e-08
4.73818e-10
8.23731e-07
1.15461e-08
-3.08746e-08
8.51016e-07
-9.3376e-08
-8.27177e-08
1.00581e-06
-1.19089e-07
-3.20603e-08
8.4544e-07
3.74529e-08
6.43506e-08
7.74338e-07
-1.04462e-08
-3.44875e-08
6.96318e-07
-3.52243e-08
-9.02493e-09
7.75081e-07
-8.22242e-08
-1.15275e-08
1.04946e-06
2.92797e-08
6.83243e-08
8.32552e-07
-8.61214e-09
1.0594e-06
3.83715e-08
1.57866e-08
1.06567e-06
-2.06664e-08
3.40905e-08
9.22354e-07
1.28668e-08
1.17501e-08
7.67633e-07
4.82346e-08
2.63338e-08
7.18136e-07
-2.08363e-08
-6.68919e-10
7.99724e-07
-3.27176e-08
4.49708e-09
8.24934e-07
6.72711e-08
3.11755e-08
6.1851e-07
5.81157e-08
-3.71378e-09
8.42861e-07
3.8671e-08
1.42913e-08
7.24303e-07
2.70809e-08
-2.90124e-08
8.3967e-07
9.55316e-08
2.05839e-08
6.1503e-07
7.04487e-08
1.92248e-08
7.91437e-07
6.90543e-08
1.62161e-08
7.22554e-07
8.88062e-08
-3.37055e-09
5.48293e-07
4.06962e-08
1.87104e-08
5.80356e-07
5.52156e-08
2.1218e-08
6.42855e-07
4.7615e-08
3.67823e-08
5.55695e-07
-1.61315e-08
8.21306e-09
8.68814e-07
-3.40412e-08
9.44029e-09
4.62988e-07
-5.22352e-08
2.01017e-08
5.96635e-07
-7.88405e-08
3.76222e-08
6.47635e-07
-1.69589e-07
-2.50857e-08
8.25188e-07
-1.00096e-07
1.16312e-08
6.83219e-07
-5.43499e-08
2.29389e-08
6.84942e-07
-5.52577e-08
-5.84212e-09
8.34145e-07
-5.60875e-08
-2.8982e-09
6.4975e-07
-4.0772e-08
7.16658e-09
6.96622e-07
-2.4366e-08
-2.30535e-08
8.24118e-07
-3.32498e-08
-2.77522e-08
7.34569e-07
-2.40447e-08
2.14496e-08
8.43726e-07
-1.4926e-08
-3.10581e-08
7.89304e-07
1.77436e-08
-1.16528e-09
8.00719e-07
-2.53744e-09
-1.00604e-08
7.67536e-07
-3.21435e-08
1.78504e-08
8.04157e-07
-1.44956e-08
9.53755e-07
2.64374e-08
2.23263e-08
8.86962e-07
-2.07441e-08
-6.49774e-10
7.86721e-07
1.36769e-08
3.28893e-08
7.67863e-07
1.53151e-08
1.58908e-08
7.65545e-07
4.53042e-09
-7.95734e-10
6.00335e-07
3.21578e-08
2.67739e-08
6.62497e-07
2.71244e-08
-8.6943e-10
6.9909e-07
2.61687e-08
-3.45119e-08
7.48377e-07
1.85156e-08
8.77031e-09
8.32093e-07
7.45516e-08
-2.07421e-08
6.15754e-07
6.32027e-08
-2.15266e-08
6.63009e-07
5.4321e-08
3.08e-10
7.96408e-07
4.40186e-08
-1.89887e-08
6.91978e-07
1.01296e-07
2.39846e-08
6.09849e-07
9.55501e-08
9.10376e-09
6.14758e-07
8.72818e-08
6.29774e-09
6.77371e-07
-1.81918e-08
-3.35013e-08
5.84858e-07
-3.78598e-08
-3.57348e-08
5.91252e-07
-3.74921e-08
5.8832e-09
5.70064e-07
-7.67779e-08
7.33869e-09
6.20248e-07
-1.18657e-07
-8.08854e-09
6.99014e-07
-8.07728e-08
-2.5384e-08
6.82191e-07
-6.3778e-08
-1.73694e-08
6.22152e-07
-8.06367e-08
-8.30718e-09
6.54834e-07
-7.67863e-08
-2.30013e-10
6.9932e-07
-4.36124e-08
2.43904e-08
6.2744e-07
-3.98751e-08
1.80595e-08
8.18248e-07
-3.86483e-08
1.16475e-08
7.17411e-07
-3.64316e-08
-2.25627e-08
6.66169e-07
-2.49711e-08
3.03579e-08
7.41118e-07
1.38793e-08
1.82662e-08
6.59809e-07
1.35606e-08
4.33679e-09
7.92203e-07
6.64294e-09
1.85662e-08
6.81053e-07
-4.15771e-08
-4.20042e-09
7.75105e-07
2.42586e-08
7.95311e-07
1.30921e-08
3.95571e-08
7.56588e-07
1.14517e-10
-8.22542e-10
8.70592e-07
8.01247e-09
3.59571e-08
6.62926e-07
2.46977e-08
-2.08263e-08
5.73124e-07
4.05502e-08
-8.54447e-09
8.06203e-07
-2.96205e-08
-3.97703e-08
8.13488e-07
-1.25204e-08
-1.03336e-10
8.22599e-07
3.83488e-08
-2.23258e-08
5.6545e-07
3.36989e-09
2.40888e-08
7.70493e-07
5.34856e-08
2.30484e-08
6.79202e-07
7.18123e-08
-7.15803e-09
5.78853e-07
1.01194e-07
2.46608e-08
6.38257e-07
1.29059e-07
1.24584e-08
8.85145e-07
6.47092e-08
-1.37432e-08
6.2299e-07
2.99368e-08
-4.93063e-08
6.58547e-07
4.46128e-08
-5.62389e-09
5.54809e-07
1.11682e-08
-4.96893e-08
5.96616e-07
-3.94571e-09
-4.50244e-08
6.6916e-07
-2.35055e-08
5.99343e-09
4.20732e-07
-1.01955e-07
-3.04235e-08
6.09335e-07
-1.0908e-07
2.66427e-08
6.08134e-07
-1.03331e-07
-2.06772e-08
6.3183e-07
-7.86369e-08
1.76638e-08
7.18105e-07
-3.98344e-08
2.92477e-08
6.61206e-07
-2.83767e-08
1.09608e-10
6.01318e-07
-4.9353e-08
2.77748e-09
7.15287e-07
-5.74316e-08
-4.24089e-09
7.81894e-07
-6.94849e-08
-2.24811e-08
6.70306e-07
3.17384e-09
3.30286e-08
7.31924e-07
-1.98836e-08
3.25995e-08
8.05666e-07
-9.23618e-09
1.72739e-08
6.78567e-07
2.49113e-08
2.72861e-08
7.44035e-07
-2.74959e-08
-1.01368e-08
6.65977e-07
-5.45048e-08
1.24971e-08
6.99426e-07
6.43048e-08
1.00598e-06
3.83925e-08
6.93189e-08
9.86488e-07
2.57258e-08
-3.40889e-08
8.60217e-07
-6.07695e-08
-4.49972e-08
8.33053e-07
-1.15144e-08
-2.33344e-08
6.81764e-07
9.19915e-09
5.86734e-09
6.98968e-07
1.69868e-08
-6.5399e-09
8.13306e-07
6.85263e-09
2.3445e-08
6.85451e-07
9.92334e-08
3.09717e-08
6.95529e-07
7.92308e-09
-5.84418e-09
8.11786e-07
5.39067e-08
1.14624e-08
7.37124e-07
1.29639e-07
4.66872e-08
7.86862e-07
2.832e-08
-5.03899e-08
6.09655e-07
3.67233e-08
-3.1527e-08
7.86626e-07
9.39445e-08
-8.15399e-09
5.86255e-07
7.46706e-08
-7.99566e-08
7.34576e-07
1.41642e-08
-5.58945e-08
6.70773e-07
1.72478e-08
-4.26671e-08
5.24163e-07
1.2905e-08
-2.75802e-08
5.73018e-07
-9.60023e-08
-3.21038e-08
6.49868e-07
-9.87381e-08
4.44471e-08
6.27606e-07
-1.46792e-07
6.17517e-08
7.47618e-07
-4.50757e-08
4.34575e-08
6.86905e-07
-3.37988e-08
2.61892e-08
7.28782e-07
-9.4826e-08
-1.64688e-08
7.88826e-07
-7.61547e-08
2.73256e-09
8.19762e-07
-6.85197e-08
4.64433e-09
7.12747e-07
-4.06603e-08
2.78894e-08
6.72363e-07
-2.56579e-08
-5.7552e-08
8.11493e-07
2.36054e-08
6.02471e-08
7.45782e-07
-3.26436e-08
-2.88008e-08
8.74158e-07
-1.2078e-08
-9.73508e-09
7.23566e-07
1.16615e-09
2.63115e-08
7.88439e-07
8.80914e-09
-3.92401e-08
7.46487e-07
2.90089e-08
1.22384e-08
7.2626e-07
-6.50111e-08
1.04184e-06
-9.89224e-08
1.31332e-06
-2.559e-08
7.9762e-07
-4.18145e-09
7.94889e-07
4.09527e-08
9.94221e-07
3.35278e-08
7.93279e-07
4.70707e-08
1.0968e-06
7.72419e-09
9.11286e-07
5.64347e-08
1.06939e-06
3.08644e-08
7.84092e-07
8.84415e-08
9.49323e-07
7.24595e-08
9.43464e-07
5.0933e-08
8.29101e-07
8.73704e-08
6.79876e-07
5.70498e-08
8.72634e-07
8.3059e-08
6.81401e-07
6.44577e-08
8.11689e-07
5.28684e-08
6.16783e-07
6.67921e-08
6.86574e-07
2.80628e-08
9.51035e-07
-4.10148e-08
6.67617e-07
-1.29019e-07
7.07482e-07
-1.12539e-07
7.36109e-07
-1.07302e-07
7.56685e-07
-7.85815e-08
7.95322e-07
-4.96869e-08
8.17711e-07
-5.48396e-08
1.00706e-06
-9.52605e-08
7.68433e-07
2.24475e-08
8.31661e-07
-3.29974e-08
9.7733e-07
-3.09628e-08
8.91066e-07
1.79139e-08
9.20381e-07
-3.63929e-08
7.59685e-07
9.83833e-09
9.42727e-07
-6.6459e-08
9.76824e-07
1.20408e-06
7.7497e-08
7.58278e-08
9.75372e-07
6.01012e-08
-1.28942e-08
8.11187e-07
8.01749e-08
7.58929e-09
8.98042e-07
1.8997e-08
-5.17692e-08
1.01862e-06
-3.52514e-08
-6.16167e-09
7.47092e-07
3.56544e-08
-4.90142e-10
6.3646e-07
8.52225e-08
3.09787e-08
9.04155e-07
4.1906e-08
-2.98567e-08
9.74157e-07
5.93594e-08
-1.60633e-08
8.47329e-07
-1.84127e-08
-3.42038e-08
7.27941e-07
6.7789e-08
2.04558e-08
8.91042e-07