/*--------------------------------*- C++ -*----------------------------------*\
| =========                 |                                                 |
| \\      /  F ield         | OpenFOAM: The Open Source CFD Toolbox           |
|  \\    /   O peration     | Version:  4.x                                   |
|   \\  /    A nd           | Web:      www.OpenFOAM.org                      |
|    \\/     M anipulation  |                                                 |
\*---------------------------------------------------------------------------*/
FoamFile
{
    version     2.0;
    format      ascii;
    class       volScalarField;
    location    "5000";
    object      CO;
}
// * * * * * * * * * * * * * * * * * * * * * * * * * * * * * * * * * * * * * //

dimensions      [0 0 0 0 0 0 0];

internalField   nonuniform List<scalar> 
1175
(
0.3999999996
0.3999999996
0.3999999996
0.3999999996
0.3999999995
0.3999999994
0.399999999
0.3999999975
0.399999993
0.3999999795
0.3999999408
0.3999998383
0.3999995876
0.3999990338
0.3999979432
0.3999999996
0.3999999996
0.3999999996
0.3999999996
0.3999999995
0.3999999993
0.3999999988
0.3999999968
0.3999999902
0.3999999697
0.3999999089
0.3999997408
0.3999993159
0.3999983562
0.3999964665
0.3999999996
0.3999999996
0.3999999996
0.3999999996
0.3999999995
0.3999999993
0.3999999984
0.3999999954
0.399999985
0.399999951
0.3999998454
0.3999995395
0.3999987333
0.3999968589
0.3999931589
0.3999999996
0.3999999996
0.3999999996
0.3999999996
0.3999999995
0.3999999992
0.399999998
0.3999999939
0.3999999792
0.399999929
0.3999997664
0.3999992744
0.3999979207
0.399994664
0.3999881886
0.3999999996
0.3999999996
0.3999999996
0.3999999996
0.3999999995
0.3999999991
0.3999999979
0.3999999932
0.3999999763
0.3999999175
0.3999997223
0.3999991142
0.3999973859
0.3999930959
0.3999844572
0.3999999996
0.3999999996
0.3999999996
0.3999999996
0.3999999995
0.3999999992
0.399999998
0.3999999939
0.3999999792
0.399999929
0.3999997664
0.3999992744
0.3999979207
0.399994664
0.3999881888
0.3999999996
0.3999999996
0.3999999996
0.3999999996
0.3999999995
0.3999999993
0.3999999984
0.3999999954
0.399999985
0.399999951
0.3999998454
0.3999995395
0.3999987333
0.399996859
0.3999931591
0.3999999996
0.3999999996
0.3999999996
0.3999999996
0.3999999995
0.3999999993
0.3999999988
0.3999999968
0.3999999902
0.3999999697
0.3999999089
0.3999997408
0.3999993159
0.3999983563
0.3999964667
0.3999999996
0.3999999996
0.3999999996
0.3999999996
0.3999999995
0.3999999994
0.399999999
0.3999999975
0.399999993
0.3999999795
0.3999999408
0.3999998383
0.3999995877
0.3999990338
0.3999979434
0.3999999996
0.3999999996
0.3999999996
0.3999999996
0.3999999995
0.3999999993
0.3999999988
0.3999999968
0.3999999902
0.3999999697
0.3999999089
0.3999997408
0.3999993159
0.3999983561
0.3999999996
0.3999999996
0.3999999996
0.3999999996
0.3999999995
0.3999999993
0.3999999984
0.3999999955
0.3999999854
0.399999952
0.3999998474
0.3999995416
0.3999987289
0.3999968277
0.3999930715
0.3999999996
0.3999999996
0.3999999996
0.3999999996
0.3999999995
0.3999999991
0.3999999979
0.3999999932
0.399999976
0.3999999159
0.3999997152
0.3999990897
0.3999973214
0.3999929807
0.399984315
0.3999999996
0.3999999996
0.3999999996
0.3999999995
0.3999999994
0.399999999
0.3999999973
0.3999999905
0.3999999647
0.3999998694
0.3999995319
0.3999984094
0.3999950118
0.3999861405
0.3999679881
0.3999999996
0.3999999996
0.3999999996
0.3999999995
0.3999999994
0.3999999989
0.399999997
0.3999999891
0.3999999586
0.3999998423
0.399999414
0.3999979181
0.3999931095
0.3999796834
0.3999509357
0.3999999996
0.3999999996
0.3999999996
0.3999999995
0.3999999994
0.399999999
0.3999999973
0.3999999905
0.3999999647
0.3999998694
0.3999995319
0.3999984094
0.3999950119
0.3999861407
0.3999679888
0.3999999996
0.3999999996
0.3999999996
0.3999999996
0.3999999995
0.3999999991
0.3999999979
0.3999999932
0.399999976
0.3999999159
0.3999997152
0.3999990897
0.3999973215
0.399992981
0.3999843157
0.3999999996
0.3999999996
0.3999999996
0.3999999996
0.3999999995
0.3999999993
0.3999999984
0.3999999955
0.3999999854
0.399999952
0.3999998474
0.3999995416
0.399998729
0.3999968279
0.3999930721
0.3999999996
0.3999999996
0.3999999996
0.3999999996
0.3999999995
0.3999999993
0.3999999988
0.3999999968
0.3999999902
0.3999999697
0.3999999089
0.3999997408
0.3999993159
0.3999983563
0.3999964667
0.3999999996
0.3999999996
0.3999999996
0.3999999996
0.3999999995
0.3999999993
0.3999999984
0.3999999954
0.399999985
0.399999951
0.3999998454
0.3999995395
0.3999987332
0.3999968586
0.3999999996
0.3999999996
0.3999999996
0.3999999996
0.3999999995
0.3999999991
0.3999999979
0.3999999932
0.399999976
0.3999999159
0.3999997152
0.3999990897
0.3999973213
0.3999929802
0.3999999996
0.3999999996
0.3999999996
0.3999999995
0.3999999994
0.3999999989
0.3999999969
0.3999999888
0.3999999575
0.399999839
0.3999994107
0.3999979566
0.3999934748
0.399981611
0.3999572336
0.3999999996
0.3999999996
0.3999999996
0.3999999995
0.3999999994
0.3999999987
0.3999999957
0.3999999835
0.3999999332
0.3999997298
0.3999989341
0.3999959776
0.3999858968
0.3999563139
0.3998914473
0.3999999996
0.3999999996
0.3999999996
0.3999999995
0.3999999993
0.3999999985
0.3999999952
0.3999999807
0.3999999188
0.3999996578
0.3999985748
0.3999942275
0.399977825
0.39992317
0.3997871708
0.3999999996
0.3999999996
0.3999999996
0.3999999995
0.3999999994
0.3999999987
0.3999999957
0.3999999835
0.3999999332
0.3999997298
0.3999989341
0.3999959777
0.3999858972
0.3999563153
0.3998914513
0.3999999996
0.3999999996
0.3999999996
0.3999999995
0.3999999994
0.3999999989
0.3999999969
0.3999999888
0.3999999575
0.399999839
0.3999994107
0.3999979566
0.3999934751
0.3999816122
0.3999572372
0.3999999996
0.3999999996
0.3999999996
0.3999999996
0.3999999995
0.3999999991
0.3999999979
0.3999999932
0.399999976
0.3999999159
0.3999997152
0.3999990897
0.3999973215
0.399992981
0.3999843157
0.3999999996
0.3999999996
0.3999999996
0.3999999996
0.3999999995
0.3999999993
0.3999999984
0.3999999954
0.399999985
0.399999951
0.3999998454
0.3999995395
0.3999987333
0.3999968589
0.3999931591
0.3999999996
0.3999999996
0.3999999996
0.3999999996
0.3999999995
0.3999999992
0.399999998
0.3999999939
0.3999999792
0.399999929
0.3999997664
0.3999992743
0.3999979205
0.3999946634
0.3999999996
0.3999999996
0.3999999996
0.3999999995
0.3999999994
0.399999999
0.3999999973
0.3999999905
0.3999999647
0.3999998694
0.3999995319
0.3999984093
0.3999950115
0.3999861391
0.3999999996
0.3999999996
0.3999999996
0.3999999995
0.3999999994
0.3999999987
0.3999999957
0.3999999835
0.3999999332
0.3999997298
0.3999989341
0.3999959775
0.3999858962
0.3999563107
0.3999999996
0.3999999996
0.3999999996
0.3999999995
0.3999999993
0.3999999983
0.3999999939
0.3999999746
0.3999998888
0.3999995114
0.3999978745
0.3999909938
0.3999638304
0.3998695696
0.3996286894
0.3999999996
0.3999999996
0.3999999996
0.3999999995
0.3999999993
0.3999999981
0.399999993
0.3999999693
0.3999998598
0.3999993467
0.3999969213
0.3999854419
0.3999320398
0.3996993746
0.3988920878
0.3999999996
0.3999999996
0.3999999996
0.3999999995
0.3999999993
0.3999999983
0.3999999939
0.3999999746
0.3999998888
0.3999995114
0.3999978746
0.399990994
0.3999638316
0.3998695758
0.3996287149
0.3999999996
0.3999999996
0.3999999996
0.3999999995
0.3999999994
0.3999999987
0.3999999957
0.3999999835
0.3999999332
0.3999997298
0.3999989341
0.3999959776
0.3999858971
0.399956315
0.3998914512
0.3999999996
0.3999999996
0.3999999996
0.3999999995
0.3999999994
0.399999999
0.3999999973
0.3999999905
0.3999999647
0.3999998694
0.3999995319
0.3999984094
0.3999950118
0.3999861406
0.3999679887
0.3999999996
0.3999999996
0.3999999996
0.3999999996
0.3999999995
0.3999999992
0.399999998
0.3999999939
0.3999999792
0.399999929
0.3999997664
0.3999992744
0.3999979206
0.399994664
0.3999881887
0.3999999996
0.3999999996
0.3999999996
0.3999999996
0.3999999995
0.3999999991
0.3999999979
0.3999999932
0.3999999763
0.3999999175
0.3999997222
0.3999991141
0.3999973856
0.3999930951
0.3999999996
0.3999999996
0.3999999996
0.3999999995
0.3999999994
0.3999999989
0.399999997
0.3999999891
0.3999999586
0.3999998423
0.399999414
0.399997918
0.3999931088
0.3999796811
0.3999999996
0.3999999996
0.3999999996
0.3999999995
0.3999999993
0.3999999985
0.3999999952
0.3999999807
0.3999999188
0.3999996578
0.3999985748
0.3999942271
0.3999778231
0.3999231613
0.3999999996
0.3999999996
0.3999999996
0.3999999995
0.3999999993
0.3999999981
0.399999993
0.3999999693
0.3999998598
0.3999993467
0.3999969212
0.3999854413
0.3999320356
0.3996993463
0.3999999996
0.3999999996
0.3999999996
0.3999999995
0.3999999992
0.3999999979
0.3999999917
0.3999999624
0.399999818
0.3999990825
0.3999951571
0.3999729809
0.3998390494
0.3989686987
0.3928503616
0.3999999996
0.3999999996
0.3999999996
0.3999999995
0.3999999993
0.3999999981
0.399999993
0.3999999693
0.3999998598
0.3999993467
0.3999969212
0.3999854417
0.3999320386
0.3996993699
0.3988920824
0.3999999996
0.3999999996
0.3999999996
0.3999999995
0.3999999993
0.3999999985
0.3999999952
0.3999999807
0.3999999188
0.3999996578
0.3999985748
0.3999942273
0.3999778245
0.3999231686
0.3997871696
0.3999999996
0.3999999996
0.3999999996
0.3999999995
0.3999999994
0.3999999989
0.399999997
0.3999999891
0.3999999586
0.3999998423
0.399999414
0.3999979181
0.3999931093
0.3999796831
0.3999509356
0.3999999996
0.3999999996
0.3999999996
0.3999999996
0.3999999995
0.3999999991
0.3999999979
0.3999999932
0.3999999763
0.3999999175
0.3999997222
0.3999991142
0.3999973858
0.3999930958
0.3999844571
0.3999999996
0.3999999996
0.3999999996
0.3999999996
0.3999999995
0.3999999992
0.399999998
0.3999999939
0.3999999792
0.399999929
0.3999997664
0.3999992743
0.3999979204
0.3999946634
0.3999999996
0.3999999996
0.3999999996
0.3999999995
0.3999999994
0.399999999
0.3999999973
0.3999999905
0.3999999647
0.3999998694
0.3999995319
0.3999984093
0.3999950114
0.3999861391
0.3999999996
0.3999999996
0.3999999996
0.3999999995
0.3999999994
0.3999999987
0.3999999957
0.3999999835
0.3999999332
0.3999997298
0.3999989341
0.3999959773
0.3999858958
0.3999563101
0.3999999996
0.3999999996
0.3999999996
0.3999999995
0.3999999993
0.3999999983
0.3999999939
0.3999999746
0.3999998888
0.3999995114
0.3999978745
0.3999909934
0.3999638285
0.3998695617
0.3999999996
0.3999999996
0.3999999996
0.3999999995
0.3999999993
0.3999999981
0.399999993
0.3999999693
0.3999998598
0.3999993467
0.3999969211
0.399985441
0.3999320344
0.3996993424
0.3999999996
0.3999999996
0.3999999996
0.3999999995
0.3999999993
0.3999999983
0.3999999939
0.3999999746
0.3999998888
0.3999995114
0.3999978745
0.3999909935
0.3999638292
0.3998695641
0.3999999996
0.3999999996
0.3999999996
0.3999999995
0.3999999994
0.3999999987
0.3999999957
0.3999999835
0.3999999332
0.3999997298
0.3999989341
0.3999959775
0.3999858963
0.3999563125
0.3998914431
0.3999999996
0.3999999996
0.3999999996
0.3999999995
0.3999999994
0.399999999
0.3999999973
0.3999999905
0.3999999647
0.3999998694
0.3999995319
0.3999984093
0.3999950116
0.3999861401
0.3999679875
0.3999999996
0.3999999996
0.3999999996
0.3999999996
0.3999999995
0.3999999992
0.399999998
0.3999999939
0.3999999792
0.399999929
0.3999997664
0.3999992744
0.3999979206
0.3999946638
0.3999881885
0.3999999996
0.3999999996
0.3999999996
0.3999999996
0.3999999995
0.3999999993
0.3999999984
0.3999999954
0.399999985
0.399999951
0.3999998454
0.3999995394
0.3999987332
0.3999968586
0.3999999996
0.3999999996
0.3999999996
0.3999999996
0.3999999995
0.3999999991
0.3999999979
0.3999999932
0.399999976
0.3999999159
0.3999997152
0.3999990896
0.3999973212
0.3999929801
0.3999999996
0.3999999996
0.3999999996
0.3999999995
0.3999999994
0.3999999989
0.3999999969
0.3999999888
0.3999999575
0.399999839
0.3999994106
0.3999979564
0.3999934744
0.39998161
0.3999999996
0.3999999996
0.3999999996
0.3999999995
0.3999999994
0.3999999987
0.3999999957
0.3999999835
0.3999999332
0.3999997298
0.3999989341
0.3999959773
0.3999858957
0.3999563101
0.3999999996
0.3999999996
0.3999999996
0.3999999995
0.3999999993
0.3999999985
0.3999999952
0.3999999807
0.3999999188
0.3999996578
0.3999985747
0.3999942269
0.3999778227
0.3999231609
0.3999999996
0.3999999996
0.3999999996
0.3999999995
0.3999999994
0.3999999987
0.3999999957
0.3999999835
0.3999999332
0.3999997298
0.3999989341
0.3999959773
0.3999858959
0.3999563106
0.3999999996
0.3999999996
0.3999999996
0.3999999995
0.3999999994
0.3999999989
0.3999999969
0.3999999888
0.3999999575
0.399999839
0.3999994107
0.3999979565
0.3999934745
0.3999816102
0.3999999996
0.3999999996
0.3999999996
0.3999999996
0.3999999995
0.3999999991
0.3999999979
0.3999999932
0.399999976
0.3999999159
0.3999997152
0.3999990897
0.3999973213
0.3999929804
0.3999843143
0.3999999996
0.3999999996
0.3999999996
0.3999999996
0.3999999995
0.3999999993
0.3999999984
0.3999999954
0.399999985
0.399999951
0.3999998454
0.3999995395
0.3999987332
0.3999968588
0.3999931588
0.3999999996
0.3999999996
0.3999999996
0.3999999996
0.3999999995
0.3999999993
0.3999999988
0.3999999968
0.3999999902
0.3999999697
0.3999999089
0.3999997408
0.3999993158
0.3999983561
0.3999999996
0.3999999996
0.3999999996
0.3999999996
0.3999999995
0.3999999993
0.3999999984
0.3999999955
0.3999999854
0.399999952
0.3999998473
0.3999995416
0.3999987289
0.3999968275
0.3999999996
0.3999999996
0.3999999996
0.3999999996
0.3999999995
0.3999999991
0.3999999979
0.3999999932
0.399999976
0.3999999159
0.3999997152
0.3999990896
0.3999973212
0.3999929801
0.3999999996
0.3999999996
0.3999999996
0.3999999995
0.3999999994
0.399999999
0.3999999973
0.3999999905
0.3999999647
0.3999998694
0.3999995318
0.3999984092
0.3999950113
0.3999861391
0.3999999996
0.3999999996
0.3999999996
0.3999999995
0.3999999994
0.3999999989
0.399999997
0.3999999891
0.3999999586
0.3999998423
0.399999414
0.3999979179
0.3999931087
0.3999796811
0.3999999996
0.3999999996
0.3999999996
0.3999999995
0.3999999994
0.399999999
0.3999999973
0.3999999905
0.3999999647
0.3999998694
0.3999995318
0.3999984093
0.3999950114
0.3999861392
0.3999999996
0.3999999996
0.3999999996
0.3999999996
0.3999999995
0.3999999991
0.3999999979
0.3999999932
0.399999976
0.3999999159
0.3999997152
0.3999990897
0.3999973212
0.3999929802
0.3999999996
0.3999999996
0.3999999996
0.3999999996
0.3999999995
0.3999999993
0.3999999984
0.3999999955
0.3999999854
0.399999952
0.3999998473
0.3999995416
0.3999987289
0.3999968276
0.3999999996
0.3999999996
0.3999999996
0.3999999996
0.3999999995
0.3999999993
0.3999999988
0.3999999968
0.3999999902
0.3999999697
0.3999999089
0.3999997408
0.3999993159
0.3999983561
0.3999964664
0.3999999996
0.3999999996
0.3999999996
0.3999999996
0.3999999995
0.3999999994
0.399999999
0.3999999975
0.399999993
0.3999999795
0.3999999408
0.3999998383
0.3999995876
0.3999990337
0.3999999996
0.3999999996
0.3999999996
0.3999999996
0.3999999995
0.3999999993
0.3999999988
0.3999999968
0.3999999902
0.3999999697
0.3999999089
0.3999997408
0.3999993158
0.3999983561
0.3999999996
0.3999999996
0.3999999996
0.3999999996
0.3999999995
0.3999999993
0.3999999984
0.3999999954
0.399999985
0.399999951
0.3999998454
0.3999995394
0.3999987331
0.3999968586
0.3999999996
0.3999999996
0.3999999996
0.3999999996
0.3999999995
0.3999999992
0.399999998
0.3999999939
0.3999999792
0.399999929
0.3999997664
0.3999992743
0.3999979204
0.3999946634
0.3999999996
0.3999999996
0.3999999996
0.3999999996
0.3999999995
0.3999999991
0.3999999979
0.3999999932
0.3999999763
0.3999999175
0.3999997222
0.3999991141
0.3999973856
0.3999930951
0.3999999996
0.3999999996
0.3999999996
0.3999999996
0.3999999995
0.3999999992
0.399999998
0.3999999939
0.3999999792
0.399999929
0.3999997664
0.3999992743
0.3999979205
0.3999946634
0.3999999996
0.3999999996
0.3999999996
0.3999999996
0.3999999995
0.3999999993
0.3999999984
0.3999999954
0.399999985
0.399999951
0.3999998454
0.3999995394
0.3999987332
0.3999968586
0.3999999996
0.3999999996
0.3999999996
0.3999999996
0.3999999995
0.3999999993
0.3999999988
0.3999999968
0.3999999902
0.3999999697
0.3999999089
0.3999997408
0.3999993158
0.3999983561
0.3999999996
0.3999999996
0.3999999996
0.3999999996
0.3999999995
0.3999999994
0.399999999
0.3999999975
0.399999993
0.3999999795
0.3999999408
0.3999998383
0.3999995876
0.3999990337
)
;

boundaryField
{
    top
    {
        type            zeroGradient;
    }
    bottom
    {
        type            zeroGradient;
    }
    side-walls
    {
        type            zeroGradient;
    }
    inlet
    {
        type            zeroGradient;
    }
    outlet
    {
        type            zeroGradient;
    }
    procBoundary0to1
    {
        type            processor;
        value           nonuniform List<scalar> 
97
(
0.3999960443
0.3999964663
0.3999932692
0.3999871366
0.3999781464
0.3999717235
0.3999781466
0.3999871368
0.3999932694
0.3999960445
0.3999964663
0.3999964663
0.3999870091
0.3999843142
0.3999712518
0.3999432322
0.39991678
0.3999432329
0.3999712525
0.3999870096
0.3999932694
0.3999931587
0.3999843142
0.3999843142
0.3999246799
0.3998914412
0.3998210397
0.3996852194
0.3998210434
0.3999246823
0.3999712525
0.3999871368
0.3999881882
0.3999679868
0.3998914412
0.3998914412
0.399465574
0.3988920079
0.398767654
0.399465586
0.3998210433
0.3999432329
0.3999781466
0.3999844566
0.3999509335
0.3997871585
0.3988920079
0.3988920079
0.3957604764
0.3988920087
0.3987676533
0.399628693
0.3996852189
0.3999167801
0.3999717235
0.3999881882
0.3999679873
0.3998914458
0.3996286955
0.3988920087
0.399628693
0.399628693
0.3998210403
0.3999572338
0.3999432319
0.3999781463
0.3999931588
0.399984315
0.3999572352
0.3998914459
0.3997871587
0.3998914462
0.3999572338
0.3999572338
0.3999712518
0.3999930715
0.3999871365
0.3999964665
0.3999930718
0.399984315
0.3999679874
0.3999509337
0.3999679876
0.399984315
0.3999930715
0.3999930715
0.3999932692
0.3999979432
0.3999979433
0.3999964665
0.3999931588
0.3999881883
0.3999844567
0.3999881884
0.3999931589
0.3999964665
0.3999979432
)
;
    }
}


// ************************************************************************* //
