/*--------------------------------*- C++ -*----------------------------------*\
| =========                 |                                                 |
| \\      /  F ield         | OpenFOAM: The Open Source CFD Toolbox           |
|  \\    /   O peration     | Version:  4.x                                   |
|   \\  /    A nd           | Web:      www.OpenFOAM.org                      |
|    \\/     M anipulation  |                                                 |
\*---------------------------------------------------------------------------*/
FoamFile
{
    version     2.0;
    format      ascii;
    class       volScalarField;
    location    "5000";
    object      Cpv;
}
// * * * * * * * * * * * * * * * * * * * * * * * * * * * * * * * * * * * * * //

dimensions      [0 2 -2 -1 0 0 0];

internalField   nonuniform List<scalar> 
1175
(
1210.459731
1210.459744
1210.459731
1210.459725
1210.459725
1210.459749
1210.459752
1210.459759
1210.459765
1210.459772
1210.459759
1210.459785
1210.4598
1210.459858
1210.459961
1210.460557
1210.460563
1210.460531
1210.46052
1210.46054
1210.460541
1210.460547
1210.46054
1210.46055
1210.460513
1210.460524
1210.460515
1210.460569
1210.460644
1210.460806
1210.459806
1210.45983
1210.459838
1210.459825
1210.459844
1210.459828
1210.459842
1210.459849
1210.459863
1210.459857
1210.459858
1210.459893
1210.459947
1210.460102
1210.460399
1210.459661
1210.45965
1210.459651
1210.459625
1210.459624
1210.459643
1210.459636
1210.459619
1210.459651
1210.459645
1210.459656
1210.459682
1210.459786
1210.460056
1210.46056
1210.459475
1210.459492
1210.459488
1210.459511
1210.45952
1210.459505
1210.45951
1210.45952
1210.459524
1210.459517
1210.459525
1210.459569
1210.459724
1210.460057
1210.460752
1210.459776
1210.459786
1210.459778
1210.459772
1210.459794
1210.459798
1210.459783
1210.459789
1210.459814
1210.459805
1210.459815
1210.45984
1210.459951
1210.460213
1210.460741
1210.460081
1210.460088
1210.460079
1210.46006
1210.460061
1210.460061
1210.460075
1210.460084
1210.46009
1210.4601
1210.460124
1210.460145
1210.460204
1210.460336
1210.460644
1210.459293
1210.459307
1210.459317
1210.459341
1210.459345
1210.459323
1210.459336
1210.459322
1210.459334
1210.459331
1210.459349
1210.459354
1210.45939
1210.459445
1210.459617
1210.459619
1210.459616
1210.459612
1210.459605
1210.459592
1210.459588
1210.45958
1210.459601
1210.4596
1210.459601
1210.459603
1210.459636
1210.459655
1210.459712
1210.459785
1210.459793
1210.459807
1210.459815
1210.459823
1210.459826
1210.459817
1210.459831
1210.459821
1210.459809
1210.459803
1210.459837
1210.459849
1210.459869
1210.459945
1210.45897
1210.458973
1210.458984
1210.458971
1210.458956
1210.458959
1210.45894
1210.45893
1210.458936
1210.458943
1210.458955
1210.458978
1210.459049
1210.459243
1210.459546
1210.459476
1210.459475
1210.459478
1210.459457
1210.459474
1210.459449
1210.459461
1210.459483
1210.459516
1210.459523
1210.459563
1210.459591
1210.459731
1210.460093
1210.460792
1210.459375
1210.45937
1210.459338
1210.459346
1210.459349
1210.45935
1210.459342
1210.459334
1210.459326
1210.459328
1210.459339
1210.459416
1210.459738
1210.460468
1210.461931
1210.460829
1210.460822
1210.46081
1210.460809
1210.460784
1210.460795
1210.460809
1210.460811
1210.460823
1210.460843
1210.460913
1210.461044
1210.461425
1210.46251
1210.464833
1210.459912
1210.459871
1210.459877
1210.459867
1210.459869
1210.459834
1210.459818
1210.459814
1210.459842
1210.459839
1210.459886
1210.459982
1210.460247
1210.460949
1210.462402
1210.459523
1210.459526
1210.459568
1210.459582
1210.459564
1210.459568
1210.459546
1210.459556
1210.459561
1210.459575
1210.459573
1210.459639
1210.459768
1210.46013
1210.460847
1210.460121
1210.460104
1210.460116
1210.460087
1210.460093
1210.460083
1210.460045
1210.460048
1210.460027
1210.460034
1210.460022
1210.46004
1210.460101
1210.460281
1210.460572
1210.459867
1210.459847
1210.459881
1210.459882
1210.459898
1210.459903
1210.459906
1210.459907
1210.459903
1210.459897
1210.459916
1210.459922
1210.459937
1210.460023
1210.460183
1210.459832
1210.459837
1210.459847
1210.459837
1210.459848
1210.459832
1210.459848
1210.459829
1210.459833
1210.459832
1210.45982
1210.459866
1210.459929
1210.460088
1210.460644
1210.46063
1210.460623
1210.460627
1210.460639
1210.460658
1210.460652
1210.460646
1210.460644
1210.460642
1210.460688
1210.460737
1210.460847
1210.461188
1210.4597
1210.459706
1210.459733
1210.459709
1210.459746
1210.459744
1210.459767
1210.459785
1210.459779
1210.459781
1210.459814
1210.459918
1210.460289
1210.461252
1210.463224
1210.460499
1210.460484
1210.460498
1210.460512
1210.460481
1210.4605
1210.460493
1210.460493
1210.460504
1210.460549
1210.460617
1210.460847
1210.461668
1210.464066
1210.469305
1210.460277
1210.46029
1210.460282
1210.460268
1210.460276
1210.460285
1210.460276
1210.460266
1210.460269
1210.460334
1210.46041
1210.460748
1210.462105
1210.466539
1210.477552
1210.459668
1210.459671
1210.459709
1210.459691
1210.45969
1210.45969
1210.459694
1210.459706
1210.459724
1210.459724
1210.459801
1210.460052
1210.460866
1210.463266
1210.468517
1210.46035
1210.460353
1210.460345
1210.460321
1210.460343
1210.460358
1210.460345
1210.460326
1210.460335
1210.460377
1210.460401
1210.460544
1210.460947
1210.461938
1210.463882
1210.459222
1210.4592
1210.459211
1210.459187
1210.459161
1210.459161
1210.459158
1210.459176
1210.459175
1210.459169
1210.459209
1210.459251
1210.4594
1210.459737
1210.460455
1210.459596
1210.459612
1210.459605
1210.45961
1210.459618
1210.459593
1210.459606
1210.459614
1210.459627
1210.459646
1210.459652
1210.459671
1210.459729
1210.459908
1210.460214
1210.459501
1210.459494
1210.459495
1210.459499
1210.459495
1210.459493
1210.459498
1210.459492
1210.459516
1210.459542
1210.459563
1210.459584
1210.459704
1210.459969
1210.459501
1210.459497
1210.459517
1210.459539
1210.459554
1210.459531
1210.459535
1210.459537
1210.459532
1210.459564
1210.45959
1210.459683
1210.459968
1210.46071
1210.459645
1210.459646
1210.459653
1210.459641
1210.459622
1210.459627
1210.459648
1210.459645
1210.459624
1210.459641
1210.459694
1210.459947
1210.460775
1210.463174
1210.46064
1210.460646
1210.460628
1210.46061
1210.460619
1210.460633
1210.460649
1210.460663
1210.460658
1210.4607
1210.460814
1210.46136
1210.463581
1210.471213
1210.490721
1210.459127
1210.459128
1210.459133
1210.459156
1210.459147
1210.459167
1210.459133
1210.459162
1210.459165
1210.459187
1210.459377
1210.460318
1210.464668
1210.483526
1210.548151
1210.459554
1210.459551
1210.459542
1210.45956
1210.459538
1210.459529
1210.45951
1210.459512
1210.459504
1210.459525
1210.459623
1210.460204
1210.462385
1210.469994
1210.489481
1210.459477
1210.45947
1210.459445
1210.459458
1210.459444
1210.459435
1210.459471
1210.459466
1210.459473
1210.459522
1210.459596
1210.45983
1210.460635
1210.46303
1210.468279
1210.460405
1210.460377
1210.460379
1210.46038
1210.460381
1210.460398
1210.46038
1210.460356
1210.460364
1210.460374
1210.460395
1210.460487
1210.460729
1210.461434
1210.46292
1210.459682
1210.45969
1210.459688
1210.459685
1210.459683
1210.4597
1210.459681
1210.459668
1210.459681
1210.459684
1210.459687
1210.459722
1210.459847
1210.460103
1210.460623
1210.459772
1210.459769
1210.459792
1210.459804
1210.459811
1210.459808
1210.459819
1210.459808
1210.459786
1210.459794
1210.45983
1210.459878
1210.460003
1210.460356
1210.460047
1210.460051
1210.460046
1210.460062
1210.460069
1210.460053
1210.460061
1210.460053
1210.460058
1210.460065
1210.460098
1210.460229
1210.460618
1210.461702
1210.460001
1210.459988
1210.459973
1210.459948
1210.459947
1210.459969
1210.459975
1210.459954
1210.459955
1210.45998
1210.460044
1210.460414
1210.461729
1210.466158
1210.45977
1210.459749
1210.459743
1210.459755
1210.459732
1210.459749
1210.459736
1210.459735
1210.45975
1210.459789
1210.459998
1210.460933
1210.465254
1210.484074
1210.459617
1210.459613
1210.45961
1210.459618
1210.459656
1210.459662
1210.459623
1210.459643
1210.459646
1210.459715
1210.460022
1210.461809
1210.47263
1210.543076
1210.106208
1210.459539
1210.459554
1210.459553
1210.459538
1210.459526
1210.459524
1210.45955
1210.459583
1210.45961
1210.459665
1210.459874
1210.460786
1210.465095
1210.483915
1210.548524
1210.460139
1210.460118
1210.460133
1210.460125
1210.460133
1210.460145
1210.460141
1210.460144
1210.460152
1210.460165
1210.460261
1210.460627
1210.461963
1210.466386
1210.477367
1210.459458
1210.45949
1210.459464
1210.459487
1210.459497
1210.459509
1210.459494
1210.45948
1210.459478
1210.459503
1210.459532
1210.459644
1210.460061
1210.461147
1210.4635
1210.459632
1210.459627
1210.459627
1210.459627
1210.459613
1210.459613
1210.459632
1210.459634
1210.459635
1210.45965
1210.459654
1210.459703
1210.459867
1210.460217
1210.46089
1210.460538
1210.460545
1210.460557
1210.460534
1210.460526
1210.460543
1210.460524
1210.460536
1210.460515
1210.460514
1210.460525
1210.460553
1210.460664
1210.460914
1210.459864
1210.459861
1210.459864
1210.459834
1210.459811
1210.459831
1210.459841
1210.459829
1210.459838
1210.459857
1210.4599
1210.46001
1210.46032
1210.461024
1210.460162
1210.460186
1210.460178
1210.460191
1210.460209
1210.460211
1210.460214
1210.46022
1210.460219
1210.460211
1210.460287
1210.460516
1210.461332
1210.463725
1210.459161
1210.459168
1210.459169
1210.459193
1210.459189
1210.459192
1210.459167
1210.459172
1210.459173
1210.459206
1210.459342
1210.459885
1210.462105
1210.469776
1210.460396
1210.46039
1210.460387
1210.460373
1210.460385
1210.460348
1210.460334
1210.460358
1210.46036
1210.460403
1210.46061
1210.461536
1210.465856
1210.484675
1210.459187
1210.459206
1210.459207
1210.459203
1210.459216
1210.459201
1210.4592
1210.459182
1210.459199
1210.459241
1210.459367
1210.45993
1210.462111
1210.469732
1210.459749
1210.459773
1210.459774
1210.459775
1210.459785
1210.459792
1210.459792
1210.459827
1210.459842
1210.459843
1210.459903
1210.46017
1210.461009
1210.463412
1210.468665
1210.460209
1210.460192
1210.46019
1210.460191
1210.460175
1210.460166
1210.460163
1210.46015
1210.460158
1210.460166
1210.460209
1210.460306
1210.460553
1210.461251
1210.46269
1210.459653
1210.459638
1210.459649
1210.459633
1210.459634
1210.459641
1210.459632
1210.459636
1210.459644
1210.459634
1210.459652
1210.459699
1210.459806
1210.460094
1210.460633
1210.459595
1210.459596
1210.459605
1210.459607
1210.459608
1210.459611
1210.459601
1210.459604
1210.459575
1210.459572
1210.459594
1210.459629
1210.459671
1210.45982
1210.459456
1210.45947
1210.459487
1210.459492
1210.459508
1210.459543
1210.45954
1210.459525
1210.459524
1210.459514
1210.459521
1210.459564
1210.459712
1210.460071
1210.460249
1210.460275
1210.460274
1210.460298
1210.460303
1210.460291
1210.460269
1210.460288
1210.460275
1210.460274
1210.460304
1210.460418
1210.460776
1210.461735
1210.459884
1210.459898
1210.459887
1210.459874
1210.459855
1210.459865
1210.459846
1210.459866
1210.459877
1210.45992
1210.459961
1210.460197
1210.461031
1210.463424
1210.45978
1210.459787
1210.459794
1210.459766
1210.459758
1210.459754
1210.459775
1210.459764
1210.459757
1210.459774
1210.459884
1210.460206
1210.461535
1210.465954
1210.459928
1210.459923
1210.459939
1210.459941
1210.459936
1210.459927
1210.459922
1210.459926
1210.459933
1210.459942
1210.46002
1210.460263
1210.461094
1210.463494
1210.459821
1210.459808
1210.459802
1210.459816
1210.459857
1210.45987
1210.459844
1210.459829
1210.459817
1210.45981
1210.459871
1210.460001
1210.460357
1210.461329
1210.460023
1210.460043
1210.46005
1210.46005
1210.460037
1210.460073
1210.460081
1210.460093
1210.460104
1210.460095
1210.460127
1210.460174
1210.460306
1210.460651
1210.461351
1210.459633
1210.459657
1210.459652
1210.459654
1210.459646
1210.459663
1210.459653
1210.459644
1210.459647
1210.459672
1210.459665
1210.459675
1210.459764
1210.459901
1210.460218
1210.459757
1210.459757
1210.459749
1210.459776
1210.459796
1210.459796
1210.459789
1210.45977
1210.459789
1210.459791
1210.459799
1210.459798
1210.459825
1210.459909
1210.459717
1210.459708
1210.459702
1210.459701
1210.459715
1210.459753
1210.459764
1210.459762
1210.459761
1210.459728
1210.459769
1210.459796
1210.459864
1210.460014
1210.45971
1210.459682
1210.459685
1210.459677
1210.459647
1210.459647
1210.459649
1210.459662
1210.459659
1210.459672
1210.459689
1210.459721
1210.459863
1210.460193
1210.459971
1210.459947
1210.459939
1210.459913
1210.459926
1210.45994
1210.459951
1210.459933
1210.459926
1210.459953
1210.459975
1210.460063
1210.460327
1210.461054
1210.45939
1210.459368
1210.459344
1210.45934
1210.459315
1210.45933
1210.459319
1210.459333
1210.459349
1210.459356
1210.459359
1210.459493
1210.459888
1210.460987
1210.459849
1210.459857
1210.459858
1210.459836
1210.459829
1210.459808
1210.459796
1210.459798
1210.459804
1210.459828
1210.459865
1210.459985
1210.460274
1210.460982
1210.45852
1210.458518
1210.458515
1210.458535
1210.45852
1210.458538
1210.458547
1210.45855
1210.45854
1210.458532
1210.458536
1210.458616
1210.458748
1210.459072
1210.458616
1210.458607
1210.458603
1210.45857
1210.458574
1210.458577
1210.458547
1210.458558
1210.458553
1210.45856
1210.458544
1210.458566
1210.458625
1210.458797
1210.459552
1210.459547
1210.45958
1210.459557
1210.459557
1210.459551
1210.459563
1210.459545
1210.459563
1210.459574
1210.459592
1210.459608
1210.459631
1210.459698
1210.45985
1210.459347
1210.459358
1210.459336
1210.459318
1210.459316
1210.45931
1210.459305
1210.459309
1210.459294
1210.459309
1210.459292
1210.45931
1210.459337
1210.459378
1210.460001
1210.460006
1210.46003
1210.460014
1210.460037
1210.460042
1210.460045
1210.460037
1210.460041
1210.460042
1210.460035
1210.460042
1210.46009
1210.460198
1210.460036
1210.460021
1210.460032
1210.460058
1210.460037
1210.460049
1210.460052
1210.460052
1210.460065
1210.460077
1210.460082
1210.460119
1210.460186
1210.460335
1210.459592
1210.459633
1210.459643
1210.459631
1210.459644
1210.45965
1210.459651
1210.459648
1210.459652
1210.45967
1210.459699
1210.459729
1210.45984
1210.460102
1210.459324
1210.459315
1210.459299
1210.459324
1210.459325
1210.459302
1210.459297
1210.459295
1210.459272
1210.459274
1210.459281
1210.459319
1210.459477
1210.459816
1210.459481
1210.45948
1210.459473
1210.459487
1210.459472
1210.459464
1210.45946
1210.459428
1210.459431
1210.459435
1210.459453
1210.459494
1210.459601
1210.459886
1210.459631
1210.45962
1210.459634
1210.459624
1210.459632
1210.459651
1210.459644
1210.459675
1210.45969
1210.459718
1210.459724
1210.459758
1210.459834
1210.459993
1210.460053
1210.460042
1210.460039
1210.460055
1210.460054
1210.460062
1210.460057
1210.460062
1210.460049
1210.460059
1210.460076
1210.460108
1210.460136
1210.46023
1210.459666
1210.459658
1210.459647
1210.459638
1210.459655
1210.459654
1210.459655
1210.459657
1210.459649
1210.459655
1210.459667
1210.459665
1210.4597
1210.459733
)
;

boundaryField
{
    top
    {
        type            calculated;
        value           nonuniform List<scalar> 
134
(
1210.459619
1210.459867
1210.459596
1210.459682
1210.459632
1210.459653
1210.459633
1210.459552
1210.459666
1210.459616
1210.459847
1210.459612
1210.45969
1210.459627
1210.459638
1210.459657
1210.459547
1210.459658
1210.459612
1210.459881
1210.459605
1210.459688
1210.459627
1210.459649
1210.459652
1210.45958
1210.459647
1210.459605
1210.459882
1210.45961
1210.459685
1210.459627
1210.459633
1210.459654
1210.459557
1210.459638
1210.459592
1210.459898
1210.459618
1210.459683
1210.459613
1210.459634
1210.459646
1210.459557
1210.459655
1210.459588
1210.459903
1210.459593
1210.4597
1210.459613
1210.459641
1210.459663
1210.459551
1210.459654
1210.45958
1210.459906
1210.459606
1210.459681
1210.459632
1210.459632
1210.459653
1210.459563
1210.459655
1210.459601
1210.459907
1210.459614
1210.459668
1210.459634
1210.459636
1210.459644
1210.459545
1210.459657
1210.4596
1210.459903
1210.459627
1210.459681
1210.459635
1210.459644
1210.459647
1210.459563
1210.459649
1210.459601
1210.459897
1210.459646
1210.459684
1210.45965
1210.459634
1210.459672
1210.459574
1210.459655
1210.459603
1210.459916
1210.459652
1210.459687
1210.459654
1210.459652
1210.459665
1210.459592
1210.459667
1210.459636
1210.459922
1210.459671
1210.459722
1210.459703
1210.459699
1210.459675
1210.459608
1210.459665
1210.459655
1210.459937
1210.459729
1210.459847
1210.459867
1210.459806
1210.459764
1210.459631
1210.4597
1210.459712
1210.460023
1210.459908
1210.460103
1210.460217
1210.460094
1210.459901
1210.459698
1210.459733
1210.459785
1210.460183
1210.460214
1210.460623
1210.46089
1210.460633
1210.460218
1210.45985
)
;
    }
    bottom
    {
        type            calculated;
        value           nonuniform List<scalar> 
127
(
1210.459731
1210.459793
1210.459832
1210.459501
1210.459772
1210.460538
1210.459595
1210.459757
1210.459347
1210.459744
1210.459807
1210.459837
1210.459494
1210.459769
1210.460545
1210.459596
1210.459757
1210.459358
1210.459731
1210.459815
1210.459847
1210.459495
1210.459792
1210.460557
1210.459605
1210.459749
1210.459336
1210.459725
1210.459823
1210.459837
1210.459499
1210.459804
1210.460534
1210.459607
1210.459776
1210.459318
1210.459725
1210.459826
1210.459848
1210.459495
1210.459811
1210.460526
1210.459608
1210.459796
1210.459316
1210.459749
1210.459817
1210.459832
1210.459493
1210.459808
1210.460543
1210.459611
1210.459796
1210.45931
1210.459752
1210.459831
1210.459848
1210.459498
1210.459819
1210.460524
1210.459601
1210.459789
1210.459305
1210.459759
1210.459821
1210.459829
1210.459492
1210.459808
1210.460536
1210.459604
1210.45977
1210.459309
1210.459765
1210.459809
1210.459833
1210.459516
1210.459786
1210.460515
1210.459575
1210.459789
1210.459294
1210.459772
1210.459803
1210.459832
1210.459542
1210.459794
1210.460514
1210.459572
1210.459791
1210.459309
1210.459759
1210.459837
1210.45982
1210.459563
1210.45983
1210.460525
1210.459594
1210.459799
1210.459292
1210.459785
1210.459849
1210.459866
1210.459584
1210.459878
1210.460553
1210.459629
1210.459798
1210.45931
1210.4598
1210.459869
1210.459929
1210.459704
1210.460003
1210.460664
1210.459671
1210.459825
1210.459337
1210.459858
1210.459945
1210.460088
1210.459969
1210.460356
1210.460914
1210.45982
1210.459909
1210.459378
1210.459961
)
;
    }
    side-walls
    {
        type            calculated;
        value           nonuniform List<scalar> 
261
(
1210.459731
1210.460557
1210.459806
1210.459661
1210.459475
1210.459776
1210.460081
1210.459293
1210.459619
1210.459744
1210.460563
1210.45983
1210.45965
1210.459492
1210.459786
1210.460088
1210.459307
1210.459616
1210.459731
1210.460531
1210.459838
1210.459651
1210.459488
1210.459778
1210.460079
1210.459317
1210.459612
1210.459725
1210.46052
1210.459825
1210.459625
1210.459511
1210.459772
1210.46006
1210.459341
1210.459605
1210.459725
1210.46054
1210.459844
1210.459624
1210.45952
1210.459794
1210.460061
1210.459345
1210.459592
1210.459749
1210.460541
1210.459828
1210.459643
1210.459505
1210.459798
1210.460061
1210.459323
1210.459588
1210.459752
1210.460547
1210.459842
1210.459636
1210.45951
1210.459783
1210.460075
1210.459336
1210.45958
1210.459759
1210.46054
1210.459849
1210.459619
1210.45952
1210.459789
1210.460084
1210.459322
1210.459601
1210.459765
1210.46055
1210.459863
1210.459651
1210.459524
1210.459814
1210.46009
1210.459334
1210.4596
1210.459772
1210.460513
1210.459857
1210.459645
1210.459517
1210.459805
1210.4601
1210.459331
1210.459601
1210.459759
1210.460524
1210.459858
1210.459656
1210.459525
1210.459815
1210.460124
1210.459349
1210.459603
1210.459785
1210.460515
1210.459893
1210.459682
1210.459569
1210.45984
1210.460145
1210.459354
1210.459636
1210.4598
1210.460569
1210.459947
1210.459786
1210.459724
1210.459951
1210.460204
1210.45939
1210.459655
1210.459858
1210.460644
1210.460102
1210.460056
1210.460057
1210.460213
1210.460336
1210.459445
1210.459712
1210.459961
1210.460806
1210.460399
1210.46056
1210.460752
1210.460741
1210.460644
1210.459617
1210.459785
1210.459347
1210.460001
1210.460036
1210.459592
1210.459324
1210.459481
1210.459631
1210.460053
1210.459666
1210.459358
1210.460006
1210.460021
1210.459633
1210.459315
1210.45948
1210.45962
1210.460042
1210.459658
1210.459336
1210.46003
1210.460032
1210.459643
1210.459299
1210.459473
1210.459634
1210.460039
1210.459647
1210.459318
1210.460014
1210.460058
1210.459631
1210.459324
1210.459487
1210.459624
1210.460055
1210.459638
1210.459316
1210.460037
1210.460037
1210.459644
1210.459325
1210.459472
1210.459632
1210.460054
1210.459655
1210.45931
1210.460042
1210.460049
1210.45965
1210.459302
1210.459464
1210.459651
1210.460062
1210.459654
1210.459305
1210.460045
1210.460052
1210.459651
1210.459297
1210.45946
1210.459644
1210.460057
1210.459655
1210.459309
1210.460037
1210.460052
1210.459648
1210.459295
1210.459428
1210.459675
1210.460062
1210.459657
1210.459294
1210.460041
1210.460065
1210.459652
1210.459272
1210.459431
1210.45969
1210.460049
1210.459649
1210.459309
1210.460042
1210.460077
1210.45967
1210.459274
1210.459435
1210.459718
1210.460059
1210.459655
1210.459292
1210.460035
1210.460082
1210.459699
1210.459281
1210.459453
1210.459724
1210.460076
1210.459667
1210.45931
1210.460042
1210.460119
1210.459729
1210.459319
1210.459494
1210.459758
1210.460108
1210.459665
1210.459337
1210.46009
1210.460186
1210.45984
1210.459477
1210.459601
1210.459834
1210.460136
1210.4597
1210.459378
1210.460198
1210.460335
1210.460102
1210.459816
1210.459886
1210.459993
1210.46023
1210.459733
)
;
    }
    inlet
    {
        type            calculated;
        value           nonuniform List<scalar> 
81
(
1210.459731
1210.460557
1210.459806
1210.459661
1210.459475
1210.459776
1210.460081
1210.459293
1210.459619
1210.459793
1210.45897
1210.459476
1210.459375
1210.460829
1210.459912
1210.459523
1210.460121
1210.459867
1210.459832
1210.460644
1210.4597
1210.460499
1210.460277
1210.459668
1210.46035
1210.459222
1210.459596
1210.459501
1210.459501
1210.459645
1210.46064
1210.459127
1210.459554
1210.459477
1210.460405
1210.459682
1210.459772
1210.460047
1210.460001
1210.45977
1210.459617
1210.459539
1210.460139
1210.459458
1210.459632
1210.460538
1210.459864
1210.460162
1210.459161
1210.460396
1210.459187
1210.459749
1210.460209
1210.459653
1210.459595
1210.459456
1210.460249
1210.459884
1210.45978
1210.459928
1210.459821
1210.460023
1210.459633
1210.459757
1210.459717
1210.45971
1210.459971
1210.45939
1210.459849
1210.45852
1210.458616
1210.459552
1210.459347
1210.460001
1210.460036
1210.459592
1210.459324
1210.459481
1210.459631
1210.460053
1210.459666
)
;
    }
    outlet
    {
        type            calculated;
        value           nonuniform 0();
    }
    procBoundary0to1
    {
        type            processor;
        value           nonuniform List<scalar> 
97
(
1210.460106
1210.460097
1210.461063
1210.460887
1210.461364
1210.461809
1210.461546
1210.461147
1210.459883
1210.459937
1210.460097
1210.460097
1210.460034
1210.461897
1210.461856
1210.463938
1210.467591
1210.464398
1210.461895
1210.461054
1210.460442
1210.460373
1210.461897
1210.461897
1210.465867
1210.468398
1210.475018
1210.485794
1210.474224
1210.466518
1210.461538
1210.460689
1210.460511
1210.462174
1210.468398
1210.468398
1210.503925
1210.548695
1210.558227
1210.502694
1210.473962
1210.464921
1210.461444
1210.461052
1210.464032
1210.477174
1210.548695
1210.548695
1209.871717
1210.549295
1210.558589
1210.489215
1210.485641
1210.466264
1210.461902
1210.461451
1210.462479
1210.468975
1210.489266
1210.549295
1210.489215
1210.489215
1210.474392
1210.463305
1210.46471
1210.461448
1210.460094
1210.460774
1210.463761
1210.468669
1210.476991
1210.468764
1210.463305
1210.463305
1210.462401
1210.459098
1210.460677
1210.460084
1210.460348
1210.460888
1210.462524
1210.463345
1210.462475
1210.459744
1210.459098
1210.459098
1210.460111
1210.459814
1210.459481
1210.46034
1210.46064
1210.460642
1210.460478
1210.460385
1210.460315
1210.460372
1210.459814
)
;
    }
}


// ************************************************************************* //
