/*--------------------------------*- C++ -*----------------------------------*\
| =========                 |                                                 |
| \\      /  F ield         | OpenFOAM: The Open Source CFD Toolbox           |
|  \\    /   O peration     | Version:  4.x                                   |
|   \\  /    A nd           | Web:      www.OpenFOAM.org                      |
|    \\/     M anipulation  |                                                 |
\*---------------------------------------------------------------------------*/
FoamFile
{
    version     2.0;
    format      ascii;
    class       volScalarField;
    location    "5000";
    object      molarConc;
}
// * * * * * * * * * * * * * * * * * * * * * * * * * * * * * * * * * * * * * //

dimensions      [0 -3 0 0 1 0 0];

internalField   nonuniform List<scalar> 
1175
(
9.963279668
9.963278951
9.963279673
9.963279961
9.963279956
9.963278683
9.963278487
9.96327813
9.963277828
9.963277497
9.963278365
9.963277393
9.963277701
9.963276939
9.963276127
9.963234259
9.963233955
9.963235695
9.963236311
9.963235229
9.963235162
9.963234822
9.963235211
9.963234709
9.963236835
9.963236483
9.963237752
9.963236668
9.963236783
9.96323631
9.963275522
9.963274217
9.963273754
9.963274489
9.963273436
9.963274332
9.963273553
9.963273202
9.963272456
9.963272965
9.963273371
9.963272782
9.963273425
9.963273209
9.963273339
9.963283518
9.963284079
9.963284063
9.96328546
9.963285508
9.963284462
9.963284881
9.963285823
9.963284158
9.963284699
9.963284789
9.963285568
9.963285845
9.963285521
9.963286595
9.963293715
9.963292776
9.963292993
9.963291734
9.963291223
9.963292068
9.96329181
9.963291245
9.963291127
9.963291743
9.963292205
9.963292469
9.963291657
9.963292395
9.9632926
9.963277196
9.963276602
9.963277071
9.963277396
9.963276186
9.963275978
9.963276787
9.963276501
9.963275191
9.963275898
9.963276088
9.963276897
9.963276793
9.963276873
9.963276642
9.96326042
9.96326006
9.963260527
9.963261572
9.963261548
9.963261521
9.963260772
9.963260264
9.963260019
9.96325961
9.963258755
9.963258946
9.963259273
9.963260371
9.963259897
9.963303682
9.963302949
9.963302379
9.963301088
9.963300828
9.963302072
9.963301343
9.963302151
9.963301479
9.96330176
9.963301043
9.963301506
9.963301422
9.963302659
9.96330161
9.963285798
9.963285968
9.963286176
9.963286594
9.963287282
9.963287514
9.963287931
9.963286776
9.963286851
9.963286884
9.963286942
9.963285594
9.963285643
9.963285008
9.96328583
9.963276223
9.963275495
9.963275013
9.963274577
9.963274451
9.963274951
9.96327417
9.963274741
9.963275401
9.96327581
9.963274246
9.963274329
9.963275133
9.963275178
9.963321448
9.963321275
9.9633207
9.963321386
9.963322236
9.963322045
9.963323104
9.963323682
9.963323404
9.963323128
9.963322941
9.963323034
9.963322767
9.963320539
9.963320611
9.963293655
9.963293727
9.963293546
9.963294719
9.963293789
9.963295118
9.96329447
9.963293273
9.96329156
9.963291431
9.963290117
9.963291404
9.963291568
9.963290947
9.963291051
9.963299187
9.963299462
9.963301227
9.963300797
9.963300657
9.963300572
9.963301014
9.963301498
9.963302065
9.963302376
9.963303283
9.963304041
9.963301422
9.963300731
9.96330101
9.963219337
9.963219715
9.96322039
9.963220452
9.963221789
9.963221197
9.963220448
9.963220368
9.963219841
9.963219269
9.963217314
9.963216791
9.963217218
9.96321723
9.963217297
9.963269707
9.963271978
9.963271656
9.963272201
9.96327208
9.963273978
9.963274893
9.963275133
9.963273723
9.963274281
9.963273239
9.963272934
9.963273483
9.963274285
9.963275113
9.963291063
9.963290903
9.963288592
9.963287829
9.963288846
9.96328859
9.96328981
9.963289288
9.963289075
9.963288575
9.963289593
9.96328872
9.963289513
9.96328891
9.96328803
9.96325823
9.963259166
9.96325853
9.96326012
9.963259777
9.963260327
9.963262394
9.963262278
9.963263478
9.963263202
9.963264317
9.963264704
9.963264984
9.963263501
9.963264226
9.963272165
9.963273272
9.963271419
9.963271357
9.963270474
9.963270177
9.963270055
9.963270003
9.963270224
9.96327065
9.963269865
9.963270314
9.963271345
9.963270906
9.963270494
9.963274128
9.963273815
9.963273296
9.963273805
9.963273242
9.96327412
9.963273248
9.963274269
9.963274136
9.963274343
9.963275431
9.963274272
9.963274403
9.963273986
9.963229527
9.963230274
9.963230636
9.963230448
9.963229756
9.963228722
9.963229045
9.963229443
9.963229584
9.963230005
9.963228343
9.963228438
9.963230254
9.963230795
9.963281325
9.963281048
9.963279563
9.963280836
9.963278843
9.963278959
9.963277677
9.963276714
9.963277191
9.963277634
9.963277684
9.963278455
9.963277969
9.963277763
9.963277726
9.963237474
9.963238284
9.963237495
9.963236738
9.963238453
9.963237403
9.96323782
9.963237847
9.96323749
9.963235901
9.963235694
9.963236195
9.963235863
9.963235575
9.963235879
9.963249673
9.963248964
9.963249376
9.963250173
9.963249741
9.96324925
9.963249727
9.963250336
9.963250461
9.963248048
9.963248671
9.963249436
9.963247741
9.963246898
9.963245943
9.963283134
9.96328294
9.963280879
9.963281874
9.963281916
9.963281899
9.963281691
9.963281098
9.963280303
9.963281241
9.963280536
9.963279871
9.963279934
9.963279483
9.963279148
9.963245625
9.963245505
9.96324591
9.96324726
9.96324606
9.963245193
9.963245926
9.963247038
9.963246645
9.963244859
9.963245481
9.963244069
9.963241844
9.963240091
9.963241579
9.963307626
9.96330882
9.963308224
9.96330953
9.963310982
9.96331094
9.963311144
9.963310171
9.963310272
9.963310882
9.963309577
9.963310063
9.963309706
9.963310496
9.963309563
9.963287087
9.963286175
9.963286579
9.963286278
9.963285881
9.963287224
9.963286517
9.963286089
9.96328544
9.963284507
9.963284697
9.963284962
9.963285358
9.963283876
9.963283531
9.963292281
9.96329265
9.963292627
9.963292395
9.963292606
9.963292704
9.963292433
9.963292782
9.963291527
9.96329034
9.963289936
9.963290969
9.96329036
9.963290294
9.963292268
9.963292494
9.963291412
9.963290216
9.963289345
9.963290653
9.963290436
9.963290326
9.963290727
9.963289411
9.963289448
9.963289344
9.96328877
9.963287439
9.963284351
9.9632843
9.963283917
9.963284589
9.963285622
9.963285374
9.963284225
9.963284459
9.963285802
9.963285783
9.963286401
9.963285661
9.963284951
9.96328459
9.963229736
9.96322938
9.963230404
9.963231377
9.963230895
9.963230135
9.963229235
9.963228589
9.963229211
9.963228622
9.96322959
9.96323015
9.963228828
9.963228234
9.963226525
9.963312799
9.963312746
9.963312485
9.963311211
9.963311726
9.963310659
9.963312536
9.963311039
9.963311377
9.963312452
9.963312755
9.963312029
9.963310282
9.963307608
9.963342872
9.963289345
9.963289535
9.963290051
9.963289027
9.963290264
9.963290749
9.963291827
9.963291792
9.963292589
9.963293108
9.963295031
9.963293671
9.96329447
9.963295141
9.963294432
9.963293619
9.963294009
9.963295334
9.963294646
9.963295402
9.96329593
9.963293973
9.963294301
9.963294093
9.963292329
9.963291785
9.963292086
9.963292629
9.96329246
9.963292198
9.963242644
9.963244161
9.963244084
9.96324398
9.963243933
9.963243014
9.963244022
9.963245357
9.963245025
9.963244912
9.963245265
9.963245201
9.963246963
9.963247647
9.963246653
9.963282352
9.963281899
9.963282
9.963282188
9.963282307
9.963281361
9.963282378
9.963283145
9.963282494
9.963282543
9.96328308
9.963283374
9.963282499
9.96328291
9.963283115
9.963277421
9.96327757
9.963276322
9.963275649
9.963275256
9.963275401
9.963274823
9.963275435
9.963276748
9.96327655
9.963275436
9.963275503
9.963276309
9.963275982
9.963262275
9.963262083
9.963262361
9.963261443
9.963261095
9.963261948
9.963261516
9.963262023
9.963261851
9.963261997
9.963262072
9.963261546
9.963261542
9.963261626
9.963264842
9.963265539
9.963266363
9.963267741
9.963267789
9.963266565
9.963266281
9.963267492
9.963267691
9.963267474
9.963268784
9.963267794
9.963268414
9.963267903
9.963277495
9.963278671
9.963278968
9.963278351
9.963279589
9.96327864
9.963279422
9.963279575
9.963279206
9.963279365
9.963278636
9.963278306
9.963278086
9.963277765
9.963285924
9.963286144
9.963286284
9.963285868
9.963283768
9.963283421
9.963285637
9.963284676
9.963285141
9.96328458
9.963285172
9.96328549
9.963285863
9.963281255
10.01443767
9.963290201
9.963289345
9.963289427
9.963290266
9.963290886
9.963291014
9.96328963
9.963287937
9.963286926
9.963286156
9.963285483
9.963286358
9.963286807
9.963286319
9.963322428
9.963257238
9.963258384
9.963257559
9.963258032
9.963257593
9.963256909
9.96325717
9.963257062
9.963256886
9.963257321
9.963256873
9.963256076
9.963255517
9.963255343
9.963256149
9.963294663
9.963292902
9.963294299
9.963293025
9.963292503
9.963291862
9.963292665
9.963293465
9.963293722
9.963292873
9.963293184
9.963293693
9.963292133
9.963292123
9.963290519
9.963285096
9.963285385
9.963285357
9.963285363
9.963286157
9.963286114
9.963285083
9.963284998
9.963285016
9.963284439
9.963285089
9.963285106
9.963283806
9.963283607
9.963285024
9.963235335
9.963234943
9.963234268
9.963235551
9.963235982
9.963235047
9.963236123
9.963235465
9.963236676
9.96323693
9.963237051
9.963237742
9.963237639
9.963238384
9.963272341
9.963272523
9.963272319
9.963273991
9.963275251
9.963274167
9.96327361
9.963274308
9.963273935
9.963273281
9.963272446
9.963271363
9.963269476
9.963270222
9.963255964
9.963254632
9.963255102
9.963254361
9.963253416
9.963253278
9.963253114
9.963252868
9.963253148
9.963254478
9.963253858
9.963254385
9.963254368
9.963254299
9.96331098
9.963310549
9.963310528
9.96330922
9.963309438
9.963309244
9.963310675
9.963310473
9.963310803
9.963310635
9.963310431
9.96331118
9.963309908
9.963307193
9.96324315
9.963243445
9.963243612
9.963244395
9.963243728
9.963245764
9.963246579
9.963245321
9.963245712
9.963245612
9.963245025
9.963245175
9.963245048
9.963244778
9.963309518
9.963308511
9.963308405
9.963308658
9.963307922
9.963308763
9.96330885
9.963309903
9.963309346
9.963308748
9.963309097
9.963308732
9.963309555
9.963309637
9.963278657
9.963277328
9.96327728
9.963277261
9.963276668
9.963276304
9.9632763
9.963274453
9.963273831
9.963274707
9.963274935
9.963273422
9.9632721
9.963271509
9.9632711
9.963253407
9.963254309
9.963254442
9.963254374
9.963255265
9.963255744
9.963255952
9.963256655
9.963256355
9.963256333
9.963255489
9.963255132
9.963256653
9.963257741
9.963259298
9.963283953
9.963284755
9.963284137
9.963285043
9.963284963
9.96328462
9.963285103
9.963284876
9.963284519
9.963285283
9.963285007
9.963284605
9.963284756
9.963283427
9.963282548
9.963287095
9.963287038
9.963286553
9.963286472
9.963286432
9.963286255
9.963286818
9.96328665
9.963288261
9.963288581
9.963287884
9.963287301
9.963288593
9.963288691
9.963294728
9.963293973
9.963293078
9.9632928
9.963291877
9.963289951
9.963290134
9.963290977
9.963291124
9.963291935
9.963292436
9.963292838
9.963292612
9.963292144
9.963251172
9.963249752
9.963249849
9.963248487
9.963248205
9.963248896
9.963250131
9.963249101
9.963249939
9.963250526
9.963250776
9.963251007
9.963251238
9.963251267
9.963271257
9.963270489
9.963271069
9.963271787
9.963272823
9.963272271
9.96327337
9.963272301
9.963271934
9.963270461
9.963271754
9.963271901
9.963270904
9.963270862
9.963276964
9.963276551
9.963276215
9.963277727
9.963278179
9.963278387
9.963277237
9.963277947
9.963278571
9.963278826
9.963277582
9.96327918
9.963279079
9.963279118
9.963268852
9.963269079
9.963268199
9.96326813
9.963268393
9.96326887
9.963269152
9.963269014
9.96326885
9.963269251
9.963268501
9.963268309
9.963267445
9.963266978
9.963274719
9.963275398
9.963275727
9.963274976
9.963272742
9.963272043
9.963273434
9.963274308
9.963275099
9.96327605
9.963274598
9.963273918
9.96327422
9.963273569
9.963263611
9.963262502
9.963262153
9.963262105
9.963262868
9.963260866
9.963260453
9.963259816
9.96325928
9.963260056
9.963259181
9.963259375
9.963259948
9.963260293
9.963260362
9.963285057
9.963283697
9.963283994
9.963283903
9.963284302
9.963283408
9.963283932
9.963284425
9.963284321
9.963283123
9.963283937
9.963284789
9.963283485
9.963284253
9.963283308
9.963278213
9.963278203
9.963278636
9.963277175
9.963276086
9.963276096
9.963276491
9.96327752
9.963276507
9.96327648
9.963276293
9.96327714
9.963277514
9.963277163
9.963280407
9.963280937
9.963281234
9.963281288
9.963280517
9.963278461
9.963277867
9.963277955
9.96327804
9.963280025
9.963278227
9.963278138
9.963277997
9.963278216
9.963280793
9.963282335
9.963282156
9.963282624
9.963284275
9.963284276
9.963284137
9.963283463
9.96328373
9.963283251
9.963283204
9.963284248
9.963284308
9.963285469
9.963266492
9.963267781
9.963268208
9.963269665
9.963268924
9.963268198
9.963267587
9.963268611
9.963269106
9.963268016
9.963268347
9.963268485
9.963269063
9.963268523
9.963298356
9.963299587
9.963300891
9.963301113
9.963302484
9.963301674
9.963302274
9.963301558
9.963300808
9.963300934
9.963302687
9.963301947
9.963301621
9.963300884
9.963273196
9.96327273
9.9632727
9.963273866
9.963274244
9.963275396
9.963276089
9.963276012
9.963275803
9.963274885
9.963274384
9.963272741
9.963271977
9.963272517
9.963346163
9.963346253
9.963346445
9.963345357
9.96334616
9.963345168
9.963344699
9.963344525
9.963345156
9.963345863
9.963346541
9.963344917
9.96334554
9.963347034
9.963340883
9.96334141
9.963341625
9.963343396
9.963343182
9.963343051
9.963344707
9.963344078
9.963344439
9.963344154
9.963345546
9.963345674
9.963346036
9.963345026
9.9632895
9.963289757
9.963287921
9.963289203
9.963289208
9.963289547
9.963288864
9.963289903
9.963288927
9.963288384
9.963287701
9.96328758
9.96328818
9.963288753
9.963288823
9.963300723
9.96330011
9.963301325
9.96330232
9.963302442
9.963302769
9.963303065
9.963302828
9.963303686
9.963302919
9.963304
9.963303503
9.963303101
9.963303331
9.963264813
9.963264533
9.963263206
9.96326409
9.963262861
9.96326256
9.963262419
9.963262879
9.96326268
9.9632627
9.963263378
9.963263706
9.963262956
9.9632613
9.963262879
9.963263715
9.963263111
9.963261665
9.963262857
9.96326218
9.963262001
9.963262025
9.963261362
9.963260859
9.963261031
9.963260371
9.963260261
9.963260416
9.963287259
9.963285052
9.963284478
9.963285163
9.963284427
9.963284094
9.963284052
9.963284207
9.96328407
9.963283324
9.963282456
9.963282992
9.963282879
9.963282993
9.963302024
9.963302505
9.963303376
9.963302004
9.963301928
9.963303226
9.963303493
9.963303629
9.963304956
9.963305131
9.963305574
9.963306222
9.963305227
9.963305675
9.963293371
9.963293438
9.963293837
9.963293051
9.963293881
9.963294293
9.963294563
9.963296309
9.963296193
9.963296219
9.963295939
9.963295898
9.963296022
9.963294838
9.963285165
9.963285744
9.963284968
9.963285532
9.963285061
9.963284046
9.963284447
9.963282723
9.963281973
9.96328059
9.963280724
9.96328022
9.963279599
9.963279234
9.963261955
9.963262577
9.963262718
9.96326187
9.963261896
9.963261456
9.963261731
9.963261459
9.96326222
9.96326176
9.963261098
9.963260091
9.963260436
9.963259532
9.963283221
9.963283636
9.96328425
9.963284734
9.963283843
9.963283889
9.963283823
9.963283727
9.963284185
9.963283914
9.963283447
9.963283982
9.963283164
9.963283808
)
;

boundaryField
{
    top
    {
        type            calculated;
        value           nonuniform List<scalar> 
134
(
9.963285798
9.963272165
9.963287087
9.963282352
9.963285096
9.963283953
9.963285057
9.9632895
9.963283221
9.963285968
9.963273272
9.963286175
9.963281899
9.963285385
9.963284755
9.963283697
9.963289757
9.963283636
9.963286176
9.963271419
9.963286579
9.963282
9.963285357
9.963284137
9.963283994
9.963287921
9.96328425
9.963286594
9.963271357
9.963286278
9.963282188
9.963285363
9.963285043
9.963283903
9.963289203
9.963284734
9.963287282
9.963270474
9.963285881
9.963282307
9.963286157
9.963284963
9.963284302
9.963289208
9.963283843
9.963287514
9.963270177
9.963287224
9.963281361
9.963286114
9.96328462
9.963283408
9.963289547
9.963283889
9.963287931
9.963270055
9.963286517
9.963282378
9.963285083
9.963285103
9.963283932
9.963288864
9.963283823
9.963286776
9.963270003
9.963286089
9.963283145
9.963284998
9.963284876
9.963284425
9.963289903
9.963283727
9.963286851
9.963270224
9.96328544
9.963282494
9.963285016
9.963284519
9.963284321
9.963288927
9.963284185
9.963286884
9.96327065
9.963284507
9.963282543
9.963284439
9.963285283
9.963283123
9.963288384
9.963283914
9.963286942
9.963269865
9.963284697
9.96328308
9.963285089
9.963285007
9.963283937
9.963287701
9.963283447
9.963285594
9.963270314
9.963284962
9.963283374
9.963285106
9.963284605
9.963284789
9.96328758
9.963283982
9.963285643
9.963271345
9.963285358
9.963282499
9.963283806
9.963284756
9.963283485
9.96328818
9.963283164
9.963285008
9.963270906
9.963283876
9.96328291
9.963283607
9.963283427
9.963284253
9.963288753
9.963283808
9.96328583
9.963270494
9.963283531
9.963283115
9.963285024
9.963282548
9.963283308
9.963288823
)
;
    }
    bottom
    {
        type            calculated;
        value           nonuniform List<scalar> 
127
(
9.963279668
9.963276223
9.963274128
9.963292281
9.963277421
9.963235335
9.963287095
9.963278213
9.963300723
9.963278951
9.963275495
9.963273815
9.96329265
9.96327757
9.963234943
9.963287038
9.963278203
9.96330011
9.963279673
9.963275013
9.963273296
9.963292627
9.963276322
9.963234268
9.963286553
9.963278636
9.963301325
9.963279961
9.963274577
9.963273805
9.963292395
9.963275649
9.963235551
9.963286472
9.963277175
9.96330232
9.963279956
9.963274451
9.963273242
9.963292606
9.963275256
9.963235982
9.963286432
9.963276086
9.963302442
9.963278683
9.963274951
9.96327412
9.963292704
9.963275401
9.963235047
9.963286255
9.963276096
9.963302769
9.963278487
9.96327417
9.963273248
9.963292433
9.963274823
9.963236123
9.963286818
9.963276491
9.963303065
9.96327813
9.963274741
9.963274269
9.963292782
9.963275435
9.963235465
9.96328665
9.96327752
9.963302828
9.963277828
9.963275401
9.963274136
9.963291527
9.963276748
9.963236676
9.963288261
9.963276507
9.963303686
9.963277497
9.96327581
9.963274343
9.96329034
9.96327655
9.96323693
9.963288581
9.96327648
9.963302919
9.963278365
9.963274246
9.963275431
9.963289936
9.963275436
9.963237051
9.963287884
9.963276293
9.963304
9.963277393
9.963274329
9.963274272
9.963290969
9.963275503
9.963237742
9.963287301
9.96327714
9.963303503
9.963277701
9.963275133
9.963274403
9.96329036
9.963276309
9.963237639
9.963288593
9.963277514
9.963303101
9.963276939
9.963275178
9.963273986
9.963290294
9.963275982
9.963238384
9.963288691
9.963277163
9.963303331
9.963276127
)
;
    }
    side-walls
    {
        type            calculated;
        value           nonuniform List<scalar> 
261
(
9.963279668
9.963234259
9.963275522
9.963283518
9.963293715
9.963277196
9.96326042
9.963303682
9.963285798
9.963278951
9.963233955
9.963274217
9.963284079
9.963292776
9.963276602
9.96326006
9.963302949
9.963285968
9.963279673
9.963235695
9.963273754
9.963284063
9.963292993
9.963277071
9.963260527
9.963302379
9.963286176
9.963279961
9.963236311
9.963274489
9.96328546
9.963291734
9.963277396
9.963261572
9.963301088
9.963286594
9.963279956
9.963235229
9.963273436
9.963285508
9.963291223
9.963276186
9.963261548
9.963300828
9.963287282
9.963278683
9.963235162
9.963274332
9.963284462
9.963292068
9.963275978
9.963261521
9.963302072
9.963287514
9.963278487
9.963234822
9.963273553
9.963284881
9.96329181
9.963276787
9.963260772
9.963301343
9.963287931
9.96327813
9.963235211
9.963273202
9.963285823
9.963291245
9.963276501
9.963260264
9.963302151
9.963286776
9.963277828
9.963234709
9.963272456
9.963284158
9.963291127
9.963275191
9.963260019
9.963301479
9.963286851
9.963277497
9.963236835
9.963272965
9.963284699
9.963291743
9.963275898
9.96325961
9.96330176
9.963286884
9.963278365
9.963236483
9.963273371
9.963284789
9.963292205
9.963276088
9.963258755
9.963301043
9.963286942
9.963277393
9.963237752
9.963272782
9.963285568
9.963292469
9.963276897
9.963258946
9.963301506
9.963285594
9.963277701
9.963236668
9.963273425
9.963285845
9.963291657
9.963276793
9.963259273
9.963301422
9.963285643
9.963276939
9.963236783
9.963273209
9.963285521
9.963292395
9.963276873
9.963260371
9.963302659
9.963285008
9.963276127
9.96323631
9.963273339
9.963286595
9.9632926
9.963276642
9.963259897
9.96330161
9.96328583
9.963300723
9.963264813
9.963262879
9.963287259
9.963302024
9.963293371
9.963285165
9.963261955
9.963283221
9.96330011
9.963264533
9.963263715
9.963285052
9.963302505
9.963293438
9.963285744
9.963262577
9.963283636
9.963301325
9.963263206
9.963263111
9.963284478
9.963303376
9.963293837
9.963284968
9.963262718
9.96328425
9.96330232
9.96326409
9.963261665
9.963285163
9.963302004
9.963293051
9.963285532
9.96326187
9.963284734
9.963302442
9.963262861
9.963262857
9.963284427
9.963301928
9.963293881
9.963285061
9.963261896
9.963283843
9.963302769
9.96326256
9.96326218
9.963284094
9.963303226
9.963294293
9.963284046
9.963261456
9.963283889
9.963303065
9.963262419
9.963262001
9.963284052
9.963303493
9.963294563
9.963284447
9.963261731
9.963283823
9.963302828
9.963262879
9.963262025
9.963284207
9.963303629
9.963296309
9.963282723
9.963261459
9.963283727
9.963303686
9.96326268
9.963261362
9.96328407
9.963304956
9.963296193
9.963281973
9.96326222
9.963284185
9.963302919
9.9632627
9.963260859
9.963283324
9.963305131
9.963296219
9.96328059
9.96326176
9.963283914
9.963304
9.963263378
9.963261031
9.963282456
9.963305574
9.963295939
9.963280724
9.963261098
9.963283447
9.963303503
9.963263706
9.963260371
9.963282992
9.963306222
9.963295898
9.96328022
9.963260091
9.963283982
9.963303101
9.963262956
9.963260261
9.963282879
9.963305227
9.963296022
9.963279599
9.963260436
9.963283164
9.963303331
9.9632613
9.963260416
9.963282993
9.963305675
9.963294838
9.963279234
9.963259532
9.963283808
)
;
    }
    inlet
    {
        type            calculated;
        value           nonuniform List<scalar> 
81
(
9.963279668
9.963234259
9.963275522
9.963283518
9.963293715
9.963277196
9.96326042
9.963303682
9.963285798
9.963276223
9.963321448
9.963293655
9.963299187
9.963219337
9.963269707
9.963291063
9.96325823
9.963272165
9.963274128
9.963229527
9.963281325
9.963237474
9.963249673
9.963283134
9.963245625
9.963307626
9.963287087
9.963292281
9.963292268
9.963284351
9.963229736
9.963312799
9.963289345
9.963293619
9.963242644
9.963282352
9.963277421
9.963262275
9.963264842
9.963277495
9.963285924
9.963290201
9.963257238
9.963294663
9.963285096
9.963235335
9.963272341
9.963255964
9.96331098
9.96324315
9.963309518
9.963278657
9.963253407
9.963283953
9.963287095
9.963294728
9.963251172
9.963271257
9.963276964
9.963268852
9.963274719
9.963263611
9.963285057
9.963278213
9.963280407
9.963280793
9.963266492
9.963298356
9.963273196
9.963346163
9.963340883
9.9632895
9.963300723
9.963264813
9.963262879
9.963287259
9.963302024
9.963293371
9.963285165
9.963261955
9.963283221
)
;
    }
    outlet
    {
        type            calculated;
        value           nonuniform 0();
    }
    procBoundary0to1
    {
        type            processor;
        value           nonuniform List<scalar> 
97
(
9.963276614
9.963275225
9.963236401
9.963273274
9.963287042
9.96329109
9.963277016
9.963259006
9.963301188
9.963285925
9.963275225
9.963275225
9.963320704
9.963230343
9.963290603
9.963300721
9.963217561
9.963275452
9.963288502
9.963264703
9.963270471
9.963274772
9.963230343
9.963230343
9.963277145
9.963285767
9.963234834
9.963246112
9.963278423
9.963241399
9.963308102
9.963284165
9.963289291
9.963287667
9.963285767
9.963285767
9.96322572
9.963313709
9.963342413
9.963293227
9.963292825
9.96324672
9.963282607
9.963276157
9.963261346
9.963266805
9.963313709
9.963313709
10.01444324
9.963280758
9.963322573
9.963309243
9.963254512
9.963290427
9.963286006
9.963237639
9.963270899
9.963254045
9.963306404
9.963280758
9.963309243
9.963309243
9.963269204
9.9632733
9.963258301
9.963282391
9.963290077
9.963292027
9.963248251
9.963270868
9.963276901
9.963265624
9.9632733
9.9632733
9.963260674
9.963345175
9.963284847
9.963275978
9.963276532
9.963285775
9.963268418
9.963299093
9.96327111
9.963348591
9.963345175
9.963345175
9.963288695
9.963284231
9.963302502
9.96326188
9.963260126
9.963282073
9.963307642
9.963296195
9.963277933
9.96326012
9.963284231
)
;
    }
}


// ************************************************************************* //
