/*--------------------------------*- C++ -*----------------------------------*\
| =========                 |                                                 |
| \\      /  F ield         | OpenFOAM: The Open Source CFD Toolbox           |
|  \\    /   O peration     | Version:  4.x                                   |
|   \\  /    A nd           | Web:      www.OpenFOAM.org                      |
|    \\/     M anipulation  |                                                 |
\*---------------------------------------------------------------------------*/
FoamFile
{
    version     2.0;
    format      ascii;
    class       volScalarField;
    location    "5000";
    object      N2;
}
// * * * * * * * * * * * * * * * * * * * * * * * * * * * * * * * * * * * * * //

dimensions      [0 0 0 0 0 0 0];

internalField   nonuniform List<scalar> 
1175
(
0.5999999994
0.5999999994
0.5999999994
0.5999999994
0.5999999994
0.5999999994
0.5999999993
0.5999999989
0.5999999976
0.5999999938
0.599999983
0.5999999544
0.5999998843
0.5999997295
0.5999994246
0.5999999994
0.5999999994
0.5999999994
0.5999999994
0.5999999994
0.5999999994
0.5999999992
0.5999999986
0.5999999968
0.5999999911
0.5999999741
0.5999999271
0.5999998084
0.5999995402
0.599999012
0.5999999994
0.5999999994
0.5999999994
0.5999999994
0.5999999994
0.5999999993
0.5999999991
0.5999999983
0.5999999954
0.5999999859
0.5999999564
0.5999998709
0.5999996457
0.5999991221
0.5999980881
0.5999999994
0.5999999994
0.5999999994
0.5999999994
0.5999999994
0.5999999993
0.599999999
0.5999999978
0.5999999937
0.5999999797
0.5999999343
0.5999997969
0.5999994188
0.5999985092
0.5999967001
0.5999999994
0.5999999994
0.5999999994
0.5999999994
0.5999999994
0.5999999993
0.5999999989
0.5999999976
0.5999999929
0.5999999765
0.599999922
0.5999997522
0.5999992696
0.5999980715
0.5999956582
0.5999999994
0.5999999994
0.5999999994
0.5999999994
0.5999999994
0.5999999993
0.599999999
0.5999999978
0.5999999937
0.5999999797
0.5999999343
0.5999997969
0.5999994189
0.5999985093
0.5999967002
0.5999999994
0.5999999994
0.5999999994
0.5999999994
0.5999999994
0.5999999993
0.5999999991
0.5999999983
0.5999999954
0.5999999859
0.5999999564
0.5999998709
0.5999996457
0.5999991222
0.5999980883
0.5999999994
0.5999999994
0.5999999994
0.5999999994
0.5999999994
0.5999999994
0.5999999992
0.5999999986
0.5999999968
0.5999999911
0.5999999741
0.5999999271
0.5999998084
0.5999995403
0.5999990122
0.5999999994
0.5999999994
0.5999999994
0.5999999994
0.5999999994
0.5999999994
0.5999999993
0.5999999989
0.5999999976
0.5999999938
0.599999983
0.5999999544
0.5999998843
0.5999997296
0.5999994248
0.5999999994
0.5999999994
0.5999999994
0.5999999994
0.5999999994
0.5999999994
0.5999999992
0.5999999986
0.5999999968
0.5999999911
0.5999999741
0.5999999271
0.5999998084
0.5999995401
0.5999999994
0.5999999994
0.5999999994
0.5999999994
0.5999999994
0.5999999993
0.5999999991
0.5999999983
0.5999999955
0.5999999861
0.5999999569
0.5999998715
0.5999996445
0.5999991132
0.5999980634
0.5999999994
0.5999999994
0.5999999994
0.5999999994
0.5999999994
0.5999999993
0.5999999989
0.5999999976
0.5999999928
0.5999999761
0.59999992
0.5999997453
0.5999992515
0.599998039
0.5999956178
0.5999999994
0.5999999994
0.5999999994
0.5999999994
0.5999999994
0.5999999993
0.5999999988
0.5999999969
0.5999999897
0.5999999631
0.5999998688
0.5999995554
0.5999986067
0.5999961294
0.5999910591
0.5999999994
0.5999999994
0.5999999994
0.5999999994
0.5999999994
0.5999999992
0.5999999987
0.5999999965
0.599999988
0.5999999555
0.5999998359
0.5999994183
0.5999980758
0.5999943273
0.5999862994
0.5999999994
0.5999999994
0.5999999994
0.5999999994
0.5999999994
0.5999999993
0.5999999988
0.5999999969
0.5999999897
0.5999999631
0.5999998688
0.5999995554
0.5999986068
0.5999961296
0.5999910597
0.5999999994
0.5999999994
0.5999999994
0.5999999994
0.5999999994
0.5999999993
0.5999999989
0.5999999976
0.5999999928
0.5999999761
0.59999992
0.5999997453
0.5999992515
0.5999980393
0.5999956185
0.5999999994
0.5999999994
0.5999999994
0.5999999994
0.5999999994
0.5999999993
0.5999999991
0.5999999983
0.5999999955
0.5999999861
0.5999999569
0.5999998715
0.5999996445
0.5999991135
0.599998064
0.5999999994
0.5999999994
0.5999999994
0.5999999994
0.5999999994
0.5999999994
0.5999999992
0.5999999986
0.5999999968
0.5999999911
0.5999999741
0.5999999271
0.5999998084
0.5999995403
0.5999990122
0.5999999994
0.5999999994
0.5999999994
0.5999999994
0.5999999994
0.5999999993
0.5999999991
0.5999999983
0.5999999954
0.5999999859
0.5999999564
0.5999998709
0.5999996456
0.5999991217
0.5999999994
0.5999999994
0.5999999994
0.5999999994
0.5999999994
0.5999999993
0.5999999989
0.5999999976
0.5999999928
0.5999999761
0.59999992
0.5999997453
0.5999992513
0.5999980384
0.5999999994
0.5999999994
0.5999999994
0.5999999994
0.5999999994
0.5999999992
0.5999999987
0.5999999964
0.5999999877
0.5999999546
0.599999835
0.5999994289
0.5999981774
0.599994864
0.5999880537
0.5999999994
0.5999999994
0.5999999994
0.5999999994
0.5999999994
0.5999999992
0.5999999983
0.5999999949
0.5999999809
0.5999999241
0.599999702
0.5999988766
0.5999960622
0.5999878028
0.5999696886
0.5999999994
0.5999999994
0.5999999994
0.5999999994
0.5999999994
0.5999999991
0.5999999982
0.5999999941
0.5999999769
0.599999904
0.5999996017
0.5999983882
0.5999938098
0.5999785541
0.5999405887
0.5999999994
0.5999999994
0.5999999994
0.5999999994
0.5999999994
0.5999999992
0.5999999983
0.5999999949
0.5999999809
0.5999999241
0.599999702
0.5999988766
0.5999960625
0.599987804
0.5999696923
0.5999999994
0.5999999994
0.5999999994
0.5999999994
0.5999999994
0.5999999992
0.5999999987
0.5999999964
0.5999999877
0.5999999546
0.599999835
0.599999429
0.5999981777
0.5999948652
0.5999880575
0.5999999994
0.5999999994
0.5999999994
0.5999999994
0.5999999994
0.5999999993
0.5999999989
0.5999999976
0.5999999928
0.5999999761
0.59999992
0.5999997453
0.5999992515
0.5999980393
0.5999956185
0.5999999994
0.5999999994
0.5999999994
0.5999999994
0.5999999994
0.5999999993
0.5999999991
0.5999999983
0.5999999954
0.5999999859
0.5999999564
0.5999998709
0.5999996457
0.5999991221
0.5999980883
0.5999999994
0.5999999994
0.5999999994
0.5999999994
0.5999999994
0.5999999993
0.599999999
0.5999999978
0.5999999937
0.5999999797
0.5999999343
0.5999997968
0.5999994186
0.5999985085
0.5999999994
0.5999999994
0.5999999994
0.5999999994
0.5999999994
0.5999999993
0.5999999988
0.5999999969
0.5999999897
0.5999999631
0.5999998688
0.5999995553
0.5999986063
0.5999961278
0.5999999994
0.5999999994
0.5999999994
0.5999999994
0.5999999994
0.5999999992
0.5999999983
0.5999999949
0.5999999809
0.5999999241
0.5999997019
0.5999988764
0.5999960614
0.599987799
0.5999999994
0.5999999994
0.5999999994
0.5999999994
0.5999999993
0.5999999991
0.5999999978
0.5999999924
0.5999999685
0.5999998631
0.5999994062
0.5999974854
0.5999899028
0.5999635889
0.5998963329
0.5999999994
0.5999999994
0.5999999994
0.5999999994
0.5999999993
0.599999999
0.5999999976
0.599999991
0.5999999604
0.5999998172
0.5999991402
0.5999959362
0.5999810325
0.5999161021
0.5996908093
0.5999999994
0.5999999994
0.5999999994
0.5999999994
0.5999999993
0.5999999991
0.5999999978
0.5999999924
0.5999999685
0.5999998631
0.5999994062
0.5999974856
0.5999899038
0.5999635947
0.599896359
0.5999999994
0.5999999994
0.5999999994
0.5999999994
0.5999999994
0.5999999992
0.5999999983
0.5999999949
0.5999999809
0.5999999241
0.599999702
0.5999988766
0.5999960623
0.5999878036
0.5999696921
0.5999999994
0.5999999994
0.5999999994
0.5999999994
0.5999999994
0.5999999993
0.5999999988
0.5999999969
0.5999999897
0.5999999631
0.5999998688
0.5999995554
0.5999986067
0.5999961295
0.5999910596
0.5999999994
0.5999999994
0.5999999994
0.5999999994
0.5999999994
0.5999999993
0.599999999
0.5999999978
0.5999999937
0.5999999797
0.5999999343
0.5999997969
0.5999994188
0.5999985092
0.5999967001
0.5999999994
0.5999999994
0.5999999994
0.5999999994
0.5999999994
0.5999999993
0.5999999989
0.5999999976
0.5999999929
0.5999999765
0.599999922
0.5999997521
0.5999992692
0.5999980705
0.5999999994
0.5999999994
0.5999999994
0.5999999994
0.5999999994
0.5999999992
0.5999999987
0.5999999965
0.599999988
0.5999999555
0.5999998359
0.5999994181
0.599998075
0.5999943245
0.5999999994
0.5999999994
0.5999999994
0.5999999994
0.5999999994
0.5999999991
0.5999999982
0.5999999941
0.5999999769
0.599999904
0.5999996016
0.5999983877
0.5999938076
0.5999785439
0.5999999994
0.5999999994
0.5999999994
0.5999999994
0.5999999993
0.599999999
0.5999999976
0.599999991
0.5999999604
0.5999998172
0.5999991401
0.5999959355
0.5999810279
0.5999160712
0.5999999994
0.5999999994
0.5999999994
0.5999999994
0.5999999993
0.599999999
0.5999999972
0.599999989
0.5999999487
0.5999997434
0.5999986478
0.5999924588
0.5999550844
0.5997122273
0.5980051105
0.5999999994
0.5999999994
0.5999999994
0.5999999994
0.5999999993
0.599999999
0.5999999976
0.599999991
0.5999999604
0.5999998172
0.5999991401
0.5999959359
0.5999810309
0.5999160963
0.5996908042
0.5999999994
0.5999999994
0.5999999994
0.5999999994
0.5999999994
0.5999999991
0.5999999982
0.5999999941
0.5999999769
0.599999904
0.5999996016
0.599998388
0.5999938091
0.5999785522
0.5999405874
0.5999999994
0.5999999994
0.5999999994
0.5999999994
0.5999999994
0.5999999992
0.5999999987
0.5999999965
0.599999988
0.5999999555
0.5999998359
0.5999994182
0.5999980756
0.5999943268
0.5999862991
0.5999999994
0.5999999994
0.5999999994
0.5999999994
0.5999999994
0.5999999993
0.5999999989
0.5999999976
0.5999999929
0.5999999765
0.599999922
0.5999997521
0.5999992695
0.5999980713
0.5999956581
0.5999999994
0.5999999994
0.5999999994
0.5999999994
0.5999999994
0.5999999993
0.599999999
0.5999999978
0.5999999937
0.5999999797
0.5999999343
0.5999997968
0.5999994186
0.5999985085
0.5999999994
0.5999999994
0.5999999994
0.5999999994
0.5999999994
0.5999999993
0.5999999988
0.5999999969
0.5999999897
0.5999999631
0.5999998688
0.5999995553
0.5999986062
0.5999961276
0.5999999994
0.5999999994
0.5999999994
0.5999999994
0.5999999994
0.5999999992
0.5999999983
0.5999999949
0.5999999809
0.5999999241
0.5999997019
0.5999988762
0.5999960609
0.5999877979
0.5999999994
0.5999999994
0.5999999994
0.5999999994
0.5999999993
0.5999999991
0.5999999978
0.5999999924
0.5999999685
0.5999998631
0.5999994061
0.5999974849
0.5999899004
0.5999635784
0.5999999994
0.5999999994
0.5999999994
0.5999999994
0.5999999993
0.599999999
0.5999999976
0.599999991
0.5999999604
0.5999998171
0.59999914
0.5999959352
0.5999810265
0.5999160663
0.5999999994
0.5999999994
0.5999999994
0.5999999994
0.5999999993
0.5999999991
0.5999999978
0.5999999924
0.5999999685
0.5999998631
0.5999994061
0.599997485
0.5999899011
0.5999635815
0.5999999994
0.5999999994
0.5999999994
0.5999999994
0.5999999994
0.5999999992
0.5999999983
0.5999999949
0.5999999809
0.5999999241
0.5999997019
0.5999988764
0.5999960615
0.5999878008
0.599969683
0.5999999994
0.5999999994
0.5999999994
0.5999999994
0.5999999994
0.5999999993
0.5999999988
0.5999999969
0.5999999897
0.5999999631
0.5999998688
0.5999995553
0.5999986065
0.5999961289
0.5999910582
0.5999999994
0.5999999994
0.5999999994
0.5999999994
0.5999999994
0.5999999993
0.599999999
0.5999999978
0.5999999937
0.5999999797
0.5999999343
0.5999997969
0.5999994187
0.599998509
0.5999966998
0.5999999994
0.5999999994
0.5999999994
0.5999999994
0.5999999994
0.5999999993
0.5999999991
0.5999999983
0.5999999954
0.5999999859
0.5999999563
0.5999998709
0.5999996456
0.5999991217
0.5999999994
0.5999999994
0.5999999994
0.5999999994
0.5999999994
0.5999999993
0.5999999989
0.5999999976
0.5999999928
0.5999999761
0.59999992
0.5999997452
0.5999992512
0.5999980383
0.5999999994
0.5999999994
0.5999999994
0.5999999994
0.5999999994
0.5999999992
0.5999999987
0.5999999964
0.5999999877
0.5999999546
0.5999998349
0.5999994288
0.5999981769
0.5999948627
0.5999999994
0.5999999994
0.5999999994
0.5999999994
0.5999999994
0.5999999992
0.5999999983
0.5999999949
0.5999999809
0.5999999241
0.5999997019
0.5999988762
0.5999960608
0.5999877978
0.5999999994
0.5999999994
0.5999999994
0.5999999994
0.5999999994
0.5999999991
0.5999999982
0.5999999941
0.5999999769
0.599999904
0.5999996016
0.5999983876
0.5999938071
0.5999785433
0.5999999994
0.5999999994
0.5999999994
0.5999999994
0.5999999994
0.5999999992
0.5999999983
0.5999999949
0.5999999809
0.5999999241
0.5999997019
0.5999988762
0.599996061
0.5999877985
0.5999999994
0.5999999994
0.5999999994
0.5999999994
0.5999999994
0.5999999992
0.5999999987
0.5999999964
0.5999999877
0.5999999546
0.5999998349
0.5999994288
0.5999981771
0.599994863
0.5999999994
0.5999999994
0.5999999994
0.5999999994
0.5999999994
0.5999999993
0.5999999989
0.5999999976
0.5999999928
0.5999999761
0.59999992
0.5999997453
0.5999992513
0.5999980387
0.599995617
0.5999999994
0.5999999994
0.5999999994
0.5999999994
0.5999999994
0.5999999993
0.5999999991
0.5999999983
0.5999999954
0.5999999859
0.5999999563
0.5999998709
0.5999996457
0.5999991219
0.5999980879
0.5999999994
0.5999999994
0.5999999994
0.5999999994
0.5999999994
0.5999999994
0.5999999992
0.5999999986
0.5999999968
0.5999999911
0.5999999741
0.5999999271
0.5999998083
0.5999995401
0.5999999994
0.5999999994
0.5999999994
0.5999999994
0.5999999994
0.5999999993
0.5999999991
0.5999999983
0.5999999955
0.5999999861
0.5999999569
0.5999998715
0.5999996444
0.599999113
0.5999999994
0.5999999994
0.5999999994
0.5999999994
0.5999999994
0.5999999993
0.5999999989
0.5999999976
0.5999999928
0.599999976
0.59999992
0.5999997452
0.5999992512
0.5999980383
0.5999999994
0.5999999994
0.5999999994
0.5999999994
0.5999999994
0.5999999993
0.5999999988
0.5999999969
0.5999999897
0.5999999631
0.5999998688
0.5999995552
0.5999986061
0.5999961276
0.5999999994
0.5999999994
0.5999999994
0.5999999994
0.5999999994
0.5999999992
0.5999999987
0.5999999965
0.599999988
0.5999999555
0.5999998359
0.599999418
0.5999980749
0.5999943244
0.5999999994
0.5999999994
0.5999999994
0.5999999994
0.5999999994
0.5999999993
0.5999999988
0.5999999969
0.5999999897
0.5999999631
0.5999998688
0.5999995552
0.5999986062
0.5999961278
0.5999999994
0.5999999994
0.5999999994
0.5999999994
0.5999999994
0.5999999993
0.5999999989
0.5999999976
0.5999999928
0.5999999761
0.59999992
0.5999997453
0.5999992512
0.5999980384
0.5999999994
0.5999999994
0.5999999994
0.5999999994
0.5999999994
0.5999999993
0.5999999991
0.5999999983
0.5999999955
0.5999999861
0.5999999569
0.5999998715
0.5999996444
0.5999991131
0.5999999994
0.5999999994
0.5999999994
0.5999999994
0.5999999994
0.5999999994
0.5999999992
0.5999999986
0.5999999968
0.5999999911
0.5999999741
0.5999999271
0.5999998084
0.5999995402
0.5999990119
0.5999999994
0.5999999994
0.5999999994
0.5999999994
0.5999999994
0.5999999994
0.5999999993
0.5999999989
0.5999999976
0.5999999938
0.599999983
0.5999999543
0.5999998843
0.5999997294
0.5999999994
0.5999999994
0.5999999994
0.5999999994
0.5999999994
0.5999999994
0.5999999992
0.5999999986
0.5999999968
0.5999999911
0.5999999741
0.5999999271
0.5999998083
0.5999995401
0.5999999994
0.5999999994
0.5999999994
0.5999999994
0.5999999994
0.5999999993
0.5999999991
0.5999999982
0.5999999954
0.5999999859
0.5999999563
0.5999998709
0.5999996456
0.5999991217
0.5999999994
0.5999999994
0.5999999994
0.5999999994
0.5999999994
0.5999999993
0.599999999
0.5999999978
0.5999999937
0.5999999797
0.5999999343
0.5999997968
0.5999994186
0.5999985085
0.5999999994
0.5999999994
0.5999999994
0.5999999994
0.5999999994
0.5999999993
0.5999999989
0.5999999976
0.5999999929
0.5999999765
0.5999999219
0.5999997521
0.5999992692
0.5999980705
0.5999999994
0.5999999994
0.5999999994
0.5999999994
0.5999999994
0.5999999993
0.599999999
0.5999999978
0.5999999937
0.5999999797
0.5999999343
0.5999997968
0.5999994186
0.5999985085
0.5999999994
0.5999999994
0.5999999994
0.5999999994
0.5999999994
0.5999999993
0.5999999991
0.5999999983
0.5999999954
0.5999999859
0.5999999563
0.5999998709
0.5999996456
0.5999991217
0.5999999994
0.5999999994
0.5999999994
0.5999999994
0.5999999994
0.5999999994
0.5999999992
0.5999999986
0.5999999968
0.5999999911
0.5999999741
0.5999999271
0.5999998084
0.5999995401
0.5999999994
0.5999999994
0.5999999994
0.5999999994
0.5999999994
0.5999999994
0.5999999993
0.5999999989
0.5999999976
0.5999999938
0.599999983
0.5999999543
0.5999998843
0.5999997294
)
;

boundaryField
{
    top
    {
        type            zeroGradient;
    }
    bottom
    {
        type            zeroGradient;
    }
    side-walls
    {
        type            zeroGradient;
    }
    inlet
    {
        type            zeroGradient;
    }
    outlet
    {
        type            zeroGradient;
    }
    procBoundary0to1
    {
        type            processor;
        value           nonuniform List<scalar> 
97
(
0.5999988939
0.5999990119
0.5999981185
0.5999964053
0.5999938943
0.5999921007
0.5999938944
0.5999964055
0.5999981186
0.599998894
0.5999990119
0.5999990119
0.5999963696
0.599995617
0.5999919682
0.5999841436
0.5999767584
0.5999841442
0.5999919689
0.59999637
0.5999981186
0.5999980879
0.599995617
0.599995617
0.5999789615
0.5999696813
0.5999500231
0.599912109
0.5999500259
0.5999789635
0.5999919689
0.5999964054
0.5999966996
0.5999910576
0.5999696813
0.5999696813
0.5998507804
0.5996907013
0.5996559743
0.5998507901
0.5999500257
0.599984144
0.5999938943
0.5999956575
0.5999862965
0.599940573
0.5996907013
0.5996907013
0.5988166288
0.5996907034
0.5996559737
0.599896331
0.5999121081
0.5999767581
0.5999921005
0.5999966996
0.599991058
0.5999696858
0.5998963343
0.5996907034
0.599896331
0.599896331
0.5999500232
0.5999880536
0.5999841431
0.599993894
0.599998088
0.5999956177
0.5999880551
0.5999696858
0.599940573
0.599969686
0.5999880536
0.5999880536
0.5999919682
0.5999980634
0.5999964051
0.599999012
0.5999980637
0.5999956177
0.599991058
0.5999862965
0.5999910581
0.5999956176
0.5999980634
0.5999980634
0.5999981185
0.5999994246
0.5999994247
0.599999012
0.5999980879
0.5999966996
0.5999956575
0.5999966997
0.599998088
0.599999012
0.5999994246
)
;
    }
}


// ************************************************************************* //
