/*--------------------------------*- C++ -*----------------------------------*\
| =========                 |                                                 |
| \\      /  F ield         | OpenFOAM: The Open Source CFD Toolbox           |
|  \\    /   O peration     | Version:  4.x                                   |
|   \\  /    A nd           | Web:      www.OpenFOAM.org                      |
|    \\/     M anipulation  |                                                 |
\*---------------------------------------------------------------------------*/
FoamFile
{
    version     2.0;
    format      ascii;
    class       surfaceScalarField;
    location    "5000";
    object      phi;
}
// * * * * * * * * * * * * * * * * * * * * * * * * * * * * * * * * * * * * * //

dimensions      [1 0 -1 0 0 0 0];

internalField   nonuniform List<scalar> 
3175
(
9.475338393e-06
-1.005516148e-12
6.072268725e-13
9.475335669e-06
-6.484412365e-13
2.73929468e-13
9.475336913e-06
-1.055646124e-12
-1.554003863e-13
9.475338259e-06
-3.863687295e-13
1.495051772e-13
9.475337123e-06
-7.169686283e-13
-1.09079857e-12
9.475338161e-06
-1.074521492e-12
-3.174184001e-12
9.475337428e-06
-1.33684084e-12
-9.9094266e-13
9.475340582e-06
-7.914154122e-13
-4.807436841e-13
9.475342714e-06
-1.079538322e-12
-1.045917432e-12
9.475346681e-06
-1.637970042e-12
-2.666072583e-12
9.475353456e-06
-3.645392233e-12
-4.632684144e-12
9.475361909e-06
-6.569844421e-12
-4.604515362e-12
9.475389443e-06
-1.201891325e-11
-1.260645175e-11
9.475411482e-06
-1.202173842e-11
-1.03026712e-11
-3.804074017e-11
9.475295528e-06
1.017029679e-12
5.122135502e-13
9.47529506e-06
-5.486333254e-13
2.606511558e-13
9.475296616e-06
2.899145949e-13
3.438763848e-13
9.475295625e-06
-1.427528852e-12
4.139343936e-13
9.475295873e-06
9.396636937e-13
-5.544242386e-13
9.475295666e-06
9.220630559e-14
-1.59079602e-12
9.475297123e-06
5.340938978e-13
-3.328044332e-13
9.475298118e-06
-1.282159355e-12
-1.055838053e-12
9.475300865e-06
-3.22606038e-12
-2.639471931e-12
9.475306546e-06
-4.338106448e-12
-1.319053896e-12
9.475311733e-06
-6.328501734e-12
-3.506372151e-12
9.475321685e-06
-9.516053452e-12
-5.449183667e-12
9.475345631e-06
-2.40221387e-11
-1.537341328e-11
9.475368676e-06
-2.05750103e-11
-1.036093472e-11
-7.473928769e-11
-5.914308098e-11
9.475333427e-06
-9.455082412e-13
6.544704607e-13
9.475333386e-06
2.225426573e-13
3.780681773e-13
9.475331967e-06
4.584911295e-13
6.359031737e-13
9.475333776e-06
7.508649036e-13
2.206286349e-12
9.475330949e-06
-2.223738414e-13
1.112155819e-12
9.475331887e-06
-1.59591491e-13
1.062556159e-13
9.475331109e-06
-1.031578028e-12
-5.256374443e-13
9.475330118e-06
-2.23029208e-12
-1.913816327e-12
9.475333635e-06
-8.773829017e-13
-5.583505281e-13
9.475336848e-06
-1.339360621e-12
-1.751938146e-12
9.475338423e-06
-3.756725919e-12
-5.218914648e-12
9.47534363e-06
-7.175069887e-12
-8.494484022e-12
9.475363504e-06
-2.235080187e-11
-2.162286514e-11
9.475381436e-06
-1.962079521e-11
-1.874029704e-11
-9.314842772e-11
-1.311253539e-10
9.475343596e-06
-7.579299573e-13
-7.883013287e-14
9.475342015e-06
-5.140605372e-13
4.047866519e-13
9.475341878e-06
-1.502655554e-12
-3.546182043e-13
9.475344437e-06
-1.183207499e-12
-9.4685564e-14
9.475341549e-06
-6.131768498e-13
4.561365546e-14
9.475342536e-06
-2.989803389e-13
8.071363487e-13
9.475342829e-06
-6.184193205e-14
1.318045479e-14
9.475343489e-06
7.292018455e-13
2.615920997e-13
9.475345702e-06
2.122224404e-12
-4.476339961e-13
9.475345621e-06
-1.82034595e-12
-2.239679738e-12
9.475345873e-06
-4.076670042e-12
-2.583400342e-12
9.475352206e-06
-9.939982431e-12
-7.577461338e-12
9.475368938e-06
-2.296454277e-11
-1.606556851e-11
9.475392901e-06
-2.716592764e-11
-1.237995954e-11
-9.031007727e-11
-1.965975423e-10
9.475350648e-06
-9.739037515e-13
-1.395887897e-13
9.475350921e-06
3.04185967e-15
-8.348406983e-14
9.475351122e-06
3.355148275e-13
1.083840375e-12
9.475351957e-06
1.57665219e-13
2.339717137e-13
9.475347723e-06
-1.550891933e-12
-1.511567459e-12
9.475348973e-06
7.932669801e-13
-1.035338877e-12
9.475348162e-06
1.911615519e-12
-4.237871003e-13
9.475349347e-06
3.059272138e-12
-1.816202179e-12
9.475346041e-06
2.350242582e-12
-1.733197877e-12
9.475346606e-06
3.884855399e-12
-4.012269349e-12
9.475337554e-06
4.336645825e-12
-5.586424491e-12
9.475335447e-06
8.878306556e-12
-1.747209852e-11
9.475328698e-06
2.107573139e-11
-3.993264766e-11
9.475338662e-06
2.630301748e-11
-6.518401876e-11
8.948816839e-11
-5.035866566e-10
9.475336931e-06
5.793132154e-13
4.675537259e-13
9.475334711e-06
1.562626053e-13
-8.612524432e-13
9.475336332e-06
1.680662405e-12
7.40715887e-14
9.475335353e-06
1.904148608e-12
5.625646072e-13
9.475335902e-06
1.15404717e-12
-4.997064631e-13
9.475335713e-06
1.565173786e-13
-1.628064051e-12
9.475335252e-06
1.101924626e-12
-8.459445393e-14
9.475336369e-06
6.134500656e-13
-1.197256234e-12
9.4753353e-06
-2.161167401e-13
-4.905415618e-13
9.475335411e-06
1.897796775e-12
-3.091814932e-12
9.47533777e-06
4.256801054e-12
-1.423307651e-12
9.47534472e-06
5.960908463e-12
-7.681504965e-12
9.475362599e-06
2.071816001e-11
-1.56020278e-11
9.475383523e-06
1.922466003e-11
-1.217719572e-11
9.34394325e-11
-1.971972333e-10
9.475320076e-06
-1.578210933e-13
4.820292666e-13
9.475320033e-06
-1.867779669e-13
-4.385227822e-13
9.47532079e-06
4.226132779e-13
-1.294940281e-12
9.475319782e-06
-1.702211313e-12
-6.436919711e-13
9.475322605e-06
8.840530302e-13
1.315179043e-13
9.475323289e-06
-6.030487571e-13
-7.423067798e-13
9.475320889e-06
-8.921077196e-13
-1.828645789e-12
9.47532101e-06
1.591669583e-12
-4.204523673e-13
9.475320063e-06
1.818665316e-12
-7.427714333e-13
9.475321293e-06
2.868726071e-12
-2.699154023e-12
9.475323079e-06
4.861090599e-12
-4.400239631e-12
9.475328959e-06
8.132063371e-12
-8.134505123e-12
9.475351082e-06
2.265035611e-11
-2.256928628e-11
9.475367423e-06
2.006377556e-11
-1.794010143e-11
7.467749457e-11
-1.296858573e-10
9.475360877e-06
1.576914268e-14
-5.517712154e-13
9.475360846e-06
9.08656244e-13
-4.396907475e-13
9.475357687e-06
8.938005262e-14
-5.677171654e-13
9.475359602e-06
1.564721566e-12
-3.478776798e-13
9.475360439e-06
-3.07199324e-13
-9.286151166e-13
9.475361546e-06
6.985807197e-13
4.193825274e-13
9.475361233e-06
1.072017304e-12
-1.360224812e-12
9.475361371e-06
1.685233847e-12
-1.303805045e-12
9.475361968e-06
1.622450662e-12
-1.497684517e-12
9.475363768e-06
1.618007131e-12
-1.606806132e-12
9.475372328e-06
3.676976227e-12
-3.389930756e-12
9.475382809e-06
6.350861414e-12
-4.122625207e-12
9.475408661e-06
1.278016587e-11
-1.600374388e-11
9.475429309e-06
9.379030223e-12
-9.479522139e-12
3.509636268e-11
-5.868634482e-11
9.475345709e-06
-1.715187509e-13
9.47534402e-06
-1.642353839e-12
9.475344907e-06
-2.560947652e-12
9.475344119e-06
-1.065267123e-12
9.475346269e-06
-5.609519408e-13
9.475348455e-06
1.492825623e-13
9.47534693e-06
-8.009017647e-13
9.475345446e-06
-2.862431405e-12
9.475349189e-06
-1.739965303e-12
9.475352327e-06
-1.756858684e-12
9.475361716e-06
-3.194111163e-12
9.475370436e-06
-5.989074388e-12
9.475396969e-06
-1.342780981e-11
9.475421128e-06
-1.071859967e-11
-3.775765171e-11
9.475334441e-06
-1.323077171e-12
6.874369581e-13
9.475332189e-06
5.21545461e-13
6.133073013e-13
9.475332809e-06
3.906161281e-13
1.815649056e-12
9.475333006e-06
1.091035366e-12
1.087591745e-12
9.475331772e-06
3.542407464e-13
5.506736729e-13
9.475336241e-06
2.414011261e-13
1.612830387e-12
9.475335257e-06
-2.207219951e-13
1.251861708e-12
9.475337707e-06
-1.590803119e-12
-6.33407984e-13
9.475338889e-06
-3.340539353e-12
-1.352051923e-12
9.47534187e-06
-2.633369787e-12
-2.956595586e-12
9.475347991e-06
-3.898620732e-12
-6.360630974e-12
9.47535424e-06
-7.330366091e-12
-9.75600613e-12
9.475382076e-06
-1.467466587e-11
-2.313714258e-11
-1.18208131e-11
-2.104829361e-11
9.475378619e-06
9.311338739e-13
-2.720277649e-13
9.475376471e-06
-7.091307551e-13
2.803995645e-13
9.47537834e-06
9.640021445e-14
4.082619519e-13
9.475377456e-06
2.77464026e-13
3.840926314e-13
9.475378287e-06
1.804819245e-12
2.617554092e-13
9.47538071e-06
1.799525395e-12
6.108015719e-13
9.475379765e-06
2.084185877e-13
5.044895213e-13
9.475381136e-06
-9.954836637e-13
-1.197393961e-12
9.475385658e-06
-8.580009846e-13
-8.102870691e-13
9.475385586e-06
-4.446377881e-12
-3.31807076e-12
9.475389579e-06
-7.378003579e-12
-6.539980919e-12
9.475399819e-06
-9.362176694e-12
-9.24749533e-12
9.475420759e-06
-2.535930884e-11
-2.620264372e-11
9.475444612e-06
-2.00938992e-11
-2.031755959e-11
-1.218406024e-10
9.475351306e-06
-1.449303773e-12
3.201506068e-13
9.475351625e-06
-3.777812546e-13
3.550514822e-14
9.475351802e-06
-4.687462302e-13
7.727699564e-13
9.475351055e-06
-1.121350858e-12
-1.081893555e-12
9.475351424e-06
2.135190688e-14
-9.904456873e-13
9.475350719e-06
6.996720417e-14
2.098525148e-14
9.475349911e-06
-3.531830526e-13
-3.605263409e-13
9.47535124e-06
-1.067663641e-13
-4.719790575e-13
9.475351354e-06
-2.014551735e-12
-1.271242587e-12
9.475350471e-06
-2.422764164e-12
-3.60016158e-12
9.475350229e-06
-4.225075318e-12
-5.953121109e-12
9.475355141e-06
-7.922518453e-12
-1.560831532e-11
9.475367408e-06
-2.389190101e-11
-3.785888116e-11
9.475390606e-06
-2.133266402e-11
-4.096817449e-11
-1.774938976e-10
-2.962345868e-10
9.475356438e-06
-3.932000147e-13
-4.171168736e-13
9.475356473e-06
-1.483910055e-12
-5.782944532e-13
9.475358434e-06
-5.869236905e-13
7.665616245e-14
9.475358001e-06
-7.575335443e-13
-1.084867355e-14
9.475358669e-06
-1.269356582e-12
-5.656664539e-13
9.475356999e-06
-1.11816964e-12
-1.057721365e-12
9.475358219e-06
3.149810962e-13
2.984854062e-13
9.475358164e-06
-7.897543555e-13
-3.498449266e-13
9.475361144e-06
1.268466662e-12
5.815692241e-15
9.475361642e-06
-3.051832956e-12
-3.522185951e-12
9.475363308e-06
-6.040352496e-12
2.4405418e-13
9.475371379e-06
-1.361705186e-11
-1.525421898e-11
9.475378305e-06
-3.238614921e-11
-1.325329634e-11
9.47542344e-06
-4.572195123e-11
-4.129794747e-11
-1.810064431e-10
-4.71849752e-10
9.475280369e-06
-1.067422958e-12
4.631848633e-13
9.475281612e-06
-4.792315696e-13
2.340717242e-13
9.475282375e-06
-2.511104397e-13
-1.731887042e-13
9.475282437e-06
2.487724007e-13
3.509282174e-13
9.475284062e-06
-3.862583285e-13
1.919810124e-12
9.475281729e-06
9.417001103e-14
2.109155469e-13
9.475279801e-06
1.561184371e-12
-6.900835688e-13
9.475280842e-06
2.204677615e-12
-2.094479934e-13
9.475275148e-06
2.755030562e-12
-1.459037231e-12
9.475271221e-06
4.687621992e-12
-4.845001774e-12
9.475258635e-06
6.078701382e-12
-1.200397411e-12
9.475250533e-06
1.296034624e-11
-3.633489389e-11
9.475201838e-06
3.082347968e-11
-5.500170207e-11
9.475238883e-06
4.43066314e-11
-1.98246674e-10
1.792501711e-10
-1.44693984e-09
9.4753292e-06
4.077286106e-13
1.601407699e-12
9.475330536e-06
5.22155149e-13
1.718384118e-13
9.475331766e-06
5.677643298e-13
-5.219396683e-13
9.475330532e-06
1.237383808e-12
-6.840283114e-13
9.475332402e-06
1.004943467e-12
1.274951735e-12
9.47533365e-06
1.773787093e-12
-1.595190291e-12
9.475332193e-06
6.690998167e-13
-2.223907635e-12
9.475334023e-06
2.097925704e-12
-2.437566213e-12
9.475330099e-06
-2.527006044e-13
-1.3946964e-12
9.475331638e-06
2.184680745e-12
-4.126493791e-12
9.475331713e-06
1.554620068e-12
7.78207189e-13
9.475344223e-06
6.327762651e-12
-1.57371815e-11
9.475351673e-06
2.228676001e-11
-1.362856879e-11
9.475398576e-06
2.121891553e-11
-4.221370452e-11
1.781388987e-10
-4.721424892e-10
9.475348968e-06
-7.431225582e-13
-1.676514319e-13
9.475346206e-06
-8.652178072e-13
-1.343202137e-12
9.475348314e-06
4.616571297e-13
-2.137051476e-13
9.475344817e-06
-3.056446908e-13
-1.329392425e-12
9.475346499e-06
8.086628442e-15
-1.050855265e-12
9.475349012e-06
5.005391871e-13
-2.007003349e-12
9.475347177e-06
-1.45395256e-12
-8.698564175e-13
9.475345376e-06
-2.828066216e-13
-2.502687193e-12
9.475345481e-06
1.9315935e-12
-1.962535991e-12
9.475345435e-06
2.264416613e-12
-5.030193182e-12
9.475347602e-06
5.831507628e-12
-5.475962224e-12
9.475352778e-06
9.361735394e-12
-1.467895231e-11
9.475366954e-06
2.460421732e-11
-3.703053193e-11
9.475386829e-06
2.026688281e-11
-4.328690802e-11
1.240681158e-10
-2.972576021e-10
9.475318463e-06
1.295608607e-13
4.390444469e-13
9.475319585e-06
1.107403584e-12
-6.462293322e-13
9.475318351e-06
-4.348403702e-13
-1.418305402e-12
9.475318255e-06
1.230189765e-13
-1.129012865e-12
9.475320743e-06
-4.990161456e-13
-5.868630942e-13
9.475321347e-06
-1.941043058e-14
-2.294434506e-12
9.475323006e-06
1.243892562e-12
-2.651025961e-12
9.475323384e-06
3.494375979e-13
-2.889078639e-12
9.475323984e-06
-3.027736301e-15
-2.391565161e-12
9.475327695e-06
-1.135352996e-14
-4.797055144e-12
9.475332284e-06
2.019065384e-12
-6.37796978e-12
9.475341909e-06
3.919054549e-12
-1.048704331e-11
9.475368192e-06
1.495409529e-11
-2.616819503e-11
9.47538878e-06
9.103253934e-12
-2.226737309e-11
5.665281031e-11
-1.253057133e-10
9.475332223e-06
-1.253882921e-12
9.475330375e-06
-8.43036198e-13
9.475330389e-06
-1.59051366e-12
9.475328058e-06
-7.926182158e-13
9.475330231e-06
-5.348604992e-13
9.475329173e-06
-2.699663137e-12
9.475329508e-06
-2.906139944e-12
9.475331027e-06
-3.370597467e-12
9.475332263e-06
-4.021441818e-12
9.475335362e-06
-2.850383147e-12
9.475342176e-06
-5.577235155e-12
9.475353863e-06
-9.408037647e-12
9.475378944e-06
-2.291831841e-11
9.475400077e-06
-2.167787962e-11
-7.449992516e-11
9.475332635e-06
-2.54975692e-12
-1.41134444e-12
9.47533223e-06
-5.264531236e-13
-4.278579373e-13
9.475332146e-06
-2.320333498e-13
2.902288591e-13
9.475331996e-06
-5.461108492e-13
6.635747071e-13
9.475332669e-06
1.259782336e-13
9.81654382e-13
9.475333612e-06
4.927719221e-13
4.814419022e-13
9.475332733e-06
-5.24467149e-13
5.661155552e-13
9.475335444e-06
-1.322177743e-12
-4.870717186e-13
9.475332847e-06
-3.118436232e-12
-2.442190707e-12
9.475334947e-06
-3.394358686e-12
-3.473588907e-12
9.475338747e-06
-3.787476175e-12
-5.847895111e-12
9.475343956e-06
-7.29736257e-12
-8.758345979e-12
9.47536381e-06
-2.17408502e-11
-2.249373287e-11
-1.787166313e-11
-1.989118426e-11
9.475291047e-06
8.381095009e-13
8.82563028e-13
9.475290126e-06
-1.690996425e-12
7.066157102e-13
9.475291804e-06
-2.121020111e-14
1.080100591e-12
9.475289733e-06
-5.380060207e-13
5.838195165e-14
9.475290056e-06
2.494176039e-13
1.297564477e-12
9.475289753e-06
5.322553239e-13
1.937122874e-12
9.475287789e-06
-6.456471812e-13
9.726420148e-13
9.475289839e-06
-1.994346144e-13
-2.481309962e-13
9.475292532e-06
-7.384351873e-13
-1.819484999e-13
9.475291901e-06
-4.670389032e-12
-3.804376974e-12
9.475290679e-06
-6.272629881e-12
-4.264779162e-12
9.475295427e-06
-1.603177594e-11
-9.22494494e-12
9.475308278e-06
-3.800390639e-11
-2.469337287e-11
-4.197094072e-11
-2.297231096e-11
9.475339709e-06
-1.528245189e-12
-6.134573861e-13
9.475339128e-06
-6.007525134e-13
2.450524932e-13
9.475338154e-06
-6.65967693e-13
1.44242922e-13
9.475336984e-06
-1.255493926e-13
1.321170657e-12
9.475336887e-06
-7.115901713e-13
-7.310541748e-13
9.475336454e-06
-1.164071491e-12
-1.063464212e-12
9.475336057e-06
-3.238390333e-13
1.52781889e-12
9.47533375e-06
-9.033627436e-13
-1.123321531e-12
9.475331449e-06
-6.154411152e-13
9.920530229e-14
9.475330874e-06
-2.781836253e-12
-3.649376162e-12
9.47532418e-06
-2.268698108e-12
-2.147187176e-12
9.4753216e-06
-1.36300585e-11
-1.469461658e-11
9.475306951e-06
-2.987646866e-11
-3.236643009e-11
9.475332304e-06
-5.834135895e-11
-5.966252074e-11
-5.062168051e-10
9.475299477e-06
1.264419531e-13
-1.923670232e-13
9.475299682e-06
-4.825064329e-13
9.60555302e-15
9.475297608e-06
-1.165616473e-12
-8.934874662e-13
9.475298176e-06
-2.054238355e-13
5.170074769e-13
9.475298495e-06
3.768364488e-13
-1.884154413e-13
9.475298363e-06
3.633634504e-13
7.976031787e-14
9.475297879e-06
-4.683740499e-13
8.11384058e-13
9.47529533e-06
-7.065224206e-14
-8.333160242e-13
9.475296306e-06
-2.686560446e-13
1.749398361e-12
9.475292433e-06
-3.518768397e-12
-1.539904015e-12
9.475290893e-06
-6.3736647e-12
9.654060067e-12
9.475297046e-06
-2.424152991e-11
-1.402155943e-11
9.475278365e-06
-5.758587481e-11
2.656998832e-11
9.475370535e-06
-1.170394777e-10
-7.612104475e-11
-5.48537455e-10
-9.659966122e-10
9.475308792e-06
1.315425049e-13
-1.859706332e-12
9.475308716e-06
2.84091754e-13
1.215508977e-13
9.475309446e-06
-7.294839918e-13
6.083322864e-13
9.475309523e-06
-1.324492998e-12
6.824415758e-13
9.475308349e-06
-9.057413814e-13
-1.689456245e-13
9.475307896e-06
-1.405144128e-12
9.929570335e-14
9.475309631e-06
3.081439092e-13
7.068405342e-13
9.475305167e-06
6.138150061e-13
-4.454330781e-13
9.475300773e-06
2.78391012e-12
8.461207776e-13
9.47528942e-06
4.073657224e-12
-7.09693622e-12
9.475264088e-06
7.289407073e-12
9.324032722e-12
9.475226472e-06
2.244330913e-11
-4.238281435e-11
9.475062519e-06
5.487640797e-11
-3.725280227e-12
9.475077348e-06
1.155501673e-10
-4.431920105e-10
5.47349204e-10
-3.927181643e-09
9.475340325e-06
-7.338159331e-13
-1.190013931e-12
9.475340415e-06
-9.758027169e-13
-6.612592957e-13
9.475341211e-06
3.302021972e-13
1.06550428e-12
9.475339998e-06
2.563856565e-13
1.22044452e-12
9.475338107e-06
-5.502850089e-13
-1.749055723e-13
9.475340933e-06
1.786322495e-13
-1.812597037e-13
9.475339229e-06
4.636573288e-13
-6.640261262e-13
9.475339359e-06
1.267788664e-12
-3.129250098e-13
9.475336027e-06
6.754410282e-13
3.614792267e-13
9.475335463e-06
2.480448713e-12
-3.176044552e-12
9.47532876e-06
2.731728795e-15
7.226277598e-12
9.475340182e-06
1.386071569e-11
-1.211679699e-11
9.475322058e-06
2.937974799e-11
2.835440732e-11
9.475411889e-06
5.583493476e-11
-7.520258431e-11
5.070561532e-10
-9.653885904e-10
9.475304082e-06
-3.133381654e-13
-1.391739774e-12
9.475306631e-06
-2.640616872e-13
-2.496313046e-13
9.475306208e-06
-1.03474072e-12
3.68167296e-13
9.475306552e-06
-9.545955021e-14
5.306048818e-13
9.475304132e-06
1.758208252e-13
-5.625212317e-13
9.475306963e-06
-4.781435217e-13
-6.512482435e-13
9.475304472e-06
-2.66103366e-12
-1.260441003e-12
9.475304672e-06
-6.981172114e-13
-1.498590006e-12
9.475301868e-06
8.283068733e-14
-1.073332522e-12
9.475299123e-06
2.191958033e-12
-3.229433598e-12
9.475290684e-06
4.912311524e-12
-1.510200193e-12
9.475288534e-06
1.394632295e-11
-1.4223032e-11
9.475272973e-06
3.606642882e-11
-3.122943299e-11
9.475300692e-06
4.150796639e-11
-5.75330704e-11
2.965958065e-10
-5.077560177e-10
9.475363904e-06
-1.369652886e-12
-5.481545545e-13
9.475365567e-06
4.284647062e-13
-2.19834291e-13
9.475366552e-06
-5.879965936e-13
1.586596049e-13
9.475366262e-06
-4.566462514e-13
8.267333107e-13
9.47536628e-06
-8.269734732e-13
-1.751237982e-13
9.475368117e-06
-4.14426058e-13
-3.573361814e-13
9.475368888e-06
1.058960539e-12
-2.740891516e-13
9.475367429e-06
-2.631568711e-13
-1.403677656e-12
9.475365355e-06
-1.16242017e-12
-2.279901459e-12
9.475367347e-06
1.884033211e-12
-2.976675808e-12
9.475366123e-06
2.285422128e-12
-3.416410334e-12
9.475373048e-06
6.997646585e-12
-8.399642704e-12
9.475386991e-06
2.150338907e-11
-2.369042044e-11
9.475408794e-06
1.705398877e-11
-2.159983596e-11
1.301892474e-10
-1.786531539e-10
9.475346132e-06
7.054105585e-13
9.475343987e-06
3.75829357e-13
9.475344937e-06
-8.32958087e-13
9.475344029e-06
-1.678349736e-13
9.47534425e-06
6.899239319e-13
9.475345266e-06
-1.675052671e-13
9.475343481e-06
-4.688150641e-13
9.475343801e-06
-1.175208376e-12
9.475345862e-06
-1.749406375e-12
9.475344649e-06
-2.732070787e-12
9.475347524e-06
-4.432368568e-12
9.475354167e-06
-6.098767336e-12
9.475375518e-06
-2.028220401e-11
9.475393286e-06
-1.651232307e-11
-9.165888201e-11
9.475351104e-06
2.957006336e-13
1.914577672e-12
9.475350562e-06
7.602735516e-13
2.252251635e-13
9.475350461e-06
-8.183751266e-14
8.374623332e-13
9.475349017e-06
-2.38888542e-13
1.116848276e-12
9.475352574e-06
1.031828287e-12
2.37819253e-12
9.475351591e-06
1.471268956e-12
8.349827456e-13
9.475348832e-06
-3.169390846e-13
6.974540753e-13
9.475350741e-06
-1.406049254e-12
2.40856485e-12
9.475349276e-06
-2.913348696e-13
-6.962706036e-13
9.475351386e-06
-2.802986297e-12
-3.196583431e-12
9.475350941e-06
-1.035314242e-12
-6.512040427e-12
9.47535867e-06
-5.837053704e-12
-1.110489423e-11
9.475372554e-06
-1.54830126e-11
-2.513714984e-11
-1.27313045e-11
-2.855256794e-11
9.475351575e-06
-1.038033837e-12
1.115248499e-12
9.475350633e-06
-1.326825974e-12
3.323831999e-13
9.475349596e-06
-5.444755088e-13
1.557254123e-12
9.475346726e-06
2.133924233e-13
1.477194666e-12
9.47534873e-06
-9.974684585e-13
9.137300678e-13
9.475347551e-06
-2.134505843e-12
3.925615713e-13
9.475346209e-06
-1.668996004e-13
1.191303361e-12
9.475348731e-06
-7.82961142e-13
1.443596715e-13
9.475346262e-06
-4.003032441e-13
-1.704752674e-12
9.475350488e-06
-4.120659509e-12
-2.432685975e-12
9.475348489e-06
-3.376213869e-13
-6.643124756e-12
9.475357836e-06
-1.519938595e-11
-1.389520873e-11
9.475362832e-06
-1.433078041e-11
-3.300141174e-11
-4.222514744e-11
-4.668250033e-11
9.47534281e-06
-1.096166536e-12
6.538032297e-13
9.475343252e-06
-1.026154497e-12
1.314233054e-12
9.475342474e-06
-1.881109304e-12
5.062361696e-13
9.475340437e-06
-1.67842629e-12
5.201424992e-13
9.475343536e-06
1.196547356e-13
2.888517564e-13
9.475343989e-06
6.206567732e-13
2.059852488e-12
9.475341225e-06
-2.971505638e-13
-8.207315816e-13
9.475342374e-06
-8.615315661e-13
7.073914223e-14
9.475340172e-06
6.631407118e-13
-8.244775668e-13
9.4753421e-06
-1.327747171e-12
-3.710442855e-12
9.475338379e-06
9.268272675e-12
-7.117932544e-12
9.475343086e-06
-1.382017799e-11
-2.359775011e-11
9.475325365e-06
2.855960651e-11
-5.560357908e-11
-7.368153741e-11
-1.142413061e-10
9.475291362e-06
-1.359537119e-12
8.277580951e-13
9.475290127e-06
-8.493074453e-13
1.605156464e-12
9.475292502e-06
-8.141256133e-13
1.563067452e-12
9.475289957e-06
-6.879386283e-13
-9.440919688e-13
9.475288687e-06
1.042794209e-13
-1.90855069e-12
9.47528949e-06
1.004382389e-12
-4.239366159e-13
9.475288049e-06
-6.908825065e-13
-3.667078569e-13
9.475289906e-06
2.195476733e-13
8.056226329e-13
9.475291861e-06
-6.625528708e-13
1.604064185e-13
9.475294948e-06
-6.108344322e-12
-5.847900836e-12
9.475322978e-06
-1.665826258e-12
-2.997239405e-12
9.475361027e-06
-3.083803481e-11
-2.985946315e-11
9.47549065e-06
-3.714496533e-11
-3.682804631e-11
9.475784879e-06
-2.229421002e-10
-2.233272652e-10
-1.032477812e-09
9.475371072e-06
6.253195865e-13
-5.777716593e-13
9.475369739e-06
-1.133606273e-12
2.638094062e-13
9.475368956e-06
-4.681420728e-13
-4.391118121e-13
9.475367064e-06
2.743219415e-13
-1.173646142e-12
9.475368112e-06
-2.314200567e-13
-1.876644895e-12
9.475365278e-06
-2.284438329e-12
-2.849371017e-12
9.475365625e-06
-6.467915115e-13
-1.875363208e-12
9.475364155e-06
1.496998795e-12
-2.047898235e-12
9.475365609e-06
2.352933394e-12
-1.756209045e-12
9.475358384e-06
4.920104284e-12
-8.160504124e-12
9.475366537e-06
5.75434797e-13
-7.522140002e-12
9.475328387e-06
3.024594419e-11
-6.892076442e-11
9.475358616e-06
3.636204177e-11
-1.10150633e-10
9.475499573e-06
2.204258422e-10
-1.030143231e-09
1.03050212e-09
-7.365382438e-09
9.475346623e-06
-1.515250042e-12
-1.242278998e-12
9.475349601e-06
-4.8130267e-13
7.619871011e-14
9.47534875e-06
1.137733465e-12
-1.346823441e-12
9.475346486e-06
-1.538318546e-13
-1.20494727e-12
9.47534767e-06
-3.578709455e-13
-5.760083401e-14
9.475349469e-06
-2.846265403e-13
1.721795461e-13
9.475349979e-06
1.16704945e-13
2.550221064e-13
9.475349495e-06
4.29288712e-13
-1.27700186e-12
9.475352066e-06
-1.446531647e-12
-1.84964952e-12
9.475356774e-06
2.665674191e-12
-5.24511204e-12
9.475384927e-06
-8.627638402e-12
-1.81504956e-12
9.475422064e-06
1.187889295e-11
-2.956517525e-11
9.475551336e-06
-3.011422127e-11
-3.901513088e-11
9.4758494e-06
7.428414712e-11
-2.235591701e-10
9.650914737e-10
-1.032065419e-09
9.475351335e-06
3.754000041e-13
-9.039514387e-13
9.47535343e-06
-1.094614899e-13
-1.163283554e-12
9.475352314e-06
-1.191942744e-12
-2.988443913e-12
9.475352005e-06
-2.367080772e-13
-1.121480098e-12
9.47535193e-06
-1.489745795e-13
1.179860576e-12
9.475352997e-06
5.231995821e-13
8.144913611e-14
9.47535102e-06
-1.69150652e-12
3.251329466e-13
9.475348842e-06
-1.196867767e-12
-1.222697966e-12
9.475346891e-06
-9.257889101e-13
-1.677541781e-12
9.47534739e-06
2.901457669e-12
-4.801888039e-12
9.475342571e-06
-1.768956462e-12
-6.624855217e-12
9.47534941e-06
1.344129118e-11
-2.248016036e-11
9.475332857e-06
1.322851167e-11
-5.477975471e-11
9.47542499e-06
4.232799529e-11
-1.147526627e-10
4.714028235e-10
-5.498629851e-10
9.475303441e-06
-1.180340948e-13
-7.195106115e-13
9.475304468e-06
3.741735126e-13
-4.081163694e-13
9.475305883e-06
-1.338367938e-12
-1.272579269e-14
9.475304749e-06
-4.04188441e-14
-1.183383138e-12
9.475302721e-06
-3.5857141e-13
9.613010436e-13
9.475303985e-06
7.311510797e-14
4.019568735e-13
9.475305877e-06
3.897523309e-13
1.538344164e-13
9.475305711e-06
7.421278159e-14
1.113747217e-12
9.475303119e-06
-9.766332516e-13
-4.845974489e-13
9.475306809e-06
1.733474784e-12
-1.299672307e-12
9.475305669e-06
1.418870464e-12
-4.006950132e-12
9.475317936e-06
7.264335348e-12
-1.144872104e-11
9.475326871e-06
1.57958648e-11
-3.069753358e-11
9.475372149e-06
1.351967597e-11
-4.466474386e-11
1.9779792e-10
-1.8288457e-10
9.475341367e-06
-3.831542247e-13
9.475337257e-06
-1.782869492e-12
9.47534127e-06
2.027705442e-13
9.47534084e-06
-1.228823711e-13
9.475338894e-06
-1.29995721e-13
9.475339833e-06
3.305275274e-13
9.475340896e-06
5.694156962e-13
9.475341048e-06
1.107768789e-12
9.475342537e-06
7.619163809e-14
9.475343288e-06
8.457272625e-13
9.475344375e-06
-3.250841734e-12
9.475350285e-06
-7.535142163e-12
9.475367496e-06
-2.136686667e-11
9.475389354e-06
-2.652520558e-11
-8.92539421e-11
9.475334919e-06
5.421843537e-13
4.689796641e-13
9.475337798e-06
2.11701434e-12
5.195600503e-13
9.475336507e-06
5.485229955e-13
4.229545746e-13
9.475333286e-06
-2.52778789e-13
1.694409967e-13
9.475331679e-06
-6.342041168e-13
-1.706572799e-13
9.475335107e-06
2.072634342e-12
1.663937941e-12
9.47533325e-06
-5.541294147e-13
6.928709594e-13
9.475330112e-06
-2.429409868e-12
-8.312359035e-13
9.475331788e-06
-1.216208718e-12
1.809240845e-12
9.475331321e-06
-2.616847865e-12
1.508025917e-12
9.475321942e-06
-3.06989795e-12
3.622616067e-12
9.475319567e-06
-1.426025217e-11
8.755240861e-12
9.475311734e-06
-3.881836268e-11
2.241987798e-11
-6.588447111e-11
2.736962834e-11
9.475321504e-06
-1.393748554e-12
-3.376134394e-13
9.475321776e-06
-4.28028903e-13
-4.833575627e-13
9.4753215e-06
-3.901904634e-13
4.827699301e-13
9.475318901e-06
-9.151589109e-13
-1.55151799e-13
9.475320562e-06
-1.102334711e-12
2.692381983e-13
9.475320778e-06
-6.610027066e-13
1.196128221e-12
9.475318167e-06
-2.515941921e-12
4.069891024e-13
9.475318813e-06
-1.807892681e-12
3.086411278e-12
9.475315888e-06
-2.669523697e-13
3.07490665e-12
9.475311546e-06
-6.731280222e-12
2.18729946e-12
9.475301481e-06
-2.025058374e-12
5.103918814e-12
9.475292193e-06
-3.597003488e-11
1.084432814e-11
9.475241244e-06
-5.430402941e-11
3.145098833e-11
-1.953381404e-10
4.499301213e-11
9.475324453e-06
-1.372243358e-12
-2.939109711e-13
9.475324876e-06
-1.533768839e-12
-8.073915184e-13
9.47532645e-06
-1.357204575e-12
-2.766329276e-13
9.475323569e-06
-2.159395002e-12
1.988966346e-13
9.475326618e-06
-2.530245682e-12
7.644491318e-13
9.47532385e-06
-2.418379219e-12
-2.868138084e-13
9.475324603e-06
2.925176109e-13
2.374332051e-13
9.475321818e-06
3.64685919e-13
1.462484793e-12
9.475317171e-06
1.535169049e-12
1.890765858e-12
9.475308537e-06
-5.746251526e-12
4.290838127e-12
9.475284767e-06
9.276469207e-12
7.259345203e-12
9.475245884e-06
-4.306557496e-11
2.216053119e-11
9.475081972e-06
-3.73933008e-12
5.554861358e-11
-4.447117523e-10
1.144266389e-10
9.47533671e-06
-2.671161924e-12
-5.05018744e-13
9.475336058e-06
-8.804749859e-13
-1.487627854e-12
9.475336698e-06
-1.820840223e-12
-2.671712947e-13
9.475336668e-06
-1.279943528e-12
3.375888457e-13
9.475338171e-06
-1.071870432e-12
4.809524455e-13
9.475337739e-06
-1.00348602e-12
9.589622163e-13
9.475335201e-06
-2.049045405e-12
-3.988616185e-13
9.475331801e-06
-2.718416732e-12
1.393581929e-12
9.475333687e-06
-2.457939946e-12
2.49921099e-12
9.475325794e-06
-7.438609568e-12
5.394404954e-12
9.475337027e-06
-5.917724309e-12
4.052522291e-12
9.475297403e-06
-6.803846509e-11
3.150815939e-11
9.47532898e-06
-1.091737163e-10
3.692784728e-11
-1.029895473e-09
2.224247441e-10
9.47534735e-06
-4.083771024e-13
1.359294035e-12
9.475342401e-06
-1.111712731e-12
-2.998201814e-13
9.475344206e-06
-1.041997675e-12
2.164706178e-13
9.475343644e-06
1.528814772e-13
6.446583304e-13
9.475342254e-06
1.39824459e-12
2.07461434e-12
9.475341177e-06
1.039355598e-13
1.69798797e-12
9.475340969e-06
2.496076221e-13
1.748836023e-12
9.475334059e-06
1.276049109e-12
1.82820837e-12
9.475330985e-06
2.269247922e-12
2.053819317e-12
9.475299556e-06
7.242620748e-12
7.691362788e-12
9.475276955e-06
6.768423839e-12
7.27059825e-12
9.475006215e-06
6.866684561e-11
6.861246481e-11
9.47457195e-06
1.078081137e-10
1.086717928e-10
9.470458781e-06
1.026759767e-09
1.030305052e-09
7.36335358e-09
9.475347982e-06
-6.914707499e-13
-4.108496775e-13
9.475347125e-06
-9.314317123e-13
-9.607594571e-13
9.475349198e-06
1.467456164e-13
3.152994983e-13
9.475347548e-06
-2.528473527e-13
5.152740359e-13
9.475346314e-06
1.266109406e-12
3.915752157e-13
9.475346308e-06
-9.839761864e-14
2.815679402e-13
9.475347062e-06
5.029269186e-13
3.517617411e-13
9.475341938e-06
4.294754195e-13
6.395945138e-13
9.475341875e-06
-5.771878632e-13
1.144111849e-12
9.475332986e-06
4.977991046e-12
6.832395285e-12
9.475343053e-06
-9.508500021e-12
4.48875035e-12
9.475303317e-06
4.067178108e-11
3.025872145e-11
9.475336624e-06
3.985941038e-12
3.790672824e-11
9.475481839e-06
4.446514267e-10
2.242856398e-10
3.925777665e-09
9.475317179e-06
6.759727598e-13
5.158644374e-13
9.475317342e-06
3.736459635e-13
-3.664293729e-13
9.47531863e-06
7.717612398e-13
7.621563291e-14
9.475318453e-06
1.989457219e-13
1.583262197e-12
9.475314352e-06
3.648725705e-13
1.247677576e-13
9.475315579e-06
7.275000393e-13
-3.762367802e-14
9.475314394e-06
-9.046771153e-13
-3.020668176e-13
9.475313684e-06
1.524728718e-12
1.115465619e-12
9.475307811e-06
1.674961433e-13
1.285122244e-12
9.475300104e-06
6.989048809e-12
5.59352578e-12
9.475273105e-06
2.04908546e-12
7.834024922e-12
9.475233259e-06
3.451407598e-11
2.419735951e-11