/*--------------------------------*- C++ -*----------------------------------*\
| =========                 |                                                 |
| \\      /  F ield         | OpenFOAM: The Open Source CFD Toolbox           |
|  \\    /   O peration     | Version:  4.x                                   |
|   \\  /    A nd           | Web:      www.OpenFOAM.org                      |
|    \\/     M anipulation  |                                                 |
\*---------------------------------------------------------------------------*/
FoamFile
{
    version     2.0;
    format      ascii;
    class       volScalarField;
    location    "5000";
    object      rhoeps;
}
// * * * * * * * * * * * * * * * * * * * * * * * * * * * * * * * * * * * * * //

dimensions      [1 -3 0 0 0 0 0];

internalField   nonuniform List<scalar> 
1175
(
0.2790917909
0.2790917756
0.2790917885
0.2790918145
0.2790917962
0.2790917749
0.2790917584
0.2790917349
0.2790917315
0.2790917229
0.2790917539
0.2790917537
0.2790917834
0.2790918584
0.2790919432
0.2790905083
0.2790905011
0.2790905498
0.2790905609
0.2790905305
0.2790905378
0.2790905171
0.2790905456
0.2790905385
0.2790905658
0.2790905726
0.2790906427
0.2790906832
0.2790907943
0.2790910536
0.279091684
0.279091651
0.2790916393
0.2790916161
0.2790916209
0.2790916406
0.2790916446
0.2790916226
0.2790915958
0.279091614
0.279091632
0.2790916545
0.2790917702
0.279092019
0.2790925192
0.2790919108
0.2790919201
0.2790919102
0.2790919493
0.2790919416
0.2790919484
0.2790919168
0.2790919316
0.279091933
0.2790919443
0.2790919742
0.2790920522
0.2790922199
0.2790926487
0.2790934972
0.279092183
0.2790921437
0.279092131
0.2790921173
0.2790921158
0.2790921482
0.2790921309
0.2790921182
0.2790921251
0.2790921167
0.2790921747
0.2790922615
0.2790924622
0.279093035
0.2790941638
0.2790917047
0.2790917011
0.2790917088
0.2790917216
0.2790917036
0.2790916968
0.2790916957
0.2790917022
0.2790916902
0.2790916938
0.2790917169
0.2790918
0.2790919601
0.2790923752
0.2790932375
0.2790912535
0.2790912552
0.2790912464
0.2790912685
0.2790912757
0.2790912571
0.2790912339
0.2790912419
0.2790912409
0.2790912187
0.2790912234
0.2790912676
0.2790913878
0.2790916522
0.2790921333
0.2790924514
0.2790924325
0.2790924154
0.2790923988
0.27909238
0.2790923756
0.279092401
0.2790924004
0.279092386
0.2790924143
0.2790923908
0.2790924146
0.2790924732
0.2790926315
0.2790928723
0.2790919485
0.2790919711
0.2790919862
0.2790919768
0.2790919876
0.2790920205
0.279092017
0.2790919915
0.2790919932
0.2790919761
0.2790919987
0.2790919858
0.2790920077
0.2790920643
0.2790922061
0.2790916927
0.2790916763
0.2790916716
0.2790916421
0.2790916365
0.2790916738
0.2790916516
0.2790916548
0.2790916674
0.2790916695
0.2790916589
0.279091692
0.2790917502
0.2790918929
0.2790929758
0.2790929632
0.2790929239
0.2790929624
0.2790929548
0.2790929657
0.2790929847
0.2790930182
0.279093011
0.2790930278
0.2790930352
0.2790930501
0.2790931407
0.2790933255
0.2790938294
0.2790922099
0.2790921824
0.2790921856
0.2790922222
0.2790921933
0.2790922178
0.2790922199
0.2790921501
0.2790921267
0.2790921156
0.279092144
0.2790922368
0.2790924727
0.2790930285
0.2790941284
0.279092373
0.279092381
0.2790923691
0.2790923868
0.2790923856
0.2790923775
0.2790923878
0.2790923948
0.2790924
0.2790924498
0.2790924986
0.2790926486
0.2790930563
0.2790941842
0.279096548
0.2790900941
0.2790901019
0.2790901281
0.279090115
0.2790901403
0.279090138
0.2790901461
0.2790900967
0.2790901284
0.2790901142
0.2790901308
0.2790903216
0.2790909572
0.279092708
0.279096451
0.2790915102
0.2790915625
0.2790915422
0.2790915685
0.27909158
0.2790916241
0.2790916579
0.2790916579
0.2790916479
0.2790916789
0.2790916831
0.279091813
0.2790922444
0.2790934376
0.2790957858
0.2790921132
0.2790921001
0.2790920512
0.279092036
0.2790920453
0.2790920426
0.2790920509
0.2790920679
0.2790920666
0.2790920269
0.279092074
0.2790921645
0.2790924196
0.2790929384
0.2790940725
0.279091177
0.279091212
0.2790912177
0.2790912487
0.2790912201
0.2790912361
0.2790912917
0.2790912998
0.2790913441
0.2790913305
0.2790913667
0.2790914345
0.2790915499
0.2790917661
0.2790922591
0.2790915594
0.2790915912
0.2790915646
0.2790915668
0.2790915481
0.2790915613
0.2790915192
0.2790915131
0.2790915172
0.2790915218
0.2790915079
0.2790915457
0.2790916408
0.2790917566
0.2790919827
0.2790916486
0.2790916474
0.2790915989
0.279091615
0.2790916107
0.2790916352
0.279091603
0.2790916379
0.2790916465
0.2790916612
0.2790916911
0.2790916798
0.2790917979
0.2790920412
0.2790903983
0.279090407
0.279090424
0.2790904002
0.2790903856
0.2790903662
0.2790903912
0.2790903841
0.2790903591
0.2790904111
0.2790903761
0.279090475
0.2790907596
0.2790913585
0.2790918196
0.2790918445
0.2790917876
0.2790918224
0.2790918046
0.2790917509
0.279091726
0.2790917205
0.2790917584
0.279091772
0.2790917985
0.2790920092
0.2790925931
0.2790941277
0.2790972503
0.2790905839
0.2790906154
0.2790906012
0.2790905919
0.2790906032
0.2790905772
0.2790906119
0.2790906104
0.2790906392
0.2790906076
0.2790907028
0.2790910985
0.2790923894
0.2790962065
0.2791046419
0.2790909596
0.279090927
0.2790909388
0.2790909648
0.2790909559
0.2790909411
0.2790909256
0.2790909445
0.2790909678
0.2790909703
0.2790910988
0.2790916745
0.2790937895
0.2791008528
0.2791184763
0.279091874
0.2790918769
0.2790918387
0.2790918757
0.2790918681
0.2790918282
0.2790918504
0.2790918197
0.2790918462
0.2790918787
0.2790919681
0.279092312
0.2790936057
0.2790974533
0.2791058603
0.2790908473
0.2790908431
0.2790908485
0.279090858
0.2790908382
0.2790908465
0.2790908516
0.2790908669
0.2790908694
0.2790908362
0.2790909043
0.2790910556
0.2790915819
0.2790930581
0.2790962537
0.2790925974
0.2790926069
0.2790925893
0.2790926394
0.2790926541
0.2790926771
0.2790926329
0.2790926401
0.2790926508
0.2790926696
0.2790926458
0.2790927412
0.2790929602
0.2790935634
0.2790946641
0.2790920008
0.2790919992
0.2790919703
0.2790919549
0.2790919632
0.2790919814
0.2790919844
0.279091967
0.279091945
0.2790919295
0.27909195
0.2790920029
0.2790921075
0.2790922953
0.2790928046
0.2790921479
0.2790921745
0.2790921628
0.2790921572
0.2790921374
0.2790921293
0.279092174
0.2790921559
0.2790921089
0.2790921127
0.2790921219
0.2790922029
0.2790923678
0.2790927619
0.2790921315
0.2790921343
0.2790921132
0.2790921043
0.2790920753
0.2790920919
0.2790921009
0.2790920862
0.2790921014
0.2790920839
0.2790921022
0.2790922775
0.2790926936
0.2790938137
0.2790919367
0.279091901
0.279091907
0.2790919075
0.2790919159
0.2790919274
0.2790919322
0.2790919006
0.2790919615
0.2790919655
0.2790920861
0.279092486
0.2790937658
0.2790975918
0.2790903746
0.2790903895
0.2790904029
0.2790904529
0.279090462
0.2790904548
0.2790903914
0.2790903254
0.2790903844
0.2790904278
0.2790906397
0.2790915483
0.2790950614
0.2791072759
0.2791385133
0.2790927144
0.2790927302
0.2790927061
0.2790926995
0.2790926946
0.2790926576
0.279092702
0.2790926733
0.2790926885
0.2790927716
0.2790931208
0.2790946039
0.2791014766
0.2791315981
0.2792374331
0.2790920582
0.2790920568
0.2790920793
0.2790920663
0.2790920964
0.2790920921
0.2790921218
0.2790921565
0.279092157
0.2790922182
0.2790924517
0.2790933488
0.2790968991
0.2791091352
0.2791403813
0.2790921842
0.279092214
0.2790922296
0.2790922057
0.2790922041
0.2790922289
0.279092248
0.2790922035
0.2790921953
0.279092167
0.2790922614
0.2790926785
0.2790939672
0.2790977921
0.2791062281
0.2790907682
0.2790907737
0.2790907784
0.2790907735
0.2790907812
0.2790907532
0.2790907972
0.2790907992
0.2790908246
0.2790908252
0.2790908631
0.2790910505
0.2790914959
0.2790926791
0.2790950253
0.2790918758
0.2790918666
0.2790918301
0.279091873
0.2790918581
0.2790918396
0.2790918605
0.2790918641
0.2790918641
0.2790918912
0.2790919311
0.2790919839
0.2790921443
0.2790925691
0.2790934309
0.2790917262
0.2790917069
0.2790916807
0.2790916825
0.2790916737
0.2790916653
0.2790916917
0.2790916961
0.2790917019
0.2790916972
0.2790917264
0.2790918056
0.2790920407
0.2790926004
0.2790913337
0.2790912869
0.2790913117
0.2790912895
0.2790912873
0.2790912708
0.2790913016
0.279091277
0.2790912989
0.2790913219
0.2790913671
0.2790915709
0.2790921907
0.2790939108
0.2790913912
0.2790913933
0.2790913902
0.2790914588
0.2790914646
0.2790914118
0.2790913924
0.279091429
0.2790914622
0.2790915153
0.2790916659
0.2790921857
0.2790943673
0.2791014521
0.2790917426
0.2790917648
0.2790917514
0.2790917575
0.2790917381
0.2790917769
0.2790917873
0.279091803
0.279091805
0.2790918684
0.2790921629
0.2790936499
0.2791005756
0.2791307467
0.2790919166
0.2790919643
0.2790919513
0.279091943
0.2790918877
0.2790919203
0.2790919194
0.2790919331
0.2790919874
0.2790920622
0.2790925673
0.2790954172
0.2791128259
0.2792256998
0.2801206124
0.2790920757
0.2790920644
0.2790920547
0.2790920932
0.2790921173
0.279092112
0.2790920694
0.279092024
0.2790920062
0.2790920604
0.2790923754
0.2790938905
0.2791007794
0.2791309878
0.2792368007
0.2790911591
0.2790911805
0.2790911711
0.2790911809
0.2790911805
0.2790911534
0.2790911703
0.2790911318
0.2790911511
0.279091207
0.2790913333
0.2790918916
0.2790939925
0.2791011193
0.2791187287
0.2790922125
0.279092164
0.2790922045
0.2790921895
0.2790921762
0.2790921204
0.2790921136
0.2790921577
0.2790921696
0.279092179
0.2790922696
0.2790924053
0.2790930639
0.2790948006
0.2790984424
0.27909194
0.2790919383
0.2790919465
0.2790919439
0.2790919596
0.2790919516
0.2790919111
0.2790919373
0.2790919157
0.2790919066
0.279091956
0.2790920371
0.2790922506
0.2790928149
0.2790939307
0.2790905611
0.279090551
0.2790905317
0.2790905441
0.2790905613
0.2790905571
0.2790905492
0.2790905431
0.2790905869
0.2790905791
0.2790906252
0.2790907067
0.2790908673
0.279091299
0.2790915695
0.2790915853
0.2790916053
0.2790916328
0.2790916471
0.2790916518
0.2790916318
0.2790916509
0.279091636
0.279091612
0.2790916018
0.2790917371
0.2790921406
0.279093307
0.2790911487
0.2790911
0.2790911053
0.2790910841
0.2790910614
0.2790910657
0.2790910401
0.2790910266
0.2790910609
0.2790911079
0.2790911953
0.2790916067
0.2790929264
0.2790967508
0.2790926809
0.2790926624
0.2790926506
0.2790926295
0.2790926209
0.2790926431
0.2790926514
0.2790926429
0.2790926681
0.2790927169
0.2790929509
0.2790938306
0.2790973281
0.2791094992
0.2790907684
0.2790907602
0.2790907646
0.279090795
0.2790908169
0.27909082
0.2790908716
0.2790908242
0.2790908355
0.2790909182
0.2790912168
0.2790927351
0.2790996314
0.27912984
0.2790926169
0.279092592
0.2790925897
0.2790925986
0.27909259
0.2790925958
0.2790926226
0.2790926415
0.2790926545
0.2790926823
0.2790928942
0.2790937653
0.279097324
0.2791095463
0.2790917682
0.2790917257
0.2790917316
0.279091758
0.2790916968
0.2790916912
0.279091688
0.2790916524
0.2790916324
0.2790916637
0.2790917763
0.2790921193
0.2790934227
0.2790972425
0.2791056478
0.2790910566
0.2790910479
0.2790910558
0.2790910741
0.279091113
0.279091109
0.2790911462
0.27909115
0.2790911351
0.2790911448
0.2790911665
0.2790913111
0.2790917869
0.2790929725
0.2790953791
0.2790918873
0.2790919295
0.2790919157
0.2790919337
0.2790919363
0.2790919115
0.2790919211
0.2790919464
0.2790919417
0.2790919453
0.2790919765
0.2790920483
0.279092198
0.2790926044
0.2790934038
0.2790919861
0.2790920087
0.279091988
0.2790919999
0.2790919598
0.2790919639
0.2790919881
0.2790919878
0.2790920099
0.2790920216
0.2790920551
0.279092055
0.2790921861
0.2790924191
0.2790922199
0.2790922012
0.2790921565
0.2790921605
0.2790921079
0.2790921159
0.2790921003
0.2790921307
0.2790921166
0.2790921274
0.2790921855
0.2790922657
0.2790924893
0.2790930412
0.2790909729
0.2790909832
0.2790909649
0.2790909236
0.2790909215
0.2790909424
0.2790909424
0.2790909318
0.2790909777
0.2790910363
0.2790910627
0.2790912508
0.2790918607
0.2790933773
0.2790915386
0.2790915415
0.2790915443
0.2790916044
0.2790915866
0.2790915918
0.2790915955
0.2790915757
0.279091583
0.2790915786
0.2790917103
0.2790920555
0.2790933842
0.2790971972
0.2790917092
0.2790917321
0.2790917038
0.2790917147
0.279091754
0.279091733
0.2790917423
0.2790917323
0.2790917548
0.2790918122
0.2790919351
0.2790925262
0.2790946307
0.2791017305
0.2790914775
0.2790914727
0.279091458
0.2790914472
0.2790914658
0.2790915278
0.2790914903
0.2790915109
0.2790915145
0.27909153
0.2790916101
0.2790919756
0.2790932833
0.2790970753
0.2790916575
0.2790916558
0.2790916792
0.2790916401
0.279091599
0.2790915704
0.2790916094
0.2790916139
0.2790916783
0.2790916835
0.2790917156
0.2790919028
0.2790924978
0.2790940439
0.2790913412
0.2790913088
0.279091304
0.279091321
0.2790913273
0.2790912821
0.2790912816
0.2790912347
0.2790912173
0.279091252
0.2790912883
0.2790913569
0.2790916042
0.2790921553
0.2790932912
0.2790919572
0.2790919166
0.2790918827
0.2790918698
0.279091933
0.2790919003
0.2790919071
0.279091924
0.2790919273
0.2790918763
0.2790918976
0.279091956
0.2790920711
0.2790923058
0.2790927738
0.2790917509
0.2790917239
0.2790917473
0.2790917121
0.279091721
0.2790916982
0.2790917084
0.2790917125
0.2790916941
0.2790917135
0.2790917153
0.2790917378
0.2790917789
0.2790919547
0.2790918217
0.2790918205
0.2790918536
0.2790918289
0.2790918359
0.2790917744
0.2790917355
0.279091757
0.2790917875
0.2790917878
0.2790917864
0.2790918233
0.2790919054
0.2790921609
0.279091815
0.2790918596
0.279091871
0.2790918533
0.2790919249
0.2790919245
0.2790919104
0.2790918847
0.2790918867
0.2790918908
0.279091911
0.2790920344
0.2790922681
0.2790928779
0.279091418
0.2790914352
0.2790914462
0.2790914597
0.2790914837
0.279091463
0.2790914418
0.2790914696
0.2790914904
0.2790914848
0.2790915415
0.2790916972
0.2790921318
0.279093278
0.2790923321
0.2790923564
0.2790923657
0.2790923942
0.2790924294
0.2790924023
0.2790924232
0.2790923789
0.2790923689
0.2790924286
0.2790924901
0.2790927063
0.2790932896
0.2790950063
0.2790916031
0.2790915805
0.2790915929
0.27909162
0.2790916333
0.2790916845
0.2790917071
0.2790916921
0.2790916923
0.279091711
0.2790917372
0.2790918154
0.2790922415
0.2790933871
0.2790936578
0.2790936358
0.2790936468
0.2790936552
0.2790936609
0.2790936477
0.2790936086
0.2790935831
0.2790936365
0.2790936757
0.2790937083
0.2790937471
0.2790939765
0.2790945646
0.2790935148
0.2790935166
0.2790935372
0.2790935678
0.2790935824
0.2790935389
0.2790935675
0.2790935948
0.279093633
0.279093622
0.279093652
0.2790936827
0.2790938362
0.2790940379
0.2790920755
0.2790920787
0.279092042
0.2790920742
0.27909207
0.2790920785
0.2790920574
0.2790920857
0.2790920591
0.2790920587
0.2790920385
0.2790920486
0.27909211
0.2790922393
0.2790924875
0.2790923865
0.2790923797
0.2790924013
0.2790924084
0.2790924308
0.2790924424
0.279092416
0.2790924489
0.2790924585
0.2790924622
0.2790924759
0.2790924871
0.2790925131
0.2790925574
0.2790913743
0.2790913583
0.2790913635
0.2790913723
0.2790913052
0.2790912903
0.2790913159
0.2790913061
0.2790913176
0.2790912939
0.2790913243
0.2790913558
0.2790913994
0.2790914829
0.279091332
0.279091346
0.2790913271
0.2790913122
0.2790913136
0.2790913086
0.279091272
0.2790912776
0.2790912826
0.2790912803
0.2790912807
0.2790912817
0.2790914299
0.2790916461
0.2790919823
0.2790919458
0.2790919174
0.2790919429
0.2790919001
0.2790919201
0.2790918998
0.2790919217
0.2790919245
0.2790919243
0.2790919092
0.2790919754
0.2790921534
0.2790925581
0.2790924255
0.2790924277
0.2790924452
0.2790924081
0.2790924384
0.2790924693
0.279092457
0.2790924689
0.2790925038
0.2790925274
0.2790925527
0.2790926383
0.2790928805
0.2790934361
0.2790921641
0.2790921778
0.2790921947
0.2790921573
0.2790921674
0.2790922174
0.2790922074
0.2790922404
0.2790922691
0.2790922428
0.2790922667
0.2790923437
0.2790924928
0.2790928972
0.2790919208
0.2790919441
0.2790919532
0.279091954
0.2790919307
0.2790919109
0.2790919138
0.2790918923
0.2790918543
0.2790918178
0.2790918274
0.2790918604
0.27909195
0.2790921827
0.2790912751
0.2790913157
0.2790913197
0.2790913047
0.2790912852
0.2790913025
0.2790913081
0.2790912817
0.2790913044
0.2790912915
0.2790912758
0.2790912871
0.2790913261
0.2790914535
0.2790918834
0.2790919
0.279091915
0.2790919192
0.2790919101
0.2790918898
0.2790918921
0.2790919122
0.279091917
0.2790919256
0.2790919286
0.2790919375
0.2790919536
0.2790920262
)
;

boundaryField
{
    top
    {
        type            calculated;
        value           nonuniform List<scalar> 
134
(
0.2790919485
0.2790915594
0.2790920008
0.2790918758
0.27909194
0.2790918873
0.2790919572
0.2790920755
0.2790918834
0.2790919711
0.2790915912
0.2790919992
0.2790918666
0.2790919383
0.2790919295
0.2790919166
0.2790920787
0.2790919
0.2790919862
0.2790915646
0.2790919703
0.2790918301
0.2790919465
0.2790919157
0.2790918827
0.279092042
0.279091915
0.2790919768
0.2790915668
0.2790919549
0.279091873
0.2790919439
0.2790919337
0.2790918698
0.2790920742
0.2790919192
0.2790919876
0.2790915481
0.2790919632
0.2790918581
0.2790919596
0.2790919363
0.279091933
0.27909207
0.2790919101
0.2790920205
0.2790915613
0.2790919814
0.2790918396
0.2790919516
0.2790919115
0.2790919003
0.2790920785
0.2790918898
0.279092017
0.2790915192
0.2790919844
0.2790918605
0.2790919111
0.2790919211
0.2790919071
0.2790920574
0.2790918921
0.2790919915
0.2790915131
0.279091967
0.2790918641
0.2790919373
0.2790919464
0.279091924
0.2790920857
0.2790919122
0.2790919932
0.2790915172
0.279091945
0.2790918641
0.2790919157
0.2790919417
0.2790919273
0.2790920591
0.279091917
0.2790919761
0.2790915218
0.2790919295
0.2790918912
0.2790919066
0.2790919453
0.2790918763
0.2790920587
0.2790919256
0.2790919987
0.2790915079
0.27909195
0.2790919311
0.279091956
0.2790919765
0.2790918976
0.2790920385
0.2790919286
0.2790919858
0.2790915457
0.2790920029
0.2790919839
0.2790920371
0.2790920483
0.279091956
0.2790920486
0.2790919375
0.2790920077
0.2790916408
0.2790921075
0.2790921443
0.2790922506
0.279092198
0.2790920711
0.27909211
0.2790919536
0.2790920643
0.2790917566
0.2790922953
0.2790925691
0.2790928149
0.2790926044
0.2790923058
0.2790922393
0.2790920262
0.2790922061
0.2790919827
0.2790928046
0.2790934309
0.2790939307
0.2790934038
0.2790927738
0.2790924875
)
;
    }
    bottom
    {
        type            calculated;
        value           nonuniform List<scalar> 
127
(
0.2790917909
0.2790916927
0.2790916486
0.2790921479
0.2790917262
0.2790905611
0.2790919861
0.2790917509
0.2790923865
0.2790917756
0.2790916763
0.2790916474
0.2790921745
0.2790917069
0.279090551
0.2790920087
0.2790917239
0.2790923797
0.2790917885
0.2790916716
0.2790915989
0.2790921628
0.2790916807
0.2790905317
0.279091988
0.2790917473
0.2790924013
0.2790918145
0.2790916421
0.279091615
0.2790921572
0.2790916825
0.2790905441
0.2790919999
0.2790917121
0.2790924084
0.2790917962
0.2790916365
0.2790916107
0.2790921374
0.2790916737
0.2790905613
0.2790919598
0.279091721
0.2790924308
0.2790917749
0.2790916738
0.2790916352
0.2790921293
0.2790916653
0.2790905571
0.2790919639
0.2790916982
0.2790924424
0.2790917584
0.2790916516
0.279091603
0.279092174
0.2790916917
0.2790905492
0.2790919881
0.2790917084
0.279092416
0.2790917349
0.2790916548
0.2790916379
0.2790921559
0.2790916961
0.2790905431
0.2790919878
0.2790917125
0.2790924489
0.2790917315
0.2790916674
0.2790916465
0.2790921089
0.2790917019
0.2790905869
0.2790920099
0.2790916941
0.2790924585
0.2790917229
0.2790916695
0.2790916612
0.2790921127
0.2790916972
0.2790905791
0.2790920216
0.2790917135
0.2790924622
0.2790917539
0.2790916589
0.2790916911
0.2790921219
0.2790917264
0.2790906252
0.2790920551
0.2790917153
0.2790924759
0.2790917537
0.279091692
0.2790916798
0.2790922029
0.2790918056
0.2790907067
0.279092055
0.2790917378
0.2790924871
0.2790917834
0.2790917502
0.2790917979
0.2790923678
0.2790920407
0.2790908673
0.2790921861
0.2790917789
0.2790925131
0.2790918584
0.2790918929
0.2790920412
0.2790927619
0.2790926004
0.279091299
0.2790924191
0.2790919547
0.2790925574
0.2790919432
)
;
    }
    side-walls
    {
        type            calculated;
        value           nonuniform List<scalar> 
261
(
0.2790917909
0.2790905083
0.279091684
0.2790919108
0.279092183
0.2790917047
0.2790912535
0.2790924514
0.2790919485
0.2790917756
0.2790905011
0.279091651
0.2790919201
0.2790921437
0.2790917011
0.2790912552
0.2790924325
0.2790919711
0.2790917885
0.2790905498
0.2790916393
0.2790919102
0.279092131
0.2790917088
0.2790912464
0.2790924154
0.2790919862
0.2790918145
0.2790905609
0.2790916161
0.2790919493
0.2790921173
0.2790917216
0.2790912685
0.2790923988
0.2790919768
0.2790917962
0.2790905305
0.2790916209
0.2790919416
0.2790921158
0.2790917036
0.2790912757
0.27909238
0.2790919876
0.2790917749
0.2790905378
0.2790916406
0.2790919484
0.2790921482
0.2790916968
0.2790912571
0.2790923756
0.2790920205
0.2790917584
0.2790905171
0.2790916446
0.2790919168
0.2790921309
0.2790916957
0.2790912339
0.279092401
0.279092017
0.2790917349
0.2790905456
0.2790916226
0.2790919316
0.2790921182
0.2790917022
0.2790912419
0.2790924004
0.2790919915
0.2790917315
0.2790905385
0.2790915958
0.279091933
0.2790921251
0.2790916902
0.2790912409
0.279092386
0.2790919932
0.2790917229
0.2790905658
0.279091614
0.2790919443
0.2790921167
0.2790916938
0.2790912187
0.2790924143
0.2790919761
0.2790917539
0.2790905726
0.279091632
0.2790919742
0.2790921747
0.2790917169
0.2790912234
0.2790923908
0.2790919987
0.2790917537
0.2790906427
0.2790916545
0.2790920522
0.2790922615
0.2790918
0.2790912676
0.2790924146
0.2790919858
0.2790917834
0.2790906832
0.2790917702
0.2790922199
0.2790924622
0.2790919601
0.2790913878
0.2790924732
0.2790920077
0.2790918584
0.2790907943
0.279092019
0.2790926487
0.279093035
0.2790923752
0.2790916522
0.2790926315
0.2790920643
0.2790919432
0.2790910536
0.2790925192
0.2790934972
0.2790941638
0.2790932375
0.2790921333
0.2790928723
0.2790922061
0.2790923865
0.2790913743
0.279091332
0.2790919823
0.2790924255
0.2790921641
0.2790919208
0.2790912751
0.2790918834
0.2790923797
0.2790913583
0.279091346
0.2790919458
0.2790924277
0.2790921778
0.2790919441
0.2790913157
0.2790919
0.2790924013
0.2790913635
0.2790913271
0.2790919174
0.2790924452
0.2790921947
0.2790919532
0.2790913197
0.279091915
0.2790924084
0.2790913723
0.2790913122
0.2790919429
0.2790924081
0.2790921573
0.279091954
0.2790913047
0.2790919192
0.2790924308
0.2790913052
0.2790913136
0.2790919001
0.2790924384
0.2790921674
0.2790919307
0.2790912852
0.2790919101
0.2790924424
0.2790912903
0.2790913086
0.2790919201
0.2790924693
0.2790922174
0.2790919109
0.2790913025
0.2790918898
0.279092416
0.2790913159
0.279091272
0.2790918998
0.279092457
0.2790922074
0.2790919138
0.2790913081
0.2790918921
0.2790924489
0.2790913061
0.2790912776
0.2790919217
0.2790924689
0.2790922404
0.2790918923
0.2790912817
0.2790919122
0.2790924585
0.2790913176
0.2790912826
0.2790919245
0.2790925038
0.2790922691
0.2790918543
0.2790913044
0.279091917
0.2790924622
0.2790912939
0.2790912803
0.2790919243
0.2790925274
0.2790922428
0.2790918178
0.2790912915
0.2790919256
0.2790924759
0.2790913243
0.2790912807
0.2790919092
0.2790925527
0.2790922667
0.2790918274
0.2790912758
0.2790919286
0.2790924871
0.2790913558
0.2790912817
0.2790919754
0.2790926383
0.2790923437
0.2790918604
0.2790912871
0.2790919375
0.2790925131
0.2790913994
0.2790914299
0.2790921534
0.2790928805
0.2790924928
0.27909195
0.2790913261
0.2790919536
0.2790925574
0.2790914829
0.2790916461
0.2790925581
0.2790934361
0.2790928972
0.2790921827
0.2790914535
0.2790920262
)
;
    }
    inlet
    {
        type            calculated;
        value           nonuniform List<scalar> 
81
(
0.2790917909
0.2790905083
0.279091684
0.2790919108
0.279092183
0.2790917047
0.2790912535
0.2790924514
0.2790919485
0.2790916927
0.2790929758
0.2790922099
0.279092373
0.2790900941
0.2790915102
0.2790921132
0.279091177
0.2790915594
0.2790916486
0.2790903983
0.2790918196
0.2790905839
0.2790909596
0.279091874
0.2790908473
0.2790925974
0.2790920008
0.2790921479
0.2790921315
0.2790919367
0.2790903746
0.2790927144
0.2790920582
0.2790921842
0.2790907682
0.2790918758
0.2790917262
0.2790913337
0.2790913912
0.2790917426
0.2790919166
0.2790920757
0.2790911591
0.2790922125
0.27909194
0.2790905611
0.2790915695
0.2790911487
0.2790926809
0.2790907684
0.2790926169
0.2790917682
0.2790910566
0.2790918873
0.2790919861
0.2790922199
0.2790909729
0.2790915386
0.2790917092
0.2790914775
0.2790916575
0.2790913412
0.2790919572
0.2790917509
0.2790918217
0.279091815
0.279091418
0.2790923321
0.2790916031
0.2790936578
0.2790935148
0.2790920755
0.2790923865
0.2790913743
0.279091332
0.2790919823
0.2790924255
0.2790921641
0.2790919208
0.2790912751
0.2790918834
)
;
    }
    outlet
    {
        type            calculated;
        value           nonuniform 0();
    }
    procBoundary0to1
    {
        type            processor;
        value           nonuniform List<scalar> 
97
(
0.2790921989
0.2790920913
0.2790914347
0.2790933034
0.2790947946
0.2790957772
0.2790945362
0.2790928739
0.2790932697
0.2790924854
0.2790920913
0.2790920913
0.2790946167
0.2790924306
0.2790958391
0.2790997411
0.279100829
0.2790990152
0.279095754
0.2790930697
0.2790923897
0.279092548
0.2790924306
0.2790924306
0.2791014687
0.2791060472
0.2791137844
0.2791317086
0.2791149926
0.2791005104
0.2790963248
0.2790935684
0.2790935967
0.2790961785
0.2791060472
0.2791060472
0.2791596524
0.2792366044
0.2792535544
0.279161557
0.2791153721
0.2790982116
0.279094708
0.2790937053
0.2790976454
0.2791190672
0.2792366044
0.2792366044
0.2810789572
0.2792356598
0.2792530398
0.2791408258
0.2791319518
0.2791029006
0.2790956386
0.2790921579
0.279095702
0.2791051607
0.2791407253
0.2792356598
0.2791408258
0.2791408258
0.2791147388
0.2790971376
0.2790985459
0.2790946963
0.2790929656
0.2790941857
0.279096478
0.2791056061
0.279119361
0.2791054945
0.2790971376
0.2790971376
0.2790949507
0.2790945044
0.2790935862
0.2790921593
0.279092612
0.2790939912
0.2790956219
0.2790987069
0.2790957273
0.2790957396
0.2790945044
0.2790945044
0.2790929248
0.2790922044
0.2790927033
0.2790917558
0.2790921444
0.2790934076
0.2790945614
0.2790937882
0.2790926522
0.2790916843
0.2790922044
)
;
    }
}


// ************************************************************************* //
