/*--------------------------------*- C++ -*----------------------------------*\
| =========                 |                                                 |
| \\      /  F ield         | OpenFOAM: The Open Source CFD Toolbox           |
|  \\    /   O peration     | Version:  4.x                                   |
|   \\  /    A nd           | Web:      www.OpenFOAM.org                      |
|    \\/     M anipulation  |                                                 |
\*---------------------------------------------------------------------------*/
FoamFile
{
    version     2.0;
    format      ascii;
    class       volScalarField;
    location    "5000";
    object      T;
}
// * * * * * * * * * * * * * * * * * * * * * * * * * * * * * * * * * * * * * //

dimensions      [0 0 0 1 0 0 0];

internalField   nonuniform List<scalar> 
1175
(
1223.149979
1223.150046
1223.149989
1223.149876
1223.149956
1223.150049
1223.150122
1223.150226
1223.150243
1223.150289
1223.150175
1223.150234
1223.150247
1223.150233
1223.150482
1223.1556
1223.155632
1223.155418
1223.15537
1223.155503
1223.155471
1223.155562
1223.155438
1223.155473
1223.155365
1223.15537
1223.155159
1223.155223
1223.155282
1223.15522
1223.150448
1223.150592
1223.150644
1223.150745
1223.150724
1223.150638
1223.150621
1223.150719
1223.150843
1223.150782
1223.150763
1223.150839
1223.15079
1223.150766
1223.150679
1223.149454
1223.149413
1223.149456
1223.149285
1223.149319
1223.149289
1223.149428
1223.149366
1223.149368
1223.149347
1223.149309
1223.149247
1223.149282
1223.149255
1223.14922
1223.148261
1223.148433
1223.148489
1223.148549
1223.148555
1223.148414
1223.14849
1223.148548
1223.148528
1223.148598
1223.148455
1223.14842
1223.148524
1223.148454
1223.148421
1223.150357
1223.150373
1223.150339
1223.150283
1223.150362
1223.150392
1223.150397
1223.150371
1223.150432
1223.150445
1223.150436
1223.150352
1223.15042
1223.150454
1223.150359
1223.152335
1223.152327
1223.152365
1223.152269
1223.152237
1223.152319
1223.152421
1223.152388
1223.152398
1223.152514
1223.152554
1223.152534
1223.152466
1223.152374
1223.15237
1223.147084
1223.147167
1223.147242
1223.147315
1223.147397
1223.147417
1223.147306
1223.14731
1223.147376
1223.147264
1223.147402
1223.147393
1223.147378
1223.14723
1223.14725
1223.149288
1223.149189
1223.149123
1223.149165
1223.149117
1223.148973
1223.148988
1223.149101
1223.149096
1223.149179
1223.149102
1223.149217
1223.149263
1223.14933
1223.149329
1223.15041
1223.150481
1223.150502
1223.150631
1223.150656
1223.150493
1223.15059
1223.150577
1223.150526
1223.150528
1223.150609
1223.15056
1223.150547
1223.150467
1223.144786
1223.144841
1223.145014
1223.144845
1223.144878
1223.144831
1223.144748
1223.144603
1223.14464
1223.144586
1223.144613
1223.144721
1223.144786
1223.145058
1223.144987
1223.148143
1223.148264
1223.148249
1223.148089
1223.148216
1223.148108
1223.1481
1223.148408
1223.148521
1223.148604
1223.148594
1223.148543
1223.148515
1223.148548
1223.148658
1223.147428
1223.147393
1223.147445
1223.147367
1223.147373
1223.147409
1223.147365
1223.147338
1223.14733
1223.147166
1223.147144
1223.147125
1223.147271
1223.147374
1223.147341
1223.157415
1223.157382
1223.157267
1223.157324
1223.157213
1223.157224
1223.157189
1223.15741
1223.157289
1223.157417
1223.157588
1223.157603
1223.157552
1223.157517
1223.157466
1223.151209
1223.15098
1223.151069
1223.150954
1223.150903
1223.15071
1223.150563
1223.150567
1223.150626
1223.150544
1223.150718
1223.150787
1223.150829
1223.150646
1223.150681
1223.148567
1223.148624
1223.148838
1223.148905
1223.148864
1223.148876
1223.148841
1223.148769
1223.148784
1223.148993
1223.1489
1223.14886
1223.148747
1223.148943
1223.148902
1223.152669
1223.152516
1223.152491
1223.152355
1223.152481
1223.152411
1223.152168
1223.152134
1223.151945
1223.152024
1223.151925
1223.151802
1223.151758
1223.151892
1223.151869
1223.150994
1223.150855
1223.150971
1223.150961
1223.151043
1223.150986
1223.151171
1223.151198
1223.151184
1223.151175
1223.151271
1223.151201
1223.151026
1223.151064
1223.151149
1223.150603
1223.150608
1223.150821
1223.15075
1223.150769
1223.150662
1223.150803
1223.150652
1223.15062
1223.150575
1223.150504
1223.150728
1223.150669
1223.150669
1223.156082
1223.156044
1223.15597
1223.156074
1223.156138
1223.156223
1223.156115
1223.156148
1223.156268
1223.156074
1223.156342
1223.156264
1223.156023
1223.155868
1223.149853
1223.149744
1223.149994
1223.149841
1223.149919
1223.150155
1223.150265
1223.150294
1223.150146
1223.150153
1223.150281
1223.150185
1223.150175
1223.150199
1223.150382
1223.155269
1223.155131
1223.155193
1223.155234
1223.155185
1223.155299
1223.155149
1223.155162
1223.155064
1223.155319
1223.155354
1223.155301
1223.155378
1223.155478
1223.155411
1223.153622
1223.153765
1223.153713
1223.1536
1223.153639
1223.153704
1223.153774
1223.153699
1223.153633
1223.15377
1223.153823
1223.153773
1223.153833
1223.153967
1223.154099
1223.149615
1223.149602
1223.14977
1223.149608
1223.149641
1223.149816
1223.149721
1223.149862
1223.149775
1223.149748
1223.149809
1223.149983
1223.150048
1223.150012
1223.150068
1223.154115
1223.154133
1223.15411
1223.154068
1223.154155
1223.154119
1223.154097
1223.154035
1223.154042
1223.154255
1223.1542
1223.154364
1223.154607
1223.154885
1223.154747
1223.146445
1223.146403
1223.14648
1223.146261
1223.146196
1223.146096
1223.14629
1223.146261
1223.146224
1223.146176
1223.146394
1223.146332
1223.146378
1223.146204
1223.14631
1223.149059
1223.149066
1223.149193
1223.14926
1223.149224
1223.149144
1223.149132
1223.14921
1223.149312
1223.149399
1223.14937
1223.149312
1223.149312
1223.149555
1223.149428
1223.148414
1223.148298
1223.148349
1223.148374
1223.148461
1223.148496
1223.148301
1223.148383
1223.148597
1223.148609
1223.148661
1223.148586
1223.148634
1223.148759
1223.148487
1223.148474
1223.148567
1223.148605
1223.148733
1223.14866
1223.148622
1223.14869
1223.148638
1223.148769
1223.148881
1223.148751
1223.148861
1223.148999
1223.14934
1223.149497
1223.14947
1223.149468
1223.149431
1223.149382
1223.149362
1223.149507
1223.149269
1223.149367
1223.149291
1223.149221
1223.149347
1223.14941
1223.156186
1223.156121
1223.156062
1223.155843
1223.155803
1223.155836
1223.156116
1223.156416
1223.156207
1223.156231
1223.156233
1223.156165
1223.15622
1223.156309
1223.156462
1223.145932
1223.145862
1223.145968
1223.145997
1223.146019
1223.146181
1223.14599
1223.146129
1223.146125
1223.146053
1223.145902
1223.145931
1223.146186
1223.146534
1223.142173
1223.148808
1223.148814
1223.148715
1223.148772
1223.148641
1223.14866
1223.148532
1223.148391
1223.148438
1223.148384
1223.148292
1223.148274
1223.148165
1223.148156
1223.148253
1223.148255
1223.148125
1223.148056
1223.148161
1223.148168
1223.14806
1223.147978
1223.14818
1223.148244
1223.148484
1223.148523
1223.148377
1223.148463
1223.148528
1223.148456
1223.154461
1223.154437
1223.154417
1223.154438
1223.154404
1223.154527
1223.154335
1223.15433
1223.154234
1223.154285
1223.154311
1223.154129
1223.154109
1223.15397
1223.154014
1223.149607
1223.149647
1223.149807
1223.149619
1223.149685
1223.149766
1223.149675
1223.149662
1223.14967
1223.14958
1223.149497
1223.149546
1223.149613
1223.149604
1223.149511
1223.150263
1223.150347
1223.150462
1223.150454
1223.150493
1223.15053
1223.150415
1223.150398
1223.150382
1223.150437
1223.15042
1223.150418
1223.150371
1223.150359
1223.151983
1223.152188
1223.152079
1223.152177
1223.152186
1223.152259
1223.152125
1223.152237
1223.152159
1223.152124
1223.152169
1223.152128
1223.152147
1223.152247
1223.151731
1223.151722
1223.151735
1223.151435
1223.151409
1223.151641
1223.151728
1223.151576
1223.151466
1223.151381
1223.151338
1223.151532
1223.151303
1223.151349
1223.150191
1223.150093
1223.150152
1223.150126
1223.150211
1223.150041
1223.149999
1223.149943
1223.149997
1223.150011
1223.1501
1223.150113
1223.150139
1223.150291
1223.149428
1223.149219
1223.149276
1223.149313
1223.149555
1223.149413
1223.14942
1223.149377
1223.149221
1223.149312
1223.149331
1223.149454
1223.149342
1223.149957
1216.902878
1223.148731
1223.148781
1223.148823
1223.148654
1223.148549
1223.148573
1223.148762
1223.148975
1223.149115
1223.149169
1223.149168
1223.149058
1223.149243
1223.149213
1223.144948
1223.152748
1223.152654
1223.152695
1223.152653
1223.152654
1223.152774
1223.152702
1223.152878
1223.152829
1223.152733
1223.152795
1223.152821
1223.152944
1223.1528
1223.152994
1223.148131
1223.148344
1223.148166
1223.148232
1223.148291
1223.148536
1223.148566
1223.148378
1223.148343
1223.148368
1223.148214
1223.148471
1223.14832
1223.148346
1223.148739
1223.149326
1223.149333
1223.149297
1223.149309
1223.14924
1223.149275
1223.149453
1223.149341
1223.149445
1223.149519
1223.149414
1223.149404
1223.149451
1223.149419
1223.149443
1223.155369
1223.155413
1223.155498
1223.155443
1223.155368
1223.155387
1223.155422
1223.155451
1223.155267
1223.15533
1223.155221
1223.155143
1223.15521
1223.155171
1223.150949
1223.15088
1223.150793
1223.150672
1223.150609
1223.150589
1223.150678
1223.150598
1223.150678
1223.150837
1223.151074
1223.15112
1223.151284
1223.15122
1223.152794
1223.153007
1223.152984
1223.153077
1223.153176
1223.153158
1223.153272
1223.153338
1223.153216
1223.153126
1223.153196
1223.153074
1223.153026
1223.153096
1223.146079
1223.14616
1223.146211
1223.146304
1223.146342
1223.146245
1223.146211
1223.146259
1223.146198
1223.146198
1223.146104
1223.146163
1223.146288
1223.146574
1223.15446
1223.154496
1223.154477
1223.154344
1223.154248
1223.154235
1223.154012
1223.154233
1223.154246
1223.154175
1223.154246
1223.154122
1223.154278
1223.154268
1223.146359
1223.146468
1223.146478
1223.146439
1223.146477
1223.146452
1223.146337
1223.146266
1223.146257
1223.14635
1223.146352
1223.146449
1223.146305
1223.146365
1223.150079
1223.150265
1223.150239
1223.150123
1223.150392
1223.150417
1223.150432
1223.150595
1223.150712
1223.15069
1223.150649
1223.150828
1223.15085
1223.150939
1223.151007
1223.153197
1223.153235
1223.153201
1223.153121
1223.15295
1223.152968
1223.152806
1223.152793
1223.152873
1223.152885
1223.152982
1223.152986
1223.152834
1223.152685
1223.152465
1223.149557
1223.149372
1223.149432
1223.149353
1223.149342
1223.149451
1223.149409
1223.149301
1223.14933
1223.149343
1223.149298
1223.149263
1223.149378
1223.149449
1223.14963
1223.149124
1223.149025
1223.149115
1223.149063
1223.149239
1223.149221
1223.149115
1223.149119
1223.149028
1223.148996
1223.148909
1223.149083
1223.148967
1223.149013
1223.148099
1223.148181
1223.148377
1223.148359
1223.14859
1223.148555
1223.148624
1223.148494
1223.148565
1223.148552
1223.148412
1223.148416
1223.148442
1223.148493
1223.153564
1223.153519
1223.153599
1223.15378
1223.15379
1223.153698
1223.153699
1223.15375
1223.153567
1223.153377
1223.153505
1223.153508
1223.153385
1223.153488
1223.151085
1223.151072
1223.15106
1223.150796
1223.150875
1223.150852
1223.150838
1223.150931
1223.150928
1223.151063
1223.150939
1223.151108
1223.15102
1223.15114
1223.150337
1223.150237
1223.150361
1223.150313
1223.150141
1223.150233
1223.150195
1223.150247
1223.150183
1223.15008
1223.150158
1223.150041
1223.150149
1223.150129
1223.151353
1223.151374
1223.151438
1223.151485
1223.151404
1223.151133
1223.151299
1223.151215
1223.151228
1223.151276
1223.151378
1223.151458
1223.151462
1223.151674
1223.150564
1223.150571
1223.150469
1223.15064
1223.15082
1223.150946
1223.150776
1223.150761
1223.150497
1223.150541
1223.150644
1223.150651
1223.150593
1223.150567
1223.15195
1223.152092
1223.152113
1223.152038
1223.152011
1223.152209
1223.152212
1223.15242
1223.152507
1223.152388
1223.152344
1223.152399
1223.152321
1223.152375
1223.152328
1223.14925
1223.149428
1223.149577
1223.149633
1223.149357
1223.1495
1223.149471
1223.149398
1223.14939
1223.149632
1223.149599
1223.149517
1223.149471
1223.149509
1223.149563
1223.150154
1223.150273
1223.15017
1223.150324
1223.150285
1223.150386
1223.150341
1223.150324
1223.150409
1223.150336
1223.150362
1223.150359
1223.150421
1223.150197
1223.149844
1223.149849
1223.149704
1223.149813
1223.149782
1223.150051
1223.150222
1223.15013
1223.150002
1223.15002
1223.150085
1223.150098
1223.1502
1223.150162
1223.149873
1223.149678
1223.149628
1223.149706
1223.149392
1223.149394
1223.149457
1223.149572
1223.149573
1223.149589
1223.149615
1223.14943
1223.149411
1223.149209
1223.151613
1223.151538
1223.15149
1223.151431
1223.151325
1223.151417
1223.15151
1223.151392
1223.151316
1223.151395
1223.151338
1223.151295
1223.151323
1223.151347
1223.147607
1223.147501
1223.14746
1223.147335
1223.147181
1223.1473
1223.14721
1223.147408
1223.147469
1223.147274
1223.147248
1223.147151
1223.147331
1223.147446
1223.150802
1223.150901
1223.150847
1223.150728
1223.15067
1223.150446
1223.150348
1223.150417
1223.150431
1223.150404
1223.15048
1223.150776
1223.150842
1223.150869
1223.141797
1223.141894
1223.141845
1223.141809
1223.141784
1223.141842
1223.142014
1223.142129
1223.141904
1223.141767
1223.141738
1223.141923
1223.141925
1223.141817
1223.142424
1223.142416
1223.142326
1223.142192
1223.142128
1223.142318
1223.142194
1223.142076
1223.141914
1223.141981
1223.141909
1223.141949
1223.141738
1223.141936
1223.148732
1223.148718
1223.148879
1223.148738
1223.148756
1223.148719
1223.148812
1223.148689
1223.148809
1223.148822
1223.148946
1223.148997
1223.14897
1223.148949
1223.148937
1223.147369
1223.147399
1223.147304
1223.147273
1223.147175
1223.147124
1223.14724
1223.147097
1223.147057
1223.147049
1223.147011
1223.14702
1223.147048
1223.147169
1223.151805
1223.151875
1223.151852
1223.151814
1223.152108
1223.152173
1223.152061
1223.152105
1223.152059
1223.152175
1223.152076
1223.152033
1223.152084
1223.152264
1223.15199
1223.151929
1223.152012
1223.152077
1223.152071
1223.152093
1223.152254
1223.152231
1223.152215
1223.152244
1223.152303
1223.152473
1223.152282
1223.152401
1223.14914
1223.1493
1223.149425
1223.149313
1223.1495
1223.149413
1223.149503
1223.149409
1223.149405
1223.149435
1223.149593
1223.149583
1223.149573
1223.149653
1223.147198
1223.147189
1223.147112
1223.147274
1223.147142
1223.147006
1223.147061
1223.147011
1223.146868
1223.146798
1223.146798
1223.146769
1223.146691
1223.146697
1223.148344
1223.148283
1223.14821
1223.148373
1223.148329
1223.14811
1223.148155
1223.148012
1223.147895
1223.148039
1223.148026
1223.147969
1223.148086
1223.148166
1223.14941
1223.149308
1223.149268
1223.149264
1223.149366
1223.149453
1223.149441
1223.149537
1223.149709
1223.149889
1223.149907
1223.149936
1223.150002
1223.150049
1223.15224
1223.152062
1223.152044
1223.15211
1223.152195
1223.15212
1223.152095
1223.152213
1223.152117
1223.152185
1223.152288
1223.152334
1223.152405
1223.152393
1223.149574
1223.149501
1223.149435
1223.149417
1223.149457
1223.149546
1223.149536
1223.149449
1223.14943
1223.1494
1223.149409
1223.149429
1223.1495
1223.149498
)
;

boundaryField
{
    top
    {
        type            zeroGradient;
    }
    bottom
    {
        type            zeroGradient;
    }
    side-walls
    {
        type            zeroGradient;
    }
    inlet
    {
        type            zeroGradient;
    }
    outlet
    {
        type            zeroGradient;
    }
    procBoundary0to1
    {
        type            processor;
        value           nonuniform List<scalar> 
97
(
1223.150442
1223.150673
1223.15537
1223.150669
1223.149248
1223.148595
1223.15038
1223.152551
1223.147327
1223.149186
1223.150673
1223.150673
1223.144986
1223.156099
1223.148593
1223.147432
1223.157711
1223.150612
1223.148965
1223.151765
1223.151184
1223.150553
1223.156099
1223.156099
1223.150415
1223.149258
1223.155402
1223.154121
1223.150104
1223.154613
1223.146463
1223.149507
1223.148785
1223.148962
1223.149258
1223.149258
1223.156646
1223.145887
1223.142421
1223.148291
1223.148441
1223.154134
1223.149627
1223.150432
1223.152234
1223.151522
1223.145887
1223.145887
1216.901716
1223.150023
1223.144676
1223.146328
1223.153056
1223.148633
1223.149203
1223.155091
1223.15105
1223.153139
1223.146766
1223.150023
1223.146328
1223.146328
1223.151219
1223.150876
1223.15267
1223.149679
1223.148723
1223.148407
1223.153766
1223.151187
1223.150234
1223.151676
1223.150876
1223.150876
1223.152486
1223.142029
1223.14943
1223.150375
1223.150322
1223.149259
1223.151401
1223.147582
1223.150939
1223.141597
1223.142029
1223.142029
1223.148839
1223.149337
1223.14715
1223.152143
1223.152322
1223.149613
1223.14668
1223.147945
1223.150096
1223.152456
1223.149337
)
;
    }
}


// ************************************************************************* //
