/*--------------------------------*- C++ -*----------------------------------*\
| =========                 |                                                 |
| \\      /  F ield         | OpenFOAM: The Open Source CFD Toolbox           |
|  \\    /   O peration     | Version:  4.x                                   |
|   \\  /    A nd           | Web:      www.OpenFOAM.org                      |
|    \\/     M anipulation  |                                                 |
\*---------------------------------------------------------------------------*/
FoamFile
{
    version     2.0;
    format      ascii;
    class       volScalarField;
    location    "10000";
    object      Cpv;
}
// * * * * * * * * * * * * * * * * * * * * * * * * * * * * * * * * * * * * * //

dimensions      [0 2 -2 -1 0 0 0];

internalField   nonuniform List<scalar> 
1175
(
1245.090992
1245.091005
1245.091008
1245.09101
1245.091016
1245.091
1245.091008
1245.091019
1245.091033
1245.091027
1245.091044
1245.091036
1245.090986
1245.091
1245.090993
1245.091194
1245.091198
1245.091222
1245.091198
1245.091215
1245.091174
1245.091176
1245.091175
1245.091187
1245.091202
1245.09119
1245.091202
1245.091196
1245.091177
1245.091192
1245.090984
1245.090973
1245.090971
1245.09098
1245.090987
1245.090972
1245.09097
1245.090955
1245.090929
1245.090943
1245.090967
1245.090978
1245.090995
1245.090972
1245.090967
1245.091773
1245.091786
1245.09176
1245.091785
1245.091784
1245.091813
1245.091857
1245.091859
1245.091845
1245.091813
1245.091796
1245.09179
1245.091775
1245.091749
1245.091713
1245.091134
1245.091144
1245.091138
1245.091129
1245.091113
1245.091109
1245.091096
1245.091093
1245.091091
1245.091093
1245.091106
1245.091075
1245.09109
1245.091094
1245.091051
1245.089921
1245.089936
1245.089914
1245.089907
1245.089904
1245.089901
1245.089897
1245.089885
1245.089887
1245.089869
1245.089862
1245.089856
1245.089851
1245.089834
1245.089813
1245.090015
1245.089998
1245.089998
1245.08999
1245.089978
1245.089988
1245.089951
1245.089981
1245.089949
1245.089955
1245.089965
1245.089995
1245.090007
1245.089985
1245.08997
1245.091045
1245.091044
1245.091033
1245.091009
1245.091027
1245.091018
1245.091011
1245.091002
1245.090996
1245.09101
1245.090998
1245.090995
1245.090961
1245.090952
1245.090922
1245.09106
1245.091042
1245.091047
1245.091031
1245.091036
1245.091028
1245.091043
1245.091056
1245.091031
1245.091023
1245.091045
1245.091025
1245.091024
1245.091041
1245.091021
1245.090586
1245.090605
1245.090618
1245.090625
1245.09061
1245.090588
1245.090598
1245.09061
1245.090605
1245.090626
1245.090602
1245.090607
1245.090616
1245.090597
1245.09115
1245.091152
1245.091144
1245.09114
1245.091171
1245.091179
1245.091178
1245.091154
1245.091163
1245.09117
1245.091156
1245.091143
1245.091162
1245.091143
1245.091152
1245.091468
1245.091459
1245.091453
1245.091458
1245.09146
1245.091476
1245.091507
1245.09151
1245.091509
1245.091516
1245.091499
1245.091517
1245.091512
1245.091514
1245.09148
1245.090681
1245.090682
1245.090673
1245.090687
1245.090673
1245.090666
1245.090648
1245.090627
1245.090626
1245.090628
1245.09064
1245.090658
1245.090627
1245.090617
1245.090555
1245.09075
1245.090768
1245.090766
1245.090755
1245.090785
1245.09077
1245.090761
1245.090788
1245.090777
1245.090761
1245.090732
1245.090708
1245.090709
1245.090636
1245.090521
1245.091518
1245.09155
1245.091545
1245.091552
1245.091571
1245.091593
1245.091594
1245.091621
1245.091612
1245.091648
1245.091642
1245.091634
1245.091592
1245.091563
1245.091497
1245.092473
1245.092463
1245.092431
1245.092439
1245.092443
1245.092456
1245.092458
1245.092463
1245.092469
1245.092475
1245.092461
1245.09244
1245.092445
1245.092414
1245.092351
1245.089874
1245.089875
1245.089874
1245.089874
1245.089861
1245.089864
1245.089848
1245.089858
1245.089865
1245.089858
1245.089882
1245.08987
1245.089835
1245.089833
1245.089834
1245.091106
1245.091121
1245.09113
1245.091143
1245.091143
1245.091158
1245.091138
1245.091156
1245.091159
1245.091163
1245.091131
1245.09113
1245.091147
1245.091146
1245.091128
1245.090753
1245.09075
1245.090731
1245.090741
1245.090744
1245.09074
1245.090729
1245.090744
1245.090748
1245.09074
1245.090743
1245.090724
1245.090737
1245.090724
1245.090758
1245.090748
1245.090743
1245.090722
1245.090739
1245.090788
1245.090784
1245.090783
1245.090782
1245.090792
1245.090777
1245.090757
1245.090738
1245.090706
1245.090809
1245.090796
1245.090804
1245.090787
1245.090763
1245.090764
1245.090788
1245.090796
1245.090822
1245.090828
1245.090808
1245.090776
1245.090757
1245.090691
1245.090606
1245.090728
1245.090721
1245.090741
1245.090743
1245.090749
1245.090757
1245.090759
1245.090747
1245.090781
1245.090765
1245.090784
1245.090755
1245.09068
1245.090521
1245.090255
1245.09133
1245.091322
1245.091326
1245.091315
1245.091312
1245.091318
1245.091326
1245.091357
1245.09138
1245.091369
1245.091395
1245.091373
1245.091318
1245.091072
1245.090491
1245.090203
1245.0902
1245.090212
1245.090228
1245.090263
1245.090256
1245.090246
1245.090257
1245.090241
1245.090231
1245.090237
1245.09022
1245.090163
1245.090042
1245.089774
1245.090494
1245.09049
1245.090516
1245.090515
1245.090509
1245.090506
1245.090508
1245.09051
1245.090527
1245.090546
1245.090568
1245.090538
1245.090539
1245.090474
1245.09036
1245.090612
1245.090616
1245.090589
1245.090588
1245.090558
1245.09059
1245.090598
1245.090597
1245.090583
1245.090596
1245.090618
1245.090621
1245.090629
1245.090634
1245.090563
1245.090422
1245.090412
1245.090428
1245.090424
1245.090414
1245.090397
1245.090387
1245.090393
1245.090377
1245.090373
1245.090379
1245.090362
1245.090358
1245.090351
1245.090336
1245.09046
1245.090468
1245.090463
1245.090466
1245.090466
1245.09049
1245.090488
1245.09048
1245.090504
1245.090499
1245.090492
1245.09051
1245.090505
1245.090486
1245.090483
1245.090498
1245.090466
1245.090463
1245.090488
1245.090484
1245.090481
1245.090473
1245.090478
1245.09048
1245.090472
1245.09046
1245.090457
1245.090397
1245.089413
1245.089411
1245.089384
1245.089378
1245.089381
1245.089368
1245.089378
1245.08939
1245.089396
1245.089385
1245.089378
1245.08936
1245.089317
1245.089188
1245.091164
1245.091148
1245.091152
1245.091134
1245.091155
1245.091149
1245.091132
1245.091138
1245.091138
1245.091129
1245.091121
1245.091114
1245.090983
1245.090553
1245.089511
1245.090808
1245.090811
1245.090803
1245.090793
1245.090795
1245.090802
1245.090817
1245.090802
1245.090808
1245.090813
1245.090781
1245.090723
1245.090471
1245.089423
1245.085727
1245.090961
1245.090965
1245.090954
1245.090948
1245.09097
1245.09096
1245.090942
1245.09094
1245.09093
1245.090939
1245.090922
1245.090897
1245.090746
1245.090353
1245.089332
1245.09103
1245.091006
1245.090978
1245.090988
1245.090991
1245.090976
1245.09098
1245.091002
1245.091013
1245.091016
1245.090993
1245.090967
1245.090904
1245.090782
1245.090476
1245.091342
1245.091301
1245.091293
1245.09132
1245.091299
1245.091313
1245.091289
1245.091248
1245.091249
1245.091254
1245.091233
1245.091233
1245.091231
1245.091194
1245.091135
1245.091199
1245.091188
1245.091196
1245.091204
1245.091212
1245.091213
1245.091203
1245.091207
1245.091202
1245.091207
1245.091188
1245.091187
1245.091181
1245.09116
1245.091106
1245.090876
1245.090859
1245.090858
1245.090848
1245.090864
1245.090871
1245.090866
1245.090875
1245.090888
1245.09085
1245.090865
1245.09089
1245.090883
1245.090866
1245.090523
1245.090537
1245.090535
1245.090528
1245.090498
1245.090512
1245.090523
1245.090527
1245.090535
1245.090519
1245.090525
1245.090504
1245.09048
1245.090414
1245.092335
1245.092327
1245.092327
1245.092311
1245.092318
1245.092316
1245.092326
1245.092334
1245.092319
1245.092312
1245.092299
1245.09231
1245.092236
1245.091987
1245.091456
1245.09143
1245.091419
1245.091415
1245.091445
1245.091422
1245.091411
1245.09141
1245.091391
1245.091408
1245.091405
1245.091366
1245.091144
1245.090158
1245.09116
1245.091183
1245.091174
1245.091153
1245.091133
1245.091145
1245.091152
1245.091139
1245.091153
1245.09117
1245.091162
1245.091023
1245.090457
1245.086661
1244.591027
1245.090876
1245.09086
1245.090871
1245.090864
1245.090878
1245.09088
1245.090891
1245.090891
1245.090888
1245.090915
1245.090886
1245.090833
1245.09059
1245.089591
1245.085929
1245.090705
1245.0907
1245.090699
1245.090666
1245.090681
1245.090708
1245.090702
1245.090693
1245.090679
1245.090683
1245.090718
1245.090687
1245.090612
1245.090366
1245.089766
1245.090239
1245.090215
1245.090211
1245.09021
1245.090218
1245.090236
1245.090267
1245.090277
1245.090279
1245.090266
1245.090247
1245.090233
1245.090179
1245.090099
1245.089957
1245.090505
1245.090508
1245.090499
1245.090508
1245.090513
1245.090512
1245.090529
1245.090534
1245.090536
1245.090551
1245.090565
1245.090532
1245.090506
1245.0905
1245.090463
1245.090456
1245.090465
1245.090453
1245.090446
1245.090467
1245.09045
1245.090435
1245.090444
1245.090457
1245.090442
1245.090451
1245.09045
1245.090426
1245.090433
1245.08975
1245.089764
1245.089745
1245.089742
1245.089762
1245.089776
1245.089774
1245.089758
1245.089753
1245.08977
1245.089757
1245.089774
1245.089757
1245.08973
1245.090387
1245.090382
1245.090389
1245.090375
1245.090354
1245.090342
1245.090336
1245.090333
1245.090367
1245.09037
1245.090405
1245.090398
1245.090328
1245.090212
1245.090295
1245.090296
1245.090261
1245.090292
1245.090317
1245.090323
1245.090329
1245.090318
1245.090304
1245.090268
1245.090278
1245.09024
1245.09012
1245.089677
1245.090776
1245.09077
1245.090758
1245.090724
1245.090704
1245.090669
1245.090641
1245.090641
1245.090629
1245.090639
1245.090596
1245.090576
1245.090304
1245.089294
1245.090268
1245.090271
1245.090268
1245.090278
1245.090273
1245.090269
1245.090307
1245.090317
1245.090305
1245.090295
1245.090291
1245.090249
1245.090139
1245.089719
1245.091238
1245.091243
1245.091236
1245.091237
1245.091191
1245.091175
1245.091167
1245.091188
1245.09116
1245.091144
1245.09111
1245.091074
1245.091033
1245.090898
1245.090637
1245.090418
1245.090415
1245.090416
1245.090427
1245.090434
1245.090444
1245.090432
1245.090439
1245.090454
1245.090449
1245.090461
1245.090489
1245.090472
1245.09044
1245.090342
1245.090448
1245.090438
1245.090441
1245.090436
1245.090414
1245.090403
1245.0904
1245.090433
1245.090434
1245.090452
1245.090439
1245.090437
1245.090416
1245.090382
1245.090348
1245.089869
1245.089875
1245.089834
1245.089858
1245.089848
1245.089835
1245.089854
1245.089857
1245.089842
1245.089833
1245.089853
1245.089852
1245.089854
1245.089875
1245.091295
1245.091284
1245.091286
1245.091293
1245.0913
1245.091324
1245.09134
1245.091344
1245.091365
1245.091349
1245.091341
1245.091327
1245.091346
1245.09134
1245.092237
1245.092246
1245.092255
1245.092255
1245.092256
1245.092283
1245.092298
1245.092276
1245.092303
1245.092293
1245.092258
1245.09223
1245.0922
1245.092125
1245.090894
1245.090886
1245.090871
1245.090872
1245.090867
1245.090858
1245.090875
1245.090891
1245.090878
1245.090861
1245.090866
1245.09085
1245.090808
1245.090674
1245.09005
1245.090052
1245.090044
1245.090035
1245.090038
1245.090057
1245.090033
1245.090051
1245.090061
1245.090061
1245.09006
1245.09005
1245.089981
1245.08973
1245.090664
1245.090647
1245.090652
1245.090654
1245.090629
1245.090647
1245.090652
1245.090661
1245.09067
1245.090693
1245.090674
1245.090633
1245.090598
1245.090479
1245.091002
1245.091015
1245.091004
1245.09099
1245.091001
1245.091002
1245.091005
1245.090986
1245.090996
1245.090996
1245.09102
1245.091004
1245.090978
1245.090919
1245.090129
1245.090112
1245.090127
1245.090135
1245.090141
1245.090124
1245.090145
1245.090156
1245.090157
1245.090176
1245.090155
1245.090168
1245.090154
1245.090155
1245.090095
1245.091389
1245.091383
1245.091366
1245.091362
1245.091341
1245.091329
1245.091321
1245.091319
1245.091293
1245.091291
1245.091276
1245.09126
1245.091292
1245.091269
1245.09125
1245.091368
1245.091385
1245.091385
1245.09138
1245.091384
1245.091388
1245.091351
1245.091362
1245.091368
1245.091347
1245.091366
1245.091351
1245.091345
1245.091353
1245.091029
1245.091059
1245.091055
1245.091022
1245.091015
1245.091033
1245.091045
1245.09104
1245.091024
1245.091017
1245.091025
1245.091038
1245.091038
1245.091057
1245.090829
1245.090843
1245.090855
1245.090866
1245.090885
1245.090883
1245.090885
1245.090882
1245.090892
1245.090881
1245.090895
1245.090912
1245.090916
1245.090914
1245.091201
1245.091174
1245.09116
1245.091156
1245.09117
1245.091162
1245.091153
1245.091185
1245.091209
1245.091211
1245.091207
1245.09118
1245.091181
1245.0911
1245.091348
1245.09137
1245.091398
1245.091402
1245.091412
1245.091417
1245.091386
1245.091383
1245.091396
1245.091402
1245.091384
1245.091378
1245.091339
1245.091281
1245.090371
1245.090372
1245.090358
1245.090361
1245.090379
1245.090396
1245.09041
1245.090396
1245.090383
1245.090384
1245.090377
1245.090372
1245.090366
1245.090316
1245.090376
1245.090401
1245.0904
1245.090384
1245.090403
1245.090386
1245.0904
1245.090396
1245.090394
1245.090413
1245.090416
1245.090447
1245.090423
1245.090437
1245.090839
1245.090869
1245.090869
1245.090873
1245.090892
1245.090894
1245.090872
1245.090866
1245.090874
1245.090846
1245.090844
1245.090858
1245.090846
1245.090841
1245.091902
1245.091897
1245.091904
1245.091882
1245.091868
1245.091874
1245.09188
1245.091857
1245.091831
1245.091848
1245.091854
1245.09184
1245.091829
1245.091812
1245.091805
1245.090458
1245.090444
1245.090454
1245.090472
1245.090477
1245.090461
1245.090465
1245.09048
1245.090471
1245.090487
1245.090498
1245.090502
1245.090494
1245.090492
1245.091121
1245.091133
1245.091162
1245.091165
1245.091159
1245.091161
1245.091151
1245.09115
1245.091174
1245.091187
1245.091166
1245.091159
1245.091155
1245.091157
1245.090586
1245.09058
1245.090568
1245.090545
1245.09057
1245.090566
1245.090594
1245.090598
1245.090581
1245.090552
1245.09054
1245.09053
1245.090531
1245.09052
1245.091528
1245.09155
1245.091526
1245.091523
1245.091534
1245.091529
1245.091534
1245.091542
1245.091515
1245.091519
1245.091546
1245.091541
1245.091506
1245.091459
1245.090672
1245.090684
1245.090696
1245.090683
1245.090684
1245.090674
1245.090671
1245.090688
1245.090643
1245.090638
1245.090657
1245.09065
1245.090651
1245.090647
1245.091793
1245.091798
1245.091808
1245.091819
1245.091827
1245.091825
1245.091823
1245.091833
1245.091827
1245.091825
1245.091823
1245.091837
1245.091822
1245.091791
1245.090861
1245.090866
1245.090876
1245.090883
1245.090874
1245.09089
1245.090893
1245.090886
1245.090867
1245.090866
1245.090864
1245.090871
1245.090883
1245.090884
1245.090312
1245.090315
1245.090335
1245.090344
1245.090334
1245.090331
1245.090338
1245.090349
1245.090348
1245.090353
1245.090354
1245.090354
1245.090352
1245.090332
1245.090818
1245.090811
1245.090806
1245.090792
1245.090786
1245.090778
1245.090772
1245.090785
1245.090766
1245.09076
1245.090739
1245.090747
1245.090728
1245.090716
)
;

boundaryField
{
    top
    {
        type            calculated;
        value           nonuniform List<scalar> 
134
(
1245.09106
1245.091106
1245.090422
1245.091199
1245.090505
1245.090448
1245.091389
1245.091902
1245.090818
1245.091042
1245.091121
1245.090412
1245.091188
1245.090508
1245.090438
1245.091383
1245.091897
1245.090811
1245.091047
1245.09113
1245.090428
1245.091196
1245.090499
1245.090441
1245.091366
1245.091904
1245.090806
1245.091031
1245.091143
1245.090424
1245.091204
1245.090508
1245.090436
1245.091362
1245.091882
1245.090792
1245.091036
1245.091143
1245.090414
1245.091212
1245.090513
1245.090414
1245.091341
1245.091868
1245.090786
1245.091028
1245.091158
1245.090397
1245.091213
1245.090512
1245.090403
1245.091329
1245.091874
1245.090778
1245.091043
1245.091138
1245.090387
1245.091203
1245.090529
1245.0904
1245.091321
1245.09188
1245.090772
1245.091056
1245.091156
1245.090393
1245.091207
1245.090534
1245.090433
1245.091319
1245.091857
1245.090785
1245.091031
1245.091159
1245.090377
1245.091202
1245.090536
1245.090434
1245.091293
1245.091831
1245.090766
1245.091023
1245.091163
1245.090373
1245.091207
1245.090551
1245.090452
1245.091291
1245.091848
1245.09076
1245.091045
1245.091131
1245.090379
1245.091188
1245.090565
1245.090439
1245.091276
1245.091854
1245.090739
1245.091025
1245.09113
1245.090362
1245.091187
1245.090532
1245.090437
1245.09126
1245.09184
1245.090747
1245.091024
1245.091147
1245.090358
1245.091181
1245.090506
1245.090416
1245.091292
1245.091829
1245.090728
1245.091041
1245.091146
1245.090351
1245.09116
1245.0905
1245.090382
1245.091269
1245.091812
1245.090716
1245.091021
1245.091128
1245.090336
1245.091106
1245.090463
1245.090348
1245.09125
1245.091805
)
;
    }
    bottom
    {
        type            calculated;
        value           nonuniform List<scalar> 
127
(
1245.090992
1245.090586
1245.090753
1245.09046
1245.090876
1245.090456
1245.089869
1245.091368
1245.090458
1245.091005
1245.090605
1245.09075
1245.090468
1245.090859
1245.090465
1245.089875
1245.091385
1245.090444
1245.091008
1245.090618
1245.090731
1245.090463
1245.090858
1245.090453
1245.089834
1245.091385
1245.090454
1245.09101
1245.090625
1245.090741
1245.090466
1245.090848
1245.090446
1245.089858
1245.09138
1245.090472
1245.091016
1245.09061
1245.090744
1245.090466
1245.090864
1245.090467
1245.089848
1245.091384
1245.090477
1245.091
1245.090588
1245.09074
1245.09049
1245.090871
1245.09045
1245.089835
1245.091388
1245.090461
1245.091008
1245.090598
1245.090729
1245.090488
1245.090866
1245.090435
1245.089854
1245.091351
1245.090465
1245.091019
1245.09061
1245.090744
1245.09048
1245.090875
1245.090444
1245.089857
1245.091362
1245.09048
1245.091033
1245.090605
1245.090748
1245.090504
1245.090888
1245.090457
1245.089842
1245.091368
1245.090471
1245.091027
1245.090626
1245.09074
1245.090499
1245.09085
1245.090442
1245.089833
1245.091347
1245.090487
1245.091044
1245.090602
1245.090743
1245.090492
1245.090865
1245.090451
1245.089853
1245.091366
1245.090498
1245.091036
1245.090607
1245.090724
1245.09051
1245.09089
1245.09045
1245.089852
1245.091351
1245.090502
1245.090986
1245.090616
1245.090737
1245.090505
1245.090883
1245.090426
1245.089854
1245.091345
1245.090494
1245.091
1245.090597
1245.090724
1245.090486
1245.090866
1245.090433
1245.089875
1245.091353
1245.090492
1245.090993
)
;
    }
    side-walls
    {
        type            calculated;
        value           nonuniform List<scalar> 
261
(
1245.090992
1245.091194
1245.090984
1245.091773
1245.091134
1245.089921
1245.090015
1245.091045
1245.09106
1245.091005
1245.091198
1245.090973
1245.091786
1245.091144
1245.089936
1245.089998
1245.091044
1245.091042
1245.091008
1245.091222
1245.090971
1245.09176
1245.091138
1245.089914
1245.089998
1245.091033
1245.091047
1245.09101
1245.091198
1245.09098
1245.091785
1245.091129
1245.089907
1245.08999
1245.091009
1245.091031
1245.091016
1245.091215
1245.090987
1245.091784
1245.091113
1245.089904
1245.089978
1245.091027
1245.091036
1245.091
1245.091174
1245.090972
1245.091813
1245.091109
1245.089901
1245.089988
1245.091018
1245.091028
1245.091008
1245.091176
1245.09097
1245.091857
1245.091096
1245.089897
1245.089951
1245.091011
1245.091043
1245.091019
1245.091175
1245.090955
1245.091859
1245.091093
1245.089885
1245.089981
1245.091002
1245.091056
1245.091033
1245.091187
1245.090929
1245.091845
1245.091091
1245.089887
1245.089949
1245.090996
1245.091031
1245.091027
1245.091202
1245.090943
1245.091813
1245.091093
1245.089869
1245.089955
1245.09101
1245.091023
1245.091044
1245.09119
1245.090967
1245.091796
1245.091106
1245.089862
1245.089965
1245.090998
1245.091045
1245.091036
1245.091202
1245.090978
1245.09179
1245.091075
1245.089856
1245.089995
1245.090995
1245.091025
1245.090986
1245.091196
1245.090995
1245.091775
1245.09109
1245.089851
1245.090007
1245.090961
1245.091024
1245.091
1245.091177
1245.090972
1245.091749
1245.091094
1245.089834
1245.089985
1245.090952
1245.091041
1245.090993
1245.091192
1245.090967
1245.091713
1245.091051
1245.089813
1245.08997
1245.090922
1245.091021
1245.090458
1245.091121
1245.090586
1245.091528
1245.090672
1245.091793
1245.090861
1245.090312
1245.090818
1245.090444
1245.091133
1245.09058
1245.09155
1245.090684
1245.091798
1245.090866
1245.090315
1245.090811
1245.090454
1245.091162
1245.090568
1245.091526
1245.090696
1245.091808
1245.090876
1245.090335
1245.090806
1245.090472
1245.091165
1245.090545
1245.091523
1245.090683
1245.091819
1245.090883
1245.090344
1245.090792
1245.090477
1245.091159
1245.09057
1245.091534
1245.090684
1245.091827
1245.090874
1245.090334
1245.090786
1245.090461
1245.091161
1245.090566
1245.091529
1245.090674
1245.091825
1245.09089
1245.090331
1245.090778
1245.090465
1245.091151
1245.090594
1245.091534
1245.090671
1245.091823
1245.090893
1245.090338
1245.090772
1245.09048
1245.09115
1245.090598
1245.091542
1245.090688
1245.091833
1245.090886
1245.090349
1245.090785
1245.090471
1245.091174
1245.090581
1245.091515
1245.090643
1245.091827
1245.090867
1245.090348
1245.090766
1245.090487
1245.091187
1245.090552
1245.091519
1245.090638
1245.091825
1245.090866
1245.090353
1245.09076
1245.090498
1245.091166
1245.09054
1245.091546
1245.090657
1245.091823
1245.090864
1245.090354
1245.090739
1245.090502
1245.091159
1245.09053
1245.091541
1245.09065
1245.091837
1245.090871
1245.090354
1245.090747
1245.090494
1245.091155
1245.090531
1245.091506
1245.090651
1245.091822
1245.090883
1245.090352
1245.090728
1245.090492
1245.091157
1245.09052
1245.091459
1245.090647
1245.091791
1245.090884
1245.090332
1245.090716
)
;
    }
    inlet
    {
        type            calculated;
        value           nonuniform List<scalar> 
81
(
1245.090992
1245.091194
1245.090984
1245.091773
1245.091134
1245.089921
1245.090015
1245.091045
1245.09106
1245.090586
1245.09115
1245.091468
1245.090681
1245.09075
1245.091518
1245.092473
1245.089874
1245.091106
1245.090753
1245.090758
1245.090809
1245.090728
1245.09133
1245.090203
1245.090494
1245.090612
1245.090422
1245.09046
1245.090483
1245.089413
1245.091164
1245.090808
1245.090961
1245.09103
1245.091342
1245.091199
1245.090876
1245.090523
1245.092335
1245.091456
1245.09116
1245.090876
1245.090705
1245.090239
1245.090505
1245.090456
1245.08975
1245.090387
1245.090295
1245.090776
1245.090268
1245.091238
1245.090418
1245.090448
1245.089869
1245.091295
1245.092237
1245.090894
1245.09005
1245.090664
1245.091002
1245.090129
1245.091389
1245.091368
1245.091029
1245.090829
1245.091201
1245.091348
1245.090371
1245.090376
1245.090839
1245.091902
1245.090458
1245.091121
1245.090586
1245.091528
1245.090672
1245.091793
1245.090861
1245.090312
1245.090818
)
;
    }
    outlet
    {
        type            calculated;
        value           nonuniform 0();
    }
    procBoundary0to1
    {
        type            processor;
        value           nonuniform List<scalar> 
97
(
1245.090991
1245.090588
1245.091151
1245.090949
1245.091682
1245.091011
1245.089763
1245.089949
1245.090895
1245.091014
1245.090588
1245.090588
1245.091115
1245.09067
1245.091391
1245.090413
1245.090378
1245.091428
1245.092308
1245.089813
1245.091125
1245.090697
1245.09067
1245.09067
1245.090458
1245.088923
1245.089952
1245.090027
1245.089451
1245.090243
1245.090521
1245.090287
1245.090455
1245.090285
1245.088923
1245.088923
1245.088797
1245.086483
1245.085216
1245.088629
1245.090169
1245.091018
1245.091075
1245.090845
1245.090316
1245.091374
1245.086483
1245.086483
1244.604377
1245.085577
1245.085381
1245.088709
1245.089329
1245.08983
1245.090405
1245.090421
1245.089642
1245.089921
1245.08859
1245.085577
1245.088709
1245.088709
1245.09035
1245.090792
1245.090245
1245.090302
1245.08988
1245.091286
1245.091989
1245.090394
1245.089134
1245.090171
1245.090792
1245.090792
1245.090015
1245.090833
1245.091204
1245.091354
1245.091056
1245.090886
1245.091025
1245.091164
1245.090236
1245.090372
1245.090833
1245.090833
1245.091787
1245.09073
1245.090479
1245.091136
1245.090523
1245.091455
1245.090624
1245.091765
1245.090877
1245.090324
1245.09073
)
;
    }
}


// ************************************************************************* //
