/*--------------------------------*- C++ -*----------------------------------*\
| =========                 |                                                 |
| \\      /  F ield         | OpenFOAM: The Open Source CFD Toolbox           |
|  \\    /   O peration     | Version:  4.x                                   |
|   \\  /    A nd           | Web:      www.OpenFOAM.org                      |
|    \\/     M anipulation  |                                                 |
\*---------------------------------------------------------------------------*/
FoamFile
{
    version     2.0;
    format      ascii;
    class       volScalarField;
    location    "10000";
    object      H2;
}
// * * * * * * * * * * * * * * * * * * * * * * * * * * * * * * * * * * * * * //

dimensions      [0 0 0 0 0 0 0];

internalField   nonuniform List<scalar> 
1175
(
0.00217251334
0.00217251334
0.00217251334
0.00217251334
0.00217251334
0.002172513338
0.002172513334
0.00217251332
0.002172513276
0.002172513143
0.002172512765
0.002172511765
0.002172509328
0.002172503954
0.002172493398
0.00217251334
0.00217251334
0.00217251334
0.00217251334
0.002172513339
0.002172513338
0.002172513332
0.002172513312
0.002172513248
0.002172513048
0.002172512454
0.002172510819
0.002172506697
0.002172497409
0.002172479165
0.00217251334
0.00217251334
0.00217251334
0.00217251334
0.002172513339
0.002172513337
0.002172513328
0.002172513299
0.002172513197
0.002172512866
0.002172511838
0.002172508869
0.002172501066
0.00217248297
0.002172447336
0.00217251334
0.00217251334
0.00217251334
0.00217251334
0.002172513339
0.002172513336
0.002172513325
0.002172513284
0.00217251314
0.002172512652
0.002172511072
0.002172506305
0.002172493226
0.002172461844
0.002172399607
0.00217251334
0.00217251334
0.00217251334
0.00217251334
0.002172513339
0.002172513336
0.002172513323
0.002172513277
0.002172513112
0.00217251254
0.002172510645
0.002172504759
0.002172488077
0.002172446786
0.002172363866
0.00217251334
0.00217251334
0.00217251334
0.00217251334
0.002172513339
0.002172513336
0.002172513325
0.002172513284
0.00217251314
0.002172512652
0.002172511072
0.002172506305
0.002172493226
0.002172461844
0.002172399608
0.00217251334
0.00217251334
0.00217251334
0.00217251334
0.002172513339
0.002172513337
0.002172513328
0.002172513299
0.002172513197
0.002172512866
0.002172511838
0.002172508869
0.002172501066
0.00217248297
0.002172447337
0.00217251334
0.00217251334
0.00217251334
0.00217251334
0.002172513339
0.002172513338
0.002172513332
0.002172513312
0.002172513248
0.002172513048
0.002172512454
0.002172510819
0.002172506697
0.00217249741
0.002172479166
0.00217251334
0.00217251334
0.00217251334
0.00217251334
0.00217251334
0.002172513338
0.002172513334
0.00217251332
0.002172513276
0.002172513143
0.002172512765
0.002172511765
0.002172509328
0.002172503954
0.002172493399
0.00217251334
0.00217251334
0.00217251334
0.00217251334
0.002172513339
0.002172513338
0.002172513332
0.002172513312
0.002172513248
0.002172513048
0.002172512454
0.002172510819
0.002172506697
0.002172497409
0.00217251334
0.00217251334
0.00217251334
0.00217251334
0.002172513339
0.002172513337
0.002172513329
0.0021725133
0.002172513201
0.002172512876
0.002172511857
0.002172508891
0.002172501028
0.002172482681
0.002172446522
0.00217251334
0.00217251334
0.00217251334
0.00217251334
0.002172513339
0.002172513336
0.002172513323
0.002172513277
0.00217251311
0.002172512525
0.002172510577
0.002172504523
0.002172487457
0.002172445674
0.002172362476
0.00217251334
0.00217251334
0.00217251334
0.00217251334
0.002172513339
0.002172513334
0.002172513317
0.002172513251
0.002172513
0.002172512074
0.002172508804
0.002172497961
0.002172465233
0.002172380013
0.002172206123
0.00217251334
0.00217251334
0.00217251334
0.00217251334
0.002172513338
0.002172513334
0.002172513314
0.002172513238
0.00217251294
0.002172511811
0.002172507667
0.002172493232
0.002172446969
0.002172318178
0.002172043278
0.00217251334
0.00217251334
0.00217251334
0.00217251334
0.002172513339
0.002172513334
0.002172513317
0.002172513251
0.002172513
0.002172512074
0.002172508804
0.002172497961
0.002172465233
0.002172380014
0.002172206125
0.00217251334
0.00217251334
0.00217251334
0.00217251334
0.002172513339
0.002172513336
0.002172513323
0.002172513277
0.00217251311
0.002172512525
0.002172510577
0.002172504523
0.002172487457
0.002172445674
0.002172362477
0.00217251334
0.00217251334
0.00217251334
0.00217251334
0.002172513339
0.002172513337
0.002172513329
0.0021725133
0.002172513201
0.002172512876
0.002172511857
0.002172508891
0.002172501029
0.002172482681
0.002172446524
0.00217251334
0.00217251334
0.00217251334
0.00217251334
0.002172513339
0.002172513338
0.002172513332
0.002172513312
0.002172513248
0.002172513048
0.002172512454
0.002172510819
0.002172506697
0.00217249741
0.002172479166
0.00217251334
0.00217251334
0.00217251334
0.00217251334
0.002172513339
0.002172513337
0.002172513328
0.002172513299
0.002172513197
0.002172512866
0.002172511838
0.002172508869
0.002172501065
0.002172482969
0.00217251334
0.00217251334
0.00217251334
0.00217251334
0.002172513339
0.002172513336
0.002172513323
0.002172513277
0.00217251311
0.002172512525
0.002172510577
0.002172504523
0.002172487456
0.002172445673
0.00217251334
0.00217251334
0.00217251334
0.00217251334
0.002172513338
0.002172513333
0.002172513314
0.002172513235
0.002172512929
0.00217251178
0.002172507633
0.002172493595
0.002172450447
0.002172336542
0.002172103146
0.00217251334
0.00217251334
0.00217251334
0.00217251334
0.002172513338
0.002172513331
0.002172513302
0.002172513183
0.002172512694
0.002172510723
0.002172503034
0.002172474547
0.002172377688
0.002172094238
0.002171474585
0.00217251334
0.00217251334
0.00217251334
0.002172513339
0.002172513338
0.00217251333
0.002172513297
0.002172513155
0.002172512555
0.002172510028
0.002172499575
0.002172457739
0.002172300358
0.002171777478
0.002170480957
0.00217251334
0.00217251334
0.00217251334
0.00217251334
0.002172513338
0.002172513331
0.002172513302
0.002172513183
0.002172512694
0.002172510723
0.002172503034
0.002172474548
0.002172377689
0.002172094243
0.002171474597
0.00217251334
0.00217251334
0.00217251334
0.00217251334
0.002172513338
0.002172513333
0.002172513314
0.002172513235
0.002172512929
0.00217251178
0.002172507633
0.002172493595
0.002172450448
0.002172336545
0.002172103155
0.00217251334
0.00217251334
0.00217251334
0.00217251334
0.002172513339
0.002172513336
0.002172513323
0.002172513277
0.00217251311
0.002172512525
0.002172510577
0.002172504523
0.002172487457
0.002172445675
0.002172362478
0.00217251334
0.00217251334
0.00217251334
0.00217251334
0.002172513339
0.002172513337
0.002172513328
0.002172513299
0.002172513197
0.002172512866
0.002172511838
0.002172508869
0.002172501066
0.00217248297
0.002172447337
0.00217251334
0.00217251334
0.00217251334
0.00217251334
0.002172513339
0.002172513336
0.002172513325
0.002172513284
0.00217251314
0.002172512652
0.002172511072
0.002172506305
0.002172493225
0.002172461843
0.00217251334
0.00217251334
0.00217251334
0.00217251334
0.002172513339
0.002172513334
0.002172513317
0.002172513251
0.002172513
0.002172512074
0.002172508804
0.002172497961
0.002172465232
0.002172380011
0.00217251334
0.00217251334
0.00217251334
0.00217251334
0.002172513338
0.002172513331
0.002172513302
0.002172513183
0.002172512694
0.002172510723
0.002172503034
0.002172474547
0.002172377686
0.002172094232
0.00217251334
0.00217251334
0.00217251334
0.002172513339
0.002172513337
0.002172513327
0.002172513285
0.002172513096
0.002172512264
0.002172508614
0.002172492829
0.002172426668
0.002172166214
0.002171264931
0.002168968949
0.00217251334
0.00217251334
0.00217251334
0.002172513339
0.002172513337
0.002172513326
0.002172513275
0.002172513046
0.002172511984
0.002172507027
0.002172483669
0.002172373452
0.002171862198
0.002169640967
0.002161959815
0.00217251334
0.00217251334
0.00217251334
0.002172513339
0.002172513337
0.002172513327
0.002172513285
0.002172513096
0.002172512264
0.002172508614
0.002172492829
0.002172426669
0.002172166218
0.002171264949
0.002168969017
0.00217251334
0.00217251334
0.00217251334
0.00217251334
0.002172513338
0.002172513331
0.002172513302
0.002172513183
0.002172512694
0.002172510723
0.002172503034
0.002172474547
0.002172377689
0.002172094242
0.002171474595
0.00217251334
0.00217251334
0.00217251334
0.00217251334
0.002172513339
0.002172513334
0.002172513317
0.002172513251
0.002172513
0.002172512074
0.002172508804
0.002172497961
0.002172465233
0.002172380014
0.002172206125
0.00217251334
0.00217251334
0.00217251334
0.00217251334
0.002172513339
0.002172513336
0.002172513325
0.002172513284
0.00217251314
0.002172512652
0.002172511072
0.002172506305
0.002172493226
0.002172461844
0.002172399607
0.00217251334
0.00217251334
0.00217251334
0.00217251334
0.002172513339
0.002172513336
0.002172513323
0.002172513277
0.002172513112
0.00217251254
0.002172510645
0.002172504759
0.002172488076
0.002172446785
0.00217251334
0.00217251334
0.00217251334
0.00217251334
0.002172513338
0.002172513334
0.002172513314
0.002172513238
0.00217251294
0.002172511811
0.002172507666
0.002172493232
0.002172446967
0.002172318173
0.00217251334
0.00217251334
0.00217251334
0.002172513339
0.002172513338
0.00217251333
0.002172513297
0.002172513155
0.002172512555
0.002172510028
0.002172499575
0.002172457738
0.002172300352
0.002171777456
0.00217251334
0.00217251334
0.00217251334
0.002172513339
0.002172513337
0.002172513326
0.002172513275
0.002172513046
0.002172511984
0.002172507027
0.002172483669
0.00217237345
0.002171862187
0.002169640895
0.00217251334
0.00217251334
0.00217251334
0.002172513339
0.002172513336
0.002172513324
0.002172513264
0.002172512978
0.002172511581
0.002172504485
0.002172466743
0.002172254199
0.00217097426
0.002162678132
0.002104538993
0.00217251334
0.00217251334
0.00217251334
0.002172513339
0.002172513337
0.002172513326
0.002172513275
0.002172513046
0.002172511984
0.002172507027
0.002172483669
0.002172373452
0.002171862197
0.002169640961
0.002161959801
0.00217251334
0.00217251334
0.00217251334
0.002172513339
0.002172513338
0.00217251333
0.002172513297
0.002172513155
0.002172512555
0.002172510028
0.002172499575
0.002172457739
0.002172300358
0.002171777477
0.002170480958
0.00217251334
0.00217251334
0.00217251334
0.00217251334
0.002172513338
0.002172513334
0.002172513314
0.002172513238
0.00217251294
0.002172511811
0.002172507667
0.002172493232
0.002172446969
0.002172318178
0.002172043279
0.00217251334
0.00217251334
0.00217251334
0.00217251334
0.002172513339
0.002172513336
0.002172513323
0.002172513277
0.002172513112
0.00217251254
0.002172510645
0.002172504759
0.002172488077
0.002172446787
0.002172363866
0.00217251334
0.00217251334
0.00217251334
0.00217251334
0.002172513339
0.002172513336
0.002172513325
0.002172513284
0.00217251314
0.002172512652
0.002172511072
0.002172506305
0.002172493225
0.002172461843
0.00217251334
0.00217251334
0.00217251334
0.00217251334
0.002172513339
0.002172513334
0.002172513317
0.002172513251
0.002172513
0.002172512074
0.002172508804
0.002172497961
0.002172465232
0.002172380011
0.00217251334
0.00217251334
0.00217251334
0.00217251334
0.002172513338
0.002172513331
0.002172513302
0.002172513183
0.002172512694
0.002172510723
0.002172503034
0.002172474547
0.002172377686
0.002172094233
0.00217251334
0.00217251334
0.00217251334
0.002172513339
0.002172513337
0.002172513327
0.002172513285
0.002172513096
0.002172512264
0.002172508614
0.002172492829
0.002172426668
0.002172166212
0.002171264924
0.00217251334
0.00217251334
0.00217251334
0.002172513339
0.002172513337
0.002172513326
0.002172513275
0.002172513046
0.002172511984
0.002172507027
0.002172483669
0.002172373451
0.002171862189
0.002169640905
0.00217251334
0.00217251334
0.00217251334
0.002172513339
0.002172513337
0.002172513327
0.002172513285
0.002172513096
0.002172512264
0.002172508614
0.002172492829
0.002172426668
0.002172166214
0.002171264927
0.00217251334
0.00217251334
0.00217251334
0.00217251334
0.002172513338
0.002172513331
0.002172513302
0.002172513183
0.002172512694
0.002172510723
0.002172503034
0.002172474547
0.002172377687
0.002172094237
0.002171474579
0.00217251334
0.00217251334
0.00217251334
0.00217251334
0.002172513339
0.002172513334
0.002172513317
0.002172513251
0.002172513
0.002172512074
0.002172508804
0.002172497961
0.002172465233
0.002172380013
0.002172206123
0.00217251334
0.00217251334
0.00217251334
0.00217251334
0.002172513339
0.002172513336
0.002172513325
0.002172513284
0.00217251314
0.002172512652
0.002172511072
0.002172506305
0.002172493226
0.002172461844
0.002172399607
0.00217251334
0.00217251334
0.00217251334
0.00217251334
0.002172513339
0.002172513337
0.002172513328
0.002172513299
0.002172513197
0.002172512866
0.002172511838
0.002172508869
0.002172501066
0.002172482969
0.00217251334
0.00217251334
0.00217251334
0.00217251334
0.002172513339
0.002172513336
0.002172513323
0.002172513277
0.00217251311
0.002172512525
0.002172510577
0.002172504523
0.002172487456
0.002172445673
0.00217251334
0.00217251334
0.00217251334
0.00217251334
0.002172513338
0.002172513333
0.002172513314
0.002172513235
0.002172512929
0.00217251178
0.002172507633
0.002172493594
0.002172450446
0.00217233654
0.00217251334
0.00217251334
0.00217251334
0.00217251334
0.002172513338
0.002172513331
0.002172513302
0.002172513183
0.002172512694
0.002172510723
0.002172503034
0.002172474547
0.002172377686
0.002172094234
0.00217251334
0.00217251334
0.00217251334
0.002172513339
0.002172513338
0.00217251333
0.002172513297
0.002172513155
0.002172512555
0.002172510028
0.002172499575
0.002172457739
0.002172300355
0.002171777466
0.00217251334
0.00217251334
0.00217251334
0.00217251334
0.002172513338
0.002172513331
0.002172513302
0.002172513183
0.002172512694
0.002172510723
0.002172503034
0.002172474547
0.002172377687
0.002172094235
0.00217251334
0.00217251334
0.00217251334
0.00217251334
0.002172513338
0.002172513333
0.002172513314
0.002172513235
0.002172512929
0.00217251178
0.002172507633
0.002172493595
0.002172450446
0.002172336541
0.00217251334
0.00217251334
0.00217251334
0.00217251334
0.002172513339
0.002172513336
0.002172513323
0.002172513277
0.00217251311
0.002172512525
0.002172510577
0.002172504523
0.002172487457
0.002172445674
0.002172362475
0.00217251334
0.00217251334
0.00217251334
0.00217251334
0.002172513339
0.002172513337
0.002172513328
0.002172513299
0.002172513197
0.002172512866
0.002172511838
0.002172508869
0.002172501066
0.00217248297
0.002172447336
0.00217251334
0.00217251334
0.00217251334
0.00217251334
0.002172513339
0.002172513338
0.002172513332
0.002172513312
0.002172513248
0.002172513048
0.002172512454
0.002172510819
0.002172506697
0.002172497409
0.00217251334
0.00217251334
0.00217251334
0.00217251334
0.002172513339
0.002172513337
0.002172513329
0.0021725133
0.002172513201
0.002172512876
0.002172511857
0.002172508891
0.002172501028
0.002172482681
0.00217251334
0.00217251334
0.00217251334
0.00217251334
0.002172513339
0.002172513336
0.002172513323
0.002172513277
0.00217251311
0.002172512525
0.002172510577
0.002172504523
0.002172487456
0.002172445673
0.00217251334
0.00217251334
0.00217251334
0.00217251334
0.002172513339
0.002172513334
0.002172513317
0.002172513251
0.002172513
0.002172512074
0.002172508804
0.002172497961
0.002172465232
0.002172380011
0.00217251334
0.00217251334
0.00217251334
0.00217251334
0.002172513338
0.002172513334
0.002172513314
0.002172513238
0.00217251294
0.002172511811
0.002172507666
0.002172493232
0.002172446968
0.002172318174
0.00217251334
0.00217251334
0.00217251334
0.00217251334
0.002172513339
0.002172513334
0.002172513317
0.002172513251
0.002172513
0.002172512074
0.002172508804
0.002172497961
0.002172465232
0.002172380012
0.00217251334
0.00217251334
0.00217251334
0.00217251334
0.002172513339
0.002172513336
0.002172513323
0.002172513277
0.00217251311
0.002172512525
0.002172510577
0.002172504523
0.002172487456
0.002172445673
0.00217251334
0.00217251334
0.00217251334
0.00217251334
0.002172513339
0.002172513337
0.002172513329
0.0021725133
0.002172513201
0.002172512876
0.002172511857
0.002172508891
0.002172501028
0.002172482681
0.00217251334
0.00217251334
0.00217251334
0.00217251334
0.002172513339
0.002172513338
0.002172513332
0.002172513312
0.002172513248
0.002172513048
0.002172512454
0.002172510819
0.002172506697
0.002172497409
0.002172479165
0.00217251334
0.00217251334
0.00217251334
0.00217251334
0.00217251334
0.002172513338
0.002172513334
0.00217251332
0.002172513276
0.002172513143
0.002172512765
0.002172511765
0.002172509328
0.002172503954
0.00217251334
0.00217251334
0.00217251334
0.00217251334
0.002172513339
0.002172513338
0.002172513332
0.002172513312
0.002172513248
0.002172513048
0.002172512454
0.002172510819
0.002172506697
0.002172497409
0.00217251334
0.00217251334
0.00217251334
0.00217251334
0.002172513339
0.002172513337
0.002172513328
0.002172513299
0.002172513197
0.002172512866
0.002172511838
0.002172508869
0.002172501065
0.002172482969
0.00217251334
0.00217251334
0.00217251334
0.00217251334
0.002172513339
0.002172513336
0.002172513325
0.002172513284
0.00217251314
0.002172512652
0.002172511072
0.002172506305
0.002172493225
0.002172461843
0.00217251334
0.00217251334
0.00217251334
0.00217251334
0.002172513339
0.002172513336
0.002172513323
0.002172513277
0.002172513112
0.00217251254
0.002172510645
0.002172504759
0.002172488076
0.002172446785
0.00217251334
0.00217251334
0.00217251334
0.00217251334
0.002172513339
0.002172513336
0.002172513325
0.002172513284
0.00217251314
0.002172512652
0.002172511072
0.002172506305
0.002172493225
0.002172461843
0.00217251334
0.00217251334
0.00217251334
0.00217251334
0.002172513339
0.002172513337
0.002172513328
0.002172513299
0.002172513197
0.002172512866
0.002172511838
0.002172508869
0.002172501065
0.002172482969
0.00217251334
0.00217251334
0.00217251334
0.00217251334
0.002172513339
0.002172513338
0.002172513332
0.002172513312
0.002172513248
0.002172513048
0.002172512454
0.002172510819
0.002172506697
0.002172497409
0.00217251334
0.00217251334
0.00217251334
0.00217251334
0.00217251334
0.002172513338
0.002172513334
0.00217251332
0.002172513276
0.002172513143
0.002172512765
0.002172511765
0.002172509328
0.002172503954
)
;

boundaryField
{
    top
    {
        type            zeroGradient;
    }
    bottom
    {
        type            zeroGradient;
    }
    side-walls
    {
        type            zeroGradient;
    }
    inlet
    {
        type            zeroGradient;
    }
    outlet
    {
        type            zeroGradient;
    }
    procBoundary0to1
    {
        type            processor;
        value           nonuniform List<scalar> 
97
(
0.002172475054
0.002172479165
0.002172448357
0.002172389456
0.002172303282
0.002172241867
0.002172303284
0.002172389457
0.002172448358
0.002172475054
0.002172479165
0.002172479165
0.002172388278
0.002172362474
0.00217223732
0.00217196948
0.002171717281
0.002171969482
0.002172237322
0.00217238828
0.002172448358
0.002172447336
0.002172362474
0.002172362474
0.002171792151
0.002171474572
0.00217080371
0.002169511665
0.002170803722
0.00217179216
0.002172237324
0.002172389457
0.002172399606
0.002172206121
0.002171474572
0.002171474572
0.002167420228
0.002161959726
0.002160793067
0.002167420272
0.002170803721
0.002171969483
0.002172303284
0.002172363864
0.002172043273
0.00217048093
0.002161959726
0.002161959726
0.00213231347
0.002161959753
0.002160793068
0.002168968995
0.002169511671
0.002171717284
0.002172241868
0.002172399607
0.002172206123
0.002171474586
0.002168968998
0.002161959753
0.002168968995
0.002168968995
0.002170803713
0.002172103148
0.002171969482
0.002172303284
0.002172447337
0.002172362476
0.00217210315
0.002171474589
0.002170480953
0.002171474592
0.002172103148
0.002172103148
0.002172237322
0.002172446523
0.002172389456
0.002172479165
0.002172446523
0.002172362476
0.002172206123
0.002172043277
0.002172206124
0.002172362477
0.002172446523
0.002172446523
0.002172448358
0.002172493398
0.002172493398
0.002172479165
0.002172447337
0.002172399607
0.002172363865
0.002172399607
0.002172447337
0.002172479165
0.002172493398
)
;
    }
}


// ************************************************************************* //
