/*--------------------------------*- C++ -*----------------------------------*\
| =========                 |                                                 |
| \\      /  F ield         | OpenFOAM: The Open Source CFD Toolbox           |
|  \\    /   O peration     | Version:  4.x                                   |
|   \\  /    A nd           | Web:      www.OpenFOAM.org                      |
|    \\/     M anipulation  |                                                 |
\*---------------------------------------------------------------------------*/
FoamFile
{
    version     2.0;
    format      ascii;
    class       volScalarField;
    location    "10000";
    object      H2O;
}
// * * * * * * * * * * * * * * * * * * * * * * * * * * * * * * * * * * * * * //

dimensions      [0 0 0 0 0 0 0];

internalField   nonuniform List<scalar> 
1175
(
9.999285627e-07
9.999285776e-07
9.999287844e-07
9.999296782e-07
9.999327485e-07
9.999435483e-07
9.999800017e-07
1.000099072e-06
1.000473797e-06
1.001599568e-06
1.004794661e-06
1.013260483e-06
1.033891998e-06
1.079383129e-06
1.168754005e-06
9.999285419e-07
9.999285944e-07
9.999287894e-07
9.999298621e-07
9.999337056e-07
9.999478141e-07
9.999968869e-07
1.000162986e-06
1.000705744e-06
1.002403393e-06
1.007424093e-06
1.021263566e-06
1.056156222e-06
1.134775308e-06
1.289227004e-06
9.999285933e-07
9.999286299e-07
9.999289776e-07
9.999303658e-07
9.999356164e-07
9.999553369e-07
1.00002651e-06
1.00027771e-06
1.001135204e-06
1.003941951e-06
1.012643267e-06
1.03777024e-06
1.103815725e-06
1.256984255e-06
1.55862024e-06
9.999287323e-07
9.999287574e-07
9.999292041e-07
9.999309122e-07
9.99937597e-07
9.999628653e-07
1.000057365e-06
1.000401514e-06
1.001617712e-06
1.005753859e-06
1.01912328e-06
1.059465953e-06
1.170161938e-06
1.435767068e-06
1.962573175e-06
9.999287116e-07
9.999287346e-07
9.99929151e-07
9.9993107e-07
9.999384974e-07
9.999663465e-07
1.000071513e-06
1.000460121e-06
1.001856105e-06
1.006700119e-06
1.022740399e-06
1.072552223e-06
1.213731503e-06
1.563188201e-06
2.265037367e-06
9.999286459e-07
9.99928694e-07
9.999291406e-07
9.999309062e-07
9.999376196e-07
9.999630146e-07
1.000057429e-06
1.000401648e-06
1.001617673e-06
1.005753894e-06
1.019123238e-06
1.059465371e-06
1.170159815e-06
1.435760481e-06
1.962557797e-06
9.999283999e-07
9.999286481e-07
9.999289109e-07
9.999304027e-07
9.999357028e-07
9.999552751e-07
1.000026465e-06
1.000277687e-06
1.001135258e-06
1.003941788e-06
1.012643087e-06
1.037769505e-06
1.10381305e-06
1.256976557e-06
1.558602245e-06
9.999283981e-07
9.999285395e-07
9.99928774e-07
9.999299151e-07
9.99933733e-07
9.999476788e-07
9.999966872e-07
1.000162898e-06
1.000705864e-06
1.002403394e-06
1.007423923e-06
1.021262883e-06
1.056153808e-06
1.134768054e-06
1.289210177e-06
9.999284099e-07
9.999284387e-07
9.999286523e-07
9.999296185e-07
9.999326739e-07
9.999434175e-07
9.999798039e-07
1.000098877e-06
1.000473716e-06
1.001599508e-06
1.004794518e-06
1.013259873e-06
1.033889754e-06
1.079376536e-06
1.168737956e-06
9.999284998e-07
9.999285174e-07
9.999287962e-07
9.999298658e-07
9.999338529e-07
9.999478272e-07
9.999968824e-07
1.000162892e-06
1.000705765e-06
1.002403399e-06
1.007424333e-06
1.021264276e-06
1.056158844e-06
1.134786034e-06
9.999284931e-07
9.999286885e-07
9.999290638e-07
9.999304257e-07
9.999353728e-07
9.999542914e-07
1.00002316e-06
1.000266792e-06
1.001103016e-06
1.003860152e-06
1.01247823e-06
1.037584491e-06
1.104134535e-06
1.25943984e-06
1.565543555e-06
9.999286999e-07
9.999288144e-07
9.999292669e-07
9.999310105e-07
9.999381007e-07
9.9996566e-07
1.000070433e-06
1.00046089e-06
1.001876679e-06
1.006828391e-06
1.023313105e-06
1.074545731e-06
1.218989664e-06
1.572631024e-06
2.276864306e-06
9.999287445e-07
9.999288745e-07
9.999293778e-07
9.999316385e-07
9.999408686e-07
9.999774774e-07
1.000122051e-06
1.000682433e-06
1.002809595e-06
1.010646819e-06
1.038315933e-06
1.13008007e-06
1.407053598e-06
2.128276958e-06
3.600045413e-06
9.999286698e-07
9.999287638e-07
9.999294348e-07
9.999319503e-07
9.999420373e-07
9.999829355e-07
1.000146625e-06
1.00079368e-06
1.003309708e-06
1.012867112e-06
1.047941102e-06
1.17009333e-06
1.561596689e-06
2.65150796e-06
4.978033667e-06
9.999287725e-07
9.999288428e-07
9.999293032e-07
9.999315773e-07
9.99940762e-07
9.999775215e-07
1.000122044e-06
1.000682473e-06
1.002809582e-06
1.010646699e-06
1.038315733e-06
1.130079335e-06
1.407049554e-06
2.128260541e-06
3.599997669e-06
9.999285002e-07
9.999287371e-07
9.999291541e-07
9.999310291e-07
9.999380859e-07
9.999656333e-07
1.000070459e-06
1.000460914e-06
1.001876559e-06
1.006828364e-06
1.023312866e-06
1.074544588e-06
1.218983638e-06
1.572608724e-06
2.276804818e-06
9.999285024e-07
9.999286139e-07
9.999289561e-07
9.99930331e-07
9.999354108e-07
9.999542177e-07
1.000022992e-06
1.000266595e-06
1.001103016e-06
1.003860182e-06
1.012477698e-06
1.037582754e-06
1.104128368e-06
1.259418415e-06
1.565485163e-06
9.999285227e-07
9.99928564e-07
9.999287933e-07
9.999298504e-07
9.999337286e-07
9.999478089e-07
9.99996728e-07
1.000162859e-06
1.000705695e-06
1.002403374e-06
1.007424087e-06
1.021263156e-06
1.056154323e-06
1.134768741e-06
1.28921094e-06
9.999285614e-07
9.99928673e-07
9.99929068e-07
9.999304522e-07
9.999357882e-07
9.999554012e-07
1.000026552e-06
1.000277729e-06
1.001135203e-06
1.003941959e-06
1.012643799e-06
1.037772656e-06
1.103824008e-06
1.257012096e-06
9.999286314e-07
9.999287292e-07
9.999292148e-07
9.999310119e-07
9.99938129e-07
9.999655335e-07
1.000070455e-06
1.00046084e-06
1.001876586e-06
1.006828377e-06
1.023313582e-06
1.074548396e-06
1.219000475e-06
1.572678013e-06
9.999287487e-07
9.999288015e-07
9.999293429e-07
9.999319117e-07
9.999423742e-07
9.999842547e-07
1.000152764e-06
1.000819483e-06
1.003403911e-06
1.013133896e-06
1.048230202e-06
1.167032107e-06
1.532198172e-06
2.49623004e-06
4.471762571e-06
9.999287447e-07
9.9992895e-07
9.999296571e-07
9.999329109e-07
9.999466392e-07
1.000004548e-06
1.000247092e-06
1.001255133e-06
1.005395771e-06
1.022073337e-06
1.087141763e-06
1.328211991e-06
2.147882449e-06
4.546608386e-06
9.790849507e-06
9.999287349e-07
9.999289274e-07
9.999297976e-07
9.999332511e-07
9.99948632e-07
1.000014205e-06
1.000294451e-06
1.001490301e-06
1.00657071e-06
1.027957855e-06
1.116413201e-06
1.470430562e-06
2.802193662e-06
7.226800002e-06
1.819834267e-05
9.999289346e-07
9.999290677e-07
9.999297203e-07
9.999329511e-07
9.999465068e-07
1.000004468e-06
1.00024692e-06
1.001255054e-06
1.005395649e-06
1.022073294e-06
1.087140988e-06
1.328207015e-06
2.147857529e-06
4.546501654e-06
9.790516448e-06
9.999287564e-07
9.99928732e-07
9.999294906e-07
9.999319633e-07
9.999422128e-07
9.99984247e-07
1.000152798e-06
1.000819487e-06
1.003403945e-06
1.013133765e-06
1.048229397e-06
1.167027035e-06
1.532173148e-06
2.496125506e-06
4.471429571e-06
9.999285402e-07
9.999286586e-07
9.999291425e-07
9.999308896e-07
9.99938095e-07
9.999656913e-07
1.000070428e-06
1.000460818e-06
1.001876573e-06
1.006828356e-06
1.02331293e-06
1.074544729e-06
1.218983827e-06
1.572608281e-06
2.276799904e-06
9.999286479e-07
9.999287043e-07
9.999289632e-07
9.999302901e-07
9.999355554e-07
9.9995527e-07
1.000026491e-06
1.000277687e-06
1.001135214e-06
1.003941949e-06
1.012643272e-06
1.037770203e-06
1.103814489e-06
1.256978438e-06
1.558603481e-06
9.99928716e-07
9.999287197e-07
9.999292659e-07
9.999309858e-07
9.999376635e-07
9.999629564e-07
1.000057509e-06
1.00040153e-06
1.001617794e-06
1.005754122e-06
1.019124599e-06
1.059470686e-06
1.170179355e-06
1.435822305e-06
9.999286558e-07
9.999287667e-07
9.999293982e-07
9.999316474e-07
9.99940855e-07
9.999775537e-07
1.000122118e-06
1.000682398e-06
1.002809633e-06
1.010647303e-06
1.038318074e-06
1.130088897e-06
1.407089275e-06
2.128411231e-06
9.999286326e-07
9.999288223e-07
9.999296594e-07
9.999328976e-07
9.999467343e-07
1.000004622e-06
1.000247152e-06
1.00125511e-06
1.005395851e-06
1.022073804e-06
1.087144412e-06
1.328224962e-06
2.147946338e-06
4.546926583e-06
9.999287597e-07
9.999288551e-07
9.999299512e-07
9.999342723e-07
9.999528828e-07
1.000034901e-06
1.000396454e-06
1.00199208e-06
1.009031451e-06
1.039920873e-06
1.173499548e-06
1.733369451e-06
3.93738024e-06
1.156431857e-05
3.099470311e-05
9.999287795e-07
9.999289712e-07
9.999300854e-07
9.99934855e-07
9.99955789e-07
1.000050087e-06
1.00047586e-06
1.002420498e-06
1.011401624e-06
1.053350459e-06
1.251004099e-06
2.183636264e-06
6.509661006e-06
2.530457442e-05
9.029869454e-05
9.999288111e-07
9.999289763e-07
9.999299542e-07
9.999342428e-07
9.99952853e-07
1.00003501e-06
1.000396543e-06
1.001992133e-06
1.009031418e-06
1.039920579e-06
1.173497046e-06
1.733353526e-06
3.937284356e-06
1.156379011e-05
3.099240783e-05
9.999286736e-07
9.999289035e-07
9.999296305e-07
9.999328691e-07
9.999466886e-07
1.000004578e-06
1.000247122e-06
1.001255181e-06
1.005395827e-06
1.022073713e-06
1.087142625e-06
1.328212389e-06
2.147873486e-06
4.546535829e-06
9.790543084e-06
9.999284843e-07
9.999287259e-07
9.999292417e-07
9.999314773e-07
9.999407003e-07
9.999775317e-07
1.000122025e-06
1.000682425e-06
1.002809492e-06
1.010647008e-06
1.038316803e-06
1.130082025e-06
1.40705639e-06
2.128272578e-06
3.600003615e-06
9.999285636e-07
9.999286671e-07
9.999291409e-07
9.999307594e-07
9.999375164e-07
9.999628313e-07
1.000057353e-06
1.000401483e-06
1.001617726e-06
1.005753964e-06
1.019123736e-06
1.059467046e-06
1.170164053e-06
1.435767875e-06
1.962564291e-06
9.999287838e-07
9.999287612e-07
9.999292631e-07
9.999310429e-07
9.999382765e-07
9.999661136e-07
1.000071566e-06
1.000460179e-06
1.001856158e-06
1.006700544e-06
1.022742558e-06
1.072559996e-06
1.213758424e-06
1.563270735e-06
9.999286467e-07
9.999288608e-07
9.999293332e-07
9.999318844e-07
9.99942098e-07
9.999828924e-07
1.000146619e-06
1.000793774e-06
1.003309956e-06
1.01286803e-06
1.047945126e-06
1.170110339e-06
1.561664637e-06
2.651751002e-06
9.999286849e-07
9.999288521e-07
9.999296763e-07
9.999332664e-07
9.999486846e-07
1.000014316e-06
1.000294625e-06
1.001490519e-06
1.006571202e-06
1.027959726e-06
1.116421725e-06
1.470471268e-06
2.802388483e-06
7.227678715e-06
9.999288198e-07
9.999290428e-07
9.999300793e-07
9.999348052e-07
9.999558528e-07
1.00005011e-06
1.000476022e-06
1.00242055e-06
1.011402073e-06
1.053352393e-06
1.251015019e-06
2.183700663e-06
6.510065477e-06
2.530727052e-05
9.999287147e-07
9.999289165e-07
9.999301711e-07
9.999353959e-07
9.999592993e-07
1.000068263e-06
1.000575791e-06
1.00299116e-06
1.014816415e-06
1.074861854e-06
1.39422358e-06
3.192681859e-06
1.402267797e-05
8.421731627e-05
0.0005761311311
9.999288305e-07
9.999289978e-07
9.999300168e-07
9.999347694e-07
9.999558583e-07
1.000050089e-06
1.000475979e-06
1.002420445e-06
1.01140187e-06
1.053351659e-06
1.25100982e-06
2.183663748e-06
6.5097858e-06
2.530503754e-05
9.029915609e-05
9.99928736e-07
9.999289051e-07
9.999297121e-07
9.999333497e-07
9.99948588e-07
1.000014141e-06
1.000294576e-06
1.001490462e-06
1.006571087e-06
1.027958823e-06
1.116417116e-06
1.470445321e-06
2.802244628e-06
7.226929748e-06
1.81984211e-05
9.999286146e-07
9.999288399e-07
9.999294066e-07
9.999318867e-07
9.999419844e-07
9.999829136e-07
1.000146579e-06
1.000793546e-06
1.003309809e-06
1.01286759e-06
1.047942733e-06
1.170099104e-06
1.561613177e-06
2.651540522e-06
4.978049865e-06
9.999285733e-07
9.999286645e-07
9.999291584e-07
9.999309742e-07
9.999383271e-07
9.999662529e-07
1.000071429e-06
1.000459954e-06
1.001856031e-06
1.00670022e-06
1.022741255e-06
1.072554766e-06
1.213737599e-06
1.563198388e-06
2.265041837e-06
9.99928623e-07
9.999286397e-07
9.999291556e-07
9.999309156e-07
9.999375601e-07
9.999629385e-07
1.000057481e-06
1.000401539e-06
1.001617698e-06
1.005754289e-06
1.019125082e-06
1.059471977e-06
1.17018208e-06
1.435824582e-06
9.999287307e-07
9.99928757e-07
9.999293946e-07
9.999317281e-07
9.999408805e-07
9.999775428e-07
1.000122074e-06
1.000682564e-06
1.002809747e-06
1.010647622e-06
1.038319333e-06
1.130092828e-06
1.407099092e-06
2.128420885e-06
9.999286818e-07
9.999288326e-07
9.999295109e-07
9.99932788e-07
9.999465842e-07
1.000004505e-06
1.000247056e-06
1.001255312e-06
1.00539605e-06
1.022074865e-06
1.087148285e-06
1.328239415e-06
2.147992948e-06
4.547006532e-06
9.999287096e-07
9.999289379e-07
9.999299997e-07
9.999342205e-07
9.999527854e-07
1.000034976e-06
1.000396566e-06
1.001992179e-06
1.009031739e-06
1.039922669e-06
1.173507775e-06
1.733409118e-06
3.937567962e-06
1.156513336e-05
9.99928765e-07
9.999289033e-07
9.999299344e-07
9.999348015e-07
9.999558923e-07
1.00005011e-06
1.000475882e-06
1.002420537e-06
1.011402098e-06
1.053353085e-06
1.251018417e-06
2.183718288e-06
6.510145821e-06
2.530753833e-05
9.999287509e-07
9.999289634e-07
9.99929934e-07
9.999342197e-07
9.999530001e-07
1.000035076e-06
1.00039661e-06
1.001992127e-06
1.009031737e-06
1.039922213e-06
1.173505454e-06
1.733396378e-06
3.937500651e-06
1.156487774e-05
9.999286431e-07
9.999287083e-07
9.999294334e-07
9.999327543e-07
9.999465683e-07
1.000004592e-06
1.000247055e-06
1.001255123e-06
1.005396078e-06
1.022074476e-06
1.087146258e-06
1.328228231e-06
2.147937396e-06
4.546769703e-06
9.791297919e-06
9.999285864e-07
9.999286832e-07
9.999292519e-07
9.999315335e-07
9.999406898e-07
9.999774783e-07
1.000121954e-06
1.000682324e-06
1.00280963e-06
1.010647315e-06
1.038317978e-06
1.130086476e-06
1.407071985e-06
2.128319664e-06
3.600113157e-06
9.999284646e-07
9.9992853e-07
9.999290275e-07
9.999306845e-07
9.99937422e-07
9.999628445e-07
1.000057411e-06
1.00040163e-06
1.001617762e-06
1.005754023e-06
1.019124214e-06
1.059468439e-06
1.170168375e-06
1.435778884e-06
1.962584816e-06
9.999286092e-07
9.999287052e-07
9.999291254e-07
9.999305005e-07
9.999356937e-07
9.999553257e-07
1.000026509e-06
1.000277749e-06
1.001135244e-06
1.003942174e-06
1.012644444e-06
1.037774106e-06
1.103827109e-06
1.25701407e-06
9.999285913e-07
9.999287551e-07
9.999292327e-07
9.999309263e-07
9.999381323e-07
9.9996556e-07
1.000070338e-06
1.000460886e-06
1.001876786e-06
1.006829044e-06
1.023315315e-06
1.074553171e-06
1.219011712e-06
1.572691352e-06
9.999286933e-07
9.999288346e-07
9.999294176e-07
9.999318855e-07
9.999421999e-07
9.999842253e-07
1.000152808e-06
1.000819512e-06
1.003404097e-06
1.013135023e-06
1.048234295e-06
1.16704602e-06
1.532241809e-06
2.496344982e-06
9.9992872e-07
9.999288642e-07
9.999296536e-07
9.999328424e-07
9.99946627e-07
1.000004575e-06
1.000247078e-06
1.001255221e-06
1.005396187e-06
1.022075258e-06
1.087149279e-06
1.328242183e-06
2.147997926e-06
4.547002943e-06
9.999287558e-07
9.999289098e-07
9.999297091e-07
9.999333106e-07
9.999487306e-07
1.000014254e-06
1.000294548e-06
1.001490485e-06
1.006571459e-06
1.027960025e-06
1.116423298e-06
1.470476807e-06
2.802400614e-06
7.227649762e-06
9.999288585e-07
9.999289607e-07
9.999297788e-07
9.999329535e-07
9.999467737e-07
1.000004638e-06
1.000247117e-06
1.001255189e-06
1.005396133e-06
1.022074879e-06
1.087148182e-06
1.328237675e-06
2.147979805e-06
4.546947312e-06
9.999286938e-07
9.99928715e-07
9.999293171e-07
9.999319004e-07
9.9994232e-07
9.999842604e-07
1.000152804e-06
1.000819598e-06
1.003404143e-06
1.013134737e-06
1.048233029e-06
1.167041126e-06
1.532225395e-06
2.496313468e-06
9.999284928e-07
9.99928628e-07
9.999290565e-07
9.999308851e-07
9.999379844e-07
9.999656453e-07
1.000070517e-06
1.000460947e-06
1.001876703e-06
1.006828674e-06
1.023314178e-06
1.074549653e-06
1.219000032e-06
1.572655872e-06
2.276923376e-06
9.999284007e-07
9.999284531e-07
9.999287752e-07
9.999302203e-07
9.999355635e-07
9.99955226e-07
1.000026498e-06
1.00027764e-06
1.001135211e-06
1.00394205e-06
1.012643925e-06
1.03777226e-06
1.103820546e-06
1.256993717e-06
1.55863301e-06
9.999285206e-07
9.999284893e-07
9.999288119e-07
9.999299639e-07
9.9993378e-07
9.999478225e-07
9.999967095e-07
1.000162804e-06
1.000705885e-06
1.002403593e-06
1.007424841e-06
1.021265762e-06
1.056161711e-06
1.134788372e-06
9.999285498e-07
9.999285672e-07
9.99928939e-07
9.999304091e-07
9.999354648e-07
9.999542875e-07
1.000023019e-06
1.000266618e-06
1.001103116e-06
1.003860501e-06
1.012479281e-06
1.037587691e-06
1.104142688e-06
1.259457174e-06
9.999287631e-07
9.999287981e-07
9.99929143e-07
9.999309458e-07
9.9993817e-07
9.999657109e-07
1.0000704e-06
1.000460914e-06
1.001876718e-06
1.006829108e-06
1.023315447e-06
1.074553636e-06
1.21901258e-06
1.572691694e-06
9.999285838e-07
9.999287409e-07
9.999293264e-07
9.999315925e-07
9.999407953e-07
9.999775753e-07
1.000122124e-06
1.000682551e-06
1.002809726e-06
1.010647827e-06
1.038320111e-06
1.130095289e-06
1.407103867e-06
2.128424045e-06
9.999287248e-07
9.99928827e-07
9.999294497e-07
9.999319394e-07
9.999419754e-07
9.999828515e-07
1.000146659e-06
1.000793757e-06
1.003310014e-06
1.012868524e-06
1.047946609e-06
1.170114013e-06
1.561670847e-06
2.651744009e-06
9.999288532e-07
9.999288998e-07
9.999293972e-07
9.999316444e-07
9.99940802e-07
9.999774572e-07
1.00012201e-06
1.000682578e-06
1.002809827e-06
1.010647873e-06
1.038319799e-06
1.130093522e-06
1.407097633e-06
2.128406519e-06
9.999286385e-07
9.999286323e-07
9.999290937e-07
9.999309722e-07
9.999380448e-07
9.999656386e-07
1.000070443e-06
1.000460854e-06
1.001876814e-06
1.006828951e-06
1.02331494e-06
1.074551757e-06
1.21900737e-06
1.57268092e-06
9.999285526e-07
9.999285276e-07
9.999288835e-07
9.99930209e-07
9.999352347e-07
9.999541802e-07
1.000022953e-06
1.000266674e-06
1.001103007e-06
1.003860429e-06
1.012478789e-06
1.037586329e-06
1.104139334e-06
1.259452687e-06
9.999283734e-07
9.999283798e-07
9.999286608e-07
9.999297461e-07
9.999337233e-07
9.999477976e-07
9.999967084e-07
1.000162719e-06
1.000705716e-06
1.002403453e-06
1.007424476e-06
1.021264848e-06
1.056159297e-06
1.134781906e-06
1.289240624e-06
9.999284724e-07
9.999285702e-07
9.999288042e-07
9.99929627e-07
9.999326916e-07
9.999435345e-07
9.999799457e-07
1.000098947e-06
1.000473911e-06
1.001599679e-06
1.004795031e-06
1.013261553e-06
1.033894574e-06
1.079388432e-06
9.999286172e-07
9.999285686e-07
9.999288194e-07
9.999299394e-07
9.999336849e-07
9.999478006e-07
9.999968588e-07
1.000162847e-06
1.00070588e-06
1.002403578e-06
1.007424844e-06
1.021265913e-06
1.056162154e-06
1.134788758e-06
9.99928553e-07
9.999286719e-07
9.99928984e-07
9.999303619e-07
9.999356168e-07
9.999552796e-07
1.000026447e-06
1.000277667e-06
1.001135266e-06
1.003942266e-06
1.012644713e-06
1.0377748e-06
1.103828516e-06
1.257015963e-06
9.999287253e-07
9.999286877e-07
9.999290607e-07
9.999307921e-07
9.999375151e-07
9.999628943e-07
1.000057475e-06
1.000401523e-06
1.001617967e-06
1.005754646e-06
1.019125785e-06
1.059473714e-06
1.170185239e-06
1.435827851e-06
9.999287238e-07
9.999288352e-07
9.999292761e-07
9.999310466e-07
9.999383231e-07
9.999662972e-07
1.00007155e-06
1.000460116e-06
1.001856336e-06
1.006701e-06
1.022743393e-06
1.072561956e-06
1.213761351e-06
1.563269965e-06
9.999287674e-07
9.999287822e-07
9.999292219e-07
9.999308798e-07
9.999375615e-07
9.999629543e-07
1.000057459e-06
1.000401702e-06
1.001618002e-06
1.005754615e-06
1.019125544e-06
1.059473098e-06
1.170183152e-06
1.435822372e-06
9.999286264e-07
9.999286966e-07
9.999290482e-07
9.99930349e-07
9.999356223e-07
9.999552826e-07
1.000026545e-06
1.00027776e-06
1.001135231e-06
1.003942292e-06
1.012644472e-06
1.03777413e-06
1.103826616e-06
1.257011828e-06
9.999284629e-07
9.999285624e-07
9.999287662e-07
9.999297664e-07
9.999337254e-07
9.999477775e-07
9.999968159e-07
1.000162832e-06
1.000705828e-06
1.002403587e-06
1.007424648e-06
1.021265289e-06
1.056160767e-06
1.134786711e-06
9.999283796e-07
9.999284077e-07
9.999286861e-07
9.999295034e-07
9.999325783e-07
9.999433531e-07
9.99979805e-07
1.000098854e-06
1.000473782e-06
1.001599607e-06
1.004794965e-06
1.013261103e-06
1.033893724e-06
1.079388e-06
)
;

boundaryField
{
    top
    {
        type            zeroGradient;
    }
    bottom
    {
        type            zeroGradient;
    }
    side-walls
    {
        type            zeroGradient;
    }
    inlet
    {
        type            zeroGradient;
    }
    outlet
    {
        type            zeroGradient;
    }
    procBoundary0to1
    {
        type            processor;
        value           nonuniform List<scalar> 
97
(
1.324045032e-06
1.289240283e-06
1.550018609e-06
2.048568883e-06
2.777909405e-06
3.297673501e-06
2.777889047e-06
2.048546073e-06
1.549999221e-06
1.324032116e-06
1.289240283e-06
1.289240283e-06
2.058546161e-06
2.276934817e-06
3.336217658e-06
5.603005578e-06
7.737262243e-06
5.60295532e-06
3.336162422e-06
2.058506267e-06
1.550000726e-06
1.558639324e-06
2.276934817e-06
2.276934817e-06
7.103889261e-06
9.791454946e-06
1.546893748e-05
2.640248088e-05
1.546866375e-05
7.103696161e-06
3.336153767e-06
2.048547937e-06
1.962610004e-06
3.600176028e-06
9.791454946e-06
9.791454946e-06
4.4101993e-05
9.030722051e-05
0.0001001808972
4.410103636e-05
1.546869209e-05
5.602960901e-06
2.777898149e-06
2.265101393e-06
4.97828299e-06
1.819966649e-05
9.030722051e-05
9.030722051e-05
0.0003411722431
9.030676968e-05
0.000100180928
3.099456844e-05
2.640250743e-05
7.737270242e-06
3.297677054e-06
1.962604649e-06
3.600131159e-06
9.791052745e-06
3.099432488e-05
9.030676968e-05
3.099456844e-05
3.099456844e-05
1.546891182e-05
4.471754548e-06
5.60303351e-06
2.777916181e-06
1.558628197e-06
2.276868003e-06
4.471630813e-06
9.79103003e-06
1.819948708e-05
9.790998038e-06
4.471754548e-06
4.471754548e-06
3.336204758e-06
1.565539996e-06
2.048574034e-06
1.289224742e-06
1.56551493e-06
2.276868155e-06
3.600133056e-06
4.978248195e-06
3.600108711e-06
2.276870983e-06
1.565539996e-06
1.565539996e-06
1.550017548e-06
1.168753489e-06
1.16874589e-06
1.289225508e-06
1.558631505e-06
1.962609279e-06
2.265095461e-06
1.962600289e-06
1.558627469e-06
1.289227177e-06
1.168753489e-06
)
;
    }
}


// ************************************************************************* //
