/*--------------------------------*- C++ -*----------------------------------*\
| =========                 |                                                 |
| \\      /  F ield         | OpenFOAM: The Open Source CFD Toolbox           |
|  \\    /   O peration     | Version:  4.x                                   |
|   \\  /    A nd           | Web:      www.OpenFOAM.org                      |
|    \\/     M anipulation  |                                                 |
\*---------------------------------------------------------------------------*/
FoamFile
{
    version     2.0;
    format      ascii;
    class       surfaceScalarField;
    location    "10000";
    object      phi;
}
// * * * * * * * * * * * * * * * * * * * * * * * * * * * * * * * * * * * * * //

dimensions      [1 0 -1 0 0 0 0];

internalField   nonuniform List<scalar> 
3175
(
9.428238048e-06
-2.039135774e-12
-7.959756624e-15
9.428237117e-06
-2.222486453e-12
-2.451334995e-13
9.428236078e-06
-6.53651661e-13
-7.404862521e-14
9.428238629e-06
-7.779086767e-13
1.811331066e-12
9.42823564e-06
-2.624704891e-12
-3.536577232e-13
9.428237134e-06
-1.40042338e-12
-6.995411455e-13
9.428239368e-06
-1.205183873e-12
-9.303185046e-13
9.428244003e-06
-1.279563498e-12
-1.596898398e-12
9.428250246e-06
-7.062940751e-13
-3.451012719e-12
9.428259798e-06
-2.535619524e-12
-4.526751106e-12
9.428268943e-06
-6.071272732e-12
-5.644996299e-12
9.428288181e-06
-8.382280053e-12
-9.613524748e-12
9.428314632e-06
-1.234160348e-11
-1.372548453e-11
9.428339851e-06
-1.194592346e-11
-1.249334383e-11
-2.253590673e-11
9.428229093e-06
1.488640717e-12
1.916866562e-15
9.428227938e-06
-5.540050115e-13
6.23184513e-13
9.428227587e-06
-1.306990403e-12
-1.440794571e-13
9.428226613e-06
-1.321989195e-12
6.004219565e-13
9.428229212e-06
-4.03383649e-13
7.43717273e-13
9.428228684e-06
-4.335903107e-13
-9.466300916e-13
9.428231747e-06
-1.940773994e-12
-1.177956489e-12
9.428235296e-06
-3.341359777e-12
-3.558500132e-12
9.428238732e-06
-5.842964273e-12
-3.219593937e-12
9.428248363e-06
-7.14106269e-12
-4.529732561e-12
9.428259833e-06
-9.690883641e-12
-5.640609848e-12
9.428276196e-06
-1.6784927e-11
-1.149971278e-11
9.42830538e-06
-2.25993286e-11
-1.590662347e-11
9.428331328e-06
-2.515627752e-11
-1.778384528e-11
-4.350217079e-11
-3.541543887e-11
9.428238083e-06
-3.167455782e-13
-5.391841783e-13
9.428238458e-06
-5.346463942e-14
7.454891185e-13
9.428238688e-06
-1.209533943e-13
1.336693633e-12
9.428239118e-06
-4.436450226e-13
8.770124219e-13
9.428238459e-06
1.985161646e-13
-1.111863027e-12
9.428238579e-06
4.981758722e-13
-3.433528981e-12
9.428240807e-06
-2.017028439e-12
-7.891457134e-13
9.428243945e-06
-3.252332837e-12
-2.757236903e-12
9.42824926e-06
-4.121154498e-12
-3.165260689e-12
9.428253932e-06
-7.502812413e-12
-7.663488764e-12
9.428259974e-06
-1.138437753e-11
-1.040161196e-11
9.428277034e-06
-1.868675084e-11
-2.098039892e-11
9.428301442e-06
-2.557310857e-11
-2.560004276e-11
9.428339826e-06
-2.823235788e-11
-3.528120364e-11
-5.403840574e-11
-7.843802284e-11
9.428198382e-06
-7.515660479e-13
1.695438374e-13
9.428198696e-06
-7.938340319e-13
1.343797811e-12
9.428196911e-06
-7.869288299e-13
8.699388723e-13
9.428199406e-06
1.024538693e-12
4.41613725e-13
9.428197499e-06
1.004521587e-12
-7.397100148e-13
9.428194824e-06
9.994821466e-13
-1.479565095e-12
9.428195788e-06
2.411908602e-13
-8.708512339e-13
9.428198119e-06
-5.290640861e-13
-2.295531235e-12
9.428201958e-06
-7.314091999e-13
-2.308476244e-12
9.428209995e-06
-3.824763121e-12
-5.762648539e-12
9.428214682e-06
-7.63299525e-12
-9.955323197e-12
9.428235814e-06
-1.486211941e-11
-2.280280032e-11
9.428263997e-06
-1.999895911e-11
-2.20859553e-11
9.428309999e-06
-3.08127002e-11
-4.024308843e-11
-4.915466052e-11
-1.068226537e-10
9.428230021e-06
-4.491623108e-13
4.978100027e-13
9.428229965e-06
9.367635826e-13
1.510609798e-12
9.428230714e-06
1.759010678e-12
7.479124666e-13
9.428230904e-06
9.722932234e-13
-2.365038536e-13
9.428231103e-06
1.782685059e-12
-5.72090535e-13
9.42822919e-06
1.2342732e-12
-2.735957034e-12
9.428229638e-06
1.639280841e-12
-1.437120503e-12
9.4282315e-06
2.538141114e-12
-3.781009136e-12
9.428231003e-06
1.788128974e-12
-4.241677638e-12
9.428233519e-06
5.307572633e-12
-1.176478565e-11
9.428234405e-06
8.300289797e-12
-1.56342877e-11
9.428250996e-06
1.730498411e-11
-4.531601845e-11
9.428262541e-06
2.361919385e-11
-5.489200495e-11
9.428333536e-06
3.33226833e-11
-1.320577674e-10
5.085794523e-11
-2.862778391e-10
9.428289945e-06
-8.422240906e-13
6.787213209e-13
9.428292158e-06
-2.254137548e-14
-2.798619058e-13
9.428291528e-06
4.530964217e-13
-4.739480541e-14
9.428291672e-06
-1.219024951e-14
-9.059181942e-13
9.428290104e-06
-1.328025182e-12
-1.557775392e-12
9.428290182e-06
2.137265322e-13
-2.240011233e-12
9.428291357e-06
2.761187893e-13
-1.712121377e-12
9.428293357e-06
3.432001194e-12
-2.19544329e-12
9.428297755e-06
5.722367501e-12
-2.726180832e-12
9.428302883e-06
9.290069061e-12
-8.240867381e-12
9.428312335e-06
1.197265036e-11
-9.802425942e-12
9.42833276e-06
1.755532614e-11
-2.339624512e-11
9.428357262e-06
2.347881241e-11
-2.471458731e-11
9.428402957e-06
2.822439745e-11
-3.956088785e-11
5.330717631e-11
-1.06403152e-10
9.428287741e-06
5.911837053e-13
-6.067477361e-14
9.428288161e-06
-1.748171353e-13
-5.594811552e-13
9.428286867e-06
-8.7987083e-13
-8.329414981e-13
9.428287661e-06
8.521793611e-13
-3.657793319e-13
9.428287832e-06
3.860937997e-13
-1.180327081e-12
9.428288215e-06
1.019250041e-12
-1.681022934e-12
9.428291745e-06
2.395175803e-12
-1.51739695e-12
9.428292451e-06
3.836380915e-12
-2.363631312e-12
9.428295894e-06
6.193649281e-12
-3.288508086e-12
9.428301667e-06
1.012348212e-11
-7.446543672e-12
9.428310272e-06
1.255119482e-11
-7.8820413e-12
9.428327349e-06
1.906636419e-11
-1.836744172e-11
9.428352373e-06
2.599383924e-11
-2.587355824e-11
9.428388494e-06
2.777221268e-11
-3.569374078e-11
4.636428677e-11
-7.655649746e-11
9.42823519e-06
1.454168646e-12
-8.498599787e-13
9.428234444e-06
1.846404595e-13
2.929512389e-13
9.428236733e-06
2.362092161e-13
-1.110152096e-12
9.428235979e-06
2.901925648e-13
-1.054238989e-12
9.428238169e-06
1.318382827e-12
-8.535971687e-13
9.42824024e-06
1.855396046e-12
-1.642635299e-12
9.42824107e-06
2.482041755e-12
-1.220574171e-12
9.42824552e-06
2.57951525e-12
-2.985060098e-12
9.42824892e-06
1.639199524e-12
-4.771670886e-12
9.428257758e-06
4.501594997e-12
-6.651910665e-12
9.428268374e-06
5.617783582e-12
-7.325163195e-12
9.428287073e-06
8.838686294e-12
-1.38123746e-11
9.428313778e-06
1.168590983e-11
-1.733774772e-11
9.428341993e-06
1.29458329e-11
-1.909657571e-11
2.147864893e-11
-3.557007056e-11
9.428232594e-06
-2.357456108e-13
9.428235891e-06
-2.19598075e-14
9.428235708e-06
-1.239345973e-12
9.428236251e-06
-1.436388931e-12
9.428237181e-06
-1.404206643e-12
9.428238327e-06
-1.370086109e-12
9.428239944e-06
-2.399967451e-12
9.428243397e-06
-3.516568503e-12
9.428252056e-06
-2.895571398e-12
9.428257622e-06
-5.185377825e-12
9.428269712e-06
-5.636327748e-12
9.428286553e-06
-1.023362449e-11
9.428315106e-06
-1.262648611e-11
9.428339657e-06
-1.398195453e-11
-2.301114747e-11
9.428258548e-06
-2.120225418e-12
8.977878901e-13
9.428256886e-06
-3.906697116e-13
2.156266898e-13
9.428255653e-06
-2.542183704e-13
7.599305441e-13
9.42825678e-06
-2.57511619e-13
4.819034416e-13
9.428256655e-06
-3.770922243e-13
-9.285541827e-13
9.428259865e-06
-1.834464454e-12
-1.130943009e-12
9.42825964e-06
-2.293982682e-12
-3.279571652e-12
9.428264417e-06
-2.272671949e-12
-2.786249595e-12
9.428270586e-06
-2.00700112e-12
-3.401570611e-12
9.428277734e-06
-4.291115505e-12
-7.903440391e-12
9.428285367e-06
-6.766911688e-12
-1.225748352e-11
9.428305713e-06
-9.492168589e-12
-1.655722595e-11
9.428333147e-06
-1.47143091e-11
-2.288536762e-11
-1.774643629e-11
-2.484510983e-11
9.428232558e-06
1.380784082e-12
2.490991897e-12
9.42822874e-06
-8.545230269e-13
1.550703346e-13
9.428228572e-06
-3.357344511e-13
8.402154158e-13
9.428229463e-06
-1.012961035e-12
-6.904769127e-13
9.428226992e-06
-1.767830766e-12
-1.026930133e-12
9.428229219e-06
-1.194587396e-12
-9.451591541e-13
9.428229708e-06
-2.113710278e-12
-2.150420911e-12
9.428234839e-06
-3.535676328e-12
-3.598455442e-12
9.428238618e-06
-4.747215398e-12
-4.437973045e-12
9.428245556e-06
-9.484686213e-12
-9.134733242e-12
9.428256075e-06
-1.334254971e-11
-1.248687851e-11
9.428275338e-06
-2.197002892e-11
-2.28051297e-11
9.428301802e-06
-2.854912775e-11
-2.807197517e-11
9.428336453e-06
-3.310593061e-11
-3.482271507e-11
-6.898879508e-11
9.42821458e-06
8.82199319e-13
1.525648972e-12
9.428213494e-06
3.362817982e-14
1.446404353e-12
9.42821344e-06
-2.025500059e-13
-5.274057769e-13
9.428213801e-06
8.949061799e-13
-1.434675535e-12
9.428211738e-06
2.145830175e-13
-1.687599774e-12
9.42821399e-06
1.172030227e-12
-1.470739223e-12
9.42821243e-06
-5.19495826e-13
-2.91439175e-12
9.428214376e-06
-3.02542911e-12
-5.708270849e-12
9.428215632e-06
-3.757383197e-12
-6.345096185e-12
9.428220725e-06
-7.132066257e-12
-1.339834863e-11
9.428225695e-06
-1.213723231e-11
-1.656534154e-11
9.42824508e-06
-2.368822204e-11
-3.687491667e-11
9.42826741e-06
-2.752465411e-11
-4.597082174e-11
9.428319312e-06
-4.325825857e-11
-7.712238717e-11
-9.66279129e-11
-1.690274511e-10
9.428251986e-06
-5.848792294e-13
6.45429424e-13
9.428252197e-06
1.464775744e-13
8.13716079e-13
9.42825203e-06
-4.543844419e-13
-3.417861921e-13
9.428252558e-06
-2.109070049e-13
-6.729289242e-13
9.42825249e-06
7.849413729e-13
-5.923137876e-13
9.428253518e-06
8.731830491e-13
-1.410600287e-12
9.428252941e-06
2.811039138e-13
-4.475678167e-12
9.42825663e-06
-1.017789738e-12
-4.397159605e-12
9.428257731e-06
-3.752800035e-12
-7.807436283e-12
9.428260057e-06
-8.128377717e-12
-1.795919142e-11
9.428266621e-06
-1.119426344e-11
-1.711694638e-11
9.428291799e-06
-2.447675285e-11
-4.705898752e-11
9.428312298e-06
-3.389933289e-11
-4.118320638e-11
9.428386644e-06
-5.695318863e-11
-9.769529411e-11
-9.586239578e-11
-2.423644513e-10
9.428249667e-06
-6.763158555e-13
-1.254748582e-13
9.428249029e-06
-3.337996779e-13
-8.691495534e-13
9.428248412e-06
1.292244458e-14
-4.571589557e-13
9.428247823e-06
-1.380747249e-13
-2.241459675e-13
9.428247024e-06
1.01481373e-12
-6.17004589e-13
9.428248579e-06
9.003939922e-13
-2.74641137e-12
9.428244269e-06
5.368966291e-13
-4.158596572e-12
9.428244103e-06
3.670401049e-12
-6.763776836e-12
9.428241853e-06
2.981615031e-12
-1.027269566e-11
9.42824077e-06
6.418501608e-12
-2.469958019e-11
9.42823495e-06
1.094914988e-11
-3.000455165e-11
9.428245992e-06
2.533359572e-11
-1.005616717e-10
9.428237502e-06
3.489351487e-11
-1.104431436e-10
9.428378659e-06
5.929612354e-11
-3.933288239e-10
9.762665256e-11
-7.849801732e-10
9.428209181e-06
-1.730744616e-12
-6.082022841e-14
9.428210236e-06
-3.929367607e-13
-7.819796889e-14
9.428209486e-06
4.2479749e-13
-4.740627468e-13
9.428210793e-06
1.138698357e-12
7.845880208e-13
9.428207068e-06
-7.299377881e-13
-1.350367331e-12
9.428206567e-06
6.418515405e-13
-2.103592099e-12
9.428207334e-06
8.172763012e-13
-2.717511556e-12
9.428203525e-06
3.955124786e-12
-6.676424079e-12
9.428205951e-06
5.0289144e-12
-7.673984904e-12
9.428211114e-06
1.047999836e-11
-1.687918234e-11
9.42822058e-06
1.432111581e-11
-1.786788893e-11
9.42824194e-06
2.399112946e-11
-4.980274811e-11
9.428265244e-06
2.897475965e-11
-4.197379586e-11
9.428338482e-06
4.280728517e-11
-9.961955415e-11
9.880219139e-11
-2.418012728e-10
9.42816485e-06
7.075299552e-13
2.278618685e-12
9.4281654e-06
1.798273875e-14
-2.418212626e-13
9.42816533e-06
-8.381933538e-14
-7.110676923e-13
9.428165336e-06
1.019608941e-12
-5.96917212e-13
9.428164188e-06
6.493787878e-13
-1.964415998e-12
9.428163008e-06
8.649020109e-13
-2.263268153e-12
9.428167523e-06
2.560244439e-12
-1.192281273e-12
9.428165179e-06
2.643359967e-12
-5.987626732e-12
9.428168649e-06
5.074656861e-12
-6.589533084e-12
9.428173923e-06
1.009783404e-11
-1.366359261e-11
9.428179252e-06
1.292903907e-11
-1.805631708e-11
9.428198568e-06
2.094353038e-11
-3.798946484e-11
9.4282207e-06
2.938987195e-11
-4.726910899e-11
9.428275541e-06
3.541401215e-11
-7.710774192e-11
7.055212547e-11
-1.694274952e-10
9.428294479e-06
1.474594539e-12
7.038432294e-13
9.428291681e-06
-3.248019299e-13
-9.798472899e-13
9.428294144e-06
1.232495031e-12
-8.636969466e-13
9.428293314e-06
-6.001142828e-13
-2.222623148e-12
9.428293191e-06
-1.238412256e-12
-2.668717595e-12
9.428295978e-06
1.396812086e-12
-5.724543188e-13
9.428297437e-06
9.621896183e-14
-2.62591164e-12
9.428300254e-06
1.087374386e-12
-5.0684894e-12
9.428302592e-06
2.424571006e-12
-6.994665318e-12
9.428309577e-06
3.722264432e-12
-1.130068648e-11
9.4283189e-06
6.193477632e-12
-1.391249286e-11
9.428342216e-06
1.140641238e-11
-2.213121574e-11
9.428366671e-06
1.694991722e-11
-2.95139069e-11
9.42840175e-06
1.749906629e-11
-3.548071096e-11
3.439624556e-11
-6.854447385e-11
9.428231378e-06
-1.12753351e-13
9.428231026e-06
-5.025584088e-13
9.428230869e-06
-1.452956801e-12
9.428230335e-06
-2.433389901e-12
9.428232263e-06
-1.831188863e-12
9.428229997e-06
-3.277956007e-12
9.428233537e-06
-3.33943018e-12
9.42823778e-06
-4.235847955e-12
9.428240734e-06
-5.342463974e-12
9.428250241e-06
-7.817347584e-12
9.428259844e-06
-1.099469714e-11
9.428280732e-06
-1.652858389e-11
9.428304935e-06
-2.416657319e-11
9.428334138e-06
-2.662381409e-11
-4.551984465e-11
9.428249406e-06
-7.241701693e-13
1.0947897e-12
9.428248886e-06
-9.769783008e-13
1.539984423e-13
9.428248477e-06
-2.530631685e-13
-2.220595426e-13
9.428248602e-06
-2.509240449e-12
2.840167028e-13
9.428248454e-06
-1.075010731e-12
2.349788126e-12
9.428249984e-06
-2.296245942e-12
2.867692784e-12
9.428253505e-06
-1.382628393e-12
1.360519926e-12
9.428254804e-06
-3.700509607e-12
-1.656990459e-12
9.428257659e-06
-3.382841603e-12
-3.140655189e-12
9.428264034e-06
-6.489418169e-12
-6.760424672e-12
9.428272863e-06
-7.404354901e-12
-9.326303503e-12
9.428289004e-06
-1.853730784e-11
-1.66040354e-11
9.428315789e-06
-2.424349429e-11
-2.158378442e-11
-3.493833091e-11
-2.711338428e-11
9.428248743e-06
5.723429619e-13
1.127475237e-12
9.428249181e-06
2.625783938e-13
6.478520672e-13
9.428246254e-06
-1.880716959e-12
-4.205744156e-13
9.428249715e-06
-1.853647867e-12
5.412075385e-14
9.428247132e-06
-2.745727072e-12
4.102654897e-13
9.428248618e-06
-1.87833386e-12
1.071083578e-12
9.428248165e-06
-2.572871091e-12
4.912837603e-13
9.428250593e-06
-5.412852736e-12
-1.698956539e-12
9.428253333e-06
-6.393015654e-12
-4.73041391e-12
9.428258735e-06
-1.316531795e-11
-8.600854947e-12
9.428263465e-06
-1.670085631e-11
-1.114617677e-11
9.428283595e-06
-3.661175739e-11
-2.275412821e-11
9.428305048e-06
-4.661492496e-11
-2.750344765e-11
-7.557182856e-11
-4.23562602e-11
9.428245754e-06
-9.476970928e-13
-2.895448457e-13
9.428244947e-06
-6.68425912e-13
-8.522650411e-13
9.428245442e-06
-4.164840202e-13
-8.116901352e-14
9.42824758e-06
1.312232733e-12
1.642323959e-12
9.42824584e-06
1.428914056e-12
4.831526067e-13
9.428246564e-06
9.816921214e-13
5.072173927e-14
9.428245975e-06
-7.490220521e-13
-5.872405985e-13
9.428246221e-06
-9.738405858e-13
-3.074523489e-12
9.428242569e-06
-4.857278041e-12
-4.987781804e-12
9.428244396e-06
-1.365762108e-11
-1.381616e-11
9.428241633e-06
-1.680039633e-11
-1.648552823e-11
9.428256942e-06
-4.358846351e-11
-4.428861793e-11
9.428262897e-06
-5.023242736e-11
-5.029305735e-11
9.428359838e-06
-1.258869455e-10
-1.259790416e-10
-2.837516053e-10
9.428250419e-06
-1.116562038e-12
-4.927015652e-13
9.428248079e-06
-1.310492911e-12
-9.295766902e-13
9.428249094e-06
2.065495921e-14
1.664763763e-12
9.428248226e-06
1.980222077e-13
8.409444619e-13
9.428248898e-06
3.891040303e-13
9.446362496e-13
9.428245267e-06
-8.217811899e-13
-1.033754495e-12
9.428247238e-06
-1.247247206e-12
-2.220305993e-12
9.428242776e-06
-2.835246788e-12
-6.081300924e-12
9.428240737e-06
-4.857830826e-12
-7.193108478e-12
9.428241248e-06
-1.037579426e-11
-1.724946621e-11
9.428239033e-06
-1.762303145e-11
-1.425245747e-11
9.428258252e-06
-4.958991313e-11
-6.342827048e-11
9.428265837e-06
-6.759060287e-11
-3.23873569e-11
9.428425612e-06
-1.712454449e-10
-2.080058615e-10
-2.944806087e-10
-4.934274756e-10
9.428221309e-06
-5.734118133e-13
-8.133639828e-13
9.428220259e-06
-1.218840509e-13
-3.098514675e-13
9.428220413e-06
9.216612426e-14
1.424599705e-12
9.428220854e-06
7.926412942e-13
1.592694976e-13
9.428219523e-06
2.537369385e-14
-5.562786026e-13
9.428217414e-06
1.309444041e-12
-8.621287239e-13
9.428215172e-06
1.983710086e-12
-1.954564162e-12
9.428207877e-06
2.935701502e-12
-6.138141017e-12
9.428197628e-06
4.517781126e-12
-8.99440158e-12
9.428179766e-06
1.10549757e-11
-2.808546187e-11
9.428150039e-06
1.746007747e-11
-3.174810621e-11
9.428114729e-06
4.849776919e-11
-1.628800364e-10
9.428014518e-06
6.83573202e-11
-1.448605421e-10
9.428376442e-06
1.726028427e-10
-1.097201286e-09
2.9781416e-10
-2.128798449e-09
9.428276642e-06
8.882105467e-13
-1.945534417e-13
9.42827488e-06
-1.012790103e-12
-2.439537043e-13
9.428276071e-06
2.016691453e-13
2.024532544e-15
9.428272407e-06
-9.825772184e-13
-8.237126918e-13
9.428274105e-06
1.261950675e-13
8.965172108e-14
9.428273795e-06
1.274753847e-12
-1.081534082e-12
9.428270691e-06
1.855967462e-12
-1.962227887e-12
9.428269731e-06
4.656431604e-12
-6.0596045e-12
9.428267215e-06
6.601607379e-12
-7.375118677e-12
9.428265816e-06
1.495616693e-11
-1.619162074e-11
9.428265202e-06
1.833260712e-11
-1.426348328e-11
9.428282776e-06
4.698227131e-11
-6.376636282e-11
9.428289191e-06
5.144256966e-11
-3.175525274e-11
9.428451771e-06
1.253200737e-10
-2.084641252e-10
2.851101512e-10
-4.942637839e-10
9.428260965e-06
-9.885354674e-13
-1.680851698e-12
9.428261312e-06
2.995977338e-13
-3.552696454e-13
9.428260313e-06
-9.382939834e-14
-3.884410244e-13
9.428259516e-06
-3.095484305e-13
-1.074907504e-12
9.428260232e-06
-7.27679386e-13
-1.227738952e-12
9.428261081e-06
2.963809372e-12
-1.56478406e-12
9.428260409e-06
2.414606059e-12
-1.237546087e-12
9.428258321e-06
2.954397368e-12
-3.746183021e-12
9.428255879e-06
5.405799615e-12
-5.693472143e-12
9.428256141e-06
1.293764662e-11
-1.393464258e-11
9.428253209e-06
1.641713565e-11
-1.639223606e-11
9.428267419e-06
3.638086967e-11
-4.64101847e-11
9.4282737e-06
4.669101622e-11
-5.099256058e-11
9.428372725e-06
7.770573263e-11
-1.252046712e-10
1.697502949e-10
-2.867315911e-10
9.428255561e-06
5.273000853e-13
-4.076826076e-13
9.428254913e-06
7.659524204e-13
-1.410903129e-12
9.428256989e-06
-2.465975124e-13
-6.964302774e-13
9.42825701e-06
-1.469257005e-13
-2.842952768e-13
9.428259136e-06
-2.524026963e-13
-1.027365592e-12
9.428256854e-06
-1.482588999e-12
-2.069184938e-12
9.428257448e-06
-5.602813985e-13
-2.231872016e-12
9.428260655e-06
2.41545857e-12
-2.554739137e-12
9.428262094e-06
3.50350448e-12
-4.69319437e-12
9.428265718e-06
6.986594182e-12
-8.610249063e-12
9.42827035e-06
1.00419584e-11
-1.072211704e-11
9.428290354e-06
1.900323314e-11
-2.452069779e-11
9.428310039e-06
2.693659145e-11
-2.929281171e-11
9.428363836e-06
3.545959875e-11
-4.386287986e-11
7.609005994e-11
-9.915638185e-11
9.428264688e-06
-1.655075035e-12
9.428263885e-06
-2.478606346e-12
9.428264587e-06
-1.995758702e-13
9.428265903e-06
-7.988175146e-13
9.428268292e-06
1.136121674e-13
9.428269456e-06
-2.905096813e-13
9.428269308e-06
-2.930683805e-13
9.42827399e-06
-2.1709217e-12
9.428274277e-06
-3.772672993e-12
9.428282877e-06
-5.527566959e-12
9.428290131e-06
-9.077145817e-12
9.428310304e-06
-1.619317522e-11
9.428331852e-06
-2.479652564e-11
9.428372044e-06
-2.775989516e-11
-5.569056721e-11
9.428264521e-06
-1.130950507e-12
1.051771427e-13
9.428261902e-06
-1.371851944e-12
9.621650456e-14
9.428261516e-06
-1.449389243e-12
1.217889174e-12
9.428263237e-06
-1.294039212e-12
7.355388456e-13
9.42826094e-06
-1.944417751e-12
-1.172409265e-13
9.428260851e-06
-3.424416264e-12
-1.464607445e-12
9.428263545e-06
-1.688285918e-12
-1.759627114e-12
9.428266424e-06
-3.97734826e-12
-1.167117929e-12
9.428266692e-06
-5.848264558e-12
-1.985035415e-12
9.428274231e-06
-8.189658082e-12
-4.446060162e-12
9.42828199e-06
-8.369519221e-12
-6.654566015e-12
9.428303509e-06
-2.180398526e-11
-1.385294961e-11
9.428326006e-06
-2.269346822e-11
-2.065499202e-11
-4.039090124e-11
-2.993018243e-11
9.428262753e-06
-1.076998968e-12
-2.733503914e-13
9.428261598e-06
-1.382641076e-12
-2.183204168e-13
9.428261118e-06
-1.514400229e-12
1.653995991e-13
9.428261615e-06
-1.084765441e-12
6.3260791e-13
9.428260218e-06
-1.509772252e-12
6.168285376e-13
9.428262735e-06
-2.354984253e-12
-4.468253787e-13
9.428261016e-06
-3.341813805e-12
-1.56700955e-12
9.42826328e-06
-5.888338209e-12
-1.114781436e-12
9.428265825e-06
-6.354071387e-12
-2.901553603e-12
9.428269326e-06
-1.689104554e-11
-6.474920486e-12
9.428275684e-06
-1.823452277e-11
-1.139514642e-11
9.428300481e-06
-4.767694123e-11
-2.415577816e-11
9.428323106e-06
-4.219508298e-11
-3.357898087e-11
-9.906406422e-11
-5.655009282e-11
9.428316025e-06
-1.33472646e-12
-1.441022553e-12
9.42831642e-06
-1.875787512e-12
-1.049792457e-12
9.428316097e-06
8.321882682e-14
-6.476311114e-13
9.428315464e-06
9.922042731e-13
2.263631564e-13
9.428314214e-06
1.142978894e-12
-1.216369242e-13
9.428314386e-06
9.518237383e-13
5.182726546e-13
9.428312311e-06
-2.040567181e-12
-7.274082738e-13
9.42831326e-06
-4.382137536e-12
1.211386629e-14
9.42830975e-06
-6.783007074e-12
-3.997792102e-12
9.428310992e-06
-1.705247852e-11
-9.412855722e-12
9.428307959e-06
-1.472000961e-11
-1.553887236e-11
9.428323767e-06
-6.363932277e-11
-4.906125244e-11
9.428331318e-06
-3.186996199e-11
-6.734838917e-11
-2.073000592e-10
-1.693998837e-10
9.42822885e-06
-1.237819039e-12
2.473242034e-13
9.428230917e-06
-2.978974667e-13
-3.605482003e-13
9.428228651e-06
3.731347201e-13
-8.237186765e-13
9.428228098e-06
-9.916225757e-13
-1.203532876e-12
9.428226684e-06
-6.419935785e-13
-1.451461915e-12
9.42822553e-06
-8.034562751e-13
-4.341566155e-13
9.428224868e-06
-1.176112909e-12
3.236002988e-13
9.428222447e-06
-1.749017536e-12
-1.416585948e-12
9.428220464e-06
-4.993537722e-12
-4.058654332e-12
9.428217787e-06
-1.547852303e-11
-1.550840107e-11
9.428231481e-06
-2.381297034e-11
-2.355317086e-11
9.428267118e-06
-8.262244415e-11
-8.289222972e-11
9.428380968e-06
-8.894947265e-11
-8.877358471e-11
9.428603965e-06
-3.189093097e-10
-3.189949951e-10
-4.640873711e-10
9.428247906e-06
-6.6556609e-14
-1.572662112e-13
9.428246801e-06
8.772861581e-13
-8.55919298e-13
9.428244974e-06
-1.487639332e-12
-8.667945748e-13
9.428246181e-06
-1.033638387e-13
-6.715424363e-13
9.428244499e-06
-2.237078059e-13
5.063508978e-14
9.428240111e-06
1.316104695e-14
-1.57224648e-12
9.428238224e-06
2.334813885e-12
-7.05809306e-13
9.428228581e-06
2.495100564e-12
-2.846993357e-12
9.428216604e-06
5.295960419e-12
-7.725289556e-12
9.428182861e-06
1.599090591e-11
-2.708925071e-11
9.428153228e-06
2.398476954e-11
-4.435414274e-11
9.428044149e-06
8.174104115e-11
-2.182832344e-10
9.428081673e-06
8.879860763e-11
-3.578822312e-10
9.428759509e-06
3.190353911e-10
-2.411064552e-09
4.650970103e-10
-3.551946135e-09
9.4282399e-06
-8.849941839e-13
-3.665385776e-13
9.428237722e-06
-1.573924354e-12
-7.816630594e-13
9.428237834e-06
-1.934838829e-12
-4.915054581e-13
9.428237586e-06
-1.141294615e-12
-1.732835771e-12
9.428237134e-06
-6.764720037e-13
-1.521177301e-12
9.428236498e-06
5.832826843e-15
-1.28894273e-12
9.428233625e-06
1.782514325e-12
-8.246872189e-13
9.42823136e-06
6.304096334e-12
-1.021078826e-12
9.428230013e-06
7.087977591e-12
-5.097708953e-12
9.428227444e-06
1.755341587e-11
-1.617122363e-11
9.428241579e-06
1.626889457e-11
-2.316816278e-11
9.428279681e-06
6.354242189e-11
-8.082533537e-11
9.428391822e-06
3.23385686e-11
-8.892478506e-11
9.428614509e-06
2.082914172e-10
-3.19412435e-10
4.935223038e-10
-4.658367803e-10
9.428236168e-06
-1.833476887e-14
-7.551888311e-13
9.428235536e-06
-3.367556874e-13
-4.765607356e-13
9.428237152e-06
-9.251674886e-14
-6.163094294e-15
9.428236279e-06
-5.923059613e-13
1.938975621e-13
9.428235416e-06
-4.336624934e-13
-9.947187579e-13
9.428236369e-06
2.217262806e-12
-5.721089869e-13
9.428234005e-06
1.669632113e-12
-9.20841726e-13
9.428231056e-06
4.294295381e-12
-2.332854056e-12
9.428227198e-06
4.789591955e-12
-5.336442817e-12
9.428228718e-06
1.655064802e-11
-1.186565559e-11
9.428226674e-06
1.731890286e-11
-1.7296314e-11
9.428246292e-06
4.662985676e-11
-4.763457628e-11
9.42825412e-06
4.163021922e-11
-6.596426238e-11
9.428414014e-06
9.805091543e-11
-1.713368046e-10
2.426621304e-10
-2.962088004e-10
9.428220814e-06
-4.812916758e-13
-4.532298998e-13
9.42822238e-06
-2.836602947e-13
3.809329781e-14
9.428221392e-06
5.848667559e-13
2.319995166e-13
9.42822124e-06
-2.762448548e-13
-1.298389553e-12
9.428221952e-06
7.285038811e-13
-8.221029536e-13
9.428220491e-06
1.225188711e-12
-6.38269833e-13
9.428224049e-06
1.655600498e-12
-1.387828478e-12
9.428224309e-06
2.42479677e-12
-3.134564149e-12
9.428228065e-06
3.817611642e-12
-3.514720147e-12
9.428231262e-06
8.051703812e-12
-7.210285745e-12
9.428236318e-06
9.264426452e-12
-1.073714276e-11
9.428262821e-06
2.519454267e-11
-2.20949322e-11
9.428283928e-06
2.579807475e-11
-3.165660673e-11
9.428357866e-06
4.237265084e-11
-5.720713129e-11
1.051692415e-10
-9.714556965e-11
9.428226822e-06
-1.79425205e-12
9.428227409e-06
-7.190439171e-13
9.42822491e-06
-2.555848815e-12
9.428227304e-06
-6.278905224e-13
9.42822721e-06
-1.184832902e-12
9.428227182e-06
-1.164370098e-12
9.428227823e-06
-2.036114992e-12
9.428230108e-06
-3.389718301e-12
9.428232348e-06
-4.552754962e-12
9.428239833e-06
-5.608069481e-12
9.42824954e-06
-8.684901158e-12
9.42826704e-06
-1.578598019e-11
9.428292609e-06
-2.164193528e-11
9.428337738e-06
-3.101119395e-11
-5.025851647e-11
9.428243967e-06
-7.301606923e-13
-7.833775129e-14
9.428243278e-06
-9.041112177e-13
-6.041653985e-13
9.428242677e-06
-2.414757452e-12
2.300722069e-13
9.428243916e-06
-2.003657605e-12
1.660099686e-12
9.428242812e-06
-2.260682148e-12
1.910750438e-12
9.428242765e-06
-2.058032564e-12
2.033514495e-12
9.428243444e-06
-1.034245197e-12
2.342023258e-12
9.428242376e-06
-5.022310093e-12
1.482208929e-12
9.428242834e-06
-6.83531502e-12
2.452487923e-12
9.428247354e-06
-1.211032746e-11
5.022529711e-12
9.428247057e-06
-1.644939123e-11
7.295133023e-12
9.428261141e-06
-4.458780797e-11
1.484825477e-11
9.428273075e-06
-5.548533036e-11
2.286534004e-11
-1.319754973e-10
3.326854506e-11
9.428260852e-06
-1.165883086e-12
1.087166093e-13
9.428258979e-06
-1.948584971e-12
-8.416601675e-13
9.428257972e-06
-1.499696328e-12
7.453183361e-13
9.428259906e-06
-1.809443164e-12
9.24598143e-13
9.428258422e-06
-1.534069253e-12
1.707370201e-12
9.428259915e-06
-1.550012287e-12
1.32862318e-12
9.428256874e-06
-3.260779286e-12
2.198462093e-12
9.428255867e-06
-4.515609255e-12
4.007542713e-12
9.428256656e-06
-8.414476124e-12
5.250864866e-12
9.428253103e-06
-2.378540982e-11
7.02676417e-12
9.428245637e-06
-2.829951183e-11
1.174950614e-11
9.428255509e-06
-1.013483142e-10
2.409188369e-11
9.428247468e-06
-1.112414926e-10
3.402570256e-11
-3.928906289e-10
5.941762485e-11
9.428171405e-06
8.723119718e-13
-2.112623246e-13
9.428170607e-06
-5.362739167e-13
-1.555139897e-13
9.428170931e-06
2.515472989e-13
5.156482011e-13
9.428170813e-06
-4.715442567e-13
7.32949487e-13
9.428168779e-06
2.328886901e-13
1.026592916e-12
9.428166199e-06
-5.547150702e-13
9.679956649e-13
9.428164435e-06
-1.963555654e-12
2.691442333e-12
9.428157737e-06
-6.678803084e-12
2.882753267e-12
9.428151621e-06
-7.79870097e-12
6.01955789e-12
9.428134041e-06
-2.901520616e-11
1.119812673e-11
9.428100836e-06
-3.34289632e-11
1.66207928e-11
9.428067617e-06
-1.640660316e-10
4.829420681e-11
9.427969565e-06
-1.448605108e-10
6.78033019e-11
-1.097875925e-09
1.73487536e-10
9.428212105e-06
-2.147047495e-12
-1.612612758e-12
9.428214767e-06
-1.721702355e-12
-4.88606207e-13
9.428213974e-06
-6.885082214e-13
-1.6194195e-12
9.428213108e-06
-9.025404257e-13
5.485937475e-13
9.42821289e-06
2.112512004e-13
-3.389172415e-13
9.428209286e-06
-1.123864307e-12
-6.14129688e-13
9.428206125e-06
-2.025989396e-12
1.537605841e-12
9.428198128e-06
-3.433648445e-12
4.409375129e-12
9.428186464e-06
-8.492178729e-12
6.084514886e-12
9.428152103e-06
-2.757789211e-11
1.528406827e-11
9.428121e-06
-4.471475759e-11
2.301094006e-11
9.428011482e-06
-2.185491567e-10
8.288293498e-11
9.4280479e-06
-3.574576155e-10
8.981157124e-11
-2.410327188e-09
3.205503475e-10
9.428229278e-06
-2.011518621e-13
5.915594227e-13
9.428229282e-06
1.03684719e-12
2.406185996e-14
9.428226465e-06
-5.484670073e-13
-2.042935667e-12
9.428227629e-06
-9.042386198e-13
-7.171878924e-13
9.428225574e-06
-1.447790565e-12
5.801466377e-14
9.428221421e-06
-8.080448595e-14
-2.431921961e-13
9.428216625e-06
1.892664241e-12
5.783695652e-13
9.428195375e-06
4.206852238e-12
3.256335021e-12
9.428165487e-06
8.099424141e-12
7.356417934e-12
9.428055689e-06
2.785178625e-11
2.755870748e-11
9.427874984e-06
4.524430709e-11
4.554258097e-11
9.427004561e-06
2.185895326e-10
2.20101043e-10
9.425568406e-06
3.58030773e-10
3.593637899e-10
9.415924957e-06
2.410477286e-09
2.412948059e-09
3.551247987e-09
9.428245069e-06
-1.401843887e-12
5.351411876e-13
9.428242677e-06
-1.216099479e-12
-1.170500032e-12
9.42824156e-06
-1.525053407e-12
-1.731538002e-12
9.42824222e-06
1.642229891e-12
-1.413199845e-12
9.42824048e-06
-8.40993653e-14
-2.947092446e-13
9.428237815e-06
1.448420439e-12
2.774989837e-13
9.42823349e-06
2.669548661e-12
1.289020682e-12
9.42822335e-06
6.577297482e-12
9.096041631e-13
9.428211587e-06
8.567742751e-12
4.892864388e-12
9.428178215e-06
2.728529507e-11
1.569139362e-11
9.428147777e-06
3.233623268e-11
2.279552821e-11
9.428039924e-06
1.641483733e-10
8.19897787e-11
9.428074433e-06
1.456652641e-10
8.924650622e-11
9.428750427e-06
1.097269049e-09
3.1997839e-10
2.129360383e-09
9.428252275e-06
3.577142932e-13
-3.338258701e-13
9.428249914e-06
1.884104809e-13
-1.507654514e-12
9.428251184e-06
4.959025761e-13
-1.545986952e-12
9.428250049e-06
-1.538799563e-12
-1.649187575e-12
9.428251558e-06
-1.700208942e-13
-9.659203055e-13
9.428249361e-06
1.176014835e-12
1.25555673e-12
9.428245288e-06
1.509172003e-12
1.59835396e-13
9.42823884e-06
4.690909084e-12
6.968171506e-13
9.428230392e-06
8.533469465e-12
3.284808136e-12
9.428215479e-06
2.497248441e-11
1.093612221e-11
9.428182955e-06