/*--------------------------------*- C++ -*----------------------------------*\
| =========                 |                                                 |
| \\      /  F ield         | OpenFOAM: The Open Source CFD Toolbox           |
|  \\    /   O peration     | Version:  4.x                                   |
|   \\  /    A nd           | Web:      www.OpenFOAM.org                      |
|    \\/     M anipulation  |                                                 |
\*---------------------------------------------------------------------------*/
FoamFile
{
    version     2.0;
    format      ascii;
    class       volScalarField;
    location    "10000";
    object      rhoeps;
}
// * * * * * * * * * * * * * * * * * * * * * * * * * * * * * * * * * * * * * //

dimensions      [1 -3 0 0 0 0 0];

internalField   nonuniform List<scalar> 
1175
(
0.2777044477
0.277704437
0.277704431
0.277704439
0.2777044219
0.2777044337
0.2777044429
0.2777044262
0.2777044013
0.2777044056
0.2777043664
0.2777044123
0.2777044637
0.2777044718
0.277704539
0.277704143
0.277704147
0.2777041186
0.2777041348
0.2777041259
0.2777041582
0.2777041868
0.277704196
0.2777041513
0.2777041452
0.2777041506
0.2777041477
0.2777041754
0.2777042424
0.2777043297
0.2777044731
0.277704463
0.2777044672
0.2777044607
0.2777044535
0.2777044865
0.2777044894
0.2777045026
0.2777045174
0.277704545
0.2777045193
0.2777045025
0.2777045296
0.2777046357
0.2777048229
0.277703329
0.2777033009
0.2777033111
0.2777033008
0.2777032871
0.2777032346
0.2777031969
0.2777031902
0.2777032118
0.2777032383
0.2777032596
0.2777033369
0.2777033703
0.2777035826
0.2777039425
0.2777042508
0.2777042348
0.2777042231
0.2777042412
0.2777042952
0.2777042898
0.2777042739
0.2777043119
0.2777043056
0.2777043224
0.2777042939
0.2777043554
0.2777044337
0.2777046318
0.2777051262
0.2777060241
0.2777060106
0.2777060211
0.2777060431
0.2777060533
0.2777060643
0.2777060412
0.277706078
0.2777060459
0.2777060999
0.2777061319
0.2777061823
0.277706225
0.2777063963
0.2777067588
0.2777058606
0.2777059138
0.277705887
0.2777059224
0.277705937
0.2777059152
0.2777059329
0.2777059352
0.27770598
0.2777059657
0.2777059729
0.2777059398
0.2777059419
0.2777060776
0.2777062848
0.2777043705
0.2777043902
0.2777043801
0.2777044079
0.2777044009
0.27770439
0.2777043902
0.2777044392
0.2777044547
0.2777044345
0.2777044557
0.2777044748
0.277704522
0.2777046177
0.2777047191
0.2777043582
0.2777043655
0.2777043676
0.2777044109
0.2777043988
0.2777043918
0.2777043779
0.2777043672
0.277704389
0.2777044141
0.2777043781
0.2777044152
0.2777044188
0.2777044334
0.277704512
0.2777050266
0.2777050078
0.2777049861
0.277704984
0.2777050091
0.2777050007
0.2777050195
0.2777050077
0.2777050063
0.2777049864
0.277705033
0.2777050224
0.2777050289
0.2777051117
0.2777041994
0.2777042253
0.2777042397
0.2777042512
0.2777041889
0.2777041799
0.2777042053
0.2777042311
0.2777041884
0.2777042113
0.2777042453
0.2777042473
0.2777042645
0.2777043892
0.277704543
0.2777037682
0.2777037773
0.2777037924
0.2777037665
0.2777037527
0.2777037381
0.2777037012
0.2777036964
0.2777037106
0.2777036882
0.277703738
0.2777037005
0.2777038372
0.2777039945
0.2777044794
0.2777049186
0.2777049268
0.2777049133
0.2777049032
0.2777049234
0.2777049102
0.2777049469
0.2777049698
0.2777049879
0.2777049827
0.2777049608
0.2777050377
0.2777052448
0.2777056743
0.2777066444
0.277704795
0.2777047743
0.2777047898
0.2777048058
0.2777047806
0.2777047795
0.2777047778
0.2777047693
0.277704762
0.2777047877
0.2777048495
0.2777049763
0.2777051886
0.2777059331
0.2777074867
0.2777036811
0.2777036632
0.2777036352
0.2777036358
0.2777036082
0.2777035963
0.277703568
0.2777035519
0.2777035573
0.2777035009
0.2777034882
0.2777035948
0.2777038298
0.2777043158
0.2777052661
0.2777022564
0.2777023138
0.2777023304
0.2777023426
0.2777023244
0.2777023155
0.2777023124
0.2777023221
0.2777022901
0.2777023016
0.277702337
0.2777023747
0.2777024775
0.2777026998
0.2777032082
0.2777060726
0.27770608
0.2777060812
0.2777060905
0.2777060958
0.2777060772
0.2777060866
0.2777060797
0.2777060968
0.2777061462
0.2777060804
0.2777060905
0.2777061873
0.277706287
0.2777064745
0.2777042771
0.2777042671
0.2777042529
0.2777042353
0.2777042134
0.2777042203
0.2777042085
0.2777042255
0.2777041935
0.2777041977
0.2777042437
0.2777042511
0.2777042787
0.2777043247
0.2777044194
0.2777048011
0.2777048025
0.277704818
0.2777048138
0.2777048323
0.2777048375
0.277704833
0.2777048184
0.2777048139
0.2777048169
0.2777048127
0.2777048797
0.277704897
0.2777049775
0.2777047964
0.2777048206
0.2777048262
0.2777048261
0.2777048164
0.2777047506
0.2777047728
0.2777047577
0.2777047641
0.2777047369
0.277704785
0.277704825
0.2777049356
0.2777051924
0.2777047474
0.2777047344
0.2777047198
0.2777047461
0.2777047888
0.2777047525
0.2777047293
0.2777047253
0.2777047041
0.277704721
0.277704731
0.2777048612
0.2777051013
0.2777057853
0.2777070926
0.277704829
0.2777048546
0.2777048356
0.2777048259
0.2777047994
0.2777047893
0.277704801
0.2777048018
0.2777048032
0.2777047849
0.2777048176
0.2777050002
0.2777055617
0.2777071972
0.2777107449
0.277703944
0.2777039454
0.2777039705
0.2777039476
0.2777039734
0.2777039537
0.2777039264
0.2777039093
0.2777038705
0.2777038993
0.2777039247
0.2777041818
0.2777050436
0.2777080151
0.2777153807
0.2777056193
0.2777056178
0.2777055742
0.2777055634
0.2777054929
0.2777055102
0.2777055061
0.2777055308
0.2777055284
0.2777055768
0.2777056326
0.2777057949
0.2777063622
0.2777079407
0.2777114509
0.2777052255
0.2777051633
0.2777051938
0.2777051828
0.2777051542
0.277705164
0.2777051565
0.2777051443
0.2777051455
0.2777051234
0.2777051251
0.2777052039
0.2777054206
0.2777060951
0.2777074416
0.2777049986
0.2777050099
0.2777050407
0.2777050393
0.2777050806
0.2777050714
0.2777050292
0.2777050266
0.2777050305
0.2777050154
0.2777050386
0.2777050309
0.2777051188
0.2777053386
0.2777058063
0.2777053188
0.2777053106
0.2777052807
0.27770527
0.2777052711
0.2777053091
0.2777053261
0.2777053241
0.2777053481
0.2777053841
0.2777053659
0.2777054139
0.2777054459
0.2777055256
0.2777057458
0.2777052347
0.2777052075
0.2777052466
0.2777052407
0.2777052325
0.2777051965
0.2777052013
0.2777051778
0.2777051922
0.2777051704
0.2777051991
0.2777051792
0.277705258
0.277705437
0.2777051821
0.277705173
0.2777052087
0.2777052111
0.2777051978
0.2777051955
0.2777051946
0.2777051855
0.2777052056
0.2777052367
0.2777052401
0.2777052958
0.2777054763
0.2777059815
0.2777067383
0.2777067454
0.2777067847
0.2777067932
0.2777068208
0.2777068228
0.2777068218
0.2777067938
0.2777068056
0.2777067748
0.2777068483
0.2777070381
0.2777075751
0.2777091743
0.2777042084
0.2777041894
0.2777042268
0.2777042606
0.2777042307
0.2777042115
0.2777042109
0.2777042321
0.2777042464
0.2777042469
0.2777043453
0.2777047176
0.2777062127
0.2777113477
0.2777243794
0.2777047218
0.2777047198
0.2777047404
0.2777047533
0.27770473
0.2777047351
0.2777047016
0.2777047408
0.277704733
0.2777047565
0.2777048949
0.277705528
0.2777084728
0.2777211364
0.2777649717
0.2777044855
0.277704477
0.2777045066
0.2777045195
0.277704489
0.2777045065
0.2777045107
0.2777045343
0.2777045522
0.2777045663
0.2777046321
0.2777050145
0.2777065406
0.2777116281
0.277724625
0.277704392
0.2777044357
0.2777044428
0.2777044448
0.2777044831
0.277704471
0.2777044852
0.2777044682
0.2777044335
0.2777044465
0.2777045248
0.2777046656
0.2777052541
0.2777068593
0.2777103957
0.2777039297
0.2777039852
0.2777039963
0.2777039789
0.27770398
0.2777040138
0.2777040177
0.2777040574
0.2777040518
0.2777040761
0.2777041211
0.2777041654
0.2777043484
0.2777048236
0.2777058191
0.2777041431
0.2777041531
0.2777041628
0.2777041279
0.2777041514
0.277704133
0.2777041411
0.2777041372
0.2777041472
0.2777041461
0.2777041549
0.2777042021
0.2777042792
0.2777044696
0.2777048331
0.2777046507
0.2777046248
0.2777046472
0.2777046315
0.2777046186
0.2777046021
0.2777046493
0.2777046692
0.2777046225
0.2777046361
0.2777046428
0.2777046637
0.2777047632
0.2777049849
0.2777051205
0.2777051481
0.2777051071
0.27770513
0.2777051687
0.2777051338
0.2777051259
0.2777051404
0.2777051315
0.2777051343
0.2777051647
0.2777052923
0.2777055511
0.2777062642
0.2777024887
0.2777024957
0.2777025043
0.2777025057
0.2777025112
0.2777025188
0.2777025045
0.277702501
0.2777024846
0.2777025498
0.2777025918
0.2777028181
0.2777037207
0.2777066877
0.2777037979
0.2777038228
0.2777038254
0.2777038197
0.27770381
0.2777038172
0.2777038377
0.2777038238
0.2777038736
0.2777038606
0.2777039974
0.2777046051
0.2777075057
0.2777200909
0.27770419
0.2777041722
0.2777042078
0.2777042103
0.2777042454
0.2777042273
0.2777042206
0.2777042266
0.2777042407
0.2777042439
0.2777044494
0.2777056767
0.2777129542
0.2777600053
0.2774132282
0.277704627
0.2777046279
0.2777046142
0.2777046125
0.277704624
0.2777046095
0.2777046075
0.2777045769
0.2777045965
0.2777046122
0.2777047434
0.2777053659
0.2777082916
0.2777208863
0.2777646983
0.2777048888
0.2777048902
0.2777048959
0.2777049245
0.2777048816
0.2777048596
0.2777048958
0.2777049083
0.2777049152
0.2777049205
0.2777049527
0.2777051815
0.2777060823
0.277709067
0.2777164168
0.2777055616
0.2777055985
0.2777055852
0.2777055979
0.277705578
0.2777055593
0.2777055216
0.2777054685
0.2777054831
0.2777055162
0.2777055192
0.2777056745
0.2777059614
0.2777067264
0.2777083287
0.2777051501
0.277705142
0.2777051594
0.2777051492
0.2777051681
0.2777051565
0.2777051199
0.2777051155
0.2777051129
0.2777050965
0.2777051077
0.2777051756
0.2777052854
0.2777055065
0.277705975
0.2777052383
0.2777052109
0.2777052367
0.2777052541
0.2777052436
0.2777052491
0.2777052652
0.2777052381
0.2777052103
0.277705242
0.2777052657
0.2777052616
0.2777053573
0.277705531
0.2777062822
0.2777062583
0.2777062798
0.2777062951
0.2777062658
0.2777062453
0.2777062385
0.2777062724
0.2777062625
0.2777062619
0.2777062763
0.2777063134
0.2777065189
0.2777069983
0.2777053358
0.2777053351
0.2777053237
0.2777053384
0.2777053637
0.2777053678
0.2777053875
0.277705432
0.277705371
0.2777053569
0.2777053645
0.2777054945
0.277706084
0.2777076727
0.2777054471
0.2777054669
0.2777055092
0.2777054802
0.277705428
0.2777054388
0.2777054398
0.277705448
0.2777054533
0.2777055223
0.2777056187
0.2777059723
0.2777074825
0.277712642
0.2777047916
0.2777047783
0.2777047849
0.2777048638
0.2777049123
0.2777049395
0.2777049468
0.2777049768
0.277704988
0.2777050146
0.277705134
0.2777057716
0.2777086955
0.2777213273
0.2777055039
0.2777055089
0.2777055116
0.2777055189
0.2777055202
0.2777054962
0.2777054589
0.2777054338
0.277705464
0.2777054875
0.2777055657
0.2777059867
0.2777074487
0.2777125495
0.2777040741
0.2777040575
0.2777040489
0.2777040652
0.2777041124
0.2777041687
0.2777041826
0.2777041805
0.2777042286
0.2777042356
0.2777043262
0.2777045176
0.277705066
0.277706685
0.2777101683
0.2777052893
0.2777052752
0.277705288
0.2777052827
0.2777052639
0.2777052756
0.2777052567
0.277705241
0.2777052595
0.2777052599
0.2777052624
0.2777052805
0.2777054743
0.2777059214
0.277706928
0.2777052449
0.2777052403
0.2777052551
0.2777052513
0.2777052743
0.2777052963
0.2777052917
0.2777052992
0.2777052639
0.2777052392
0.2777052707
0.2777053008
0.2777054058
0.2777056098
0.2777059657
0.2777060948
0.2777061043
0.2777061408
0.2777061386
0.2777061203
0.2777061191
0.2777061086
0.2777061229
0.277706128
0.2777061318
0.2777061271
0.2777061301
0.2777061866
0.2777062286
0.2777040078
0.277704023
0.2777040285
0.277703984
0.2777040019
0.2777039613
0.2777039305
0.2777039402
0.2777039273
0.2777039333
0.2777039733
0.277703987
0.2777040421
0.2777043099
0.2777026184
0.2777026282
0.2777026135
0.2777026024
0.2777025861
0.2777025629
0.2777025489
0.277702535
0.277702521
0.2777025899
0.2777026357
0.2777027309
0.2777029896
0.2777036703
0.277704615
0.2777046059
0.2777046248
0.2777046237
0.277704627
0.2777046309
0.277704611
0.2777046101
0.2777046364
0.2777046629
0.2777047026
0.2777048783
0.2777054143
0.2777070228
0.2777058354
0.2777058364
0.2777058313
0.2777058337
0.2777058549
0.2777058285
0.2777058322
0.2777058274
0.2777058582
0.2777058237
0.2777058806
0.277706132
0.2777070062
0.277709964
0.2777049532
0.2777049503
0.2777049685
0.2777049466
0.2777049705
0.2777049519
0.2777049427
0.2777049172
0.2777049157
0.2777048982
0.2777049532
0.2777051536
0.2777056933
0.2777073008
0.2777044456
0.2777044124
0.2777044173
0.277704452
0.2777044677
0.2777044432
0.2777044254
0.2777044546
0.2777044416
0.2777044581
0.2777044507
0.2777045364
0.2777047588
0.2777054632
0.2777057055
0.2777057318
0.277705726
0.2777057218
0.2777056925
0.2777057192
0.2777057209
0.2777057066
0.2777056883
0.2777056499
0.2777056598
0.2777057062
0.2777058119
0.2777060012
0.2777065322
0.2777038829
0.2777038794
0.2777038829
0.277703905
0.277703939
0.2777039485
0.2777039843
0.2777039697
0.2777039951
0.2777040191
0.2777040341
0.2777040593
0.2777040926
0.2777041879
0.2777043623
0.2777038959
0.277703866
0.2777038774
0.2777038984
0.2777038779
0.2777038866
0.2777038744
0.2777038874
0.2777039216
0.2777039021
0.2777039184
0.277703949
0.2777039502
0.2777040117
0.2777043748
0.2777043408
0.2777043523
0.2777044151
0.2777044176
0.2777043947
0.2777043915
0.2777043787
0.2777043908
0.2777044094
0.2777044086
0.2777044097
0.2777044245
0.2777044956
0.2777047106
0.2777046902
0.2777046514
0.2777046267
0.2777046362
0.2777046168
0.2777045824
0.2777046105
0.2777045861
0.2777046126
0.2777046099
0.2777046235
0.2777046801
0.2777049302
0.277704148
0.2777041819
0.2777041988
0.2777041906
0.2777041887
0.2777042203
0.2777042166
0.2777042055
0.2777041428
0.2777041327
0.2777041314
0.2777042275
0.2777044283
0.2777049615
0.2777039145
0.2777038888
0.2777038834
0.2777038758
0.2777038376
0.2777038167
0.2777038689
0.2777038684
0.2777038335
0.2777038675
0.2777039195
0.2777040074
0.2777042537
0.2777049834
0.2777053844
0.2777053714
0.2777053775
0.2777053786
0.2777053518
0.2777053158
0.2777052945
0.2777053421
0.2777053499
0.2777053763
0.2777053815
0.2777054489
0.2777056084
0.2777061054
0.2777053386
0.2777053045
0.2777053087
0.2777053376
0.2777053152
0.2777053322
0.2777053173
0.2777053025
0.2777053265
0.2777053022
0.2777053282
0.2777053138
0.2777054212
0.2777056222
0.277704685
0.2777046402
0.2777046359
0.2777046183
0.2777045956
0.2777046019
0.277704608
0.2777046376
0.2777045977
0.277704671
0.2777046486
0.2777046626
0.277704713
0.2777048129
0.2777031299
0.2777031181
0.2777031214
0.2777031387
0.2777031649
0.2777031803
0.2777031584
0.2777031556
0.2777031893
0.2777031836
0.277703179
0.2777032184
0.2777032535
0.2777033491
0.2777034576
0.2777052345
0.27770525
0.2777052506
0.2777052268
0.2777052139
0.2777052426
0.2777052426
0.2777052067
0.2777052307
0.2777052083
0.2777051521
0.2777051871
0.2777052273
0.2777052354
0.2777042532
0.2777042298
0.2777042103
0.2777042233
0.2777041805
0.2777042014
0.2777042318
0.2777042083
0.277704214
0.2777041666
0.2777041842
0.2777042261
0.2777042616
0.2777042862
0.2777050366
0.2777050569
0.2777050659
0.2777050758
0.277705061
0.2777050577
0.2777050303
0.27770503
0.2777050535
0.277705091
0.2777051161
0.2777051266
0.2777052049
0.277705279
0.2777036855
0.2777036438
0.277703635
0.2777036511
0.2777036638
0.2777036662
0.2777036804
0.2777036372
0.2777036813
0.2777036867
0.2777036705
0.2777036844
0.2777037996
0.2777040083
0.2777049059
0.2777049175
0.2777049187
0.2777048988
0.2777048976
0.2777049181
0.2777049156
0.2777049087
0.2777049325
0.2777049796
0.2777049659
0.2777050016
0.2777050647
0.2777052994
0.2777032819
0.2777032653
0.2777032693
0.2777032456
0.277703242
0.2777032475
0.277703223
0.2777032409
0.2777032449
0.2777032487
0.2777032166
0.2777032473
0.2777033232
0.2777035113
0.2777046373
0.2777046387
0.2777046363
0.277704611
0.2777046167
0.2777046084
0.2777046212
0.2777046204
0.2777046076
0.2777046474
0.2777046258
0.27770464
0.2777046975
0.2777047866
0.2777054339
0.2777054482
0.277705419
0.2777054014
0.2777054073
0.2777054026
0.2777054158
0.277705388
0.2777053979
0.2777053792
0.2777053742
0.2777054036
0.2777054424
0.2777055006
0.2777047171
0.277704718
0.2777047425
0.2777047398
0.277704744
0.2777047569
0.2777047706
0.2777047541
0.2777047799
0.2777047938
0.2777047983
0.277704797
0.2777048544
0.2777048938
)
;

boundaryField
{
    top
    {
        type            calculated;
        value           nonuniform List<scalar> 
134
(
0.2777043582
0.2777042771
0.2777053188
0.2777041431
0.2777051501
0.2777052449
0.2777038829
0.2777031299
0.2777047171
0.2777043655
0.2777042671
0.2777053106
0.2777041531
0.277705142
0.2777052403
0.2777038794
0.2777031181
0.277704718
0.2777043676
0.2777042529
0.2777052807
0.2777041628
0.2777051594
0.2777052551
0.2777038829
0.2777031214
0.2777047425
0.2777044109
0.2777042353
0.27770527
0.2777041279
0.2777051492
0.2777052513
0.277703905
0.2777031387
0.2777047398
0.2777043988
0.2777042134
0.2777052711
0.2777041514
0.2777051681
0.2777052743
0.277703939
0.2777031649
0.277704744
0.2777043918
0.2777042203
0.2777053091
0.277704133
0.2777051565
0.2777052963
0.2777039485
0.2777031803
0.2777047569
0.2777043779
0.2777042085
0.2777053261
0.2777041411
0.2777051199
0.2777052917
0.2777039843
0.2777031584
0.2777047706
0.2777043672
0.2777042255
0.2777053241
0.2777041372
0.2777051155
0.2777052992
0.2777039697
0.2777031556
0.2777047541
0.277704389
0.2777041935
0.2777053481
0.2777041472
0.2777051129
0.2777052639
0.2777039951
0.2777031893
0.2777047799
0.2777044141
0.2777041977
0.2777053841
0.2777041461
0.2777050965
0.2777052392
0.2777040191
0.2777031836
0.2777047938
0.2777043781
0.2777042437
0.2777053659
0.2777041549
0.2777051077
0.2777052707
0.2777040341
0.277703179
0.2777047983
0.2777044152
0.2777042511
0.2777054139
0.2777042021
0.2777051756
0.2777053008
0.2777040593
0.2777032184
0.277704797
0.2777044188
0.2777042787
0.2777054459
0.2777042792
0.2777052854
0.2777054058
0.2777040926
0.2777032535
0.2777048544
0.2777044334
0.2777043247
0.2777055256
0.2777044696
0.2777055065
0.2777056098
0.2777041879
0.2777033491
0.2777048938
0.277704512
0.2777044194
0.2777057458
0.2777048331
0.277705975
0.2777059657
0.2777043623
0.2777034576
)
;
    }
    bottom
    {
        type            calculated;
        value           nonuniform List<scalar> 
127
(
0.2777044477
0.2777050266
0.2777048011
0.2777052347
0.2777046507
0.2777052383
0.2777060948
0.2777038959
0.2777052345
0.277704437
0.2777050078
0.2777048025
0.2777052075
0.2777046248
0.2777052109
0.2777061043
0.277703866
0.27770525
0.277704431
0.2777049861
0.277704818
0.2777052466
0.2777046472
0.2777052367
0.2777061408
0.2777038774
0.2777052506
0.277704439
0.277704984
0.2777048138
0.2777052407
0.2777046315
0.2777052541
0.2777061386
0.2777038984
0.2777052268
0.2777044219
0.2777050091
0.2777048323
0.2777052325
0.2777046186
0.2777052436
0.2777061203
0.2777038779
0.2777052139
0.2777044337
0.2777050007
0.2777048375
0.2777051965
0.2777046021
0.2777052491
0.2777061191
0.2777038866
0.2777052426
0.2777044429
0.2777050195
0.277704833
0.2777052013
0.2777046493
0.2777052652
0.2777061086
0.2777038744
0.2777052426
0.2777044262
0.2777050077
0.2777048184
0.2777051778
0.2777046692
0.2777052381
0.2777061229
0.2777038874
0.2777052067
0.2777044013
0.2777050063
0.2777048139
0.2777051922
0.2777046225
0.2777052103
0.277706128
0.2777039216
0.2777052307
0.2777044056
0.2777049864
0.2777048169
0.2777051704
0.2777046361
0.277705242
0.2777061318
0.2777039021
0.2777052083
0.2777043664
0.277705033
0.2777048127
0.2777051991
0.2777046428
0.2777052657
0.2777061271
0.2777039184
0.2777051521
0.2777044123
0.2777050224
0.2777048797
0.2777051792
0.2777046637
0.2777052616
0.2777061301
0.277703949
0.2777051871
0.2777044637
0.2777050289
0.277704897
0.277705258
0.2777047632
0.2777053573
0.2777061866
0.2777039502
0.2777052273
0.2777044718
0.2777051117
0.2777049775
0.277705437
0.2777049849
0.277705531
0.2777062286
0.2777040117
0.2777052354
0.277704539
)
;
    }
    side-walls
    {
        type            calculated;
        value           nonuniform List<scalar> 
261
(
0.2777044477
0.277704143
0.2777044731
0.277703329
0.2777042508
0.2777060241
0.2777058606
0.2777043705
0.2777043582
0.277704437
0.277704147
0.277704463
0.2777033009
0.2777042348
0.2777060106
0.2777059138
0.2777043902
0.2777043655
0.277704431
0.2777041186
0.2777044672
0.2777033111
0.2777042231
0.2777060211
0.277705887
0.2777043801
0.2777043676
0.277704439
0.2777041348
0.2777044607
0.2777033008
0.2777042412
0.2777060431
0.2777059224
0.2777044079
0.2777044109
0.2777044219
0.2777041259
0.2777044535
0.2777032871
0.2777042952
0.2777060533
0.277705937
0.2777044009
0.2777043988
0.2777044337
0.2777041582
0.2777044865
0.2777032346
0.2777042898
0.2777060643
0.2777059152
0.27770439
0.2777043918
0.2777044429
0.2777041868
0.2777044894
0.2777031969
0.2777042739
0.2777060412
0.2777059329
0.2777043902
0.2777043779
0.2777044262
0.277704196
0.2777045026
0.2777031902
0.2777043119
0.277706078
0.2777059352
0.2777044392
0.2777043672
0.2777044013
0.2777041513
0.2777045174
0.2777032118
0.2777043056
0.2777060459
0.27770598
0.2777044547
0.277704389
0.2777044056
0.2777041452
0.277704545
0.2777032383
0.2777043224
0.2777060999
0.2777059657
0.2777044345
0.2777044141
0.2777043664
0.2777041506
0.2777045193
0.2777032596
0.2777042939
0.2777061319
0.2777059729
0.2777044557
0.2777043781
0.2777044123
0.2777041477
0.2777045025
0.2777033369
0.2777043554
0.2777061823
0.2777059398
0.2777044748
0.2777044152
0.2777044637
0.2777041754
0.2777045296
0.2777033703
0.2777044337
0.277706225
0.2777059419
0.277704522
0.2777044188
0.2777044718
0.2777042424
0.2777046357
0.2777035826
0.2777046318
0.2777063963
0.2777060776
0.2777046177
0.2777044334
0.277704539
0.2777043297
0.2777048229
0.2777039425
0.2777051262
0.2777067588
0.2777062848
0.2777047191
0.277704512
0.2777052345
0.2777042532
0.2777050366
0.2777036855
0.2777049059
0.2777032819
0.2777046373
0.2777054339
0.2777047171
0.27770525
0.2777042298
0.2777050569
0.2777036438
0.2777049175
0.2777032653
0.2777046387
0.2777054482
0.277704718
0.2777052506
0.2777042103
0.2777050659
0.277703635
0.2777049187
0.2777032693
0.2777046363
0.277705419
0.2777047425
0.2777052268
0.2777042233
0.2777050758
0.2777036511
0.2777048988
0.2777032456
0.277704611
0.2777054014
0.2777047398
0.2777052139
0.2777041805
0.277705061
0.2777036638
0.2777048976
0.277703242
0.2777046167
0.2777054073
0.277704744
0.2777052426
0.2777042014
0.2777050577
0.2777036662
0.2777049181
0.2777032475
0.2777046084
0.2777054026
0.2777047569
0.2777052426
0.2777042318
0.2777050303
0.2777036804
0.2777049156
0.277703223
0.2777046212
0.2777054158
0.2777047706
0.2777052067
0.2777042083
0.27770503
0.2777036372
0.2777049087
0.2777032409
0.2777046204
0.277705388
0.2777047541
0.2777052307
0.277704214
0.2777050535
0.2777036813
0.2777049325
0.2777032449
0.2777046076
0.2777053979
0.2777047799
0.2777052083
0.2777041666
0.277705091
0.2777036867
0.2777049796
0.2777032487
0.2777046474
0.2777053792
0.2777047938
0.2777051521
0.2777041842
0.2777051161
0.2777036705
0.2777049659
0.2777032166
0.2777046258
0.2777053742
0.2777047983
0.2777051871
0.2777042261
0.2777051266
0.2777036844
0.2777050016
0.2777032473
0.27770464
0.2777054036
0.277704797
0.2777052273
0.2777042616
0.2777052049
0.2777037996
0.2777050647
0.2777033232
0.2777046975
0.2777054424
0.2777048544
0.2777052354
0.2777042862
0.277705279
0.2777040083
0.2777052994
0.2777035113
0.2777047866
0.2777055006
0.2777048938
)
;
    }
    inlet
    {
        type            calculated;
        value           nonuniform List<scalar> 
81
(
0.2777044477
0.277704143
0.2777044731
0.277703329
0.2777042508
0.2777060241
0.2777058606
0.2777043705
0.2777043582
0.2777050266
0.2777041994
0.2777037682
0.2777049186
0.277704795
0.2777036811
0.2777022564
0.2777060726
0.2777042771
0.2777048011
0.2777047964
0.2777047474
0.277704829
0.277703944
0.2777056193
0.2777052255
0.2777049986
0.2777053188
0.2777052347
0.2777051821
0.2777067383
0.2777042084
0.2777047218
0.2777044855
0.277704392
0.2777039297
0.2777041431
0.2777046507
0.2777051205
0.2777024887
0.2777037979
0.27770419
0.277704627
0.2777048888
0.2777055616
0.2777051501
0.2777052383
0.2777062822
0.2777053358
0.2777054471
0.2777047916
0.2777055039
0.2777040741
0.2777052893
0.2777052449
0.2777060948
0.2777040078
0.2777026184
0.277704615
0.2777058354
0.2777049532
0.2777044456
0.2777057055
0.2777038829
0.2777038959
0.2777043748
0.2777047106
0.277704148
0.2777039145
0.2777053844
0.2777053386
0.277704685
0.2777031299
0.2777052345
0.2777042532
0.2777050366
0.2777036855
0.2777049059
0.2777032819
0.2777046373
0.2777054339
0.2777047171
)
;
    }
    outlet
    {
        type            calculated;
        value           nonuniform 0();
    }
    procBoundary0to1
    {
        type            processor;
        value           nonuniform List<scalar> 
97
(
0.2777046346
0.2777052096
0.2777045247
0.277705147
0.2777045006
0.2777057889
0.2777073309
0.2777065994
0.2777049057
0.2777046154
0.2777052096
0.2777052096
0.2777049042
0.2777056781
0.2777052272
0.2777080051
0.2777093287
0.277706545
0.2777039232
0.2777067915
0.2777045926
0.2777052292
0.2777056781
0.2777056781
0.2777088724
0.2777126719
0.2777145436
0.2777209062
0.2777152462
0.2777091815
0.2777065289
0.2777061146
0.2777058054
0.2777070075
0.2777126719
0.2777126719
0.2777331777
0.2777639147
0.2777716037
0.2777334209
0.2777142021
0.2777071067
0.2777054121
0.2777054218
0.2777078156
0.2777140316
0.2777639147
0.2777639147
0.2786185236
0.2777651862
0.2777713288
0.2777255494
0.2777219133
0.2777101523
0.2777066619
0.2777058856
0.2777079502
0.2777112308
0.2777256879
0.2777651862
0.2777255494
0.2777255494
0.2777139524
0.2777067837
0.2777082902
0.2777064901
0.2777064088
0.2777047626
0.2777050355
0.2777105196
0.277717337
0.277710846
0.2777067837
0.2777067837
0.2777072394
0.2777050032
0.2777047552
0.2777041064
0.2777047061
0.2777053777
0.2777059465
0.2777065544
0.2777071256
0.2777061004
0.2777050032
0.2777050032
0.2777036202
0.277704949
0.27770529
0.2777044119
0.277705499
0.2777043609
0.2777057508
0.2777038915
0.2777049603
0.2777055984
0.277704949
)
;
    }
}


// ************************************************************************* //
