/*--------------------------------*- C++ -*----------------------------------*\
| =========                 |                                                 |
| \\      /  F ield         | OpenFOAM: The Open Source CFD Toolbox           |
|  \\    /   O peration     | Version:  4.x                                   |
|   \\  /    A nd           | Web:      www.OpenFOAM.org                      |
|    \\/     M anipulation  |                                                 |
\*---------------------------------------------------------------------------*/
FoamFile
{
    version     2.0;
    format      ascii;
    class       volScalarField;
    location    "10000";
    object      T;
}
// * * * * * * * * * * * * * * * * * * * * * * * * * * * * * * * * * * * * * //

dimensions      [0 0 0 1 0 0 0];

internalField   nonuniform List<scalar> 
1175
(
1223.151548
1223.151595
1223.151622
1223.151586
1223.151662
1223.15161
1223.151569
1223.151643
1223.151754
1223.151739
1223.151922
1223.151749
1223.151593
1223.151712
1223.151719
1223.15289
1223.152873
1223.152997
1223.152926
1223.152965
1223.152823
1223.152697
1223.152657
1223.152856
1223.152889
1223.152882
1223.152942
1223.152938
1223.15291
1223.15305
1223.151436
1223.151481
1223.151462
1223.151491
1223.151522
1223.151377
1223.151365
1223.151307
1223.151245
1223.151133
1223.151276
1223.151435
1223.15154
1223.151593
1223.151793
1223.156475
1223.156599
1223.156554
1223.1566
1223.15666
1223.156891
1223.157057
1223.157088
1223.156997
1223.156894
1223.156846
1223.156643
1223.156872
1223.156839
1223.157043
1223.152415
1223.152486
1223.152537
1223.152458
1223.15222
1223.152244
1223.152314
1223.152148
1223.15218
1223.152123
1223.152303
1223.152201
1223.152336
1223.15265
1223.152856
1223.144605
1223.144664
1223.144618
1223.144521
1223.144476
1223.144428
1223.14453
1223.144369
1223.144514
1223.144291
1223.144195
1223.14411
1223.144298
1223.144446
1223.144638
1223.145325
1223.145091
1223.145208
1223.145053
1223.144989
1223.145084
1223.145007
1223.144997
1223.144803
1223.144876
1223.144874
1223.145104
1223.14532
1223.145242
1223.145354
1223.151888
1223.151801
1223.151846
1223.151723
1223.151754
1223.151802
1223.151802
1223.151586
1223.15152
1223.151615
1223.151538
1223.151501
1223.151412
1223.151257
1223.151335
1223.151942
1223.15191
1223.151901
1223.15171
1223.151763
1223.151794
1223.151855
1223.151903
1223.151808
1223.151702
1223.151871
1223.151736
1223.151791
1223.151881
1223.151838
1223.148998
1223.149081
1223.149176
1223.149186
1223.149075
1223.149113
1223.14903
1223.149082
1223.14909
1223.149184
1223.148996
1223.149089
1223.149179
1223.149081
1223.152642
1223.152528
1223.152464
1223.152413
1223.152688
1223.152728
1223.152616
1223.152503
1223.152694
1223.152603
1223.152482
1223.152559
1223.152709
1223.152687
1223.153049
1223.154541
1223.154501
1223.154434
1223.154548
1223.154609
1223.154674
1223.154837
1223.154859
1223.154801
1223.154917
1223.154753
1223.155092
1223.154981
1223.155489
1223.155745
1223.149474
1223.149438
1223.149497
1223.149542
1223.149453
1223.149511
1223.14935
1223.149251
1223.149178
1223.149228
1223.149418
1223.149392
1223.14942
1223.149978
1223.150704
1223.150018
1223.150109
1223.150041
1223.149971
1223.150082
1223.150087
1223.150095
1223.150134
1223.150175
1223.150094
1223.149941
1223.149798
1223.150192
1223.150615
1223.151675
1223.154924
1223.155003
1223.155127
1223.155124
1223.155246
1223.155298
1223.155423
1223.155496
1223.15548
1223.155755
1223.155905
1223.155747
1223.155653
1223.155962
1223.156774
1223.1612
1223.160947
1223.160874
1223.16082
1223.1609
1223.160939
1223.160954
1223.160912
1223.161058
1223.161024
1223.160924
1223.160932
1223.16097
1223.161192
1223.161344
1223.144391
1223.144358
1223.144353
1223.144312
1223.144289
1223.144371
1223.14433
1223.144361
1223.144289
1223.144081
1223.144399
1223.14444
1223.14424
1223.144328
1223.144542
1223.1523
1223.152343
1223.152406
1223.152484
1223.15258
1223.15255
1223.152602
1223.152527
1223.15267
1223.152658
1223.152472
1223.152486
1223.152484
1223.152548
1223.152655
1223.149992
1223.149985
1223.149917
1223.149936
1223.149854
1223.149831
1223.149851
1223.149917
1223.149939
1223.149936
1223.149983
1223.149774
1223.149922
1223.150088
1223.150012
1223.149906
1223.149881
1223.149881
1223.149924
1223.150214
1223.150117
1223.150184
1223.150161
1223.150297
1223.150142
1223.150139
1223.150143
1223.150213
1223.150228
1223.150285
1223.150349
1223.150234
1223.150046
1223.150206
1223.150308
1223.150328
1223.150431
1223.150389
1223.150464
1223.150294
1223.150477
1223.150739
1223.15169
1223.149868
1223.149756
1223.149839
1223.149882
1223.149999
1223.150044
1223.149993
1223.149993
1223.150001
1223.150138
1223.150215
1223.15023
1223.150541
1223.151485
1223.153671
1223.153767
1223.153761
1223.15365
1223.153751
1223.153637
1223.153724
1223.153845
1223.153925
1223.154113
1223.154059
1223.154247
1223.154318
1223.155046
1223.156987
1223.161815
1223.146388
1223.146394
1223.146586
1223.146634
1223.146944
1223.146868
1223.146888
1223.146782
1223.146807
1223.14665
1223.146625
1223.146729
1223.147015
1223.14821
1223.150561
1223.148122
1223.148396
1223.148262
1223.14831
1223.148436
1223.148393
1223.148427
1223.148483
1223.148486
1223.148617
1223.148728
1223.148785
1223.149071
1223.149374
1223.150152
1223.149122
1223.149072
1223.148936
1223.148942
1223.148761
1223.148801
1223.148987
1223.149
1223.148987
1223.149071
1223.149025
1223.149233
1223.149336
1223.149569
1223.1499
1223.147711
1223.147747
1223.147879
1223.147926
1223.147921
1223.147754
1223.147679
1223.147689
1223.147586
1223.147437
1223.147547
1223.147421
1223.147504
1223.147673
1223.147728
1223.148082
1223.148201
1223.148029
1223.148055
1223.148091
1223.14825
1223.148229
1223.148334
1223.148275
1223.148385
1223.148304
1223.148528
1223.148557
1223.148671
1223.148313
1223.148354
1223.148196
1223.148186
1223.148244
1223.148255
1223.148259
1223.148301
1223.14822
1223.148109
1223.148188
1223.148255
1223.1484
1223.148625
1223.141459
1223.141428
1223.141255
1223.141217
1223.141096
1223.141087
1223.141092
1223.141219
1223.141181
1223.141374
1223.141271
1223.141254
1223.141673
1223.142777
1223.152602
1223.152686
1223.152521
1223.152372
1223.152504
1223.152589
1223.152593
1223.152505
1223.152466
1223.152568
1223.152588
1223.152851
1223.153752
1223.157042
1223.165644
1223.150341
1223.15035
1223.150259
1223.150202
1223.150305
1223.150283
1223.150432
1223.150265
1223.15033
1223.150369
1223.150431
1223.150811
1223.152537
1223.160611
1223.188382
1223.151382
1223.151419
1223.151288
1223.151232
1223.151366
1223.151289
1223.151272
1223.151173
1223.151119
1223.151162
1223.151325
1223.151543
1223.152308
1223.155807
1223.164562
1223.151794
1223.151601
1223.15157
1223.151561
1223.151392
1223.151446
1223.151384
1223.151462
1223.151629
1223.151629
1223.151505
1223.151703
1223.151896
1223.152973
1223.155209
1223.15383
1223.153585
1223.153536
1223.153613
1223.153608
1223.153459
1223.153443
1223.15327
1223.153302
1223.153221
1223.153117
1223.153233
1223.153368
1223.153725
1223.154339
1223.15289
1223.152845
1223.152803
1223.152957
1223.152853
1223.152934
1223.152899
1223.152917
1223.152877
1223.152896
1223.152903
1223.152832
1223.152868
1223.152932
1223.15312
1223.150654
1223.150768
1223.150669
1223.150738
1223.150795
1223.150868
1223.15066
1223.150574
1223.150785
1223.150741
1223.150766
1223.150843
1223.150884
1223.151095
1223.148585
1223.148463
1223.148644
1223.148543
1223.148372
1223.148526
1223.148561
1223.1485
1223.148548
1223.148568
1223.148553
1223.148406
1223.148596
1223.149157
1223.160177
1223.160146
1223.160108
1223.160102
1223.160077
1223.160044
1223.160108
1223.160128
1223.160217
1223.160003
1223.160118
1223.160324
1223.160872
1223.162834
1223.15441
1223.1543
1223.154289
1223.154314
1223.154357
1223.154325
1223.154236
1223.154305
1223.154116
1223.154315
1223.154384
1223.154876
1223.156796
1223.165216
1223.152683
1223.152761
1223.152605
1223.152594
1223.152439
1223.152519
1223.15255
1223.152532
1223.15251
1223.1527
1223.15288
1223.153584
1223.158322
1223.1896
1220.393866
1223.150758
1223.150754
1223.150815
1223.150822
1223.150772
1223.150836
1223.150846
1223.150988
1223.150932
1223.151005
1223.151098
1223.151525
1223.153334
1223.161712
1223.189586
1223.149605
1223.149599
1223.149574
1223.149448
1223.149637
1223.149734
1223.149576
1223.149525
1223.149512
1223.149561
1223.149719
1223.149914
1223.150471
1223.152355
1223.157252
1223.146642
1223.146479
1223.146538
1223.146482
1223.14657
1223.146652
1223.146819
1223.147055
1223.146999
1223.146886
1223.146992
1223.146723
1223.146789
1223.147121
1223.147966
1223.148454
1223.14849
1223.148413
1223.148458
1223.148375
1223.148426
1223.148588
1223.148608
1223.148625
1223.148713
1223.148719
1223.148589
1223.148585
1223.148798
1223.149118
1223.148066
1223.148186
1223.148073
1223.147996
1223.148042
1223.148018
1223.147948
1223.148068
1223.148195
1223.148069
1223.14801
1223.148166
1223.14812
1223.148257
1223.143468
1223.143573
1223.143478
1223.143411
1223.14354
1223.143631
1223.143661
1223.143514
1223.143564
1223.143594
1223.143624
1223.143773
1223.143808
1223.144146
1223.147636
1223.147639
1223.14769
1223.147625
1223.147513
1223.147496
1223.14741
1223.147217
1223.1475
1223.147619
1223.147806
1223.148052
1223.14824
1223.149391
1223.147146
1223.147059
1223.146873
1223.147001
1223.14723
1223.147183
1223.14718
1223.147149
1223.14715
1223.146951
1223.14698
1223.147324
1223.148159
1223.151341
1223.150033
1223.150092
1223.150063
1223.149715
1223.149502
1223.149382
1223.149351
1223.149226
1223.149207
1223.149233
1223.149378
1223.149738
1223.151555
1223.15977
1223.146896
1223.146874
1223.146862
1223.14683
1223.146824
1223.14693
1223.147096
1223.147212
1223.147103
1223.147104
1223.147213
1223.147261
1223.148308
1223.151749
1223.153194
1223.153267
1223.153304
1223.153233
1223.153025
1223.152777
1223.152717
1223.152729
1223.152531
1223.152557
1223.152379
1223.152355
1223.152724
1223.153741
1223.15621
1223.147841
1223.147903
1223.147847
1223.14787
1223.147953
1223.147902
1223.147985
1223.148056
1223.147982
1223.148007
1223.14809
1223.148322
1223.148409
1223.14889
1223.149454
1223.148037
1223.148057
1223.147992
1223.148008
1223.147907
1223.147811
1223.147831
1223.147799
1223.147959
1223.148082
1223.147989
1223.147993
1223.147906
1223.14791
1223.148131
1223.144293
1223.144252
1223.144091
1223.144101
1223.144181
1223.144187
1223.144233
1223.144171
1223.144151
1223.144144
1223.144194
1223.144267
1223.144242
1223.144577
1223.153485
1223.153419
1223.153395
1223.15359
1223.153511
1223.153691
1223.153826
1223.153785
1223.153847
1223.153837
1223.153717
1223.153831
1223.154078
1223.1541
1223.159605
1223.159562
1223.159627
1223.159676
1223.159748
1223.15985
1223.159912
1223.159975
1223.160046
1223.159776
1223.159693
1223.159677
1223.159778
1223.160054
1223.150811
1223.150851
1223.150768
1223.150773
1223.150758
1223.150741
1223.15083
1223.150837
1223.150736
1223.150676
1223.150722
1223.150767
1223.15119
1223.152253
1223.145436
1223.145431
1223.145454
1223.145443
1223.14535
1223.145467
1223.145451
1223.145476
1223.145358
1223.145583
1223.145633
1223.145728
1223.146401
1223.148404
1223.149322
1223.149334
1223.149254
1223.14935
1223.149245
1223.149327
1223.149369
1223.149484
1223.149505
1223.149639
1223.149618
1223.149554
1223.149961
1223.151028
1223.151557
1223.151703
1223.151682
1223.151529
1223.15146
1223.151568
1223.151647
1223.151521
1223.151587
1223.151547
1223.151699
1223.151725
1223.151986
1223.152157
1223.146008
1223.145892
1223.145918
1223.145936
1223.146065
1223.145948
1223.145941
1223.146005
1223.146091
1223.146276
1223.146289
1223.146258
1223.146284
1223.146651
1223.146703
1223.154036
1223.154051
1223.154036
1223.153938
1223.153788
1223.153747
1223.153589
1223.153655
1223.153546
1223.153449
1223.153413
1223.153387
1223.153465
1223.153565
1223.153821
1223.153979
1223.15411
1223.15406
1223.153967
1223.154058
1223.154019
1223.154073
1223.154017
1223.153868
1223.15396
1223.153905
1223.153817
1223.15393
1223.153926
1223.151869
1223.152019
1223.151968
1223.151691
1223.151681
1223.151782
1223.151796
1223.151853
1223.151803
1223.15173
1223.151763
1223.151843
1223.152004
1223.152218
1223.15039
1223.15048
1223.150651
1223.15076
1223.150718
1223.150803
1223.150955
1223.150833
1223.150945
1223.150845
1223.150913
1223.151027
1223.151269
1223.151368
1223.152868
1223.152719
1223.152644
1223.152681
1223.152689
1223.15255
1223.152567
1223.152617
1223.152901
1223.152972
1223.153072
1223.15296
1223.153016
1223.153117
1223.153896
1223.15401
1223.154034
1223.154067
1223.154235
1223.154327
1223.154098
1223.154103
1223.154265
1223.154147
1223.154038
1223.154065
1223.154311
1223.154798
1223.147422
1223.147479
1223.147453
1223.147448
1223.147566
1223.147725
1223.147819
1223.147611
1223.147584
1223.147495
1223.147565
1223.14758
1223.147819
1223.148079
1223.147624
1223.147774
1223.147756
1223.147629
1223.147727
1223.147652
1223.147718
1223.147785
1223.147684
1223.147808
1223.147749
1223.147987
1223.148004
1223.14832
1223.150503
1223.1507
1223.150719
1223.150797
1223.150896
1223.150869
1223.150842
1223.150713
1223.150891
1223.150578
1223.150706
1223.150729
1223.150733
1223.150821
1223.157352
1223.157404
1223.15739
1223.157313
1223.157198
1223.15713
1223.157227
1223.15724
1223.157093
1223.157124
1223.157161
1223.157035
1223.156999
1223.156845
1223.156891
1223.148083
1223.148014
1223.148012
1223.148116
1223.148173
1223.148047
1223.148047
1223.148205
1223.148101
1223.148204
1223.148462
1223.148337
1223.148229
1223.148348
1223.152404
1223.152508
1223.152594
1223.152537
1223.152725
1223.152633
1223.152499
1223.152603
1223.15258
1223.152794
1223.152734
1223.152597
1223.152559
1223.152717
1223.148954
1223.148865
1223.148825
1223.148782
1223.148847
1223.148861
1223.148982
1223.148985
1223.148884
1223.148728
1223.148647
1223.148686
1223.148566
1223.148759
1223.154905
1223.155089
1223.155128
1223.155056
1223.155001
1223.15499
1223.154928
1223.155119
1223.154929
1223.15492
1223.155036
1223.155112
1223.154981
1223.154964
1223.14953
1223.149479
1223.149473
1223.149561
1223.149567
1223.149476
1223.149488
1223.149519
1223.149419
1223.149228
1223.149343
1223.149355
1223.149557
1223.14971
1223.156683
1223.156756
1223.156738
1223.156843
1223.156859
1223.156834
1223.156942
1223.156865
1223.156851
1223.156849
1223.157036
1223.157037
1223.157079
1223.157153
1223.150713
1223.150707
1223.150717
1223.150829
1223.150804
1223.15084
1223.150784
1223.150789
1223.150848
1223.150682
1223.150807
1223.15083
1223.1508
1223.150929
1223.147204
1223.147141
1223.14727
1223.147347
1223.147322
1223.147342
1223.147284
1223.147407
1223.147365
1223.147453
1223.147493
1223.14741
1223.147358
1223.147368
1223.150361
1223.150357
1223.150249
1223.150262
1223.150243
1223.150186
1223.150126
1223.150199
1223.150087
1223.150029
1223.150021
1223.150055
1223.149872
1223.149853
)
;

boundaryField
{
    top
    {
        type            zeroGradient;
    }
    bottom
    {
        type            zeroGradient;
    }
    side-walls
    {
        type            zeroGradient;
    }
    inlet
    {
        type            zeroGradient;
    }
    outlet
    {
        type            zeroGradient;
    }
    procBoundary0to1
    {
        type            processor;
        value           nonuniform List<scalar> 
97
(
1223.151825
1223.149175
1223.153077
1223.152029
1223.157353
1223.153445
1223.144887
1223.145632
1223.151399
1223.15191
1223.149175
1223.149175
1223.153133
1223.150465
1223.156049
1223.151513
1223.152932
1223.157944
1223.161793
1223.14482
1223.152778
1223.150003
1223.150465
1223.150465
1223.15279
1223.145183
1223.156225
1223.165342
1223.153129
1223.151428
1223.150316
1223.147767
1223.148837
1223.149105
1223.145183
1223.145183
1223.171417
1223.193033
1223.192722
1223.170345
1223.157728
1223.15547
1223.153339
1223.151554
1223.150226
1223.167757
1223.193033
1223.193033
1220.29146
1223.187434
1223.193933
1223.16049
1223.160906
1223.149305
1223.149599
1223.148484
1223.144952
1223.151531
1223.15988
1223.187434
1223.16049
1223.16049
1223.158828
1223.15305
1223.150257
1223.14859
1223.144808
1223.154498
1223.16075
1223.154663
1223.153198
1223.153225
1223.15305
1223.15305
1223.147186
1223.151022
1223.153755
1223.154034
1223.152331
1223.151788
1223.153777
1223.155781
1223.148584
1223.148605
1223.151022
1223.151022
1223.157061
1223.149913
1223.148411
1223.152688
1223.148815
1223.1552
1223.150105
1223.157267
1223.151188
1223.147462
1223.149913
)
;
    }
}


// ************************************************************************* //
