# Probe 0 (7 2.5 2.5)
# Probe 1 (8 2.5 2.5)
# Probe 2 (1 2.5 2.5)
#           Probe                 0                 1                 2
#            Time
               10           -1e+300           -1e+300           -1e+300
               20           -1e+300           -1e+300           -1e+300
               30           -1e+300           -1e+300           -1e+300
               40           -1e+300           -1e+300           -1e+300
               50           -1e+300           -1e+300           -1e+300
               60           -1e+300           -1e+300           -1e+300
               70           -1e+300           -1e+300           -1e+300
               80           -1e+300           -1e+300           -1e+300
               90           -1e+300           -1e+300           -1e+300
              100           -1e+300           -1e+300           -1e+300
              110           -1e+300           -1e+300           -1e+300
              120           -1e+300           -1e+300           -1e+300
              130           -1e+300           -1e+300           -1e+300
              140           -1e+300           -1e+300           -1e+300
              150           -1e+300           -1e+300           -1e+300
              160           -1e+300           -1e+300           -1e+300
              170           -1e+300           -1e+300           -1e+300
              180           -1e+300           -1e+300           -1e+300
              190           -1e+300           -1e+300           -1e+300
              200           -1e+300           -1e+300           -1e+300
              210           -1e+300           -1e+300           -1e+300
              220           -1e+300           -1e+300           -1e+300
              230           -1e+300           -1e+300           -1e+300
              240           -1e+300           -1e+300           -1e+300
              250           -1e+300           -1e+300           -1e+300
              260           -1e+300           -1e+300           -1e+300
              270           -1e+300           -1e+300           -1e+300
              280           -1e+300           -1e+300           -1e+300
              290           -1e+300           -1e+300           -1e+300
              300           -1e+300           -1e+300           -1e+300
              310           -1e+300           -1e+300           -1e+300
              320           -1e+300           -1e+300           -1e+300
              330           -1e+300           -1e+300           -1e+300
              340           -1e+300           -1e+300           -1e+300
              350           -1e+300           -1e+300           -1e+300
              360           -1e+300           -1e+300           -1e+300
              370           -1e+300           -1e+300           -1e+300
              380           -1e+300           -1e+300           -1e+300
              390           -1e+300           -1e+300           -1e+300
              400           -1e+300           -1e+300           -1e+300
              410           -1e+300           -1e+300           -1e+300
              420           -1e+300           -1e+300           -1e+300
              430           -1e+300           -1e+300           -1e+300
              440           -1e+300           -1e+300           -1e+300
              450           -1e+300           -1e+300           -1e+300
              460           -1e+300           -1e+300           -1e+300
              470           -1e+300           -1e+300           -1e+300
              480           -1e+300           -1e+300           -1e+300
              490           -1e+300           -1e+300           -1e+300
              500           -1e+300           -1e+300           -1e+300
              510           -1e+300           -1e+300           -1e+300
              520           -1e+300           -1e+300           -1e+300
              530           -1e+300           -1e+300           -1e+300
              540           -1e+300           -1e+300           -1e+300
              550           -1e+300           -1e+300           -1e+300
              560           -1e+300           -1e+300           -1e+300
              570           -1e+300           -1e+300           -1e+300
              580           -1e+300           -1e+300           -1e+300
              590           -1e+300           -1e+300           -1e+300
              600           -1e+300           -1e+300           -1e+300
              610           -1e+300           -1e+300           -1e+300
              620           -1e+300           -1e+300           -1e+300
              630           -1e+300           -1e+300           -1e+300
              640           -1e+300           -1e+300           -1e+300
              650           -1e+300           -1e+300           -1e+300
              660           -1e+300           -1e+300           -1e+300
              670           -1e+300           -1e+300           -1e+300
              680           -1e+300           -1e+300           -1e+300
              690           -1e+300           -1e+300           -1e+300
              700           -1e+300           -1e+300           -1e+300
              710           -1e+300           -1e+300           -1e+300
              720           -1e+300           -1e+300           -1e+300
              730           -1e+300           -1e+300           -1e+300
              740           -1e+300           -1e+300           -1e+300
              750           -1e+300           -1e+300           -1e+300
              760           -1e+300           -1e+300           -1e+300
              770           -1e+300           -1e+300           -1e+300
              780           -1e+300           -1e+300           -1e+300
              790           -1e+300           -1e+300           -1e+300
              800           -1e+300           -1e+300           -1e+300
              810           -1e+300           -1e+300           -1e+300
              820           -1e+300           -1e+300           -1e+300
              830           -1e+300           -1e+300           -1e+300
              840           -1e+300           -1e+300           -1e+300
              850           -1e+300           -1e+300           -1e+300
              860           -1e+300           -1e+300           -1e+300
              870           -1e+300           -1e+300           -1e+300
              880           -1e+300           -1e+300           -1e+300
              890           -1e+300           -1e+300           -1e+300
              900           -1e+300           -1e+300           -1e+300
              910           -1e+300           -1e+300           -1e+300
              920           -1e+300           -1e+300           -1e+300
              930           -1e+300           -1e+300           -1e+300
              940           -1e+300           -1e+300           -1e+300
              950           -1e+300           -1e+300           -1e+300
              960           -1e+300           -1e+300           -1e+300
              970           -1e+300           -1e+300           -1e+300
              980           -1e+300           -1e+300           -1e+300
              990           -1e+300           -1e+300           -1e+300
             1000           -1e+300           -1e+300           -1e+300
             1010           -1e+300           -1e+300           -1e+300
             1020           -1e+300           -1e+300           -1e+300
             1030           -1e+300           -1e+300           -1e+300
             1040           -1e+300           -1e+300           -1e+300
             1050           -1e+300           -1e+300           -1e+300
             1060           -1e+300           -1e+300           -1e+300
             1070           -1e+300           -1e+300           -1e+300
             1080           -1e+300           -1e+300           -1e+300
             1090           -1e+300           -1e+300           -1e+300
             1100           -1e+300           -1e+300           -1e+300
             1110           -1e+300           -1e+300           -1e+300
             1120           -1e+300           -1e+300           -1e+300
             1130           -1e+300           -1e+300           -1e+300
             1140           -1e+300           -1e+300           -1e+300
             1150           -1e+300           -1e+300           -1e+300
             1160           -1e+300           -1e+300           -1e+300
             1170           -1e+300           -1e+300           -1e+300
             1180           -1e+300           -1e+300           -1e+300
             1190           -1e+300           -1e+300           -1e+300
             1200           -1e+300           -1e+300           -1e+300
             1210           -1e+300           -1e+300           -1e+300
             1220           -1e+300           -1e+300           -1e+300
             1230           -1e+300           -1e+300           -1e+300
             1240           -1e+300           -1e+300           -1e+300
             1250           -1e+300           -1e+300           -1e+300
             1260           -1e+300           -1e+300           -1e+300
             1270           -1e+300           -1e+300           -1e+300
             1280           -1e+300           -1e+300           -1e+300
             1290           -1e+300           -1e+300           -1e+300
             1300           -1e+300           -1e+300           -1e+300
             1310           -1e+300           -1e+300           -1e+300
             1320           -1e+300           -1e+300           -1e+300
             1330           -1e+300           -1e+300           -1e+300
             1340           -1e+300           -1e+300           -1e+300
             1350           -1e+300           -1e+300           -1e+300
             1360           -1e+300           -1e+300           -1e+300
             1370           -1e+300           -1e+300           -1e+300
             1380           -1e+300           -1e+300           -1e+300
             1390           -1e+300           -1e+300           -1e+300
             1400           -1e+300           -1e+300           -1e+300
             1410           -1e+300           -1e+300           -1e+300
             1420           -1e+300           -1e+300           -1e+300
             1430           -1e+300           -1e+300           -1e+300
             1440           -1e+300           -1e+300           -1e+300
             1450           -1e+300           -1e+300           -1e+300
             1460           -1e+300           -1e+300           -1e+300
             1470           -1e+300           -1e+300           -1e+300
             1480           -1e+300           -1e+300           -1e+300
             1490           -1e+300           -1e+300           -1e+300
             1500           -1e+300           -1e+300           -1e+300
             1510           -1e+300           -1e+300           -1e+300
             1520           -1e+300           -1e+300           -1e+300
             1530           -1e+300           -1e+300           -1e+300
             1540           -1e+300           -1e+300           -1e+300
             1550           -1e+300           -1e+300           -1e+300
             1560           -1e+300           -1e+300           -1e+300
             1570           -1e+300           -1e+300           -1e+300
             1580           -1e+300           -1e+300           -1e+300
             1590           -1e+300           -1e+300           -1e+300
             1600           -1e+300           -1e+300           -1e+300
             1610           -1e+300           -1e+300           -1e+300
             1620           -1e+300           -1e+300           -1e+300
             1630           -1e+300           -1e+300           -1e+300
             1640           -1e+300           -1e+300           -1e+300
             1650           -1e+300           -1e+300           -1e+300
             1660           -1e+300           -1e+300           -1e+300
             1670           -1e+300           -1e+300           -1e+300
             1680           -1e+300           -1e+300           -1e+300
             1690           -1e+300           -1e+300           -1e+300
             1700           -1e+300           -1e+300           -1e+300
             1710           -1e+300           -1e+300           -1e+300
             1720           -1e+300           -1e+300           -1e+300
             1730           -1e+300           -1e+300           -1e+300
             1740           -1e+300           -1e+300           -1e+300
             1750           -1e+300           -1e+300           -1e+300
             1760           -1e+300           -1e+300           -1e+300
             1770           -1e+300           -1e+300           -1e+300
             1780           -1e+300           -1e+300           -1e+300
             1790           -1e+300           -1e+300           -1e+300
             1800           -1e+300           -1e+300           -1e+300
             1810           -1e+300           -1e+300           -1e+300
             1820           -1e+300           -1e+300           -1e+300
             1830           -1e+300           -1e+300           -1e+300
             1840           -1e+300           -1e+300           -1e+300
             1850           -1e+300           -1e+300           -1e+300
             1860           -1e+300           -1e+300           -1e+300
             1870           -1e+300           -1e+300           -1e+300
             1880           -1e+300           -1e+300           -1e+300
             1890           -1e+300           -1e+300           -1e+300
             1900           -1e+300           -1e+300           -1e+300
             1910           -1e+300           -1e+300           -1e+300
             1920           -1e+300           -1e+300           -1e+300
             1930           -1e+300           -1e+300           -1e+300
             1940           -1e+300           -1e+300           -1e+300
             1950           -1e+300           -1e+300           -1e+300
             1960           -1e+300           -1e+300           -1e+300
             1970           -1e+300           -1e+300           -1e+300
             1980           -1e+300           -1e+300           -1e+300
             1990           -1e+300           -1e+300           -1e+300
             2000           -1e+300           -1e+300           -1e+300
             2010           -1e+300           -1e+300           -1e+300
             2020           -1e+300           -1e+300           -1e+300
             2030           -1e+300           -1e+300           -1e+300
             2040           -1e+300           -1e+300           -1e+300
             2050           -1e+300           -1e+300           -1e+300
             2060           -1e+300           -1e+300           -1e+300
             2070           -1e+300           -1e+300           -1e+300
             2080           -1e+300           -1e+300           -1e+300
             2090           -1e+300           -1e+300           -1e+300
             2100           -1e+300           -1e+300           -1e+300
             2110           -1e+300           -1e+300           -1e+300
             2120           -1e+300           -1e+300           -1e+300
             2130           -1e+300           -1e+300           -1e+300
             2140           -1e+300           -1e+300           -1e+300
             2150           -1e+300           -1e+300           -1e+300
             2160           -1e+300           -1e+300           -1e+300
             2170           -1e+300           -1e+300           -1e+300
             2180           -1e+300           -1e+300           -1e+300
             2190           -1e+300           -1e+300           -1e+300
             2200           -1e+300           -1e+300           -1e+300
             2210           -1e+300           -1e+300           -1e+300
             2220           -1e+300           -1e+300           -1e+300
             2230           -1e+300           -1e+300           -1e+300
             2240           -1e+300           -1e+300           -1e+300
             2250           -1e+300           -1e+300           -1e+300
             2260           -1e+300           -1e+300           -1e+300
             2270           -1e+300           -1e+300           -1e+300
             2280           -1e+300           -1e+300           -1e+300
             2290           -1e+300           -1e+300           -1e+300
             2300           -1e+300           -1e+300           -1e+300
             2310           -1e+300           -1e+300           -1e+300
             2320           -1e+300           -1e+300           -1e+300
             2330           -1e+300           -1e+300           -1e+300
             2340           -1e+300           -1e+300           -1e+300
             2350           -1e+300           -1e+300           -1e+300
             2360           -1e+300           -1e+300           -1e+300
             2370           -1e+300           -1e+300           -1e+300
             2380           -1e+300           -1e+300           -1e+300
             2390           -1e+300           -1e+300           -1e+300
             2400           -1e+300           -1e+300           -1e+300
             2410           -1e+300           -1e+300           -1e+300
             2420           -1e+300           -1e+300           -1e+300
             2430           -1e+300           -1e+300           -1e+300
             2440           -1e+300           -1e+300           -1e+300
             2450           -1e+300           -1e+300           -1e+300
             2460           -1e+300           -1e+300           -1e+300
             2470           -1e+300           -1e+300           -1e+300
             2480           -1e+300           -1e+300           -1e+300
             2490           -1e+300           -1e+300           -1e+300
             2500           -1e+300           -1e+300           -1e+300
             2510           -1e+300           -1e+300           -1e+300
             2520           -1e+300           -1e+300           -1e+300
             2530           -1e+300           -1e+300           -1e+300
             2540           -1e+300           -1e+300           -1e+300
             2550           -1e+300           -1e+300           -1e+300
             2560           -1e+300           -1e+300           -1e+300
             2570           -1e+300           -1e+300           -1e+300
             2580           -1e+300           -1e+300           -1e+300
             2590           -1e+300           -1e+300           -1e+300
             2600           -1e+300           -1e+300           -1e+300
             2610           -1e+300           -1e+300           -1e+300
             2620           -1e+300           -1e+300           -1e+300
             2630           -1e+300           -1e+300           -1e+300
             2640           -1e+300           -1e+300           -1e+300
             2650           -1e+300           -1e+300           -1e+300
             2660           -1e+300           -1e+300           -1e+300
             2670           -1e+300           -1e+300           -1e+300
             2680           -1e+300           -1e+300           -1e+300
             2690           -1e+300           -1e+300           -1e+300
             2700           -1e+300           -1e+300           -1e+300
             2710           -1e+300           -1e+300           -1e+300
             2720           -1e+300           -1e+300           -1e+300
             2730           -1e+300           -1e+300           -1e+300
             2740           -1e+300           -1e+300           -1e+300
             2750           -1e+300           -1e+300           -1e+300
             2760           -1e+300           -1e+300           -1e+300
             2770           -1e+300           -1e+300           -1e+300
             2780           -1e+300           -1e+300           -1e+300
             2790           -1e+300           -1e+300           -1e+300
             2800           -1e+300           -1e+300           -1e+300
             2810           -1e+300           -1e+300           -1e+300
             2820           -1e+300           -1e+300           -1e+300
             2830           -1e+300           -1e+300           -1e+300
             2840           -1e+300           -1e+300           -1e+300
             2850           -1e+300           -1e+300           -1e+300
             2860           -1e+300           -1e+300           -1e+300
             2870           -1e+300           -1e+300           -1e+300
             2880           -1e+300           -1e+300           -1e+300
             2890           -1e+300           -1e+300           -1e+300
             2900           -1e+300           -1e+300           -1e+300
             2910           -1e+300           -1e+300           -1e+300
             2920           -1e+300           -1e+300           -1e+300
             2930           -1e+300           -1e+300           -1e+300
             2940           -1e+300           -1e+300           -1e+300
             2950           -1e+300           -1e+300           -1e+300
             2960           -1e+300           -1e+300           -1e+300
             2970           -1e+300           -1e+300           -1e+300
             2980           -1e+300           -1e+300           -1e+300
             2990           -1e+300           -1e+300           -1e+300
             3000           -1e+300           -1e+300           -1e+300
             3010           -1e+300           -1e+300           -1e+300
             3020           -1e+300           -1e+300           -1e+300
             3030           -1e+300           -1e+300           -1e+300
             3040           -1e+300           -1e+300           -1e+300
             3050           -1e+300           -1e+300           -1e+300
             3060           -1e+300           -1e+300           -1e+300
             3070           -1e+300           -1e+300           -1e+300
             3080           -1e+300           -1e+300           -1e+300
             3090           -1e+300           -1e+300           -1e+300
             3100           -1e+300           -1e+300           -1e+300
             3110           -1e+300           -1e+300           -1e+300
             3120           -1e+300           -1e+300           -1e+300
             3130           -1e+300           -1e+300           -1e+300
             3140           -1e+300           -1e+300           -1e+300
             3150           -1e+300           -1e+300           -1e+300
             3160           -1e+300           -1e+300           -1e+300
             3170           -1e+300           -1e+300           -1e+300
             3180           -1e+300           -1e+300           -1e+300
             3190           -1e+300           -1e+300           -1e+300
             3200           -1e+300           -1e+300           -1e+300
             3210           -1e+300           -1e+300           -1e+300
             3220           -1e+300           -1e+300           -1e+300
             3230           -1e+300           -1e+300           -1e+300
             3240           -1e+300           -1e+300           -1e+300
             3250           -1e+300           -1e+300           -1e+300
             3260           -1e+300           -1e+300           -1e+300
             3270           -1e+300           -1e+300           -1e+300
             3280           -1e+300           -1e+300           -1e+300
             3290           -1e+300           -1e+300           -1e+300
             3300           -1e+300           -1e+300           -1e+300
             3310           -1e+300           -1e+300           -1e+300
             3320           -1e+300           -1e+300           -1e+300
             3330           -1e+300           -1e+300           -1e+300
             3340           -1e+300           -1e+300           -1e+300
             3350           -1e+300           -1e+300           -1e+300
             3360           -1e+300           -1e+300           -1e+300
             3370           -1e+300           -1e+300           -1e+300
             3380           -1e+300           -1e+300           -1e+300
             3390           -1e+300           -1e+300           -1e+300
             3400           -1e+300           -1e+300           -1e+300
             3410           -1e+300           -1e+300           -1e+300
             3420           -1e+300           -1e+300           -1e+300
             3430           -1e+300           -1e+300           -1e+300
             3440           -1e+300           -1e+300           -1e+300
             3450           -1e+300           -1e+300           -1e+300
             3460           -1e+300           -1e+300           -1e+300
             3470           -1e+300           -1e+300           -1e+300
             3480           -1e+300           -1e+300           -1e+300
             3490           -1e+300           -1e+300           -1e+300
             3500           -1e+300           -1e+300           -1e+300
             3510           -1e+300           -1e+300           -1e+300
             3520           -1e+300           -1e+300           -1e+300
             3530           -1e+300           -1e+300           -1e+300
             3540           -1e+300           -1e+300           -1e+300
             3550           -1e+300           -1e+300           -1e+300
             3560           -1e+300           -1e+300           -1e+300
             3570           -1e+300           -1e+300           -1e+300
             3580           -1e+300           -1e+300           -1e+300
             3590           -1e+300           -1e+300           -1e+300
             3600           -1e+300           -1e+300           -1e+300
             3610           -1e+300           -1e+300           -1e+300
             3620           -1e+300           -1e+300           -1e+300
             3630           -1e+300           -1e+300           -1e+300
             3640           -1e+300           -1e+300           -1e+300
             3650           -1e+300           -1e+300           -1e+300
             3660           -1e+300           -1e+300           -1e+300
             3670           -1e+300           -1e+300           -1e+300
             3680           -1e+300           -1e+300           -1e+300
             3690           -1e+300           -1e+300           -1e+300
             3700           -1e+300           -1e+300           -1e+300
             3710           -1e+300           -1e+300           -1e+300
             3720           -1e+300           -1e+300           -1e+300
             3730           -1e+300           -1e+300           -1e+300
             3740           -1e+300           -1e+300           -1e+300
             3750           -1e+300           -1e+300           -1e+300
             3760           -1e+300           -1e+300           -1e+300
             3770           -1e+300           -1e+300           -1e+300
             3780           -1e+300           -1e+300           -1e+300
             3790           -1e+300           -1e+300           -1e+300
             3800           -1e+300           -1e+300           -1e+300
             3810           -1e+300           -1e+300           -1e+300
             3820           -1e+300           -1e+300           -1e+300
             3830           -1e+300           -1e+300           -1e+300
             3840           -1e+300           -1e+300           -1e+300
             3850           -1e+300           -1e+300           -1e+300
             3860           -1e+300           -1e+300           -1e+300
             3870           -1e+300           -1e+300           -1e+300
             3880           -1e+300           -1e+300           -1e+300
             3890           -1e+300           -1e+300           -1e+300
             3900           -1e+300           -1e+300           -1e+300
             3910           -1e+300           -1e+300           -1e+300
             3920           -1e+300           -1e+300           -1e+300
             3930           -1e+300           -1e+300           -1e+300
             3940           -1e+300           -1e+300           -1e+300
             3950           -1e+300           -1e+300           -1e+300
             3960           -1e+300           -1e+300           -1e+300
             3970           -1e+300           -1e+300           -1e+300
             3980           -1e+300           -1e+300           -1e+300
             3990           -1e+300           -1e+300           -1e+300
             4000           -1e+300           -1e+300           -1e+300
             4010           -1e+300           -1e+300           -1e+300
             4020           -1e+300           -1e+300           -1e+300
             4030           -1e+300           -1e+300           -1e+300
             4040           -1e+300           -1e+300           -1e+300
             4050           -1e+300           -1e+300           -1e+300
             4060           -1e+300           -1e+300           -1e+300
             4070           -1e+300           -1e+300           -1e+300
             4080           -1e+300           -1e+300           -1e+300
             4090           -1e+300           -1e+300           -1e+300
             4100           -1e+300           -1e+300           -1e+300
             4110           -1e+300           -1e+300           -1e+300
             4120           -1e+300           -1e+300           -1e+300
             4130           -1e+300           -1e+300           -1e+300
             4140           -1e+300           -1e+300           -1e+300