/*--------------------------------*- C++ -*----------------------------------*\
| =========                 |                                                 |
| \\      /  F ield         | OpenFOAM: The Open Source CFD Toolbox           |
|  \\    /   O peration     | Version:  4.x                                   |
|   \\  /    A nd           | Web:      www.OpenFOAM.org                      |
|    \\/     M anipulation  |                                                 |
\*---------------------------------------------------------------------------*/
FoamFile
{
    version     2.0;
    format      ascii;
    class       volScalarField;
    location    "1000";
    object      CO;
}
// * * * * * * * * * * * * * * * * * * * * * * * * * * * * * * * * * * * * * //

dimensions      [0 0 0 0 0 0 0];

internalField   nonuniform List<scalar> 
1174
(
0.3101740377
0.3101685152
0.3101607931
0.3101508099
0.3101387022
0.3101247605
0.3101093715
0.3100929625
0.3100759573
0.3100587478
0.3100416912
0.3100251666
0.3100098503
0.3099978952
0.3101689789
0.3101602943
0.3101488363
0.310134905
0.3101190032
0.3101017201
0.3100836393
0.3100652825
0.3100470815
0.3100293742
0.3100124236
0.3099964861
0.3099820697
0.3099710035
0.3101579355
0.3101428742
0.3101244097
0.3101036137
0.3100816115
0.3100593899
0.3100377126
0.3100171091
0.3099979037
0.3099802617
0.3099642426
0.3099498811
0.309937405
0.3099281002
0.3101419958
0.3101189346
0.3100926919
0.3100651977
0.3100380222
0.3100122652
0.3099885907
0.3099673187
0.309948525
0.3099321287
0.3099179634
0.3099058527
0.3098957736
0.3098884957
0.3101308043
0.3101034357
0.3100738101
0.3100440065
0.3100154976
0.3099891986
0.3099655835
0.3099448093
0.3099268221
0.3099114404
0.3098984199
0.3098875168
0.3098786236
0.3098723045
0.3101419963
0.3101189352
0.3100926927
0.3100651987
0.3100380234
0.3100122666
0.3099885923
0.3099673204
0.3099485269
0.3099321306
0.3099179654
0.3099058548
0.3098957758
0.309888498
0.3101579361
0.3101428751
0.3101244108
0.310103615
0.3100816131
0.3100593918
0.3100377148
0.3100171116
0.3099979065
0.3099802647
0.3099642458
0.3099498845
0.3099374086
0.309928104
0.3101689795
0.3101602951
0.3101488373
0.3101349062
0.3101190047
0.3101017218
0.3100836414
0.310065285
0.3100470843
0.3100293773
0.3100124271
0.30999649
0.3099820739
0.3099710081
0.3101740382
0.3101685158
0.3101607938
0.3101508108
0.3101387034
0.3101247619
0.3101093732
0.3100929647
0.3100759599
0.3100587508
0.3100416947
0.3100251705
0.3100098547
0.3099979
0.3101749047
0.310168979
0.3101602945
0.3101488365
0.3101349052
0.3101190034
0.3101017202
0.3100836395
0.3100652827
0.3100470817
0.3100293744
0.3100124238
0.3099964864
0.3099820699
0.3099710037
0.3101577727
0.3101428526
0.3101248202
0.31010478
0.3100838106
0.3100628002
0.3100423949
0.3100230147
0.3100048985
0.3099881554
0.3099728177
0.3099589185
0.3099467073
0.3099375164
0.3101299591
0.3101015812
0.3100710249
0.310040855
0.3100127737
0.3099876653
0.3099658094
0.3099471066
0.309931259
0.3099178916
0.3099066298
0.3098971587
0.3098893437
0.3098837165
0.3100813432
0.3100349659
0.3099912921
0.3099534631
0.3099224682
0.3098980304
0.3098792877
0.3098652083
0.3098548055
0.309847228
0.3098417821
0.3098379249
0.3098352593
0.3098336113
0.3100362974
0.3099810791
0.3099346908
0.3098981574
0.3098705959
0.3098504806
0.3098362375
0.3098264785
0.3098200658
0.3098161034
0.3098139015
0.3098129306
0.3098127642
0.3098129793
0.3100813448
0.3100349679
0.3099912943
0.3099534655
0.3099224707
0.309898033
0.3098792904
0.309865211
0.3098548083
0.3098472308
0.3098417849
0.3098379277
0.3098352621
0.3098336141
0.3101299611
0.3101015834
0.3100710274
0.3100408577
0.3100127767
0.3099876686
0.309965813
0.3099471104
0.309931263
0.3099178958
0.3099066342
0.3098971632
0.3098893483
0.3098837212
0.3101577741
0.310142854
0.3101248218
0.3101047818
0.3100838128
0.3100628028
0.3100423979
0.3100230182
0.3100049024
0.3099881596
0.3099728223
0.3099589234
0.3099467126
0.3099375219
0.3101689795
0.3101602951
0.3101488374
0.3101349063
0.310119005
0.3101017222
0.3100836419
0.3100652857
0.3100470851
0.3100293783
0.3100124283
0.3099964913
0.3099820753
0.3099710096
0.3101688793
0.3101579358
0.3101428747
0.3101244102
0.3101036143
0.3100816121
0.3100593906
0.3100377133
0.3100171098
0.3099979045
0.3099802624
0.3099642433
0.3099498818
0.3099374057
0.3099281009
0.3101531224
0.3101299596
0.3101015818
0.3100710255
0.3100408556
0.3100127743
0.3099876659
0.30996581
0.3099471072
0.3099312595
0.3099178922
0.3099066304
0.3098971592
0.3098893442
0.309883717
0.3100491876
0.3099907177
0.3099383844
0.3098959438
0.3098639698
0.3098413259
0.3098262265
0.309816843
0.3098115819
0.3098091697
0.3098086417
0.3098092845
0.3098105414
0.3098118056
0.3098726398
0.3097760356
0.3097105208
0.3096727013
0.3096556727
0.3096527106
0.3096585019
0.3096692605
0.3096824588
0.3096964886
0.3097103641
0.3097234647
0.3097352021
0.3097441014
0.3096455824
0.3095515033
0.3095125122
0.3095071425
0.3095203269
0.3095427098
0.3095688187
0.3095955845
0.3096213646
0.3096453418
0.3096671572
0.3096866475
0.3097034789
0.3097159615
0.3098726466
0.3097760423
0.309710527
0.3096727072
0.3096556782
0.3096527159
0.3096585068
0.3096692652
0.3096824633
0.3096964929
0.3097103681
0.3097234685
0.3097352059
0.3097441051
0.3100491939
0.3099907231
0.3099383898
0.3098959493
0.3098639756
0.3098413318
0.3098262325
0.3098168491
0.309811588
0.3098091758
0.3098086478
0.3098092906
0.3098105475
0.3098118117
0.3101299611
0.3101015837
0.3100710279
0.3100408586
0.3100127779
0.3099876701
0.3099658147
0.3099471124
0.3099312651
0.3099178981
0.3099066366
0.3098971657
0.3098893509
0.3098837239
0.3101579361
0.3101428753
0.3101244113
0.3101036158
0.3100816143
0.3100593934
0.3100377168
0.3100171139
0.3099979092
0.3099802677
0.3099642492
0.3099498882
0.3099374125
0.3099281081
0.3101599669
0.3101419964
0.3101189355
0.3100926929
0.3100651989
0.3100380235
0.3100122665
0.3099885921
0.3099673201
0.3099485264
0.3099321301
0.3099179647
0.309905854
0.3098957749
0.309888497
0.3101244757
0.3100813441
0.3100349674
0.3099912936
0.3099534647
0.3099224697
0.309898032
0.3098792892
0.3098652097
0.3098548069
0.3098472294
0.3098417834
0.3098379261
0.3098352605
0.3098336124
0.3099923025
0.3098726414
0.3097760378
0.3097105228
0.3096727032
0.3096556743
0.3096527122
0.3096585032
0.3096692617
0.3096824599
0.3096964896
0.309710365
0.3097234655
0.3097352029
0.3097441021
0.3092768076
0.309160343
0.3091449688
0.3091831809
0.3092445094
0.3093120835
0.3093775399
0.3094372745
0.3094901482
0.3095362008
0.3095759565
0.3096100035
0.3096384516
0.3096590852
0.3081286916
0.3082888257
0.3085255087
0.3087496806
0.3089387996
0.309092297
0.3092156302
0.3093149263
0.3093954362
0.3094612823
0.3095155777
0.3095605406
0.309597217
0.30962342
0.3092768336
0.3091603608
0.3091449827
0.3091831926
0.3092445195
0.3093120923
0.3093775477
0.3094372814
0.3094901545
0.3095362065
0.3095759618
0.3096100085
0.3096384562
0.3096590897
0.3098726468
0.3097760446
0.3097105306
0.3096727117
0.3096556832
0.3096527211
0.3096585121
0.3096692704
0.3096824683
0.3096964978
0.3097103729
0.3097234731
0.3097352103
0.3097441095
0.3100813449
0.3100349691
0.3099912965
0.3099534688
0.3099224748
0.3098980378
0.3098792957
0.3098652167
0.3098548143
0.309847237
0.3098417912
0.3098379341
0.3098352686
0.3098336207
0.3101419963
0.3101189358
0.3100926939
0.3100652007
0.3100380262
0.3100122702
0.3099885966
0.3099673254
0.3099485325
0.3099321367
0.309917972
0.3099058618
0.3098957831
0.3098885056
0.3101533935
0.3101308052
0.3101034371
0.3100738117
0.3100440083
0.3100154996
0.3099892006
0.3099655855
0.3099448114
0.3099268242
0.3099114424
0.3098984218
0.3098875188
0.3098786254
0.3098723064
0.310095105
0.3100362991
0.3099810819
0.3099346938
0.3098981604
0.3098705988
0.3098504834
0.3098362401
0.309826481
0.3098200682
0.3098161056
0.3098139036
0.3098129326
0.3098127661
0.3098129811
0.309815884
0.3096455847
0.309551509
0.3095125177
0.3095071474
0.3095203311
0.3095427134
0.3095688218
0.3095955872
0.309621367
0.309645344
0.3096671591
0.3096866493
0.3097034805
0.3097159631
0.3083213962
0.3081287073
0.3082888371
0.3085255167
0.3087496865
0.308938804
0.3090923004
0.3092156329
0.3093149285
0.3093954381
0.3094612839
0.3095155791
0.3095605418
0.3095972181
0.309623421
0.3032368772
0.3057499813
0.3071363649
0.3079457792
0.3084461767
0.3087731167
0.3089978522
0.3091593714
0.309279906
0.3093726659
0.3094458002
0.3095043975
0.3095510848
0.3095839825
0.3081286928
0.3082888521
0.3085255339
0.3087497016
0.3089388168
0.3090923113
0.3092156423
0.3093149369
0.3093954455
0.3094612905
0.3095155851
0.3095605474
0.3095972233
0.309623426
0.3096455829
0.3095515128
0.3095125251
0.3095071565
0.3095203411
0.3095427236
0.3095688319
0.309595597
0.3096213764
0.309645353
0.3096671678
0.3096866577
0.3097034886
0.309715971
0.3100362977
0.3099810821
0.3099346959
0.3098981642
0.309870604
0.3098504897
0.3098362472
0.3098264886
0.3098200762
0.309816114
0.3098139121
0.3098129413
0.3098127749
0.30981299
0.3101308044
0.3101034368
0.3100738122
0.3100440098
0.3100155023
0.3099892044
0.3099655903
0.3099448171
0.3099268307
0.3099114497
0.3098984296
0.3098875271
0.3098786342
0.3098723156
0.3101599672
0.3101419971
0.3101189366
0.3100926944
0.3100652006
0.3100380255
0.3100122688
0.3099885946
0.3099673227
0.3099485292
0.309932133
0.3099179678
0.3099058571
0.3098957781
0.3098885002
0.3101244773
0.3100813468
0.3100349708
0.3099912974
0.3099534688
0.3099224739
0.3098980362
0.3098792934
0.3098652139
0.3098548111
0.3098472335
0.3098417875
0.3098379302
0.3098352645
0.3098336164
0.3099923126
0.3098726517
0.309776049
0.3097105335
0.3096727131
0.3096556835
0.3096527206
0.3096585111
0.309669269
0.3096824667
0.309696496
0.3097103709
0.3097234711
0.3097352083
0.3097441074
0.3095471897
0.3092768474
0.3091603748
0.3091449942
0.3091832017
0.3092445267
0.3093120981
0.3093775524
0.3094372854
0.3094901579
0.3095362094
0.3095759643
0.3096100107
0.3096384583
0.3096590916
0.3083214021
0.3081287172
0.3082888682
0.3085255446
0.3087497089
0.3089388221
0.3090923153
0.3092156454
0.3093149393
0.3093954475
0.3094612922
0.3095155866
0.3095605487
0.3095972244
0.309623427
0.309547184
0.3092768507
0.3091603817
0.3091450024
0.3091832102
0.309244535
0.309312106
0.3093775597
0.3094372922
0.3094901642
0.3095362153
0.3095759698
0.3096100159
0.3096384631
0.3096590963
0.3098726398
0.3097760452
0.3097105348
0.3096727176
0.3096556898
0.309652728
0.3096585189
0.3096692771
0.3096824747
0.3096965039
0.3097103787
0.3097234788
0.3097352158
0.3097441148
0.3100813429
0.3100349684
0.3099912971
0.3099534703
0.3099224771
0.3098980407
0.309879299
0.3098652203
0.309854818
0.3098472409
0.3098417952
0.3098379381
0.3098352726
0.3098336247
0.3101419957
0.3101189354
0.310092694
0.3100652012
0.3100380271
0.3100122716
0.3099885984
0.3099673275
0.3099485349
0.3099321394
0.3099179749
0.3099058648
0.3098957863
0.3098885089
0.3101688797
0.3101579368
0.3101428761
0.3101244121
0.3101036166
0.3100816149
0.3100593938
0.3100377169
0.3100171138
0.3099979088
0.309980267
0.3099642482
0.309949887
0.309937411
0.3099281064
0.3101531244
0.3101299624
0.3101015854
0.3100710297
0.3100408603
0.3100127794
0.3099876714
0.3099658158
0.3099471132
0.3099312658
0.3099178986
0.3099066369
0.3098971658
0.3098893508
0.3098837237
0.3101056302
0.310049197
0.3099907273
0.3099383942
0.3098959538
0.3098639799
0.309841336
0.3098262365
0.3098168528
0.3098115914
0.3098091791
0.3098086508
0.3098092935
0.3098105502
0.3098118142
0.309992313
0.3098726539
0.3097760528
0.3097105385
0.3096727189
0.3096556895
0.3096527267
0.309658517
0.3096692748
0.3096824722
0.3096965012
0.309710376
0.309723476
0.309735213
0.309744112
0.3098158863
0.3096455953
0.3095515244
0.3095125348
0.3095071645
0.3095203476
0.3095427289
0.3095688363
0.3095956008
0.3096213797
0.3096453559
0.3096671703
0.3096866599
0.3097034906
0.3097159728
0.3099923138
0.3098726556
0.3097760554
0.3097105418
0.3096727226
0.3096556936
0.3096527309
0.3096585213
0.309669279
0.3096824764
0.3096965053
0.30971038
0.3097234799
0.3097352168
0.3097441157
0.310105627
0.3100491943
0.3099907261
0.3099383948
0.309895956
0.3098639833
0.3098413403
0.3098262414
0.3098168582
0.3098115971
0.3098091849
0.3098086568
0.3098092995
0.3098105563
0.3098118204
0.3101299593
0.3101015834
0.3100710289
0.3100408608
0.310012781
0.3099876741
0.3099658194
0.3099471176
0.3099312707
0.3099179041
0.3099066429
0.3098971722
0.3098893576
0.3098837307
0.3101579354
0.3101428749
0.3101244113
0.3101036165
0.3100816156
0.3100593953
0.3100377194
0.3100171171
0.3099979129
0.3099802719
0.3099642538
0.3099498932
0.3099374178
0.3099281138
0.3101749052
0.3101689799
0.3101602957
0.3101488381
0.3101349072
0.310119006
0.3101017233
0.3100836431
0.3100652868
0.3100470863
0.3100293795
0.3100124294
0.3099964923
0.3099820762
0.3099710104
0.3101687575
0.3101577748
0.3101428551
0.3101248232
0.3101047835
0.3100838148
0.3100628049
0.3100424001
0.3100230205
0.3100049048
0.3099881621
0.3099728248
0.3099589259
0.3099467151
0.3099375244
0.3101531244
0.3101299626
0.3101015859
0.3100710304
0.3100408614
0.3100127808
0.3099876732
0.3099658178
0.3099471154
0.3099312681
0.3099179011
0.3099066395
0.3098971685
0.3098893536
0.3098837265
0.3101244775
0.3100813478
0.3100349728
0.3099913006
0.309953473
0.3099224789
0.3098980418
0.3098792995
0.3098652203
0.3098548177
0.3098472403
0.3098417943
0.309837937
0.3098352714
0.3098336233
0.3100951059
0.3100363023
0.3099810874
0.3099347012
0.3098981693
0.3098706087
0.309850494
0.3098362512
0.3098264922
0.3098200795
0.309816117
0.3098139149
0.3098129439
0.3098127773
0.3098129922
0.3101244779
0.3100813485
0.3100349738
0.3099913019
0.3099534746
0.3099224809
0.309898044
0.3098793019
0.3098652229
0.3098548204
0.309847243
0.3098417971
0.3098379399
0.3098352743
0.3098336263
0.3101531241
0.3101299622
0.3101015858
0.3100710309
0.3100408626
0.3100127826
0.3099876755
0.3099658207
0.3099471187
0.3099312718
0.3099179051
0.3099066438
0.3098971731
0.3098893584
0.3098837315
0.3101687568
0.3101577739
0.3101428544
0.3101248229
0.3101047837
0.3100838155
0.3100628063
0.3100424022
0.3100230232
0.3100049081
0.3099881659
0.3099728292
0.3099589308
0.3099467203
0.30993753
0.310168979
0.3101602949
0.3101488375
0.310134907
0.3101190062
0.3101017241
0.3100836445
0.310065289
0.3100470891
0.3100293829
0.3100124335
0.3099964971
0.3099820816
0.3099710164
0.310177629
0.3101740385
0.3101685162
0.3101607944
0.3101508116
0.3101387043
0.3101247631
0.3101093746
0.3100929663
0.3100759616
0.3100587527
0.3100416967
0.3100251726
0.3100098569
0.3099979022
0.3101749052
0.3101689799
0.3101602958
0.3101488382
0.3101349075
0.3101190063
0.3101017238
0.3100836437
0.3100652876
0.3100470872
0.3100293805
0.3100124305
0.3099964936
0.3099820777
0.309971012
0.3101688797
0.3101579369
0.3101428764
0.3101244127
0.3101036176
0.3100816162
0.3100593955
0.3100377191
0.3100171164
0.3099979117
0.3099802703
0.3099642517
0.3099498907
0.3099374151
0.3099281107
0.3101599673
0.3101419976
0.3101189377
0.3100926962
0.3100652033
0.310038029
0.3100122731
0.3099885996
0.3099673284
0.3099485355
0.3099321397
0.3099179748
0.3099058646
0.3098957858
0.3098885082
0.3101533938
0.3101308063
0.3101034393
0.3100738151
0.310044013
0.3100155055
0.3099892076
0.3099655935
0.3099448202
0.3099268337
0.3099114525
0.3098984324
0.3098875297
0.3098786367
0.3098723179
0.3101599675
0.3101419979
0.3101189381
0.3100926968
0.3100652041
0.31003803
0.3100122744
0.3099886011
0.3099673301
0.3099485373
0.3099321417
0.309917977
0.3099058669
0.3098957882
0.3098885107
0.3101688798
0.3101579369
0.3101428766
0.3101244131
0.3101036183
0.3100816174
0.3100593971
0.310037721
0.3100171187
0.3099979144
0.3099802734
0.3099642552
0.3099498945
0.309937419
0.3099281149
0.3101749051
0.3101689797
0.3101602956
0.3101488382
0.3101349077
0.3101190069
0.3101017247
0.3100836451
0.3100652895
0.3100470897
0.3100293835
0.310012434
0.3099964976
0.3099820821
0.3099710168
0.3101776288
0.3101740382
0.3101685158
0.3101607941
0.3101508115
0.3101387045
0.3101247637
0.3101093757
0.3100929678
0.3100759638
0.3100587555
0.3100417001
0.3100251766
0.3100098616
0.3099979074
)
;

boundaryField
{
    top
    {
        type            zeroGradient;
    }
    bottom
    {
        type            zeroGradient;
    }
    side-walls
    {
        type            zeroGradient;
    }
    inlet
    {
        type            zeroGradient;
    }
    outlet
    {
        type            zeroGradient;
    }
    procBoundary1to0
    {
        type            processor;
        value           nonuniform List<scalar> 
97
(
0.3101776287
0.3101776287
0.310174905
0.3101688798
0.3101599678
0.3101533946
0.3101599681
0.3101688802
0.3101749055
0.3101776291
0.3101784508
0.3101687567
0.3101687567
0.3101687567
0.3101531239
0.3101244783
0.3100951085
0.3101244796
0.3101531254
0.310168758
0.3101749054
0.3101756872
0.3101686877
0.310105626
0.310105626
0.310105626
0.3099923132
0.3098158989
0.3099923204
0.3101056332
0.3101531254
0.3101688802
0.3101716988
0.3101565261
0.3101043337
0.3095471648
0.3095471648
0.3095471648
0.3083214707
0.309547211
0.3099923201
0.3101244795
0.310159968
0.3101688994
0.3101452637
0.3100475979
0.3096688924
0.2984195823
0.2984195823
0.2984195823
0.3083214633
0.3083214633
0.3098158971
0.3100951081
0.3101533944
0.3101716988
0.3101565264
0.3101043342
0.3099554221
0.3096688906
0.3099554241
0.3099923061
0.3099923061
0.3099923061
0.3101244771
0.3101599674
0.3101756872
0.3101686879
0.3101484839
0.3101043341
0.3100475979
0.3101043347
0.3101484838
0.3101531228
0.3101531228
0.3101531228
0.3101688795
0.3101784508
0.3101756468
0.3101686879
0.3101565263
0.3101452638
0.3101565266
0.3101686879
0.3101756467
0.3101749048
0.3101749048
0.3101749048
0.3101797169
0.3101784508
0.3101756872
0.3101716988
0.3101688994
0.3101716989
0.3101756873
0.3101784508
0.3101797168
)
;
    }
}


// ************************************************************************* //
