/*--------------------------------*- C++ -*----------------------------------*\
| =========                 |                                                 |
| \\      /  F ield         | OpenFOAM: The Open Source CFD Toolbox           |
|  \\    /   O peration     | Version:  4.x                                   |
|   \\  /    A nd           | Web:      www.OpenFOAM.org                      |
|    \\/     M anipulation  |                                                 |
\*---------------------------------------------------------------------------*/
FoamFile
{
    version     2.0;
    format      ascii;
    class       volScalarField;
    location    "1000";
    object      CO2;
}
// * * * * * * * * * * * * * * * * * * * * * * * * * * * * * * * * * * * * * //

dimensions      [0 0 0 0 0 0 0];

internalField   nonuniform List<scalar> 
1174
(
0.06499009301
0.06499647595
0.06500540171
0.0650169417
0.06503093872
0.06504705747
0.0650648513
0.0650838266
0.06510349394
0.06512340027
0.06514313267
0.06516225269
0.06517997716
0.06519381373
0.0649959382
0.06500597499
0.06501921798
0.06503532092
0.0650537032
0.06507368461
0.06509459065
0.06511581876
0.06513686999
0.06515735359
0.06517696537
0.0651954085
0.06521209464
0.06522490495
0.06500869768
0.06502610268
0.06504744228
0.06507147877
0.06509691231
0.06512260288
0.06514766804
0.06517149579
0.06519371101
0.06521412254
0.06523266097
0.06524928564
0.0652637318
0.0652745083
0.06502711303
0.06505376158
0.06508408931
0.06511586705
0.06514728078
0.0651770596
0.065204436
0.06522903978
0.06525078271
0.06526975796
0.0652861571
0.06530018327
0.06531186148
0.06532029721
0.06504004186
0.06507166713
0.06510590419
0.06514035142
0.06517330725
0.06520371409
0.06523102359
0.06525505379
0.06527586642
0.06529367059
0.06530874816
0.06532137985
0.06533168861
0.06533901683
0.06502711254
0.06505376083
0.06508408837
0.06511586594
0.06514727953
0.06517705823
0.06520443454
0.06522903824
0.0652507811
0.0652697563
0.0652861554
0.06530018153
0.06531185971
0.06532029542
0.06500869699
0.0650261017
0.06504744106
0.06507147732
0.06509691064
0.065122601
0.06514766597
0.06517149353
0.06519370858
0.06521411996
0.06523265826
0.0652492828
0.06526372885
0.06527450527
0.06499593757
0.06500597417
0.06501921695
0.06503531969
0.06505370173
0.06507368289
0.06509458867
0.06511581652
0.06513686749
0.06515735084
0.06517696238
0.06519540529
0.06521209121
0.06522490135
0.06499009248
0.06499647531
0.06500540092
0.06501694072
0.06503093752
0.06504705601
0.06506484956
0.06508382456
0.06510349159
0.0651233976
0.0651431297
0.06516224943
0.06517997361
0.06519380993
0.06498909021
0.06499593814
0.0650059749
0.06501921787
0.0650353208
0.06505370307
0.06507368447
0.0650945905
0.0651158186
0.06513686982
0.06515735342
0.06517696519
0.06519540832
0.06521209446
0.06522490477
0.06500888535
0.06502612705
0.06504696709
0.06507012999
0.06509436971
0.06511866032
0.06514225513
0.06516466855
0.06518562445
0.06520499647
0.06522274668
0.06523883643
0.0652529757
0.06526362014
0.06504101799
0.06507380908
0.06510912103
0.06514399095
0.06517645231
0.06520548269
0.06523075877
0.06525239462
0.06527073398
0.0652862094
0.0652992535
0.06531022941
0.06531929113
0.0653258191
0.06509717953
0.06515076673
0.065201237
0.06524496066
0.06528079409
0.06530905574
0.06533074068
0.06534703996
0.06535909273
0.06536788226
0.06537420952
0.06537870115
0.06538181461
0.06538374588
0.06514921312
0.06521301545
0.06526662465
0.06530885532
0.06534072577
0.06536399703
0.06538048632
0.06539179641
0.06539924121
0.06540385543
0.06540643577
0.06540759331
0.06540781973
0.0654075987
0.06509717787
0.06515076462
0.0652012347
0.06524495826
0.06528079165
0.06530905332
0.06533073827
0.06534703759
0.06535909042
0.06536787999
0.06537420729
0.06537869896
0.06538181244
0.06538374373
0.06504101596
0.06507380673
0.06510911846
0.0651439882
0.06517644938
0.06520547959
0.06523075554
0.06525239129
0.06527073056
0.06528620592
0.06529924998
0.06531022585
0.06531928754
0.06532581548
0.06500888385
0.06502612551
0.06504696539
0.06507012804
0.06509436748
0.0651186578
0.06514225233
0.06516466548
0.06518562113
0.06520499292
0.06522274291
0.06523883247
0.06525297157
0.06526361587
0.06499593756
0.06500597412
0.06501921685
0.06503531951
0.06505370147
0.06507368253
0.06509458821
0.06511581596
0.06513686683
0.06515735009
0.06517696154
0.06519540438
0.06521209023
0.06522490029
0.06499605189
0.06500869752
0.06502610233
0.06504744185
0.06507147828
0.06509691177
0.0651226023
0.06514766743
0.06517149515
0.06519371036
0.06521412189
0.06523266032
0.06524928499
0.06526373115
0.06527450766
0.06501425492
0.06504101778
0.06507380867
0.06510912057
0.06514399047
0.06517645181
0.06520548216
0.06523075824
0.06525239409
0.06527073345
0.06528620889
0.06529925301
0.06531022893
0.06531929067
0.06532581866
0.06513432536
0.06520188403
0.06526236068
0.06531141522
0.06534838304
0.06537457539
0.06539205389
0.06540292995
0.06540904401
0.06541186676
0.06541251255
0.0654118051
0.06541038649
0.0654089528
0.0653382595
0.06544987839
0.06552559463
0.06556932424
0.06558903954
0.06559250553
0.06558585878
0.06557347193
0.06555826497
0.06554209563
0.06552610301
0.06551100391
0.06549747702
0.06548722213
0.06560052061
0.06570923411
0.06575432424
0.06576058021
0.06574540252
0.06571959639
0.06568948273
0.06565860678
0.06562886649
0.06560120633
0.0655760414
0.06555356035
0.06553414833
0.06551975337
0.0653382525
0.06544987149
0.06552558833
0.06556931855
0.06558903441
0.06559250088
0.06558585456
0.06557346808
0.06555826144
0.06554209236
0.06552609997
0.06551100104
0.06549747428
0.06548721947
0.06513431862
0.06520187821
0.06526235515
0.06531140978
0.06534837764
0.06537457008
0.06539204868
0.06540292487
0.06540903906
0.06541186194
0.06541250786
0.06541180053
0.06541038201
0.06540894837
0.06504101589
0.06507380643
0.06510911794
0.06514398743
0.06517644838
0.06520547838
0.06523075416
0.06525238976
0.06527072892
0.06528620419
0.06529924816
0.06531022397
0.06531928562
0.06532581352
0.06500869695
0.06502610149
0.06504744064
0.06507147663
0.06509690966
0.06512259972
0.06514766439
0.06517149168
0.06519370648
0.06521411765
0.06523265576
0.06524928014
0.06526372605
0.06527450233
0.06500634836
0.06502711269
0.06505376085
0.06508408842
0.06511586604
0.06514727967
0.06517705842
0.06520443477
0.06522903853
0.06525078145
0.0652697567
0.06528615587
0.06530018206
0.06531186029
0.06532029605
0.06504734723
0.06509717919
0.06515076559
0.06520123568
0.06524495929
0.06528079272
0.06530905439
0.06533073935
0.06534703867
0.06535909149
0.06536788106
0.06537420838
0.06537870006
0.06538181356
0.06538374486
0.06520001985
0.06533825898
0.06544987675
0.06552559287
0.0655693226
0.06558903804
0.06559250415
0.06558585753
0.06557347082
0.06555826397
0.06554209472
0.0655261022
0.06551100316
0.06549747632
0.06548722146
0.06602647496
0.06616106675
0.06617889829
0.06613483015
0.06606405336
0.06598605421
0.06591049386
0.06584153662
0.06578049953
0.06572733805
0.06568144737
0.06564214868
0.06560931502
0.06558550216
0.06735252264
0.06716769248
0.06689442635
0.06663558711
0.06641721554
0.06623997339
0.06609756165
0.06598290645
0.06588994524
0.06581391807
0.0657512302
0.06569932014
0.0656569796
0.0656267318
0.06602644787
0.06616104851
0.06617888464
0.06613481938
0.06606404461
0.06598604695
0.06591048772
0.06584153134
0.06578049489
0.06572733391
0.06568144362
0.06564214523
0.0656093118
0.06558549908
0.06533825208
0.06544986918
0.06552558504
0.06556931471
0.06558903032
0.06559249674
0.06558585049
0.06557346413
0.06555825765
0.06554208874
0.0655260965
0.06551099772
0.06549747108
0.06548721636
0.06509717763
0.06515076342
0.06520123267
0.0652449555
0.0652807883
0.0653090495
0.06533073412
0.0653470332
0.06535908588
0.06536787536
0.0653742026
0.06537869425
0.06538180772
0.06538373898
0.06502711243
0.06505376026
0.06508408728
0.06511586426
0.06514727723
0.06517705536
0.06520443114
0.06522903438
0.06525077686
0.06526975173
0.06528615057
0.06530017648
0.06531185448
0.06532029002
0.065013942
0.06504004125
0.06507166597
0.06510590276
0.06514034982
0.06517330552
0.06520371228
0.06523102174
0.06525505192
0.06527586455
0.06529366874
0.06530874634
0.06532137808
0.06533168688
0.06533901514
0.06508127323
0.06514921199
0.06521301295
0.06526662191
0.06530885257
0.0653407231
0.06536399447
0.0653804839
0.06539179412
0.06539923905
0.0654038534
0.06540643385
0.0654075915
0.065407818
0.06540759704
0.06540378504
0.06560052002
0.06570922899
0.06575431907
0.06576057567
0.06574539863
0.06571959305
0.06568947984
0.06565860425
0.06562886424
0.06560120433
0.06557603959
0.0655535587
0.06553414681
0.06551975194
0.06712983891
0.06735250923
0.06716768208
0.06689441887
0.06663558162
0.06641721136
0.06623997017
0.06609755911
0.06598290435
0.06588994348
0.06581391657
0.0657512289
0.065699319
0.0656569786
0.06562673089
0.07300218375
0.0700999911
0.06849893441
0.06756417542
0.06698628295
0.06660871044
0.06634917203
0.06616264193
0.06602344543
0.06591632675
0.06583187468
0.06576421235
0.06571030523
0.06567232225
0.06735252078
0.06716766518
0.06689440253
0.06663556868
0.06641720122
0.06623996198
0.06609755225
0.06598289848
0.06588993836
0.06581391202
0.0657512248
0.06569931525
0.06565697512
0.06562672759
0.06560051945
0.06570922444
0.06575431246
0.06576056821
0.06574539096
0.06571958553
0.0656894726
0.06565859738
0.06562885773
0.06560119815
0.06557603371
0.06555355308
0.06553414141
0.06551974669
0.06514921249
0.06521301234
0.06526661998
0.06530884948
0.06534071911
0.06536398982
0.06538047878
0.06539178868
0.0653992334
0.06540384761
0.06540642798
0.06540758558
0.06540781205
0.06540759105
0.06504004162
0.065071666
0.06510590218
0.06514034849
0.06517330342
0.06520370944
0.06523101822
0.06525504782
0.06527585994
0.06529366371
0.06530874095
0.0653213724
0.06533168094
0.06533900898
0.06500634797
0.06502711188
0.06505375966
0.0650840869
0.06511586425
0.06514727765
0.06517705623
0.06520443245
0.0652290361
0.06525077894
0.06526975414
0.06528615326
0.06530017942
0.06531185763
0.06532029337
0.06504734554
0.06509717631
0.06515076205
0.06520123181
0.06524495527
0.06528078867
0.06530905039
0.06533073545
0.06534703488
0.06535908781
0.0653678775
0.0653742049
0.06537869668
0.06538181026
0.06538374162
0.06520000988
0.06533824845
0.06544986533
0.06552558223
0.06556931299
0.06558902943
0.06559249645
0.06558585062
0.06557346456
0.06555825827
0.0655420895
0.06552609736
0.06551099864
0.06549747206
0.06548721737
0.06571413393
0.06602643637
0.06616103543
0.06617887378
0.06613481082
0.06606403786
0.06598604155
0.06591048331
0.06584152765
0.06578049175
0.0657273312
0.06568144126
0.06564214313
0.0656093099
0.06558549733
0.06712983317
0.06735249885
0.06716765027
0.06689439257
0.06663556187
0.06641719632
0.06623995831
0.06609754943
0.06598289626
0.06588993654
0.06581391048
0.06575122348
0.0656993141
0.0656569741
0.06562672666
0.0657141392
0.06602643232
0.06616102906
0.06617886718
0.06613480455
0.06606403204
0.06598603622
0.06591047845
0.06584152319
0.06578048765
0.0657273274
0.06568143771
0.06564213982
0.06560930678
0.06558549435
0.06533825948
0.06544986925
0.06552558198
0.06556931031
0.06558902541
0.06559249173
0.06558584556
0.06557345938
0.06555825309
0.06554208439
0.06552609234
0.06551099373
0.06549746725
0.06548721264
0.06509717966
0.0651507643
0.06520123254
0.06524495458
0.06528078678
0.06530904756
0.0653307319
0.06534703079
0.06535908333
0.06536787272
0.06537419991
0.06537869152
0.06538180497
0.06538373622
0.06502711298
0.06505376064
0.06508408739
0.06511586405
0.06514727669
0.06517705451
0.06520443
0.065229033
0.06525077526
0.06526974996
0.06528614865
0.06530017445
0.06531185234
0.06532028782
0.06499605136
0.06500869648
0.06502610082
0.06504743989
0.0650714759
0.065096909
0.06512259919
0.06514766401
0.06517149147
0.06519370645
0.06521411779
0.06523265605
0.06524928059
0.06526372665
0.06527450307
0.06501425289
0.06504101487
0.06507380497
0.06510911635
0.06514398585
0.06517644688
0.06520547702
0.06523075295
0.06525238871
0.065270728
0.06528620341
0.06529924752
0.06531022344
0.06531928519
0.06532581318
0.06506911727
0.06513431607
0.06520187445
0.06526235105
0.06531140565
0.06534837364
0.06537456626
0.06539204508
0.0654029215
0.0654090359
0.06541185898
0.06541250507
0.0654117979
0.06541037952
0.06540894598
0.06520000923
0.06533824614
0.06544986168
0.06552557774
0.06556930807
0.06558902442
0.06559249157
0.06558584594
0.06557346012
0.06555825409
0.06554208554
0.0655260936
0.06551099506
0.06549746864
0.06548721406
0.06540378219
0.06560050871
0.06570921395
0.06575430353
0.06576056085
0.06574538496
0.06571958058
0.06568946849
0.06565859388
0.06562885473
0.06560119554
0.0655760314
0.06555355102
0.06553413953
0.06551974494
0.06520000847
0.06533824464
0.06544985969
0.06552557548
0.06556930565
0.06558902191
0.06559248901
0.06558584339
0.06557345758
0.06555825157
0.06554208308
0.0655260912
0.06551099271
0.06549746633
0.06548721179
0.06506912033
0.06513431876
0.06520187597
0.06526235124
0.06531140471
0.0653483718
0.06537456378
0.06539204216
0.06540291827
0.06540903246
0.0654118554
0.0654125014
0.06541179417
0.06541037574
0.06540894218
0.06504101776
0.06507380697
0.06510911742
0.06514398602
0.06517644623
0.06520547562
0.06523075091
0.06525238613
0.06527072498
0.06528620001
0.0652992438
0.06531021945
0.06531928098
0.06532580879
0.06500869766
0.06502610198
0.06504744077
0.06507147633
0.06509690889
0.06512259848
0.06514766271
0.06517148958
0.06519370401
0.06521411484
0.06523265265
0.06524927677
0.06526372246
0.06527449856
0.06498908968
0.06499593726
0.06500597362
0.0650192162
0.06503531871
0.06505370054
0.06507368151
0.06509458712
0.06511581482
0.06513686565
0.0651573489
0.06517696035
0.0651954032
0.06521208908
0.06522489919
0.06499619233
0.06500888326
0.06502612453
0.06504696411
0.06507012652
0.06509436574
0.06511865589
0.06514225028
0.06516466334
0.06518561892
0.06520499066
0.06522274063
0.06523883018
0.06525296928
0.06526361359
0.06501425284
0.06504101466
0.06507380454
0.06510911566
0.0651439849
0.0651764457
0.06520547562
0.06523075138
0.065252387
0.0652707262
0.06528620152
0.06529924556
0.06531022144
0.06531928315
0.06532581111
0.06504734525
0.06509717526
0.06515076011
0.06520122899
0.06524495173
0.06528078456
0.06530904588
0.06533073067
0.06534702993
0.06535908277
0.06536787242
0.06537419982
0.06537869161
0.06538180522
0.06538373658
0.06508127212
0.06514920862
0.06521300767
0.06526661521
0.0653088449
0.06534071485
0.06536398591
0.0653804752
0.06539178541
0.0653992304
0.06540384485
0.06540642543
0.06540758321
0.06540780984
0.06540758896
0.06504734491
0.06509717472
0.06515075938
0.06520122808
0.06524495065
0.06528078332
0.06530904452
0.0653307292
0.06534702837
0.06535908115
0.06536787074
0.0653741981
0.06537868986
0.06538180344
0.06538373479
0.06501425318
0.06504101508
0.06507380479
0.06510911556
0.06514398437
0.06517644476
0.0652054743
0.06523074972
0.06525238504
0.06527072399
0.0652861991
0.06529924296
0.06531021868
0.06531928026
0.06532580812
0.06499619304
0.06500888413
0.06502612533
0.06504696467
0.06507012673
0.06509436555
0.06511865527
0.06514224923
0.06516466187
0.06518561705
0.06520498843
0.06522273806
0.0652388273
0.06525296612
0.0652636102
0.06499593815
0.06500597444
0.06501921687
0.06503531916
0.0650537007
0.0650736813
0.0650945865
0.06511581376
0.06513686416
0.06515734697
0.06517695799
0.06519540042
0.06521208592
0.0652248957
0.06498594254
0.06499009229
0.06499647497
0.06500540041
0.06501694004
0.06503093665
0.06504705495
0.06506484831
0.06508382315
0.06510349002
0.0651233959
0.06514312788
0.06516224751
0.06517997162
0.06519380788
0.06498908969
0.06499593724
0.06500597357
0.06501921609
0.06503531853
0.06505370028
0.06507368114
0.06509458665
0.06511581425
0.06513686499
0.06515734815
0.06517695952
0.06519540228
0.06521208809
0.06522489812
0.06499605135
0.06500869637
0.06502610054
0.06504743938
0.0650714751
0.06509690791
0.06512259779
0.06514766232
0.06517148951
0.06519370425
0.06521411537
0.06523265345
0.06524927783
0.06526372375
0.06527450003
0.06500634782
0.06502711137
0.06505375865
0.06508408527
0.06511586196
0.06514727474
0.06517705275
0.06520442847
0.0652290317
0.06525077419
0.0652697491
0.06528614799
0.06530017398
0.06531185205
0.06532028765
0.06501394159
0.06504004006
0.06507166385
0.06510589965
0.06514034573
0.06517330055
0.06520370656
0.06523101538
0.06525504505
0.06527585727
0.06529366115
0.0653087385
0.06532137006
0.06533167871
0.06533900683
0.06500634768
0.06502711115
0.06505375835
0.06508408487
0.06511586145
0.0651472741
0.06517705198
0.06520442758
0.06522903069
0.06525077307
0.06526974789
0.0652861467
0.06530017261
0.06531185061
0.06532028616
0.06499605133
0.06500869634
0.06502610045
0.06504743916
0.0650714747
0.06509690727
0.0651225969
0.06514766119
0.06517148813
0.06519370263
0.06521411354
0.06523265142
0.06524927561
0.06526372136
0.06527449753
0.06498908982
0.06499593747
0.06500597381
0.06501921627
0.06503531858
0.06505370011
0.06507368072
0.06509458594
0.06511581322
0.06513686363
0.06515734646
0.06517695751
0.06519539996
0.06521208548
0.06522489528
0.06498594276
0.06499009261
0.06499647534
0.06500540077
0.06501694032
0.06503093676
0.06504705484
0.06506484792
0.06508382243
0.06510348894
0.06512339444
0.06514312603
0.06516224527
0.065179969
0.06519380494
)
;

boundaryField
{
    top
    {
        type            zeroGradient;
    }
    bottom
    {
        type            zeroGradient;
    }
    side-walls
    {
        type            zeroGradient;
    }
    inlet
    {
        type            zeroGradient;
    }
    outlet
    {
        type            zeroGradient;
    }
    procBoundary1to0
    {
        type            processor;
        value           nonuniform List<scalar> 
97
(
0.06498594281
0.06498594281
0.06498908989
0.0649960514
0.06500634756
0.06501394105
0.06500634725
0.06499605097
0.06498908949
0.06498594243
0.06498499254
0.06499619323
0.06499619323
0.06499619323
0.06501425349
0.06504734494
0.0650812705
0.06504734365
0.06501425202
0.06499619196
0.06498908949
0.06498818554
0.06499627183
0.06506912159
0.06506912159
0.06506912159
0.06520001073
0.06540377533
0.06520000377
0.06506911494
0.06501425204
0.06499605099
0.06499279333
0.0650103209
0.06507061039
0.06571416425
0.06571416425
0.06571416425
0.06712980591
0.06571412114
0.06520000404
0.06504734378
0.06500634731
0.06499602723
0.06502333023
0.06513614188
0.06557354885
0.07856562396
0.07856562396
0.07856562396
0.06712981208
0.06712981208
0.0654037768
0.06508127083
0.06501394116
0.06499279323
0.06501032052
0.06507060913
0.06524260981
0.06557354842
0.06524260907
0.06520001629
0.06520001629
0.06520001629
0.06504734595
0.06500634782
0.06498818541
0.06499627148
0.06501961106
0.06507060913
0.06513614153
0.06507060878
0.06501961144
0.06501425435
0.06501425435
0.06501425435
0.06499605163
0.06498499242
0.06498823201
0.06499627148
0.06501032053
0.06502333007
0.06501032037
0.06499627153
0.06498823215
0.0649890901
0.0649890901
0.0649890901
0.06498352959
0.06498499243
0.06498818543
0.06499279323
0.06499602716
0.06499279316
0.0649881854
0.06498499246
0.06498352965
)
;
    }
}


// ************************************************************************* //
