/*--------------------------------*- C++ -*----------------------------------*\
| =========                 |                                                 |
| \\      /  F ield         | OpenFOAM: The Open Source CFD Toolbox           |
|  \\    /   O peration     | Version:  4.x                                   |
|   \\  /    A nd           | Web:      www.OpenFOAM.org                      |
|    \\/     M anipulation  |                                                 |
\*---------------------------------------------------------------------------*/
FoamFile
{
    version     2.0;
    format      ascii;
    class       volScalarField;
    location    "1000";
    object      Cpv;
}
// * * * * * * * * * * * * * * * * * * * * * * * * * * * * * * * * * * * * * //

dimensions      [0 2 -2 -1 0 0 0];

internalField   nonuniform List<scalar> 
1174
(
1277.532816
1277.532432
1277.53186
1277.531134
1277.53026
1277.529248
1277.52813
1277.526936
1277.525717
1277.524464
1277.523216
1277.52203
1277.520923
1277.52007
1277.532307
1277.531686
1277.530818
1277.529796
1277.528637
1277.52736
1277.526036
1277.524711
1277.523383
1277.522095
1277.52086
1277.51972
1277.518689
1277.51792
1277.531294
1277.53019
1277.528857
1277.527302
1277.525705
1277.524086
1277.52251
1277.521015
1277.519643
1277.518358
1277.517235
1277.516223
1277.515339
1277.514687
1277.530294
1277.528615
1277.526691
1277.524708
1277.522737
1277.520886
1277.519194
1277.51766
1277.516323
1277.515156
1277.514149
1277.5133
1277.512591
1277.512095
1277.529421
1277.527393
1277.525217
1277.523052
1277.520995
1277.519088
1277.517372
1277.515869
1277.514595
1277.513511
1277.512571
1277.5118
1277.511185
1277.510751
1277.530262
1277.528551
1277.526622
1277.52461
1277.522629
1277.520742
1277.519041
1277.517493
1277.51614
1277.51499
1277.513986
1277.513129
1277.512425
1277.511923
1277.531331
1277.530213
1277.528878
1277.527346
1277.525747
1277.524129
1277.522551
1277.521062
1277.519664
1277.518409
1277.517273
1277.516258
1277.515394
1277.514731
1277.532237
1277.531603
1277.530758
1277.529772
1277.52861
1277.527363
1277.526018
1277.524724
1277.523404
1277.522161
1277.520936
1277.519796
1277.518772
1277.518001
1277.532654
1277.532255
1277.531699
1277.530978
1277.530099
1277.529083
1277.527957
1277.526744
1277.525511
1277.524274
1277.523053
1277.521893
1277.520804
1277.519954
1277.532956
1277.532508
1277.531882
1277.531074
1277.53004
1277.528904
1277.527657
1277.526331
1277.524975
1277.523659
1277.522386
1277.521165
1277.520015
1277.518955
1277.518173
1277.531573
1277.530492
1277.529185
1277.527712
1277.526186
1277.524677
1277.523193
1277.521801
1277.520499
1277.519336
1277.518243
1277.517254
1277.516408
1277.51577
1277.529872
1277.52777
1277.525537
1277.523319
1277.521265
1277.519432
1277.517875
1277.516548
1277.515423
1277.514481
1277.513689
1277.513017
1277.512484
1277.512136
1277.525675
1277.522249
1277.519041
1277.516283
1277.513988
1277.512237
1277.510875
1277.509855
1277.509152
1277.508636
1277.508294
1277.508039
1277.507884
1277.507796
1277.522955
1277.518871
1277.515525
1277.512861
1277.51086
1277.509442
1277.508416
1277.50776
1277.50734
1277.507104
1277.506989
1277.506939
1277.506979
1277.50703
1277.525631
1277.522244
1277.518998
1277.516227
1277.513948
1277.512191
1277.51085
1277.509851
1277.509137
1277.508596
1277.50824
1277.507994
1277.507855
1277.507749
1277.529742
1277.527656
1277.525403
1277.523219
1277.521161
1277.519335
1277.517751
1277.516411
1277.515262
1277.514297
1277.51346
1277.512794
1277.512246
1277.511849
1277.53134
1277.530245
1277.528942
1277.527469
1277.525935
1277.524387
1277.522906
1277.521483
1277.520182
1277.518978
1277.517889
1277.516881
1277.515994
1277.515317
1277.532239
1277.531592
1277.530757
1277.529741
1277.528575
1277.527308
1277.526015
1277.524682
1277.523374
1277.522128
1277.520926
1277.519802
1277.518774
1277.517978
1277.532166
1277.531361
1277.530269
1277.528906
1277.527405
1277.525792
1277.524195
1277.522632
1277.521171
1277.519816
1277.518524
1277.517401
1277.516401
1277.515521
1277.514863
1277.53122
1277.529509
1277.527431
1277.525207
1277.522986
1277.520935
1277.519069
1277.517472
1277.516131
1277.514995
1277.514041
1277.513232
1277.512584
1277.512021
1277.511634
1277.523699
1277.519412
1277.515567
1277.512441
1277.510108
1277.508496
1277.507402
1277.506734
1277.50639
1277.506257
1277.506264
1277.506367
1277.506504
1277.506632
1277.510509
1277.503417
1277.498602
1277.495901
1277.494715
1277.494545
1277.495011
1277.495842
1277.496881
1277.497977
1277.49907
1277.500076
1277.500952
1277.501658
1277.493598
1277.486726
1277.483904
1277.483555
1277.484596
1277.486323
1277.488284
1277.490324
1277.492273
1277.49409
1277.495752
1277.497197
1277.498487
1277.499435
1277.510359
1277.503254
1277.498425
1277.495675
1277.494482
1277.494331
1277.494812
1277.495638
1277.496669
1277.497748
1277.498812
1277.499815
1277.500708
1277.501369
1277.523134
1277.518816
1277.51497
1277.511881
1277.509569
1277.507935
1277.506855
1277.506189
1277.505856
1277.505719
1277.505714
1277.505794
1277.505964
1277.506103
1277.52961
1277.52753
1277.525278
1277.523065
1277.521017
1277.519198
1277.517599
1277.516284
1277.51518
1277.514244
1277.513459
1277.512812
1277.51228
1277.511878
1277.531188
1277.53008
1277.528735
1277.527187
1277.525592
1277.523983
1277.522403
1277.5209
1277.519512
1277.518247
1277.517122
1277.516112
1277.515208
1277.514536
1277.531541
1277.530233
1277.52852
1277.526607
1277.524594
1277.522607
1277.520734
1277.519003
1277.517477
1277.516121
1277.514936
1277.513926
1277.513078
1277.512396
1277.511874
1277.5292
1277.526008
1277.522606
1277.519413
1277.516676
1277.514435
1277.512681
1277.511312
1277.510323
1277.509586
1277.509057
1277.508702
1277.508466
1277.508309
1277.508209
1277.519188
1277.510343
1277.503266
1277.498458
1277.495726
1277.494546
1277.494394
1277.494863
1277.495708
1277.496749
1277.497822
1277.498907
1277.499924
1277.500819
1277.50151
1277.466491
1277.457952
1277.456898
1277.459831
1277.464419
1277.469472
1277.474372
1277.47884
1277.482779
1277.486219
1277.489204
1277.491746
1277.493883
1277.495436
1277.375233
1277.387193
1277.404801
1277.421452
1277.435512
1277.446943
1277.456048
1277.463406
1277.469396
1277.474285
1277.478306
1277.481651
1277.484401
1277.48635
1277.466134
1277.457565
1277.456514
1277.459417
1277.464039
1277.469109
1277.47401
1277.47845
1277.48239
1277.48583
1277.488843
1277.491406
1277.493572
1277.495127
1277.510409
1277.503296
1277.49849
1277.49574
1277.49454
1277.494369
1277.49485
1277.4957
1277.496712
1277.497785
1277.49884
1277.499804
1277.500721
1277.501389
1277.525731
1277.522303
1277.519106
1277.516325
1277.514056
1277.512283
1277.510931
1277.509939
1277.50922
1277.508708
1277.508348
1277.508132
1277.508007
1277.507911
1277.530242
1277.528549
1277.526627
1277.524619
1277.522633
1277.520751
1277.519016
1277.517478
1277.516133
1277.514941
1277.513939
1277.513114
1277.512383
1277.511862
1277.531245
1277.529595
1277.527592
1277.525411
1277.523226
1277.52116
1277.519226
1277.51752
1277.516027
1277.514726
1277.513617
1277.512689
1277.511919
1277.511289
1277.510856
1277.527041
1277.522678
1277.518611
1277.515188
1277.512543
1277.510538
1277.509081
1277.50808
1277.50742
1277.506974
1277.506713
1277.506586
1277.506517
1277.506541
1277.506613
1277.506146
1277.493578
1277.486685
1277.483874
1277.48354
1277.484557
1277.486255
1277.488232
1277.490272
1277.492232
1277.494061
1277.495723
1277.497186
1277.498443
1277.499389
1277.389463
1277.375283
1277.387257
1277.404882
1277.42157
1277.435642
1277.447032
1277.456197
1277.463568
1277.469545
1277.474421
1277.478436
1277.481774
1277.484493
1277.486427
1274.288856
1274.475893
1274.577184
1274.634542
1274.668237
1274.68865
1274.701259
1274.708993
1274.713591
1274.716016
1274.716943
1274.716762
1274.715623
1274.713366
1277.375453
1277.387413
1277.405013
1277.421665
1277.435718
1277.447126
1277.456298
1277.463661
1277.469638
1277.474508
1277.478568
1277.481925
1277.484642
1277.486556
1277.49343
1277.486516
1277.483679
1277.483341
1277.484351
1277.486095
1277.488067
1277.49011
1277.492071
1277.493868
1277.495512
1277.496972
1277.498236
1277.499164
1277.522419
1277.518334
1277.514938
1277.512269
1277.510271
1277.508841
1277.507817
1277.507163
1277.506714
1277.506452
1277.506314
1277.506277
1277.506294
1277.506318
1277.52916
1277.527146
1277.524978
1277.522818
1277.520746
1277.518854
1277.517121
1277.515625
1277.514338
1277.513221
1277.512307
1277.511544
1277.510912
1277.510489
1277.531721
1277.530414
1277.52869
1277.52677
1277.524743
1277.522772
1277.520895
1277.519187
1277.51766
1277.516315
1277.515114
1277.514106
1277.513251
1277.512549
1277.512034
1277.528811
1277.525636
1277.522217
1277.51898
1277.516206
1277.513954
1277.512174
1277.510829
1277.509825
1277.509135
1277.508649
1277.508301
1277.508052
1277.507878
1277.507806
1277.519406
1277.510561
1277.50345
1277.498676
1277.495922
1277.494712
1277.494529
1277.495014
1277.495829
1277.496851
1277.497919
1277.498972
1277.499985
1277.500863
1277.501518
1277.486058
1277.4661
1277.45751
1277.456431
1277.459346
1277.463942
1277.469007
1277.473922
1277.478396
1277.482327
1277.485786
1277.488811
1277.491344
1277.493483
1277.49507
1277.38938
1277.375199
1277.387173
1277.404804
1277.421457
1277.435529
1277.446944
1277.456085
1277.463442
1277.469423
1277.474324
1277.478363
1277.481695
1277.484426
1277.486338
1277.486485
1277.466533
1277.457982
1277.456931
1277.459852
1277.464454
1277.469515
1277.474417
1277.478856
1277.482817
1277.486273
1277.489243
1277.491788
1277.493912
1277.495459
1277.510391
1277.503262
1277.498451
1277.495732
1277.494526
1277.494359
1277.494848
1277.495691
1277.496731
1277.497771
1277.498833
1277.499847
1277.50075
1277.501439
1277.525826
1277.52244
1277.519236
1277.516467
1277.514207
1277.512414
1277.511081
1277.510094
1277.50936
1277.50886
1277.508513
1277.508257
1277.50808
1277.507982
1277.529969
1277.528252
1277.526331
1277.524326
1277.522373
1277.5205
1277.518765
1277.517224
1277.515882
1277.51469
1277.513682
1277.512842
1277.512132
1277.511608
1277.53198
1277.531156
1277.530063
1277.528718
1277.527202
1277.525628
1277.523986
1277.522398
1277.520895
1277.519513
1277.518249
1277.517132
1277.516131
1277.515248
1277.514591
1277.531196
1277.529453
1277.527358
1277.525129
1277.522906
1277.520868
1277.519026
1277.51745
1277.516086
1277.514983
1277.514007
1277.513194
1277.512525
1277.51201
1277.51163
1277.527426
1277.523274
1277.518969
1277.515104
1277.512015
1277.509726
1277.508095
1277.507031
1277.506369
1277.506028
1277.505903
1277.505913
1277.506014
1277.506151
1277.50629
1277.51945
1277.510639
1277.503524
1277.498731
1277.495967
1277.49475
1277.494558
1277.495029
1277.495869
1277.496877
1277.49797
1277.499052
1277.500059
1277.500932
1277.501605
1277.506124
1277.493539
1277.486598
1277.483792
1277.483446
1277.484482
1277.486191
1277.488189
1277.490216
1277.492138
1277.493936
1277.495572
1277.497071
1277.498356
1277.499322
1277.518999
1277.510162
1277.503063
1277.498285
1277.495523
1277.494338
1277.494171
1277.494655
1277.495485
1277.496504
1277.497572
1277.498652
1277.499662
1277.500593
1277.501273
1277.527375
1277.523229
1277.518953
1277.515073
1277.51196
1277.509623
1277.507981
1277.506911
1277.506241
1277.505883
1277.505761
1277.50572
1277.505811
1277.505953
1277.506055
1277.529313
1277.527227
1277.524995
1277.522795
1277.520731
1277.518898
1277.517339
1277.515998
1277.514833
1277.513868
1277.513085
1277.51244
1277.511927
1277.511546
1277.531309
1277.530214
1277.528865
1277.527344
1277.525741
1277.524133
1277.522556
1277.521094
1277.519702
1277.518434
1277.51729
1277.516276
1277.5154
1277.514743
1277.532663
1277.532226
1277.531621
1277.530791
1277.52974
1277.528575
1277.527317
1277.525988
1277.524664
1277.523356
1277.522087
1277.52087
1277.519728
1277.518694
1277.517893
1277.531986
1277.531211
1277.530128
1277.528779
1277.52733
1277.525821
1277.52426
1277.522771
1277.521372
1277.520083
1277.518876
1277.517744
1277.516763
1277.515909
1277.515264
1277.531178
1277.529469
1277.527377
1277.525123
1277.522953
1277.520885
1277.519049
1277.517442
1277.516118
1277.514986
1277.51405
1277.513286
1277.512622
1277.51211
1277.511749
1277.529285
1277.526102
1277.522722
1277.5195
1277.51674
1277.514535
1277.512734
1277.511379
1277.510367
1277.509645
1277.509153
1277.508807
1277.50855
1277.508394
1277.508317
1277.527047
1277.522697
1277.518625
1277.515191
1277.512549
1277.510557
1277.509116
1277.50811
1277.507441
1277.507003
1277.506751
1277.506637
1277.506593
1277.506633
1277.506658
1277.528866
1277.525671
1277.522259
1277.519047
1277.516257
1277.513983
1277.512214
1277.510883
1277.50988
1277.509145
1277.508623
1277.508248
1277.508002
1277.507816
1277.507712
1277.530867
1277.529149
1277.527074
1277.524827
1277.522601
1277.520573
1277.518745
1277.517156
1277.51581
1277.514661
1277.513733
1277.512906
1277.512286
1277.511733
1277.51134
1277.532402
1277.531593
1277.530493
1277.529167
1277.527712
1277.526163
1277.524657
1277.523163
1277.521765
1277.520465
1277.51925
1277.518178
1277.517217
1277.516357
1277.515674
1277.532371
1277.531722
1277.530901
1277.529884
1277.528724
1277.52745
1277.526148
1277.524819
1277.523497
1277.522242
1277.52102
1277.519869
1277.518849
1277.518063
1277.532905
1277.532644
1277.532235
1277.531701
1277.53097
1277.530078
1277.529065
1277.527945
1277.526767
1277.525532
1277.52431
1277.523066
1277.521897
1277.520806
1277.519959
1277.532741
1277.53231
1277.531661
1277.53082
1277.529793
1277.528625
1277.527379
1277.526076
1277.524747
1277.523446
1277.52217
1277.520954
1277.519811
1277.518773
1277.517988
1277.532555
1277.531753
1277.530647
1277.529303
1277.527769
1277.526175
1277.524596
1277.523006
1277.521504
1277.520115
1277.518832
1277.517671
1277.516639
1277.51575
1277.515088
1277.531622
1277.530331
1277.528647
1277.526727
1277.524712
1277.522727
1277.520826
1277.519128
1277.517589
1277.516213
1277.515047
1277.514052
1277.513198
1277.512491
1277.51195
1277.531178
1277.529512
1277.52751
1277.52537
1277.523193
1277.521112
1277.519205
1277.517504
1277.515998
1277.514726
1277.513641
1277.512719
1277.511932
1277.511341
1277.5109
1277.531539
1277.53022
1277.528507
1277.526582
1277.524577
1277.522591
1277.520713
1277.518984
1277.517463
1277.516109
1277.514969
1277.513967
1277.513107
1277.512396
1277.511871
1277.531765
1277.530952
1277.529863
1277.528516
1277.527015
1277.525402
1277.523774
1277.522208
1277.520705
1277.519324
1277.518071
1277.516906
1277.515879
1277.514977
1277.51432
1277.53266
1277.532199
1277.531569
1277.530713
1277.529691
1277.528536
1277.527248
1277.52596
1277.524643
1277.523341
1277.522033
1277.520826
1277.519699
1277.518644
1277.51783
1277.532917
1277.53265
1277.532263
1277.531719
1277.53098
1277.530095
1277.529075
1277.527958
1277.526777
1277.525541
1277.524282
1277.523044
1277.521854
1277.520768
1277.519906
)
;

boundaryField
{
    top
    {
        type            calculated;
        value           nonuniform List<scalar> 
127
(
1277.532917
1277.532654
1277.532239
1277.531188
1277.530242
1277.52916
1277.529969
1277.531309
1277.532371
1277.53265
1277.532255
1277.531592
1277.53008
1277.528549
1277.527146
1277.528252
1277.530214
1277.531722
1277.532263
1277.531699
1277.530757
1277.528735
1277.526627
1277.524978
1277.526331
1277.528865
1277.530901
1277.531719
1277.530978
1277.529741
1277.527187
1277.524619
1277.522818
1277.524326
1277.527344
1277.529884
1277.53098
1277.530099
1277.528575
1277.525592
1277.522633
1277.520746
1277.522373
1277.525741
1277.528724
1277.530095
1277.529083
1277.527308
1277.523983
1277.520751
1277.518854
1277.5205
1277.524133
1277.52745
1277.529075
1277.527957
1277.526015
1277.522403
1277.519016
1277.517121
1277.518765
1277.522556
1277.526148
1277.527958
1277.526744
1277.524682
1277.5209
1277.517478
1277.515625
1277.517224
1277.521094
1277.524819
1277.526777
1277.525511
1277.523374
1277.519512
1277.516133
1277.514338
1277.515882
1277.519702
1277.523497
1277.525541
1277.524274
1277.522128
1277.518247
1277.514941
1277.513221
1277.51469
1277.518434
1277.522242
1277.524282
1277.523053
1277.520926
1277.517122
1277.513939
1277.512307
1277.513682
1277.51729
1277.52102
1277.523044
1277.521893
1277.519802
1277.516112
1277.513114
1277.511544
1277.512842
1277.516276
1277.519869
1277.521854
1277.520804
1277.518774
1277.515208
1277.512383
1277.510912
1277.512132
1277.5154
1277.518849
1277.520768
1277.519954
1277.517978
1277.514536
1277.511862
1277.510489
1277.511608
1277.514743
1277.518063
1277.519906
)
;
    }
    bottom
    {
        type            calculated;
        value           nonuniform List<scalar> 
134
(
1277.532956
1277.532166
1277.531541
1277.531245
1277.531721
1277.53198
1277.532663
1277.532905
1277.532816
1277.532508
1277.531361
1277.530233
1277.529595
1277.530414
1277.531156
1277.532226
1277.532644
1277.532432
1277.531882
1277.530269
1277.52852
1277.527592
1277.52869
1277.530063
1277.531621
1277.532235
1277.53186
1277.531074
1277.528906
1277.526607
1277.525411
1277.52677
1277.528718
1277.530791
1277.531701
1277.531134
1277.53004
1277.527405
1277.524594
1277.523226
1277.524743
1277.527202
1277.52974
1277.53097
1277.53026
1277.528904
1277.525792
1277.522607
1277.52116
1277.522772
1277.525628
1277.528575
1277.530078
1277.529248
1277.527657
1277.524195
1277.520734
1277.519226
1277.520895
1277.523986
1277.527317
1277.529065
1277.52813
1277.526331
1277.522632
1277.519003
1277.51752
1277.519187
1277.522398
1277.525988
1277.527945
1277.526936
1277.524975
1277.521171
1277.517477
1277.516027
1277.51766
1277.520895
1277.524664
1277.526767
1277.525717
1277.523659
1277.519816
1277.516121
1277.514726
1277.516315
1277.519513
1277.523356
1277.525532
1277.524464
1277.522386
1277.518524
1277.514936
1277.513617
1277.515114
1277.518249
1277.522087
1277.52431
1277.523216
1277.521165
1277.517401
1277.513926
1277.512689
1277.514106
1277.517132
1277.52087
1277.523066
1277.52203
1277.520015
1277.516401
1277.513078
1277.511919
1277.513251
1277.516131
1277.519728
1277.521897
1277.520923
1277.518955
1277.515521
1277.512396
1277.511289
1277.512549
1277.515248
1277.518694
1277.520806
1277.52007
1277.518173
1277.514863
1277.511874
1277.510856
1277.512034
1277.514591
1277.517893
1277.519959
)
;
    }
    side-walls
    {
        type            calculated;
        value           nonuniform List<scalar> 
261
(
1277.532816
1277.532307
1277.531294
1277.530294
1277.529421
1277.530262
1277.531331
1277.532237
1277.532654
1277.532432
1277.531686
1277.53019
1277.528615
1277.527393
1277.528551
1277.530213
1277.531603
1277.532255
1277.53186
1277.530818
1277.528857
1277.526691
1277.525217
1277.526622
1277.528878
1277.530758
1277.531699
1277.531134
1277.529796
1277.527302
1277.524708
1277.523052
1277.52461
1277.527346
1277.529772
1277.530978
1277.53026
1277.528637
1277.525705
1277.522737
1277.520995
1277.522629
1277.525747
1277.52861
1277.530099
1277.529248
1277.52736
1277.524086
1277.520886
1277.519088
1277.520742
1277.524129
1277.527363
1277.529083
1277.52813
1277.526036
1277.52251
1277.519194
1277.517372
1277.519041
1277.522551
1277.526018
1277.527957
1277.526936
1277.524711
1277.521015
1277.51766
1277.515869
1277.517493
1277.521062
1277.524724
1277.526744
1277.525717
1277.523383
1277.519643
1277.516323
1277.514595
1277.51614
1277.519664
1277.523404
1277.525511
1277.524464
1277.522095
1277.518358
1277.515156
1277.513511
1277.51499
1277.518409
1277.522161
1277.524274
1277.523216
1277.52086
1277.517235
1277.514149
1277.512571
1277.513986
1277.517273
1277.520936
1277.523053
1277.52203
1277.51972
1277.516223
1277.5133
1277.5118
1277.513129
1277.516258
1277.519796
1277.521893
1277.520923
1277.518689
1277.515339
1277.512591
1277.511185
1277.512425
1277.515394
1277.518772
1277.520804
1277.52007
1277.51792
1277.514687
1277.512095
1277.510751
1277.511923
1277.514731
1277.518001
1277.519954
1277.532905
1277.532741
1277.532555
1277.531622
1277.531178
1277.531539
1277.531765
1277.53266
1277.532917
1277.532644
1277.53231
1277.531753
1277.530331
1277.529512
1277.53022
1277.530952
1277.532199
1277.53265
1277.532235
1277.531661
1277.530647
1277.528647
1277.52751
1277.528507
1277.529863
1277.531569
1277.532263
1277.531701
1277.53082
1277.529303
1277.526727
1277.52537
1277.526582
1277.528516
1277.530713
1277.531719
1277.53097
1277.529793
1277.527769
1277.524712
1277.523193
1277.524577
1277.527015
1277.529691
1277.53098
1277.530078
1277.528625
1277.526175
1277.522727
1277.521112
1277.522591
1277.525402
1277.528536
1277.530095
1277.529065
1277.527379
1277.524596
1277.520826
1277.519205
1277.520713
1277.523774
1277.527248
1277.529075
1277.527945
1277.526076
1277.523006
1277.519128
1277.517504
1277.518984
1277.522208
1277.52596
1277.527958
1277.526767
1277.524747
1277.521504
1277.517589
1277.515998
1277.517463
1277.520705
1277.524643
1277.526777
1277.525532
1277.523446
1277.520115
1277.516213
1277.514726
1277.516109
1277.519324
1277.523341
1277.525541
1277.52431
1277.52217
1277.518832
1277.515047
1277.513641
1277.514969
1277.518071
1277.522033
1277.524282
1277.523066
1277.520954
1277.517671
1277.514052
1277.512719
1277.513967
1277.516906
1277.520826
1277.523044
1277.521897
1277.519811
1277.516639
1277.513198
1277.511932
1277.513107
1277.515879
1277.519699
1277.521854
1277.520806
1277.518773
1277.51575
1277.512491
1277.511341
1277.512396
1277.514977
1277.518644
1277.520768
1277.519959
1277.517988
1277.515088
1277.51195
1277.5109
1277.511871
1277.51432
1277.51783
1277.519906
)
;
    }
    inlet
    {
        type            calculated;
        value           nonuniform 0();
    }
    outlet
    {
        type            calculated;
        value           nonuniform List<scalar> 
81
(
1277.52007
1277.51792
1277.514687
1277.512095
1277.510751
1277.511923
1277.514731
1277.518001
1277.519954
1277.518173
1277.51577
1277.512136
1277.507796
1277.50703
1277.507749
1277.511849
1277.515317
1277.517978
1277.514863
1277.511634
1277.506632
1277.501658
1277.499435
1277.501369
1277.506103
1277.511878
1277.514536
1277.511874
1277.508209
1277.50151
1277.495436
1277.48635
1277.495127
1277.501389
1277.507911
1277.511862
1277.510856
1277.506613
1277.499389
1277.486427
1274.713366
1277.486556
1277.499164
1277.506318
1277.510489
1277.512034
1277.507806
1277.501518
1277.49507
1277.486338
1277.495459
1277.501439
1277.507982
1277.511608
1277.514591
1277.51163
1277.50629
1277.501605
1277.499322
1277.501273
1277.506055
1277.511546
1277.514743
1277.517893
1277.515264
1277.511749
1277.508317
1277.506658
1277.507712
1277.51134
1277.515674
1277.518063
1277.519959
1277.517988
1277.515088
1277.51195
1277.5109
1277.511871
1277.51432
1277.51783
1277.519906
)
;
    }
    procBoundary1to0
    {
        type            processor;
        value           nonuniform List<scalar> 
97
(
1277.533088
1277.533088
1277.532724
1277.532137
1277.531578
1277.531096
1277.531591
1277.532119
1277.53263
1277.532902
1277.533223
1277.532394
1277.532394
1277.532394
1277.531592
1277.528849
1277.527309
1277.528782
1277.531432
1277.532156
1277.532667
1277.532635
1277.532355
1277.527825
1277.527825
1277.527825
1277.519332
1277.506132
1277.51917
1277.527333
1277.531344
1277.531984
1277.532388
1277.531597
1277.527477
1277.486464
1277.486464
1277.486464
1277.389299
1277.486056
1277.519215
1277.52892
1277.531564
1277.532383
1277.530758
1277.523272
1277.495202
1273.923259
1273.923259
1273.923259
1277.389555
1277.389555
1277.505966
1277.526746
1277.530808
1277.532563
1277.531179
1277.527704
1277.516292
1277.495106
1277.516679
1277.519237
1277.519237
1277.519237
1277.529023
1277.531279
1277.532533
1277.532318
1277.53061
1277.527721
1277.52328
1277.527261
1277.530545
1277.531034
1277.531034
1277.531034
1277.532129
1277.532904
1277.532492
1277.532336
1277.531627
1277.530773
1277.531221
1277.532002
1277.53288
1277.5328
1277.5328
1277.5328
1277.533026
1277.532991
1277.533061
1277.532497
1277.532318
1277.532371
1277.532242
1277.532923
1277.533065
)
;
    }
}


// ************************************************************************* //
