/*--------------------------------*- C++ -*----------------------------------*\
| =========                 |                                                 |
| \\      /  F ield         | OpenFOAM: The Open Source CFD Toolbox           |
|  \\    /   O peration     | Version:  4.x                                   |
|   \\  /    A nd           | Web:      www.OpenFOAM.org                      |
|    \\/     M anipulation  |                                                 |
\*---------------------------------------------------------------------------*/
FoamFile
{
    version     2.0;
    format      ascii;
    class       volScalarField;
    location    "1000";
    object      H2O;
}
// * * * * * * * * * * * * * * * * * * * * * * * * * * * * * * * * * * * * * //

dimensions      [0 0 0 0 0 0 0];

internalField   nonuniform List<scalar> 
1174
(
1.268169304e-05
1.463542011e-05
1.736606711e-05
2.089427858e-05
2.517058415e-05
3.0091047e-05
3.551784985e-05
4.129905924e-05
4.728435323e-05
5.333489065e-05
5.932453257e-05
6.512011566e-05
7.04853573e-05
7.466925757e-05
1.447569284e-05
1.755010853e-05
2.160414553e-05
2.653004551e-05
3.214834749e-05
3.82494206e-05
4.462580084e-05
5.109247073e-05
5.74965326e-05
6.371858606e-05
6.966610279e-05
7.52495507e-05
8.029255357e-05
8.415891073e-05
1.83935182e-05
2.372862289e-05
3.026511614e-05
3.762124493e-05
4.539689242e-05
5.324173011e-05
6.08850848e-05
6.813969133e-05
7.489126353e-05
8.108213048e-05
8.669217628e-05
9.171071866e-05
9.606081839e-05
9.929924909e-05
2.405124589e-05
3.222357775e-05
4.151636503e-05
5.124335825e-05
6.084704901e-05
6.993768894e-05
7.828066052e-05
8.576363109e-05
9.236092811e-05
9.810256034e-05
0.0001030487383
0.0001072637448
0.0001107596384
0.0001132765113
2.802592047e-05
3.772623164e-05
4.821747994e-05
5.876078131e-05
6.883371418e-05
7.811252661e-05
8.643026823e-05
9.373269399e-05
0.0001000403778
0.0001054189876
0.0001099565367
0.000113741119
0.0001168148337
0.0001189905134
2.405100937e-05
3.222323155e-05
4.15158872e-05
5.124271694e-05
6.084621625e-05
6.993664338e-05
7.827939583e-05
8.576214897e-05
9.235923653e-05
9.810065567e-05
0.0001030466467
0.0001072614846
0.0001107572318
0.0001132739287
1.839317397e-05
2.372817042e-05
3.026451381e-05
3.762043764e-05
4.539582761e-05
5.324033991e-05
6.088333557e-05
6.813756384e-05
7.488874913e-05
8.107923691e-05
8.668890733e-05
9.170708973e-05
9.605685969e-05
9.929499242e-05
1.447537622e-05
1.754973765e-05
2.160368007e-05
2.65294167e-05
3.214748098e-05
3.824823854e-05
4.462423134e-05
5.109046046e-05
5.749404926e-05
6.371560295e-05
6.966260099e-05
7.524554352e-05
8.028804529e-05
8.415395635e-05
1.268145933e-05
1.46351845e-05
1.73657797e-05
2.089387231e-05
2.516998051e-05
3.009016354e-05
3.551659578e-05
4.129735895e-05
4.72821399e-05
5.333210022e-05
5.932112698e-05
6.511607735e-05
7.048068148e-05
7.466391562e-05
1.237683599e-05
1.447546044e-05
1.754988812e-05
2.160392897e-05
2.65298275e-05
3.214813042e-05
3.824920389e-05
4.46255828e-05
5.109225487e-05
5.74963262e-05
6.37183828e-05
6.966588851e-05
7.524934245e-05
8.029236105e-05
8.415873092e-05
1.845227361e-05
2.373773669e-05
3.012155869e-05
3.72104348e-05
4.462083187e-05
5.203747542e-05
5.923136549e-05
6.605399091e-05
7.242134776e-05
7.829554047e-05
8.366600649e-05
8.852255982e-05
9.278041059e-05
9.597965718e-05
2.832654967e-05
3.83856485e-05
4.920810186e-05
5.988255794e-05
6.980524413e-05
7.86633603e-05
8.635916629e-05
9.292934255e-05
9.848097725e-05
0.0001031482374
0.0001070652023
0.000110345091
0.0001130392946
0.0001149717508
4.55953773e-05
6.204086651e-05
7.751117541e-05
9.089185838e-05
0.0001018343872
0.0001104398807
0.0001170170763
0.0001219343382
0.0001255434968
0.0001281479847
0.0001299949427
0.0001312782994
0.0001321423837
0.0001326612559
6.160556481e-05
8.118687661e-05
9.761361841e-05
0.0001105253599
0.0001202399877
0.0001273029544
0.0001322760697
0.0001356542368
0.0001378428707
0.0001391610073
0.0001398543244
0.0001401117628
0.0001400879663
0.000139945146
4.559444347e-05
6.203974211e-05
7.750985286e-05
9.089027561e-05
0.0001018325317
0.0001104377573
0.0001170146929
0.0001219317448
0.000125540749
0.0001281450776
0.0001299919126
0.0001312751688
0.0001321391436
0.0001326578975
2.832546312e-05
3.838447983e-05
4.920673161e-05
5.988085471e-05
6.980312655e-05
7.866076061e-05
8.635609468e-05
9.292582449e-05
9.847703986e-05
0.0001031439142
0.000107060559
0.0001103401423
0.0001130340753
0.0001149662706
1.845158866e-05
2.37370917e-05
3.012077409e-05
3.720935923e-05
4.461934559e-05
5.203549042e-05
5.922882759e-05
6.605086839e-05
7.241763764e-05
7.829126043e-05
8.366117276e-05
8.851719607e-05
9.277456876e-05
9.597337643e-05
1.447540102e-05
1.754973554e-05
2.160362422e-05
2.652926959e-05
3.214720992e-05
3.824781499e-05
4.462363208e-05
5.108967547e-05
5.749306775e-05
6.371441313e-05
6.966121899e-05
7.524395646e-05
8.028626533e-05
8.415191494e-05
1.451458611e-05
1.839294231e-05
2.372800893e-05
3.026447638e-05
3.762058193e-05
4.539622035e-05
5.324105587e-05
6.088440496e-05
6.813901169e-05
7.48905995e-05
8.108148285e-05
8.669153803e-05
9.171008677e-05
9.606020466e-05
9.929864874e-05
2.01101708e-05
2.832576961e-05
3.838496846e-05
4.920747226e-05
5.988195437e-05
6.980466673e-05
7.866280355e-05
8.635863434e-05
9.292883473e-05
9.848048209e-05
0.0001031477524
0.0001070647495
0.0001103446532
0.0001130388842
0.0001149713556
5.70187912e-05
7.775499649e-05
9.629418166e-05
0.000111304704
0.0001225867911
0.000130547899
0.0001358253438
0.0001390706969
0.0001408513523
0.000141620381
0.0001417209566
0.0001414072439
0.0001408799253
0.0001403661044
0.0001197683131
0.0001540333037
0.0001772255536
0.0001905619774
0.0001965049842
0.0001974497692
0.000195287529
0.0001913647751
0.0001865799286
0.0001815040531
0.0001764869206
0.0001717489573
0.000167501196
0.0001642778704
0.0002005149787
0.0002338547405
0.0002475902841
0.0002493693694
0.0002445571343
0.0002364831136
0.0002270935287
0.0002174786755
0.0002082213806
0.0001996107821
0.0001917734101
0.0001847667298
0.0001787110226
0.0001742162312
0.0001197641427
0.0001540293106
0.0001772214835
0.0001905576915
0.0001965004453
0.0001974450193
0.0001952826665
0.0001913598763
0.0001865750668
0.000181499222
0.000176482173
0.0001717442988
0.0001674965692
0.0001642732598
5.701549638e-05
7.775214274e-05
9.62910111e-05
0.000111300886
0.0001225822246
0.0001305426514
0.000135819511
0.0001390644055
0.0001408447218
0.0001416134824
0.0001417138854
0.0001414000402
0.0001408726112
0.0001403586659
2.832550746e-05
3.838432878e-05
4.920628373e-05
5.988004133e-05
6.98019127e-05
7.865917585e-05
8.635418422e-05
9.292360521e-05
9.84745662e-05
0.0001031412127
0.0001070576458
0.0001103370693
0.0001130308681
0.0001149629577
1.839322986e-05
2.3728094e-05
3.026419496e-05
3.761976642e-05
4.539470844e-05
5.32387365e-05
6.088121962e-05
6.813492815e-05
7.488560987e-05
8.107561736e-05
8.668485426e-05
9.170263077e-05
9.605201846e-05
9.928972801e-05
1.76783857e-05
2.405029163e-05
3.222250493e-05
4.151520946e-05
5.124214743e-05
6.084580779e-05
6.993642823e-05
7.827939968e-05
8.576238064e-05
9.235970062e-05
9.810135339e-05
0.0001030475755
0.0001072626105
0.000110758533
0.0001132754238
3.028703335e-05
4.559367146e-05
6.203919266e-05
7.750958233e-05
9.089033033e-05
0.0001018329254
0.0001104384753
0.0001170157408
0.0001219330755
0.0001255423034
0.0001281468499
0.0001299938622
0.0001312772868
0.0001321414053
0.0001326603047
7.727263291e-05
0.0001197650399
0.0001540308059
0.000177223553
0.0001905603099
0.0001965035531
0.0001974484926
0.0001952863826
0.0001913637759
0.0001865790344
0.000181503222
0.000176486182
0.0001717482899
0.0001675005581
0.0001642772697
0.000331647949
0.0003728957646
0.0003781849694
0.0003644297229
0.0003424739414
0.0003183174826
0.0002949318344
0.0002735950118
0.0002547086582
0.0002382558122
0.0002240477925
0.0002118742294
0.0002016968301
0.000194310885
0.0007401287045
0.0006828621071
0.0005984184515
0.000518482071
0.0004510601799
0.0003963423591
0.0003523771668
0.0003169777417
0.0002882711035
0.0002647873304
0.0002454165719
0.0002293684915
0.0002162716281
0.0002069101561
0.0003316329774
0.0003728850054
0.0003781750359
0.0003644200426
0.0003424644411
0.0003183083676
0.0002949231759
0.0002735868749
0.0002547010201
0.0002382486063
0.0002240410048
0.0002118677907
0.0002016906698
0.0001943048981
0.000119764443
0.0001540279009
0.0001772183978
0.0001905533067
0.0001964951906
0.0001974392464
0.0001952766267
0.000191353733
0.0001865689568
0.0001814932064
0.0001764762725
0.0001717385454
0.0001674909374
0.0001642676996
4.5594629e-05
6.203903404e-05
7.750796087e-05
9.088716492e-05
0.0001018282881
0.0001104325423
0.0001170087033
0.0001219251372
0.0001255336466
0.0001281376256
0.0001299841965
0.0001312672551
0.0001321310661
0.0001326496794
2.405114637e-05
3.222297148e-05
4.151496219e-05
5.124092455e-05
6.08434338e-05
6.993284248e-05
7.827459948e-05
8.575642018e-05
9.235265091e-05
9.80933199e-05
0.0001030386507
0.0001072528966
0.0001107481097
0.0001132642355
2.001338805e-05
2.802478001e-05
3.772487313e-05
4.821595892e-05
5.87591423e-05
6.883199288e-05
7.81107619e-05
8.642848079e-05
9.373091473e-05
0.0001000386198
0.0001054172711
0.0001099548614
0.0001137394908
0.0001168132709
0.0001189889793
4.07281973e-05
6.160327777e-05
8.118440051e-05
9.761109699e-05
0.0001105228568
0.0001202375591
0.0001273006537
0.0001322738715
0.0001356521495
0.0001378409163
0.0001391591686
0.0001398525686
0.0001401101137
0.0001400863959
0.0001399436503
0.0001400251417
0.0002005098361
0.0002338497211
0.0002475857702
0.0002493654318
0.0002445537353
0.0002364801841
0.0002270909654
0.0002174764293
0.0002082193814
0.000199608993
0.0001917717839
0.0001847652427
0.0001787096478
0.0001742149677
0.0006718447866
0.0007401133321
0.0006828523042
0.000598411854
0.0005184773424
0.0004510566453
0.0003963396158
0.0003523750108
0.0003169759541
0.0002882696098
0.0002647860372
0.0002454154398
0.0002293675121
0.0002162707437
0.0002069093891
0.002481214142
0.001586161808
0.001092462575
0.000804253946
0.0006260871061
0.0005096808955
0.0004296610685
0.0003721448889
0.0003292166742
0.0002961733837
0.0002701138361
0.0002492267774
0.0002325782757
0.0002208423484
0.0007401291389
0.0006828463502
0.0005983987641
0.0005184627511
0.000451042541
0.0003963266355
0.0003523631808
0.0003169652066
0.0002882598601
0.000264777135
0.0002454072123
0.0002293598431
0.0002162635418
0.000206902498
0.0002005160158
0.0002338486202
0.0002475793602
0.0002493557224
0.0002445421955
0.0002364677528
0.0002270782209
0.0002174637692
0.0002082069525
0.000199596933
0.0001917600861
0.0001847539111
0.0001786986267
0.000174204086
6.160600918e-05
8.118500786e-05
9.760926505e-05
0.000110518731
0.0001202315021
0.0001272930265
0.0001322650501
0.0001356424174
0.0001378304859
0.0001391482596
0.0001398413143
0.0001400986051
0.0001400746749
0.0001399317008
2.802616293e-05
3.772567294e-05
4.821572332e-05
5.875758213e-05
6.882898352e-05
7.810626372e-05
8.642257217e-05
9.372370526e-05
0.000100030223
0.0001054078525
0.0001099445427
0.0001137283865
0.0001168014567
0.0001189764466
1.767829842e-05
2.404999482e-05
3.222196074e-05
4.151439745e-05
5.124104533e-05
6.084440117e-05
6.993474415e-05
7.827742068e-05
8.576013928e-05
9.235722254e-05
9.809865644e-05
0.0001030446758
0.0001072595489
0.0001107553323
0.0001132720608
3.028625743e-05
4.559228507e-05
6.203728027e-05
7.75072247e-05
9.088758115e-05
0.0001018298364
0.0001104351183
0.0001170121408
0.0001219292893
0.0001255383689
0.0001281427985
0.0001299897283
0.0001312731018
0.000132137183
0.0001326559829
7.726574298e-05
0.0001197585666
0.0001540237433
0.0001772162501
0.0001905528975
0.0001964961369
0.0001974411687
0.0001952792017
0.0001913567812
0.0001865722477
0.0001814966718
0.000176479846
0.0001717421546
0.0001674945866
0.0001642713764
0.0002355890709
0.0003316188453
0.0003728735663
0.0003781659886
0.0003644128601
0.0003424587176
0.000318303727
0.00029491934
0.0002735836268
0.0002546982295
0.0002382461982
0.0002240388913
0.0002118659113
0.000201688998
0.0001943033475
0.0006718406528
0.0007401076693
0.0006828330167
0.0005983899487
0.0005184566979
0.0004510381285
0.0003963233062
0.0003523606115
0.0003169631755
0.0002882581731
0.0002647756818
0.0002454059932
0.0002293587907
0.0002162626141
0.0002069016089
0.00023559386
0.0003316182776
0.0003728678961
0.0003781571184
0.0003644024849
0.0003424479518
0.0003182931825
0.0002949092973
0.0002735741684
0.0002546893605
0.0002382379079
0.0002240311323
0.0002118586241
0.0002016820839
0.0001942966367
0.0001197684075
0.0001540260353
0.000177213149
0.0001905461585
0.0001964871075
0.0001974307947
0.0001952680993
0.0001913453621
0.00018656079
0.0001814853404
0.0001764687035
0.0001717312538
0.0001674839098
0.0001642607833
4.559607222e-05
6.20391109e-05
7.750669277e-05
9.088473963e-05
0.0001018249786
0.0001104285723
0.0001170042473
0.000121920343
0.0001255286255
0.0001281324386
0.0001299789226
0.0001312619394
0.0001321257207
0.0001326442557
2.405159158e-05
3.22230942e-05
4.151458483e-05
5.123996911e-05
6.084190125e-05
6.993075316e-05
7.827200783e-05
8.575337054e-05
9.234922539e-05
9.808957904e-05
0.0001030346485
0.0001072486829
0.0001107437182
0.0001132596916
1.451439115e-05
1.839247557e-05
2.372723571e-05
3.026335712e-05
3.761907002e-05
4.539427643e-05
5.323864745e-05
6.088152311e-05
6.813566316e-05
7.488679419e-05
8.107724015e-05
8.668687561e-05
9.170505988e-05
9.605485072e-05
9.929298581e-05
2.010890566e-05
2.832408992e-05
3.838276902e-05
4.920475253e-05
5.987868649e-05
6.980083406e-05
7.86584163e-05
8.635372735e-05
9.292346416e-05
9.847469063e-05
0.0001031416061
0.0001070582979
0.0001103379294
0.0001130319131
0.0001149641526
3.69823427e-05
5.701226255e-05
7.774850171e-05
9.628721277e-05
0.0001112971039
0.0001225785684
0.000130539148
0.0001358162077
0.0001390613085
0.0001408418081
0.0001416107589
0.0001417113039
0.0001413976178
0.000140870323
0.0001403564863
7.726576809e-05
0.0001197572778
0.000154020789
0.0001772118172
0.0001905473926
0.0001964899538
0.0001974346321
0.0001952725573
0.0001913501286
0.0001865657456
0.0001814903109
0.0001764736453
0.0001717361378
0.0001674887495
0.0001642656406
0.0001400246928
0.000200504141
0.0002338386029
0.0002475711762
0.0002493491132
0.0002445367997
0.0002364633294
0.0002270745472
0.0002174606332
0.0002082042716
0.0001995945734
0.0001917579987
0.0001847520437
0.0001786969273
0.000174202522
7.726539326e-05
0.000119755873
0.0001540179457
0.000177207569
0.0001905421321
0.0001964840296
0.000197428344
0.0001952661264
0.0001913437146
0.0001865593983
0.0001814841391
0.0001764676528
0.000171730295
0.0001674830442
0.0001642599883
3.698473838e-05
5.701405894e-05
7.774856914e-05
9.628523546e-05
0.0001112932065
0.0001225730992
0.0001305324917
0.0001358086668
0.0001390531832
0.0001408332996
0.0001416019942
0.0001417024129
0.0001413886634
0.0001408613205
0.0001403473721
2.832651607e-05
3.838399691e-05
4.920461148e-05
5.987707407e-05
6.979776803e-05
7.865399558e-05
8.634810429e-05
9.291680972e-05
9.846718154e-05
0.0001031333623
0.0001070494274
0.0001103285465
0.0001130220979
0.0001149539351
1.839371716e-05
2.372818818e-05
3.02636827e-05
3.761851489e-05
4.539264878e-05
5.323583941e-05
6.087750691e-05
6.813044691e-05
7.488043299e-05
8.10698214e-05
8.667849389e-05
9.169577628e-05
9.604474367e-05
9.928207211e-05
1.237653006e-05
1.447496366e-05
1.75491511e-05
2.160290595e-05
2.65284507e-05
3.214633133e-05
3.824691778e-05
4.462275347e-05
5.108885091e-05
5.749232124e-05
6.37137806e-05
6.966070257e-05
7.524358706e-05
8.028607209e-05
8.415196741e-05
1.455825218e-05
1.845084838e-05
2.373609163e-05
3.011952919e-05
3.720789377e-05
4.461768562e-05
5.203368225e-05
5.922689456e-05
6.604885035e-05
7.24155547e-05
7.828913814e-05
8.365904014e-05
8.851505746e-05
9.277241574e-05
9.597123195e-05
2.010891516e-05
2.832396275e-05
3.838239117e-05
4.92040445e-05
5.987759081e-05
6.97993365e-05
7.86565382e-05
8.635151918e-05
9.292096403e-05
9.847195898e-05
0.0001031386635
0.0001070551686
0.000110334675
0.0001130285514
0.0001149606902
3.028628957e-05
4.559166023e-05
6.203560137e-05
7.750432079e-05
9.088346225e-05
0.000101824641
0.0001104290362
0.0001170053735
0.0001219219866
0.0001255306651
0.0001281348198
0.0001299815419
0.0001312647636
0.0001321287223
0.0001326474271
4.072807359e-05
6.160138945e-05
8.11801656e-05
9.760453312e-05
0.000110514304
0.0001202274024
0.0001272892915
0.0001322616347
0.0001356393166
0.000137827643
0.0001391456481
0.0001398389007
0.000140096368
0.0001400726063
0.0001399297377
3.028599001e-05
4.559100373e-05
6.203442248e-05
7.750254199e-05
9.088110362e-05
0.0001018217695
0.0001104257395
0.0001170017237
0.0001219180876
0.0001255265968
0.0001281305982
0.0001299772356
0.0001312603709
0.0001321242932
0.0001326429292
2.010909224e-05
2.832403937e-05
3.838198204e-05
4.920288822e-05
5.98755674e-05
6.979642801e-05
7.865278007e-05
8.63470103e-05
9.291582225e-05
9.846627071e-05
0.0001031325211
0.0001070486632
0.0001103278423
0.0001130214478
0.0001149533376
1.455877716e-05
1.845141648e-05
2.373639786e-05
3.011930742e-05
3.720695745e-05
4.461592784e-05
5.20310368e-05
5.922335712e-05
6.604443851e-05
7.241032672e-05
7.828315524e-05
8.365233817e-05
8.850772777e-05
9.276450757e-05
9.596282361e-05
1.447570583e-05
1.754969626e-05
2.160310763e-05
2.652813836e-05
3.214534286e-05
3.824512407e-05
4.462006124e-05
5.10851998e-05
5.748770383e-05
6.370819501e-05
6.965417265e-05
7.523615427e-05
8.027775238e-05
8.414280209e-05
1.141053302e-05
1.268118895e-05
1.463478513e-05
1.736522821e-05
2.089315435e-05
2.516908994e-05
3.00890973e-05
3.551536265e-05
4.129596602e-05
4.728060767e-05
5.333045001e-05
5.931937807e-05
6.511424767e-05
7.047878381e-05
7.466197849e-05
1.237654289e-05
1.447496116e-05
1.754910894e-05
2.160279634e-05
2.65282399e-05
3.214598055e-05
3.824640718e-05
4.462206253e-05
5.108796661e-05
5.749124562e-05
6.371251029e-05
6.96592416e-05
7.524192756e-05
8.028420433e-05
8.414984184e-05
1.451441592e-05
1.839241567e-05
2.372699319e-05
3.026281548e-05
3.76181352e-05
4.539286696e-05
5.323671907e-05
6.087907564e-05
6.813270427e-05
7.4883337e-05
8.10733287e-05
8.668255277e-05
9.170034048e-05
9.604974923e-05
9.928747147e-05
1.767832335e-05
2.40497289e-05
3.222114632e-05
4.151279672e-05
5.123850058e-05
6.084084889e-05
6.993016402e-05
7.827187421e-05
8.575370809e-05
9.234997302e-05
9.809070721e-05
0.0001030361038
0.0001072504404
0.0001107457392
0.0001132619628
2.001336094e-05
2.802414797e-05
3.772321073e-05
4.821297014e-05
5.875467514e-05
6.882600853e-05
7.810331626e-05
8.641968515e-05
9.372091906e-05
0.0001000275537
0.0001054052932
0.000109942124
0.0001137260873
0.000116799266
0.0001189743625
1.767818678e-05
2.404944806e-05
3.222063035e-05
4.151197006e-05
5.123732379e-05
6.083930345e-05
6.992824797e-05
7.826960473e-05
8.575110722e-05
9.234708948e-05
9.808757036e-05
0.0001030327567
0.0001072469156
0.0001107420624
0.0001132581234
1.451436544e-05
1.839227985e-05
2.372663627e-05
3.026209437e-05
3.761692731e-05
4.539109588e-05
5.323434478e-05
6.087607825e-05
6.812909157e-05
7.487915002e-05
8.106861435e-05
8.667735923e-05
9.169472026e-05
9.604374442e-05
9.928113927e-05
1.237661055e-05
1.447504753e-05
1.754909519e-05
2.160253339e-05
2.65275794e-05
3.214479552e-05
3.824459352e-05
4.461954641e-05
5.108471596e-05
5.748723281e-05
6.370775489e-05
6.965375434e-05
7.523575108e-05
8.027738092e-05
8.41424671e-05
1.141068577e-05
1.268140014e-05
1.46349558e-05
1.736523678e-05
2.089285794e-05
2.516834172e-05
3.008775964e-05
3.551331764e-05
4.129312073e-05
4.727688873e-05
5.332582592e-05
5.931382773e-05
6.51077776e-05
7.047141014e-05
7.465373347e-05
)
;

boundaryField
{
    top
    {
        type            zeroGradient;
    }
    bottom
    {
        type            zeroGradient;
    }
    side-walls
    {
        type            zeroGradient;
    }
    inlet
    {
        type            zeroGradient;
    }
    outlet
    {
        type            zeroGradient;
    }
    procBoundary1to0
    {
        type            processor;
        value           nonuniform List<scalar> 
97
(
1.141068287e-05
1.141068287e-05
1.237657045e-05
1.451419009e-05
1.76776352e-05
2.001225984e-05
1.767744224e-05
1.451390514e-05
1.23762832e-05
1.141038807e-05
1.112032912e-05
1.455879462e-05
1.455879462e-05
1.455879462e-05
2.010887884e-05
3.028470513e-05
4.072418069e-05
3.028381291e-05
2.010775793e-05
1.455776103e-05
1.237629564e-05
1.210081285e-05
1.458586689e-05
3.698482441e-05
3.698482441e-05
3.698482441e-05
7.726220669e-05
0.0001400042559
7.725688544e-05
3.697910299e-05
2.010779512e-05
1.451394212e-05
1.351657557e-05
1.890604025e-05
3.745444636e-05
0.000235594253
0.000235594253
0.000235594253
0.0006717073245
0.0002355569488
7.725721211e-05
3.028398062e-05
1.767754106e-05
1.451089698e-05
2.290934451e-05
5.763248976e-05
0.0001923436463
0.004196292921
0.004196292921
0.004196292921
0.000671714986
0.000671714986
0.0001400062031
4.072469103e-05
2.001245752e-05
1.351661736e-05
1.890620061e-05
3.745574408e-05
9.040935293e-05
0.00019234952
9.040544565e-05
7.727013778e-05
7.727013778e-05
7.727013778e-05
3.02860088e-05
1.767797765e-05
1.210084887e-05
1.458604913e-05
2.176330684e-05
3.745585062e-05
5.763324086e-05
3.745500087e-05
2.176290102e-05
2.011002538e-05
2.011002538e-05
2.011002538e-05
1.451448378e-05
1.112036187e-05
1.211541676e-05
1.45860596e-05
1.890625031e-05
2.290944112e-05
1.890601118e-05
1.45859359e-05
1.211537412e-05
1.237683328e-05
1.237683328e-05
1.237683328e-05
1.067136973e-05
1.112036926e-05
1.210086463e-05
1.351664058e-05
1.451091831e-05
1.351655831e-05
1.210080065e-05
1.112034683e-05
1.067136712e-05
)
;
    }
}


// ************************************************************************* //
