/*--------------------------------*- C++ -*----------------------------------*\
| =========                 |                                                 |
| \\      /  F ield         | OpenFOAM: The Open Source CFD Toolbox           |
|  \\    /   O peration     | Version:  4.x                                   |
|   \\  /    A nd           | Web:      www.OpenFOAM.org                      |
|    \\/     M anipulation  |                                                 |
\*---------------------------------------------------------------------------*/
FoamFile
{
    version     2.0;
    format      ascii;
    class       surfaceScalarField;
    location    "1000";
    object      phi;
}
// * * * * * * * * * * * * * * * * * * * * * * * * * * * * * * * * * * * * * //

dimensions      [1 0 -1 0 0 0 0];

internalField   nonuniform List<scalar> 
3172
(
9.166119744e-06
-9.067238228e-11
-9.063737626e-11
9.166277157e-06
-7.968091246e-11
-8.057884573e-11
9.166395546e-06
-5.912018041e-11
-5.767950653e-11
9.16647479e-06
-3.919618824e-11
-3.939116852e-11
9.166517408e-06
-2.455185792e-11
-2.516864407e-11
9.166540535e-06
-1.15962387e-11
-9.9439704e-12
9.166544196e-06
-1.61529351e-12
-2.370398534e-13
9.166532102e-06
5.930696826e-12
6.554666151e-12
9.166510739e-06
1.091779495e-11
1.034789628e-11
9.166487631e-06
1.17185831e-11
1.334689432e-11
9.166457941e-06
1.39815792e-11
1.499933319e-11
9.166425853e-06
1.405756339e-11
1.455307175e-11
9.166394972e-06
1.827714045e-11
1.859217579e-11
1.542571547e-11
1.692960231e-11
9.166162578e-06
-1.626802634e-10
-1.20361177e-10
9.16632174e-06
-1.366554937e-10
-1.024579926e-10
9.166430915e-06
-9.679409839e-11
-6.899652827e-11
9.166490123e-06
-5.978589665e-11
-4.053891763e-11
9.166515641e-06
-3.216569126e-11
-1.790736789e-11
9.166520479e-06
-1.10048367e-11
-8.375701738e-13
9.166507833e-06
3.457737454e-12
9.815852829e-12
9.166487189e-06
1.121293688e-11
1.634828472e-11
9.166457987e-06
1.74149417e-11
1.798711029e-11
9.16643036e-06
2.095562706e-11
2.087529092e-11
9.166399211e-06
2.291236758e-11
2.206041935e-11
9.16637165e-06
2.29264388e-11
2.057892192e-11
9.166338912e-06
2.765331395e-11
2.292078268e-11
2.622460818e-11
2.030003366e-11
9.166248169e-06
-1.643425663e-10
-2.176964684e-10
9.166405088e-06
-1.251017122e-10
-1.695649204e-10
9.166485767e-06
-7.872539388e-11
-9.592260373e-11
9.166509004e-06
-4.203428165e-11
-4.29679211e-11
9.166499735e-06
-1.70839485e-11
-6.513992525e-12
9.166474895e-06
6.584800586e-13
1.553620306e-11
9.166439058e-06
1.084529881e-11
2.665215327e-11
9.166405027e-06
1.87581701e-11
3.238239692e-11
9.166367921e-06
2.008014337e-11
3.230027355e-11
9.166339054e-06
2.256311801e-11
3.213304489e-11
9.166311448e-06
2.37442651e-11
3.045839833e-11
9.166286781e-06
2.367461393e-11
2.80502246e-11
9.166262878e-06
2.636410276e-11
2.921760882e-11
2.444583946e-11
2.521430805e-11
9.166306212e-06
-1.208740927e-10
-2.249397244e-10
9.166426512e-06
-7.614445559e-11
-1.728161809e-10
9.166471243e-06
-4.151366485e-11
-7.746696637e-11
9.16646049e-06
-1.913948756e-11
-1.033699715e-11
9.166425644e-06
-7.125376398e-12
2.553411815e-11
9.166379438e-06
1.839436335e-12
4.525597564e-11
9.16633652e-06
6.384025497e-12
5.143841984e-11
9.166295319e-06
7.708459554e-12
5.005427523e-11
9.166263753e-06
9.278507997e-12
4.755549854e-11
9.166236357e-06
1.059867274e-11
4.25187941e-11
9.16621441e-06
1.09569183e-11
3.894645672e-11
9.166196938e-06
9.401510924e-12
3.351344725e-11
9.166181102e-06
1.144759326e-11
3.499194019e-11
9.195858959e-12
2.884464145e-11
9.166440746e-06
1.168382705e-10
-4.349638809e-10
9.166517937e-06
7.174292561e-11
-2.309253544e-10
9.166512653e-06
3.98975196e-11
-7.503049931e-11
9.16646688e-06
1.895077898e-11
1.175635527e-11
9.166411565e-06
7.140290222e-12
4.73965875e-11
9.166351362e-06
-3.119651336e-12
5.96557908e-11
9.166304867e-06
-4.232375285e-12
6.020376395e-11
9.166262894e-06
-7.160643434e-12
5.642704534e-11
9.166231808e-06
-6.708703786e-12
5.175102541e-11
9.166206871e-06
-8.092385697e-12
4.548827446e-11
9.166186315e-06
-8.34654473e-12
4.107760081e-11
9.166176155e-06
-7.455609634e-12
3.480618871e-11
9.16616344e-06
-7.904421223e-12
3.794586161e-11
-7.129378143e-12
2.887572313e-11
9.166306911e-06
1.629084424e-10
-2.229573874e-10
9.166433627e-06
1.256089748e-10
-1.70820775e-10
9.166476654e-06
7.956218388e-11
-7.689043481e-11
9.166464145e-06
4.257732375e-11
-1.047167734e-11
9.166429852e-06
1.728929395e-11
2.503809389e-11
9.16638771e-06
7.803657027e-13
4.489810901e-11
9.16634178e-06
-1.350341732e-11
4.898290524e-11
9.166304212e-06
-1.848642319e-11
4.965419946e-11
9.166269645e-06
-2.226318357e-11
4.662841962e-11
9.166244872e-06
-2.441491008e-11
4.207441732e-11
9.166223218e-06
-2.480995522e-11
3.703637427e-11
9.166205441e-06
-2.154418258e-11
3.258898346e-11
9.166188368e-06
-2.639957752e-11
3.514090003e-11
-2.389982973e-11
2.827736445e-11
9.166247467e-06
1.621653121e-10
-2.157528923e-10
9.166406359e-06
1.373954879e-10
-1.672758427e-10
9.166485438e-06
9.708721333e-11
-9.673865082e-11
9.166508177e-06
6.05234359e-11
-4.357498504e-11
9.166496775e-06
3.136751997e-11
-8.858897717e-12
9.16647059e-06
1.04447672e-11
1.320130205e-11
9.166437833e-06
-3.840067974e-12
2.738255058e-11
9.166403982e-06
-1.365098217e-11
3.244303835e-11
9.166368284e-06
-1.885200805e-11
3.405619248e-11
9.166340891e-06
-2.048924659e-11
3.27400611e-11
9.166311896e-06
-2.336981025e-11
3.05657628e-11
9.166284902e-06
-2.447542567e-11
2.748883456e-11
9.166261787e-06
-2.946503996e-11
3.038347734e-11
-2.634337778e-11
2.490952994e-11
9.166167093e-06
9.093837644e-11
-1.186513805e-10
9.166327199e-06
7.939431216e-11
-1.017893266e-10
9.166432659e-06
5.842200824e-11
-6.948879953e-11
9.166490745e-06
3.674773157e-11
-4.180763391e-11
9.166515582e-06
2.06281205e-11
-1.959519727e-11
9.166518722e-06
1.010336709e-11
-2.606450214e-12
9.166507004e-06
1.216764322e-12
1.131940504e-11
9.166486039e-06
-6.686656376e-12
1.768560042e-11
9.16645681e-06
-1.063614148e-11
2.097746596e-11
9.166428854e-06
-1.24467371e-11
2.217245339e-11
9.166396824e-06
-1.469338669e-11
2.239571916e-11
9.16636576e-06
-1.556135098e-11
1.972511409e-11
9.166336604e-06
-1.634023059e-11
2.451627027e-11
-1.57779457e-11
2.115343584e-11
9.166126914e-06
-8.997911778e-11
9.166286039e-06
-7.955268485e-11
9.166403255e-06
-5.831350087e-11
9.166479983e-06
-3.927695151e-11
9.166527823e-06
-2.28548594e-11
9.16654645e-06
-1.10018414e-11
9.166549164e-06
-1.166847145e-12
9.166539614e-06
7.852766727e-12
9.166521141e-06
1.166680717e-11
9.166495428e-06
1.312197787e-11
9.166464512e-06
1.502617124e-11
9.166433799e-06
1.513206082e-11
9.166397081e-06
1.840113974e-11
1.72118235e-11
9.165962441e-06
-2.394022786e-10
9.166153052e-06
-1.189506409e-10
-1.630782966e-10
9.16631256e-06
-1.023386291e-10
-1.367659604e-10
9.166417866e-06
-6.996044281e-11
-9.67866584e-11
9.166477996e-06
-3.946016715e-11
-5.90983743e-11
9.166506119e-06
-1.757590534e-11
-3.126050645e-11
9.166507999e-06
-2.590757435e-12
-1.14299538e-11
9.166494497e-06
8.79949256e-12
3.526788565e-12
9.166473524e-06
1.639878191e-11
1.2515332e-11
9.16644445e-06
1.996879538e-11
1.96743535e-11
9.166417094e-06
2.089398016e-11
2.22000937e-11
9.166387048e-06
2.248259641e-11
2.374380986e-11
9.166358881e-06
2.061806894e-11
2.588752095e-11
9.166327628e-06
2.349145845e-11
3.051039349e-11
1.956886056e-11
2.480730059e-11
9.166214588e-06
-2.124884873e-10
-2.148541472e-10
9.1663572e-06
-1.725552319e-10
-1.721959458e-10
9.166435332e-06
-1.081804403e-10
-1.081621743e-10
9.166464719e-06
-5.47925837e-11
-5.514313329e-11
9.166463569e-06
-1.810572307e-11
-1.722377885e-11
9.166445559e-06
7.998701042e-12
8.268378357e-12
9.166419553e-06
2.380984395e-11
2.318457708e-11
9.166388688e-06
3.065253332e-11
3.086867119e-11
9.16635881e-06
3.451023696e-11
3.509024139e-11
9.166331719e-06
3.518826021e-11
3.432868933e-11
9.16630462e-06
3.425684526e-11
3.405131273e-11
9.166282108e-06
3.356716585e-11
3.480128006e-11
9.166255338e-06
3.650702933e-11
3.760963807e-11
3.300704079e-11
3.233990459e-11
9.166310709e-06
-2.182972119e-10
-3.996315422e-10
9.166412736e-06
-1.531613881e-10
-2.845299425e-10
9.166425885e-06
-7.852403003e-11
-1.403964012e-10
9.166397046e-06
-2.281793898e-11
-4.070627699e-11
9.166351318e-06
7.814478088e-12
1.358680802e-11
9.166304563e-06
2.540948159e-11
4.378450535e-11
9.166264517e-06
3.337715438e-11
5.625472915e-11
9.166233821e-06
3.618820245e-11
5.94460296e-11
9.16620777e-06
3.671104141e-11
5.764386582e-11
9.166188477e-06
3.449864309e-11
5.305100619e-11
9.166176885e-06
3.417165985e-11
5.053119605e-11
9.166165145e-06
3.10391099e-11
4.513707172e-11
9.166154036e-06
3.307833112e-11
4.704918766e-11
2.881666596e-11
3.860553972e-11
9.16638065e-06
-1.436801754e-10
-3.330978547e-10
9.166383871e-06
-8.518478435e-11
-2.509638396e-10
9.166338316e-06
-3.505486583e-11
-6.963390586e-11
9.166271302e-06
-5.3056518e-12
4.369121047e-11
9.166212229e-06
6.963948218e-12
8.821109664e-11
9.166165493e-06
1.314057136e-11
1.025198988e-10
9.166135962e-06
1.491672173e-11
1.017336185e-10
9.166118775e-06
1.530162321e-11
9.334562436e-11
9.166108039e-06
1.549337806e-11
8.144910589e-11
9.166103556e-06
1.568140786e-11
6.9883923e-11
9.166104421e-06
1.50722629e-11
6.092280336e-11
9.166107672e-06
1.22852762e-11
5.339561286e-11
9.166111586e-06
1.474922572e-11
5.593830208e-11
1.03858862e-11
4.474018236e-11
9.16655987e-06
1.412606966e-10
-6.626317803e-10
9.166424517e-06
8.252059463e-11
-2.597043406e-10
9.166287173e-06
3.307381175e-11
-1.215968911e-11
9.166179465e-06
4.940189846e-12
1.103756392e-10
9.166108633e-06
-7.39236635e-12
1.383648044e-10
9.16606022e-06
-1.385664358e-11
1.353197899e-10
9.166036709e-06
-1.555545581e-11
1.22705487e-10
9.166025265e-06
-1.507211785e-11
1.046900441e-10
9.1660216e-06
-1.534638121e-11
8.782238892e-11
9.16602422e-06
-1.405975619e-11
7.362159752e-11
9.166028202e-06
-1.462865885e-11
6.389011129e-11
9.166040409e-06
-1.216043281e-11
5.679733185e-11
9.166047382e-06
-1.298142856e-11
5.841186448e-11
-1.040825654e-11
4.672471203e-11
9.166382664e-06
2.163806791e-10
-3.315567931e-10
9.166386827e-06
1.541591397e-10
-2.492500726e-10
9.1663397e-06
7.853018198e-11
-6.929002816e-11
9.166272911e-06
2.189228362e-11
4.303598241e-11
9.166212779e-06
-7.868200752e-12
8.951151008e-11
9.166168841e-06
-2.561734052e-11
1.043743749e-10
9.166137959e-06
-3.34154105e-11
1.019394052e-10
9.166120097e-06
-3.64379358e-11
9.190613175e-11
9.166108321e-06
-3.717555867e-11
8.043052529e-11
9.166103428e-06
-3.519428383e-11
6.849183094e-11
9.166105846e-06
-3.231681762e-11
6.131300003e-11
9.166110773e-06
-2.905643986e-11
5.335681957e-11
9.166110835e-06
-3.298665271e-11
5.430859954e-11
-2.829935616e-11
4.47707123e-11
9.166318522e-06
2.129853935e-10
-3.986031684e-10
9.166418108e-06
1.733185769e-10
-2.851689284e-10
9.166431534e-06
1.09238476e-10
-1.413848266e-10
9.166401414e-06
5.492582125e-11
-4.101752001e-11
9.16635387e-06
1.664757742e-11
1.469919268e-11
9.166310996e-06
-8.212372035e-12
4.638012764e-11
9.166270952e-06
-2.230982702e-11
5.767977024e-11
9.166240168e-06
-3.0755637e-11
5.933718583e-11
9.16621636e-06
-3.421451849e-11
5.689500197e-11
9.166200354e-06
-3.352234651e-11
5.282221819e-11
9.166186672e-06
-3.382120216e-11
4.899750164e-11
9.16617675e-06
-3.38245176e-11
4.424964853e-11
9.166166095e-06
-3.626178335e-11
4.616697586e-11
-3.080844149e-11
3.856951918e-11
9.166226693e-06
1.197575872e-10
-2.127749287e-10
9.16636901e-06
1.013506354e-10
-1.726616197e-10
9.166447095e-06
6.987551573e-11
-1.079418334e-10
9.166476435e-06
3.921830798e-11
-5.396731742e-11
9.166474565e-06
1.702833325e-11
-1.735105229e-11
9.166459075e-06
7.975084464e-13
9.433814117e-12
9.166430931e-06
-1.112498021e-11
2.350955596e-11
9.166403265e-06
-1.660477128e-11
3.089173254e-11
9.166375306e-06
-2.015319516e-11
3.372108341e-11
9.16634684e-06
-2.109899646e-11
3.441865528e-11
9.166319936e-06
-2.100519933e-11
3.550964894e-11
9.166301369e-06
-2.01390292e-11
3.443149265e-11
9.166275319e-06
-2.275575918e-11
3.530752809e-11
-2.00024755e-11
3.100425816e-11
9.166167705e-06
-1.625168473e-10
9.166326119e-06
-1.359719041e-10
9.166432585e-06
-9.717421824e-11
9.166491932e-06
-5.958792459e-11
9.166519693e-06
-3.021308123e-11
9.166521319e-06
-1.005646423e-11
9.166509251e-06
4.034780863e-12
9.166485618e-06
1.323639728e-11
9.166458818e-06
1.902978064e-11
9.166430422e-06
2.116949703e-11
9.166395022e-06
2.360741829e-11
9.166369682e-06
2.582515516e-11
9.166335819e-06
2.671484017e-11
2.515482033e-11
9.166028154e-06
-3.87439261e-10
-2.85468536e-10
9.166245351e-06
-2.162547321e-10
-1.626403299e-10
9.166401493e-06
-1.673978513e-10
-1.251649637e-10
9.166482361e-06
-9.603240724e-11
-7.78750025e-11
9.166503772e-06
-4.220179621e-11
-4.076393762e-11
9.166495932e-06
-5.670497948e-12
-1.407218169e-11
9.166469745e-06
1.592873552e-11
3.068205328e-12
9.166433465e-06
2.762349818e-11
1.290587911e-11
9.166397894e-06
3.335872817e-11
1.782379387e-11
9.16636037e-06
3.308882209e-11
2.05545765e-11
9.166332999e-06
3.254773499e-11
2.282393352e-11
9.166305374e-06
3.190084103e-11
2.384769656e-11
9.166280613e-06
2.81593118e-11
2.114682133e-11
9.166253127e-06
3.056171688e-11
2.410788366e-11
2.753539748e-11
2.460255717e-11
9.166139252e-06
-5.379841079e-10
9.166326525e-06
-3.970472345e-10
-2.17606637e-10
9.166425891e-06
-2.849248726e-10
-1.558398873e-10
9.166441493e-06
-1.40127165e-10
-7.753409928e-11
9.166413124e-06
-4.097084264e-11
-2.148007304e-11
9.166365604e-06
1.387510904e-11
9.33087174e-12
9.166322478e-06
4.524877967e-11
2.699228804e-11
9.166283321e-06
5.782615234e-11
3.370097812e-11
9.166253655e-06
5.973844878e-11
3.603471894e-11
9.166227274e-06
5.797426341e-11
3.611700481e-11
9.166210935e-06
5.433071971e-11
3.406636588e-11
9.166197977e-06
5.114841734e-11
3.24126869e-11
9.166186629e-06
4.540174093e-11
2.997451214e-11
9.166174678e-06
4.7450775e-11
3.252221417e-11
3.919438048e-11
2.843190109e-11
9.166478199e-06
-4.477033601e-10
-4.511297618e-10
9.166432427e-06
-2.599792414e-10
-2.612562093e-10
9.16630709e-06
-7.891779486e-11
-7.828616664e-11
9.166188422e-06
2.089824701e-11
2.021337112e-11
9.166102497e-06
5.993964546e-11
6.022606808e-11
9.16604815e-06
7.222841315e-11
7.203490889e-11
9.16602409e-06
7.208786437e-11
7.126590501e-11
9.166017073e-06
6.688717444e-11
6.642026007e-11
9.166017991e-06
5.972499627e-11
5.847985889e-11
9.166028212e-06
5.208979323e-11
5.134167346e-11
9.166038571e-06
4.571467974e-11
4.486357623e-11
9.166052157e-06
4.015013073e-11
3.852996192e-11
9.166064395e-06
4.269765647e-11
4.09537985e-11
3.480394269e-11
3.328029574e-11
9.166339044e-06
-2.603872363e-10
-1.633052176e-10
9.166080576e-06
-1.309196042e-10
-1.1769626e-10
9.16588304e-06
-2.697416034e-11
7.946284599e-11
9.165766377e-06
2.16251653e-11
1.603299245e-10
9.165723102e-06
3.326481898e-11
1.613492737e-10
9.165725959e-06
3.549057003e-11
1.430212148e-10
9.165755479e-06
3.261857254e-11
1.199094214e-10
9.165793657e-06
2.692505151e-11
9.738105698e-11
9.165836502e-06
2.420139596e-11
7.954432023e-11
9.165876445e-06
2.012987871e-11
6.3254996e-11
9.165916822e-06
1.947772558e-11
5.536328625e-11
9.165953554e-06
1.550051373e-11
4.604966483e-11
9.165987194e-06
1.714133275e-11
4.792335958e-11
1.332275171e-11
4.044307997e-11
9.166612969e-06
2.596903358e-10
-4.295835468e-10
9.166001041e-06
1.297868303e-10
9.831989017e-11
9.165693639e-06
2.541069461e-11
2.476091021e-10
9.165575707e-06
-2.203191372e-11
2.817591637e-10
9.165563052e-06
-3.317155356e-11
2.269583932e-10
9.165600674e-06
-3.527467291e-11
1.768578536e-10
9.165655634e-06
-3.217959052e-11
1.357531019e-10
9.165719742e-06
-2.801292942e-11
1.06142133e-10
9.165777764e-06
-2.368194996e-11
8.374761494e-11
9.165830562e-06
-1.948439948e-11
6.79761095e-11
9.165881186e-06
-1.79246334e-11
5.707239402e-11
9.165925079e-06
-1.538942772e-11
4.728076716e-11
9.165967624e-06
-1.630622283e-11
4.964231705e-11
-1.311462866e-11
3.970693564e-11
9.16634769e-06
4.465435026e-10
-1.617284236e-10
9.1660872e-06
2.583553509e-10
-1.184360106e-10
9.165892559e-06
7.73560171e-11
8.088946757e-11
9.165776895e-06
-2.151967189e-11
1.615240971e-10
9.165732593e-06
-6.063538299e-11
1.611346338e-10
9.165736913e-06
-7.279576901e-11
1.442682383e-10
9.165763501e-06
-7.240342854e-11
1.198283398e-10
9.165805927e-06
-6.622223313e-11
9.829169381e-11
9.16584557e-06
-6.031422224e-11
7.855949554e-11
9.165888111e-06
-5.169253462e-11
6.361318248e-11
9.1659293e-06
-4.586612148e-11
5.428000294e-11
9.16596485e-06
-3.983159805e-11
4.64684303e-11
9.166001054e-06
-4.231994734e-11
4.748847057e-11
-3.467624882e-11
3.958064705e-11
9.166504576e-06
3.994001601e-10
-4.485345612e-10
9.166460417e-06
2.859439454e-10
-2.607949686e-10
9.166335598e-06
1.415459108e-10
-7.749788086e-11
9.166214936e-06
4.272447752e-11
2.166505174e-11
9.166127586e-06
-1.583484225e-11
6.017299773e-11
9.166075223e-06
-4.559151058e-11
7.335607127e-11
9.166048303e-06
-5.681510073e-11
7.304903003e-11
9.166040406e-06
-5.995845711e-11
6.698082796e-11
9.16604372e-06
-5.7071815e-11
5.940750007e-11
9.166053718e-06
-5.244150035e-11
5.040272666e-11
9.166064998e-06
-4.750689038e-11
4.488362046e-11
9.166079081e-06
-4.279679376e-11
3.889620894e-11
9.166089035e-06
-4.617878846e-11
4.101212447e-11
-3.872854028e-11
3.383545172e-11
9.16632343e-06
2.169168263e-10
-2.168035435e-10
9.166422589e-06
1.672564354e-10
-1.546607572e-10
9.166439064e-06
9.562358566e-11
-7.680717332e-11
9.166405745e-06
4.041122416e-11
-2.225158739e-11
9.166362714e-06
6.985837423e-12
9.271742163e-12
9.166317372e-06
-1.568624386e-11
2.535072277e-11
9.166275232e-06
-2.775552541e-11
3.39558513e-11
9.166243871e-06
-3.193107491e-11
3.710003613e-11
9.166219162e-06
-3.279546617e-11
3.696479311e-11
9.166201554e-06
-3.230256408e-11
3.390706388e-11
9.166185218e-06
-3.013346908e-11
3.183536531e-11
9.166174072e-06
-2.718163028e-11
3.062555789e-11
9.1661639e-06
-2.994382991e-11
3.36249638e-11
-2.597184033e-11
2.791223234e-11
9.166255283e-06
-1.619865761e-10
9.166410642e-06
-1.243712953e-10
9.166492028e-06
-7.688705131e-11
9.166515758e-06
-3.902880195e-11
9.166505563e-06
-1.721090837e-11
9.166478996e-06
2.769865725e-13
9.16644566e-06
1.102804317e-11
9.166409448e-06
1.765179632e-11
9.166376953e-06
2.038466843e-11
9.16634781e-06
2.173421521e-11
9.166316856e-06
2.28638832e-11
9.166292688e-06
2.345159554e-11
9.166266883e-06
2.620722787e-11
2.214865468e-11
9.166129713e-06
-6.07713455e-10
-2.483454816e-10
9.16630994e-06
-2.245879114e-10
-1.175534112e-10
9.166433892e-06
-1.733600727e-10
-7.51637789e-11
9.166476211e-06
-7.775842207e-11
-4.053338225e-11
9.166466747e-06
-9.610391627e-12
-1.689335651e-11
9.166430375e-06
2.659625489e-11
-6.605781988e-12
9.166386742e-06
4.529852052e-11
1.706972503e-12
9.166343252e-06
5.107917334e-11
6.041575693e-12
9.166304357e-06
5.050009245e-11
6.886351439e-12
9.166271589e-06
4.719191445e-11
8.519170489e-12
9.166244455e-06
4.142921087e-11
9.308284478e-12
9.166224032e-06
3.794410267e-11
8.607206471e-12
9.166207052e-06
3.496708398e-11
8.611631737e-12
9.166192233e-06
3.705795613e-11
1.224631551e-11
3.029202425e-11
9.418769897e-12
9.166330299e-06
-1.447896885e-09
-5.095710704e-10
9.166364173e-06
-3.333634784e-10
-1.41250314e-10
9.166368068e-06
-2.500247402e-10
-8.321233662e-11
9.166319343e-06
-6.823210235e-11
-3.492076623e-11
9.166250375e-06
4.222489436e-11
-5.437429061e-12
9.166188359e-06
8.7029225e-11
5.872611059e-12
9.166144132e-06
1.024020563e-10
1.184327887e-11
9.166114786e-06
1.009350848e-10
1.463478632e-11
9.166096128e-06
9.268404395e-11
1.391835761e-11
9.166087875e-06
8.198340186e-11
1.482229893e-11
9.166083884e-06
7.214577292e-11
1.446451489e-11
9.166085568e-06
6.240965103e-11
1.228126887e-11
9.16608775e-06
5.296807801e-11
1.02403965e-11
9.16609074e-06
5.469983635e-11
1.192338439e-11
4.45323189e-11
1.014677891e-11
9.166704223e-06
-1.462048429e-09
9.166348133e-06
-1.614659855e-10
-2.5799421e-10
9.166088439e-06
-1.169439655e-10
-1.29394395e-10
9.165888408e-06
7.829000391e-11
-2.59674258e-11
9.165773495e-06
1.600627071e-10
2.207631332e-11
9.16572808e-06
1.604999431e-10
3.328678656e-11
9.165733277e-06
1.430742956e-10
3.450605739e-11
9.165762656e-06
1.206477001e-10
3.293185731e-11
9.165799447e-06
9.841807784e-11
2.660812338e-11
9.165843673e-06
7.937141057e-11
2.380681935e-11
9.165884362e-06
6.457792483e-11
2.129720221e-11
9.165923546e-06
5.622659961e-11
1.677694504e-11
9.165959059e-06
4.70600994e-11
1.465940712e-11
9.165993834e-06
4.847774095e-11
1.5223703e-11
4.057797514e-11
1.277843439e-11
9.165022071e-06
5.262750571e-10
5.2600796e-10
9.164774859e-06
9.230223989e-12
9.632189402e-12
9.164798356e-06
7.368699059e-11
7.459408721e-11
9.16492316e-06
1.041866609e-10
1.05197996e-10
9.165084193e-06
8.354975958e-11
8.375333774e-11
9.165247326e-06
6.545912938e-11
6.545188735e-11
9.165394368e-06
5.046056663e-11
4.971814482e-11
9.165517099e-06
3.752752594e-11
3.787977682e-11
9.165619382e-06
2.993437523e-11
2.995106949e-11
9.165709657e-06
2.584948697e-11
2.510013995e-11
9.165784315e-06
2.057164039e-11
2.001311072e-11
9.165850195e-06
1.768739681e-11
1.580527934e-11
9.165916926e-06
1.937238869e-11
1.550791112e-11
1.602882e-11
1.353108439e-11
9.164302554e-06
-5.256862529e-10
3.020173483e-09
9.164171075e-06
-1.10947664e-11
2.687866672e-10
9.164475267e-06
-7.440786024e-11
1.075660736e-10
9.164833485e-06
-1.034865273e-10
1.488177809e-10
9.165137973e-06
-8.400302216e-11
1.025750354e-10
9.165385106e-06
-6.595764536e-11
7.033740871e-11
9.165583792e-06
-4.983714729e-11
5.053706111e-11
9.165739848e-06
-3.82746164e-11
3.873401211e-11
9.16586072e-06
-3.063260415e-11
3.145214836e-11
9.165960237e-06
-2.498914864e-11
2.347734828e-11
9.166046537e-06
-2.024916917e-11
1.95846745e-11
9.166120029e-06
-1.718375604e-11
1.419112592e-11
9.166197582e-06
-1.837373555e-11
1.681447022e-11
-1.576771372e-11
1.412630461e-12
9.165036844e-06
1.607471697e-10
5.258389172e-10
9.164794005e-06
1.164295808e-10
1.031097876e-11
9.164816683e-06
-8.014302836e-11
7.435143015e-11
9.164940052e-06
-1.614391154e-10
1.036641733e-10
9.165102073e-06
-1.611234152e-10
8.37146386e-11
9.165263045e-06
-1.432299788e-10
6.513101989e-11
9.165409787e-06
-1.190851033e-10
5.086895366e-11
9.165533757e-06
-9.75292965e-11
3.852738694e-11
9.165638974e-06
-8.037800049e-11
3.040461064e-11
9.165726646e-06
-6.548532986e-11
2.326571977e-11
9.165800785e-06
-5.587643824e-11
2.063232244e-11
9.165863755e-06
-4.803514516e-11
1.604913999e-11
9.165929335e-06
-4.94911418e-11
1.838198001e-11
-4.08974672e-11
1.564585503e-11
9.166343397e-06
3.327039349e-10
-2.593832914e-10
9.166085736e-06
2.513552198e-10
-1.287852715e-10
9.165888503e-06
6.95796138e-11
-2.52179592e-11
9.165772637e-06
-4.231014888e-11
2.195659741e-11
9.165729757e-06
-8.965447145e-11
3.324973628e-11
9.165733649e-06
-1.047458568e-10
3.526094003e-11
9.165762422e-06
-1.022681496e-10
3.154037499e-11
9.165800109e-06
-9.213599263e-11
2.797949656e-11
9.165845103e-06
-7.949379984e-11
2.301626047e-11
9.165886256e-06
-6.881085401e-11
1.953955793e-11
9.165926551e-06
-5.957534383e-11
1.703811737e-11
9.165964991e-06
-5.0391775e-11
1.598599133e-11
9.166000224e-06
-5.379002992e-11
1.576538244e-11
-4.461518433e-11
1.296501833e-11
9.166378144e-06
2.244737333e-10
-1.419613656e-10
9.166382085e-06
1.730736931e-10
-8.258663603e-11
9.166335385e-06
7.792553431e-11
-3.416463634e-11
9.166265467e-06
9.626874345e-12
-6.167258622e-12
9.166206516e-06
-2.64679735e-11
7.076920999e-12
9.166164713e-06
-4.517262837e-11
1.43253479e-11
9.16613299e-06
-5.232269256e-11
1.624697226e-11
9.166114303e-06
-5.17155876e-11
1.476192847e-11
9.166103996e-06
-4.817938692e-11
1.384025649e-11
9.16610054e-06
-4.291200782e-11
1.217588931e-11
9.166099727e-06
-3.822460458e-11
1.264722065e-11
9.166101446e-06
-3.302800516e-11
1.257710834e-11
9.166104421e-06
-3.506823211e-11
1.27455928e-11
-3.009517457e-11
1.148352671e-11
9.166309684e-06
-1.181951242e-10
9.166431504e-06
-7.438700461e-11
9.166475213e-06
-4.023835565e-11
9.166462778e-06
-1.799167366e-11
9.166430434e-06
-4.889482467e-12
9.166388699e-06
3.314442455e-12
9.166343539e-06
6.989463159e-12
9.166304168e-06
8.547339404e-12
9.166270714e-06
7.039203852e-12
9.166246329e-06
9.181725371e-12
9.166222354e-06
9.218978131e-12
9.166205743e-06
8.625219437e-12
9.166188766e-06
9.902850224e-12
9.704672114e-12
9.166230969e-06
-1.381402685e-09
2.488195911e-10
9.166429455e-06
-4.34354622e-10
1.180616796e-10
9.166512008e-06
-2.305618315e-10
7.613104111e-11
9.166504589e-06
-7.645700641e-11
4.05133333e-11
9.166457405e-06
1.130856982e-11
1.729715116e-11
9.166402158e-06
4.721671751e-11
4.031697548e-12
9.166346173e-06
5.981849712e-11
-1.984575082e-12
9.166294607e-06
5.968023203e-11
-6.297040048e-12
9.1662564e-06
5.708039612e-11
-8.431583347e-12
9.166223443e-06
5.210864376e-11
-8.867046467e-12
9.166197263e-06
4.511514047e-11
-1.063981666e-11
9.166181581e-06
4.088353081e-11
-9.547762446e-12
9.166170969e-06
3.565183128e-11
-9.406822039e-12
9.166155848e-06
3.664419062e-11
-1.086081961e-11
3.082516911e-11
-9.295719688e-12
9.166624355e-06
-3.932301729e-09
5.116675888e-10
9.166570382e-06
-6.610341719e-10
1.433387421e-10
9.166435474e-06
-2.588100206e-10
8.290706952e-11
9.166302971e-06
-9.47926609e-12
3.497412699e-11
9.166195254e-06
1.117703119e-10
5.312592332e-12
9.166121423e-06
1.380678525e-10
-7.168460929e-12
9.166078162e-06
1.352372916e-10
-1.254833069e-11
9.166051539e-06
1.220752763e-10
-1.473847853e-11
9.166041473e-06
1.053832955e-10
-1.536391497e-11
9.166037947e-06
8.934022469e-11
-1.61003954e-11
9.166040122e-06
7.770602494e-11
-1.382607694e-11
9.166050422e-06
6.574789397e-11
-1.225397433e-11
9.166060851e-06
5.764080663e-11
-1.127742662e-11
9.166069129e-06
5.902571513e-11
-1.172151983e-11
4.618627508e-11
-1.000154567e-11
9.167359202e-06
-1.021477459e-08
1.460577429e-09
9.166612303e-06
-4.305806618e-10
2.582991131e-10
9.16600177e-06
9.809409804e-11
1.2933317e-10
9.165693951e-06
2.46658097e-10
2.636785227e-11
9.165576817e-06
2.818252777e-10
-2.150926263e-11
9.165563429e-06
2.273479116e-10
-3.397603155e-11
9.165602857e-06
1.764970242e-10
-3.544662649e-11
9.165659674e-06
1.359468675e-10
-3.11714005e-11
9.165721468e-06
1.064316825e-10
-2.713028284e-11
9.165781135e-06
8.4019885e-11
-2.405267943e-11
9.165829204e-06
6.594976118e-11
-2.122789951e-11
9.165882379e-06
5.846512187e-11
-1.550176285e-11
9.165925583e-06
4.808849808e-11
-1.510444845e-11
9.165969627e-06
4.881549017e-11
-1.645643846e-11
3.84659103e-11
-1.314990562e-11
9.166675549e-06
3.042341171e-09
9.164297168e-06
3.020111479e-09
-5.253491973e-10
9.16416689e-06
2.693731649e-10
-9.938099204e-12
9.164470453e-06
1.075065769e-10
-7.295296012e-11
9.16482637e-06
1.477029056e-10
-1.036444647e-10
9.165132642e-06
1.023311594e-10
-8.418912845e-11
9.165382067e-06
7.210497372e-11
-6.60549823e-11
9.165577241e-06
5.136102176e-11
-5.083028714e-11
9.165730819e-06
3.828366479e-11
-3.880985535e-11
9.165854991e-06
3.151274859e-11
-2.994217112e-11
9.165954318e-06
2.484119656e-11
-2.333582891e-11
9.166041353e-06
2.095801377e-11
-1.870069977e-11
9.16611476e-06
1.6285396e-11
-1.466570062e-11
9.166193546e-06
2.021734463e-11
-1.677163274e-11
3.319325444e-12
-1.363684534e-11
9.290014278e-06
-3.0200658e-09
-3.020660262e-09
9.291358569e-06
-2.708784604e-10
-2.691562601e-10
9.292038616e-06
-1.08359196e-10
-1.085778659e-10
9.292880402e-06
-1.485752557e-10
-1.474425472e-10
9.293528231e-06
-1.023351594e-10
-1.023200176e-10
9.294043274e-06
-7.074617654e-11
-7.15488597e-11
9.294483115e-06
-5.021378825e-11
-5.13471144e-11
9.294871045e-06
-3.744714727e-11
-3.915754248e-11
9.295219437e-06
-3.185047801e-11
-3.169127896e-11
9.295548595e-06
-2.488634418e-11
-2.368275769e-11
9.295862613e-06
-1.938300631e-11
-1.995632251e-11
9.296163122e-06
-1.528324896e-11
-1.557141797e-11
9.296470791e-06
-1.738944571e-11
-1.865052323e-11
-2.131708605e-12
-2.622733795e-12
9.164290676e-06
4.28975674e-10
-5.263579556e-10
9.164159376e-06
-9.94810896e-11
-9.275028559e-12
9.164464472e-06
-2.471399438e-10
-7.348333949e-11
9.164822267e-06
-2.822230761e-10
-1.038397519e-10
9.165127482e-06
-2.275939704e-10
-8.426100082e-11
9.165374666e-06
-1.766994517e-10
-6.510686881e-11
9.165571344e-06
-1.370391095e-10
-5.017265247e-11
9.165725649e-06
-1.061531226e-10
-3.844137459e-11
9.165848706e-06
-8.559980479e-11
-3.051751706e-11
9.165950116e-06
-6.848828421e-11
-2.328144661e-11
9.16603456e-06
-5.895138366e-11
-2.138408712e-11
9.166108667e-06
-4.784186849e-11
-1.666927347e-11
9.166186472e-06
-5.187873894e-11
-1.812895784e-11
-3.940809779e-11
-1.456705282e-11
9.16661966e-06
6.619986484e-10
2.602690946e-10
9.166008576e-06
2.601952932e-10
1.320286152e-10
9.165702386e-06
1.240599465e-11
2.754503393e-11
9.165584739e-06
-1.113624621e-10
-2.196129286e-11
9.165572056e-06
-1.387760453e-10
-3.31619883e-11
9.165610073e-06
-1.366377112e-10
-3.428267093e-11
9.165668229e-06
-1.215898356e-10
-3.16764382e-11
9.165726879e-06
-1.055486552e-10
-2.86000007e-11
9.165787517e-06
-8.773602692e-11
-2.395523608e-11
9.165841576e-06
-7.454763077e-11
-1.920018221e-11
9.165891318e-06
-6.363043198e-11
-1.782282148e-11
9.16593622e-06
-5.39489736e-11
-1.647766815e-11
9.165982777e-06
-5.704874927e-11
-1.591263052e-11
-4.573714214e-11
-1.303602945e-11
9.166584271e-06
4.347277247e-10
1.433103213e-10
9.166447887e-06
2.306098241e-10
8.346926559e-11
9.166313402e-06
7.491571878e-11
3.484724284e-11
9.166205967e-06
-1.152763345e-11
6.182456592e-12
9.166133879e-06
-4.746187307e-11
-6.362053101e-12
9.16609128e-06
-6.043684962e-11
-1.283356238e-11
9.166063214e-06
-6.317668496e-11
-1.610877618e-11
9.166053388e-06
-5.801617931e-11
-1.574583669e-11
9.166051414e-06
-5.362548024e-11
-1.624105421e-11
9.166056837e-06
-4.441135459e-11
-1.385819154e-11
9.166061641e-06
-4.01190625e-11
-1.346960065e-11
9.166069225e-06
-3.560928641e-11
-1.406006196e-11
9.166080583e-06
-3.681916749e-11
-1.347138659e-11
-3.047333535e-11
-1.133604267e-11
9.166452096e-06
1.190393886e-10
9.166530727e-06
7.472866953e-11
9.166523535e-06
4.090185686e-11
9.166475491e-06
1.926771242e-11
9.166420872e-06
6.74196818e-12
9.166364773e-06
-9.878366124e-13
9.166315833e-06
-4.292182263e-12
9.166272429e-06
-8.329506201e-12
9.166244482e-06
-7.953562928e-12
9.166219507e-06
-1.003267284e-11
9.166198762e-06
-1.065877835e-11
9.166185612e-06
-9.892100227e-12
9.166172891e-06
-1.003911336e-11
-9.546868624e-12