/*--------------------------------*- C++ -*----------------------------------*\
| =========                 |                                                 |
| \\      /  F ield         | OpenFOAM: The Open Source CFD Toolbox           |
|  \\    /   O peration     | Version:  4.x                                   |
|   \\  /    A nd           | Web:      www.OpenFOAM.org                      |
|    \\/     M anipulation  |                                                 |
\*---------------------------------------------------------------------------*/
FoamFile
{
    version     2.0;
    format      ascii;
    class       volScalarField;
    location    "1000";
    object      T;
}
// * * * * * * * * * * * * * * * * * * * * * * * * * * * * * * * * * * * * * //

dimensions      [0 0 0 1 0 0 0];

internalField   nonuniform List<scalar> 
1174
(
1223.15256
1223.153587
1223.15487
1223.156418
1223.158418
1223.160856
1223.16329
1223.16604
1223.168879
1223.171627
1223.174225
1223.176872
1223.179469
1223.18136
1223.152613
1223.153983
1223.155861
1223.158041
1223.160664
1223.163452
1223.166296
1223.169222
1223.17221
1223.17507
1223.177663
1223.180221
1223.182603
1223.184569
1223.15313
1223.155698
1223.158747
1223.162058
1223.165711
1223.169316
1223.172782
1223.176103
1223.179327
1223.182292
1223.184888
1223.187119
1223.189206
1223.190795
1223.156702
1223.160616
1223.16514
1223.169748
1223.174365
1223.178659
1223.182652
1223.186223
1223.189346
1223.191942
1223.194285
1223.196284
1223.19797
1223.199
1223.158535
1223.162733
1223.167685
1223.172693
1223.177487
1223.181652
1223.185535
1223.189054
1223.191879
1223.194512
1223.196592
1223.198282
1223.199752
1223.200758
1223.15665
1223.160393
1223.164684
1223.16915
1223.173614
1223.17782
1223.181628
1223.185088
1223.188183
1223.190968
1223.193347
1223.195245
1223.196749
1223.198002
1223.153311
1223.155724
1223.158924
1223.162267
1223.165774
1223.169566
1223.173107
1223.176429
1223.17955
1223.182428
1223.185067
1223.187482
1223.189591
1223.191099
1223.152166
1223.153523
1223.155472
1223.157778
1223.160424
1223.16333
1223.166224
1223.169304
1223.172365
1223.17537
1223.178185
1223.180649
1223.183162
1223.185076
1223.151629
1223.152525
1223.153872
1223.155486
1223.157476
1223.159785
1223.162273
1223.16486
1223.167525
1223.170393
1223.173244
1223.176092
1223.178596
1223.180513
1223.152999
1223.153898
1223.155338
1223.157387
1223.159685
1223.162328
1223.165203
1223.168107
1223.171022
1223.173917
1223.176808
1223.179679
1223.182209
1223.1843
1223.186002
1223.15504
1223.157582
1223.160551
1223.163885
1223.167326
1223.17095
1223.174233
1223.177384
1223.180398
1223.183294
1223.185786
1223.18817
1223.190091
1223.19164
1223.161728
1223.166305
1223.171389
1223.176337
1223.180991
1223.1849
1223.188596
1223.191837
1223.194453
1223.196541
1223.198425
1223.19989
1223.201146
1223.20216
1223.165888
1223.173447
1223.180852
1223.186971
1223.191917
1223.195911
1223.198818
1223.201081
1223.202892
1223.204101
1223.204989
1223.205707
1223.205979
1223.206101
1223.177302
1223.18629
1223.194192
1223.20019
1223.204669
1223.208153
1223.210409
1223.212074
1223.213112
1223.213829
1223.214116
1223.214272
1223.214223
1223.214256
1223.165641
1223.17341
1223.180473
1223.186647
1223.191653
1223.195609
1223.198779
1223.201158
1223.202651
1223.203843
1223.204693
1223.205297
1223.205808
1223.206067
1223.160971
1223.165559
1223.17064
1223.175694
1223.180111
1223.184324
1223.187944
1223.190995
1223.193568
1223.195619
1223.197187
1223.19862
1223.199871
1223.200785
1223.153594
1223.156076
1223.159074
1223.162328
1223.165705
1223.169129
1223.172309
1223.175381
1223.17833
1223.181065
1223.183534
1223.185905
1223.187554
1223.188933
1223.152092
1223.153561
1223.155387
1223.157755
1223.160341
1223.163157
1223.166145
1223.169128
1223.172196
1223.175327
1223.178015
1223.180728
1223.183081
1223.184967
1223.151754
1223.153523
1223.156116
1223.159079
1223.162653
1223.166303
1223.169921
1223.173582
1223.17715
1223.180359
1223.18326
1223.18596
1223.188337
1223.190394
1223.192008
1223.155695
1223.159501
1223.164049
1223.169279
1223.174331
1223.17879
1223.182623
1223.186148
1223.189188
1223.191834
1223.193953
1223.195639
1223.197178
1223.198289
1223.199204
1223.173628
1223.183438
1223.192019
1223.198963
1223.204133
1223.207933
1223.210276
1223.211772
1223.212513
1223.21285
1223.212947
1223.212932
1223.212629
1223.212487
1223.202069
1223.218028
1223.228939
1223.235308
1223.23817
1223.238575
1223.237508
1223.235666
1223.233535
1223.231217
1223.229073
1223.226949
1223.224698
1223.223198
1223.238967
1223.254715
1223.261175
1223.262041
1223.25977
1223.256023
1223.25152
1223.247158
1223.242809
1223.23889
1223.23514
1223.231736
1223.228793
1223.226885
1223.201162
1223.217107
1223.227763
1223.233922
1223.236799
1223.237339
1223.236325
1223.234418
1223.23217
1223.229875
1223.227523
1223.225285
1223.22321
1223.221582
1223.170218
1223.179823
1223.188463
1223.195367
1223.200742
1223.204404
1223.20689
1223.208438
1223.209211
1223.209626
1223.209524
1223.209456
1223.209233
1223.208968
1223.160122
1223.164741
1223.169725
1223.174718
1223.179401
1223.183559
1223.186917
1223.190156
1223.192823
1223.195067
1223.197063
1223.198629
1223.199868
1223.200698
1223.152509
1223.154998
1223.157996
1223.161306
1223.165063
1223.168686
1223.172136
1223.175467
1223.17859
1223.181582
1223.184126
1223.186457
1223.18853
1223.189894
1223.15343
1223.156387
1223.160161
1223.164556
1223.169019
1223.173455
1223.177741
1223.181554
1223.185046
1223.188087
1223.190784
1223.192941
1223.194954
1223.196693
1223.197786
1223.161078
1223.16807
1223.175793
1223.182973
1223.189244
1223.194418
1223.19866
1223.201659
1223.203927
1223.205588
1223.206746
1223.207651
1223.20822
1223.208592
1223.208711
1223.181352
1223.201173
1223.217158
1223.227892
1223.234156
1223.237099
1223.237663
1223.236715
1223.234695
1223.23254
1223.230301
1223.228057
1223.225896
1223.22387
1223.22242
1223.301149
1223.320437
1223.322883
1223.316668
1223.306193
1223.294972
1223.284088
1223.274155
1223.265304
1223.257584
1223.251116
1223.245343
1223.240619
1223.237243
1223.452781
1223.425896
1223.38638
1223.348852
1223.317323
1223.291759
1223.271095
1223.254314
1223.24086
1223.22965
1223.220539
1223.213024
1223.206854
1223.202696
1223.298865
1223.318012
1223.320567
1223.314133
1223.303956
1223.292846
1223.281925
1223.271817
1223.262871
1223.255272
1223.248811
1223.243206
1223.238641
1223.235223
1223.201366
1223.217284
1223.228083
1223.234237
1223.237149
1223.237644
1223.236591
1223.234888
1223.232482
1223.230106
1223.227804
1223.225347
1223.223365
1223.221758
1223.166325
1223.17383
1223.181111
1223.187214
1223.192266
1223.196209
1223.199274
1223.20163
1223.203347
1223.204554
1223.205439
1223.206177
1223.206855
1223.207035
1223.156543
1223.160319
1223.164585
1223.169064
1223.173687
1223.177898
1223.181689
1223.185054
1223.188189
1223.190759
1223.193021
1223.195133
1223.196741
1223.197997
1223.155705
1223.159523
1223.164057
1223.168857
1223.173759
1223.17857
1223.182616
1223.186534
1223.189997
1223.192837
1223.195269
1223.197289
1223.198989
1223.20025
1223.201361
1223.166043
1223.175658
1223.184649
1223.192124
1223.198217
1223.202801
1223.206041
1223.208365
1223.209995
1223.210771
1223.211367
1223.2118
1223.211734
1223.211666
1223.211589
1223.210737
1223.238941
1223.254582
1223.261128
1223.261984
1223.259552
1223.255671
1223.25124
1223.24683
1223.242526
1223.238664
1223.234987
1223.231648
1223.228719
1223.226589
1223.421491
1223.453242
1223.426435
1223.386954
1223.349555
1223.318154
1223.292617
1223.271874
1223.25529
1223.241733
1223.230656
1223.221531
1223.213833
1223.20764
1223.203124
1207.465757
1207.025067
1206.76929
1206.608851
1206.498634
1206.416815
1206.351816
1206.29686
1206.248646
1206.204732
1206.163972
1206.125608
1206.088857
1206.054024
1223.454139
1223.427373
1223.387835
1223.35032
1223.318711
1223.293029
1223.272511
1223.256008
1223.242395
1223.231139
1223.222194
1223.214742
1223.208627
1223.203883
1223.237999
1223.253554
1223.259864
1223.260659
1223.258331
1223.254683
1223.250418
1223.245846
1223.241657
1223.237582
1223.2339
1223.230485
1223.227543
1223.225476
1223.173932
1223.182867
1223.190485
1223.196626
1223.201112
1223.204538
1223.206794
1223.208487
1223.209422
1223.20988
1223.210154
1223.210113
1223.210084
1223.209898
1223.156751
1223.161235
1223.166187
1223.171274
1223.175954
1223.18036
1223.184228
1223.187533
1223.190521
1223.192831
1223.194942
1223.196724
1223.198124
1223.199113
1223.154571
1223.157474
1223.161299
1223.165566
1223.170065
1223.174669
1223.178704
1223.182751
1223.186232
1223.18923
1223.191858
1223.194087
1223.195981
1223.197532
1223.198743
1223.158631
1223.16571
1223.173386
1223.18033
1223.186455
1223.191561
1223.195507
1223.1986
1223.200936
1223.20275
1223.204158
1223.205213
1223.205642
1223.205858
1223.206274
1223.182815
1223.202422
1223.21843
1223.229177
1223.235412
1223.238185
1223.238621
1223.237657
1223.235602
1223.233439
1223.230982
1223.228567
1223.226344
1223.224242
1223.222756
1223.253945
1223.298762
1223.317741
1223.320124
1223.313663
1223.30334
1223.292132
1223.28138
1223.271479
1223.262629
1223.254993
1223.248484
1223.242842
1223.238104
1223.234773
1223.421067
1223.452766
1223.426012
1223.386631
1223.349021
1223.317652
1223.292056
1223.271349
1223.254637
1223.24104
1223.230119
1223.221022
1223.213349
1223.207167
1223.202615
1223.256732
1223.301482
1223.320701
1223.323204
1223.316941
1223.306654
1223.295318
1223.284372
1223.274397
1223.265617
1223.258035
1223.251398
1223.245627
1223.240885
1223.237589
1223.201409
1223.217189
1223.228003
1223.234331
1223.237077
1223.237506
1223.236621
1223.234789
1223.232659
1223.230149
1223.227822
1223.225572
1223.223541
1223.222134
1223.166973
1223.174685
1223.181912
1223.18828
1223.193192
1223.197142
1223.200194
1223.202562
1223.204196
1223.205591
1223.206465
1223.206937
1223.207368
1223.207633
1223.154695
1223.158397
1223.162802
1223.167402
1223.171985
1223.176257
1223.179972
1223.183586
1223.186673
1223.189208
1223.191448
1223.193418
1223.19506
1223.196178
1223.150625
1223.152358
1223.154923
1223.157872
1223.161408
1223.165035
1223.168626
1223.172153
1223.175459
1223.17845
1223.181405
1223.184329
1223.186646
1223.188612
1223.190198
1223.155542
1223.159182
1223.163736
1223.168902
1223.173846
1223.17833
1223.182265
1223.185841
1223.188938
1223.191741
1223.193775
1223.195319
1223.196906
1223.198285
1223.199339
1223.16187
1223.171126
1223.180885
1223.189401
1223.196332
1223.20163
1223.20554
1223.208013
1223.209467
1223.210326
1223.210685
1223.210814
1223.210747
1223.21054
1223.210105
1223.183015
1223.20285
1223.218915
1223.229622
1223.235782
1223.238529
1223.238888
1223.237768
1223.235954
1223.233528
1223.231232
1223.229102
1223.226878
1223.224652
1223.223046
1223.210586
1223.23869
1223.254207
1223.260649
1223.261439
1223.259183
1223.255363
1223.250982
1223.246532
1223.242062
1223.237944
1223.234249
1223.230947
1223.228203
1223.226225
1223.18023
1223.200049
1223.21587
1223.226922
1223.233083
1223.236005
1223.236534
1223.235486
1223.233605
1223.231339
1223.228823
1223.22651
1223.224462
1223.222504
1223.221083
1223.16146
1223.170931
1223.180679
1223.189095
1223.196093
1223.201314
1223.204902
1223.207373
1223.208664
1223.209361
1223.209822
1223.209791
1223.209557
1223.209342
1223.209029
1223.158102
1223.162957
1223.167932
1223.172965
1223.17754
1223.181658
1223.185323
1223.188318
1223.19085
1223.19293
1223.194775
1223.196453
1223.197778
1223.198787
1223.153318
1223.155706
1223.158912
1223.162261
1223.165902
1223.169666
1223.173197
1223.176678
1223.179853
1223.182658
1223.185269
1223.187697
1223.189692
1223.191222
1223.15111
1223.152091
1223.15358
1223.155519
1223.157739
1223.160241
1223.163031
1223.166006
1223.168951
1223.172067
1223.175006
1223.177828
1223.180396
1223.182542
1223.184329
1223.150679
1223.152651
1223.155274
1223.158087
1223.161424
1223.164983
1223.168325
1223.171658
1223.17477
1223.177796
1223.180486
1223.18274
1223.185155
1223.187187
1223.188713
1223.155563
1223.15934
1223.163928
1223.168828
1223.173946
1223.178572
1223.182637
1223.186074
1223.189188
1223.191798
1223.194017
1223.195978
1223.197535
1223.198859
1223.199869
1223.161491
1223.168663
1223.176532
1223.183576
1223.189902
1223.195166
1223.199111
1223.202017
1223.204338
1223.206126
1223.207341
1223.208313
1223.208789
1223.209192
1223.209395
1223.165997
1223.175579
1223.184642
1223.192233
1223.198227
1223.20296
1223.206204
1223.208601
1223.210171
1223.21126
1223.211723
1223.212153
1223.212186
1223.212123
1223.212006
1223.15888
1223.166058
1223.173698
1223.180674
1223.186886
1223.191995
1223.195918
1223.199018
1223.201251
1223.202794
1223.204044
1223.204817
1223.205466
1223.205644
1223.205738
1223.15361
1223.15735
1223.162056
1223.166997
1223.171882
1223.176423
1223.180726
1223.184348
1223.187235
1223.189855
1223.192076
1223.193699
1223.195364
1223.196605
1223.197403
1223.153186
1223.155167
1223.157454
1223.160501
1223.163933
1223.167249
1223.170749
1223.174061
1223.177258
1223.18021
1223.182785
1223.18542
1223.187801
1223.189867
1223.191242
1223.152947
1223.154334
1223.156238
1223.158498
1223.161122
1223.16391
1223.166972
1223.170095
1223.172973
1223.175893
1223.178726
1223.181227
1223.183672
1223.185566
1223.150824
1223.151478
1223.152388
1223.153862
1223.155491
1223.157366
1223.159734
1223.162188
1223.164983
1223.167685
1223.170618
1223.17338
1223.176117
1223.178668
1223.180553
1223.151619
1223.152576
1223.154026
1223.155818
1223.157969
1223.160699
1223.16351
1223.166574
1223.169611
1223.172588
1223.175441
1223.17821
1223.180866
1223.183134
1223.184862
1223.154279
1223.156094
1223.158406
1223.161436
1223.164856
1223.16867
1223.172549
1223.176063
1223.179267
1223.182387
1223.185151
1223.187707
1223.189969
1223.192003
1223.193507
1223.153939
1223.157125
1223.160895
1223.16526
1223.169852
1223.174256
1223.178381
1223.182311
1223.18562
1223.188727
1223.191319
1223.193726
1223.195698
1223.197302
1223.198197
1223.155259
1223.15898
1223.163653
1223.168562
1223.173438
1223.17831
1223.182505
1223.186502
1223.189865
1223.192905
1223.195515
1223.197466
1223.19928
1223.200875
1223.201727
1223.153441
1223.156348
1223.160052
1223.164509
1223.169012
1223.173411
1223.177581
1223.181455
1223.184934
1223.188117
1223.190795
1223.193158
1223.195072
1223.196657
1223.197784
1223.149311
1223.151118
1223.153606
1223.15666
1223.160167
1223.163827
1223.167465
1223.170975
1223.174418
1223.177542
1223.18033
1223.182961
1223.18515
1223.187171
1223.188514
1223.15107
1223.151888
1223.153237
1223.155104
1223.157337
1223.160009
1223.162754
1223.165892
1223.168774
1223.171977
1223.174672
1223.177489
1223.18012
1223.182404
1223.183952
1223.151031
1223.151612
1223.152588
1223.15392
1223.155561
1223.157511
1223.159896
1223.162307
1223.164988
1223.167784
1223.170498
1223.173252
1223.175863
1223.178433
1223.180284
)
;

boundaryField
{
    top
    {
        type            zeroGradient;
    }
    bottom
    {
        type            zeroGradient;
    }
    side-walls
    {
        type            zeroGradient;
    }
    inlet
    {
        type            zeroGradient;
    }
    outlet
    {
        type            zeroGradient;
    }
    procBoundary1to0
    {
        type            processor;
        value           nonuniform List<scalar> 
97
(
1223.152121
1223.152121
1223.151587
1223.151523
1223.153765
1223.154849
1223.153775
1223.15149
1223.150935
1223.150971
1223.152465
1223.153272
1223.153272
1223.153272
1223.158108
1223.158791
1223.167636
1223.158519
1223.157021
1223.151727
1223.151123
1223.150622
1223.153047
1223.164371
1223.164371
1223.164371
1223.182267
1223.210884
1223.181372
1223.161076
1223.156351
1223.150705
1223.151297
1223.155889
1223.162828
1223.256537
1223.256537
1223.256537
1223.421562
1223.254158
1223.181492
1223.159314
1223.153656
1223.153027
1223.15786
1223.172442
1223.235057
1208.274329
1208.274329
1208.274329
1223.423033
1223.423033
1223.209755
1223.164125
1223.153024
1223.152548
1223.153253
1223.164317
1223.186548
1223.234325
1223.189018
1223.181636
1223.181636
1223.181636
1223.159966
1223.151769
1223.149654
1223.152708
1223.154775
1223.164507
1223.172407
1223.161619
1223.154469
1223.154555
1223.154555
1223.154555
1223.151579
1223.150535
1223.149668
1223.152902
1223.156095
1223.157934
1223.15369
1223.150868
1223.152032
1223.152049
1223.152049
1223.152049
1223.150499
1223.150884
1223.153133
1223.152207
1223.152762
1223.151266
1223.148026
1223.150699
1223.150634
)
;
    }
}


// ************************************************************************* //
