/*--------------------------------*- C++ -*----------------------------------*\
| =========                 |                                                 |
| \\      /  F ield         | OpenFOAM: The Open Source CFD Toolbox           |
|  \\    /   O peration     | Version:  4.x                                   |
|   \\  /    A nd           | Web:      www.OpenFOAM.org                      |
|    \\/     M anipulation  |                                                 |
\*---------------------------------------------------------------------------*/
FoamFile
{
    version     2.0;
    format      ascii;
    class       volVectorField;
    location    "1000";
    object      U;
}
// * * * * * * * * * * * * * * * * * * * * * * * * * * * * * * * * * * * * * //

dimensions      [0 1 -1 0 0 0 0];

internalField   nonuniform List<vector> 
1174
(
(0.0110007236 -5.275183705e-08 -5.246740095e-08)
(0.01100086904 -4.610195501e-08 -4.611227019e-08)
(0.01100099111 -3.342208497e-08 -3.298089053e-08)
(0.01100103888 -2.268358069e-08 -2.373155501e-08)
(0.0110010284 -1.450663328e-08 -1.370636337e-08)
(0.0110009711 -6.309589572e-09 -5.875430639e-09)
(0.01100087759 -6.146754813e-10 -4.382626708e-11)
(0.01100076232 3.804547057e-09 4.653199121e-09)
(0.01100062622 7.860036621e-09 6.154872961e-09)
(0.01100048102 7.161285368e-09 1.038021996e-08)
(0.01100033285 1.074439303e-08 1.131397209e-08)
(0.01100017743 9.937296492e-09 8.962487998e-09)
(0.01100005196 1.202084536e-08 1.305769172e-08)
(0.01099990085 9.958903678e-09 1.164306485e-08)
(0.01100074968 -1.916289179e-07 -6.370708318e-08)
(0.01100085584 -1.671464972e-07 -5.658686896e-08)
(0.01100095243 -1.246811076e-07 -3.925477897e-08)
(0.01100095151 -8.288067549e-08 -2.309830685e-08)
(0.011000893 -4.919071119e-08 -9.327277173e-09)
(0.0110007893 -2.358564517e-08 9.24723238e-10)
(0.01100065845 -3.549519897e-09 7.381998337e-09)
(0.01100051194 1.071390084e-08 1.065203339e-08)
(0.01100035691 1.835702684e-08 1.225743404e-08)
(0.01100020145 2.365788056e-08 1.429824238e-08)
(0.01100005237 2.728864218e-08 1.457179211e-08)
(0.01099990189 2.731242912e-08 1.309966441e-08)
(0.01099978292 3.392215488e-08 1.611124255e-08)
(0.01099964783 3.119629762e-08 1.453750225e-08)
(0.01100078588 -2.005720072e-07 -1.156697789e-07)
(0.0110008321 -1.69242524e-07 -9.405718717e-08)
(0.01100086547 -1.15218114e-07 -5.573337029e-08)
(0.01100077394 -6.780908159e-08 -2.88494164e-08)
(0.01100062962 -3.201253932e-08 -2.959941251e-09)
(0.01100045153 -4.02878354e-09 1.008311384e-08)
(0.01100026544 1.246311385e-08 1.502122987e-08)
(0.01100008233 2.308916516e-08 1.888975737e-08)
(0.01099991052 2.874950832e-08 1.948274924e-08)
(0.01099974955 3.257549469e-08 1.942956603e-08)
(0.01099961175 3.302423959e-08 1.930608425e-08)
(0.01099947724 3.400023106e-08 1.739823061e-08)
(0.01099937485 4.012258369e-08 1.870622533e-08)
(0.01099926543 3.663676314e-08 1.503917822e-08)
(0.01100083245 -2.714361022e-07 -1.028056046e-07)
(0.01100071922 -1.782571745e-07 -8.807681666e-08)
(0.01100066427 -1.012029528e-07 -4.227878061e-08)
(0.01100048653 -4.690928466e-08 -7.044324348e-09)
(0.01100026946 -1.499816692e-08 1.287332866e-08)
(0.01100004348 5.101619518e-09 2.678618928e-08)
(0.01099982657 1.549452247e-08 3.169537261e-08)
(0.01099963232 2.154125652e-08 3.17321611e-08)
(0.01099946117 2.384576607e-08 3.06765728e-08)
(0.01099931538 2.524755398e-08 2.872941877e-08)
(0.01099918999 2.742664201e-08 2.571871949e-08)
(0.01099908418 2.509843304e-08 2.154219122e-08)
(0.01099900369 2.708063393e-08 2.264012323e-08)
(0.01099892099 2.449766812e-08 1.983107102e-08)
(0.01100098694 -2.61511963e-09 -2.127377063e-07)
(0.0110007486 -2.049018788e-09 -1.220816497e-07)
(0.01100060778 -7.899077924e-10 -4.275354103e-08)
(0.01100036263 2.529300898e-10 3.87453233e-09)
(0.01100010254 1.11062628e-09 2.585861208e-08)
(0.01099985169 -5.679687499e-10 3.505655846e-08)
(0.01099962451 1.926444033e-09 3.533197436e-08)
(0.01099943585 4.658598908e-10 3.441728808e-08)
(0.01099926466 1.244224606e-09 3.207786504e-08)
(0.01099913081 1.864847102e-09 2.991329645e-08)
(0.01099901556 1.364903498e-09 2.620732905e-08)
(0.01099892091 1.27202224e-09 2.036370649e-08)
(0.0109988531 3.391583445e-09 2.298516375e-08)
(0.01099878786 1.78291338e-09 1.65753521e-08)
(0.01100083154 2.683437471e-07 -1.026186391e-07)
(0.01100072005 1.768151378e-07 -8.787917541e-08)
(0.01100066703 9.986548536e-08 -4.149967711e-08)
(0.01100048673 4.729741092e-08 -6.559075532e-09)
(0.01100026748 1.419579194e-08 1.489551401e-08)
(0.01100004245 -4.921327594e-09 2.768673522e-08)
(0.01099982725 -1.635355389e-08 3.059537013e-08)
(0.01099963177 -2.106081717e-08 3.214081953e-08)
(0.01099946117 -2.364287739e-08 3.129604022e-08)
(0.01099931422 -2.431338678e-08 2.827542779e-08)
(0.01099919325 -2.350432268e-08 2.550321333e-08)
(0.01099908469 -2.345911265e-08 2.271736046e-08)
(0.01099900198 -2.652730566e-08 2.209655818e-08)
(0.01099892386 -2.390900229e-08 1.822311731e-08)
(0.01100078533 1.998357353e-07 -1.126515953e-07)
(0.0110008331 1.679274264e-07 -9.098512229e-08)
(0.01100086609 1.165763398e-07 -5.491126318e-08)
(0.01100077697 6.92372857e-08 -2.504895709e-08)
(0.01100062811 3.141602976e-08 -4.694333146e-09)
(0.01100045063 5.213122984e-09 7.972987846e-09)
(0.01100026528 -1.527912512e-08 1.785104909e-08)
(0.01100008251 -2.479729399e-08 2.190668185e-08)
(0.01099991088 -3.043861447e-08 2.28617505e-08)
(0.01099975414 -3.296975965e-08 2.172085514e-08)
(0.01099961305 -3.617703948e-08 1.9913501e-08)
(0.01099947906 -3.290859237e-08 1.806229618e-08)
(0.01099937542 -4.152327595e-08 2.021884497e-08)
(0.0109992697 -3.675779393e-08 1.676741564e-08)
(0.01100074856 1.910375619e-07 -6.323576307e-08)
(0.01100085873 1.687805339e-07 -5.606794325e-08)
(0.01100095483 1.250426793e-07 -3.881594646e-08)
(0.01100095053 7.928901302e-08 -2.364617044e-08)
(0.01100089265 4.718176301e-08 -1.279759284e-08)
(0.01100078704 2.137380216e-08 -1.54855524e-09)
(0.01100065603 3.659864757e-09 7.370850391e-09)
(0.01100051252 -9.977080185e-09 1.259453085e-08)
(0.01100035669 -1.933163555e-08 1.471445156e-08)
(0.01100020325 -2.398958547e-08 1.538975455e-08)
(0.01100005353 -2.820731926e-08 1.513870251e-08)
(0.01099990297 -2.963629268e-08 1.341645723e-08)
(0.01099978301 -3.325867598e-08 1.75269347e-08)
(0.01099964885 -3.02092114e-08 1.54440491e-08)
(0.01100072486 5.226119573e-08 -5.152249132e-08)
(0.01100087009 4.448487667e-08 -4.741795961e-08)
(0.01100099336 3.262638901e-08 -3.439701876e-08)
(0.01100103632 2.174523007e-08 -2.286210656e-08)
(0.01100102901 1.208635667e-08 -1.569270488e-08)
(0.01100097142 5.282679668e-09 -6.818687627e-09)
(0.01100087669 6.492592873e-10 -4.984477509e-10)
(0.01100076029 -5.895042203e-09 5.849508086e-09)
(0.01100062506 -7.894092585e-09 7.478115311e-09)
(0.01100048131 -8.706709392e-09 8.783871454e-09)
(0.01100033351 -9.30139681e-09 1.197919965e-08)
(0.01100017923 -1.088015946e-08 1.075418666e-08)
(0.01100005091 -1.180321405e-08 1.342563346e-08)
(0.01099989991 -1.091414651e-08 1.235589232e-08)
(0.01100040084 -1.113525622e-07 -2.540766152e-07)
(0.01100074704 -6.335850498e-08 -1.914215689e-07)
(0.0110008589 -5.645111154e-08 -1.66704813e-07)
(0.01100095127 -3.805686538e-08 -1.225806641e-07)
(0.01100095285 -2.199081397e-08 -8.117780889e-08)
(0.01100089462 -9.736611419e-09 -5.000707017e-08)
(0.01100079282 -1.581525153e-09 -2.114081129e-08)
(0.01100065799 6.970775267e-09 -2.911915337e-09)
(0.0110005111 1.150793324e-08 1.128034002e-08)
(0.01100035676 1.361873873e-08 2.092295301e-08)
(0.0110002019 1.446815912e-08 2.463664908e-08)
(0.01100005424 1.664202203e-08 2.796230133e-08)
(0.01099990455 1.475293106e-08 3.032053696e-08)
(0.01099978459 1.642373265e-08 3.486973002e-08)
(0.01099964392 1.347320075e-08 3.011853135e-08)
(0.0110007749 -2.575867989e-07 -2.602072511e-07)
(0.01100079457 -2.165732834e-07 -2.163002737e-07)
(0.01100082294 -1.470251442e-07 -1.454786951e-07)
(0.01100074153 -8.57196297e-08 -8.504847106e-08)
(0.011000613 -4.016033507e-08 -3.864885347e-08)
(0.01100045651 -6.269652559e-09 -4.672600988e-09)
(0.01100028734 1.688601197e-08 1.77143927e-08)
(0.01100012292 3.098889378e-08 2.959244075e-08)
(0.01099996366 3.733895716e-08 3.615868372e-08)
(0.01099981589 4.101033807e-08 4.016796175e-08)
(0.01099967976 4.080904035e-08 4.060441074e-08)
(0.01099955448 4.042961692e-08 4.060151268e-08)
(0.01099945338 4.434011674e-08 4.340391967e-08)
(0.01099934285 3.97798524e-08 3.919571192e-08)
(0.0110008037 -2.455006717e-07 -4.710934404e-07)
(0.01100061749 -2.067158477e-07 -3.572439853e-07)
(0.01100050642 -1.229728606e-07 -2.020604577e-07)
(0.01100027531 -4.977479133e-08 -8.718700306e-08)
(0.01100003293 -2.938553286e-09 -1.681572547e-08)
(0.01099980388 2.761606131e-08 2.836409572e-08)
(0.01099960162 4.354177482e-08 5.156104195e-08)
(0.01099943599 4.891712755e-08 6.151327236e-08)
(0.01099929492 5.273307582e-08 6.369094353e-08)
(0.01099917703 5.080878059e-08 6.308991046e-08)
(0.01099908263 5.000302193e-08 5.963767422e-08)
(0.01099900426 4.69870106e-08 5.41652417e-08)
(0.01099894297 5.020931867e-08 5.681581768e-08)
(0.01099888295 4.437619196e-08 4.924775764e-08)
(0.01100072204 -3.837634575e-07 -5.134485163e-07)
(0.01100011416 -2.170136797e-07 -3.818588067e-07)
(0.01099985242 -9.227137956e-08 -1.679863626e-07)
(0.01099951297 -1.590025315e-08 -2.521190832e-08)
(0.01099921801 1.96254225e-08 4.760549169e-08)
(0.01099899003 3.626597238e-08 8.519646968e-08)
(0.01099881485 4.19901985e-08 9.825565473e-08)
(0.01099869311 4.313271029e-08 9.764702114e-08)
(0.01099860851 4.183603352e-08 9.088038913e-08)
(0.01099854992 3.922909063e-08 8.101626698e-08)
(0.01099850843 3.662482257e-08 7.342376248e-08)
(0.01099848819 3.251568772e-08 6.475361992e-08)
(0.01099847762 3.549924104e-08 6.79856846e-08)
(0.0109984651 2.922212263e-08 5.408442504e-08)
(0.01100094391 -1.543237064e-09 -9.522312807e-07)
(0.01099988689 -9.484325193e-10 -5.082935381e-07)
(0.0109994781 -1.935162833e-09 -1.661814446e-07)
(0.01099907986 -5.055413364e-10 1.642892622e-08)
(0.01099878119 2.252654247e-10 8.937070321e-08)
(0.01099857826 1.729343025e-10 1.149165868e-07)
(0.01099843881 4.211349818e-10 1.192432099e-07)
(0.01099835774 2.703815826e-10 1.101250102e-07)
(0.01099830422 6.665088419e-10 9.859995295e-08)
(0.0109982813 1.191226802e-09 8.579340465e-08)
(0.01099826994 1.053089396e-09 7.79077159e-08)
(0.01099827408 5.45126156e-10 6.852149079e-08)
(0.01099828455 2.07325811e-09 7.195955616e-08)
(0.01099829963 1.384707773e-10 5.763826378e-08)
(0.01100072146 3.798250093e-07 -5.115226559e-07)
(0.01100011813 2.154993054e-07 -3.791826535e-07)
(0.01099985147 9.214706121e-08 -1.68659604e-07)
(0.01099951152 1.546427809e-08 -2.604428409e-08)
(0.01099921712 -2.073550428e-08 4.644108365e-08)
(0.01099898878 -3.661828684e-08 8.571786754e-08)
(0.01099881693 -4.40341394e-08 9.697316694e-08)
(0.01099869734 -4.380930736e-08 9.642949854e-08)
(0.01099860739 -4.184038471e-08 8.94739591e-08)
(0.01099854677 -4.022066409e-08 7.958313032e-08)
(0.01099850975 -3.686018862e-08 7.192113737e-08)
(0.0109984882 -3.233437882e-08 6.376225873e-08)
(0.01099847683 -3.597865224e-08 6.67912381e-08)
(0.01099846704 -3.048295787e-08 5.446246206e-08)
(0.01100080081 2.463377656e-07 -4.699477147e-07)
(0.01100062018 2.077302355e-07 -3.566563665e-07)
(0.01100050594 1.226079313e-07 -2.024190596e-07)
(0.01100027632 5.083635871e-08 -8.902110074e-08)
(0.01100003079 3.40518418e-09 -1.835108534e-08)
(0.01099980299 -2.85269651e-08 2.861069782e-08)
(0.01099960364 -4.115150402e-08 5.178636804e-08)
(0.01099943602 -4.938924594e-08 6.121961994e-08)
(0.01099929346 -5.230906841e-08 6.368034526e-08)
(0.01099917987 -4.999328351e-08 6.099724903e-08)
(0.01099908313 -4.755315446e-08 5.857955729e-08)
(0.01099900429 -4.484673929e-08 5.292938049e-08)
(0.01099894448 -4.832132001e-08 5.620066293e-08)
(0.01099888519 -4.17818038e-08 4.791961081e-08)
(0.01100077476 2.592026467e-07 -2.573682866e-07)
(0.01100079532 2.163540532e-07 -2.166980653e-07)
(0.01100082401 1.470452984e-07 -1.469639641e-07)
(0.01100074151 8.405148405e-08 -8.544083566e-08)
(0.01100061136 3.73293318e-08 -3.911335516e-08)
(0.01100045534 5.679886526e-09 -5.170753963e-09)
(0.01100028637 -1.753159419e-08 1.924268988e-08)
(0.01100011972 -2.938775858e-08 3.066677575e-08)
(0.01099996412 -3.772799583e-08 3.841279754e-08)
(0.01099981488 -3.987583281e-08 3.986757862e-08)
(0.0109996786 -4.096361534e-08 4.302386048e-08)
(0.01099955436 -4.183857612e-08 4.063636433e-08)
(0.01099945184 -4.347379285e-08 4.42900042e-08)
(0.01099934342 -3.837084348e-08 3.792565954e-08)
(0.01100074834 6.382263418e-08 -1.906691009e-07)
(0.01100085887 5.528096728e-08 -1.66270447e-07)
(0.01100095071 3.995405414e-08 -1.218346377e-07)
(0.01100094979 2.20854126e-08 -8.291032098e-08)
(0.01100089375 9.775398767e-09 -4.658432517e-08)
(0.01100078953 -1.071173272e-09 -2.173769221e-08)
(0.01100065844 -8.164390498e-09 -2.316159349e-09)
(0.01100051057 -1.246775926e-08 1.282059541e-08)
(0.01100035684 -1.348254766e-08 2.123227155e-08)
(0.01100020352 -1.399470792e-08 2.428733873e-08)
(0.01100005469 -1.287274486e-08 2.738091171e-08)
(0.01099990177 -1.283639307e-08 3.100015306e-08)
(0.01099978523 -1.657997637e-08 3.304520865e-08)
(0.01099964688 -1.366896065e-08 3.107303284e-08)
(0.01100032033 -2.153791591e-07 -3.29217063e-07)
(0.0110007832 -1.102494537e-07 -2.004251998e-07)
(0.01100083306 -9.012252835e-08 -1.687968578e-07)
(0.01100086379 -5.219226801e-08 -1.149548235e-07)
(0.01100077483 -2.354313406e-08 -6.581132814e-08)
(0.01100062912 -3.628026974e-09 -2.810678909e-08)
(0.01100045283 1.193905269e-08 -4.260773475e-09)
(0.01100026682 1.812097188e-08 1.531224157e-08)
(0.01100008513 2.38052625e-08 2.374379357e-08)
(0.01099991036 2.311588355e-08 2.945541095e-08)
(0.01099975076 2.343793459e-08 3.225215497e-08)
(0.01099961329 2.238452657e-08 3.428578907e-08)
(0.01099947929 2.175144154e-08 3.393631705e-08)
(0.01099937638 2.344473151e-08 4.067882711e-08)
(0.01099926434 2.138419537e-08 3.569814555e-08)
(0.01100021885 -8.278679332e-07 -5.500509599e-07)
(0.01100080062 -4.710758559e-07 -2.471388141e-07)
(0.01100061602 -3.574024431e-07 -2.089119035e-07)
(0.01100050407 -2.025754212e-07 -1.221273174e-07)
(0.01100027569 -8.838154203e-08 -4.900492465e-08)
(0.01100003359 -1.538217398e-08 -1.226569164e-09)
(0.01099980078 2.869232831e-08 2.788647297e-08)
(0.01099960378 5.213750125e-08 4.344602236e-08)
(0.01099943387 6.168146947e-08 4.992074823e-08)
(0.010999295 6.422677782e-08 5.233643736e-08)
(0.01099917717 6.250917964e-08 4.965767567e-08)
(0.01099908381 6.049978751e-08 4.850551502e-08)
(0.01099900471 5.384647531e-08 4.670198115e-08)
(0.01099894259 5.674267663e-08 5.164315329e-08)
(0.01099888216 4.843455462e-08 4.324054985e-08)
(0.01100067062 -4.684353219e-07 -4.73463597e-07)
(0.01099993953 -3.476225784e-07 -3.477134082e-07)
(0.01099952634 -1.453978683e-07 -1.452125306e-07)
(0.01099906819 -1.04670449e-08 -1.192946412e-08)
(0.01099872253 5.589449503e-08 5.658479578e-08)
(0.01099848766 8.794310082e-08 8.589158516e-08)
(0.01099833938 9.685750712e-08 9.477808999e-08)
(0.0109982587 9.290931424e-08 9.34960214e-08)
(0.01099822239 8.603838388e-08 8.689483764e-08)
(0.01099821337 7.814145651e-08 7.543450891e-08)
(0.01099822397 7.033087404e-08 6.84300206e-08)
(0.01099824567 6.239360281e-08 5.999825501e-08)
(0.01099826866 6.433404916e-08 6.27811774e-08)
(0.01099829684 5.450268531e-08 5.09997364e-08)
(0.01099980677 -7.837557363e-07 -1.788874555e-07)
(0.01099803753 -3.503874194e-07 -2.556809715e-07)
(0.01099747925 -7.556734251e-08 -2.324127641e-09)
(0.01099702562 5.474736283e-08 1.41126431e-07)
(0.01099681448 9.301742761e-08 1.80475575e-07)
(0.01099678022 9.676606893e-08 1.805961446e-07)
(0.01099684185 8.932894589e-08 1.650069169e-07)
(0.01099696118 7.797359772e-08 1.413704805e-07)
(0.01099710028 6.660732916e-08 1.207694057e-07)
(0.01099725023 5.577519687e-08 9.870387369e-08)
(0.01099739143 4.949877186e-08 8.509957019e-08)
(0.01099753071 4.169956477e-08 7.275226007e-08)
(0.01099764768 4.660829231e-08 7.496263507e-08)
(0.01099776091 3.643400898e-08 6.178259596e-08)
(0.01099949982 -1.516673081e-10 -1.67795957e-07)
(0.01099647185 -3.146541094e-10 -1.514571643e-07)
(0.01099591668 -1.91816607e-09 1.396477708e-07)
(0.01099565259 -1.235555046e-09 2.730086892e-07)
(0.01099567078 -6.966611648e-10 2.648212035e-07)
(0.0109958555 5.846831136e-11 2.327091367e-07)
(0.01099609301 9.394177368e-11 1.93977724e-07)
(0.01099635189 -4.353922319e-10 1.585068045e-07)
(0.01099660119 1.732869351e-10 1.296319034e-07)
(0.01099683395 -6.597736242e-10 1.058394224e-07)
(0.0109970402 1.592118637e-09 8.959433346e-08)
(0.01099723462 3.129630303e-10 7.629483087e-08)
(0.01099738992 1.386640975e-10 7.825146108e-08)
(0.01099755011 -1.857229024e-10 6.451429132e-08)
(0.01099980774 7.819794188e-07 -1.753856661e-07)
(0.0109980388 3.485415278e-07 -2.550512177e-07)
(0.01099747852 7.55362957e-08 -9.869917675e-10)
(0.0109970226 -5.477905158e-08 1.414418144e-07)
(0.01099681404 -9.138350977e-08 1.814750677e-07)
(0.01099677984 -9.727617059e-08 1.822877751e-07)
(0.01099684369 -8.955738177e-08 1.637480513e-07)
(0.01099696212 -7.711780711e-08 1.423937916e-07)
(0.01099710255 -6.656476131e-08 1.169235706e-07)
(0.01099724952 -5.513600474e-08 9.816556516e-08)
(0.01099739325 -5.007450104e-08 8.45361724e-08)
(0.01099752922 -4.298885758e-08 7.174402412e-08)
(0.01099764753 -4.473313989e-08 7.379560846e-08)
(0.0109977637 -3.528019858e-08 6.148316408e-08)
(0.01100066895 4.711814348e-07 -4.712289916e-07)
(0.01099993863 3.482929533e-07 -3.480472541e-07)
(0.01099952795 1.453639256e-07 -1.460066143e-07)
(0.01099906907 1.168602271e-08 -1.089770723e-08)
(0.0109987234 -5.865456346e-08 5.769308e-08)
(0.01099848761 -8.845026683e-08 8.859637897e-08)
(0.01099833742 -9.604756111e-08 9.778087055e-08)
(0.01099826029 -9.417281828e-08 9.350881297e-08)
(0.01099822006 -8.693231189e-08 8.636943192e-08)
(0.01099821459 -7.658433487e-08 7.810918765e-08)
(0.01099822458 -6.802331856e-08 6.949580085e-08)
(0.01099824621 -5.911085861e-08 6.195783707e-08)
(0.01099827105 -6.38409969e-08 6.413350798e-08)
(0.01099829435 -5.29829589e-08 5.248068131e-08)
(0.01100079964 4.710997205e-07 -2.455070682e-07)
(0.01100061865 3.562861687e-07 -2.068647964e-07)
(0.01100050413 2.027494845e-07 -1.202963641e-07)
(0.01100027407 8.794383377e-08 -4.954311026e-08)
(0.01100003247 1.588007325e-08 -2.989834808e-09)
(0.01099980596 -2.884598672e-08 2.904440022e-08)
(0.01099959993 -5.224068632e-08 4.253310323e-08)
(0.01099943362 -6.076239082e-08 4.963330552e-08)
(0.01099929328 -6.312840388e-08 5.174695123e-08)
(0.01099917703 -6.059100152e-08 5.018993395e-08)
(0.01099908491 -5.760437204e-08 4.845068772e-08)
(0.01099900186 -5.298133196e-08 4.761351731e-08)
(0.01099894504 -5.607889143e-08 5.046154245e-08)
(0.01099888083 -4.899940402e-08 4.248580484e-08)
(0.0110007872 1.131192995e-07 -2.001461596e-07)
(0.01100083355 9.206096105e-08 -1.673918812e-07)
(0.01100086631 5.448133491e-08 -1.145631713e-07)
(0.01100077466 2.424807369e-08 -6.437656155e-08)
(0.01100062908 3.953930773e-09 -3.020963676e-08)
(0.01100045399 -9.987959966e-09 -3.431837712e-09)
(0.01100026553 -1.792755192e-08 1.347328267e-08)
(0.01100008261 -2.104409946e-08 2.26818827e-08)
(0.01099991065 -2.037189135e-08 2.941261144e-08)
(0.01099975545 -2.142986872e-08 3.132510776e-08)
(0.01099961115 -1.977434513e-08 3.355141403e-08)
(0.01099947688 -1.81682661e-08 3.598810254e-08)
(0.01099937479 -2.175990446e-08 3.837221266e-08)
(0.010999264 -1.725371684e-08 3.423478541e-08)
(0.01100028894 -3.187490992e-07 -4.78098435e-07)
(0.0110008318 -1.010461766e-07 -2.680272335e-07)
(0.01100072038 -8.786540066e-08 -1.78109928e-07)
(0.01100066721 -4.071766821e-08 -1.008626417e-07)
(0.01100048524 -4.777166928e-09 -4.508436779e-08)
(0.01100026874 1.887024942e-08 -1.452526919e-08)
(0.01100004075 2.902601004e-08 6.440090997e-09)
(0.01099982479 3.30277107e-08 1.51964345e-08)
(0.01099963402 3.326818372e-08 2.027474561e-08)
(0.01099945942 3.175353401e-08 2.319063217e-08)
(0.01099931232 2.744685782e-08 2.486282473e-08)
(0.01099918917 2.601118493e-08 2.491990837e-08)
(0.01099908471 2.449934486e-08 2.437599219e-08)
(0.01099900318 2.498117553e-08 2.698584826e-08)
(0.01099892248 2.104416158e-08 2.560785754e-08)
(0.01100014034 -1.325860143e-06 -9.871752309e-07)
(0.0110007208 -5.14301812e-07 -3.810126169e-07)
(0.01100011636 -3.832647833e-07 -2.177609074e-07)
(0.01099985195 -1.679544955e-07 -9.29095031e-08)
(0.01099951046 -2.655576922e-08 -1.696042679e-08)
(0.01099921732 4.627507937e-08 1.881077225e-08)
(0.01099898608 8.351143133e-08 3.728640469e-08)
(0.01099881652 9.644235965e-08 4.057629515e-08)
(0.01099869285 9.726045274e-08 4.195589871e-08)
(0.01099860645 9.16413314e-08 4.114620706e-08)
(0.01099854865 8.225098765e-08 3.831610901e-08)
(0.01099851141 7.310021844e-08 3.542760863e-08)
(0.0109984879 6.512731284e-08 3.189586914e-08)
(0.01099847675 6.81953637e-08 3.402648957e-08)
(0.01099846623 5.541652274e-08 2.93659166e-08)
(0.01099922213 -2.043342479e-06 -2.760252305e-06)
(0.01099980626 -1.765976854e-07 -7.842651581e-07)
(0.01099804026 -2.534720431e-07 -3.514658414e-07)
(0.0109974787 -1.309790724e-09 -7.52966725e-08)
(0.01099702223 1.39135412e-07 5.444442107e-08)
(0.01099681143 1.782546482e-07 9.144860514e-08)
(0.01099677864 1.812499702e-07 9.714656437e-08)
(0.01099684461 1.654290409e-07 8.856229988e-08)
(0.01099696023 1.433457941e-07 7.662818484e-08)
(0.01099710033 1.204360499e-07 6.510816764e-08)
(0.01099725104 1.009548714e-07 5.655375172e-08)
(0.01099739181 8.66888895e-08 4.825614529e-08)
(0.01099753006 7.244881696e-08 4.153569106e-08)
(0.0109976456 7.390515472e-08 4.293902208e-08)
(0.01099776201 6.201315492e-08 3.508348903e-08)
(0.01099512639 -8.251799081e-08 -8.379660439e-08)
(0.01099185261 -2.376985658e-08 -2.422735948e-08)
(0.01099220789 1.878907842e-07 1.907549994e-07)
(0.01099256056 2.665269161e-07 2.673462049e-07)
(0.01099313942 2.328764723e-07 2.32177875e-07)
(0.01099380811 1.863232995e-07 1.85446354e-07)
(0.0109944427 1.445821078e-07 1.433240556e-07)
(0.01099501227 1.08656844e-07 1.105256422e-07)
(0.01099550457 8.555599011e-08 8.589062778e-08)
(0.01099593466 7.043025861e-08 6.927178894e-08)
(0.01099630022 6.016410301e-08 5.857882106e-08)
(0.01099662088 4.960910665e-08 4.809592451e-08)
(0.01099687903 5.304032253e-08 4.865477937e-08)
(0.01099712394 4.194873437e-08 4.090549629e-08)
(0.01098893659 1.754287756e-10 4.182929444e-07)
(0.0109841507 -1.0919693e-09 4.817810543e-07)
(0.0109870555 -1.309387674e-09 4.343177746e-07)
(0.01098906013 -8.527026905e-11 4.311209837e-07)
(0.01099070109 -1.760341873e-09 3.129891953e-07)
(0.01099208526 -1.367883463e-09 2.190606438e-07)
(0.0109931877 3.374859649e-10 1.573109373e-07)
(0.01099407148 -1.305783615e-10 1.167737425e-07)
(0.01099478218 6.17688314e-10 9.057309422e-08)
(0.01099535887 3.087604893e-10 7.2110287e-08)
(0.01099583337 2.683896762e-10 6.00364756e-08)
(0.01099624453 8.252395342e-10 4.788121653e-08)
(0.01099655867 1.292748132e-09 5.207352006e-08)
(0.01099687305 3.455762794e-10 3.003442695e-08)
(0.01099512699 8.317757302e-08 -8.345568038e-08)
(0.01099185031 2.203910178e-08 -2.346988561e-08)
(0.01099220954 -1.897546615e-07 1.914775614e-07)
(0.01099255878 -2.666730153e-07 2.665920263e-07)
(0.0109931391 -2.312502369e-07 2.329683692e-07)
(0.01099380938 -1.848712806e-07 1.857959855e-07)
(0.01099444156 -1.427008746e-07 1.445956201e-07)
(0.0109950094 -1.100983868e-07 1.1023235e-07)
(0.0109955046 -8.814610506e-08 8.764241718e-08)
(0.01099593542 -7.000243524e-08 6.883361171e-08)
(0.01099629987 -5.986974446e-08 5.869406458e-08)
(0.01099662091 -5.018351208e-08 4.901118737e-08)
(0.01099687599 -5.282976896e-08 5.104477652e-08)
(0.01099712692 -4.147558226e-08 4.225221378e-08)
(0.01099980493 1.757012865e-07 -7.833253807e-07)
(0.01099803777 2.552719164e-07 -3.499421871e-07)
(0.01099747859 2.359405782e-09 -7.291521801e-08)
(0.01099702243 -1.409195655e-07 5.458788123e-08)
(0.01099681237 -1.808207486e-07 9.254756891e-08)
(0.01099678067 -1.824362047e-07 9.857415752e-08)
(0.01099684212 -1.656270515e-07 8.971050218e-08)
(0.01099696204 -1.41957242e-07 7.761521274e-08)
(0.01099710205 -1.180957377e-07 6.473034742e-08)
(0.01099724973 -9.903309988e-08 5.307573712e-08)
(0.0109973908 -8.418119963e-08 4.724187925e-08)
(0.01099753109 -7.182086402e-08 4.146969413e-08)
(0.01099764671 -7.438342575e-08 4.290897409e-08)
(0.01099776588 -6.238349863e-08 3.595952393e-08)
(0.01100072343 5.125474323e-07 -3.81523395e-07)
(0.01100011432 3.823269268e-07 -2.162630334e-07)
(0.01099985248 1.689833965e-07 -9.213896834e-08)
(0.01099950984 2.599830022e-08 -1.60665885e-08)
(0.01099921633 -4.841391841e-08 2.086630814e-08)
(0.01099898972 -8.563755988e-08 3.703061581e-08)
(0.01099881618 -9.879078479e-08 4.404566999e-08)
(0.01099869515 -9.818606763e-08 4.314994297e-08)
(0.0109986063 -9.013113464e-08 4.018203201e-08)
(0.01099854926 -8.143747652e-08 3.642346852e-08)
(0.01099850892 -7.131367089e-08 3.49441063e-08)
(0.01099848781 -6.212594871e-08 3.199534969e-08)
(0.0109984755 -6.648368963e-08 3.431168568e-08)
(0.01099846622 -5.550552608e-08 3.087954683e-08)
(0.01100083433 1.02297276e-07 -2.680012516e-07)
(0.01100072027 8.710027182e-08 -1.769208906e-07)
(0.01100066462 4.127733836e-08 -1.000877925e-07)
(0.01100048491 6.549426758e-09 -4.597926752e-08)
(0.01100026723 -1.617806069e-08 -1.499188139e-08)
(0.01100004227 -2.92022243e-08 4.901697692e-09)
(0.01099982648 -3.300914272e-08 1.57113636e-08)
(0.01099963289 -3.247817306e-08 2.20654683e-08)
(0.01099946031 -3.089780695e-08 2.18313211e-08)
(0.01099931498 -2.81495738e-08 2.553338743e-08)
(0.01099918997 -2.619057007e-08 2.718262486e-08)
(0.01099908312 -2.241362493e-08 2.370789233e-08)
(0.01099900085 -2.383381244e-08 2.704619648e-08)
(0.01099892466 -2.021528535e-08 2.332253763e-08)
(0.01100013668 -7.009408385e-07 7.371785975e-10)
(0.01100098295 -2.073280111e-07 8.713814937e-10)
(0.01100075026 -1.186014533e-07 2.55186303e-10)
(0.01100060979 -4.091126203e-08 1.528339743e-09)
(0.01100036184 7.924291358e-09 7.695445892e-11)
(0.01100010197 3.037842125e-08 -1.539649634e-09)
(0.01099984931 3.858104892e-08 -1.115463114e-10)
(0.01099962463 3.992655611e-08 1.695062361e-10)
(0.01099943239 3.987228267e-08 -9.346229929e-10)
(0.01099926457 3.773874468e-08 1.501094518e-10)
(0.01099912645 3.093003142e-08 -4.522623034e-10)
(0.0109990135 2.89788743e-08 2.358134789e-10)
(0.01099892292 2.612472688e-08 -3.812465624e-10)
(0.01099884968 2.721204995e-08 1.27272506e-09)
(0.01099878474 2.402421112e-08 -1.572566274e-10)
(0.01099974745 -3.06350632e-06 1.488176082e-09)
(0.01100094236 -9.527601579e-07 1.584497441e-09)
(0.01099988563 -5.096493395e-07 -2.508783358e-10)
(0.01099947581 -1.654088045e-07 -2.241596645e-10)
(0.01099907982 1.497847316e-08 -7.521839952e-12)
(0.01099877998 8.696850125e-08 -1.773146989e-09)
(0.01099857668 1.141559204e-07 -1.119590351e-09)
(0.0109984405 1.161026528e-07 1.108383253e-09)
(0.01099835665 1.094544536e-07 -7.236703804e-10)
(0.01099830405 9.972174682e-08 -8.783484682e-10)
(0.01099827741 8.848909713e-08 5.845472786e-10)
(0.01099826907 7.772184105e-08 -7.60045516e-10)
(0.01099827673 6.804042039e-08 -1.094385686e-09)
(0.01099828657 6.928847189e-08 6.682080132e-10)
(0.01099830004 5.640001933e-08 5.505628949e-10)
(0.01099713625 -6.449933888e-06 -3.782594656e-10)
(0.01099950012 -1.676139798e-07 -2.235676435e-10)
(0.01099646981 -1.50140064e-07 5.118065468e-10)
(0.01099591509 1.399237332e-07 -2.612065686e-10)
(0.01099565403 2.749818567e-07 -2.146461287e-10)
(0.01099566837 2.669020955e-07 -1.192987996e-09)
(0.01099585338 2.323071157e-07 -7.377146673e-10)
(0.01099609418 1.949884145e-07 1.667873617e-09)
(0.01099635263 1.605190583e-07 -1.291769656e-10)
(0.01099660054 1.300778732e-07 -2.942401031e-10)
(0.01099683236 1.061937984e-07 1.75827769e-10)
(0.01099704004 9.155704201e-08 5.620184543e-10)
(0.01099723361 7.755525921e-08 -2.966417126e-10)
(0.01099738916 7.898816304e-08 -6.899251777e-10)
(0.01099755043 6.368425866e-08 -2.381727392e-10)
(0.01098299107 -2.804904649e-05 1.646682413e-09)
(0.01098893362 4.16430727e-07 1.270796002e-09)
(0.01098414945 4.812761623e-07 -4.313798957e-11)
(0.01098705575 4.329855768e-07 -1.596492792e-10)
(0.01098905792 4.295412221e-07 1.256912382e-09)
(0.01099070083 3.11185094e-07 -7.593908671e-10)
(0.01099208874 2.199267523e-07 -5.099689092e-10)
(0.01099318835 1.567998144e-07 -8.227141937e-10)
(0.01099407055 1.152855376e-07 -1.091541125e-09)
(0.0109947803 9.060678267e-08 5.483571785e-10)
(0.01099535998 7.122143371e-08 7.07984662e-10)
(0.01099583526 6.216828276e-08 1.586115429e-09)
(0.01099624476 5.037985082e-08 2.762111695e-10)
(0.01099655821 5.344939695e-08 -9.844668514e-11)
(0.01099687402 3.025582648e-08 8.116667022e-10)
(0.0109705548 9.247330456e-10 -4.639855138e-10)
(0.01096387633 -1.039492085e-09 -1.367556778e-09)
(0.01097652983 -5.521734544e-10 -1.937833191e-09)
(0.01098323941 -2.057515989e-11 -3.342971314e-10)
(0.01098714563 3.646615535e-10 -7.746759344e-11)
(0.01098979313 1.384812497e-09 -1.096098619e-09)
(0.01099162385 1.047537931e-09 -1.335931063e-09)
(0.01099294625 2.207511361e-11 -3.062883562e-10)
(0.01099393723 2.865102117e-10 3.846288186e-10)
(0.01099470586 3.559974189e-10 -9.52350845e-10)
(0.01099531522 8.581285e-10 -3.105113015e-10)
(0.01099582805 -5.452329224e-10 -6.541319909e-10)
(0.01099619784 2.307052642e-09 -1.811213755e-09)
(0.01099662016 6.726305718e-10 -1.06045559e-11)
(0.01098893392 -4.194382115e-07 -2.315695122e-10)
(0.01098414836 -4.821652689e-07 -1.469653717e-12)
(0.01098705581 -4.336174015e-07 -3.363235406e-10)
(0.01098905871 -4.313029522e-07 6.240654475e-10)
(0.01099070021 -3.136124695e-07 -4.783873749e-10)
(0.01099208681 -2.201848485e-07 6.568302417e-10)
(0.01099318585 -1.569185281e-07 6.486937658e-10)
(0.01099407114 -1.143466816e-07 -3.017708055e-10)
(0.01099478016 -9.183618951e-08 -3.497441376e-11)
(0.01099535934 -7.352555231e-08 1.566566824e-10)
(0.01099583538 -6.029434277e-08 -2.27083353e-10)
(0.0109962439 -4.830743469e-08 -2.329362335e-10)
(0.01099656093 -5.500296339e-08 -4.360410723e-10)
(0.01099687111 -2.928888537e-08 -2.642597022e-10)
(0.01099949727 1.673762771e-07 8.942286264e-10)
(0.01099646886 1.511923147e-07 7.803899024e-10)