/*--------------------------------*- C++ -*----------------------------------*\
| =========                 |                                                 |
| \\      /  F ield         | OpenFOAM: The Open Source CFD Toolbox           |
|  \\    /   O peration     | Version:  4.x                                   |
|   \\  /    A nd           | Web:      www.OpenFOAM.org                      |
|    \\/     M anipulation  |                                                 |
\*---------------------------------------------------------------------------*/
FoamFile
{
    version     2.0;
    format      ascii;
    class       volScalarField;
    location    "1000";
    object      X_CO;
}
// * * * * * * * * * * * * * * * * * * * * * * * * * * * * * * * * * * * * * //

dimensions      [0 0 0 0 0 0 0];

internalField   nonuniform List<scalar> 
1174
(
0.3000523072
0.3000482086
0.3000424772
0.3000350671
0.3000260792
0.3000157287
0.3000043022
0.2999921169
0.2999794868
0.2999667029
0.2999540304
0.2999417509
0.2999303675
0.2999214808
0.3000485538
0.300042109
0.3000336053
0.300023265
0.3000114609
0.2999986295
0.2999852041
0.2999715715
0.2999580521
0.2999448969
0.2999323013
0.299920456
0.2999097389
0.2999015111
0.3000403605
0.3000291843
0.3000154812
0.300000046
0.2999837131
0.2999672146
0.2999511173
0.2999358141
0.2999215462
0.2999084363
0.2998965292
0.2998858511
0.2998765721
0.2998696501
0.3000285354
0.3000114232
0.2999919478
0.2999715405
0.2999513661
0.2999322409
0.299914658
0.2998988553
0.2998848897
0.2998727015
0.2998621677
0.299853158
0.2998456565
0.2998402378
0.3000202333
0.2999999251
0.2999779388
0.2999558165
0.2999346511
0.2999151219
0.2998975814
0.2998821467
0.2998687782
0.2998573418
0.2998476567
0.2998395426
0.2998329206
0.2998282132
0.3000285357
0.3000114238
0.2999919486
0.2999715414
0.2999513672
0.2999322422
0.2999146594
0.2998988569
0.2998848914
0.2998727033
0.2998621697
0.2998531601
0.2998456586
0.29984024
0.300040361
0.300029185
0.3000154822
0.3000000472
0.2999837145
0.2999672163
0.2999511192
0.2999358164
0.2999215487
0.2999084391
0.2998965323
0.2998858544
0.2998765756
0.2998696539
0.3000485543
0.3000421096
0.3000336061
0.300023266
0.3000114621
0.2999986311
0.2999852059
0.2999715737
0.2999580547
0.2999448998
0.2999323046
0.2999204597
0.299909743
0.2999015155
0.3000523076
0.3000482091
0.3000424778
0.3000350679
0.3000260801
0.3000157299
0.3000043038
0.2999921188
0.2999794891
0.2999667057
0.2999540337
0.2999417547
0.2999303717
0.2999214855
0.3000529511
0.3000485539
0.3000421091
0.3000336055
0.3000232652
0.3000114611
0.2999986297
0.2999852043
0.2999715717
0.2999580523
0.2999448971
0.2999323015
0.2999204562
0.2999097391
0.2999015113
0.3000402399
0.3000291686
0.3000157863
0.3000009121
0.2999853458
0.2999697465
0.2999545934
0.2999401987
0.2999267396
0.2999142975
0.2999028968
0.2998925623
0.2998834805
0.2998766435
0.300019606
0.2999985491
0.2999758725
0.2999534786
0.2999326306
0.2999139854
0.2998977508
0.2998838539
0.299872074
0.2998621335
0.2998537546
0.2998467041
0.2998408832
0.29983669
0.2999835408
0.2999491269
0.2999167125
0.2998886293
0.2998656126
0.2998474587
0.2998335288
0.2998230583
0.2998153156
0.2998096691
0.2998056043
0.2998027188
0.2998007187
0.2997994782
0.2999501251
0.299909148
0.2998747147
0.2998475882
0.2998271153
0.2998121659
0.2998015728
0.2997943069
0.299789524
0.2997865596
0.2997849019
0.2997841582
0.2997840128
0.2997841551
0.2999835422
0.2999491286
0.2999167144
0.2998886313
0.2998656148
0.299847461
0.2998335313
0.2998230609
0.2998153182
0.2998096717
0.299805607
0.2998027215
0.2998007214
0.299799481
0.3000196076
0.299998551
0.2999758745
0.2999534809
0.2999326332
0.2999139883
0.2998977541
0.2998838574
0.2998720778
0.2998621375
0.2998537588
0.2998467084
0.2998408877
0.2998366946
0.300040241
0.3000291697
0.3000157876
0.3000009137
0.2999853478
0.2999697488
0.2999545962
0.2999402019
0.2999267432
0.2999143015
0.2999029012
0.2998925671
0.2998834856
0.2998766489
0.3000485543
0.3000421096
0.3000336062
0.3000232662
0.3000114624
0.2999986315
0.2999852065
0.2999715744
0.2999580555
0.2999449008
0.2999323057
0.2999204609
0.2999097444
0.299901517
0.3000484809
0.3000403609
0.3000291848
0.3000154818
0.3000000466
0.2999837137
0.2999672153
0.2999511179
0.2999358148
0.2999215468
0.299908437
0.2998965299
0.2998858517
0.2998765727
0.2998696508
0.3000367917
0.3000196065
0.2999985497
0.299975873
0.2999534792
0.2999326312
0.2999139859
0.2998977514
0.2998838544
0.2998720745
0.299862134
0.2998537551
0.2998467046
0.2998408836
0.2998366904
0.2999596846
0.2999162962
0.2998774527
0.2998459431
0.2998221958
0.2998053697
0.299794141
0.2997871537
0.2997832257
0.2997814121
0.2997809971
0.2997814516
0.299782363
0.2997832843
0.2998286975
0.2997569915
0.2997083439
0.2996802453
0.2996675765
0.2996653492
0.2996696202
0.2996775797
0.2996873511
0.2996977408
0.2997080167
0.2997177183
0.2997264096
0.2997329988
0.2996602005
0.2995903371
0.2995613571
0.2995573358
0.2995670905
0.2995836761
0.2996030295
0.2996228721
0.2996419841
0.2996597587
0.2996759293
0.2996903749
0.2997028482
0.2997120978
0.2998287033
0.2997569972
0.2997083493
0.2996802505
0.2996675815
0.2996653541
0.2996696249
0.2996775842
0.2996873554
0.2996977449
0.2997080207
0.2997177222
0.2997264134
0.2997330025
0.2999596899
0.2999163008
0.2998774572
0.2998459479
0.299822201
0.2998053751
0.2997941467
0.2997871595
0.2997832316
0.2997814181
0.2997810032
0.2997814576
0.299782369
0.2997832903
0.3000196076
0.2999985512
0.299975875
0.2999534817
0.2999326344
0.2999139898
0.2998977557
0.2998838593
0.2998720799
0.2998621398
0.2998537612
0.299846711
0.2998408903
0.2998366973
0.300040361
0.3000291852
0.3000154826
0.3000000479
0.2999837156
0.2999672178
0.2999511211
0.2999358187
0.2999215514
0.2999084421
0.2998965356
0.299885858
0.2998765795
0.299869658
0.3000418693
0.300028536
0.3000114241
0.2999919489
0.2999715416
0.2999513673
0.2999322422
0.2999146593
0.2998988566
0.299884891
0.2998727027
0.299862169
0.2998531593
0.2998456577
0.299840239
0.300015542
0.2999835418
0.2999491284
0.299916714
0.2998886307
0.2998656141
0.2998474601
0.2998335302
0.2998230596
0.2998153168
0.2998096703
0.2998056054
0.2998027199
0.2998007197
0.2997994792
0.2999174921
0.2998286993
0.2997569936
0.2997083458
0.299680247
0.2996675781
0.2996653506
0.2996696215
0.2996775808
0.2996873521
0.2996977417
0.2997080175
0.299717719
0.2997264103
0.2997329994
0.2993864022
0.2992998624
0.2992883964
0.2993167351
0.2993622455
0.2994123951
0.2994609718
0.2995052992
0.2995445321
0.2995787002
0.2996081933
0.2996334485
0.299654548
0.2996698504
0.2985330938
0.2986521208
0.298828046
0.2989946261
0.2991351191
0.2992491215
0.2993407019
0.2994144206
0.2994741829
0.2995230534
0.2995633458
0.2995967083
0.2996239189
0.2996433574
0.2993864243
0.2992998776
0.2992884087
0.2993167458
0.299362255
0.2994124035
0.2994609793
0.2995053061
0.2995445383
0.299578706
0.2996081987
0.2996334535
0.2996545528
0.299669855
0.2998287034
0.2997569991
0.2997083526
0.2996802547
0.2996675863
0.2996653591
0.2996696301
0.2996775893
0.2996873605
0.2996977498
0.2997080254
0.2997177268
0.2997264179
0.2997330069
0.2999835422
0.2999491296
0.2999167164
0.2998886344
0.2998656187
0.2998474656
0.2998335365
0.2998230665
0.2998153241
0.2998096779
0.2998056133
0.2998027279
0.2998007279
0.2997994876
0.3000285357
0.3000114242
0.2999919496
0.2999715432
0.2999513698
0.2999322456
0.2999146636
0.2998988618
0.2998848969
0.2998727094
0.2998621762
0.299853167
0.2998456659
0.2998402477
0.3000369932
0.3000202342
0.2999999264
0.2999779403
0.2999558182
0.2999346529
0.2999151238
0.2998975833
0.2998821485
0.2998687801
0.2998573437
0.2998476585
0.2998395444
0.2998329223
0.2998282149
0.2999937565
0.2999501268
0.2999091506
0.2998747175
0.2998475909
0.299827118
0.2998121684
0.2998015752
0.2997943091
0.2997895261
0.2997865616
0.2997849038
0.29978416
0.2997840145
0.2997841567
0.2997866069
0.2996602033
0.2995903423
0.2995613621
0.2995573402
0.2995670943
0.2995836793
0.2996030323
0.2996228746
0.2996419863
0.2996597607
0.2996759311
0.2996903765
0.2997028497
0.2997120992
0.2986764936
0.2985331084
0.2986521311
0.2988280533
0.2989946313
0.299135123
0.2992491245
0.2993407043
0.2994144226
0.2994741846
0.2995230549
0.299563347
0.2995967094
0.2996239199
0.2996433583
0.2948808959
0.2967603834
0.2977941871
0.2983967612
0.2987689203
0.2990119232
0.2991788908
0.2992988555
0.2993883592
0.2994572258
0.2995115132
0.2995550036
0.2995896501
0.299614061
0.2985330946
0.2986521434
0.2988280686
0.2989946456
0.2991351355
0.2992491353
0.2993407138
0.2994144311
0.2994741922
0.2995230617
0.2995633533
0.2995967152
0.2996239253
0.2996433634
0.2996602006
0.2995903454
0.2995613688
0.299557349
0.2995671041
0.2995836895
0.2996030425
0.2996228845
0.2996419959
0.2996597699
0.29967594
0.2996903851
0.299702858
0.2997121073
0.2999501252
0.2999091506
0.2998747194
0.2998475946
0.2998271231
0.2998121746
0.2998015823
0.2997943169
0.2997895343
0.2997865701
0.2997849125
0.2997841688
0.2997840235
0.2997841658
0.3000202333
0.299999926
0.2999779407
0.2999558197
0.2999346555
0.2999151275
0.2998975881
0.2998821543
0.2998687867
0.299857351
0.2998476665
0.2998395529
0.2998329313
0.2998282244
0.3000418695
0.3000285366
0.3000114251
0.2999919501
0.2999715431
0.2999513691
0.2999322442
0.2999146615
0.299898859
0.2998848936
0.2998727055
0.2998621718
0.2998531622
0.2998456607
0.2998402421
0.3000155433
0.2999835441
0.2999491312
0.2999167172
0.2998886343
0.2998656178
0.2998474639
0.2998335341
0.2998230635
0.2998153207
0.2998096742
0.2998056094
0.2998027237
0.2998007236
0.2997994831
0.2999175009
0.2998287082
0.2997570033
0.2997083551
0.2996802558
0.2996675864
0.2996653583
0.2996696287
0.2996775876
0.2996873585
0.2996977477
0.2997080232
0.2997177245
0.2997264156
0.2997330045
0.2995871884
0.2993864374
0.2992998902
0.299288419
0.2993167539
0.2993622614
0.2994124087
0.2994609836
0.2995053097
0.2995445414
0.2995787086
0.299608201
0.2996334556
0.2996545547
0.2996698567
0.2986764987
0.2985331169
0.298652158
0.2988280783
0.2989946522
0.2991351403
0.299249139
0.2993407166
0.2994144332
0.299474194
0.2995230632
0.2995633546
0.2995967163
0.2996239263
0.2996433644
0.2995871834
0.29938644
0.2992998966
0.299288427
0.2993167624
0.2993622699
0.2994124168
0.2994609912
0.2995053167
0.299544548
0.2995787147
0.2996082067
0.2996334609
0.2996545597
0.2996698616
0.2998286974
0.299757
0.2997083568
0.2996802606
0.299667593
0.299665366
0.2996696369
0.299677596
0.2996873669
0.299697756
0.2997080314
0.2997177325
0.2997264234
0.2997330123
0.2999835404
0.2999491291
0.2999167171
0.299888636
0.2998656212
0.2998474686
0.2998335399
0.2998230701
0.2998153279
0.2998096818
0.2998056174
0.299802732
0.299800732
0.2997994918
0.3000285352
0.300011424
0.2999919497
0.2999715438
0.2999513708
0.2999322471
0.2999146655
0.299898864
0.2998848995
0.2998727122
0.2998621792
0.2998531702
0.2998456692
0.2998402511
0.3000484812
0.3000403616
0.300029186
0.3000154834
0.3000000486
0.2999837162
0.2999672181
0.2999511212
0.2999358184
0.2999215508
0.2999084413
0.2998965345
0.2998858566
0.2998765778
0.299869656
0.3000367935
0.3000196089
0.2999985528
0.2999758766
0.2999534833
0.2999326357
0.2999139909
0.2998977566
0.29988386
0.2998720803
0.29986214
0.2998537612
0.2998467108
0.29984089
0.2998366969
0.3000015622
0.2999596929
0.2999163046
0.2998774613
0.299845952
0.2998222049
0.2998053789
0.2997941502
0.2997871629
0.2997832348
0.2997814211
0.2997810059
0.2997814602
0.2997823715
0.2997832927
0.2999175012
0.2998287101
0.2997570067
0.2997083598
0.2996802612
0.2996675921
0.2996653642
0.2996696345
0.2996775933
0.299687364
0.299697753
0.2997080283
0.2997177294
0.2997264203
0.2997330091
0.2997866087
0.2996602123
0.2995903559
0.2995613777
0.2995573562
0.29956711
0.2995836944
0.2996030465
0.2996228879
0.2996419989
0.2996597725
0.2996759423
0.2996903872
0.2997028598
0.2997121091
0.2999175018
0.2998287116
0.2997570092
0.2997083631
0.2996802651
0.2996675964
0.2996653687
0.2996696391
0.2996775978
0.2996873684
0.2996977573
0.2997080325
0.2997177335
0.2997264243
0.2997330131
0.3000015594
0.2999596905
0.2999163038
0.2998774622
0.2998459544
0.2998222086
0.2998053835
0.2997941555
0.2997871686
0.2997832408
0.2997814273
0.2997810123
0.2997814666
0.2997823779
0.2997832992
0.3000196061
0.2999985511
0.2999758761
0.299953484
0.2999326376
0.2999139938
0.2998977605
0.2998838646
0.2998720856
0.2998621459
0.2998537676
0.2998467176
0.2998408971
0.2998367043
0.3000403604
0.3000291849
0.3000154827
0.3000000486
0.299983717
0.2999672199
0.2999511238
0.299935822
0.2999215553
0.2999084465
0.2998965404
0.2998858632
0.299876585
0.2998696638
0.3000529515
0.3000485546
0.3000421102
0.3000336069
0.300023267
0.3000114633
0.2999986325
0.2999852075
0.2999715754
0.2999580565
0.2999449018
0.2999323066
0.2999204618
0.2999097451
0.2999015176
0.3000483907
0.3000402417
0.3000291707
0.3000157889
0.3000009152
0.2999853495
0.2999697507
0.2999545982
0.299940204
0.2999267455
0.2999143038
0.2999029035
0.2998925694
0.2998834879
0.2998766512
0.3000367935
0.3000196091
0.2999985532
0.2999758773
0.2999534843
0.2999326371
0.2999139926
0.2998977586
0.2998838621
0.2998720827
0.2998621425
0.2998537638
0.2998467135
0.2998408928
0.2998366997
0.3000155435
0.299983545
0.2999491331
0.2999167202
0.2998886382
0.2998656226
0.2998474693
0.29983354
0.2998230698
0.2998153273
0.2998096809
0.2998056161
0.2998027306
0.2998007305
0.29979949
0.2999937572
0.2999501295
0.2999091555
0.2998747243
0.2998475992
0.2998271274
0.2998121786
0.2998015859
0.2997943201
0.2997895373
0.2997865729
0.299784915
0.2997841712
0.2997840257
0.2997841679
0.3000155438
0.2999835456
0.2999491341
0.2999167215
0.29988864
0.2998656246
0.2998474717
0.2998335426
0.2998230726
0.2998153301
0.2998096838
0.2998056192
0.2998027337
0.2998007336
0.2997994932
0.3000367932
0.3000196088
0.2999985532
0.299975878
0.2999534856
0.299932639
0.2999139951
0.2998977617
0.2998838657
0.2998720866
0.2998621468
0.2998537684
0.2998467184
0.2998408978
0.2998367049
0.3000483901
0.300040241
0.3000291701
0.3000157887
0.3000009155
0.2999853505
0.2999697523
0.2999546005
0.299940207
0.299926749
0.2999143079
0.2999029081
0.2998925745
0.2998834935
0.2998766572
0.3000485538
0.3000421095
0.3000336064
0.3000232669
0.3000114637
0.2999986334
0.2999852092
0.2999715777
0.2999580596
0.2999449056
0.2999323111
0.2999204669
0.2999097509
0.299901524
0.3000549724
0.3000523078
0.3000482095
0.3000424783
0.3000350686
0.3000260811
0.300015731
0.3000043051
0.2999921203
0.2999794907
0.2999667075
0.2999540355
0.2999417566
0.2999303737
0.2999214876
0.3000529515
0.3000485547
0.3000421102
0.300033607
0.3000232672
0.3000114636
0.2999986329
0.2999852081
0.2999715761
0.2999580574
0.2999449028
0.2999323078
0.2999204631
0.2999097465
0.2999015192
0.3000484812
0.3000403617
0.3000291862
0.3000154839
0.3000000495
0.2999837175
0.2999672198
0.2999511233
0.2999358209
0.2999215537
0.2999084445
0.299896538
0.2998858604
0.2998765819
0.2998696604
0.3000418696
0.300028537
0.300011426
0.2999919518
0.2999715456
0.2999513724
0.2999322483
0.2999146664
0.2998988646
0.2998848997
0.2998727121
0.2998621789
0.2998531696
0.2998456684
0.2998402501
0.3000369935
0.3000202352
0.2999999284
0.2999779435
0.2999558226
0.2999346585
0.2999151305
0.2998975911
0.2998821572
0.2998687894
0.2998573537
0.299847669
0.2998395553
0.2998329336
0.2998282266
0.3000418697
0.3000285373
0.3000114264
0.2999919524
0.2999715465
0.2999513735
0.2999322497
0.299914668
0.2998988664
0.2998849017
0.2998727143
0.2998621812
0.2998531721
0.299845671
0.2998402528
0.3000484813
0.3000403618
0.3000291864
0.3000154844
0.3000000503
0.2999837187
0.2999672215
0.2999511254
0.2999358234
0.2999215566
0.2999084478
0.2998965416
0.2998858643
0.2998765861
0.2998696648
0.3000529514
0.3000485545
0.3000421101
0.300033607
0.3000232675
0.3000114643
0.299998634
0.2999852097
0.2999715783
0.2999580601
0.299944906
0.2999323116
0.2999204674
0.2999097513
0.2999015244
0.3000549722
0.3000523076
0.3000482092
0.3000424781
0.3000350686
0.3000260814
0.3000157317
0.3000043063
0.299992122
0.2999794931
0.2999667105
0.2999540393
0.299941761
0.2999303787
0.2999214932
)
;

boundaryField
{
    top
    {
        type            calculated;
        value           nonuniform List<scalar> 
127
(
0.3000549722
0.3000523076
0.3000485543
0.300040361
0.3000285357
0.3000202333
0.3000285352
0.3000403604
0.3000485538
0.3000523076
0.3000482091
0.3000421096
0.3000291852
0.3000114242
0.299999926
0.300011424
0.3000291849
0.3000421095
0.3000482092
0.3000424778
0.3000336062
0.3000154826
0.2999919496
0.2999779407
0.2999919497
0.3000154827
0.3000336064
0.3000424781
0.3000350679
0.3000232662
0.3000000479
0.2999715432
0.2999558197
0.2999715438
0.3000000486
0.3000232669
0.3000350686
0.3000260801
0.3000114624
0.2999837156
0.2999513698
0.2999346555
0.2999513708
0.299983717
0.3000114637
0.3000260814
0.3000157299
0.2999986315
0.2999672178
0.2999322456
0.2999151275
0.2999322471
0.2999672199
0.2999986334
0.3000157317
0.3000043038
0.2999852065
0.2999511211
0.2999146636
0.2998975881
0.2999146655
0.2999511238
0.2999852092
0.3000043063
0.2999921188
0.2999715744
0.2999358187
0.2998988618
0.2998821543
0.299898864
0.299935822
0.2999715777
0.299992122
0.2999794891
0.2999580555
0.2999215514
0.2998848969
0.2998687867
0.2998848995
0.2999215553
0.2999580596
0.2999794931
0.2999667057
0.2999449008
0.2999084421
0.2998727094
0.299857351
0.2998727122
0.2999084465
0.2999449056
0.2999667105
0.2999540337
0.2999323057
0.2998965356
0.2998621762
0.2998476665
0.2998621792
0.2998965404
0.2999323111
0.2999540393
0.2999417547
0.2999204609
0.299885858
0.299853167
0.2998395529
0.2998531702
0.2998858632
0.2999204669
0.299941761
0.2999303717
0.2999097444
0.2998765795
0.2998456659
0.2998329313
0.2998456692
0.299876585
0.2999097509
0.2999303787
0.2999214855
0.299901517
0.299869658
0.2998402477
0.2998282244
0.2998402511
0.2998696638
0.299901524
0.2999214932
)
;
    }
    bottom
    {
        type            calculated;
        value           nonuniform List<scalar> 
134
(
0.3000529511
0.3000484809
0.3000418693
0.3000369932
0.3000418695
0.3000484812
0.3000529515
0.3000549724
0.3000523072
0.3000485539
0.3000403609
0.300028536
0.3000202342
0.3000285366
0.3000403616
0.3000485546
0.3000523078
0.3000482086
0.3000421091
0.3000291848
0.3000114241
0.2999999264
0.3000114251
0.300029186
0.3000421102
0.3000482095
0.3000424772
0.3000336055
0.3000154818
0.2999919489
0.2999779403
0.2999919501
0.3000154834
0.3000336069
0.3000424783
0.3000350671
0.3000232652
0.3000000466
0.2999715416
0.2999558182
0.2999715431
0.3000000486
0.300023267
0.3000350686
0.3000260792
0.3000114611
0.2999837137
0.2999513673
0.2999346529
0.2999513691
0.2999837162
0.3000114633
0.3000260811
0.3000157287
0.2999986297
0.2999672153
0.2999322422
0.2999151238
0.2999322442
0.2999672181
0.2999986325
0.300015731
0.3000043022
0.2999852043
0.2999511179
0.2999146593
0.2998975833
0.2999146615
0.2999511212
0.2999852075
0.3000043051
0.2999921169
0.2999715717
0.2999358148
0.2998988566
0.2998821485
0.299898859
0.2999358184
0.2999715754
0.2999921203
0.2999794868
0.2999580523
0.2999215468
0.299884891
0.2998687801
0.2998848936
0.2999215508
0.2999580565
0.2999794907
0.2999667029
0.2999448971
0.299908437
0.2998727027
0.2998573437
0.2998727055
0.2999084413
0.2999449018
0.2999667075
0.2999540304
0.2999323015
0.2998965299
0.299862169
0.2998476585
0.2998621718
0.2998965345
0.2999323066
0.2999540355
0.2999417509
0.2999204562
0.2998858517
0.2998531593
0.2998395444
0.2998531622
0.2998858566
0.2999204618
0.2999417566
0.2999303675
0.2999097391
0.2998765727
0.2998456577
0.2998329223
0.2998456607
0.2998765778
0.2999097451
0.2999303737
0.2999214808
0.2999015113
0.2998696508
0.299840239
0.2998282149
0.2998402421
0.299869656
0.2999015176
0.2999214876
)
;
    }
    side-walls
    {
        type            calculated;
        value           nonuniform List<scalar> 
261
(
0.3000523072
0.3000485538
0.3000403605
0.3000285354
0.3000202333
0.3000285357
0.300040361
0.3000485543
0.3000523076
0.3000482086
0.300042109
0.3000291843
0.3000114232
0.2999999251
0.3000114238
0.300029185
0.3000421096
0.3000482091
0.3000424772
0.3000336053
0.3000154812
0.2999919478
0.2999779388
0.2999919486
0.3000154822
0.3000336061
0.3000424778
0.3000350671
0.300023265
0.300000046
0.2999715405
0.2999558165
0.2999715414
0.3000000472
0.300023266
0.3000350679
0.3000260792
0.3000114609
0.2999837131
0.2999513661
0.2999346511
0.2999513672
0.2999837145
0.3000114621
0.3000260801
0.3000157287
0.2999986295
0.2999672146
0.2999322409
0.2999151219
0.2999322422
0.2999672163
0.2999986311
0.3000157299
0.3000043022
0.2999852041
0.2999511173
0.299914658
0.2998975814
0.2999146594
0.2999511192
0.2999852059
0.3000043038
0.2999921169
0.2999715715
0.2999358141
0.2998988553
0.2998821467
0.2998988569
0.2999358164
0.2999715737
0.2999921188
0.2999794868
0.2999580521
0.2999215462
0.2998848897
0.2998687782
0.2998848914
0.2999215487
0.2999580547
0.2999794891
0.2999667029
0.2999448969
0.2999084363
0.2998727015
0.2998573418
0.2998727033
0.2999084391
0.2999448998
0.2999667057
0.2999540304
0.2999323013
0.2998965292
0.2998621677
0.2998476567
0.2998621697
0.2998965323
0.2999323046
0.2999540337
0.2999417509
0.299920456
0.2998858511
0.299853158
0.2998395426
0.2998531601
0.2998858544
0.2999204597
0.2999417547
0.2999303675
0.2999097389
0.2998765721
0.2998456565
0.2998329206
0.2998456586
0.2998765756
0.299909743
0.2999303717
0.2999214808
0.2999015111
0.2998696501
0.2998402378
0.2998282132
0.29984024
0.2998696539
0.2999015155
0.2999214855
0.3000549724
0.3000529515
0.3000484812
0.3000418696
0.3000369935
0.3000418697
0.3000484813
0.3000529514
0.3000549722
0.3000523078
0.3000485547
0.3000403617
0.300028537
0.3000202352
0.3000285373
0.3000403618
0.3000485545
0.3000523076
0.3000482095
0.3000421102
0.3000291862
0.300011426
0.2999999284
0.3000114264
0.3000291864
0.3000421101
0.3000482092
0.3000424783
0.300033607
0.3000154839
0.2999919518
0.2999779435
0.2999919524
0.3000154844
0.300033607
0.3000424781
0.3000350686
0.3000232672
0.3000000495
0.2999715456
0.2999558226
0.2999715465
0.3000000503
0.3000232675
0.3000350686
0.3000260811
0.3000114636
0.2999837175
0.2999513724
0.2999346585
0.2999513735
0.2999837187
0.3000114643
0.3000260814
0.300015731
0.2999986329
0.2999672198
0.2999322483
0.2999151305
0.2999322497
0.2999672215
0.299998634
0.3000157317
0.3000043051
0.2999852081
0.2999511233
0.2999146664
0.2998975911
0.299914668
0.2999511254
0.2999852097
0.3000043063
0.2999921203
0.2999715761
0.2999358209
0.2998988646
0.2998821572
0.2998988664
0.2999358234
0.2999715783
0.299992122
0.2999794907
0.2999580574
0.2999215537
0.2998848997
0.2998687894
0.2998849017
0.2999215566
0.2999580601
0.2999794931
0.2999667075
0.2999449028
0.2999084445
0.2998727121
0.2998573537
0.2998727143
0.2999084478
0.299944906
0.2999667105
0.2999540355
0.2999323078
0.299896538
0.2998621789
0.299847669
0.2998621812
0.2998965416
0.2999323116
0.2999540393
0.2999417566
0.2999204631
0.2998858604
0.2998531696
0.2998395553
0.2998531721
0.2998858643
0.2999204674
0.299941761
0.2999303737
0.2999097465
0.2998765819
0.2998456684
0.2998329336
0.299845671
0.2998765861
0.2999097513
0.2999303787
0.2999214876
0.2999015192
0.2998696604
0.2998402501
0.2998282266
0.2998402528
0.2998696648
0.2999015244
0.2999214932
)
;
    }
    inlet
    {
        type            calculated;
        value           nonuniform 0();
    }
    outlet
    {
        type            calculated;
        value           nonuniform List<scalar> 
81
(
0.2999214808
0.2999015111
0.2998696501
0.2998402378
0.2998282132
0.29984024
0.2998696539
0.2999015155
0.2999214855
0.2999015113
0.2998766435
0.29983669
0.2997994782
0.2997841551
0.299799481
0.2998366946
0.2998766489
0.299901517
0.2998696508
0.2998366904
0.2997832843
0.2997329988
0.2997120978
0.2997330025
0.2997832903
0.2998366973
0.299869658
0.299840239
0.2997994792
0.2997329994
0.2996698504
0.2996433574
0.299669855
0.2997330069
0.2997994876
0.2998402477
0.2998282149
0.2997841567
0.2997120992
0.2996433583
0.299614061
0.2996433634
0.2997121073
0.2997841658
0.2998282244
0.2998402421
0.2997994831
0.2997330045
0.2996698567
0.2996433644
0.2996698616
0.2997330123
0.2997994918
0.2998402511
0.299869656
0.2998366969
0.2997832927
0.2997330091
0.2997121091
0.2997330131
0.2997832992
0.2998367043
0.2998696638
0.2999015176
0.2998766512
0.2998366997
0.29979949
0.2997841679
0.2997994932
0.2998367049
0.2998766572
0.299901524
0.2999214876
0.2999015192
0.2998696604
0.2998402501
0.2998282266
0.2998402528
0.2998696648
0.2999015244
0.2999214932
)
;
    }
    procBoundary1to0
    {
        type            processor;
        value           nonuniform List<scalar> 
97
(
0.3000549722
0.3000549722
0.3000529514
0.3000484813
0.3000418701
0.3000369943
0.3000418703
0.3000484817
0.3000529518
0.3000549726
0.3000555825
0.30004839
0.30004839
0.30004839
0.3000367931
0.3000155444
0.29999376
0.3000155455
0.3000367945
0.3000483911
0.3000529518
0.3000535322
0.3000483399
0.3000015586
0.3000015586
0.3000015586
0.2999175021
0.2997866224
0.2999175085
0.3000015651
0.3000367945
0.3000484817
0.3000505734
0.3000393186
0.3000006045
0.2995871694
0.2995871694
0.2995871694
0.2986765787
0.2995872111
0.2999175082
0.3000155454
0.3000418702
0.3000484969
0.300030965
0.2999585211
0.299677542
0.2912583687
0.2912583687
0.2912583687
0.2986765716
0.2986765716
0.2997866206
0.2999937595
0.3000369941
0.3000505735
0.3000393187
0.3000006046
0.2998901408
0.2996775393
0.2998901431
0.2999174952
0.2999174952
0.2999174952
0.3000155432
0.3000418697
0.3000535323
0.30004834
0.3000333529
0.3000006045
0.2999585209
0.3000006051
0.3000333529
0.3000367921
0.3000367921
0.3000367921
0.300048481
0.3000555826
0.3000535023
0.3000483399
0.3000393187
0.300030965
0.3000393189
0.30004834
0.3000535023
0.3000529512
0.3000529512
0.3000529512
0.3000565219
0.3000555826
0.3000535322
0.3000505734
0.3000484969
0.3000505735
0.3000535323
0.3000555826
0.3000565219
)
;
    }
}


// ************************************************************************* //
