/*--------------------------------*- C++ -*----------------------------------*\
| =========                 |                                                 |
| \\      /  F ield         | OpenFOAM: The Open Source CFD Toolbox           |
|  \\    /   O peration     | Version:  4.x                                   |
|   \\  /    A nd           | Web:      www.OpenFOAM.org                      |
|    \\/     M anipulation  |                                                 |
\*---------------------------------------------------------------------------*/
FoamFile
{
    version     2.0;
    format      ascii;
    class       volScalarField;
    location    "1000";
    object      X_H2O;
}
// * * * * * * * * * * * * * * * * * * * * * * * * * * * * * * * * * * * * * //

dimensions      [0 0 0 0 0 0 0];

internalField   nonuniform List<scalar> 
1174
(
1.907533396e-05
2.201476707e-05
2.612314218e-05
3.143155692e-05
3.786563479e-05
4.526905953e-05
5.343451069e-05
6.213343746e-05
7.113967895e-05
8.024433947e-05
8.925759467e-05
9.797906794e-05
0.0001060531448
0.0001123495629
2.177444988e-05
2.640003429e-05
3.249959824e-05
3.991107568e-05
4.836453445e-05
5.75446232e-05
6.713920792e-05
7.686993066e-05
8.650672002e-05
9.586989398e-05
0.0001048201631
0.0001132227758
0.000120812244
0.0001266310335
2.766898251e-05
3.569603998e-05
4.553092308e-05
5.659937592e-05
6.829944313e-05
8.010402233e-05
9.160580248e-05
0.0001025229622
0.0001126834325
0.0001220003771
0.0001304434244
0.0001379964535
0.0001445436005
0.0001494177008
3.618144324e-05
4.847767915e-05
6.246030487e-05
7.7096865e-05
9.154850157e-05
0.0001052286484
0.0001177841313
0.0001290457937
0.0001389748545
0.000147616358
0.0001550608549
0.0001614049988
0.0001666668908
0.0001704552175
4.216175791e-05
5.675730447e-05
7.254363239e-05
8.840900433e-05
0.0001035672528
0.0001175310527
0.0001300490197
0.0001410393416
0.0001505328523
0.0001586282646
0.0001654579446
0.000171154418
0.0001757809906
0.0001790558829
3.618109098e-05
4.847716593e-05
6.245958507e-05
7.70958975e-05
9.154724187e-05
0.0001052270713
0.0001177822336
0.0001290435562
0.0001389723005
0.0001476134867
0.000155057696
0.0001614015968
0.0001666632562
0.0001704513455
2.766846741e-05
3.569535769e-05
4.55300138e-05
5.659815693e-05
6.829782907e-05
8.010192641e-05
9.160316908e-05
0.0001025197478
0.0001126796476
0.0001219960161
0.0001304385055
0.0001379909816
0.0001445376394
0.0001494113038
2.177397342e-05
2.639947704e-05
3.249889739e-05
3.991012756e-05
4.836322802e-05
5.754283807e-05
6.713685152e-05
7.686690752e-05
8.650298587e-05
9.586539164e-05
0.0001048148837
0.0001132167396
0.0001208054583
0.0001266235821
1.907498105e-05
2.201441289e-05
2.612271074e-05
3.143094616e-05
3.786473013e-05
4.526772787e-05
5.343262512e-05
6.213088059e-05
7.113634668e-05
8.024013714e-05
8.925246857e-05
9.797298798e-05
0.0001060460993
0.0001123415191
1.861666824e-05
2.177410037e-05
2.639970566e-05
3.249926984e-05
3.991074832e-05
4.836421071e-05
5.754429076e-05
6.7138877e-05
7.686961069e-05
8.650640632e-05
9.586958437e-05
0.0001048198478
0.0001132224594
0.0001208119578
0.0001266307664
2.77573859e-05
3.570975175e-05
4.531492036e-05
5.598123538e-05
6.713167632e-05
7.829188278e-05
8.911725377e-05
9.938425007e-05
0.0001089664198
0.0001178066834
0.0001258890684
0.0001331982121
0.0001396064271
0.0001444215001
4.261408239e-05
5.774951408e-05
7.40342589e-05
9.009706816e-05
0.0001050292882
0.000118360023
0.0001299419924
0.0001398302663
0.0001481858333
0.0001552105253
0.0001611060941
0.0001660428586
0.0001700981232
0.0001730068638
6.859799842e-05
9.334486151e-05
0.0001166259069
0.0001367635503
0.0001532327091
0.0001661850439
0.0001760848987
0.000183486477
0.000188919178
0.0001928396859
0.0001956199356
0.0001975518492
0.000198852629
0.000199633753
9.268979196e-05
0.0001221575784
0.0001468799926
0.0001663135435
0.0001809358427
0.0001915673238
0.0001990532981
0.0002041385355
0.0002074332081
0.0002094175409
0.000210461323
0.0002108489548
0.0002108132334
0.0002105983347
6.859659119e-05
9.334316899e-05
0.0001166239111
0.000136761171
0.0001532299144
0.0001661818503
0.0001760813191
0.0001834825719
0.0001889150314
0.0001928353034
0.0001956153811
0.0001975471413
0.0001988477511
0.0001996287075
4.261244803e-05
5.774775281e-05
7.403220339e-05
9.009450179e-05
0.0001050260913
0.0001183561067
0.0001299373851
0.0001398249794
0.0001481799065
0.0001552040295
0.0001610990897
0.0001660353947
0.0001700902661
0.0001729986246
2.775635373e-05
3.570877986e-05
4.53137382e-05
5.597961826e-05
6.712943873e-05
7.828889848e-05
8.911342813e-05
9.937955137e-05
0.0001089608406
0.0001178002367
0.0001258817962
0.0001331901513
0.0001395976344
0.000144412041
2.177401047e-05
2.639947552e-05
3.24988141e-05
3.990990695e-05
4.836282264e-05
5.754220224e-05
6.713595015e-05
7.686572932e-05
8.650150375e-05
9.586360709e-05
0.000104812809
0.0001132143484
0.0001208027769
0.0001266205119
2.183296206e-05
2.766811565e-05
3.569511606e-05
4.552996169e-05
5.659837762e-05
6.829843203e-05
8.010300568e-05
9.160479084e-05
0.0001025219429
0.0001126824266
0.0001219994013
0.0001304424633
0.0001379954949
0.0001445426797
0.0001494168199
3.025178402e-05
4.261290891e-05
5.774848905e-05
7.4033315e-05
9.009615885e-05
0.0001050284098
0.000118359181
0.0001299412065
0.0001398295003
0.0001481850831
0.0001552098093
0.0001611053974
0.0001660421808
0.0001700975002
0.0001730062753
8.578753092e-05
0.0001169927828
0.0001448941558
0.000167486567
0.0001844682828
0.0001964517983
0.0002043959963
0.0002092813906
0.0002119619849
0.0002131197339
0.0002132712426
0.000212799099
0.0002120054033
0.0002112319976
0.0001802255387
0.000231805014
0.0002667209425
0.0002868005695
0.0002957489611
0.0002971717072
0.0002939161985
0.000288009939
0.0002808058107
0.0002731636132
0.0002656100287
0.0002584769055
0.0002520818812
0.0002472292606
0.0003017861642
0.0003519900479
0.0003726756417
0.0003753552528
0.0003681081508
0.0003559491189
0.0003418093292
0.0003273309198
0.0003133914133
0.0003004262286
0.0002886257028
0.0002780762482
0.0002689588718
0.0002621917549
0.0001802192447
0.0002317990008
0.0002667148172
0.0002867941028
0.0002957421145
0.0002971645425
0.0002939088652
0.0002880025788
0.0002807984623
0.0002731563405
0.0002656028975
0.0002584698524
0.0002520749156
0.0002472223191
8.578257362e-05
0.0001169884959
0.0001448893996
0.0001674808244
0.0001844614012
0.0001964439009
0.0002043872054
0.0002092719313
0.000211952001
0.0002131093603
0.0002132605979
0.0002127882728
0.0002119943985
0.00021122082
4.261251378e-05
5.774752534e-05
7.403152138e-05
9.009326944e-05
0.0001050242743
0.0001183537247
0.0001299345027
0.0001398216307
0.0001481761632
0.0001551999432
0.0001610947021
0.0001660307663
0.00017008544
0.0001729936244
2.766855029e-05
3.569524325e-05
4.552953994e-05
5.659714892e-05
6.829615684e-05
8.009951393e-05
9.159998967e-05
0.0001025157921
0.0001126749234
0.0001219905672
0.0001304323964
0.0001379842741
0.0001445303613
0.0001494033829
2.659302276e-05
3.618000709e-05
4.847606669e-05
6.245856176e-05
7.709503918e-05
9.154662997e-05
0.0001052267474
0.0001177822387
0.0001290439106
0.000138973009
0.0001476145479
0.0001550590962
0.0001614032923
0.00016666523
0.000170453601
4.556385581e-05
6.859543712e-05
9.334235365e-05
0.0001166235053
0.0001367612389
0.0001532304908
0.0001661829338
0.0001760828871
0.0001834845657
0.0001889173922
0.0001928379776
0.0001956183251
0.0001975503166
0.0001988511534
0.0001996323139
0.0001162667723
0.000180220606
0.0002318012715
0.0002667179208
0.0002867980449
0.0002957467881
0.0002971697741
0.0002939144685
0.0002880084377
0.0002808044698
0.0002731623729
0.0002656089015
0.0002584758968
0.0002520809248
0.0002472283444
0.0004992897736
0.0005614375906
0.0005694079936
0.0005486818629
0.000515601565
0.0004792090137
0.0004439811863
0.000411842732
0.0003833976322
0.0003586195944
0.0003372236181
0.0003188923676
0.0003035677585
0.000292446775
0.001115220243
0.00102880714
0.0009014224618
0.0007808787553
0.0006792384165
0.0005967710463
0.0005305232399
0.0004771915
0.0004339487491
0.0003985774803
0.0003694038809
0.0003452362611
0.0003255142121
0.0003114178731
0.0004992672449
0.000561421386
0.0005693929776
0.0005486672946
0.0005155872684
0.0004791952304
0.0004439681626
0.0004118304608
0.0003833861243
0.0003586087355
0.0003372133797
0.0003188826669
0.0003035584791
0.0002924377572
0.0001802197013
0.0002317968817
0.0002667101481
0.000286787514
0.0002957342076
0.0002971558459
0.0002938997592
0.0002879933252
0.0002807892929
0.00027314731
0.0002655939966
0.000258461239
0.0002520664634
0.0002472139372
6.859687678e-05
9.334210949e-05
0.0001166210595
0.000136756474
0.0001532235217
0.0001661740129
0.0001760722943
0.0001834726147
0.0001889043515
0.0001928240841
0.0001956037639
0.0001975352189
0.0001988355832
0.0001996163133
3.618129366e-05
4.847676587e-05
6.245819069e-05
7.709319217e-05
9.154305966e-05
0.0001052213579
0.0001177750174
0.0001290349468
0.0001389623929
0.0001476024629
0.000155045667
0.0001613886493
0.0001666495247
0.0001704367779
3.0106166e-05
4.216003411e-05
5.675525981e-05
7.25413361e-05
8.840653594e-05
0.0001035646632
0.000117528403
0.0001300463286
0.0001410366763
0.0001505302046
0.0001586256764
0.000165455427
0.0001711519821
0.0001757786305
0.0001790535597
6.127429322e-05
9.268634875e-05
0.0001221538472
0.000146876195
0.0001663097762
0.0001809321914
0.0001915638544
0.000199049996
0.0002041354077
0.0002074302815
0.0002094147887
0.000210458704
0.000210846501
0.0002108108977
0.000210596079
0.0002107173909
0.0003017784324
0.0003519824868
0.0003726688463
0.0003753493085
0.000368103044
0.0003559447096
0.0003418054746
0.0003273275276
0.0003133884217
0.0003004235118
0.0002886232582
0.0002780740208
0.0002689568081
0.0002621898387
0.001012182984
0.001115197068
0.001028792464
0.0009014124685
0.000780871633
0.0006792330927
0.0005967669627
0.0005305200036
0.000477188787
0.0004339465093
0.0003985755074
0.0003694021982
0.0003452347996
0.0003255129415
0.000311416754
0.003752547447
0.002394325745
0.001647354912
0.001212015538
0.0009431599731
0.0007676115187
0.0006469863814
0.0005603094082
0.0004956303035
0.0004458526801
0.0004066005463
0.0003751425765
0.0003500703188
0.0003323973064
0.001115220922
0.00102878344
0.0009013928088
0.0007808495973
0.0006792118473
0.0005967474019
0.0005305021595
0.0004771726318
0.0004339318156
0.0003985621204
0.0003693897838
0.0003452232268
0.0003255020698
0.0003114063413
0.0003017877383
0.0003519808553
0.000372659188
0.0003753346825
0.0003680856624
0.00035592598
0.0003417863202
0.0003273084837
0.0003133697181
0.0003004053707
0.0002886056455
0.0002780569421
0.0002689402335
0.0002621734866
9.26904607e-05
0.0001221547635
0.0001468734379
0.0001663035844
0.0001809230819
0.0001915523896
0.0001990367118
0.0002041207363
0.0002074145945
0.0002093983672
0.0002104417472
0.0002108291417
0.0002107932485
0.0002105780871
4.216211911e-05
5.675646273e-05
7.254098399e-05
8.840418422e-05
0.0001035601273
0.0001175216305
0.0001300374497
0.0001410258168
0.0001505175747
0.000158611504
0.000165439879
0.0001711352446
0.000175760863
0.0001790347075
2.659289112e-05
3.617955909e-05
4.847524806e-05
6.245734261e-05
7.709338466e-05
9.154452081e-05
0.0001052242108
0.0001177792612
0.000129040537
0.0001389692677
0.000147610487
0.0001550547405
0.0001613986782
0.0001666603909
0.0001704485463
4.556268449e-05
6.859334526e-05
9.33394726e-05
0.0001166199635
0.0001367571032
0.0001532258387
0.0001661778799
0.0001760774744
0.0001834788688
0.0001889114546
0.0001928318728
0.0001956120955
0.000197544023
0.0001988447976
0.0001996258178
0.0001162564076
0.0001802108577
0.0002317906351
0.0002667069143
0.0002867868756
0.0002957356396
0.0002971587276
0.0002939036433
0.0002879979067
0.0002807942331
0.0002731525
0.0002655993608
0.0002584666407
0.0002520719489
0.0002472194767
0.0003546014569
0.0004992459152
0.0005614041699
0.0005693793379
0.0005486564679
0.0005155786246
0.0004791883029
0.0004439623867
0.0004118255523
0.0003833819511
0.0003586051271
0.0003372102076
0.0003188798357
0.0003035559422
0.0002924353915
0.001012176758
0.001115188604
0.001028763221
0.000901379553
0.0007808404711
0.0006792051764
0.0005967423623
0.0005304983142
0.0004771695735
0.0004339292814
0.0003985599343
0.0003693879477
0.0003452216733
0.0003255006809
0.000311405069
0.0003546087031
0.0004992450947
0.0005613956088
0.0005693660093
0.0005486408565
0.0005155624164
0.0004791723853
0.0004439472206
0.0004118113068
0.0003833686019
0.0003585926145
0.0003371985379
0.0003188688734
0.0003035455306
0.0002924253139
0.000180225682
0.0002317940869
0.000266702272
0.000286776741
0.0002957220353
0.0002971430833
0.0002938869301
0.000287980715
0.0002807770065
0.000273135451
0.000265582617
0.0002584502557
0.0002520558557
0.0002472035178
6.859904724e-05
9.334221751e-05
0.0001166191512
0.0001367528351
0.0001532185421
0.0001661680259
0.0001760655863
0.0001834653856
0.0001888967992
0.0001928162829
0.000195595811
0.0001975272209
0.0001988275562
0.0001996081613
3.61819635e-05
4.847695415e-05
6.245762681e-05
7.709176619e-05
9.154074801e-05
0.0001052182096
0.0001177711143
0.0001290303498
0.0001389572326
0.0001475968345
0.0001550396402
0.0001613823272
0.0001666429068
0.0001704299246
2.18326682e-05
2.766741498e-05
3.569395388e-05
4.55282759e-05
5.659610041e-05
6.829550064e-05
8.009938014e-05
9.1600452e-05
0.000102516899
0.0001126767027
0.0001219929992
0.0001304354531
0.0001379879376
0.0001445346181
0.0001494082925
3.024987783e-05
4.261037891e-05
5.774517925e-05
7.402922494e-05
9.009124348e-05
0.0001050226431
0.0001183525734
0.0001299338134
0.0001398214121
0.0001481763672
0.0001552005643
0.0001610956952
0.0001660320635
0.0001700870234
0.0001729954424
5.563796045e-05
8.577771129e-05
0.0001169830151
0.0001448836903
0.0001674751296
0.0001844559059
0.0001964386411
0.0002043822226
0.0002092672603
0.0002119476082
0.0002131052447
0.0002132567146
0.000212784609
0.0002119909445
0.0002112175095
0.0001162564484
0.0001802089099
0.0002317861971
0.0002667002562
0.0002867786034
0.0002957263246
0.0002971489035
0.0002938936386
0.0002879878961
0.0002807844366
0.0002731429404
0.0002655900248
0.0002584576038
0.000252063152
0.0002472108249
0.0002107166948
0.0003017698491
0.0003519657668
0.0003726468769
0.0003753247188
0.0003680775642
0.0003559193117
0.0003417807501
0.0003273037311
0.0003133656531
0.0003004018356
0.0002886025159
0.0002780541484
0.0002689376676
0.0002621710836
0.0001162558894
0.0001802068246
0.0002317819018
0.0002666938678
0.000286770685
0.0002957174203
0.0002971394423
0.0002938839659
0.0002879782466
0.0002807749169
0.0002731336389
0.0002655810016
0.0002584487985
0.0002520545579
0.0002472023189
5.564156678e-05
8.578041713e-05
0.0001169831057
0.0001448806998
0.0001674692657
0.0001844476672
0.0001964286285
0.0002043708983
0.0002092550181
0.0002119347998
0.0002130920619
0.0002132433307
0.0002127711423
0.0002119774048
0.0002112038239
4.261402928e-05
5.774702707e-05
7.402900744e-05
9.008880613e-05
0.0001050180265
0.0001183459301
0.0001299253525
0.0001398113999
0.000148165055
0.0001551881412
0.0001610823356
0.0001660179416
0.00017007223
0.000172980047
2.766928323e-05
3.569538383e-05
4.552876832e-05
5.659526284e-05
6.829305535e-05
8.009515667e-05
9.159439963e-05
0.0001025090404
0.0001126671271
0.0001219818392
0.0001304228233
0.0001379739612
0.0001445194165
0.0001493918627
1.861620835e-05
2.177335129e-05
2.63985928e-05
3.249772892e-05
3.99086752e-05
4.836149934e-05
5.754085061e-05
6.713462529e-05
7.686448762e-05
8.650038826e-05
9.586265885e-05
0.0001048120375
0.0001132137938
0.0001208024836
0.0001266205849
2.189865766e-05
2.775523747e-05
3.570727424e-05
4.531186674e-05
5.597740665e-05
6.712694359e-05
7.82861778e-05
8.911052002e-05
9.937650972e-05
0.0001089577023
0.0001177970441
0.0001258785883
0.0001331869214
0.0001395943997
0.0001444088138
3.02498935e-05
4.261018839e-05
5.774461385e-05
7.402815491e-05
9.00895761e-05
0.0001050203834
0.000118349746
0.0001299304961
0.0001398176361
0.0001481722487
0.000155196112
0.0001610909828
0.0001660271633
0.0001700819342
0.0001729902051
4.556273489e-05
6.859240906e-05
9.333694468e-05
0.0001166155805
0.0001367509159
0.0001532180316
0.0001661687371
0.0001760672899
0.0001834678642
0.0001888998744
0.0001928198632
0.0001955997638
0.0001975314642
0.0001988320541
0.0001996129065
6.127410746e-05
9.268349368e-05
0.0001221474712
0.000146866323
0.0001662968972
0.0001809169006
0.0001915467456
0.0001990315602
0.0002041160742
0.0002074102996
0.0002093944135
0.000210438103
0.0002108257688
0.0002107900979
0.0002105751228
4.556228696e-05
6.859142443e-05
9.333517236e-05
0.0001166129094
0.0001367473569
0.0001532137171
0.0001661637667
0.0001760617997
0.0001834620089
0.0001888937247
0.000192813507
0.0001955932815
0.0001975248557
0.0001988253958
0.0001996061556
3.025015999e-05
4.261030795e-05
5.774399834e-05
7.40264194e-05
9.008654597e-05
0.0001050160101
0.0001183441073
0.0001299237133
0.0001398099095
0.0001481636902
0.0001551868678
0.0001610811852
0.0001660168754
0.0001700712492
0.0001729791487
2.189944608e-05
2.775609342e-05
3.570773358e-05
4.531153088e-05
5.597600477e-05
6.712429949e-05
7.82821916e-05
8.910519361e-05
9.936987733e-05
0.0001089498356
0.0001177880377
0.0001258684892
0.0001331758741
0.0001395824944
0.0001443961624
2.177447014e-05
2.639941435e-05
3.249803124e-05
3.990820634e-05
4.836001245e-05
5.753815366e-05
6.713057317e-05
7.685899646e-05
8.649343811e-05
9.585424623e-05
0.0001048022075
0.0001132025988
0.0001207899645
0.0001266067899
1.716285124e-05
1.907457425e-05
2.201381166e-05
2.612187898e-05
3.142986664e-05
3.786338907e-05
4.526612616e-05
5.34307688e-05
6.212878431e-05
7.11340468e-05
8.023765224e-05
8.924984584e-05
9.797023782e-05
0.0001060432499
0.0001123386002
1.861622709e-05
2.177334926e-05
2.639853247e-05
3.249756379e-05
3.990835783e-05
4.836097584e-05
5.754008725e-05
6.713358638e-05
7.68631577e-05
8.649876055e-05
9.586074447e-05
0.0001048098316
0.0001132113027
0.0001207996798
0.0001266173782
2.183270582e-05
2.766732574e-05
3.569358428e-05
4.552745805e-05
5.659469539e-05
6.829338228e-05
8.009648185e-05
9.159676271e-05
0.000102512446
0.0001126715033
0.0001219871222
0.0001304289379
0.0001379808321
0.0001445269464
0.0001493999895
2.65929291e-05
3.617916161e-05
4.847402256e-05
6.24549286e-05
7.708955125e-05
9.153916336e-05
0.0001052173186
0.0001177709174
0.0001290308578
0.0001389583708
0.0001475985143
0.0001550418391
0.0001613849689
0.0001666459567
0.0001704333353
3.010612781e-05
4.215908475e-05
5.675276412e-05
7.253684093e-05
8.839980851e-05
0.0001035556526
0.0001175171906
0.0001300330964
0.0001410216243
0.0001505135524
0.0001586076396
0.0001654362272
0.0001711317989
0.0001757575673
0.0001790315808
2.6592723e-05
3.617873794e-05
4.84732436e-05
6.24536911e-05
7.708777983e-05
9.153683377e-05
0.0001052144274
0.0001177675056
0.0001290269408
0.0001389540196
0.0001475937834
0.0001550367815
0.0001613796588
0.0001666404027
0.0001704275383
2.183262971e-05
2.766712058e-05
3.569304983e-05
4.552637542e-05
5.659287315e-05
6.829071989e-05
8.009290202e-05
9.159225061e-05
0.0001025070076
0.000112665204
0.0001219800236
0.0001304211239
0.0001379723713
0.0001445179076
0.0001493904483
1.86163275e-05
2.177347942e-05
2.639850998e-05
3.249716875e-05
3.990736263e-05
4.835919161e-05
5.753735328e-05
6.712980102e-05
7.685826053e-05
8.649272417e-05
9.585358732e-05
0.0001048015731
0.000113201995
0.0001207894136
0.00012660628
1.716308178e-05
1.907489271e-05
2.201406852e-05
2.612189208e-05
3.142941906e-05
3.786226263e-05
4.526411393e-05
5.342769133e-05
6.212449983e-05
7.112844703e-05
8.023070016e-05
8.924148764e-05
9.796050076e-05
0.0001060321509
0.0001123261873
)
;

boundaryField
{
    top
    {
        type            calculated;
        value           nonuniform List<scalar> 
127
(
1.716308178e-05
1.907498105e-05
2.177401047e-05
2.766855029e-05
3.618129366e-05
4.216211911e-05
3.61819635e-05
2.766928323e-05
2.177447014e-05
1.907489271e-05
2.201441289e-05
2.639947552e-05
3.569524325e-05
4.847676587e-05
5.675646273e-05
4.847695415e-05
3.569538383e-05
2.639941435e-05
2.201406852e-05
2.612271074e-05
3.24988141e-05
4.552953994e-05
6.245819069e-05
7.254098399e-05
6.245762681e-05
4.552876832e-05
3.249803124e-05
2.612189208e-05
3.143094616e-05
3.990990695e-05
5.659714892e-05
7.709319217e-05
8.840418422e-05
7.709176619e-05
5.659526284e-05
3.990820634e-05
3.142941906e-05
3.786473013e-05
4.836282264e-05
6.829615684e-05
9.154305966e-05
0.0001035601273
9.154074801e-05
6.829305535e-05
4.836001245e-05
3.786226263e-05
4.526772787e-05
5.754220224e-05
8.009951393e-05
0.0001052213579
0.0001175216305
0.0001052182096
8.009515667e-05
5.753815366e-05
4.526411393e-05
5.343262512e-05
6.713595015e-05
9.159998967e-05
0.0001177750174
0.0001300374497
0.0001177711143
9.159439963e-05
6.713057317e-05
5.342769133e-05
6.213088059e-05
7.686572932e-05
0.0001025157921
0.0001290349468
0.0001410258168
0.0001290303498
0.0001025090404
7.685899646e-05
6.212449983e-05
7.113634668e-05
8.650150375e-05
0.0001126749234
0.0001389623929
0.0001505175747
0.0001389572326
0.0001126671271
8.649343811e-05
7.112844703e-05
8.024013714e-05
9.586360709e-05
0.0001219905672
0.0001476024629
0.000158611504
0.0001475968345
0.0001219818392
9.585424623e-05
8.023070016e-05
8.925246857e-05
0.000104812809
0.0001304323964
0.000155045667
0.000165439879
0.0001550396402
0.0001304228233
0.0001048022075
8.924148764e-05
9.797298798e-05
0.0001132143484
0.0001379842741
0.0001613886493
0.0001711352446
0.0001613823272
0.0001379739612
0.0001132025988
9.796050076e-05
0.0001060460993
0.0001208027769
0.0001445303613
0.0001666495247
0.000175760863
0.0001666429068
0.0001445194165
0.0001207899645
0.0001060321509
0.0001123415191
0.0001266205119
0.0001494033829
0.0001704367779
0.0001790347075
0.0001704299246
0.0001493918627
0.0001266067899
0.0001123261873
)
;
    }
    bottom
    {
        type            calculated;
        value           nonuniform List<scalar> 
134
(
1.861666824e-05
2.183296206e-05
2.659302276e-05
3.0106166e-05
2.659289112e-05
2.18326682e-05
1.861620835e-05
1.716285124e-05
1.907533396e-05
2.177410037e-05
2.766811565e-05
3.618000709e-05
4.216003411e-05
3.617955909e-05
2.766741498e-05
2.177335129e-05
1.907457425e-05
2.201476707e-05
2.639970566e-05
3.569511606e-05
4.847606669e-05
5.675525981e-05
4.847524806e-05
3.569395388e-05
2.63985928e-05
2.201381166e-05
2.612314218e-05
3.249926984e-05
4.552996169e-05
6.245856176e-05
7.25413361e-05
6.245734261e-05
4.55282759e-05
3.249772892e-05
2.612187898e-05
3.143155692e-05
3.991074832e-05
5.659837762e-05
7.709503918e-05
8.840653594e-05
7.709338466e-05
5.659610041e-05
3.99086752e-05
3.142986664e-05
3.786563479e-05
4.836421071e-05
6.829843203e-05
9.154662997e-05
0.0001035646632
9.154452081e-05
6.829550064e-05
4.836149934e-05
3.786338907e-05
4.526905953e-05
5.754429076e-05
8.010300568e-05
0.0001052267474
0.000117528403
0.0001052242108
8.009938014e-05
5.754085061e-05
4.526612616e-05
5.343451069e-05
6.7138877e-05
9.160479084e-05
0.0001177822387
0.0001300463286
0.0001177792612
9.1600452e-05
6.713462529e-05
5.34307688e-05
6.213343746e-05
7.686961069e-05
0.0001025219429
0.0001290439106
0.0001410366763
0.000129040537
0.000102516899
7.686448762e-05
6.212878431e-05
7.113967895e-05
8.650640632e-05
0.0001126824266
0.000138973009
0.0001505302046
0.0001389692677
0.0001126767027
8.650038826e-05
7.11340468e-05
8.024433947e-05
9.586958437e-05
0.0001219994013
0.0001476145479
0.0001586256764
0.000147610487
0.0001219929992
9.586265885e-05
8.023765224e-05
8.925759467e-05
0.0001048198478
0.0001304424633
0.0001550590962
0.000165455427
0.0001550547405
0.0001304354531
0.0001048120375
8.924984584e-05
9.797906794e-05
0.0001132224594
0.0001379954949
0.0001614032923
0.0001711519821
0.0001613986782
0.0001379879376
0.0001132137938
9.797023782e-05
0.0001060531448
0.0001208119578
0.0001445426797
0.00016666523
0.0001757786305
0.0001666603909
0.0001445346181
0.0001208024836
0.0001060432499
0.0001123495629
0.0001266307664
0.0001494168199
0.000170453601
0.0001790535597
0.0001704485463
0.0001494082925
0.0001266205849
0.0001123386002
)
;
    }
    side-walls
    {
        type            calculated;
        value           nonuniform List<scalar> 
261
(
1.907533396e-05
2.177444988e-05
2.766898251e-05
3.618144324e-05
4.216175791e-05
3.618109098e-05
2.766846741e-05
2.177397342e-05
1.907498105e-05
2.201476707e-05
2.640003429e-05
3.569603998e-05
4.847767915e-05
5.675730447e-05
4.847716593e-05
3.569535769e-05
2.639947704e-05
2.201441289e-05
2.612314218e-05
3.249959824e-05
4.553092308e-05
6.246030487e-05
7.254363239e-05
6.245958507e-05
4.55300138e-05
3.249889739e-05
2.612271074e-05
3.143155692e-05
3.991107568e-05
5.659937592e-05
7.7096865e-05
8.840900433e-05
7.70958975e-05
5.659815693e-05
3.991012756e-05
3.143094616e-05
3.786563479e-05
4.836453445e-05
6.829944313e-05
9.154850157e-05
0.0001035672528
9.154724187e-05
6.829782907e-05
4.836322802e-05
3.786473013e-05
4.526905953e-05
5.75446232e-05
8.010402233e-05
0.0001052286484
0.0001175310527
0.0001052270713
8.010192641e-05
5.754283807e-05
4.526772787e-05
5.343451069e-05
6.713920792e-05
9.160580248e-05
0.0001177841313
0.0001300490197
0.0001177822336
9.160316908e-05
6.713685152e-05
5.343262512e-05
6.213343746e-05
7.686993066e-05
0.0001025229622
0.0001290457937
0.0001410393416
0.0001290435562
0.0001025197478
7.686690752e-05
6.213088059e-05
7.113967895e-05
8.650672002e-05
0.0001126834325
0.0001389748545
0.0001505328523
0.0001389723005
0.0001126796476
8.650298587e-05
7.113634668e-05
8.024433947e-05
9.586989398e-05
0.0001220003771
0.000147616358
0.0001586282646
0.0001476134867
0.0001219960161
9.586539164e-05
8.024013714e-05
8.925759467e-05
0.0001048201631
0.0001304434244
0.0001550608549
0.0001654579446
0.000155057696
0.0001304385055
0.0001048148837
8.925246857e-05
9.797906794e-05
0.0001132227758
0.0001379964535
0.0001614049988
0.000171154418
0.0001614015968
0.0001379909816
0.0001132167396
9.797298798e-05
0.0001060531448
0.000120812244
0.0001445436005
0.0001666668908
0.0001757809906
0.0001666632562
0.0001445376394
0.0001208054583
0.0001060460993
0.0001123495629
0.0001266310335
0.0001494177008
0.0001704552175
0.0001790558829
0.0001704513455
0.0001494113038
0.0001266235821
0.0001123415191
1.716285124e-05
1.861622709e-05
2.183270582e-05
2.65929291e-05
3.010612781e-05
2.6592723e-05
2.183262971e-05
1.86163275e-05
1.716308178e-05
1.907457425e-05
2.177334926e-05
2.766732574e-05
3.617916161e-05
4.215908475e-05
3.617873794e-05
2.766712058e-05
2.177347942e-05
1.907489271e-05
2.201381166e-05
2.639853247e-05
3.569358428e-05
4.847402256e-05
5.675276412e-05
4.84732436e-05
3.569304983e-05
2.639850998e-05
2.201406852e-05
2.612187898e-05
3.249756379e-05
4.552745805e-05
6.24549286e-05
7.253684093e-05
6.24536911e-05
4.552637542e-05
3.249716875e-05
2.612189208e-05
3.142986664e-05
3.990835783e-05
5.659469539e-05
7.708955125e-05
8.839980851e-05
7.708777983e-05
5.659287315e-05
3.990736263e-05
3.142941906e-05
3.786338907e-05
4.836097584e-05
6.829338228e-05
9.153916336e-05
0.0001035556526
9.153683377e-05
6.829071989e-05
4.835919161e-05
3.786226263e-05
4.526612616e-05
5.754008725e-05
8.009648185e-05
0.0001052173186
0.0001175171906
0.0001052144274
8.009290202e-05
5.753735328e-05
4.526411393e-05
5.34307688e-05
6.713358638e-05
9.159676271e-05
0.0001177709174
0.0001300330964
0.0001177675056
9.159225061e-05
6.712980102e-05
5.342769133e-05
6.212878431e-05
7.68631577e-05
0.000102512446
0.0001290308578
0.0001410216243
0.0001290269408
0.0001025070076
7.685826053e-05
6.212449983e-05
7.11340468e-05
8.649876055e-05
0.0001126715033
0.0001389583708
0.0001505135524
0.0001389540196
0.000112665204
8.649272417e-05
7.112844703e-05
8.023765224e-05
9.586074447e-05
0.0001219871222
0.0001475985143
0.0001586076396
0.0001475937834
0.0001219800236
9.585358732e-05
8.023070016e-05
8.924984584e-05
0.0001048098316
0.0001304289379
0.0001550418391
0.0001654362272
0.0001550367815
0.0001304211239
0.0001048015731
8.924148764e-05
9.797023782e-05
0.0001132113027
0.0001379808321
0.0001613849689
0.0001711317989
0.0001613796588
0.0001379723713
0.000113201995
9.796050076e-05
0.0001060432499
0.0001207996798
0.0001445269464
0.0001666459567
0.0001757575673
0.0001666404027
0.0001445179076
0.0001207894136
0.0001060321509
0.0001123386002
0.0001266173782
0.0001493999895
0.0001704333353
0.0001790315808
0.0001704275383
0.0001493904483
0.00012660628
0.0001123261873
)
;
    }
    inlet
    {
        type            calculated;
        value           nonuniform 0();
    }
    outlet
    {
        type            calculated;
        value           nonuniform List<scalar> 
81
(
0.0001123495629
0.0001266310335
0.0001494177008
0.0001704552175
0.0001790558829
0.0001704513455
0.0001494113038
0.0001266235821
0.0001123415191
0.0001266307664
0.0001444215001
0.0001730068638
0.000199633753
0.0002105983347
0.0001996287075
0.0001729986246
0.000144412041
0.0001266205119
0.0001494168199
0.0001730062753
0.0002112319976
0.0002472292606
0.0002621917549
0.0002472223191
0.00021122082
0.0001729936244
0.0001494033829
0.000170453601
0.0001996323139
0.0002472283444
0.000292446775
0.0003114178731
0.0002924377572
0.0002472139372
0.0001996163133
0.0001704367779
0.0001790535597
0.000210596079
0.0002621898387
0.000311416754
0.0003323973064
0.0003114063413
0.0002621734866
0.0002105780871
0.0001790347075
0.0001704485463
0.0001996258178
0.0002472194767
0.0002924353915
0.000311405069
0.0002924253139
0.0002472035178
0.0001996081613
0.0001704299246
0.0001494082925
0.0001729954424
0.0002112175095
0.0002472108249
0.0002621710836
0.0002472023189
0.0002112038239
0.000172980047
0.0001493918627
0.0001266205849
0.0001444088138
0.0001729902051
0.0001996129065
0.0002105751228
0.0001996061556
0.0001729791487
0.0001443961624
0.0001266067899
0.0001123386002
0.0001266173782
0.0001493999895
0.0001704333353
0.0001790315808
0.0001704275383
0.0001493904483
0.00012660628
0.0001123261873
)
;
    }
    procBoundary1to0
    {
        type            processor;
        value           nonuniform List<scalar> 
97
(
1.716307811e-05
1.716307811e-05
1.861626836e-05
2.18323652e-05
2.659189468e-05
3.01044704e-05
2.659160208e-05
2.18319366e-05
1.861583673e-05
1.716263521e-05
1.672623664e-05
2.189947397e-05
2.189947397e-05