/*--------------------------------*- C++ -*----------------------------------*\
| =========                 |                                                 |
| \\      /  F ield         | OpenFOAM: The Open Source CFD Toolbox           |
|  \\    /   O peration     | Version:  4.x                                   |
|   \\  /    A nd           | Web:      www.OpenFOAM.org                      |
|    \\/     M anipulation  |                                                 |
\*---------------------------------------------------------------------------*/
FoamFile
{
    version     2.0;
    format      ascii;
    class       volScalarField;
    location    "1000";
    object      X_N2;
}
// * * * * * * * * * * * * * * * * * * * * * * * * * * * * * * * * * * * * * //

dimensions      [0 0 0 0 0 0 0];

internalField   nonuniform List<scalar> 
1174
(
0.6000430186
0.6000430172
0.6000430151
0.6000430123
0.6000430088
0.6000430046
0.6000429996
0.6000429939
0.6000429876
0.6000429808
0.6000429735
0.600042966
0.6000429585
0.6000429525
0.6000430173
0.6000430152
0.6000430124
0.6000430087
0.6000430043
0.6000429991
0.6000429933
0.6000429868
0.6000429799
0.6000429726
0.6000429649
0.6000429572
0.6000429496
0.6000429436
0.6000430149
0.6000430117
0.6000430076
0.6000430025
0.6000429967
0.6000429902
0.6000429832
0.6000429757
0.6000429681
0.6000429602
0.6000429522
0.6000429443
0.6000429367
0.6000429309
0.6000430122
0.6000430077
0.6000430023
0.6000429959
0.6000429888
0.6000429812
0.6000429733
0.6000429653
0.6000429571
0.600042949
0.6000429409
0.600042933
0.6000429256
0.6000429199
0.6000430108
0.6000430058
0.6000429998
0.6000429929
0.6000429854
0.6000429775
0.6000429694
0.6000429612
0.600042953
0.6000429449
0.6000429368
0.6000429291
0.6000429218
0.6000429163
0.6000430123
0.6000430079
0.6000430025
0.6000429963
0.6000429893
0.6000429819
0.6000429742
0.6000429663
0.6000429583
0.6000429504
0.6000429425
0.6000429347
0.6000429275
0.6000429219
0.6000430151
0.600043012
0.6000430079
0.600043003
0.6000429973
0.6000429911
0.6000429844
0.6000429773
0.6000429699
0.6000429623
0.6000429547
0.600042947
0.6000429398
0.6000429341
0.6000430175
0.6000430154
0.6000430126
0.6000430091
0.6000430048
0.6000429999
0.6000429943
0.6000429882
0.6000429817
0.6000429748
0.6000429675
0.6000429602
0.6000429531
0.6000429474
0.6000430187
0.6000430173
0.6000430152
0.6000430125
0.6000430091
0.6000430051
0.6000430004
0.6000429951
0.6000429892
0.6000429828
0.600042976
0.600042969
0.6000429621
0.6000429566
0.600043019
0.6000430175
0.6000430154
0.6000430126
0.6000430089
0.6000430045
0.6000429993
0.6000429934
0.600042987
0.6000429801
0.6000429727
0.6000429651
0.6000429573
0.6000429498
0.6000429438
0.6000430148
0.6000430117
0.6000430077
0.6000430028
0.6000429972
0.6000429909
0.6000429841
0.600042977
0.6000429695
0.6000429619
0.6000429541
0.6000429463
0.6000429389
0.6000429332
0.6000430096
0.6000430046
0.6000429985
0.6000429917
0.6000429843
0.6000429766
0.6000429687
0.6000429608
0.600042953
0.6000429452
0.6000429375
0.60004293
0.600042923
0.6000429178
0.600043003
0.6000429957
0.6000429875
0.6000429789
0.6000429702
0.6000429616
0.6000429533
0.6000429452
0.6000429374
0.6000429299
0.6000429227
0.6000429157
0.6000429092
0.6000429045
0.6000429994
0.6000429911
0.600042982
0.6000429729
0.6000429639
0.6000429553
0.600042947
0.6000429391
0.6000429316
0.6000429244
0.6000429174
0.6000429107
0.6000429046
0.6000429002
0.6000430036
0.6000429964
0.6000429883
0.6000429799
0.6000429715
0.6000429631
0.600042955
0.6000429471
0.6000429395
0.6000429321
0.600042925
0.6000429181
0.6000429118
0.6000429071
0.6000430102
0.6000430052
0.6000429993
0.6000429927
0.6000429857
0.6000429784
0.6000429709
0.6000429634
0.6000429559
0.6000429485
0.6000429411
0.6000429338
0.6000429271
0.600042922
0.6000430151
0.600043012
0.6000430081
0.6000430034
0.6000429981
0.6000429922
0.6000429859
0.6000429792
0.6000429723
0.6000429651
0.6000429577
0.6000429504
0.6000429434
0.6000429381
0.6000430175
0.6000430154
0.6000430126
0.6000430092
0.600043005
0.6000430002
0.6000429948
0.6000429888
0.6000429824
0.6000429757
0.6000429686
0.6000429614
0.6000429545
0.6000429491
0.6000430177
0.6000430154
0.6000430122
0.6000430081
0.600043003
0.6000429972
0.6000429907
0.6000429837
0.6000429762
0.6000429685
0.6000429606
0.6000429527
0.6000429447
0.6000429372
0.6000429313
0.6000430141
0.6000430102
0.6000430051
0.600042999
0.6000429921
0.6000429847
0.600042977
0.6000429691
0.6000429612
0.6000429533
0.6000429455
0.6000429378
0.6000429303
0.6000429233
0.600042918
0.6000429971
0.6000429891
0.6000429801
0.6000429707
0.6000429614
0.6000429526
0.6000429442
0.6000429364
0.600042929
0.600042922
0.6000429152
0.6000429088
0.600042903
0.6000428987
0.6000429788
0.6000429669
0.6000429551
0.6000429441
0.6000429344
0.6000429259
0.6000429184
0.6000429118
0.6000429057
0.6000429001
0.6000428948
0.6000428898
0.6000428852
0.600042882
0.6000429685
0.6000429544
0.6000429416
0.6000429307
0.6000429218
0.6000429143
0.6000429079
0.6000429022
0.6000428971
0.6000428923
0.6000428877
0.6000428833
0.6000428793
0.6000428766
0.6000429813
0.6000429693
0.6000429577
0.600042947
0.6000429376
0.6000429294
0.6000429221
0.6000429155
0.6000429095
0.6000429039
0.6000428985
0.6000428935
0.6000428889
0.6000428857
0.6000429988
0.6000429907
0.6000429819
0.6000429731
0.6000429646
0.6000429564
0.6000429486
0.6000429411
0.6000429341
0.6000429273
0.6000429208
0.6000429145
0.6000429087
0.6000429046
0.6000430102
0.6000430053
0.6000429996
0.6000429933
0.6000429866
0.6000429796
0.6000429724
0.6000429651
0.6000429579
0.6000429506
0.6000429434
0.6000429363
0.6000429296
0.6000429247
0.6000430151
0.600043012
0.6000430081
0.6000430034
0.6000429982
0.6000429923
0.600042986
0.6000429793
0.6000429723
0.6000429651
0.6000429578
0.6000429506
0.6000429436
0.6000429384
0.6000430161
0.600043013
0.6000430086
0.6000430031
0.6000429968
0.6000429897
0.6000429822
0.6000429743
0.6000429662
0.600042958
0.6000429498
0.6000429417
0.6000429338
0.6000429264
0.6000429207
0.6000430105
0.6000430045
0.600042997
0.6000429887
0.6000429801
0.6000429713
0.6000429627
0.6000429542
0.6000429461
0.6000429383
0.6000429307
0.6000429234
0.6000429164
0.6000429099
0.6000429052
0.6000429924
0.6000429816
0.6000429688
0.6000429566
0.6000429453
0.6000429354
0.6000429268
0.6000429192
0.6000429125
0.6000429063
0.6000429007
0.6000428953
0.6000428903
0.6000428856
0.6000428824
0.6000429324
0.6000429203
0.6000429081
0.6000428986
0.6000428914
0.6000428861
0.600042882
0.6000428785
0.6000428755
0.6000428726
0.6000428698
0.600042867
0.6000428645
0.6000428629
0.6000429067
0.6000428898
0.6000428793
0.6000428735
0.6000428703
0.6000428683
0.6000428669
0.6000428655
0.6000428642
0.6000428628
0.6000428612
0.6000428594
0.6000428577
0.6000428568
0.6000429413
0.6000429268
0.6000429147
0.6000429054
0.6000428985
0.6000428931
0.6000428887
0.6000428849
0.6000428815
0.6000428783
0.6000428753
0.6000428722
0.6000428694
0.6000428677
0.600042981
0.6000429702
0.6000429599
0.6000429503
0.6000429416
0.6000429338
0.6000429268
0.6000429203
0.6000429143
0.6000429086
0.6000429032
0.6000428981
0.6000428934
0.6000428901
0.6000430033
0.6000429968
0.6000429897
0.6000429823
0.6000429747
0.6000429671
0.6000429596
0.6000429523
0.6000429451
0.600042938
0.6000429311
0.6000429244
0.6000429182
0.6000429137
0.6000430121
0.6000430081
0.6000430032
0.6000429976
0.6000429914
0.6000429848
0.6000429779
0.6000429708
0.6000429635
0.6000429561
0.6000429488
0.6000429415
0.6000429347
0.6000429296
0.6000430153
0.6000430117
0.6000430068
0.6000430009
0.6000429941
0.6000429866
0.6000429788
0.6000429707
0.6000429625
0.6000429542
0.6000429461
0.600042938
0.6000429302
0.6000429229
0.6000429174
0.6000430082
0.6000430013
0.6000429928
0.6000429838
0.6000429746
0.6000429656
0.6000429569
0.6000429486
0.6000429406
0.600042933
0.6000429257
0.6000429186
0.6000429119
0.6000429057
0.6000429012
0.6000429872
0.6000429729
0.600042958
0.6000429447
0.6000429334
0.6000429241
0.6000429163
0.6000429097
0.6000429038
0.6000428985
0.6000428935
0.6000428888
0.6000428844
0.6000428803
0.6000428775
0.6000429326
0.6000429179
0.6000428966
0.6000428838
0.6000428767
0.6000428727
0.6000428702
0.6000428683
0.6000428668
0.6000428652
0.6000428637
0.6000428619
0.6000428601
0.6000428583
0.6000428573
0.6000428328
0.6000428363
0.6000428403
0.6000428441
0.6000428474
0.6000428499
0.6000428517
0.6000428528
0.6000428533
0.6000428534
0.600042853
0.6000428522
0.6000428513
0.6000428511
0.6000429061
0.6000428993
0.6000428928
0.6000428876
0.6000428836
0.6000428804
0.6000428777
0.6000428754
0.6000428731
0.6000428708
0.6000428686
0.6000428663
0.6000428641
0.6000428629
0.6000429674
0.6000429583
0.6000429494
0.6000429409
0.6000429332
0.6000429262
0.6000429198
0.600042914
0.6000429085
0.6000429033
0.6000428983
0.6000428936
0.6000428892
0.6000428864
0.6000429989
0.6000429922
0.6000429851
0.6000429778
0.6000429703
0.6000429629
0.6000429556
0.6000429484
0.6000429413
0.6000429344
0.6000429277
0.6000429212
0.6000429152
0.6000429109
0.6000430105
0.6000430061
0.600043001
0.6000429952
0.600042989
0.6000429823
0.6000429753
0.6000429682
0.6000429609
0.6000429536
0.6000429463
0.6000429392
0.6000429324
0.6000429275
0.6000430162
0.6000430131
0.6000430089
0.6000430036
0.6000429975
0.6000429906
0.6000429833
0.6000429756
0.6000429678
0.6000429598
0.6000429518
0.6000429438
0.6000429361
0.6000429288
0.6000429232
0.6000430109
0.6000430052
0.6000429981
0.6000429902
0.6000429818
0.6000429734
0.600042965
0.6000429568
0.6000429489
0.6000429412
0.6000429337
0.6000429265
0.6000429196
0.6000429132
0.6000429085
0.6000429969
0.6000429856
0.6000429732
0.6000429613
0.6000429503
0.6000429406
0.600042932
0.6000429245
0.6000429176
0.6000429114
0.6000429056
0.6000429002
0.600042895
0.6000428903
0.600042887
0.6000429698
0.6000429518
0.6000429347
0.6000429208
0.6000429103
0.6000429024
0.6000428963
0.6000428913
0.6000428872
0.6000428835
0.60004288
0.6000428767
0.6000428736
0.6000428706
0.6000428688
0.6000429353
0.6000429211
0.6000429085
0.6000428989
0.6000428918
0.6000428867
0.6000428827
0.6000428795
0.6000428768
0.6000428743
0.6000428719
0.6000428695
0.600042867
0.6000428648
0.6000428635
0.6000429666
0.6000429518
0.6000429388
0.6000429277
0.6000429186
0.6000429111
0.6000429048
0.6000428995
0.6000428949
0.6000428907
0.6000428868
0.6000428831
0.6000428795
0.6000428763
0.6000428743
0.6000429787
0.6000429719
0.600042964
0.6000429559
0.600042948
0.6000429405
0.6000429335
0.600042927
0.6000429208
0.6000429149
0.6000429093
0.6000429039
0.600042899
0.6000428957
0.6000430024
0.6000429969
0.6000429908
0.6000429843
0.6000429774
0.6000429703
0.6000429632
0.6000429562
0.6000429491
0.6000429422
0.6000429353
0.6000429287
0.6000429225
0.6000429181
0.6000430118
0.600043008
0.6000430035
0.6000429984
0.6000429927
0.6000429865
0.60004298
0.6000429733
0.6000429663
0.6000429592
0.600042952
0.6000429449
0.6000429383
0.6000429333
0.6000430178
0.6000430157
0.6000430126
0.6000430087
0.6000430039
0.6000429984
0.6000429923
0.6000429856
0.6000429786
0.6000429713
0.6000429637
0.6000429561
0.6000429485
0.6000429412
0.6000429356
0.6000430149
0.6000430112
0.6000430064
0.6000430007
0.6000429942
0.6000429873
0.60004298
0.6000429726
0.6000429651
0.6000429576
0.6000429501
0.6000429427
0.6000429354
0.6000429286
0.6000429235
0.600043008
0.6000430013
0.6000429933
0.6000429846
0.6000429758
0.6000429672
0.6000429588
0.6000429509
0.6000429433
0.6000429362
0.6000429292
0.6000429226
0.6000429162
0.6000429104
0.6000429061
0.6000429967
0.6000429863
0.6000429752
0.6000429645
0.6000429544
0.6000429453
0.600042937
0.6000429296
0.6000429228
0.6000429165
0.6000429107
0.6000429051
0.6000428997
0.6000428949
0.6000428916
0.6000429871
0.600042976
0.6000429654
0.6000429551
0.6000429455
0.6000429369
0.6000429293
0.6000429224
0.6000429162
0.6000429104
0.6000429049
0.6000428998
0.6000428949
0.6000428904
0.6000428875
0.6000429969
0.6000429873
0.6000429774
0.6000429679
0.6000429587
0.6000429501
0.6000429422
0.6000429349
0.6000429281
0.6000429218
0.6000429158
0.60004291
0.6000429046
0.6000428996
0.6000428963
0.6000430064
0.6000430001
0.6000429935
0.6000429864
0.6000429791
0.6000429717
0.6000429644
0.6000429571
0.6000429501
0.6000429432
0.6000429365
0.6000429299
0.6000429236
0.6000429178
0.6000429136
0.6000430096
0.6000430057
0.600043001
0.6000429957
0.6000429899
0.6000429837
0.6000429773
0.6000429706
0.6000429638
0.6000429569
0.60004295
0.6000429431
0.6000429367
0.6000429319
0.6000430148
0.600043012
0.6000430086
0.6000430045
0.6000429999
0.6000429947
0.600042989
0.6000429829
0.6000429765
0.6000429698
0.600042963
0.6000429561
0.6000429495
0.6000429446
0.6000430192
0.6000430178
0.6000430158
0.6000430132
0.6000430098
0.6000430056
0.6000430008
0.6000429954
0.6000429894
0.6000429829
0.600042976
0.6000429689
0.6000429616
0.6000429545
0.6000429489
0.6000430178
0.6000430157
0.6000430128
0.600043009
0.6000430045
0.6000429993
0.6000429935
0.6000429873
0.6000429807
0.6000429737
0.6000429666
0.6000429593
0.6000429519
0.6000429449
0.6000429396
0.6000430149
0.6000430113
0.6000430067
0.6000430012
0.6000429951
0.6000429884
0.6000429815
0.6000429743
0.600042967
0.6000429597
0.6000429524
0.6000429451
0.600042938
0.6000429313
0.6000429263
0.6000430108
0.6000430056
0.6000429993
0.6000429923
0.6000429849
0.6000429773
0.6000429696
0.600042962
0.6000429546
0.6000429472
0.60004294
0.600042933
0.6000429262
0.6000429199
0.6000429153
0.6000430082
0.6000430024
0.6000429957
0.6000429885
0.6000429809
0.6000429733
0.6000429656
0.600042958
0.6000429506
0.6000429434
0.6000429363
0.6000429294
0.6000429228
0.6000429167
0.6000429123
0.600043011
0.6000430061
0.6000430002
0.6000429937
0.6000429868
0.6000429796
0.6000429723
0.600042965
0.6000429578
0.6000429506
0.6000429435
0.6000429365
0.6000429298
0.6000429235
0.600042919
0.6000430148
0.6000430113
0.6000430071
0.6000430022
0.6000429968
0.6000429908
0.6000429846
0.600042978
0.6000429713
0.6000429644
0.6000429575
0.6000429505
0.6000429436
0.6000429371
0.6000429324
0.6000430175
0.6000430153
0.6000430126
0.6000430093
0.6000430053
0.6000430008
0.6000429958
0.6000429903
0.6000429843
0.6000429781
0.6000429715
0.6000429648
0.600042958
0.6000429515
0.6000429465
0.6000430173
0.6000430155
0.6000430131
0.6000430101
0.6000430065
0.6000430024
0.6000429977
0.6000429925
0.6000429868
0.6000429807
0.6000429743
0.6000429677
0.6000429614
0.6000429565
0.6000430199
0.600043019
0.6000430176
0.6000430156
0.600043013
0.6000430098
0.6000430059
0.6000430013
0.6000429961
0.6000429903
0.600042984
0.6000429773
0.6000429703
0.6000429635
0.600042958
0.6000430192
0.6000430178
0.6000430159
0.6000430133
0.6000430099
0.6000430059
0.6000430012
0.6000429959
0.6000429901
0.6000429838
0.6000429771
0.6000429701
0.6000429629
0.600042956
0.6000429506
0.6000430178
0.6000430157
0.6000430128
0.6000430091
0.6000430047
0.6000429995
0.6000429938
0.6000429876
0.6000429809
0.600042974
0.6000429668
0.6000429595
0.6000429522
0.6000429453
0.60004294
0.6000430161
0.6000430132
0.6000430094
0.6000430048
0.6000429994
0.6000429933
0.6000429868
0.6000429799
0.6000429728
0.6000429655
0.6000429581
0.6000429506
0.6000429433
0.6000429364
0.6000429313
0.6000430152
0.600043012
0.6000430079
0.600043003
0.6000429974
0.6000429912
0.6000429845
0.6000429775
0.6000429702
0.6000429629
0.6000429555
0.6000429481
0.6000429408
0.600042934
0.600042929
0.6000430162
0.6000430134
0.6000430098
0.6000430054
0.6000430003
0.6000429946
0.6000429884
0.6000429818
0.6000429749
0.6000429678
0.6000429606
0.6000429534
0.6000429462
0.6000429395
0.6000429345
0.6000430178
0.6000430158
0.6000430131
0.6000430097
0.6000430057
0.600043001
0.6000429957
0.60004299
0.6000429839
0.6000429774
0.6000429707
0.6000429638
0.6000429568
0.6000429502
0.6000429452
0.6000430191
0.6000430178
0.6000430159
0.6000430135
0.6000430105
0.6000430069
0.6000430028
0.600042998
0.6000429928
0.6000429871
0.600042981
0.6000429746
0.600042968
0.6000429616
0.6000429567
0.6000430198
0.6000430188
0.6000430175
0.6000430157
0.6000430134
0.6000430105
0.600043007
0.600043003
0.6000429985
0.6000429934
0.6000429879
0.6000429819
0.6000429757
0.6000429696
0.6000429649
)
;

boundaryField
{
    top
    {
        type            calculated;
        value           nonuniform List<scalar> 
127
(
0.6000430198
0.6000430187
0.6000430175
0.6000430151
0.6000430121
0.6000430105
0.6000430118
0.6000430148
0.6000430173
0.6000430188
0.6000430173
0.6000430154
0.600043012
0.6000430081
0.6000430061
0.600043008
0.600043012
0.6000430155
0.6000430175
0.6000430152
0.6000430126
0.6000430081
0.6000430032
0.600043001
0.6000430035
0.6000430086
0.6000430131
0.6000430157
0.6000430125
0.6000430092
0.6000430034
0.6000429976
0.6000429952
0.6000429984
0.6000430045
0.6000430101
0.6000430134
0.6000430091
0.600043005
0.6000429982
0.6000429914
0.600042989
0.6000429927
0.6000429999
0.6000430065
0.6000430105
0.6000430051
0.6000430002
0.6000429923
0.6000429848
0.6000429823
0.6000429865
0.6000429947
0.6000430024
0.600043007
0.6000430004
0.6000429948
0.600042986
0.6000429779
0.6000429753
0.60004298
0.600042989
0.6000429977
0.600043003
0.6000429951
0.6000429888
0.6000429793
0.6000429708
0.6000429682
0.6000429733
0.6000429829
0.6000429925
0.6000429985
0.6000429892
0.6000429824
0.6000429723
0.6000429635
0.6000429609
0.6000429663
0.6000429765
0.6000429868
0.6000429934
0.6000429828
0.6000429757
0.6000429651
0.6000429561
0.6000429536
0.6000429592
0.6000429698
0.6000429807
0.6000429879
0.600042976
0.6000429686
0.6000429578
0.6000429488
0.6000429463
0.600042952
0.600042963
0.6000429743
0.6000429819
0.600042969
0.6000429614
0.6000429506
0.6000429415
0.6000429392
0.6000429449
0.6000429561
0.6000429677
0.6000429757
0.6000429621
0.6000429545
0.6000429436
0.6000429347
0.6000429324
0.6000429383
0.6000429495
0.6000429614
0.6000429696
0.6000429566
0.6000429491
0.6000429384
0.6000429296
0.6000429275
0.6000429333
0.6000429446
0.6000429565
0.6000429649
)
;
    }
    bottom
    {
        type            calculated;
        value           nonuniform List<scalar> 
134
(
0.600043019
0.6000430177
0.6000430161
0.6000430153
0.6000430162
0.6000430178
0.6000430192
0.6000430199
0.6000430186
0.6000430175
0.6000430154
0.600043013
0.6000430117
0.6000430131
0.6000430157
0.6000430178
0.600043019
0.6000430172
0.6000430154
0.6000430122
0.6000430086
0.6000430068
0.6000430089
0.6000430126
0.6000430158
0.6000430176
0.6000430151
0.6000430126
0.6000430081
0.6000430031
0.6000430009
0.6000430036
0.6000430087
0.6000430132
0.6000430156
0.6000430123
0.6000430089
0.600043003
0.6000429968
0.6000429941
0.6000429975
0.6000430039
0.6000430098
0.600043013
0.6000430088
0.6000430045
0.6000429972
0.6000429897
0.6000429866
0.6000429906
0.6000429984
0.6000430056
0.6000430098
0.6000430046
0.6000429993
0.6000429907
0.6000429822
0.6000429788
0.6000429833
0.6000429923
0.6000430008
0.6000430059
0.6000429996
0.6000429934
0.6000429837
0.6000429743
0.6000429707
0.6000429756
0.6000429856
0.6000429954
0.6000430013
0.6000429939
0.600042987
0.6000429762
0.6000429662
0.6000429625
0.6000429678
0.6000429786
0.6000429894
0.6000429961
0.6000429876
0.6000429801
0.6000429685
0.600042958
0.6000429542
0.6000429598
0.6000429713
0.6000429829
0.6000429903
0.6000429808
0.6000429727
0.6000429606
0.6000429498
0.6000429461
0.6000429518
0.6000429637
0.600042976
0.600042984
0.6000429735
0.6000429651
0.6000429527
0.6000429417
0.600042938
0.6000429438
0.6000429561
0.6000429689
0.6000429773
0.600042966
0.6000429573
0.6000429447
0.6000429338
0.6000429302
0.6000429361
0.6000429485
0.6000429616
0.6000429703
0.6000429585
0.6000429498
0.6000429372
0.6000429264
0.6000429229
0.6000429288
0.6000429412
0.6000429545
0.6000429635
0.6000429525
0.6000429438
0.6000429313
0.6000429207
0.6000429174
0.6000429232
0.6000429356
0.6000429489
0.600042958
)
;
    }
    side-walls
    {
        type            calculated;
        value           nonuniform List<scalar> 
261
(
0.6000430186
0.6000430173
0.6000430149
0.6000430122
0.6000430108
0.6000430123
0.6000430151
0.6000430175
0.6000430187
0.6000430172
0.6000430152
0.6000430117
0.6000430077
0.6000430058
0.6000430079
0.600043012
0.6000430154
0.6000430173
0.6000430151
0.6000430124
0.6000430076
0.6000430023
0.6000429998
0.6000430025
0.6000430079
0.6000430126
0.6000430152
0.6000430123
0.6000430087
0.6000430025
0.6000429959
0.6000429929
0.6000429963
0.600043003
0.6000430091
0.6000430125
0.6000430088
0.6000430043
0.6000429967
0.6000429888
0.6000429854
0.6000429893
0.6000429973
0.6000430048
0.6000430091
0.6000430046
0.6000429991
0.6000429902
0.6000429812
0.6000429775
0.6000429819
0.6000429911
0.6000429999
0.6000430051
0.6000429996
0.6000429933
0.6000429832
0.6000429733
0.6000429694
0.6000429742
0.6000429844
0.6000429943
0.6000430004
0.6000429939
0.6000429868
0.6000429757
0.6000429653
0.6000429612
0.6000429663
0.6000429773
0.6000429882
0.6000429951
0.6000429876
0.6000429799
0.6000429681
0.6000429571
0.600042953
0.6000429583
0.6000429699
0.6000429817
0.6000429892
0.6000429808
0.6000429726
0.6000429602
0.600042949
0.6000429449
0.6000429504
0.6000429623
0.6000429748
0.6000429828
0.6000429735
0.6000429649
0.6000429522
0.6000429409
0.6000429368
0.6000429425
0.6000429547
0.6000429675
0.600042976
0.600042966
0.6000429572
0.6000429443
0.600042933
0.6000429291
0.6000429347
0.600042947
0.6000429602
0.600042969
0.6000429585
0.6000429496
0.6000429367
0.6000429256
0.6000429218
0.6000429275
0.6000429398
0.6000429531
0.6000429621
0.6000429525
0.6000429436
0.6000429309
0.6000429199
0.6000429163
0.6000429219
0.6000429341
0.6000429474
0.6000429566
0.6000430199
0.6000430192
0.6000430178
0.6000430161
0.6000430152
0.6000430162
0.6000430178
0.6000430191
0.6000430198
0.600043019
0.6000430178
0.6000430157
0.6000430132
0.600043012
0.6000430134
0.6000430158
0.6000430178
0.6000430188
0.6000430176
0.6000430159
0.6000430128
0.6000430094
0.6000430079
0.6000430098
0.6000430131
0.6000430159
0.6000430175
0.6000430156
0.6000430133
0.6000430091
0.6000430048
0.600043003
0.6000430054
0.6000430097
0.6000430135
0.6000430157
0.600043013
0.6000430099
0.6000430047
0.6000429994
0.6000429974
0.6000430003
0.6000430057
0.6000430105
0.6000430134
0.6000430098
0.6000430059
0.6000429995
0.6000429933
0.6000429912
0.6000429946
0.600043001
0.6000430069
0.6000430105
0.6000430059
0.6000430012
0.6000429938
0.6000429868
0.6000429845
0.6000429884
0.6000429957
0.6000430028
0.600043007
0.6000430013
0.6000429959
0.6000429876
0.6000429799
0.6000429775
0.6000429818
0.60004299
0.600042998
0.600043003
0.6000429961
0.6000429901
0.6000429809
0.6000429728
0.6000429702
0.6000429749
0.6000429839
0.6000429928
0.6000429985
0.6000429903
0.6000429838
0.600042974
0.6000429655
0.6000429629
0.6000429678
0.6000429774
0.6000429871
0.6000429934
0.600042984
0.6000429771
0.6000429668
0.6000429581
0.6000429555
0.6000429606
0.6000429707
0.600042981
0.6000429879
0.6000429773
0.6000429701
0.6000429595
0.6000429506
0.6000429481
0.6000429534
0.6000429638
0.6000429746
0.6000429819
0.6000429703
0.6000429629
0.6000429522
0.6000429433
0.6000429408
0.6000429462
0.6000429568
0.600042968
0.6000429757
0.6000429635
0.600042956
0.6000429453
0.6000429364
0.600042934
0.6000429395
0.6000429502
0.6000429616
0.6000429696
0.600042958
0.6000429506
0.60004294
0.6000429313
0.600042929
0.6000429345
0.6000429452
0.6000429567
0.6000429649
)
;
    }
    inlet
    {
        type            calculated;
        value           nonuniform 0();
    }
    outlet
    {
        type            calculated;
        value           nonuniform List<scalar> 
81
(
0.6000429525
0.6000429436
0.6000429309
0.6000429199
0.6000429163
0.6000429219
0.6000429341
0.6000429474
0.6000429566
0.6000429438
0.6000429332
0.6000429178
0.6000429045
0.6000429002
0.6000429071
0.600042922
0.6000429381
0.6000429491
0.6000429313
0.600042918
0.6000428987
0.600042882
0.6000428766
0.6000428857
0.6000429046
0.6000429247
0.6000429384
0.6000429207
0.6000429052
0.6000428824
0.6000428629
0.6000428568
0.6000428677
0.6000428901
0.6000429137
0.6000429296
0.6000429174
0.6000429012
0.6000428775
0.6000428573
0.6000428511
0.6000428629
0.6000428864
0.6000429109
0.6000429275
0.6000429232
0.6000429085
0.600042887
0.6000428688
0.6000428635
0.6000428743
0.6000428957
0.6000429181
0.6000429333
0.6000429356
0.6000429235
0.6000429061
0.6000428916
0.6000428875
0.6000428963
0.6000429136
0.6000429319
0.6000429446
0.6000429489
0.6000429396
0.6000429263
0.6000429153
0.6000429123
0.600042919
0.6000429324
0.6000429465
0.6000429565
0.600042958
0.6000429506
0.60004294
0.6000429313
0.600042929
0.6000429345
0.6000429452
0.6000429567
0.6000429649
)
;
    }
    procBoundary1to0
    {
        type            processor;
        value           nonuniform List<scalar> 
97
(
0.6000430198
0.6000430198
0.6000430192
0.600043018
0.6000430167
0.6000430161
0.6000430168
0.6000430182
0.6000430194
0.60004302
0.6000430203
0.6000430175
0.6000430175
0.6000430175
0.600043015
0.6000430122
0.6000430114
0.6000430127
0.6000430158
0.6000430182
0.6000430194
0.6000430196
0.6000430184
0.6000430065
0.6000430065
0.6000430065
0.6000430002
0.6000430043
0.6000430037
0.6000430105
0.6000430158
0.6000430182
0.6000430188
0.6000430164
0.600043011
0.6000429705
0.6000429705
0.6000429705
0.6000430499
0.6000429964
0.6000430035
0.6000430126
0.6000430167
0.6000430183
0.6000430151
0.6000430064
0.6000429972
0.6000437707
0.6000437707
0.6000437707
0.6000430443
0.6000430443
0.6000430028
0.600043011
0.6000430159
0.6000430188
0.6000430162
0.6000430096
0.6000429978
0.6000429918
0.6000430012
0.600042994
0.600042994
0.600042994
0.6000430112
0.6000430164
0.6000430196
0.6000430182
0.6000430148
0.6000430095
0.6000430057
0.6000430102
0.6000430153
0.6000430142
0.6000430142
0.6000430142
0.6000430178
0.6000430203
0.6000430196
0.6000430182
0.6000430162
0.6000430149
0.6000430164
0.6000430183
0.6000430196
0.600043019
0.600043019
0.600043019
0.6000430206
0.6000430202
0.6000430196
0.6000430187
0.6000430183
0.6000430188
0.6000430196
0.6000430203
0.6000430206
)
;
    }
}


// ************************************************************************* //
