/*--------------------------------*- C++ -*----------------------------------*\
  =========                 |
  \\      /  F ield         | OpenFOAM: The Open Source CFD Toolbox
   \\    /   O peration     | Website:  https://openfoam.org
    \\  /    A nd           | Version:  6
     \\/     M anipulation  |
\*---------------------------------------------------------------------------*/
FoamFile
{
    version     2.0;
    format      ascii;
    class       volVectorField;
    object      U;
}
// * * * * * * * * * * * * * * * * * * * * * * * * * * * * * * * * * * * * * //

dimensions      [0 1 -1 0 0 0 0];

internalField   uniform (0 0 0);

boundaryField
{
    top
    {
        type            zeroGradient;
    }

    walls
    {
        type            uniformFixedValue;
        uniformValue    constant (0 0 0);
    }

    bottom
    {
        type            uniformFixedValue;
        uniformValue    constant (0 0 0);
    }

    inlet
    {
        type            flowRateInletVelocity;
        massFlowRate    constant 112.6;
        rhoInlet        4.0;    // fallback value
    }
}

// ************************************************************************* //
