/*--------------------------------*- C++ -*----------------------------------*\
| =========                 |                                                 |
| \\      /  F ield         | OpenFOAM: The Open Source CFD Toolbox           |
|  \\    /   O peration     | Version:  4.x                                   |
|   \\  /    A nd           | Web:      www.OpenFOAM.org                      |
|    \\/     M anipulation  |                                                 |
\*---------------------------------------------------------------------------*/
FoamFile
{
    version     2.0;
    format      ascii;
    class       volScalarField;
    location    "10000";
    object      CO;
}
// * * * * * * * * * * * * * * * * * * * * * * * * * * * * * * * * * * * * * //

dimensions      [0 0 0 0 0 0 0];

internalField   nonuniform List<scalar> 
1174
(
0.3999981728
0.3999968095
0.3999948842
0.3999923731
0.3999893031
0.3999857423
0.3999817858
0.3999775418
0.3999731199
0.3999686231
0.3999641465
0.3999597912
0.3999557355
0.3999525493
0.3999968908
0.3999947039
0.3999917919
0.3999882225
0.3999841193
0.3999796318
0.3999749114
0.3999700962
0.3999653024
0.3999606223
0.3999561288
0.3999518923
0.3999480475
0.3999450804
0.3999940576
0.3999901893
0.3999854038
0.3999799716
0.3999741852
0.399968307
0.3999625447
0.3999570458
0.399951904
0.3999471699
0.3999428649
0.3999390014
0.3999356407
0.3999331251
0.3999899037
0.3999838912
0.3999769904
0.3999697073
0.3999624628
0.3999555591
0.3999491847
0.3999434363
0.399938344
0.3999338939
0.399930047
0.3999267591
0.399924024
0.3999220453
0.399986936
0.3999797456
0.3999719044
0.399963966
0.39995633
0.3999492514
0.3999428686
0.3999372344
0.3999323436
0.3999281549
0.399924608
0.3999216402
0.3999192223
0.3999175026
0.3999899038
0.3999838913
0.3999769906
0.3999697074
0.399962463
0.3999555593
0.399949185
0.3999434367
0.3999383444
0.3999338943
0.3999300475
0.3999267597
0.3999240246
0.3999220459
0.3999940577
0.3999901894
0.399985404
0.3999799718
0.3999741855
0.3999683074
0.3999625451
0.3999570463
0.3999519046
0.3999471706
0.3999428656
0.3999390023
0.3999356417
0.3999331261
0.3999968909
0.399994704
0.399991792
0.3999882227
0.3999841196
0.3999796321
0.3999749119
0.3999700968
0.399965303
0.3999606231
0.3999561297
0.3999518933
0.3999480486
0.3999450816
0.3999981729
0.3999968095
0.3999948843
0.3999923732
0.3999893033
0.3999857425
0.3999817861
0.3999775423
0.3999731205
0.3999686238
0.3999641473
0.3999597922
0.3999557366
0.3999525505
0.3999983673
0.3999968909
0.399994704
0.3999917919
0.3999882226
0.3999841194
0.3999796318
0.3999749115
0.3999700963
0.3999653024
0.3999606224
0.3999561289
0.3999518923
0.3999480476
0.3999450805
0.3999939986
0.3999901556
0.3999854705
0.3999802254
0.3999747037
0.3999691438
0.3999637227
0.3999585589
0.3999537218
0.3999492456
0.3999451426
0.3999414232
0.3999381525
0.3999356821
0.3999867175
0.3999792456
0.399971127
0.3999630498
0.3999554849
0.3999486886
0.3999427531
0.3999376655
0.3999333545
0.3999297246
0.3999266769
0.3999241261
0.3999220316
0.3999205259
0.3999737687
0.3999613387
0.3999495253
0.3999392127
0.3999307083
0.3999239695
0.3999187844
0.3999148858
0.3999120116
0.3999099319
0.3999084566
0.399907435
0.3999067526
0.3999063466
0.3999615443
0.3999465853
0.3999339207
0.3999238818
0.3999162668
0.3999106854
0.3999067233
0.3999040089
0.3999022342
0.3999011541
0.3999005784
0.399900359
0.3999003731
0.399900489
0.399973769
0.3999613391
0.3999495257
0.3999392132
0.3999307089
0.3999239701
0.3999187851
0.3999148865
0.3999120123
0.3999099326
0.3999084574
0.3999074358
0.3999067534
0.3999063474
0.3999867178
0.399979246
0.3999711274
0.3999630503
0.3999554855
0.3999486893
0.3999427539
0.3999376664
0.3999333555
0.3999297256
0.3999266781
0.3999241273
0.3999220328
0.3999205272
0.3999939987
0.3999901558
0.3999854707
0.3999802257
0.3999747041
0.3999691443
0.3999637234
0.3999585596
0.3999537227
0.3999492466
0.3999451437
0.3999414244
0.3999381538
0.3999356836
0.3999968909
0.399994704
0.399991792
0.3999882228
0.3999841196
0.3999796322
0.399974912
0.399970097
0.3999653032
0.3999606233
0.39995613
0.3999518936
0.399948049
0.399945082
0.3999968391
0.3999940577
0.3999901894
0.3999854039
0.3999799717
0.3999741853
0.3999683071
0.3999625448
0.3999570459
0.3999519041
0.39994717
0.399942865
0.3999390015
0.3999356408
0.3999331252
0.3999927519
0.3999867176
0.3999792457
0.399971127
0.3999630498
0.3999554849
0.3999486886
0.3999427532
0.3999376655
0.3999333545
0.3999297246
0.399926677
0.3999241262
0.3999220316
0.399920526
0.3999651945
0.3999494222
0.3999351482
0.3999234531
0.3999145575
0.399908202
0.3999039312
0.3999012622
0.3998997646
0.3998990887
0.3998989657
0.3998991933
0.3998996094
0.3999000265
0.3999172902
0.3998906432
0.3998722821
0.3998614586
0.3998563893
0.3998552782
0.399856677
0.3998595368
0.3998631467
0.3998670475
0.3998709524
0.3998746778
0.3998780485
0.3998806304
0.3998545093
0.3998279992
0.3998166477
0.3998146846
0.39981799
0.3998239716
0.3998310937
0.3998384833
0.3998456648
0.3998523951
0.3998585614
0.3998641086
0.3998689338
0.3998725428
0.3999172915
0.3998906444
0.3998722833
0.3998614598
0.3998563905
0.3998552794
0.3998566782
0.399859538
0.3998631479
0.3998670486
0.3998709535
0.3998746788
0.3998780495
0.3998806314
0.3999651955
0.3999494231
0.3999351492
0.3999234542
0.3999145588
0.3999082033
0.3999039327
0.3999012638
0.3998997662
0.3998990904
0.3998989673
0.399899195
0.3998996111
0.3999000282
0.3999867178
0.399979246
0.3999711275
0.3999630504
0.3999554858
0.3999486896
0.3999427543
0.3999376668
0.399933356
0.3999297262
0.3999266787
0.399924128
0.3999220335
0.3999205279
0.3999940577
0.3999901894
0.399985404
0.399979972
0.3999741857
0.3999683077
0.3999625456
0.3999570469
0.3999519053
0.3999471714
0.3999428665
0.3999390033
0.3999356427
0.3999331273
0.3999945423
0.3999899039
0.3999838914
0.3999769907
0.3999697075
0.399962463
0.3999555594
0.399949185
0.3999434366
0.3999383443
0.3999338941
0.3999300472
0.3999267594
0.3999240243
0.3999220456
0.3999852062
0.3999737691
0.3999613392
0.3999495258
0.3999392132
0.3999307088
0.3999239699
0.3999187848
0.3999148862
0.399912012
0.3999099321
0.3999084569
0.3999074353
0.3999067529
0.3999063468
0.3999498245
0.3999172909
0.3998906438
0.3998722825
0.3998614589
0.3998563896
0.3998552785
0.3998566772
0.399859537
0.3998631469
0.3998670476
0.3998709526
0.3998746779
0.3998780486
0.3998806305
0.3997529542
0.3997193937
0.3997138723
0.3997235388
0.3997399811
0.3997584522
0.3997765466
0.3997931925
0.3998080215
0.3998210093
0.3998322788
0.3998419791
0.3998501296
0.3998560836
0.3994302482
0.3994724072
0.3995371853
0.3995992901
0.3996520563
0.3996950965
0.3997298115
0.399757851
0.3997806526
0.399799355
0.399814823
0.3998276752
0.3998382022
0.3998457685
0.3997529583
0.3997193966
0.3997138749
0.3997235412
0.3997399833
0.3997584542
0.3997765486
0.3997931943
0.3998080232
0.3998210108
0.3998322803
0.3998419805
0.3998501309
0.399856085
0.3999172913
0.3998906447
0.3998722839
0.3998614607
0.3998563917
0.3998552807
0.3998566795
0.3998595393
0.3998631492
0.3998670499
0.3998709548
0.3998746801
0.3998780507
0.3998806327
0.3999737689
0.3999613392
0.3999495261
0.3999392138
0.3999307097
0.3999239712
0.3999187864
0.3999148879
0.3999120139
0.3999099342
0.399908459
0.3999074375
0.3999067551
0.3999063492
0.3999899037
0.3999838913
0.3999769907
0.3999697078
0.3999624636
0.3999555601
0.399949186
0.3999434379
0.3999383458
0.3999338959
0.3999300492
0.3999267615
0.3999240265
0.399922048
0.3999928182
0.3999869363
0.3999797459
0.3999719047
0.3999639663
0.3999563304
0.3999492518
0.399942869
0.3999372348
0.399932344
0.3999281553
0.3999246083
0.3999216406
0.3999192227
0.399917503
0.3999773264
0.3999615448
0.3999465859
0.3999339213
0.3999238824
0.3999162673
0.3999106859
0.3999067237
0.3999040093
0.3999022346
0.3999011546
0.3999005788
0.3999003593
0.3999003735
0.3999004894
0.39990163
0.3998545101
0.3998280001
0.3998166486
0.3998146853
0.3998179907
0.3998239722
0.3998310943
0.3998384838
0.3998456653
0.3998523955
0.3998585618
0.3998641089
0.3998689341
0.3998725431
0.3994876595
0.3994302516
0.3994724094
0.399537187
0.3995992913
0.3996520572
0.3996950972
0.3997298121
0.3997578516
0.3997806531
0.3997993554
0.3998148233
0.3998276755
0.3998382024
0.3998457688
0.3980407918
0.3987479205
0.3991394509
0.3993686317
0.3995105657
0.3996034054
0.3996672737
0.3997132099
0.3997475201
0.399773955
0.3997948296
0.3998115898
0.3998249818
0.3998344576
0.3994302468
0.3994724107
0.3995371901
0.3995992948
0.3996520607
0.3996951004
0.399729815
0.3997578541
0.3997806554
0.3997993575
0.3998148253
0.3998276772
0.3998382041
0.3998457703
0.3998545085
0.3998280002
0.3998166499
0.3998146874
0.3998179933
0.399823975
0.3998310971
0.3998384867
0.3998456681
0.3998523982
0.3998585644
0.3998641114
0.3998689365
0.3998725455
0.3999615441
0.3999465856
0.3999339216
0.3999238832
0.3999162686
0.3999106875
0.3999067256
0.3999040114
0.3999022369
0.3999011569
0.3999005813
0.3999003618
0.399900376
0.399900492
0.3999869359
0.3999797456
0.3999719047
0.3999639666
0.399956331
0.3999492527
0.3999428702
0.3999372363
0.3999323458
0.3999281573
0.3999246106
0.399921643
0.3999192252
0.3999175057
0.3999945423
0.399989904
0.3999838915
0.3999769908
0.3999697077
0.3999624633
0.3999555597
0.3999491854
0.399943437
0.3999383448
0.3999338947
0.3999300478
0.39992676
0.3999240249
0.3999220463
0.3999852063
0.3999737694
0.3999613396
0.3999495263
0.3999392138
0.3999307094
0.3999239706
0.3999187856
0.399914887
0.3999120128
0.399909933
0.3999084578
0.3999074362
0.3999067538
0.3999063478
0.3999498261
0.3999172925
0.3998906455
0.3998722843
0.3998614607
0.3998563914
0.3998552803
0.3998566789
0.3998595387
0.3998631485
0.3998670492
0.399870954
0.3998746793
0.39987805
0.3998806319
0.399828339
0.3997529613
0.3997193992
0.3997138769
0.3997235428
0.3997399847
0.3997584554
0.3997765495
0.3997931951
0.3998080239
0.3998210115
0.3998322808
0.399841981
0.3998501313
0.3998560854
0.3994876581
0.3994302514
0.3994724138
0.3995371923
0.3995992964
0.3996520618
0.3996951013
0.3997298157
0.3997578547
0.3997806559
0.3997993579
0.3998148256
0.3998276775
0.3998382043
0.3998457706
0.3998283378
0.3997529614
0.3997194004
0.3997138788
0.3997235451
0.399739987
0.3997584576
0.3997765517
0.3997931972
0.3998080258
0.3998210133
0.3998322825
0.3998419826
0.3998501329
0.3998560868
0.3999172901
0.3998906449
0.399872285
0.3998614622
0.3998563934
0.3998552826
0.3998566814
0.3998595412
0.399863151
0.3998670517
0.3998709565
0.3998746817
0.3998780523
0.3998806342
0.3999737685
0.399961339
0.3999495262
0.3999392143
0.3999307104
0.399923972
0.3999187873
0.3999148889
0.3999120149
0.3999099353
0.3999084602
0.3999074386
0.3999067563
0.3999063504
0.3999899036
0.3999838912
0.3999769907
0.3999697079
0.3999624638
0.3999555605
0.3999491865
0.3999434384
0.3999383464
0.3999338966
0.39993005
0.3999267624
0.3999240274
0.3999220489
0.3999968391
0.3999940578
0.3999901896
0.3999854042
0.3999799721
0.3999741858
0.3999683077
0.3999625455
0.3999570467
0.399951905
0.399947171
0.399942866
0.3999390027
0.3999356421
0.3999331265
0.3999927522
0.3999867181
0.3999792463
0.3999711278
0.3999630507
0.3999554859
0.3999486897
0.3999427544
0.3999376668
0.3999333559
0.3999297261
0.3999266785
0.3999241277
0.3999220332
0.3999205276
0.3999802365
0.3999651961
0.3999494237
0.3999351498
0.3999234548
0.3999145594
0.399908204
0.3999039333
0.3999012644
0.3998997668
0.3998990909
0.3998989679
0.3998991955
0.3998996116
0.3999000286
0.399949826
0.3999172927
0.3998906461
0.3998722852
0.3998614619
0.3998563928
0.3998552817
0.3998566804
0.3998595401
0.39986315
0.3998670506
0.3998709554
0.3998746807
0.3998780513
0.3998806332
0.3999016296
0.399854511
0.3998280023
0.3998166517
0.3998146889
0.3998179945
0.399823976
0.399831098
0.3998384874
0.3998456687
0.3998523987
0.3998585649
0.3998641119
0.399868937
0.3998725459
0.3999498262
0.3999172931
0.3998906468
0.3998722862
0.3998614631
0.3998563941
0.3998552831
0.3998566819
0.3998595416
0.3998631514
0.399867052
0.3998709567
0.399874682
0.3998780525
0.3998806344
0.3999802359
0.3999651957
0.3999494237
0.3999351503
0.3999234557
0.3999145606
0.3999082055
0.399903935
0.3999012662
0.3998997687
0.3998990929
0.3998989698
0.3998991975
0.3998996136
0.3999000306
0.3999867175
0.3999792459
0.3999711277
0.3999630509
0.3999554865
0.3999486906
0.3999427555
0.3999376682
0.3999333575
0.3999297278
0.3999266804
0.3999241297
0.3999220353
0.3999205298
0.3999940575
0.3999901894
0.3999854041
0.3999799721
0.3999741861
0.3999683082
0.3999625463
0.3999570478
0.3999519063
0.3999471725
0.3999428678
0.3999390046
0.3999356442
0.3999331289
0.3999983674
0.399996891
0.3999947041
0.3999917922
0.3999882229
0.3999841198
0.3999796324
0.3999749122
0.3999700971
0.3999653034
0.3999606234
0.3999561301
0.3999518937
0.399948049
0.399945082
0.3999967988
0.3999939989
0.399990156
0.3999854709
0.399980226
0.3999747045
0.3999691446
0.3999637237
0.39995856
0.3999537231
0.399949247
0.3999451441
0.3999414248
0.3999381543
0.399935684
0.3999927522
0.3999867181
0.3999792464
0.3999711279
0.3999630509
0.3999554862
0.3999486901
0.3999427548
0.3999376673
0.3999333565
0.3999297267
0.3999266792
0.3999241285
0.399922034
0.3999205284
0.3999852063
0.3999737696
0.3999613399
0.3999495269
0.3999392147
0.3999307106
0.399923972
0.3999187871
0.3999148886
0.3999120145
0.3999099348
0.3999084596
0.3999074381
0.3999067557
0.3999063497
0.3999773263
0.3999615452
0.3999465867
0.3999339227
0.3999238842
0.3999162695
0.3999106884
0.3999067265
0.3999040122
0.3999022375
0.3999011576
0.3999005818
0.3999003624
0.3999003765
0.3999004925
0.3999852064
0.3999737697
0.3999613402
0.3999495273
0.3999392151
0.3999307112
0.3999239727
0.3999187879
0.3999148895
0.3999120154
0.3999099357
0.3999084606
0.399907439
0.3999067567
0.3999063507
0.3999927522
0.3999867181
0.3999792465
0.3999711282
0.3999630514
0.3999554869
0.3999486909
0.3999427559
0.3999376685
0.3999333578
0.3999297281
0.3999266806
0.39992413
0.3999220355
0.39992053
0.3999967987
0.3999939988
0.3999901559
0.399985471
0.3999802262
0.3999747049
0.3999691452
0.3999637246
0.399958561
0.3999537242
0.3999492484
0.3999451456
0.3999414265
0.399938156
0.3999356859
0.3999968908
0.399994704
0.3999917921
0.399988223
0.39998412
0.3999796328
0.3999749127
0.3999700979
0.3999653044
0.3999606246
0.3999561315
0.3999518953
0.3999480508
0.399945084
0.3999990497
0.399998173
0.3999968096
0.3999948844
0.3999923734
0.3999893035
0.3999857427
0.3999817864
0.3999775426
0.3999731208
0.3999686241
0.3999641477
0.3999597926
0.399955737
0.3999525509
0.3999983674
0.399996891
0.3999947041
0.3999917922
0.399988223
0.3999841199
0.3999796324
0.3999749123
0.3999700973
0.3999653036
0.3999606237
0.3999561304
0.399951894
0.3999480494
0.3999450824
0.3999968391
0.3999940578
0.3999901896
0.3999854043
0.3999799723
0.3999741861
0.3999683081
0.399962546
0.3999570474
0.3999519057
0.3999471718
0.399942867
0.3999390037
0.3999356432
0.3999331277
0.3999945423
0.399989904
0.3999838917
0.3999769912
0.3999697083
0.3999624641
0.3999555607
0.3999491866
0.3999434385
0.3999383464
0.3999338965
0.3999300498
0.3999267621
0.3999240271
0.3999220485
0.3999928182
0.3999869364
0.3999797462
0.3999719054
0.3999639673
0.3999563317
0.3999492535
0.399942871
0.399937237
0.3999323465
0.399928158
0.3999246112
0.3999216435
0.3999192258
0.3999175062
0.3999945424
0.3999899041
0.3999838918
0.3999769914
0.3999697086
0.3999624645
0.3999555612
0.3999491871
0.3999434391
0.399938347
0.3999338972
0.3999300505
0.3999267629
0.3999240279
0.3999220494
0.3999968391
0.3999940579
0.3999901897
0.3999854045
0.3999799726
0.3999741865
0.3999683087
0.3999625467
0.3999570482
0.3999519067
0.3999471729
0.3999428681
0.399939005
0.3999356445
0.3999331291
0.3999983674
0.399996891
0.3999947042
0.3999917923
0.3999882231
0.3999841202
0.3999796329
0.3999749129
0.399970098
0.3999653045
0.3999606247
0.3999561316
0.3999518954
0.3999480509
0.3999450841
0.3999990496
0.3999981729
0.3999968096
0.3999948844
0.3999923734
0.3999893036
0.399985743
0.3999817868
0.3999775432
0.3999731216
0.3999686251
0.3999641489
0.399959794
0.3999557386
0.3999525527
)
;

boundaryField
{
    top
    {
        type            zeroGradient;
    }
    bottom
    {
        type            zeroGradient;
    }
    side-walls
    {
        type            zeroGradient;
    }
    inlet
    {
        type            zeroGradient;
    }
    outlet
    {
        type            zeroGradient;
    }
    procBoundary1to0
    {
        type            processor;
        value           nonuniform List<scalar> 
97
(
0.3999990496
0.3999990496
0.3999983674
0.3999968392
0.3999945425
0.3999928184
0.3999945425
0.3999968392
0.3999983675
0.3999990497
0.3999992401
0.3999967987
0.3999967987
0.3999967987
0.3999927522
0.3999852066
0.3999773273
0.3999852069
0.3999927525
0.3999967989
0.3999983675
0.3999985481
0.3999967555
0.3999802359
0.3999802359
0.3999802359
0.3999498269
0.3999016348
0.3999498283
0.3999802373
0.3999927525
0.3999968392
0.3999975336
0.399993593
0.3999798002
0.3998283372
0.3998283372
0.3998283372
0.3994876897
0.3998283464
0.3999498281
0.3999852068
0.3999945425
0.3999968087
0.3999906069
0.3999644663
0.3998608951
0.3966916814
0.3966916814
0.3966916814
0.3994876859
0.3994876859
0.3999016338
0.399977327
0.3999928183
0.3999975336
0.3999935929
0.3999798
0.3999396729
0.3998608928
0.3999396736
0.399949825
0.399949825
0.399949825
0.3999852063
0.3999945424
0.3999985481
0.3999967555
0.399991499
0.3999797999
0.3999644659
0.3999798001
0.3999914991
0.3999927519
0.3999927519
0.3999927519
0.3999968391
0.3999992401
0.3999985337
0.3999967555
0.3999935929
0.3999906069
0.399993593
0.3999967555
0.3999985337
0.3999983673
0.3999983673
0.3999983673
0.3999995532
0.3999992401
0.3999985481
0.3999975336
0.3999968087
0.3999975336
0.3999985481
0.3999992401
0.3999995532
)
;
    }
}


// ************************************************************************* //
