/*--------------------------------*- C++ -*----------------------------------*\
| =========                 |                                                 |
| \\      /  F ield         | OpenFOAM: The Open Source CFD Toolbox           |
|  \\    /   O peration     | Version:  4.x                                   |
|   \\  /    A nd           | Web:      www.OpenFOAM.org                      |
|    \\/     M anipulation  |                                                 |
\*---------------------------------------------------------------------------*/
FoamFile
{
    version     2.0;
    format      ascii;
    class       volScalarField;
    location    "10000";
    object      Cpv;
}
// * * * * * * * * * * * * * * * * * * * * * * * * * * * * * * * * * * * * * //

dimensions      [0 2 -2 -1 0 0 0];

internalField   nonuniform List<scalar> 
1174
(
1210.460111
1210.460231
1210.46039
1210.46059
1210.460855
1210.461135
1210.46144
1210.461771
1210.462125
1210.462486
1210.462839
1210.463174
1210.463517
1210.463794
1210.461167
1210.461343
1210.461578
1210.461875
1210.462206
1210.462563
1210.462931
1210.463345
1210.463733
1210.464106
1210.464455
1210.464809
1210.46511
1210.465334
1210.460714
1210.46104
1210.46143
1210.461846
1210.462318
1210.462789
1210.46323
1210.463681
1210.464094
1210.464499
1210.464848
1210.465166
1210.465448
1210.465635
1210.459921
1210.460407
1210.460976
1210.461576
1210.462171
1210.462724
1210.463238
1210.463728
1210.464145
1210.464476
1210.464804
1210.465076
1210.465303
1210.465461
1210.460262
1210.460865
1210.461497
1210.462135
1210.462759
1210.463344
1210.463853
1210.464298
1210.464725
1210.465058
1210.465333
1210.465589
1210.465769
1210.465882
1210.460744
1210.461228
1210.461785
1210.462384
1210.462965
1210.463529
1210.464061
1210.464535
1210.464932
1210.465304
1210.46562
1210.465886
1210.466122
1210.46627
1210.460427
1210.460733
1210.461128
1210.461571
1210.46204
1210.462482
1210.462949
1210.463402
1210.46381
1210.4642
1210.464544
1210.464854
1210.46512
1210.465333
1210.459624
1210.459806
1210.460054
1210.460341
1210.46065
1210.46102
1210.461407
1210.461804
1210.462186
1210.462551
1210.462912
1210.463277
1210.463547
1210.463821
1210.460204
1210.460307
1210.460454
1210.460671
1210.460928
1210.461218
1210.461528
1210.461886
1210.462245
1210.462594
1210.462971
1210.463322
1210.463655
1210.463929
1210.460291
1210.460417
1210.460561
1210.460796
1210.461123
1210.461447
1210.461786
1210.46219
1210.462589
1210.462985
1210.463368
1210.463754
1210.464099
1210.464439
1210.464685
1210.459015
1210.459339
1210.459719
1210.460161
1210.4606
1210.461077
1210.461506
1210.461931
1210.462304
1210.462685
1210.463037
1210.463321
1210.463583
1210.463819
1210.459457
1210.460062
1210.460716
1210.461393
1210.462
1210.462551
1210.463023
1210.463454
1210.463793
1210.464083
1210.464317
1210.464509
1210.46469
1210.464787
1210.462622
1210.463621
1210.464564
1210.465412
1210.466107
1210.466635
1210.467034
1210.467349
1210.467587
1210.467774
1210.467864
1210.467955
1210.468011
1210.468028
1210.464188
1210.465422
1210.466448
1210.467274
1210.467902
1210.468345
1210.468673
1210.468902
1210.469064
1210.469134
1210.469177
1210.469218
1210.469228
1210.469239
1210.461894
1210.46289
1210.463865
1210.464676
1210.465365
1210.465934
1210.466323
1210.466606
1210.466863
1210.467045
1210.467142
1210.467225
1210.467277
1210.467274
1210.46033
1210.46092
1210.461563
1210.46223
1210.462841
1210.463367
1210.463852
1210.464249
1210.464568
1210.464853
1210.465115
1210.465325
1210.465503
1210.465619
1210.46075
1210.461073
1210.461469
1210.461895
1210.462345
1210.462802
1210.463263
1210.46367
1210.464058
1210.464396
1210.464711
1210.465019
1210.465281
1210.465505
1210.460097
1210.460259
1210.46049
1210.460792
1210.461121
1210.461503
1210.461883
1210.462265
1210.462668
1210.463036
1210.4634
1210.46375
1210.46405
1210.464292
1210.460381
1210.460595
1210.460899
1210.461288
1210.461727
1210.462191
1210.46267
1210.46313
1210.463572
1210.46398
1210.464359
1210.464687
1210.465024
1210.465263
1210.465462
1210.46169
1210.462178
1210.462758
1210.4634
1210.464046
1210.464631
1210.465205
1210.465676
1210.466076
1210.46645
1210.466718
1210.466976
1210.467197
1210.467349
1210.467471
1210.463066
1210.464332
1210.465474
1210.46642
1210.467129
1210.467627
1210.467974
1210.468205
1210.468311
1210.468398
1210.468414
1210.468398
1210.468367
1210.468338
1210.466834
1210.468985
1210.470462
1210.471356
1210.4718
1210.471864
1210.471728
1210.471482
1210.471205
1210.470878
1210.47058
1210.470274
1210.470012
1210.469802
1210.471874
1210.474009
1210.474942
1210.47508
1210.474819
1210.474327
1210.473772
1210.473144
1210.472585
1210.472074
1210.471598
1210.471126
1210.470719
1210.470425
1210.466305
1210.468442
1210.469967
1210.470833
1210.471223
1210.471312
1210.471224
1210.470988
1210.47069
1210.470389
1210.470053
1210.469727
1210.469441
1210.469237
1210.461795
1210.463056
1210.464209
1210.465162
1210.465887
1210.466406
1210.466731
1210.466944
1210.467053
1210.46713
1210.467107
1210.467089
1210.467063
1210.467052
1210.460019
1210.460643
1210.461288
1210.461933
1210.462531
1210.46305
1210.463508
1210.463933
1210.464265
1210.464563
1210.464809
1210.465
1210.465152
1210.465298
1210.460124
1210.460421
1210.4608
1210.461251
1210.46173
1210.462188
1210.462652
1210.46311
1210.463519
1210.463909
1210.46426
1210.464577
1210.464835
1210.465023
1210.459909
1210.46029
1210.460804
1210.461363
1210.461973
1210.462544
1210.4631
1210.463609
1210.464095
1210.464513
1210.464874
1210.465214
1210.46547
1210.465671
1210.465814
1210.460355
1210.461302
1210.46232
1210.463284
1210.464119
1210.464821
1210.465376
1210.465783
1210.466079
1210.466306
1210.466494
1210.46662
1210.466697
1210.466747
1210.466797
1210.463603
1210.466205
1210.468382
1210.469878
1210.470756
1210.471149
1210.471257
1210.471148
1210.470896
1210.470624
1210.470328
1210.47001
1210.469701
1210.469444
1210.469237
1210.480602
1210.483315
1210.483746
1210.482952
1210.481632
1210.480142
1210.478676
1210.477345
1210.476142
1210.475068
1210.474177
1210.473377
1210.472719
1210.47226
1210.504217
1210.500811
1210.495554
1210.490571
1210.486272
1210.482774
1210.479958
1210.477713
1210.475832
1210.474337
1210.473086
1210.472034
1210.471204
1210.470564
1210.479641
1210.482366
1210.482812
1210.482
1210.480675
1210.479193
1210.477715
1210.476368
1210.475166
1210.474122
1210.473214
1210.472433
1210.471789
1210.471292
1210.466018
1210.468197
1210.469684
1210.470562
1210.470979
1210.471057
1210.470937
1210.470706
1210.47041
1210.470092
1210.469776
1210.469455
1210.469174
1210.468964
1210.462522
1210.463526
1210.464464
1210.465334
1210.466042
1210.466591
1210.467018
1210.467319
1210.46751
1210.467661
1210.467795
1210.467906
1210.467944
1210.467979
1210.460069
1210.460579
1210.461132
1210.461718
1210.462282
1210.462846
1210.463359
1210.463815
1210.464249
1210.464622
1210.464945
1210.465205
1210.465437
1210.465564
1210.460378
1210.460856
1210.461429
1210.462059
1210.462716
1210.463324
1210.463905
1210.464436
1210.464892
1210.46529
1210.465603
1210.465892
1210.466144
1210.466355
1210.46649
1210.461958
1210.46325
1210.464478
1210.465494
1210.466316
1210.46695
1210.467362
1210.467687
1210.467917
1210.46805
1210.468096
1210.468145
1210.468163
1210.468165
1210.468161
1210.468361
1210.472169
1210.474309
1210.475209
1210.475363
1210.475106
1210.474632
1210.474044
1210.473418
1210.472847
1210.472332
1210.471826
1210.471356
1210.470959
1210.47068
1210.499992
1210.504657
1210.501242
1210.49599
1210.490965
1210.486716
1210.483236
1210.480454
1210.478193
1210.476371
1210.474844
1210.473595
1210.472551
1210.471693
1210.471091
1210.188449
1210.131031
1210.099127
1210.080341
1210.068573
1210.060834
1210.055385
1210.051395
1210.048348
1210.045905
1210.043926
1210.042291
1210.040934
1210.039849
1210.505692
1210.502268
1210.497031
1210.492008
1210.487737
1210.484241
1210.481433
1210.479152
1210.477289
1210.475798
1210.474537
1210.47351
1210.472651
1210.472017
1210.472132
1210.474292
1210.475204
1210.475392
1210.475125
1210.474649
1210.474064
1210.473439
1210.472879
1210.472323
1210.471812
1210.471348
1210.470973
1210.470679
1210.463814
1210.465005
1210.466036
1210.46685
1210.467448
1210.467899
1210.468219
1210.468455
1210.468592
1210.468686
1210.468708
1210.468747
1210.468752
1210.468721
1210.460477
1210.461055
1210.461685
1210.46233
1210.462934
1210.463485
1210.464007
1210.464454
1210.464851
1210.465173
1210.465468
1210.465728
1210.465913
1210.46606
1210.460996
1210.46139
1210.461877
1210.462434
1210.463036
1210.463629
1210.464184
1210.464715
1210.465162
1210.465566
1210.465918
1210.466263
1210.466524
1210.466725
1210.466879
1210.460948
1210.461888
1210.462887
1210.463835
1210.464698
1210.465402
1210.465943
1210.466354
1210.466684
1210.466929
1210.46706
1210.467158
1210.467235
1210.467287
1210.467314
1210.464333
1210.466974
1210.469151
1210.470638
1210.471513
1210.4719
1210.471986
1210.471891
1210.471636
1210.471359
1210.471047
1210.470728
1210.470402
1210.470126
1210.469931
1210.473426
1210.479525
1210.482226
1210.482673
1210.481901
1210.480574
1210.479088
1210.477622
1210.476255
1210.475056
1210.474051
1210.473116
1210.472352
1210.471669
1210.471181
1210.501695
1210.506338
1210.502907
1210.497656
1210.492604
1210.48831
1210.484825
1210.482022
1210.47974
1210.477883
1210.476358
1210.475114
1210.474041
1210.473175
1210.472557
1210.473093
1210.479198
1210.48191
1210.482354
1210.481584
1210.480261
1210.478778
1210.477302
1210.475967
1210.47476
1210.47373
1210.472811
1210.472043
1210.47139
1210.470907
1210.466201
1210.468359
1210.46988
1210.470738
1210.471124
1210.471211
1210.47107
1210.470824
1210.470552
1210.470253
1210.469921
1210.469608
1210.469332
1210.469137
1210.462834
1210.463823
1210.464793
1210.465608
1210.466307
1210.466856
1210.467279
1210.46757
1210.46781
1210.468016
1210.468125
1210.468197
1210.468283
1210.468304
1210.460704
1210.461205
1210.461774
1210.46236
1210.462933
1210.463502
1210.46402
1210.464467
1210.464868
1210.465231
1210.465536
1210.465769
1210.465977
1210.46614
1210.459552
1210.459764
1210.460072
1210.460484
1210.460926
1210.461398
1210.461845
1210.462322
1210.462757
1210.463187
1210.463577
1210.463934
1210.464267
1210.464558
1210.464769
1210.459598
1210.460093
1210.460699
1210.461374
1210.462005
1210.46262
1210.463154
1210.463637
1210.464034
1210.464371
1210.464663
1210.464884
1210.465098
1210.465263
1210.465382
1210.461387
1210.462611
1210.463893
1210.465083
1210.466055
1210.466771
1210.467304
1210.467649
1210.467868
1210.467971
1210.468017
1210.468039
1210.468042
1210.468002
1210.467968
1210.46417
1210.46681
1210.468959
1210.470468
1210.471375
1210.471779
1210.471867
1210.471748
1210.471515
1210.471235
1210.470909
1210.470604
1210.470304
1210.470021
1210.469836
1210.468107
1210.471923
1210.474046
1210.474959
1210.475132
1210.474872
1210.47437
1210.47378
1210.473207
1210.472591
1210.472026
1210.471542
1210.471107
1210.470708
1210.470438
1210.463815
1210.466444
1210.468621
1210.470118
1210.470998
1210.471383
1210.471466
1210.471364
1210.471114
1210.470816
1210.470514
1210.470175
1210.469861
1210.46961
1210.469403
1210.461111
1210.462332
1210.463607
1210.464765
1210.465711
1210.466435
1210.466969
1210.467291
1210.467532
1210.467662
1210.467718
1210.467726
1210.467695
1210.467647
1210.46763
1210.460948
1210.461539
1210.462181
1210.462845
1210.463467
1210.463989
1210.464484
1210.464888
1210.465231
1210.465523
1210.46576
1210.465996
1210.466207
1210.466295
1210.460213
1210.46054
1210.460948
1210.461383
1210.461853
1210.462326
1210.462795
1210.463244
1210.463626
1210.464019
1210.46436
1210.464696
1210.464949
1210.465184
1210.45985
1210.459965
1210.460157
1210.460378
1210.460662
1210.460973
1210.461357
1210.461736
1210.462131
1210.462521
1210.462912
1210.46327
1210.463617
1210.463927
1210.464185
1210.45979
1210.459999
1210.460311
1210.460733
1210.461136
1210.461579
1210.462024
1210.462467
1210.462876
1210.463283
1210.463653
1210.464013
1210.464316
1210.464573
1210.464786
1210.459937
1210.460429
1210.461002
1210.461653
1210.462295
1210.462888
1210.463434
1210.463878
1210.464318
1210.46467
1210.464937
1210.465161
1210.465337
1210.465512
1210.465643
1210.460826
1210.461751
1210.462748
1210.463718
1210.464538
1210.465243
1210.465813
1210.46622
1210.466531
1210.466778
1210.466933
1210.467046
1210.467151
1210.467232
1210.467257
1210.462008
1210.463275
1210.464492
1210.465514
1210.466328
1210.466941
1210.467368
1210.467683
1210.467916
1210.46807
1210.468161
1210.468233
1210.468242
1210.468262
1210.468252
1210.461382
1210.462298
1210.463282
1210.464233
1210.465101
1210.4658
1210.466375
1210.466788
1210.467101
1210.467347
1210.4675
1210.467625
1210.467717
1210.467769
1210.467798
1210.459056
1210.459523
1210.460125
1210.460769
1210.461431
1210.462021
1210.462574
1210.463057
1210.463486
1210.463839
1210.464158
1210.464404
1210.464584
1210.464759
1210.464899
1210.458493
1210.458732
1210.459048
1210.459457
1210.459877
1210.460292
1210.460718
1210.461159
1210.461582
1210.461962
1210.462322
1210.462665
1210.462977
1210.463242
1210.463444
1210.459561
1210.459748
1210.459972
1210.460239
1210.460565
1210.46092
1210.461287
1210.461681
1210.462078
1210.462469
1210.462823
1210.463165
1210.46347
1210.463701
1210.459101
1210.459183
1210.459302
1210.459437
1210.459649
1210.459898
1210.46019
1210.460507
1210.460852
1210.461218
1210.461593
1210.461955
1210.462312
1210.46263
1210.462897
1210.460649
1210.460783
1210.460991
1210.461224
1210.461508
1210.461832
1210.462187
1210.46256
1210.462943
1210.463341
1210.463716
1210.464071
1210.464405
1210.464717
1210.464934
1210.46008
1210.460276
1210.460577
1210.460974
1210.461418
1210.461894
1210.462358
1210.46282
1210.463306
1210.463727
1210.464114
1210.46446
1210.464782
1210.465042
1210.465244
1210.460377
1210.460773
1210.461261
1210.461806
1210.462407
1210.463027
1210.463594
1210.464117
1210.464587
1210.465
1210.465361
1210.465673
1210.465953
1210.466171
1210.466336
1210.459462
1210.459957
1210.46054
1210.461165
1210.461789
1210.462427
1210.462982
1210.463503
1210.463969
1210.464364
1210.464705
1210.46497
1210.465193
1210.465407
1210.465547
1210.459898
1210.460247
1210.460745
1210.4613
1210.461895
1210.462467
1210.463022
1210.46352
1210.463993
1210.464383
1210.464743
1210.465038
1210.465293
1210.465509
1210.465667
1210.459817
1210.460046
1210.460369
1210.460763
1210.461209
1210.461676
1210.462161
1210.462633
1210.463057
1210.463434
1210.463822
1210.464174
1210.464498
1210.464771
1210.464966
1210.460069
1210.460198
1210.460369
1210.460606
1210.460892
1210.461248
1210.461572
1210.46198
1210.462375
1210.462756
1210.463127
1210.4635
1210.463849
1210.464169
1210.464398
1210.459276
1210.459337
1210.459454
1210.459608
1210.459798
1210.460046
1210.460327
1210.460662
1210.461005
1210.461366
1210.461746
1210.462086
1210.462448
1210.462791
1210.463045
)
;

boundaryField
{
    top
    {
        type            calculated;
        value           nonuniform List<scalar> 
127
(
1210.459276
1210.460204
1210.460097
1210.460124
1210.460069
1210.460477
1210.460704
1210.460213
1210.459561
1210.459337
1210.460307
1210.460259
1210.460421
1210.460579
1210.461055
1210.461205
1210.46054
1210.459748
1210.459454
1210.460454
1210.46049
1210.4608
1210.461132
1210.461685
1210.461774
1210.460948
1210.459972
1210.459608
1210.460671
1210.460792
1210.461251
1210.461718
1210.46233
1210.46236
1210.461383
1210.460239
1210.459798
1210.460928
1210.461121
1210.46173
1210.462282
1210.462934
1210.462933
1210.461853
1210.460565
1210.460046
1210.461218
1210.461503
1210.462188
1210.462846
1210.463485
1210.463502
1210.462326
1210.46092
1210.460327
1210.461528
1210.461883
1210.462652
1210.463359
1210.464007
1210.46402
1210.462795
1210.461287
1210.460662
1210.461886
1210.462265
1210.46311
1210.463815
1210.464454
1210.464467
1210.463244
1210.461681
1210.461005
1210.462245
1210.462668
1210.463519
1210.464249
1210.464851
1210.464868
1210.463626
1210.462078
1210.461366
1210.462594
1210.463036
1210.463909
1210.464622
1210.465173
1210.465231
1210.464019
1210.462469
1210.461746
1210.462971
1210.4634
1210.46426
1210.464945
1210.465468
1210.465536
1210.46436
1210.462823
1210.462086
1210.463322
1210.46375
1210.464577
1210.465205
1210.465728
1210.465769
1210.464696
1210.463165
1210.462448
1210.463655
1210.46405
1210.464835
1210.465437
1210.465913
1210.465977
1210.464949
1210.46347
1210.462791
1210.463929
1210.464292
1210.465023
1210.465564
1210.46606
1210.46614
1210.465184
1210.463701
1210.463045
)
;
    }
    bottom
    {
        type            calculated;
        value           nonuniform List<scalar> 
134
(
1210.460291
1210.460381
1210.459909
1210.460378
1210.460996
1210.459552
1210.45985
1210.459101
1210.460111
1210.460417
1210.460595
1210.46029
1210.460856
1210.46139
1210.459764
1210.459965
1210.459183
1210.460231
1210.460561
1210.460899
1210.460804
1210.461429
1210.461877
1210.460072
1210.460157
1210.459302
1210.46039
1210.460796
1210.461288
1210.461363
1210.462059
1210.462434
1210.460484
1210.460378
1210.459437
1210.46059
1210.461123
1210.461727
1210.461973
1210.462716
1210.463036
1210.460926
1210.460662
1210.459649
1210.460855
1210.461447
1210.462191
1210.462544
1210.463324
1210.463629
1210.461398
1210.460973
1210.459898
1210.461135
1210.461786
1210.46267
1210.4631
1210.463905
1210.464184
1210.461845
1210.461357
1210.46019
1210.46144
1210.46219
1210.46313
1210.463609
1210.464436
1210.464715
1210.462322
1210.461736
1210.460507
1210.461771
1210.462589
1210.463572
1210.464095
1210.464892
1210.465162
1210.462757
1210.462131
1210.460852
1210.462125
1210.462985
1210.46398
1210.464513
1210.46529
1210.465566
1210.463187
1210.462521
1210.461218
1210.462486
1210.463368
1210.464359
1210.464874
1210.465603
1210.465918
1210.463577
1210.462912
1210.461593
1210.462839
1210.463754
1210.464687
1210.465214
1210.465892
1210.466263
1210.463934
1210.46327
1210.461955
1210.463174
1210.464099
1210.465024
1210.46547
1210.466144
1210.466524
1210.464267
1210.463617
1210.462312
1210.463517
1210.464439
1210.465263
1210.465671
1210.466355
1210.466725
1210.464558
1210.463927
1210.46263
1210.463794
1210.464685
1210.465462
1210.465814
1210.46649
1210.466879
1210.464769
1210.464185
1210.462897
)
;
    }
    side-walls
    {
        type            calculated;
        value           nonuniform List<scalar> 
261
(
1210.460111
1210.461167
1210.460714
1210.459921
1210.460262
1210.460744
1210.460427
1210.459624
1210.460204
1210.460231
1210.461343
1210.46104
1210.460407
1210.460865
1210.461228
1210.460733
1210.459806
1210.460307
1210.46039
1210.461578
1210.46143
1210.460976
1210.461497
1210.461785
1210.461128
1210.460054
1210.460454
1210.46059
1210.461875
1210.461846
1210.461576
1210.462135
1210.462384
1210.461571
1210.460341
1210.460671
1210.460855
1210.462206
1210.462318
1210.462171
1210.462759
1210.462965
1210.46204
1210.46065
1210.460928
1210.461135
1210.462563
1210.462789
1210.462724
1210.463344
1210.463529
1210.462482
1210.46102
1210.461218
1210.46144
1210.462931
1210.46323
1210.463238
1210.463853
1210.464061
1210.462949
1210.461407
1210.461528
1210.461771
1210.463345
1210.463681
1210.463728
1210.464298
1210.464535
1210.463402
1210.461804
1210.461886
1210.462125
1210.463733
1210.464094
1210.464145
1210.464725
1210.464932
1210.46381
1210.462186
1210.462245
1210.462486
1210.464106
1210.464499
1210.464476
1210.465058
1210.465304
1210.4642
1210.462551
1210.462594
1210.462839
1210.464455
1210.464848
1210.464804
1210.465333
1210.46562
1210.464544
1210.462912
1210.462971
1210.463174
1210.464809
1210.465166
1210.465076
1210.465589
1210.465886
1210.464854
1210.463277
1210.463322
1210.463517
1210.46511
1210.465448
1210.465303
1210.465769
1210.466122
1210.46512
1210.463547
1210.463655
1210.463794
1210.465334
1210.465635
1210.465461
1210.465882
1210.46627
1210.465333
1210.463821
1210.463929
1210.459101
1210.460649
1210.46008
1210.460377
1210.459462
1210.459898
1210.459817
1210.460069
1210.459276
1210.459183
1210.460783
1210.460276
1210.460773
1210.459957
1210.460247
1210.460046
1210.460198
1210.459337
1210.459302
1210.460991
1210.460577
1210.461261
1210.46054
1210.460745
1210.460369
1210.460369
1210.459454
1210.459437
1210.461224
1210.460974
1210.461806
1210.461165
1210.4613
1210.460763
1210.460606
1210.459608
1210.459649
1210.461508
1210.461418
1210.462407
1210.461789
1210.461895
1210.461209
1210.460892
1210.459798
1210.459898
1210.461832
1210.461894
1210.463027
1210.462427
1210.462467
1210.461676
1210.461248
1210.460046
1210.46019
1210.462187
1210.462358
1210.463594
1210.462982
1210.463022
1210.462161
1210.461572
1210.460327
1210.460507
1210.46256
1210.46282
1210.464117
1210.463503
1210.46352
1210.462633
1210.46198
1210.460662
1210.460852
1210.462943
1210.463306
1210.464587
1210.463969
1210.463993
1210.463057
1210.462375
1210.461005
1210.461218
1210.463341
1210.463727
1210.465
1210.464364
1210.464383
1210.463434
1210.462756
1210.461366
1210.461593
1210.463716
1210.464114
1210.465361
1210.464705
1210.464743
1210.463822
1210.463127
1210.461746
1210.461955
1210.464071
1210.46446
1210.465673
1210.46497
1210.465038
1210.464174
1210.4635
1210.462086
1210.462312
1210.464405
1210.464782
1210.465953
1210.465193
1210.465293
1210.464498
1210.463849
1210.462448
1210.46263
1210.464717
1210.465042
1210.466171
1210.465407
1210.465509
1210.464771
1210.464169
1210.462791
1210.462897
1210.464934
1210.465244
1210.466336
1210.465547
1210.465667
1210.464966
1210.464398
1210.463045
)
;
    }
    inlet
    {
        type            calculated;
        value           nonuniform 0();
    }
    outlet
    {
        type            calculated;
        value           nonuniform List<scalar> 
81
(
1210.463794
1210.465334
1210.465635
1210.465461
1210.465882
1210.46627
1210.465333
1210.463821
1210.463929
1210.464685
1210.463819
1210.464787
1210.468028
1210.469239
1210.467274
1210.465619
1210.465505
1210.464292
1210.465462
1210.467471
1210.468338
1210.469802
1210.470425
1210.469237
1210.467052
1210.465298
1210.465023
1210.465814
1210.466797
1210.469237
1210.47226
1210.470564
1210.471292
1210.468964
1210.467979
1210.465564
1210.46649
1210.468161
1210.47068
1210.471091
1210.039849
1210.472017
1210.470679
1210.468721
1210.46606
1210.466879
1210.467314
1210.469931
1210.471181
1210.472557
1210.470907
1210.469137
1210.468304
1210.46614
1210.464769
1210.465382
1210.467968
1210.469836
1210.470438
1210.469403
1210.46763
1210.466295
1210.465184
1210.464185
1210.464786
1210.465643
1210.467257
1210.468252
1210.467798
1210.464899
1210.463444
1210.463701
1210.462897
1210.464934
1210.465244
1210.466336
1210.465547
1210.465667
1210.464966
1210.464398
1210.463045
)
;
    }
    procBoundary1to0
    {
        type            processor;
        value           nonuniform List<scalar> 
97
(
1210.460018
1210.460018
1210.461036
1210.460508
1210.459566
1210.459757
1210.460368
1210.460192
1210.459514
1210.460141
1210.460222
1210.45879
1210.45879
1210.45879
1210.458994
1210.461667
1210.462925
1210.460957
1210.459818
1210.4605
1210.459989
1210.460208
1210.461384
1210.461868
1210.461868
1210.461868
1210.464196
1210.468076
1210.463707
1210.460591
1210.459534
1210.459899
1210.459696
1210.459653
1210.461176
1210.474502
1210.474502
1210.474502
1210.499558
1210.473541
1210.463387
1210.46162
1210.459705
1210.460073
1210.460891
1210.463279
1210.469947
1210.297202
1210.297202
1210.297202
1210.501056
1210.501056
1210.468318
1210.46252
1210.460006
1210.460755
1210.460242
1210.461914
1210.464434
1210.471646
1210.464092
1210.463564
1210.463564
1210.463564
1210.461924
1210.460316
1210.459437
1210.4593
1210.46049
1210.461774
1210.463002
1210.461387
1210.460174
1210.460454
1210.460454
1210.460454
1210.460004
1210.45975
1210.459653
1210.459602
1210.460158
1210.460911
1210.460709
1210.45874
1210.458343
1210.459431
1210.459431
1210.459431
1210.459054
1210.460592
1210.459947
1210.460139
1210.45914
1210.459671
1210.459673
1210.459965
1210.459233
)
;
    }
}


// ************************************************************************* //
