/*--------------------------------*- C++ -*----------------------------------*\
| =========                 |                                                 |
| \\      /  F ield         | OpenFOAM: The Open Source CFD Toolbox           |
|  \\    /   O peration     | Version:  4.x                                   |
|   \\  /    A nd           | Web:      www.OpenFOAM.org                      |
|    \\/     M anipulation  |                                                 |
\*---------------------------------------------------------------------------*/
FoamFile
{
    version     2.0;
    format      ascii;
    class       volScalarField;
    location    "10000";
    object      molarConc;
}
// * * * * * * * * * * * * * * * * * * * * * * * * * * * * * * * * * * * * * //

dimensions      [0 -3 0 0 1 0 0];

internalField   nonuniform List<scalar> 
1174
(
9.96326689
9.963266363
9.963266202
9.963266347
9.963265448
9.963265841
9.963266692
9.963267346
9.963267548
9.963267705
9.963268171
9.96326915
9.963268331
9.963267261
9.963214568
9.963214655
9.963214642
9.963214175
9.963214248
9.963214575
9.963215342
9.963213951
9.963213945
9.963214281
9.96321504
9.963214403
9.963215
9.963215854
9.963252068
9.963251343
9.963251147
9.963252425
9.963252213
9.963252474
9.963253808
9.963253478
9.963253631
9.963252422
9.963252365
9.963252095
9.963251512
9.963252411
9.963314038
9.96331406
9.963313434
9.963312865
9.963312343
9.963312662
9.963312709
9.963311331
9.963311039
9.96331263
9.963311705
9.963311376
9.963311067
9.963311171
9.96330849
9.963307338
9.963307446
9.96330762
9.963307273
9.963306617
9.963307007
9.963307569
9.96330586
9.963306148
9.963306848
9.963305963
9.963306791
9.963308261
9.963268843
9.963268984
9.963269002
9.963268456
9.963268719
9.963268431
9.963267503
9.963267034
9.963267848
9.963267184
9.96326689
9.963266875
9.963266067
9.963266727
9.963267789
9.963268165
9.963267765
9.963267561
9.963267459
9.963269319
9.963269271
9.963268816
9.963269249
9.96326884
9.963269044
9.963269187
9.963269545
9.963268977
9.963299323
9.963299039
9.963298387
9.963298461
9.963299705
9.963299325
9.963299033
9.963298589
9.963298911
9.963299658
9.963299781
9.963298551
9.963300796
9.963298956
9.963261802
9.963262201
9.963262635
9.963261919
9.963261424
9.963261314
9.963261836
9.963261047
9.963260976
9.963261766
9.963260934
9.963260995
9.963260739
9.963259857
9.963256125
9.96325577
9.963257588
9.963257606
9.963255518
9.963255949
9.963257248
9.963256028
9.963255478
9.963255044
9.963254811
9.963253573
9.963253403
9.96325184
9.963251519
9.963345659
9.963344913
9.963344863
9.96334388
9.96334427
9.963342792
9.963343284
9.963342905
9.963343901
9.963342842
9.963341757
9.963342678
9.963342801
9.963340837
9.9633537
9.963353656
9.963353789
9.963352464
9.963352732
9.96335267
9.963353071
9.963352032
9.963352535
9.963352738
9.963353452
9.963354211
9.963353589
9.963354957
9.963237372
9.963237684
9.963238357
9.96323758
9.963237182
9.963238117
9.963239228
9.963239254
9.963238979
9.963237949
9.963239539
9.96323911
9.963239062
9.963239926
9.963205617
9.963204284
9.963204172
9.963203413
9.963202749
9.963203174
9.963202773
9.963202254
9.963201256
9.963202233
9.96320244
9.963201143
9.963200542
9.96319942
9.963277318
9.963277814
9.96327674
9.963277986
9.963277923
9.963276627
9.963278292
9.96328006
9.963278721
9.963277993
9.963279211
9.963279167
9.96327935
9.96328131
9.963305725
9.963306519
9.963307252
9.963306474
9.963306548
9.963307844
9.963307581
9.963308332
9.963310002
9.963310456
9.963309627
9.963309391
9.963308942
9.963309227
9.963250361
9.963249665
9.963248713
9.963248594
9.963248411
9.963248025
9.963246771
9.963247354
9.963247533
9.963248858
9.963249793
9.963249395
9.963249519
9.963248218
9.963273332
9.96327415
9.963274409
9.963273676
9.963273823
9.963272776
9.963272862
9.963273281
9.963272449
9.963273039
9.963273013
9.963272569
9.963273208
9.963273086
9.963258004
9.963258606
9.963259084
9.963258966
9.963258993
9.963259168
9.963258998
9.963259329
9.963259454
9.963259879
9.963260095
9.963261199
9.963259868
9.963261663
9.963261933
9.963204267
9.963204258
9.963205542
9.963206339
9.963206757
9.963208223
9.963206901
9.963207373
9.963207995
9.963206642
9.963208012
9.963207408
9.963206566
9.96320755
9.963207531
9.963251055
9.963251587
9.963252242
9.963252226
9.963252806
9.963253674
9.963253589
9.963252763
9.963253597
9.96325181
9.963251514
9.963251375
9.963251206
9.96325095
9.963256838
9.963257043
9.963257427
9.963256445
9.963254541
9.963255969
9.963257275
9.96325808
9.963257285
9.963257925
9.963256929
9.963257205
9.963256644
9.963256704
9.963258793
9.963259275
9.963258429
9.963259607
9.963259274
9.963259724
9.963258615
9.963260277
9.963259115
9.963257309
9.963256068
9.963257369
9.963258274
9.963258424
9.963285865
9.963286849
9.963284634
9.963285151
9.963286246
9.963286292
9.963284921
9.963285211
9.963285515
9.963284765
9.963285893
9.963287242
9.963288001
9.963287717
9.963320858
9.963321658
9.963321719
9.963321315
9.963321011
9.963320722
9.96332186
9.963322007
9.963322665
9.96332144
9.963323246
9.963323227
9.963322841
9.963321598
9.963322834
9.963321718
9.963322388
9.963322789
9.96332357
9.963325255
9.963326432
9.963325691
9.963326595
9.963326398
9.963326415
9.963327262
9.963328221
9.963326864
9.963284439
9.963285314
9.963285767
9.963285127
9.96328449
9.963285478
9.963285541
9.963284853
9.963285186
9.963284829
9.963284663
9.963284436
9.963285147
9.963286
9.963294087
9.963293801
9.963292233
9.963292178
9.963291033
9.963291843
9.963291991
9.96329232
9.963291156
9.963290845
9.963290802
9.963289226
9.963289734
9.963290837
9.963291816
9.963311069
9.963309831
9.963309137
9.963308681
9.963308625
9.963307803
9.963307291
9.963307933
9.963308985
9.963309324
9.963308244
9.963307875
9.963308171
9.963308459
9.96330755
9.963289793
9.963291385
9.963290166
9.963289528
9.963289371
9.963290291
9.963289298
9.963289112
9.963290267
9.963289182
9.963288087
9.96328825
9.963288674
9.963287809
9.963287727
9.963230397
9.963230452
9.963231296
9.963231986
9.963231481
9.963231347
9.963231475
9.963230661
9.963230911
9.963232228
9.963231119
9.963232018
9.963231943
9.963230751
9.963366345
9.963366253
9.963367345
9.963365295
9.963367108
9.963368118
9.963368638
9.963367426
9.963369456
9.963368531
9.963368577
9.963369283
9.963368127
9.963369689
9.963283152
9.963282565
9.963282577
9.963284284
9.963284046
9.963283404
9.963284233
9.963284336
9.963284506
9.963284199
9.963284028
9.963283854
9.963283017
9.963283875
9.963301659
9.963300285
9.963300146
9.963300033
9.963299631
9.963300311
9.963300664
9.963300652
9.963300895
9.963301045
9.963301071
9.96330219
9.963302649
9.963302694
9.963242848
9.963242884
9.963243872
9.963241844
9.963240741
9.9632405
9.963240091
9.963240875
9.963243158
9.963244109
9.963243308
9.96324177
9.963242705
9.963242604
9.963305938
9.963304621
9.963304882
9.963305032
9.963306243
9.963305929
9.963306084
9.963306553
9.963305342
9.963304618
9.963303964
9.963304274
9.963303706
9.963305526
9.963276002
9.963275873
9.963276359
9.963276537
9.963275739
9.963276249
9.963275772
9.963274985
9.963274936
9.963274815
9.963276232
9.963276117
9.963275452
9.963274605
9.963274836
9.963258029
9.963257161
9.963256151
9.963256585
9.963256039
9.963255029
9.963257187
9.963256929
9.963256356
9.963256961
9.963259248
9.963259118
9.96325907
9.963258912
9.963258633
9.963242488
9.963242619
9.963242804
9.963243757
9.96324403
9.963243471
9.963242964
9.963243654
9.963245252
9.963244729
9.963243113
9.963243538
9.963244693
9.963245119
9.963244417
9.963343444
9.963342163
9.963342579
9.963343396
9.963343599
9.963342696
9.963342721
9.96334136
9.963341024
9.963339894
9.963340704
9.963340594
9.963340898
9.963341259
9.963340746
9.986888646
9.986907484
9.986924104
9.986939924
9.986957094
9.986970645
9.986986806
9.987002346
9.987017595
9.987034644
9.98705083
9.987066336
9.987081524
9.987099147
9.963285365
9.963286187
9.963286172
9.963286331
9.963286621
9.963287501
9.963287575
9.963288351
9.963289442
9.963288276
9.963288859
9.963288228
9.963288659
9.963289876
9.963244616
9.963243703
9.963244017
9.963242458
9.963242447
9.963242038
9.963242549
9.963244073
9.963242931
9.963243561
9.963244252
9.963245158
9.963244309
9.963244419
9.963226197
9.9632272
9.963226813
9.963226656
9.963227629
9.963227687
9.963227688
9.963226808
9.963227148
9.963226804
9.963228145
9.963226998
9.963226639
9.963227874
9.963296715
9.963296856
9.963297111
9.963296943
9.96329767
9.963298844
9.963298534
9.963299
9.963298925
9.963299854
9.963299413
9.963298293
9.963298863
9.963298438
9.963234396
9.963233364
9.96323332
9.963233361
9.963232663
9.963232284
9.963232435
9.963231615
9.963232566
9.963233018
9.963233452
9.963231587
9.963231834
9.963232987
9.963233317
9.963278518
9.963277646
9.963277982
9.963278371
9.963276825
9.96327589
9.963276131
9.963276602
9.963275792
9.963275106
9.963277115
9.9632783
9.963278646
9.963278784
9.963279123
9.963249724
9.963249137
9.96324792
9.963247791
9.963247773
9.963249027
9.96324928
9.963248288
9.963249601
9.963248793
9.963248611
9.963248774
9.963250146
9.963250381
9.963249592
9.96328978
9.963289542
9.96329019
9.963290209
9.963289699
9.963289598
9.963289191
9.963289365
9.963290521
9.96329055
9.963288093
9.963289409
9.963288275
9.96328959
9.963289998
9.96324991
9.963249854
9.963251081
9.96325186
9.963253549
9.963255136
9.963255394
9.96325524
9.96325604
9.963256807
9.96325753
9.963257161
9.96325902
9.963259863
9.963260228
9.963308081
9.9633075
9.963307567
9.963307704
9.963307089
9.963306754
9.963306178
9.963306898
9.963306314
9.963306809
9.963305703
9.963306149
9.963305214
9.963304932
9.963305018
9.963291616
9.96329138
9.963289404
9.963290332
9.963291651
9.963291814
9.963293341
9.963294182
9.963293103
9.963292212
9.963293093
9.963293764
9.963293965
9.963293222
9.963225703
9.963226594
9.963225782
9.963226819
9.963226204
9.963225956
9.963225781
9.963227115
9.963226676
9.963224637
9.963225185
9.963225744
9.96322409
9.963224761
9.963271045
9.96327026
9.963269603
9.963269787
9.963270466
9.963269894
9.963269729
9.963270755
9.963271315
9.963271138
9.963271483
9.963273291
9.963274054
9.963273841
9.963303517
9.963304238
9.963304489
9.963303093
9.963302955
9.963302743
9.963304313
9.963303703
9.963304219
9.963303469
9.96330305
9.963302567
9.963301428
9.963300395
9.963299981
9.963319144
9.963318752
9.963318668
9.963317636
9.963318862
9.963318647
9.963319543
9.963319377
9.963320157
9.963320809
9.963320862
9.963322293
9.963321878
9.9633221
9.963322294
9.963276448
9.96327605
9.963275676
9.963273715
9.963272273
9.963272413
9.963271382
9.96327141
9.96327123
9.963272265
9.963272741
9.963272078
9.963270911
9.963271247
9.963271284
9.963258635
9.96325815
9.963258457
9.963257083
9.963255332
9.963255664
9.963255815
9.963256126
9.963256218
9.963255585
9.963256164
9.963255604
9.96325552
9.963256128
9.963254813
9.963256441
9.963256085
9.96325722
9.9632575
9.963256702
9.9632563
9.963257342
9.963258105
9.963256779
9.963258751
9.9632599
9.963259088
9.963258393
9.963258855
9.963257675
9.963278161
9.963278226
9.963277014
9.963276316
9.963276039
9.963277425
9.963277784
9.963277211
9.963278216
9.96327858
9.963277847
9.963279145
9.963279855
9.963278668
9.963278569
9.963291643
9.963291386
9.963291359
9.963291156
9.963291131
9.963290895
9.963289768
9.96329108
9.963289681
9.963289173
9.963289152
9.963289243
9.96328992
9.963290727
9.963289841
9.963271784
9.963272545
9.963273292
9.963272685
9.963272118
9.963273672
9.963272833
9.963273235
9.963273532
9.963273632
9.963274157
9.963272538
9.963270255
9.963272091
9.963279572
9.963278804
9.96327761
9.963277887
9.96327777
9.963277897
9.963277704
9.963277484
9.963279336
9.963278774
9.963279149
9.963277883
9.963278913
9.963277178
9.963280363
9.963280593
9.96327977
9.963280572
9.963280836
9.963281943
9.963280815
9.963280948
9.963280671
9.963280499
9.963279818
9.963280101
9.963279868
9.963279941
9.963278928
9.963290614
9.963291574
9.963291498
9.963289164
9.963290284
9.963290521
9.963290723
9.963290489
9.963290967
9.963290095
9.963289634
9.963288108
9.963287993
9.96328843
9.963287699
9.963300504
9.963300275
9.963301998
9.963302325
9.963302941
9.963303942
9.963304152
9.963306134
9.963304563
9.963304386
9.96330582
9.963307077
9.96330872
9.963308404
9.963307898
9.963285196
9.963285188
9.963285629
9.963284821
9.963285602
9.963284651
9.963283277
9.963283914
9.963284181
9.963283349
9.963284123
9.96328445
9.963283227
9.96328182
9.963282273
9.963255272
9.963255789
9.96325536
9.963255443
9.963255329
9.963255522
9.963256812
9.963257108
9.963256393
9.963255802
9.963255614
9.963254259
9.963254711
9.963253552
9.96325363
9.963254658
9.963255122
9.96325629
9.963256507
9.963254674
9.96325402
9.963252402
9.96325272
9.963252851
9.963252087
9.963252952
9.963252645
9.963252137
9.963252308
9.963252505
9.963348914
9.963350044
9.963350179
9.963350878
9.963350368
9.963351584
9.963351367
9.963351219
9.96335025
9.963349994
9.963348627
9.963348612
9.963350097
9.963349786
9.96334877
9.963361865
9.963361172
9.963360869
9.963359239
9.963359458
9.963361203
9.963362492
9.963362332
9.963362023
9.963362649
9.963362738
9.963362141
9.963361515
9.963361487
9.96336136
9.96330279
9.963302238
9.963302864
9.96330404
9.963304367
9.963304811
9.963305606
9.963305339
9.963304828
9.963304151
9.963304665
9.963304714
9.963304999
9.96330552
9.963318472
9.963317879
9.963317397
9.963318495
9.963318014
9.96331799
9.963317758
9.963317913
9.96331783
9.963317346
9.963316717
9.963316745
9.963316488
9.963317046
9.963316541
9.963236499
9.963235674
9.963233989
9.963234099
9.963234379
9.963234801
9.963235223
9.963235697
9.963236025
9.963235461
9.963235648
9.963236152
9.963236577
9.963236557
9.963237803
9.963274499
9.963276094
9.963276767
9.963276177
9.963275931
9.963275512
9.963276094
9.963276354
9.963274086
9.963273785
9.96327354
9.963273673
9.963273164
9.963273823
9.963273875
9.963268428
9.963267232
9.963267143
9.963267874
9.963267219
9.963265312
9.963264849
9.963264415
9.963264149
9.963264082
9.963264028
9.963263979
9.963263224
9.96326339
9.963263108
9.963326334
9.963325259
9.963325165
9.963325674
9.963326657
9.963325491
9.963326477
9.963326219
9.96332562
9.963325644
9.963325533
9.963326748
9.963327672
9.963326687
9.963326609
9.963294702
9.96329617
9.963295518
9.963295682
9.963295312
9.963296056
9.963296281
9.963297209
9.963296789
9.963297965
9.963297967
9.963298823
9.963299417
9.963299736
9.963299846
9.963288947
9.963288741
9.963288189
9.963287781
9.963287409
9.963287482
9.963286905
9.963286597
9.963287743
9.96328984
9.963289569
9.963289388
9.963288715
9.963288666
9.963289127
9.963268316
9.963267819
9.9632681
9.963268068
9.963268164
9.963266829
9.96326899
9.96326754
9.963267214
9.963267608
9.963267986
9.963267508
9.963267142
9.963266654
9.963267216
9.963308877
9.96330938
9.963309044
9.963309103
9.963309849
9.96330988
9.963310213
9.963309401
9.96330942
9.963309236
9.963308307
9.963309514
9.963309009
9.963308168
9.963308393
)
;

boundaryField
{
    top
    {
        type            calculated;
        value           nonuniform List<scalar> 
127
(
9.963308877
9.963261802
9.963273332
9.963284439
9.963305938
9.963296715
9.963271045
9.963279572
9.96330279
9.96330938
9.963262201
9.96327415
9.963285314
9.963304621
9.963296856
9.96327026
9.963278804
9.963302238
9.963309044
9.963262635
9.963274409
9.963285767
9.963304882
9.963297111
9.963269603
9.96327761
9.963302864
9.963309103
9.963261919
9.963273676
9.963285127
9.963305032
9.963296943
9.963269787
9.963277887
9.96330404
9.963309849
9.963261424
9.963273823
9.96328449
9.963306243
9.96329767
9.963270466
9.96327777
9.963304367
9.96330988
9.963261314
9.963272776
9.963285478
9.963305929
9.963298844
9.963269894
9.963277897
9.963304811
9.963310213
9.963261836
9.963272862
9.963285541
9.963306084
9.963298534
9.963269729
9.963277704
9.963305606
9.963309401
9.963261047
9.963273281
9.963284853
9.963306553
9.963299
9.963270755
9.963277484
9.963305339
9.96330942
9.963260976
9.963272449
9.963285186
9.963305342
9.963298925
9.963271315
9.963279336
9.963304828
9.963309236
9.963261766
9.963273039
9.963284829
9.963304618
9.963299854
9.963271138
9.963278774
9.963304151
9.963308307
9.963260934
9.963273013
9.963284663
9.963303964
9.963299413
9.963271483
9.963279149
9.963304665
9.963309514
9.963260995
9.963272569
9.963284436
9.963304274
9.963298293
9.963273291
9.963277883
9.963304714
9.963309009
9.963260739
9.963273208
9.963285147
9.963303706
9.963298863
9.963274054
9.963278913
9.963304999
9.963308168
9.963259857
9.963273086
9.963286
9.963305526
9.963298438
9.963273841
9.963277178
9.96330552
9.963308393
)
;
    }
    bottom
    {
        type            calculated;
        value           nonuniform List<scalar> 
134
(
9.963256125
9.963258004
9.963294087
9.963276002
9.963234396
9.963303517
9.963280363
9.963318472
9.96326689
9.96325577
9.963258606
9.963293801
9.963275873
9.963233364
9.963304238
9.963280593
9.963317879
9.963266363
9.963257588
9.963259084
9.963292233
9.963276359
9.96323332
9.963304489
9.96327977
9.963317397
9.963266202
9.963257606
9.963258966
9.963292178
9.963276537
9.963233361
9.963303093
9.963280572
9.963318495
9.963266347
9.963255518
9.963258993
9.963291033
9.963275739
9.963232663
9.963302955
9.963280836
9.963318014
9.963265448
9.963255949
9.963259168
9.963291843
9.963276249
9.963232284
9.963302743
9.963281943
9.96331799
9.963265841
9.963257248
9.963258998
9.963291991
9.963275772
9.963232435
9.963304313
9.963280815
9.963317758
9.963266692
9.963256028
9.963259329
9.96329232
9.963274985
9.963231615
9.963303703
9.963280948
9.963317913
9.963267346
9.963255478
9.963259454
9.963291156
9.963274936
9.963232566
9.963304219
9.963280671
9.96331783
9.963267548
9.963255044
9.963259879
9.963290845
9.963274815
9.963233018
9.963303469
9.963280499
9.963317346
9.963267705
9.963254811
9.963260095
9.963290802
9.963276232
9.963233452
9.96330305
9.963279818
9.963316717
9.963268171
9.963253573
9.963261199
9.963289226
9.963276117
9.963231587
9.963302567
9.963280101
9.963316745
9.96326915
9.963253403
9.963259868
9.963289734
9.963275452
9.963231834
9.963301428
9.963279868
9.963316488
9.963268331
9.96325184
9.963261663
9.963290837
9.963274605
9.963232987
9.963300395
9.963279941
9.963317046
9.963267261
9.963251519
9.963261933
9.963291816
9.963274836
9.963233317
9.963299981
9.963278928
9.963316541
)
;
    }
    side-walls
    {
        type            calculated;
        value           nonuniform List<scalar> 
261
(
9.96326689
9.963214568
9.963252068
9.963314038
9.96330849
9.963268843
9.963267789
9.963299323
9.963261802
9.963266363
9.963214655
9.963251343
9.96331406
9.963307338
9.963268984
9.963268165
9.963299039
9.963262201
9.963266202
9.963214642
9.963251147
9.963313434
9.963307446
9.963269002
9.963267765
9.963298387
9.963262635
9.963266347
9.963214175
9.963252425
9.963312865
9.96330762
9.963268456
9.963267561
9.963298461
9.963261919
9.963265448
9.963214248
9.963252213
9.963312343
9.963307273
9.963268719
9.963267459
9.963299705
9.963261424
9.963265841
9.963214575
9.963252474
9.963312662
9.963306617
9.963268431
9.963269319
9.963299325
9.963261314
9.963266692
9.963215342
9.963253808
9.963312709
9.963307007
9.963267503
9.963269271
9.963299033
9.963261836
9.963267346
9.963213951
9.963253478
9.963311331
9.963307569
9.963267034
9.963268816
9.963298589
9.963261047
9.963267548
9.963213945
9.963253631
9.963311039
9.96330586
9.963267848
9.963269249
9.963298911
9.963260976
9.963267705
9.963214281
9.963252422
9.96331263
9.963306148
9.963267184
9.96326884
9.963299658
9.963261766
9.963268171
9.96321504
9.963252365
9.963311705
9.963306848
9.96326689
9.963269044
9.963299781
9.963260934
9.96326915
9.963214403
9.963252095
9.963311376
9.963305963
9.963266875
9.963269187
9.963298551
9.963260995
9.963268331
9.963215
9.963251512
9.963311067
9.963306791
9.963266067
9.963269545
9.963300796
9.963260739
9.963267261
9.963215854
9.963252411
9.963311171
9.963308261
9.963266727
9.963268977
9.963298956
9.963259857
9.963318472
9.963236499
9.963274499
9.963268428
9.963326334
9.963294702
9.963288947
9.963268316
9.963308877
9.963317879
9.963235674
9.963276094
9.963267232
9.963325259
9.96329617
9.963288741
9.963267819
9.96330938
9.963317397
9.963233989
9.963276767
9.963267143
9.963325165
9.963295518
9.963288189
9.9632681
9.963309044
9.963318495
9.963234099
9.963276177
9.963267874
9.963325674
9.963295682
9.963287781
9.963268068
9.963309103
9.963318014
9.963234379
9.963275931
9.963267219
9.963326657
9.963295312
9.963287409
9.963268164
9.963309849
9.96331799
9.963234801
9.963275512
9.963265312
9.963325491
9.963296056
9.963287482
9.963266829
9.96330988
9.963317758
9.963235223
9.963276094
9.963264849
9.963326477
9.963296281
9.963286905
9.96326899
9.963310213
9.963317913
9.963235697
9.963276354
9.963264415
9.963326219
9.963297209
9.963286597
9.96326754
9.963309401
9.96331783
9.963236025
9.963274086
9.963264149
9.96332562
9.963296789
9.963287743
9.963267214
9.96330942
9.963317346
9.963235461
9.963273785
9.963264082
9.963325644
9.963297965
9.96328984
9.963267608
9.963309236
9.963316717
9.963235648
9.96327354
9.963264028
9.963325533
9.963297967
9.963289569
9.963267986
9.963308307
9.963316745
9.963236152
9.963273673
9.963263979
9.963326748
9.963298823
9.963289388
9.963267508
9.963309514
9.963316488
9.963236577
9.963273164
9.963263224
9.963327672
9.963299417
9.963288715
9.963267142
9.963309009
9.963317046
9.963236557
9.963273823
9.96326339
9.963326687
9.963299736
9.963288666
9.963266654
9.963308168
9.963316541
9.963237803
9.963273875
9.963263108
9.963326609
9.963299846
9.963289127
9.963267216
9.963308393
)
;
    }
    inlet
    {
        type            calculated;
        value           nonuniform 0();
    }
    outlet
    {
        type            calculated;
        value           nonuniform List<scalar> 
81
(
9.963267261
9.963215854
9.963252411
9.963311171
9.963308261
9.963266727
9.963268977
9.963298956
9.963259857
9.963251519
9.963340837
9.963354957
9.963239926
9.96319942
9.96328131
9.963309227
9.963248218
9.963273086
9.963261933
9.963207531
9.96325095
9.963256704
9.963258424
9.963287717
9.963321598
9.963326864
9.963286
9.963291816
9.96330755
9.963287727
9.963230751
9.963369689
9.963283875
9.963302694
9.963242604
9.963305526
9.963274836
9.963258633
9.963244417
9.963340746
9.987099147
9.963289876
9.963244419
9.963227874
9.963298438
9.963233317
9.963279123
9.963249592
9.963289998
9.963260228
9.963305018
9.963293222
9.963224761
9.963273841
9.963299981
9.963322294
9.963271284
9.963254813
9.963257675
9.963278569
9.963289841
9.963272091
9.963277178
9.963278928
9.963287699
9.963307898
9.963282273
9.96325363
9.963252505
9.96334877
9.96336136
9.96330552
9.963316541
9.963237803
9.963273875
9.963263108
9.963326609
9.963299846
9.963289127
9.963267216
9.963308393
)
;
    }
    procBoundary1to0
    {
        type            processor;
        value           nonuniform List<scalar> 
97
(
9.963268087
9.963268087
9.963215215
9.963250989
9.963312972
9.963310104
9.963268884
9.963268374
9.963298842
9.963261331
9.963256057
9.963345547
9.963345547
9.963345547
9.963352294
9.963239021
9.963204921
9.96327802
9.963307034
9.963251627
9.963272735
9.963259889
9.963203257
9.963250079
9.963250079
9.963250079
9.963257248
9.963258128
9.963284068
9.963320188
9.96332266
9.963284441
9.963292506
9.963312386
9.96328998
9.963230694
9.963230694
9.963230694
9.963367041
9.963283378
9.963301646
9.963241601
9.963305297
9.963275064
9.963257661
9.963242565
9.963336253
9.986895248
9.986895248
9.986895248
9.963284784
9.963284784
9.963244802
9.963227153
9.963296428
9.963234344
9.963280024
9.96324947
9.963289236
9.96324293
9.963308031
9.963291936
9.963291936
9.963291936
9.963224924
9.963271777
9.963302263
9.963317724
9.96327569
9.963257139
9.963257788
9.963278389
9.963293089
9.963272151
9.963272151
9.963272151
9.963278686
9.963281988
9.963290461
9.963301125
9.963284631
9.963256544
9.963254401
9.963348508
9.963362371
9.963303371
9.963303371
9.963303371
9.963318826
9.963235741
9.963274232
9.963268191
9.963326295
9.963293883
9.963289268
9.963270179
9.963308998
)
;
    }
}


// ************************************************************************* //
