/*--------------------------------*- C++ -*----------------------------------*\
| =========                 |                                                 |
| \\      /  F ield         | OpenFOAM: The Open Source CFD Toolbox           |
|  \\    /   O peration     | Version:  4.x                                   |
|   \\  /    A nd           | Web:      www.OpenFOAM.org                      |
|    \\/     M anipulation  |                                                 |
\*---------------------------------------------------------------------------*/
FoamFile
{
    version     2.0;
    format      ascii;
    class       volScalarField;
    location    "10000";
    object      N2;
}
// * * * * * * * * * * * * * * * * * * * * * * * * * * * * * * * * * * * * * //

dimensions      [0 0 0 0 0 0 0];

internalField   nonuniform List<scalar> 
1174
(
0.599999489
0.5999991082
0.5999985704
0.5999978689
0.5999970113
0.5999960165
0.5999949111
0.5999937253
0.5999924897
0.599991233
0.5999899819
0.5999887646
0.5999876308
0.5999867401
0.5999991309
0.5999985201
0.5999977067
0.5999967097
0.5999955635
0.5999943098
0.599992991
0.5999916456
0.599990306
0.599988998
0.5999877421
0.5999865578
0.599985483
0.5999846534
0.5999983396
0.5999972593
0.5999959227
0.5999944054
0.5999927891
0.599991147
0.5999895371
0.5999880006
0.5999865637
0.5999852405
0.5999840371
0.5999829569
0.5999820171
0.5999813136
0.5999971796
0.5999955006
0.5999935734
0.5999915392
0.5999895156
0.599987587
0.5999858061
0.5999841998
0.5999827765
0.5999815325
0.5999804569
0.5999795374
0.5999787722
0.5999782185
0.5999963511
0.5999943432
0.5999921533
0.5999899361
0.5999878032
0.5999858257
0.5999840424
0.5999824679
0.5999811009
0.5999799299
0.599978938
0.5999781077
0.5999774311
0.5999769498
0.5999971797
0.5999955007
0.5999935735
0.5999915393
0.5999895158
0.5999875873
0.5999858064
0.5999842001
0.599982777
0.599981533
0.5999804575
0.599979538
0.5999787728
0.5999782192
0.5999983397
0.5999972594
0.5999959228
0.5999944056
0.5999927894
0.5999911474
0.5999895375
0.5999880012
0.5999865644
0.5999852413
0.599984038
0.5999829579
0.5999820181
0.5999813147
0.599999131
0.5999985201
0.5999977068
0.5999967098
0.5999955637
0.5999943101
0.5999929914
0.5999916461
0.5999903066
0.5999889988
0.599987743
0.5999865589
0.5999854842
0.5999846547
0.599999489
0.5999991082
0.5999985704
0.599997869
0.5999970114
0.5999960167
0.5999949114
0.5999937257
0.5999924903
0.5999912337
0.5999899828
0.5999887656
0.5999876321
0.5999867415
0.5999995434
0.599999131
0.5999985201
0.5999977067
0.5999967097
0.5999955635
0.5999943099
0.5999929911
0.5999916456
0.5999903061
0.5999889981
0.5999877422
0.5999865579
0.599985483
0.5999846534
0.5999983231
0.5999972498
0.5999959413
0.5999944763
0.5999929339
0.5999913807
0.5999898661
0.5999884232
0.5999870714
0.5999858202
0.5999846732
0.5999836333
0.5999827186
0.5999820278
0.5999962898
0.5999942033
0.599991936
0.5999896801
0.599987567
0.5999856684
0.5999840099
0.5999825881
0.599981383
0.599980368
0.5999795155
0.5999788017
0.5999782154
0.5999777939
0.5999926744
0.5999892036
0.5999859046
0.5999830244
0.5999806488
0.5999787659
0.5999773167
0.5999762266
0.5999754225
0.5999748402
0.5999744267
0.5999741398
0.5999739477
0.5999738332
0.5999892619
0.599985085
0.5999815483
0.5999787443
0.5999766168
0.5999750569
0.5999739491
0.5999731895
0.5999726923
0.5999723891
0.5999722266
0.5999721637
0.5999721661
0.5999721974
0.5999926746
0.5999892039
0.599985905
0.5999830248
0.5999806493
0.5999787665
0.5999773174
0.5999762274
0.5999754233
0.599974841
0.5999744275
0.5999741407
0.5999739486
0.5999738342
0.59999629
0.5999942036
0.5999919363
0.5999896805
0.5999875676
0.599985669
0.5999840107
0.599982589
0.599981384
0.5999803691
0.5999795168
0.5999788031
0.5999782169
0.5999777954
0.5999983232
0.59999725
0.5999959415
0.5999944766
0.5999929343
0.5999913812
0.5999898668
0.599988424
0.5999870724
0.5999858214
0.5999846745
0.5999836347
0.5999827202
0.5999820295
0.599999131
0.5999985201
0.5999977068
0.5999967098
0.5999955637
0.5999943102
0.5999929916
0.5999916463
0.5999903069
0.5999889991
0.5999877434
0.5999865593
0.5999854846
0.5999846553
0.5999991165
0.5999983398
0.5999972594
0.5999959229
0.5999944056
0.5999927893
0.5999911472
0.5999895373
0.5999880008
0.5999865639
0.5999852407
0.5999840372
0.599982957
0.5999820172
0.5999813137
0.599997975
0.59999629
0.5999942035
0.5999919362
0.5999896802
0.5999875672
0.5999856685
0.59998401
0.5999825882
0.5999813831
0.5999803681
0.5999795156
0.5999788018
0.5999782155
0.599977794
0.5999902799
0.5999858762
0.5999818903
0.599978624
0.5999761391
0.5999743631
0.5999731691
0.5999724223
0.5999720024
0.599971812
0.599971776
0.5999718379
0.5999719525
0.5999720678
0.5999769061
0.5999694665
0.5999643392
0.5999613157
0.5999598985
0.5999595862
0.5999599747
0.5999607711
0.599961777
0.5999628642
0.5999639526
0.599964991
0.5999659306
0.5999666504
0.5999593828
0.5999519806
0.5999488093
0.5999482586
0.5999491788
0.5999508462
0.5999528322
0.599954893
0.5999568959
0.5999587729
0.5999604927
0.5999620397
0.5999633853
0.5999643919
0.5999769072
0.5999694674
0.5999643402
0.5999613169
0.5999598997
0.5999595875
0.599959976
0.5999607724
0.5999617783
0.5999628655
0.599963954
0.5999649924
0.5999659319
0.5999666517
0.5999902807
0.5999858769
0.5999818911
0.599978625
0.5999761403
0.5999743646
0.5999731707
0.599972424
0.5999720043
0.5999718139
0.5999717779
0.5999718399
0.5999719546
0.5999720699
0.59999629
0.5999942036
0.5999919365
0.5999896807
0.5999875679
0.5999856695
0.5999840112
0.5999825896
0.5999813847
0.5999803699
0.5999795176
0.5999788039
0.5999782177
0.5999777963
0.5999983397
0.5999972594
0.5999959229
0.5999944058
0.5999927896
0.5999911478
0.5999895381
0.5999880019
0.5999865652
0.5999852423
0.5999840391
0.5999829591
0.5999820195
0.5999813162
0.5999984752
0.5999971799
0.5999955009
0.5999935737
0.5999915395
0.5999895159
0.5999875874
0.5999858064
0.5999842001
0.5999827769
0.5999815329
0.5999804572
0.5999795377
0.5999787725
0.5999782188
0.5999958682
0.5999926749
0.5999892041
0.5999859051
0.5999830248
0.5999806492
0.5999787663
0.5999773171
0.599976227
0.5999754229
0.5999748405
0.599974427
0.5999741401
0.599973948
0.5999738335
0.5999859892
0.5999769071
0.5999694672
0.5999643397
0.5999613162
0.5999598989
0.5999595866
0.599959975
0.5999607713
0.5999617772
0.5999628644
0.5999639528
0.5999649912
0.5999659308
0.5999666505
0.5999310311
0.599921662
0.599920118
0.5999228133
0.5999274002
0.5999325537
0.5999376024
0.599942247
0.5999463847
0.5999500086
0.599953153
0.5999558595
0.5999581335
0.5999597948
0.5998409642
0.5998527256
0.5998708012
0.5998881318
0.5999028569
0.599914868
0.5999245558
0.5999323807
0.5999387438
0.5999439628
0.5999482792
0.5999518656
0.5999548031
0.5999569145
0.5999310347
0.5999216646
0.5999201206
0.5999228159
0.5999274028
0.5999325562
0.5999376048
0.5999422493
0.5999463869
0.5999500107
0.599953155
0.5999558614
0.5999581353
0.5999597965
0.599976907
0.5999694678
0.599964341
0.599961318
0.5999599011
0.5999595891
0.5999599777
0.5999607741
0.59996178
0.5999628672
0.5999639556
0.599964994
0.5999659335
0.5999666532
0.5999926745
0.599989204
0.5999859054
0.5999830256
0.5999806504
0.5999787679
0.599977319
0.5999762292
0.5999754252
0.5999748431
0.5999744296
0.5999741429
0.5999739509
0.5999738364
0.5999971796
0.5999955007
0.5999935737
0.5999915398
0.5999895165
0.5999875883
0.5999858077
0.5999842017
0.5999827788
0.599981535
0.5999804597
0.5999795403
0.5999787753
0.5999782219
0.5999979938
0.5999963514
0.5999943435
0.5999921537
0.5999899366
0.5999878036
0.5999858262
0.5999840428
0.5999824683
0.5999811013
0.5999799303
0.5999789384
0.5999781082
0.5999774315
0.5999769502
0.5999936686
0.5999892626
0.5999850857
0.599981549
0.5999787449
0.5999766174
0.5999750575
0.5999739496
0.5999731901
0.5999726928
0.5999723895
0.5999722271
0.5999721641
0.5999721665
0.5999721977
0.599972538
0.5999593843
0.5999519819
0.5999488104
0.5999482596
0.5999491797
0.599950847
0.5999528328
0.5999548936
0.5999568964
0.5999587734
0.5999604931
0.5999620401
0.5999633857
0.5999643922
0.5998569941
0.5998409687
0.5998527284
0.5998708031
0.5998881331
0.5999028579
0.5999148687
0.5999245564
0.5999323812
0.5999387442
0.5999439632
0.5999482796
0.5999518659
0.5999548033
0.5999569147
0.5994531793
0.5996505254
0.5997597939
0.5998237538
0.5998633649
0.5998892749
0.5999070993
0.5999199193
0.5999294946
0.599936872
0.5999426975
0.5999473747
0.5999511119
0.5999537564
0.5998409636
0.5998527292
0.5998708063
0.5998881371
0.5999028619
0.5999148724
0.5999245598
0.5999323843
0.599938747
0.5999439658
0.5999482819
0.5999518681
0.5999548054
0.5999569167
0.5999593822
0.599951982
0.599948812
0.5999482622
0.5999491829
0.5999508505
0.5999528364
0.5999548972
0.5999569
0.5999587769
0.5999604965
0.5999620433
0.5999633888
0.5999643953
0.5999892617
0.5999850854
0.5999815494
0.599978746
0.5999766191
0.5999750596
0.5999739521
0.5999731928
0.5999726957
0.5999723926
0.5999722303
0.5999721674
0.5999721698
0.5999722011
0.599996351
0.5999943432
0.5999921537
0.5999899369
0.5999878044
0.5999858274
0.5999840444
0.5999824703
0.5999811036
0.5999799329
0.5999789412
0.5999781112
0.5999774348
0.5999769537
0.5999984752
0.59999718
0.599995501
0.5999935738
0.5999915397
0.5999895162
0.5999875877
0.5999858069
0.5999842006
0.5999827775
0.5999815335
0.599980458
0.5999795385
0.5999787733
0.5999782197
0.5999958684
0.5999926752
0.5999892045
0.5999859056
0.5999830255
0.5999806499
0.5999787671
0.599977318
0.599976228
0.5999754239
0.5999748416
0.5999744281
0.5999741412
0.5999739491
0.5999738346
0.5999859909
0.5999769086
0.5999694689
0.5999643415
0.5999613181
0.5999599008
0.5999595885
0.5999599769
0.5999607732
0.5999617791
0.5999628662
0.5999639546
0.5999649929
0.5999659324
0.5999666522
0.5999520796
0.5999310386
0.5999216676
0.5999201229
0.5999228178
0.5999274043
0.5999325575
0.5999376059
0.5999422502
0.5999463876
0.5999500113
0.5999531555
0.5999558619
0.5999581357
0.5999597969
0.5998569944
0.5998409695
0.599852733
0.5998708087
0.5998881388
0.5999028631
0.5999148734
0.5999245606
0.5999323849
0.5999387475
0.5999439662
0.5999482823
0.5999518684
0.5999548056
0.5999569169
0.5999520783
0.5999310385
0.5999216691
0.5999201254
0.5999228207
0.5999274073
0.5999325605
0.5999376087
0.5999422529
0.5999463902
0.5999500137
0.5999531578
0.599955864
0.5999581377
0.5999597989
0.5999769061
0.5999694683
0.5999643424
0.59996132
0.5999599034
0.5999595915
0.5999599801
0.5999607765
0.5999617824
0.5999628695
0.5999639578
0.5999649961
0.5999659355
0.5999666552
0.5999926742
0.599989204
0.5999859058
0.5999830263
0.5999806513
0.599978769
0.5999773202
0.5999762305
0.5999754266
0.5999748445
0.5999744311
0.5999741443
0.5999739524
0.599973838
0.5999971795
0.5999955007
0.5999935738
0.59999154
0.5999895169
0.5999875888
0.5999858084
0.5999842025
0.5999827797
0.5999815361
0.5999804608
0.5999795415
0.5999787765
0.5999782232
0.5999991166
0.5999983399
0.5999972596
0.5999959231
0.5999944059
0.5999927897
0.5999911478
0.599989538
0.5999880016
0.5999865648
0.5999852418
0.5999840385
0.5999829584
0.5999820187
0.5999813152
0.5999979753
0.5999962904
0.599994204
0.5999919368
0.5999896811
0.5999875681
0.5999856696
0.5999840113
0.5999825896
0.5999813846
0.5999803697
0.5999795173
0.5999788036
0.5999782174
0.5999777959
0.5999944807
0.5999902815
0.5999858778
0.599981892
0.599978626
0.5999761412
0.5999743654
0.5999731715
0.5999724248
0.599972005
0.5999718146
0.5999717786
0.5999718405
0.5999719552
0.5999720705
0.5999859909
0.5999769089
0.5999694696
0.5999643427
0.5999613195
0.5999599025
0.5999595903
0.5999599787
0.5999607751
0.5999617809
0.599962868
0.5999639563
0.5999649946
0.5999659341
0.5999666538
0.5999725379
0.5999593854
0.5999519846
0.5999488142
0.599948264
0.5999491843
0.5999508516
0.5999528374
0.599954898
0.5999569007
0.5999587775
0.599960497
0.5999620439
0.5999633893
0.5999643957
0.5999859909
0.5999769093
0.5999694704
0.5999643439
0.5999613211
0.5999599042
0.5999595921
0.5999599806
0.599960777
0.5999617827
0.5999628698
0.5999639581
0.5999649963
0.5999659357
0.5999666554
0.5999944801
0.5999902811
0.5999858778
0.5999818926
0.5999786271
0.5999761428
0.5999743673
0.5999731737
0.5999724271
0.5999720074
0.5999718171
0.5999717812
0.5999718431
0.5999719577
0.5999720731
0.5999962898
0.5999942037
0.5999919369
0.5999896815
0.599987569
0.5999856709
0.5999840129
0.5999825914
0.5999813867
0.599980372
0.5999795198
0.5999788063
0.5999782202
0.5999777988
0.5999983395
0.5999972593
0.599995923
0.5999944061
0.5999927902
0.5999911485
0.5999895391
0.5999880031
0.5999865666
0.5999852439
0.5999840408
0.5999829609
0.5999820215
0.5999813183
0.5999995434
0.5999991311
0.5999985203
0.599997707
0.59999671
0.5999955639
0.5999943104
0.5999929918
0.5999916465
0.5999903071
0.5999889993
0.5999877435
0.5999865594
0.5999854847
0.5999846552
0.5999991053
0.5999983234
0.5999972502
0.5999959418
0.5999944769
0.5999929347
0.5999913816
0.5999898672
0.5999884245
0.5999870729
0.5999858219
0.5999846751
0.5999836352
0.5999827207
0.59998203
0.5999979753
0.5999962904
0.5999942041
0.599991937
0.5999896813
0.5999875685
0.5999856701
0.5999840119
0.5999825903
0.5999813854
0.5999803705
0.5999795182
0.5999788045
0.5999782183
0.5999777969
0.5999958683
0.5999926753
0.5999892049
0.5999859064
0.5999830266
0.5999806513
0.5999787688
0.5999773199
0.59997623
0.599975426
0.5999748438
0.5999744303
0.5999741435
0.5999739515
0.599973837
0.5999936685
0.599989263
0.5999850867
0.5999815506
0.5999787472
0.5999766201
0.5999750606
0.599973953
0.5999731936
0.5999726965
0.5999723933
0.5999722309
0.599972168
0.5999721704
0.5999722016
0.5999958684
0.5999926755
0.5999892052
0.5999859069
0.5999830272
0.5999806521
0.5999787697
0.5999773209
0.5999762311
0.5999754272
0.599974845
0.5999744316
0.5999741448
0.5999739528
0.5999738383
0.5999979752
0.5999962904
0.5999942042
0.5999919373
0.5999896819
0.5999875694
0.5999856712
0.5999840132
0.5999825917
0.599981387
0.5999803723
0.59997952
0.5999788065
0.5999782203
0.599977799
0.5999991052
0.5999983233
0.5999972502
0.5999959419
0.5999944772
0.5999929352
0.5999913824
0.5999898682
0.5999884257
0.5999870744
0.5999858236
0.5999846769
0.5999836373
0.599982723
0.5999820324
0.5999991309
0.5999985202
0.5999977069
0.5999967102
0.5999955642
0.5999943109
0.5999929925
0.5999916475
0.5999903084
0.5999890008
0.5999877453
0.5999865615
0.599985487
0.5999846578
0.599999734
0.5999994891
0.5999991083
0.5999985706
0.5999978692
0.5999970116
0.599996017
0.5999949117
0.5999937261
0.5999924906
0.5999912342
0.5999899832
0.5999887661
0.5999876326
0.599986742
0.5999995434
0.5999991311
0.5999985203
0.599997707
0.5999967101
0.599995564
0.5999943105
0.5999929919
0.5999916467
0.5999903073
0.5999889996
0.5999877439
0.5999865598
0.5999854852
0.5999846558
0.5999991166
0.5999983399
0.5999972596
0.5999959232
0.5999944062
0.5999927901
0.5999911483
0.5999895386
0.5999880024
0.5999865658
0.5999852429
0.5999840396
0.5999829597
0.5999820201
0.5999813167
0.5999984752
0.59999718
0.5999955012
0.5999935742
0.5999915404
0.5999895172
0.599987589
0.5999858084
0.5999842024
0.5999827795
0.5999815357
0.5999804603
0.599979541
0.599978776
0.5999782225
0.5999979938
0.5999963515
0.5999943439
0.5999921545
0.5999899377
0.5999878052
0.5999858282
0.5999840452
0.5999824711
0.5999811044
0.5999799336
0.5999789419
0.5999781119
0.5999774354
0.5999769543
0.5999984752
0.5999971801
0.5999955013
0.5999935745
0.5999915407
0.5999895176
0.5999875895
0.599985809
0.5999842031
0.5999827803
0.5999815366
0.5999804613
0.599979542
0.599978777
0.5999782236
0.5999991166
0.5999983399
0.5999972597
0.5999959234
0.5999944065
0.5999927906
0.5999911489
0.5999895395
0.5999880034
0.599986567
0.5999852442
0.5999840411
0.5999829612
0.5999820218
0.5999813185
0.5999995434
0.5999991311
0.5999985203
0.5999977071
0.5999967103
0.5999955644
0.5999943111
0.5999929926
0.5999916476
0.5999903085
0.599989001
0.5999877454
0.5999865616
0.5999854871
0.5999846579
0.599999734
0.5999994891
0.5999991083
0.5999985706
0.5999978693
0.5999970119
0.5999960173
0.5999949123
0.5999937269
0.5999924917
0.5999912354
0.5999899848
0.5999887679
0.5999876346
0.5999867443
)
;

boundaryField
{
    top
    {
        type            zeroGradient;
    }
    bottom
    {
        type            zeroGradient;
    }
    side-walls
    {
        type            zeroGradient;
    }
    inlet
    {
        type            zeroGradient;
    }
    outlet
    {
        type            zeroGradient;
    }
    procBoundary1to0
    {
        type            processor;
        value           nonuniform List<scalar> 
97
(
0.599999734
0.599999734
0.5999995434
0.5999991166
0.5999984754
0.5999979941
0.5999984754
0.5999991167
0.5999995435
0.599999734
0.5999997872
0.5999991052
0.5999991052
0.5999991052
0.5999979753
0.5999958688
0.5999936697
0.599995869
0.5999979756
0.5999991055
0.5999995435
0.599999594
0.5999990934
0.5999944801
0.5999944801
0.5999944801
0.599985992
0.599972544
0.5999859934
0.5999944816
0.5999979756
0.5999991167
0.5999993106
0.5999982103
0.5999943596
0.5999520792
0.5999520792
0.5999520792
0.5998570351
0.599952089
0.5999859933
0.599995869
0.5999984754
0.5999991082
0.5999973766
0.5999900791
0.5999611722
0.5990769327
0.5990769327
0.5990769327
0.5998570324
0.5998570324
0.5999725433
0.5999936695
0.599997994
0.5999993106
0.5999982102
0.5999943592
0.5999831575
0.5999611701
0.5999831587
0.5999859898
0.5999859898
0.5999859898
0.5999958684
0.5999984753
0.5999995939
0.5999990933
0.5999976255
0.5999943591
0.5999900788
0.5999943594
0.5999976256
0.599997975
0.599997975
0.599997975
0.5999991166
0.5999997872
0.5999995899
0.5999990933
0.5999982102
0.5999973765
0.5999982103
0.5999990933
0.5999995899
0.5999995434
0.5999995434
0.5999995434
0.5999998747
0.5999997872
0.5999995939
0.5999993106
0.5999991082
0.5999993106
0.599999594
0.5999997872
0.5999998747
)
;
    }
}


// ************************************************************************* //
