/*--------------------------------*- C++ -*----------------------------------*\
| =========                 |                                                 |
| \\      /  F ield         | OpenFOAM: The Open Source CFD Toolbox           |
|  \\    /   O peration     | Version:  4.x                                   |
|   \\  /    A nd           | Web:      www.OpenFOAM.org                      |
|    \\/     M anipulation  |                                                 |
\*---------------------------------------------------------------------------*/
FoamFile
{
    version     2.0;
    format      ascii;
    class       surfaceScalarField;
    location    "10000";
    object      phi;
}
// * * * * * * * * * * * * * * * * * * * * * * * * * * * * * * * * * * * * * //

dimensions      [1 0 -1 0 0 0 0];

internalField   nonuniform List<scalar> 
3172
(
9.475449052e-06
-4.163611724e-12
-3.923598751e-12
9.475459637e-06
-5.36994131e-12
-5.761906463e-12
9.475466434e-06
-3.113550054e-12
-2.708575567e-12
9.475469755e-06
-2.647392782e-12
-1.624943197e-12
9.475472728e-06
-2.117315043e-12
-3.142653261e-13
9.475472233e-06
-4.03655508e-13
-9.49512977e-13
9.475471214e-06
-5.841386957e-14
4.789006797e-13
9.475470978e-06
7.495077642e-13
7.972678973e-13
9.475470253e-06
2.909642633e-12
2.0599076e-12
9.475470813e-06
2.471978143e-12
3.290618565e-12
9.475468678e-06
2.097638057e-12
3.154409106e-12
9.475467428e-06
2.811903383e-12
3.305992323e-12
9.475460183e-06
2.07084639e-12
1.891100802e-12
2.18540378e-12
1.24935256e-12
9.475407328e-06
-8.080907312e-12
-2.550724933e-12
9.475418546e-06
-8.371966106e-12
-7.907200186e-12
9.475422527e-06
-3.762764635e-12
-4.698069669e-12
9.475423849e-06
-1.413501873e-12
-3.952608805e-13
9.475426461e-06
-7.982280406e-13
1.126299824e-12
9.47542301e-06
-3.3334206e-13
1.048655271e-12
9.475420616e-06
1.354062938e-12
1.964578465e-12
9.475419223e-06
1.888369793e-12
2.490731886e-12
9.475414172e-06
3.823483071e-13
2.638262851e-12
9.475414289e-06
1.279368841e-12
2.580611603e-12
9.475412692e-06
1.814421622e-12
2.20711306e-12
9.47541047e-06
1.307054529e-12
1.352139662e-12
9.475405739e-06
2.062951837e-12
1.993616128e-12
3.03784947e-12
1.393862766e-12
9.475464204e-06
1.743169407e-13
-4.487392557e-12
9.475471737e-06
-4.535780783e-12
-7.681998956e-12
9.475468804e-06
-1.6732323e-12
-1.630657939e-12
9.475465132e-06
-3.395025351e-13
1.379530464e-12
9.475461907e-06
1.46463241e-12
3.416907186e-12
9.475457632e-06
2.103502023e-12
3.968119169e-12
9.475454529e-06
3.455645215e-12
3.294880292e-12
9.475451106e-06
3.613243012e-12
3.658882353e-12
9.475448088e-06
3.73876388e-12
3.231560788e-12
9.475443986e-06
3.047807412e-12
4.355768667e-12
9.475440166e-06
2.694888696e-12
2.45281799e-12
9.475441925e-06
3.0911168e-12
2.419359162e-12
9.475438335e-06
2.563938916e-12
2.142908237e-12
3.912438509e-12
1.513611109e-12
9.475526975e-06
3.38874629e-12
1.491060582e-11
9.475533253e-06
2.853799809e-12
-1.155379451e-11
9.475528816e-06
4.013555965e-12
-9.667158172e-13
9.475523138e-06
3.620709005e-12
3.599596673e-12
9.475516138e-06
2.525287105e-12
4.121392373e-12
9.475510805e-06
3.042012356e-12
5.600200679e-12
9.475504178e-06
1.892168103e-12
2.83190576e-12
9.4754986e-06
7.416603436e-13
1.825743659e-12
9.475495737e-06
7.780532534e-13
3.893217569e-12
9.475494635e-06
2.531279417e-12
5.354349196e-12
9.475492625e-06
1.879308067e-12
4.121256239e-12
9.47549244e-06
1.713653177e-12
4.489378423e-12
9.475492233e-06
1.223346679e-12
3.573281503e-12
9.709555136e-13
1.880693145e-12
9.475557609e-06
-2.241937655e-12
5.864226924e-11
9.475539646e-06
-1.055909386e-12
1.959617328e-11
9.475525453e-06
-2.379627907e-12
2.220913216e-11
9.475514614e-06
-3.354228692e-12
1.973340704e-11
9.475505931e-06
-3.917367798e-12
1.394426108e-11
9.475499835e-06
-2.979519396e-12
8.801449076e-12
9.475494376e-06
-2.440670813e-12
6.476485632e-12
9.475491378e-06
-7.513212588e-13
6.044758181e-12
9.475489491e-06
1.681149949e-12
4.561598259e-12
9.475486317e-06
8.322873028e-13
4.1793818e-12
9.47548639e-06
9.817111973e-13
2.851842798e-12
9.475485658e-06
5.702274712e-13
2.144333574e-12
9.47548742e-06
2.522795893e-13
3.549759193e-12
2.877693135e-13
2.109821418e-12
9.475485366e-06
4.199923438e-12
1.765377365e-11
9.475489657e-06
8.119467797e-12
-1.117844907e-11
9.475485441e-06
3.629488377e-12
-7.356077668e-15
9.475479643e-06
1.024760191e-12
5.37611215e-12
9.475474792e-06
8.065437206e-13
6.190879653e-12
9.475467866e-06
-3.807940106e-13
5.851438326e-12
9.475463084e-06
-1.006444797e-12
6.134445826e-12
9.475459529e-06
-1.931684496e-12
6.205603861e-12
9.475453824e-06
-2.453902641e-12
3.724025224e-12
9.475452526e-06
-8.024527687e-13
3.997743436e-12
9.475450689e-06
-6.187630075e-13
2.598653511e-12
9.475449228e-06
-1.04576938e-12
1.765343142e-12
9.475449102e-06
-2.120192057e-12
3.083914673e-12
-2.251468662e-12
2.646912506e-12
9.475478769e-06
7.785617374e-12
-3.965954197e-12
9.47548498e-06
7.617845781e-12
-9.204904557e-12
9.475482132e-06
5.100124497e-12
-6.944682601e-13
9.475481092e-06
4.179114698e-12
3.502121333e-12
9.475476927e-06
3.296221842e-12
4.05323176e-12
9.475471438e-06
1.421246006e-12
4.330836037e-12
9.475468516e-06
-1.164440782e-12
4.728082794e-12
9.475466245e-06
-1.079460035e-12
5.244614847e-12
9.475462264e-06
-2.056040655e-12
4.079878612e-12
9.475459098e-06
-2.221809941e-12
4.642740065e-12
9.475455957e-06
-2.055315597e-12
3.634956564e-12
9.475454646e-06
-1.58915879e-12
2.120694334e-12
9.475451726e-06
-3.129710215e-12
2.911853656e-12
-4.155505723e-12
1.727386671e-12
9.475486393e-06
3.865131209e-12
-2.387071696e-12
9.475497257e-06
5.424519972e-12
-7.064111405e-12
9.475499245e-06
2.759982397e-12
-4.55700582e-12
9.475503399e-06
2.139313052e-12
-8.987581781e-13
9.475504968e-06
1.767860118e-12
-7.767775303e-13
9.4755008e-06
-6.195458364e-14
-7.789947471e-13
9.475501836e-06
4.828088211e-13
3.056664564e-12
9.475500827e-06
-2.3815399e-13
2.928818764e-12
9.475499074e-06
-2.04796272e-13
1.73932299e-12
9.475493391e-06
-1.756464122e-12
2.375008639e-12
9.475491414e-06
-9.420762262e-13
2.4823933e-12
9.475488125e-06
-1.140615378e-12
1.859720491e-12
9.475483627e-06
-3.057818813e-12
2.580944534e-12
-2.750746294e-12
2.116642109e-12
9.475444123e-06
-3.051744254e-12
9.475455612e-06
-6.33081983e-12
9.47546021e-06
-4.10730711e-12
9.475463913e-06
-2.025505341e-12
9.475466452e-06
-1.579072025e-12
9.475467536e-06
-1.363815937e-12
9.475469186e-06
1.429769495e-12
9.475466721e-06
5.849722271e-13
9.475464364e-06
1.197434851e-12
9.475463056e-06
3.369043624e-12
9.475458142e-06
2.645485791e-12
9.475453825e-06
3.253990556e-12
9.475452876e-06
2.628380546e-12
1.224028104e-12
9.475441645e-06
-3.753269274e-11
9.475445385e-06
-2.599957452e-12
-6.509082787e-12
9.475458984e-06
-6.021117912e-12
-6.349042153e-12
9.475462501e-06
-3.892335953e-12
-2.501943116e-12
9.475464954e-06
-1.069204247e-12
2.399467538e-13
9.475463267e-06
-2.04493112e-13
-5.348976285e-13
9.475462872e-06
2.680815619e-12
2.022029691e-12
9.475459071e-06
1.828652876e-12
2.307954402e-12
9.475458187e-06
2.70237631e-12
2.228941973e-12
9.475454542e-06
3.665803879e-12
4.243519257e-12
9.475451408e-06
2.918792606e-12
5.754344406e-12
9.475449976e-06
3.316888052e-12
5.687219382e-12
9.475447522e-06
2.069384942e-12
4.177801499e-12
9.475440514e-06
3.080129358e-12
3.100553007e-12
3.024217895e-12
3.568224873e-12
9.475539723e-06
-6.136350363e-13
-9.312820314e-13
9.475549491e-06
-8.932993459e-12
-8.322491664e-12
9.475551336e-06
-3.603078057e-12
-2.722577848e-12
9.475548274e-06
-1.267056936e-12
-9.057611585e-13
9.475545376e-06
-1.008552328e-12
-6.870956182e-13
9.475540547e-06
7.043778438e-13
1.553183994e-12
9.47553791e-06
1.469228294e-12
2.543753092e-12
9.475536595e-06
3.453296797e-12
2.623008912e-12
9.475531896e-06
2.813592219e-12
3.261179956e-12
9.475529949e-06
4.001860666e-12
4.486843648e-12
9.475528399e-06
2.634739401e-12
3.929677833e-12
9.47552795e-06
2.882510039e-12
3.273944595e-12
9.475523523e-06
3.519334975e-12
3.397715855e-12
3.383018089e-12
4.613377871e-12
9.475581228e-06
1.496147165e-11
6.388959338e-12
9.475576609e-06
-3.380765201e-12
-1.038065935e-11
9.475567149e-06
9.775485721e-13
4.110050576e-12
9.475555165e-06
3.438177111e-12
8.246647862e-12
9.475549125e-06
4.340988541e-12
7.429782338e-12
9.475541566e-06
4.305878993e-12
7.136398637e-12
9.475536966e-06
3.352165031e-12
6.668395845e-12
9.475533778e-06
3.391979621e-12
6.239333568e-12
9.475533698e-06
3.768344613e-12
6.099870735e-12
9.475530319e-06
2.768020169e-12
5.074864167e-12
9.475533688e-06
3.008258587e-12
6.409577197e-12
9.475535159e-06
4.552617879e-12
4.851811924e-12
9.47553041e-06
3.134036633e-12
5.582401482e-12
4.200465135e-12
5.619793174e-12
9.475464828e-06
3.086373259e-11
7.194417048e-11
9.475459609e-06
7.152638892e-12
-2.221537884e-11
9.475448244e-06
7.810495871e-12
3.632671285e-12
9.475436331e-06
7.789470266e-12
1.304952153e-11
9.475429469e-06
6.192268826e-12
1.301667216e-11
9.475421635e-06
2.827815012e-12
1.195965519e-11
9.475419918e-06
3.958780978e-12
1.110441218e-11
9.475419546e-06
3.556523826e-12
7.783471792e-12
9.475418875e-06
1.472879091e-12
6.712500403e-12
9.475416909e-06
1.084742426e-12
4.286256479e-12
9.475420012e-06
8.569418889e-13
4.623504104e-12
9.475418706e-06
-3.551614172e-14
3.7235949e-12
9.475422873e-06
1.472066742e-12
7.017160193e-12
1.46531845e-12
4.975328027e-12
9.475482335e-06
-2.793164724e-11
2.984366713e-10
9.475432195e-06
-5.891983306e-12
8.881650221e-11
9.475405487e-06
-5.212714712e-12
6.41518476e-11
9.47538975e-06
-5.7333961e-12
4.821725792e-11
9.475380838e-06
-6.049868044e-12
3.058561441e-11
9.475381075e-06
-3.146483046e-12
2.149623414e-11
9.475380984e-06
-1.560341861e-12
1.541033918e-11
9.475377921e-06
-1.698007887e-12
9.005402668e-12
9.475378667e-06
4.687823312e-13
5.677481247e-12
9.475380147e-06
2.711183494e-13
5.114357883e-12
9.475382712e-06
-1.842192547e-13
6.187198291e-12
9.47538541e-06
-7.720239144e-13
4.776756625e-12
9.475384338e-06
-1.620409791e-12
6.439550597e-12
-8.47259997e-13
4.994981169e-12
9.475499278e-06
-1.313439957e-11
6.988939562e-11
9.475497839e-06
6.049570266e-12
-2.048529738e-11
9.475486133e-06
5.82335836e-13
4.052798947e-12
9.475473644e-06
-2.279462856e-12
1.393178348e-11
9.475465976e-06
-1.470713996e-12
1.598169018e-11
9.475462314e-06
-2.991235391e-12
1.419311541e-11
9.475457909e-06
-3.747978725e-12
1.214777105e-11
9.475457071e-06
-3.336731495e-12
8.056758216e-12
9.475454265e-06
-2.278408322e-12
6.724926379e-12
9.475454e-06
-1.938216563e-12
5.167137026e-12
9.475456115e-06
-3.643160803e-13
5.699618834e-12
9.47545963e-06
-1.091092487e-12
6.152507483e-12
9.475460586e-06
-2.729024332e-12
5.557735751e-12
-3.328842714e-12
4.242755167e-12
9.475533188e-06
-1.393634986e-14
5.603333221e-12
9.475532257e-06
1.085533684e-11
-8.803776635e-12
9.475522194e-06
4.559532844e-12
4.984428989e-12
9.475512338e-06
3.079493104e-12
1.01095782e-11
9.475504251e-06
8.754153121e-13
1.038902862e-11
9.475498805e-06
-5.114505357e-13
1.041747044e-11
9.475494739e-06
-1.585801852e-12
8.395063932e-12
9.475493195e-06
-3.381375567e-12
7.549128073e-12
9.475492165e-06
-3.818608397e-12
5.897271354e-12
9.47548837e-06
-3.161740921e-12
5.17459999e-12
9.47548667e-06
-2.315502431e-12
4.799560045e-12
9.475488611e-06
-2.184183024e-12
4.104968565e-12
9.475487694e-06
-3.257713484e-12
4.359062189e-12
-3.344881105e-12
3.730461953e-12
9.475449269e-06
2.381641618e-12
-1.605454902e-12
9.475457563e-06
6.324865609e-12
-9.527273879e-12
9.475459854e-06
3.044983448e-12
-4.524861229e-12
9.475457017e-06
5.649771965e-13
-1.446892191e-12
9.475452851e-06
2.719196194e-13
3.076728605e-13
9.475451155e-06
-1.198912322e-12
1.561699267e-12
9.475446978e-06
-1.711171799e-12
1.503946962e-12
9.475444158e-06
-2.068749997e-12
3.255137594e-12
9.475443909e-06
-1.43014595e-12
3.188317955e-12
9.47544067e-06
-1.357108959e-12
2.444676522e-12
9.475436518e-06
-1.161146209e-12
3.165189981e-12
9.475436618e-06
-1.08055897e-12
3.310359645e-12
9.475433751e-06
-3.027763743e-12
3.946314182e-12
-3.177852937e-12
3.273630253e-12
9.47546208e-06
-7.959745999e-12
9.475473974e-06
-7.468336992e-12
9.475476976e-06
-3.521804578e-12
9.475480572e-06
2.815060625e-13
9.475479035e-06
-6.087842694e-13
9.475478453e-06
1.51173882e-12
9.475476298e-06
8.996006087e-13
9.475475639e-06
6.32849723e-14
9.475474351e-06
8.995986093e-13
9.475469039e-06
7.572736752e-13
9.475464593e-06
1.193026832e-12
9.47546111e-06
1.846562136e-12
9.475459528e-06
4.284980395e-12
4.11687677e-12
9.475471082e-06
-6.507866519e-11
-4.49372462e-11
9.475468772e-06
-2.465904444e-12
-2.353604114e-12
9.47547776e-06
-6.09738718e-12
-5.614643129e-12
9.475476164e-06
-2.871283083e-13
-2.012348265e-12
9.47547215e-06
2.503781845e-12
-1.468192287e-12
9.475466081e-06
1.496930551e-12
3.053491727e-13
9.475463114e-06
4.376762428e-12
1.597107728e-12
9.475456936e-06
4.096993382e-12
1.693439461e-12
9.47545569e-06
4.570125402e-12
2.387854109e-12
9.475454052e-06
4.25403355e-12
2.034917776e-12
9.475450286e-06
3.218045846e-12
4.112265611e-13
9.475450229e-06
2.673426862e-12
2.668328604e-12
9.475448554e-06
2.136038398e-12
2.525596605e-12
9.475445497e-06
3.12570323e-12
3.294699299e-12
4.191460372e-12
2.371893977e-12
9.475461254e-06
-8.602686676e-11
9.475436877e-06
7.648322233e-12
1.210897391e-11
9.47543401e-06
-9.845677763e-12
-6.498596241e-12
9.475426668e-06
4.468416168e-12
-8.905076787e-13
9.475415624e-06
8.430028514e-12
4.085562624e-13
9.475410825e-06
7.71334717e-12
3.34399284e-12
9.475403234e-06
7.474842801e-12
3.258877333e-12
9.475398629e-06
5.624448538e-12
2.743220906e-12
9.475396523e-06
6.55522388e-12
4.219216554e-12
9.475393952e-06
5.549169583e-12
2.942418707e-12
9.475393592e-06
5.530124401e-12
3.449260366e-12
9.475393334e-06
5.238333719e-12
2.869031675e-12
9.47539333e-06
4.811910129e-12
2.706210139e-12
9.47539385e-06
6.156852368e-12
3.539734146e-12
4.797260721e-12
2.89674396e-12
9.475539416e-06
5.376564346e-11
5.011815846e-11
9.475498106e-06
1.301427578e-11
8.78736697e-12
9.475461269e-06
2.388600173e-11
2.083826934e-11
9.475439066e-06
2.112440107e-11
1.874437452e-11
9.475430543e-06
1.766933346e-11
1.55558972e-11
9.475422789e-06
1.308735611e-11
1.14583199e-11
9.475423289e-06
1.071591149e-11
9.470435865e-12
9.47542405e-06
6.927092557e-12
6.135185757e-12
9.475426139e-06
5.132682059e-12
5.128141281e-12
9.475427297e-06
3.192972044e-12
4.401094998e-12
9.475428648e-06
3.44107556e-12
3.527612541e-12
9.475432147e-06
3.576767701e-12
1.87712881e-12
9.475434266e-06
4.909545893e-12
3.003243189e-12
3.818783659e-12
1.467987284e-12
9.475514492e-06
1.135208798e-10
2.303285521e-10
9.475464932e-06
3.958647678e-11
2.874730579e-12
9.475427121e-06
3.19744454e-11
2.96519158e-11
9.475409816e-06
2.277579219e-11
2.829314106e-11
9.475404826e-06
1.507703186e-11
2.037526099e-11
9.475408493e-06
9.385695831e-12
1.502844471e-11
9.475411924e-06
7.618576431e-12
1.105776839e-11
9.475419918e-06
5.521173446e-12
7.627264932e-12
9.475424693e-06
2.384113545e-12
6.475567246e-12
9.47543045e-06
2.024670262e-12
4.524686323e-12
9.475434041e-06
2.577721938e-12
5.140868972e-12
9.475436636e-06
2.161747212e-12
2.954156731e-12
9.475440165e-06
2.201592774e-12
3.436318083e-12
2.578492617e-12
2.589380261e-12
9.475602414e-06
-1.125642574e-10
1.139607341e-09
9.475416979e-06
-3.739424889e-11
3.562476817e-10
9.47537171e-06
-3.013363585e-11
1.672140316e-10
9.47537057e-06
-2.059857409e-11
9.36288153e-11
9.47538354e-06
-1.200402545e-11
4.538360265e-11
9.47539716e-06
-7.327530206e-12
2.381024853e-11
9.475406659e-06
-4.546489719e-12
1.261273037e-11
9.475415924e-06
-2.404974474e-12
7.132097737e-12
9.4754247e-06
-2.325791365e-13
4.890469096e-12
9.475430224e-06
-5.700429197e-13
2.599252577e-12
9.475434775e-06
-3.264149625e-13
2.784724228e-12
9.475438988e-06
-1.494577198e-12
2.092687662e-12
9.475443817e-06
-3.046962634e-12
3.449837792e-12
-1.948223283e-12
1.822120183e-12
9.47554447e-06
-5.120939846e-11
2.303527705e-10
9.475490311e-06
-9.683320712e-12
3.75689807e-12
9.475454782e-06
-2.073758387e-11
2.826985761e-11
9.47543765e-06
-1.924793943e-11
2.831803979e-11
9.475433526e-06
-1.519905508e-11
1.965066953e-11
9.475436759e-06
-1.174106452e-11
1.576047813e-11
9.475440293e-06
-9.957482818e-12
9.919787955e-12
9.475446078e-06
-5.084925365e-12
6.662737288e-12
9.475451005e-06
-4.264055442e-12
5.061577949e-12
9.475456108e-06
-2.135297298e-12
5.19760941e-12
9.475460689e-06
-3.304346554e-12
3.437456222e-12
9.475463895e-06
-2.986607005e-12
3.739502333e-12
9.475470777e-06
-4.137127563e-12
4.785821422e-12
-4.740989479e-12
3.020969777e-12
9.475607549e-06
-6.290297912e-12
5.088299748e-11
9.475565142e-06
1.014094419e-11
1.024377578e-11
9.47552935e-06
-4.075690217e-12
2.025557277e-11
9.475504289e-06
-7.891553744e-12
1.985698322e-11
9.475492888e-06
-9.356302287e-12
1.505460196e-11
9.475488407e-06
-8.442820642e-12
1.261959557e-11
9.475489083e-06
-7.670707838e-12
1.000599016e-11
9.475488305e-06
-7.408216452e-12
6.952252299e-12
9.475491767e-06
-6.329272539e-12
5.31656935e-12
9.475492192e-06
-6.075430047e-12
3.715586551e-12
9.475493505e-06
-4.702242868e-12
4.138040572e-12
9.475497217e-06
-3.288192402e-12
3.809360682e-12
9.475500009e-06
-4.239447934e-12
4.280766588e-12
-4.39455812e-12
4.277591588e-12
9.475550789e-06
4.188528617e-12
1.322350152e-11
9.475544662e-06
7.932043941e-12
-5.961797103e-12
9.475537247e-06
9.872160948e-13
-9.810605252e-13
9.475527123e-06
-7.541227367e-13
2.266482711e-12
9.475520979e-06
-2.269937506e-12
3.015381037e-12
9.475516432e-06
-3.277484072e-12
3.731323992e-12
9.475511575e-06
-3.843086986e-12
4.207942644e-12
9.475508791e-06
-5.401379166e-12
3.159960644e-12
9.475508385e-06
-4.088843403e-12
3.310561817e-12
9.475506926e-06
-3.313516204e-12
3.289789934e-12
9.475505061e-06
-2.703486964e-12
2.201174016e-12
9.47550589e-06
-2.24620439e-12
2.421436184e-12
9.475504598e-06
-2.882346992e-12
2.836577492e-12
-3.068606706e-12
2.725809256e-12
9.475495633e-06
-1.770354019e-12
9.47550144e-06
-5.507011413e-12
9.475501125e-06
-8.696742701e-13
9.475492396e-06
-2.152977136e-12
9.475491895e-06
5.348744297e-13
9.475487382e-06
1.472609266e-12
9.47548189e-06
2.252655244e-12
9.475481697e-06
2.049824897e-12
9.475477549e-06
2.452370769e-12
9.475475251e-06
9.97867018e-13
9.475470434e-06
1.360232349e-12
9.475469563e-06
2.046997151e-12
9.47546604e-06
1.430349215e-12
1.746463487e-12
9.475528111e-06
-9.201176291e-11
-4.587501759e-11
9.47550706e-06
1.556528637e-11
3.100644414e-12
9.475512423e-06
-1.291039047e-11
1.702295291e-12
9.475507887e-06
-2.03960968e-12
3.098146398e-12
9.475502851e-06
3.304681673e-12
3.606597949e-12
9.47549654e-06
5.105461326e-12
1.478268464e-12
9.475489394e-06
5.675481431e-12
1.371223325e-12
9.475483808e-06
5.491357461e-12
1.533176357e-12
9.47547944e-06
6.117731581e-12
1.879716532e-12
9.475476999e-06
4.7473489e-12
1.533623001e-12
9.475474586e-06
4.706593326e-12
2.212652698e-12
9.475471505e-06
2.495535902e-12
3.840658455e-13
9.475472894e-06
3.043486619e-12
1.223947188e-12
9.475471438e-06
2.914711177e-12
2.868160919e-12
4.309119268e-12
3.300363779e-12
9.475603061e-06
-2.079940383e-10
-8.909561626e-11
9.475531079e-06
7.159733988e-11
2.708941805e-11
9.475527016e-06
-2.186906837e-11
7.939983483e-12
9.475516328e-06
3.866612123e-12
6.109982965e-12
9.475504251e-06
1.262854956e-11
6.441532645e-12
9.475494291e-06
1.331500496e-11
3.547971248e-12
9.475488191e-06
1.186343394e-11
2.463977836e-12
9.475485546e-06
9.812690921e-12
2.794733024e-12
9.475482915e-06
8.523012974e-12
1.815874717e-12
9.47548478e-06
7.222288836e-12
1.638915464e-12
9.475482597e-06
5.265153527e-12
4.464209247e-14
9.475483952e-06
5.629304649e-12
1.590577701e-12
9.475485685e-06
3.988236841e-12
2.298539021e-12
9.475486099e-06
4.659499658e-12
1.469577917e-12
4.040529522e-12
1.725690574e-12
9.475768941e-06
-2.775780313e-10
9.475545314e-06
2.318347078e-10
1.108083852e-10
9.475495893e-06
5.574323672e-12
3.911928631e-11
9.475458145e-06
3.212007746e-11
3.044420905e-11
9.47544147e-06
2.987255608e-11
2.196883244e-11
9.475437217e-06
2.184967211e-11
1.291877763e-11
9.475438047e-06
1.572006447e-11
7.52434519e-12
9.475444632e-06
1.205166431e-11
5.102827908e-12
9.475449665e-06
7.728263557e-12
3.440021205e-12
9.475453281e-06
4.912049066e-12
1.92102528e-12
9.47545801e-06
4.261239877e-12
7.782806993e-13
9.475459234e-06
4.495598882e-12
6.665515271e-13
9.475466199e-06
4.503863857e-12
9.150155299e-13
9.475470051e-06
5.070369476e-12
7.838984901e-13
4.855831979e-12
2.449539535e-12
9.475281411e-06
4.203873699e-10
4.204110302e-10
9.47532309e-06
-1.217613022e-11
-1.561772193e-11
9.475330629e-06
2.34873237e-11
2.193664405e-11
9.475343026e-06
2.592842283e-11
2.540897498e-11
9.475358471e-06
1.425830565e-11
1.344803354e-11
9.475371947e-06
9.699793016e-12
7.080185903e-12
9.475383781e-06
6.699735827e-12
4.108664589e-12
9.475393366e-06
4.883102814e-12
1.507169195e-12
9.475401817e-06
1.824430254e-12
1.708690142e-12
9.475409374e-06
1.020738768e-12
1.834784369e-12
9.475412412e-06
1.156764985e-12
1.262942262e-12
9.475417241e-06
1.575170758e-12
-2.84628109e-13
9.475421573e-06
2.4075682e-12
-1.091843968e-12
2.915990928e-12
2.820710169e-12
9.475224952e-06
-4.19223042e-10
3.358091095e-09
9.47526851e-06
1.514117947e-11
2.803022684e-10
9.475367787e-06
-2.421818274e-11
1.190792935e-10
9.475431775e-06
-2.447894222e-11
7.79142358e-11
9.475475264e-06
-1.249287466e-11
3.168340529e-11
9.475503947e-06
-6.442104036e-12
1.297786249e-11
9.475520426e-06
-5.011341467e-12
5.545667203e-12
9.475530238e-06
-3.728603686e-12
2.270776487e-12
9.475539648e-06
-4.380702921e-13
1.665139547e-12
9.475546108e-06
7.151023248e-13
1.106842271e-13
9.475550117e-06
-5.706851193e-13
-8.842121149e-13
9.475553636e-06
-8.685118526e-13
-9.190256784e-13
9.475561354e-06
-1.448586201e-12
-6.149373469e-13
-1.895197856e-12
4.91735111e-13
9.475331992e-06
-2.3153253e-10
4.201175322e-10
9.475368256e-06
-3.758181353e-12
-1.56709137e-11
9.475383139e-06
-2.930718595e-11
2.55274376e-11
9.475392691e-06
-2.78809606e-11
2.533534087e-11
9.475408443e-06
-1.954575187e-11
1.360452927e-11
9.475421235e-06
-1.54755472e-11
6.623256134e-12
9.475434257e-06
-1.007224804e-11
4.323808965e-12
9.475444267e-06
-5.837962344e-12
4.247379848e-12
9.475451255e-06
-4.080583214e-12
1.193926802e-12
9.475457771e-06
-2.854386686e-12
1.046150633e-12
9.475464418e-06
-1.747265713e-12
7.788425795e-13
9.475466918e-06
-2.90467019e-12
1.722522368e-13
9.47547213e-06
-3.918172196e-12
9.727185324e-13
-3.863515277e-12
1.11565647e-12
9.475558914e-06
-7.042656461e-11
1.12161217e-10
9.475503093e-06
2.127657817e-11
3.857120779e-11
9.475471161e-06
-3.170035921e-12
3.270129585e-11
9.475451254e-06
-1.338678931e-11
2.239426917e-11
9.475445915e-06
-1.308103975e-11
1.2428144e-11
9.475448617e-06
-1.295618102e-11
8.034346866e-12
9.475453195e-06
-1.120987553e-11
4.589364062e-12
9.475457743e-06
-9.780237143e-12
2.03493406e-12
9.475465322e-06
-7.370351318e-12
1.692343449e-12
9.475469699e-06
-5.344289177e-12
2.547522177e-13
9.475473255e-06
-5.420904813e-12
4.022095405e-13
9.475477395e-06
-4.927300513e-12
1.084219308e-12
9.475481528e-06
-5.935329547e-12
2.440703326e-12
-5.17435557e-12
1.334557728e-12
9.4754687e-06
-1.451393016e-11
2.97711118e-11
9.475462741e-06
1.433897782e-11
7.390142355e-12
9.475454202e-06
3.033055172e-12
9.82233979e-12
9.475439779e-06
-3.976053502e-12
6.059176189e-12
9.475429826e-06
-5.299824864e-12
4.182899425e-12
9.4754257e-06
-4.949870455e-12
4.211362944e-12
9.475421431e-06
-5.41210361e-12
3.117359043e-12
9.475418858e-06
-6.543019555e-12
1.248898747e-12
9.475419644e-06
-4.844706615e-12
2.744504364e-12
9.475418935e-06
-5.277960364e-12
2.025903242e-12
9.475419585e-06
-3.568938467e-12
8.028144589e-13
9.475422149e-06
-2.821723487e-12
2.674796276e-12
9.475422363e-06
-3.179663408e-12
2.106167956e-12
-4.097681045e-12
1.22982053e-12
9.475520304e-06
2.950100534e-12
9.475522993e-06
1.572228412e-12
9.475519483e-06
3.284562879e-12
9.475515418e-06
3.983638396e-12
9.475508586e-06
2.280628135e-12
9.475501942e-06
2.319421539e-12
9.475495895e-06
2.442475139e-12
9.475495978e-06
9.868333557e-13
9.475490047e-06
1.283383156e-12
9.475487428e-06
1.561645977e-12
9.475484824e-06
1.79213162e-12
9.475485276e-06
1.335420317e-12
9.475481475e-06
1.002487461e-13
1.9254468e-12
9.475578628e-06
-2.606566259e-10
4.438465614e-11
9.475526219e-06
5.671300602e-11
-4.123299769e-12
9.475509742e-06
2.024748357e-11
-2.221804406e-12
9.475495761e-06
2.173966623e-11
-4.914451683e-12
9.475482571e-06
1.89886431e-11
-3.792436009e-12
9.475477052e-06
1.508252742e-11
-1.489014702e-13
9.475470348e-06
1.048984144e-11
-1.283617546e-12
9.475464686e-06
8.644634908e-12
-3.324033587e-13
9.475459564e-06
5.914696295e-12
-1.87851916e-12
9.475460071e-06
4.478815967e-12
-1.390674938e-12
9.475457065e-06
3.677923228e-12
-1.527759221e-12
9.475456475e-06
3.895071881e-12
-6.453690711e-13
9.475457216e-06
3.672703845e-12
-9.120508425e-13
9.475453794e-06
2.431295944e-12
-1.860993331e-12
4.209998913e-12
-1.611709181e-12
9.47571486e-06
-7.203794442e-10
8.855787031e-11
9.475533518e-06
2.989172289e-10
-2.78079318e-11
9.475478776e-06
8.852025955e-11
-7.958441341e-12
9.475456156e-06
6.408039932e-11
-6.57702393e-12
9.475439815e-06
4.858985583e-11
-6.372165781e-12
9.475433647e-06
3.115186362e-11
-3.033880457e-12
9.475431074e-06
2.110628769e-11
-1.507838677e-12
9.475428979e-06
1.413102076e-11
-2.145394603e-12
9.475430514e-06
9.190602144e-12
-1.521020807e-12
9.475433249e-06
7.415332178e-12
-1.140606892e-12
9.475435019e-06
5.310229988e-12
-2.837328877e-12
9.475435619e-06
4.481632236e-12
-1.367825264e-12
9.475436986e-06
2.494297195e-12
-8.479869006e-13
9.475439854e-06
4.225977196e-12
-4.899141347e-13
3.031609785e-12
-2.044651239e-12
9.476204746e-06
-1.999124137e-09
2.75765569e-10
9.475588758e-06
1.144077447e-09
-1.124390882e-10
9.475402189e-06
3.56481781e-10
-3.893978413e-11
9.475358688e-06
1.689317232e-10
-3.133312848e-11
9.475355998e-06
9.394018989e-11
-2.213595475e-11
9.475367035e-06
4.646375172e-11
-1.2799592e-11
9.475381815e-06
2.393127605e-11
-7.444522723e-12
9.475392702e-06
1.219692105e-11
-3.923829747e-12
9.47540281e-06
5.748715221e-12
-2.047723612e-12
9.475410729e-06
4.750966756e-12
-2.254956052e-12
9.475416179e-06
3.664445504e-12
-2.777629551e-12
9.47541973e-06
3.948538765e-12
-1.727753996e-12
9.475426823e-06
3.39013656e-12
4.680989735e-14
9.475431443e-06
3.804233631e-12
-9.346266128e-13
4.347057552e-12
-1.089107654e-12
9.476573579e-06
4.22562563e-10
9.475197251e-06
3.358315467e-09
-4.219269765e-10
9.475245418e-06
2.826353285e-10
1.462504773e-11
9.475345325e-06
1.211303508e-10
-2.448825652e-11
9.475409571e-06
7.962446608e-11
-2.521810701e-11
9.475450806e-06
3.254713402e-11
-1.400024652e-11
9.475479335e-06
1.541898181e-11
-7.248049584e-12
9.47549449e-06
8.024280595e-12
-3.978233398e-12
9.475506898e-06
5.34063645e-12
-8.294537779e-13
9.47551254e-06
1.009179689e-12
-3.100100637e-12
9.47551867e-06
-3.445180029e-14
-2.61974137e-12
9.475520746e-06
1.446662624e-13
-2.871302964e-12
9.475526134e-06
1.416706292e-12
2.720522508e-13
9.47553718e-06
3.122101439e-12
-3.406336177e-13
-1.828889252e-14
-6.325118569e-13
9.495802771e-06
-3.357676992e-09
-3.359300183e-09
9.496949432e-06
-2.809865085e-10
-2.82001177e-10
9.497441548e-06
-1.179867646e-10
-1.208306101e-10
9.497764966e-06
-7.731289518e-11
-7.985602473e-11
9.497905793e-06
-3.055041742e-11
-3.118768355e-11
9.497971766e-06
-1.288393345e-11
-1.354642331e-11
9.498008313e-06
-5.849731164e-12
-6.251394964e-12
9.4980312e-06
-1.641278858e-12
-3.785441082e-12
9.498051883e-06
-7.32399622e-13
-8.589854461e-13
9.498070769e-06
1.122314882e-12
-5.026430952e-13
9.498088065e-06
6.483690466e-13
-2.057724038e-12
9.498105116e-06
-3.315541371e-14
-1.233653812e-12
9.498126577e-06
-5.608443262e-13
-2.214348429e-12
-1.562268134e-12
-5.546457161e-13
9.475144531e-06
-1.14237131e-09
-4.197202985e-10
9.475191275e-06
-3.542614159e-10
1.457219446e-11
9.475289694e-06
-1.676030416e-10
-2.507357949e-11
9.475356141e-06
-9.194288102e-11
-2.621702204e-11
9.47539747e-06
-4.443505657e-11
-1.317679545e-11
9.475426827e-06
-2.323181565e-11
-8.041944386e-12
9.475444762e-06
-1.221096183e-11
-3.94658653e-12
9.475454291e-06
-7.878453592e-12
-3.054307497e-12
9.475464247e-06
-3.593514008e-12
-2.540606098e-12
9.475468561e-06
-2.530760896e-12
-1.003786504e-12
9.475472709e-06
-1.213593316e-12
-1.144389511e-12
9.475475449e-06
-1.074802347e-12
-1.336164647e-12
9.475481347e-06
-3.028769824e-12
-3.671213806e-12
-3.221680265e-12
-1.862588691e-12
9.475589816e-06
-2.965173085e-10
-1.118391298e-10
9.475399166e-06
-8.890674064e-11
-4.006326241e-11
9.47535741e-06
-6.191457019e-11
-3.078226516e-11
9.475353837e-06
-4.897530129e-11
-2.220229072e-11
9.475364711e-06
-3.121466982e-11
-1.217431129e-11
9.475378261e-06
-2.107504318e-11
-7.861013535e-12
9.475390912e-06
-1.412678957e-11
-5.509788679e-12
9.475401419e-06
-1.043936483e-11
-3.99570521e-12
9.475409942e-06
-6.072659491e-12
-2.418907143e-12
9.475416789e-06
-3.682950521e-12
-5.350627631e-13
9.475421532e-06
-5.548525626e-12
-2.257580213e-12
9.47542445e-06
-4.145974373e-12
-3.260676409e-12
9.475428461e-06
-6.651021548e-12
-2.882383453e-12
-4.682502354e-12
-1.244639075e-12
9.475501556e-06
-5.792872567e-11
-2.938475447e-11
9.475450457e-06
-1.999019224e-11
-7.575843863e-12
9.475425138e-06
-2.268491201e-11
-6.206579967e-12
9.475412183e-06
-1.941873813e-11
-4.365389711e-12
9.475405326e-06
-1.392917374e-11
-3.85144471e-12
9.475402991e-06
-1.037094691e-11
-2.204465779e-12
9.475399818e-06
-8.128919924e-12
-2.560128151e-12
9.475402525e-06
-7.045858206e-12
-1.161629651e-12
9.475402592e-06
-5.741558345e-12
-1.19059653e-12
9.47540232e-06
-5.184836019e-12
-8.3242058e-13
9.475405573e-06
-2.710397606e-12
-8.813504432e-13
9.475406095e-06
-3.190388203e-12
-1.527901149e-12
9.475408129e-06
-4.616333529e-12
-2.481488675e-12
-3.177891278e-12
-2.942471982e-12
9.475547614e-06
-3.251082232e-12
9.475529813e-06
-2.306270382e-12
9.475515501e-06
-3.089625514e-12
9.475503897e-06
-3.270156664e-12
9.475496873e-06
-8.188720883e-13
9.475491282e-06
-1.046811681e-13
9.47548407e-06
-1.744632042e-12
9.475485801e-06
-4.37287164e-13
9.475481462e-06
-7.432052208e-13
9.475480664e-06
6.198316044e-14
9.475475312e-06
-1.108056246e-12
9.475475075e-06
-2.431933557e-13
9.475476803e-06
-1.517503013e-12
-1.86706e-12
9.475471999e-06
-9.154579524e-11
4.64086147e-11