/*--------------------------------*- C++ -*----------------------------------*\
| =========                 |                                                 |
| \\      /  F ield         | OpenFOAM: The Open Source CFD Toolbox           |
|  \\    /   O peration     | Version:  4.x                                   |
|   \\  /    A nd           | Web:      www.OpenFOAM.org                      |
|    \\/     M anipulation  |                                                 |
\*---------------------------------------------------------------------------*/
FoamFile
{
    version     2.0;
    format      ascii;
    class       volVectorField;
    location    "10000";
    object      U;
}
// * * * * * * * * * * * * * * * * * * * * * * * * * * * * * * * * * * * * * //

dimensions      [0 1 -1 0 0 0 0];

internalField   nonuniform List<vector> 
1174
(
(0.01100013488 1.436463037e-10 7.997022051e-10)
(0.01100013113 -1.88012555e-09 -2.061117137e-09)
(0.0110001361 -1.471881174e-09 -5.282877249e-11)
(0.01100012634 -2.035215216e-09 -1.347538216e-09)
(0.01100011684 -1.440609651e-09 -1.415277943e-10)
(0.01100009641 -1.587254846e-09 -1.58892866e-09)
(0.01100007626 -1.493621354e-10 1.224707446e-09)
(0.01100005389 2.351158743e-10 -4.908887515e-10)
(0.01100002831 2.638877449e-09 1.654151444e-09)
(0.01100000789 -4.671263996e-11 4.097697016e-09)
(0.01099998049 1.149778095e-09 3.682119957e-09)
(0.0109999569 2.439338903e-09 2.978284749e-09)
(0.01099993302 8.303768724e-10 9.963140608e-10)
(0.01099990821 1.897995421e-09 7.3600479e-10)
(0.01100014353 -1.467363944e-08 1.047287732e-09)
(0.01100012639 -1.151149789e-08 -3.479922514e-09)
(0.01100012885 -5.530931511e-09 -2.334049647e-09)
(0.01100011122 -3.253669712e-09 -5.175949932e-10)
(0.0110000917 -1.571450188e-09 2.152302367e-09)
(0.01100006727 -5.534230179e-10 7.544283832e-10)
(0.01100004005 1.137735007e-09 2.264128352e-09)
(0.01100001478 2.574913015e-09 7.218572701e-10)
(0.01099998474 1.976786189e-09 2.398073134e-10)
(0.01099995844 2.436898507e-09 2.159034096e-09)
(0.01099993546 1.63403988e-09 1.996800492e-09)
(0.01099990946 3.259713154e-09 1.617581235e-10)
(0.01099988688 3.199783407e-09 6.201649865e-10)
(0.01099986398 3.346591117e-09 5.734427426e-10)
(0.01100016501 -6.055960065e-10 -5.918278692e-11)
(0.0110001266 -9.36656884e-09 -4.080684189e-09)
(0.01100011225 -5.372960942e-09 -3.573612834e-09)
(0.01100007688 -2.732537342e-09 -1.16232741e-09)
(0.01100004492 -6.122909338e-10 1.172200355e-09)
(0.01100000708 8.561752676e-10 1.796202032e-09)
(0.01099997391 2.045872293e-09 1.719894699e-10)
(0.01099994138 2.688924394e-09 1.157991924e-09)
(0.01099991171 1.992561506e-09 -3.98775308e-10)
(0.01099988478 2.828481758e-09 8.384519016e-11)
(0.0109998571 4.024702342e-09 -1.900503035e-09)
(0.01099983729 2.460930245e-09 9.925224628e-11)
(0.01099982048 4.21274258e-09 -6.845163065e-11)
(0.0109998005 4.229023637e-09 5.048084028e-10)
(0.01100017074 -3.76309012e-09 1.525943688e-08)
(0.01100009051 -6.290511796e-11 -7.112780488e-09)
(0.01100007135 4.216113323e-09 -3.251993482e-09)
(0.01100002705 4.901721703e-09 -1.376684835e-09)
(0.0109999827 5.012502584e-09 -1.365587262e-09)
(0.01099993934 4.389429302e-09 9.132266872e-10)
(0.01099989987 5.051367628e-09 6.050362852e-11)
(0.01099986363 3.47417909e-09 -8.75371343e-10)
(0.01099983352 3.542636418e-09 6.110537671e-10)
(0.01099980977 3.251691903e-09 3.351484284e-09)
(0.01099978542 2.502517024e-09 7.175115143e-10)
(0.01099976858 3.920333806e-09 2.426451687e-09)
(0.01099975747 2.18101839e-09 2.279961167e-09)
(0.01099973985 4.174985514e-09 1.762982874e-09)
(0.01100024068 2.151250129e-09 3.282273763e-08)
(0.011000089 2.064124132e-09 6.594401997e-09)
(0.01100005304 1.063504908e-09 4.678681329e-09)
(0.01099999569 5.322452349e-10 4.460730142e-09)
(0.0109999451 -9.83116082e-10 2.879214056e-09)
(0.01099989995 1.121635067e-09 4.894848882e-10)
(0.01099986237 -1.396862154e-10 8.47277148e-10)
(0.01099982591 -2.975488073e-10 2.054914392e-09)
(0.01099980165 2.354330019e-09 -3.142206095e-10)
(0.01099977547 3.229056713e-09 2.859295825e-09)
(0.01099975571 1.411496601e-09 -1.582145585e-09)
(0.0109997411 7.145892801e-10 6.278506322e-10)
(0.01099972934 8.696485039e-10 5.254291609e-10)
(0.01099971593 2.958028711e-10 1.063437838e-10)
(0.01100016868 5.336395554e-09 1.565343784e-08)
(0.01100009117 1.913787431e-09 -6.893993174e-09)
(0.0110000704 -1.52070302e-09 -2.63233619e-09)
(0.01100002654 -4.360783803e-09 1.040073793e-09)
(0.01099998082 -4.056617104e-09 1.754625584e-09)
(0.01099993941 -4.763513832e-09 1.096403534e-09)
(0.01099990002 -3.099333194e-09 2.105468508e-09)
(0.01099986642 -2.323844542e-09 3.18505427e-09)
(0.01099983358 -2.143400838e-09 1.229083441e-09)
(0.01099980887 -1.926026887e-09 2.246197345e-09)
(0.01099978611 7.105397723e-11 1.630886893e-09)
(0.01099977032 -1.005951235e-09 2.347624156e-09)
(0.01099975563 -1.567663268e-09 1.695251153e-09)
(0.01099973963 -9.307016207e-10 1.048707263e-09)
(0.01100016548 3.111797322e-09 3.610360616e-09)
(0.01100012402 1.227800989e-08 -5.617078467e-09)
(0.01100011006 7.917553005e-09 -5.726260514e-10)
(0.01100007636 5.396047362e-09 1.166631153e-09)
(0.01100004496 4.354575825e-09 1.974679997e-09)
(0.01100000578 2.293652077e-09 1.718264652e-09)
(0.01099997278 -1.678547448e-09 2.390462678e-09)
(0.01099994147 -1.552380446e-09 3.554851903e-09)
(0.01099991074 -3.976004315e-09 2.683081448e-09)
(0.01099988496 -1.78844472e-09 3.82531376e-09)
(0.01099985759 -1.252525208e-09 2.746499846e-09)
(0.01099983548 -1.988142797e-09 1.121453478e-09)
(0.01099981469 -2.971726588e-09 1.668527254e-09)
(0.01099979757 -4.465340102e-09 1.39015008e-10)
(0.01100014181 1.292650516e-08 2.084794782e-09)
(0.0110001273 9.92833788e-09 -3.934701881e-09)
(0.01100012298 5.742002139e-09 -3.500481912e-09)
(0.01100010972 4.446392285e-09 -2.688146363e-10)
(0.01100009075 3.092981152e-09 -2.962198684e-09)
(0.01100006423 1.612163351e-09 -1.090518266e-09)
(0.01100004009 -2.843794708e-10 6.954281717e-10)
(0.01100001398 -1.332651969e-09 1.207821998e-09)
(0.01099998826 -9.581331362e-10 1.167132255e-09)
(0.0109999612 -3.004400021e-09 1.766591573e-09)
(0.01099993068 -2.184206987e-09 1.201977542e-09)
(0.01099990917 -2.361035018e-09 1.306495448e-09)
(0.01099988363 -3.892035627e-09 2.516425081e-09)
(0.01099986306 -4.326349888e-09 1.533009729e-09)
(0.01100013581 -2.750390753e-10 1.205709416e-09)
(0.01100012895 2.479238358e-09 -5.252072955e-09)
(0.01100013439 1.140817376e-09 -3.621631179e-09)
(0.01100012452 2.008663574e-09 -2.310654263e-09)
(0.0110001125 2.256604326e-09 -3.150584885e-09)
(0.01100009716 -8.257535279e-10 -6.596723168e-10)
(0.01100007821 -7.79682093e-10 6.793691648e-10)
(0.01100005682 5.596202571e-10 -4.379590021e-10)
(0.01100002986 2.682876399e-10 6.817054061e-10)
(0.01100000492 -1.375797201e-09 3.00058863e-09)
(0.01099998 -1.492245869e-09 2.050785467e-09)
(0.01099995053 -8.556206859e-10 1.506488012e-09)
(0.01099992947 -3.554257715e-09 1.630013889e-09)
(0.0109999087 -2.533300312e-09 2.337640417e-10)
(0.01100011104 -1.234021341e-08 -3.946794387e-08)
(0.01100014328 1.995713209e-09 -1.265611049e-08)
(0.01100012657 -1.723951102e-09 -1.081560863e-08)
(0.01100012656 -2.273492343e-09 -4.62684369e-09)
(0.0110001109 -1.15658981e-10 -6.437561662e-10)
(0.01100009155 -1.935513032e-10 -7.352780796e-11)
(0.01100006535 1.954173495e-09 5.342247006e-10)
(0.01100003944 9.947487118e-10 2.237647913e-09)
(0.01100001391 4.409166859e-10 2.658230684e-09)
(0.01099998603 8.164588367e-10 3.303650764e-09)
(0.01099996053 2.547534378e-09 5.438774318e-09)
(0.0109999332 3.508419344e-09 4.75288247e-09)
(0.01099991058 2.051060485e-09 3.759773903e-09)
(0.01099988901 2.794940027e-09 2.585594161e-09)
(0.01099986465 2.934612785e-09 3.500355072e-09)
(0.01100015123 -1.029901069e-08 -1.036185988e-08)
(0.01100010987 -1.348450833e-08 -1.377771065e-08)
(0.01100010345 -5.578458028e-09 -5.99336373e-09)
(0.01100007402 -2.743808723e-09 -2.015535351e-09)
(0.01100004072 -3.164075322e-10 -8.638226187e-10)
(0.01100001061 3.004173865e-09 1.8606708e-09)
(0.01099997586 3.165642393e-09 2.441949362e-09)
(0.01099995021 4.764275185e-09 3.955554033e-09)
(0.01099991858 5.450545171e-09 4.805488187e-09)
(0.01099989501 5.258689085e-09 3.876537302e-09)
(0.01099987135 3.435902512e-09 4.434487017e-09)
(0.01099985105 3.302548845e-09 3.40321861e-09)
(0.01099983194 4.886065229e-09 4.351357621e-09)
(0.01099981538 4.388454644e-09 5.157621225e-09)
(0.01100018107 1.319301503e-08 -1.345692096e-08)
(0.01100007693 -1.291504369e-08 -1.507644507e-08)
(0.01100004639 -7.428943163e-09 1.348178004e-09)
(0.01099998862 -1.549951483e-09 5.52982593e-09)
(0.0109999376 -6.512476662e-10 7.348676852e-09)
(0.01099989616 1.020409867e-09 8.099232115e-09)
(0.01099985994 7.049225441e-10 7.310314446e-09)
(0.01099982885 4.774621262e-09 7.966231751e-09)
(0.01099980478 4.554422669e-09 7.116638755e-09)
(0.01099978514 4.10074392e-09 6.769644106e-09)
(0.01099976809 4.061694574e-09 6.662793129e-09)
(0.01099975702 5.740214589e-09 5.520520943e-09)
(0.01099974613 5.230810819e-09 5.398632353e-09)
(0.01099973265 5.181788224e-09 5.756180452e-09)
(0.01100015042 2.987130379e-08 2.468392747e-08)
(0.01099995874 1.077451725e-08 -2.101418938e-08)
(0.01099992744 1.398943669e-08 3.62320927e-09)
(0.01099985641 1.331925463e-08 1.240091322e-08)
(0.01099980058 1.261053249e-08 1.223615889e-08)
(0.01099975716 7.862628098e-09 1.30521428e-08)
(0.0109997236 6.933807697e-09 9.875998755e-09)
(0.01099970333 4.611321972e-09 8.289186554e-09)
(0.01099968902 3.708725737e-09 8.363304683e-09)
(0.01099967693 3.729201723e-09 8.480489322e-09)
(0.01099966986 2.099313197e-09 7.08499177e-09)
(0.0109996644 1.797257919e-09 5.907820104e-09)
(0.01099966285 2.58452753e-09 7.558066394e-09)
(0.01099966294 3.927537366e-09 4.292278146e-09)
(0.01100026458 1.410254461e-09 1.251857463e-07)
(0.01099988721 4.650033905e-10 5.192539352e-08)
(0.01099983909 1.879233864e-09 5.851011442e-08)
(0.0109997624 1.156192117e-09 4.659023891e-08)
(0.01099970798 -9.841094912e-10 3.188038602e-08)
(0.01099967538 7.365682344e-10 2.297909605e-08)
(0.01099965705 2.731581683e-09 1.663035532e-08)
(0.01099964176 1.576225786e-09 1.188496859e-08)
(0.01099963219 8.915252268e-10 9.821307326e-09)
(0.01099962679 1.037153228e-09 7.769559773e-09)
(0.0109996265 7.582723089e-10 7.752908199e-09)
(0.01099962868 3.821878623e-10 5.646804315e-09)
(0.01099963143 6.729911887e-10 6.985932262e-09)
(0.01099963166 3.978151579e-10 5.154934187e-09)
(0.01100014569 -2.661999125e-08 2.486762503e-08)
(0.01099995861 -8.974108528e-09 -1.82355447e-08)
(0.01099992966 -1.168304281e-08 5.395934807e-09)
(0.01099985493 -1.225839255e-08 1.402805875e-08)
(0.01099979938 -9.566531873e-09 1.533168924e-08)
(0.01099975919 -8.376308217e-09 1.535007404e-08)
(0.01099972591 -5.695300327e-09 1.279228375e-08)
(0.01099970173 -4.883237629e-09 1.075612523e-08)
(0.01099968764 -1.683284265e-09 9.384655929e-09)
(0.01099967452 -1.187821377e-09 6.795685958e-09)
(0.01099966643 -9.104138027e-10 6.176499181e-09)
(0.01099966509 -2.514067883e-09 4.322632228e-09)
(0.01099966519 -3.786485317e-09 5.995107771e-09)
(0.01099966017 -2.741981946e-09 5.770391415e-09)
(0.01100017784 -1.137405151e-08 -1.467854934e-08)
(0.01100007694 1.673660957e-08 -1.489029199e-08)
(0.01100004499 9.113134775e-09 1.429652561e-09)
(0.010999989 4.819949381e-09 7.887620307e-09)
(0.01099993863 2.083562578e-09 8.867277747e-09)
(0.01099989591 2.969371238e-10 1.000904644e-08)
(0.01099985852 -2.930471897e-09 9.193435137e-09)
(0.0109998302 -3.644304646e-09 8.930889768e-09)
(0.01099980392 -4.618486618e-09 7.297906059e-09)
(0.01099978298 -3.54497501e-09 7.559285366e-09)
(0.01099976372 -2.165542305e-09 6.124948918e-09)
(0.01099975366 -1.960864041e-09 4.166950752e-09)
(0.01099974284 -3.225572059e-09 5.592795253e-09)
(0.01099973291 -4.425149723e-09 4.387078145e-09)
(0.01100015187 8.769750911e-09 -1.057795255e-08)
(0.01100010842 1.270286362e-08 -1.368176316e-08)
(0.0110001028 5.452726198e-09 -6.743281764e-09)
(0.01100007179 2.23948141e-09 -2.165620754e-09)
(0.01100004264 6.13436031e-10 8.416908846e-11)
(0.01100000791 -1.058444166e-09 4.750397845e-10)
(0.01099997893 -1.64420437e-09 4.052592969e-09)
(0.01099994994 -3.860652367e-09 4.562105882e-09)
(0.01099992011 -3.563394314e-09 3.170317921e-09)
(0.01099989557 -3.618931565e-09 3.035646303e-09)
(0.01099986857 -3.301459597e-09 4.588668748e-09)
(0.01099984768 -2.251333186e-09 3.331169158e-09)
(0.01099983004 -5.10496473e-09 3.726660793e-09)
(0.01099981468 -4.818695723e-09 3.526831891e-09)
(0.01100014327 -1.410606324e-09 -1.200792488e-08)
(0.01100012765 2.876955152e-09 -1.149063493e-08)
(0.01100012577 1.213496861e-09 -5.501098688e-09)
(0.01100010903 1.630665224e-09 -1.799619638e-09)
(0.01100008918 9.920097808e-10 -1.742198537e-09)
(0.01100006766 -7.973380063e-10 -4.733081256e-10)
(0.01100003944 -1.502613621e-09 1.57298317e-09)
(0.01100001426 -1.298323924e-09 7.766921855e-10)
(0.01099998874 -1.123494834e-09 1.36350565e-09)
(0.01099996072 4.152010426e-11 2.953814077e-09)
(0.0109999333 6.038866425e-12 3.233253638e-09)
(0.0109999046 -1.256515703e-09 4.160970999e-09)
(0.01099988599 -2.44549333e-09 4.552255351e-09)
(0.01099986491 -2.656163108e-09 3.939434308e-09)
(0.01100012088 -2.80360821e-08 -4.447951616e-08)
(0.0110001637 5.650038858e-09 -7.782120824e-10)
(0.01100012509 -3.557009783e-09 -8.419780703e-09)
(0.01100011151 4.029838253e-10 -4.266835392e-09)
(0.01100007837 9.9268362e-10 -2.546246626e-09)
(0.01100004057 -1.33563029e-09 -1.646635782e-09)
(0.01100000764 2.917612888e-09 9.130291084e-10)
(0.01099997395 3.647551338e-09 1.249795436e-09)
(0.01099993846 4.648853879e-09 3.648021551e-09)
(0.01099991038 4.372606023e-09 4.624367384e-09)
(0.01099988202 3.633989016e-09 5.484385192e-09)
(0.01099985932 3.938258601e-09 6.195978388e-09)
(0.01099983822 4.901235396e-09 5.13833859e-09)
(0.01099981749 4.710415958e-09 5.894164528e-09)
(0.01099979867 5.498619081e-09 3.826831176e-09)
(0.01100013213 -1.448585081e-07 -6.997725682e-08)
(0.01100017805 -1.317071671e-08 1.153651189e-08)
(0.01100007239 -1.318252128e-08 -1.429498763e-08)
(0.01100004432 5.4252912e-10 -6.673046056e-09)
(0.01099998701 7.312570292e-09 -3.645332913e-09)
(0.01099993657 6.795606791e-09 -6.429283428e-10)
(0.01099989657 8.010583066e-09 1.085262616e-09)
(0.01099985711 6.582941897e-09 2.974209955e-09)
(0.01099983038 6.361672595e-09 4.440211526e-09)
(0.0109998035 6.042762578e-09 3.327042167e-09)
(0.01099978375 6.65903296e-09 5.558353689e-09)
(0.01099976883 4.069288107e-09 4.744983212e-09)
(0.01099975491 3.827538941e-09 5.48173341e-09)
(0.0109997453 5.352285769e-09 5.25562222e-09)
(0.01099973411 5.869262687e-09 5.8841283e-09)
(0.01100021496 3.480194614e-08 3.174114902e-08)
(0.0109999477 -1.693436763e-08 -1.936304288e-08)
(0.01099986446 5.958280357e-09 3.538343359e-09)
(0.01099976534 1.216233262e-08 9.364994898e-09)
(0.01099969994 1.264610852e-08 1.117911801e-08)
(0.01099966185 1.197034691e-08 1.011028127e-08)
(0.01099963396 9.917586784e-09 9.938781842e-09)
(0.01099962217 9.985195546e-09 6.665508946e-09)
(0.01099961717 7.795288341e-09 7.887920698e-09)
(0.01099961694 5.276900854e-09 6.812849595e-09)
(0.01099961713 6.932271529e-09 7.359989189e-09)
(0.01099962293 6.624573506e-09 5.031041295e-09)
(0.01099962955 8.453720664e-09 6.047479879e-09)
(0.01099963034 6.09372126e-09 3.721857589e-09)
(0.01100004537 1.328313131e-07 1.257376094e-07)
(0.01099955871 6.856476827e-08 -6.621476279e-08)
(0.01099950478 6.174449378e-08 -4.256384101e-09)
(0.01099940644 4.669868264e-08 1.44705574e-08)
(0.0109993685 3.234254241e-08 1.630735534e-08)
(0.0109993639 2.066512221e-08 1.512347157e-08)
(0.01099937334 1.546363198e-08 1.389888413e-08)
(0.01099939671 8.422696964e-09 9.472352527e-09)
(0.01099942167 6.344621876e-09 8.788895663e-09)
(0.01099944823 4.439384859e-09 4.889467908e-09)
(0.01099947391 3.916662253e-09 6.299188102e-09)
(0.0109994952 3.015375616e-09 4.304972565e-09)
(0.01099951746 4.303075702e-09 7.259163278e-09)
(0.01099953547 4.331759876e-09 6.077988126e-09)
(0.01100022086 5.287528656e-10 6.17663228e-07)
(0.01099915028 2.108637974e-09 6.228763139e-08)
(0.01099914655 2.00696254e-09 7.012462176e-08)
(0.01099910973 4.042499364e-10 6.158641291e-08)
(0.01099913251 2.159493827e-09 3.748509793e-08)
(0.01099918288 2.326051584e-09 2.516193051e-08)
(0.01099923254 2.914308381e-09 1.654126799e-08)
(0.01099927972 3.591107192e-09 9.85090451e-09)
(0.01099933014 7.345000469e-10 6.090552247e-09)
(0.01099937308 1.536737749e-09 4.470082001e-09)
(0.01099941059 1.89124461e-09 6.541983096e-09)
(0.01099944323 8.279399764e-10 3.583557191e-09)
(0.01099947217 -1.537072699e-10 6.390901281e-09)
(0.01099949567 7.32802574e-10 5.032980376e-09)
(0.01100004552 -1.309890765e-07 1.249655124e-07)
(0.01099955901 -6.628734906e-08 -6.622620357e-08)
(0.01099950471 -6.044738787e-08 -4.981389988e-09)
(0.01099940665 -4.403854713e-08 1.390944835e-08)
(0.01099936597 -2.95179619e-08 1.730412993e-08)
(0.01099936486 -1.895033504e-08 1.602089391e-08)
(0.01099937614 -1.353100146e-08 1.389160225e-08)
(0.0109993951 -9.074325502e-09 8.407498662e-09)
(0.01099942293 -4.409142949e-09 6.871188603e-09)
(0.01099944729 -2.857647994e-09 7.636818422e-09)
(0.01099946979 -3.531936456e-09 5.768515265e-09)
(0.01099949514 -3.834281754e-09 7.204361367e-09)
(0.0109995166 -4.969728211e-09 8.584700341e-09)
(0.0109995355 -4.457028468e-09 3.907049181e-09)
(0.01100021301 -3.181652883e-08 3.162346119e-08)
(0.01099994987 1.894138111e-08 -1.829825616e-08)
(0.01099986692 -1.778114581e-09 2.235267996e-09)
(0.01099976679 -9.83572311e-09 1.196003669e-08)
(0.01099969928 -1.199181554e-08 1.301788901e-08)
(0.01099966151 -1.166847663e-08 1.308100089e-08)
(0.01099963331 -1.129953988e-08 1.132798165e-08)
(0.0109996226 -7.214364355e-09 8.553685765e-09)
(0.01099961537 -7.978009463e-09 6.687478842e-09)
(0.0109996159 -5.768459039e-09 4.623981549e-09)
(0.0109996128 -5.328048744e-09 5.843681896e-09)
(0.01099961869 -2.686008846e-09 6.790186033e-09)
(0.01099962488 -5.346896107e-09 6.204667592e-09)
(0.01099963084 -6.231448885e-09 5.818171908e-09)
(0.01100017961 1.336514989e-08 1.161860365e-08)
(0.01100007497 1.510695401e-08 -1.399325536e-08)
(0.01100004533 -9.613633617e-10 -9.076852196e-09)
(0.01099998865 -5.307547215e-09 -3.503953286e-09)
(0.01099993652 -7.731387743e-09 6.830886003e-10)
(0.01099989582 -8.251425326e-09 2.078715207e-09)
(0.0109998586 -7.828898471e-09 2.686556378e-09)
(0.01099982859 -7.85748803e-09 3.555369021e-09)
(0.01099980454 -6.671255783e-09 3.853172633e-09)
(0.01099978505 -7.527180959e-09 4.401423082e-09)
(0.01099976836 -5.677265199e-09 3.511146037e-09)
(0.01099975323 -5.720424009e-09 3.996623092e-09)
(0.01099974333 -5.638340617e-09 4.980319014e-09)
(0.01099973124 -5.861204284e-09 3.502666929e-09)
(0.01100016686 -1.935051361e-09 -2.389675861e-09)
(0.01100012352 3.553304104e-09 -8.267913998e-09)
(0.01100011278 8.34380971e-10 -4.608712868e-09)
(0.01100007565 1.172494026e-09 -3.361695171e-09)
(0.01100004004 9.503206381e-10 -9.100168129e-10)
(0.01100000692 -1.055774555e-09 1.588921271e-09)
(0.01099997096 -1.754727611e-09 1.611325993e-09)
(0.01099994124 -3.885152435e-09 2.035421444e-09)
(0.01099990967 -2.39117162e-09 2.400134134e-09)
(0.01099988604 -7.35776613e-10 6.480198223e-10)
(0.01099985772 -1.064450217e-09 1.455226676e-09)
(0.01099983372 -1.014959646e-09 2.157247357e-09)
(0.01099981702 -1.949190601e-09 4.613104906e-09)
(0.01099979604 -1.790995719e-09 3.621911497e-09)
(0.01100012996 -3.695039358e-08 -8.476400665e-08)
(0.0110001695 1.608841874e-08 -4.779040341e-09)
(0.01100008984 -8.923749852e-09 -1.238925113e-09)
(0.01100007099 -4.948344446e-09 3.398366811e-09)
(0.01100002615 -1.674662137e-10 4.555065075e-09)
(0.01099997995 3.466665142e-09 3.735235234e-09)
(0.01099993994 2.511689988e-09 4.01067057e-09)
(0.0109998963 2.542321862e-09 2.973216159e-09)
(0.01099986586 3.812268209e-09 2.861358698e-09)
(0.01099983209 2.730949215e-09 3.272913931e-09)
(0.01099980942 3.677468522e-09 1.765891267e-09)
(0.01099978675 1.627114407e-09 1.01280948e-09)
(0.01099976904 3.160559728e-09 3.041622965e-09)
(0.01099975292 3.614340874e-09 4.01059893e-09)
(0.01099974122 3.822434317e-09 3.919029122e-09)
(0.01100014682 -2.087288111e-07 -1.747613337e-07)
(0.01100014643 2.528077773e-08 2.637515231e-08)
(0.01099996097 -2.012495934e-08 9.535288065e-09)
(0.01099992823 3.236927781e-09 1.053571288e-08)
(0.01099985618 1.179690015e-08 1.188157343e-08)
(0.01099979855 1.287368542e-08 9.39527313e-09)
(0.0109997584 1.224784008e-08 7.454837638e-09)
(0.01099972349 1.062401443e-08 5.414018688e-09)
(0.01099970087 1.032313441e-08 4.740631755e-09)
(0.01099968727 9.107523558e-09 4.217210521e-09)
(0.01099967618 6.938949493e-09 2.836445713e-09)
(0.01099966797 5.923106074e-09 3.130193238e-09)
(0.01099966451 5.562981126e-09 1.987423591e-09)
(0.0109996621 6.128757386e-09 3.364773349e-09)
(0.01099966228 6.020557976e-09 2.242178731e-09)
(0.01100013927 -2.317382911e-07 -5.305206393e-07)
(0.01100004369 1.270572817e-07 1.276226892e-07)
(0.01099955962 -6.531277411e-08 6.560863912e-08)
(0.01099950468 -2.359443467e-09 5.965888643e-08)
(0.01099940534 1.423135046e-08 4.510819791e-08)
(0.01099936701 1.754760564e-08 2.874591387e-08)
(0.0109993634 1.58943565e-08 1.908289422e-08)
(0.01099937474 1.446558438e-08 1.295667394e-08)
(0.01099939609 1.041648274e-08 8.840259882e-09)
(0.01099942128 7.975170307e-09 6.033967997e-09)
(0.0109994453 6.603972502e-09 4.368738351e-09)
(0.01099947109 6.980527611e-09 2.157380915e-09)
(0.01099949285 5.516365195e-09 3.051897526e-09)
(0.01099951652 6.831188305e-09 2.782336802e-09)
(0.01099953682 5.651917042e-09 3.340814501e-09)
(0.01099906565 6.153763711e-07 6.144880035e-07)
(0.01099837774 9.257200079e-08 8.890953247e-08)
(0.01099862302 8.09082673e-08 7.974518859e-08)
(0.01099863824 6.582546447e-08 6.319527286e-08)
(0.01099873378 3.930957304e-08 3.800727918e-08)
(0.01099884931 2.598599562e-08 2.266384787e-08)
(0.01099895632 1.579304392e-08 1.450142653e-08)
(0.01099905642 1.040207865e-08 9.239810598e-09)
(0.01099914019 5.820937072e-09 6.638125379e-09)
(0.01099921634 3.508052221e-09 4.538848299e-09)
(0.01099927828 5.363844461e-09 4.972964943e-09)
(0.01099933299 3.240043502e-09 2.134366187e-09)
(0.01099937989 4.471889178e-09 1.516534097e-09)
(0.01099941948 5.322875003e-09 3.781009936e-09)
(0.01099820399 1.183783649e-09 3.69399996e-06)
(0.010996514 2.665980081e-09 9.192267747e-07)
(0.01099759403 3.403936629e-10 3.621741344e-07)
(0.01099794904 1.301392971e-09 1.88158629e-07)
(0.01099825627 1.192717712e-09 8.444526397e-08)
(0.01099852402 2.323157867e-09 3.905692722e-08)
(0.01099872312 1.840372988e-09 1.728281433e-08)
(0.01099888151 1.567631842e-09 8.966656255e-09)
(0.01099900835 9.963695714e-10 4.662953954e-09)
(0.01099911299 2.439169786e-09 3.558716058e-09)
(0.01099919648 -1.345314238e-09 1.742694905e-09)
(0.01099926633 1.201840902e-09 1.841428657e-09)
(0.01099932684 1.118378761e-09 2.418355124e-09)
(0.01099937744 3.519258969e-10 2.010011832e-09)
(0.01099906475 -6.152512353e-07 6.155237812e-07)
(0.0109983752 -9.082307126e-08 8.977956774e-08)
(0.01099862503 -8.134990351e-08 8.021864694e-08)
(0.01099863936 -6.285846087e-08 6.381804546e-08)
(0.01099873383 -3.853255187e-08 3.747133829e-08)
(0.01099885073 -2.395566815e-08 2.48261484e-08)
(0.01099895509 -1.402909515e-08 1.465944889e-08)
(0.01099905459 -9.217249375e-09 9.960658091e-09)
(0.01099913969 -4.049334873e-09 6.577120976e-09)
(0.0109992151 -2.823274385e-09 4.39679473e-09)
(0.01099927916 -1.831706313e-09 3.009926611e-09)
(0.01099933606 -3.780876844e-09 3.047924052e-09)
(0.01099937764 -3.803301498e-09 4.07008007e-09)
(0.01099942227 -4.175205407e-09 3.857541945e-09)
(0.01100004436 -1.257051564e-07 1.298540947e-07)
(0.01099955932 6.520520063e-08 6.683505162e-08)
(0.01099950516 6.514568411e-09 6.084946285e-08)
(0.01099940739 -1.398581609e-08 4.600816004e-08)
(0.01099936656 -1.433328296e-08 2.864559145e-08)
(0.01099936373 -1.659423031e-08 2.024247897e-08)
(0.01099937315 -1.32542121e-08 1.341681695e-08)
(0.01099939457 -9.568845362e-09 8.989519332e-09)
(0.01099941838 -8.086740195e-09 6.056291286e-09)
(0.01099944777 -5.534551678e-09 3.920812534e-09)
(0.01099947038 -5.413316461e-09 3.547898449e-09)
(0.01099949285 -4.596291656e-09 3.429714676e-09)
(0.01099951335 -7.101213775e-09 4.056777447e-09)
(0.01099953344 -6.593029301e-09 3.483384708e-09)
(0.01100014847 -2.247870167e-08 2.752502626e-08)
(0.01099995514 2.195047361e-08 9.438398915e-09)
(0.01099992955 -3.079827136e-09 1.364117594e-08)
(0.01099985567 -1.279933718e-08 1.276473204e-08)
(0.01099979743 -1.416403828e-08 9.104504123e-09)
(0.01099975699 -1.272562492e-08 9.080827121e-09)
(0.01099972664 -1.284494761e-08 6.672864639e-09)
(0.0109997023 -1.255193036e-08 4.531369392e-09)
(0.01099968329 -9.365226086e-09 4.60910675e-09)
(0.01099967376 -8.20576242e-09 3.802355439e-09)
(0.01099966565 -6.970695118e-09 2.598006904e-09)
(0.01099966414 -5.422834273e-09 3.382417665e-09)
(0.01099966117 -6.565600188e-09 3.22726461e-09)
(0.01099965804 -6.310162599e-09 3.294687646e-09)
(0.01100017097 -1.55616882e-08 -4.92206677e-09)
(0.01100008969 8.186136697e-09 -1.122357284e-09)
(0.01100007031 6.134610093e-09 4.514868633e-09)
(0.01100002661 1.76365632e-09 4.796849662e-09)
(0.01099998059 -1.727472535e-10 4.318792389e-09)
(0.01099993714 -1.151822953e-09 3.772099584e-09)
(0.0109998967 -8.444374098e-10 4.560893239e-09)
(0.01099986461 -3.351127966e-09 2.135405679e-09)
(0.01099983451 -2.716085058e-09 2.774524511e-09)
(0.01099980815 -2.288123603e-09 1.478826665e-09)
(0.01099978633 -1.929196303e-09 1.382145959e-09)
(0.01099976809 -2.74772603e-09 2.392718394e-09)
(0.01099975262 -1.556652426e-09 1.414926407e-09)
(0.01099973788 -2.774238e-09 2.782793003e-09)
(0.01100015853 -1.14091797e-07 -1.262956132e-09)
(0.01100023811 3.640957584e-08 -7.602809106e-10)
(0.01100008797 7.47092226e-09 5.616701551e-10)
(0.0110000518 8.969669178e-09 -1.342474891e-09)
(0.01099999614 8.691992841e-09 -1.231220758e-09)
(0.01099994276 7.5982267e-09 1.085234412e-09)
(0.01099990239 5.380876135e-09 3.49724202e-10)
(0.01099986183 5.463227083e-09 2.538824029e-09)
(0.01099982774 4.753855188e-09 1.053697597e-09)
(0.01099979932 4.353980268e-09 -9.687158592e-10)
(0.01099977563 2.297780155e-09 3.498100932e-10)
(0.01099975648 4.420023168e-09 1.380544384e-10)
(0.01099974038 4.115667924e-09 -3.756680884e-10)
(0.01099972785 3.379414146e-09 -4.533679653e-10)
(0.01099971446 5.028200624e-09 1.606104153e-09)
(0.01100022001 -5.781737556e-07 5.1915483e-10)
(0.01100026724 1.230776696e-07 -7.039484182e-11)
(0.01099988568 5.267284189e-08 6.789085652e-10)
(0.01099983763 5.647740621e-08 3.715937527e-10)
(0.01099976344 4.505121785e-08 -1.488231882e-09)
(0.0109997083 3.228140028e-08 3.796764658e-10)
(0.01099967678 2.344559874e-08 -1.763888867e-10)
(0.01099965325 1.743468139e-08 1.348521512e-09)
(0.01099963985 1.247036826e-08 -2.123901744e-10)
(0.0109996338 9.289567921e-09 7.970551417e-10)
(0.0109996272 8.394079098e-09 -1.177747267e-09)
(0.01099962678 6.234023196e-09 -2.977848437e-10)
(0.01099962656 4.129228606e-09 1.990357954e-09)
(0.01099963005 5.36489273e-09 -1.134800301e-10)
(0.01099962821 5.70163596e-09 -2.068416495e-10)
(0.01100023374 -1.018373825e-06 -1.354364547e-09)
(0.01100022166 6.20763322e-07 2.130028173e-10)
(0.01099915239 6.214203396e-08 1.903311775e-10)
(0.0109991461 7.105161473e-08 -6.507413669e-10)
(0.01099910888 6.157975369e-08 -2.243479892e-10)
(0.01099913115 3.828933823e-08 9.94154744e-10)
(0.01099918214 2.568365388e-08 6.073550598e-10)
(0.01099923269 1.543473789e-08 1.415823943e-09)
(0.01099928003 9.213357354e-09 6.652010836e-10)
(0.01099933135 7.553874455e-09 -1.09640927e-10)
(0.01099937074 5.261263888e-09 -1.087319742e-09)
(0.01099940916 5.148383378e-09 -2.885528577e-10)
(0.0109994423 3.844784699e-09 1.571377386e-10)
(0.01099947245 4.866079012e-09 -8.275611551e-10)
(0.01099949606 4.588932626e-09 2.681840041e-10)
(0.01099854618 -5.24424016e-06 -1.402651184e-09)
(0.0109981989 3.697205834e-06 -8.571230546e-10)
(0.01099651121 9.197520397e-07 1.208890503e-10)
(0.01099759463 3.637773325e-07 -2.463677008e-09)
(0.01099794738 1.896626953e-07 -1.453770464e-10)
(0.0109982573 8.458082982e-08 -4.526332729e-10)
(0.01099852172 3.904391755e-08 1.465720753e-10)
(0.01099872273 1.848653955e-08 -2.344288344e-10)
(0.01099888399 9.763197681e-09 3.948579789e-10)
(0.01099901058 5.119717734e-09 -1.036698685e-09)
(0.01099911278 2.228515762e-09 3.638298897e-11)
(0.01099919486 3.770470188e-09 -1.823666472e-09)
(0.01099926673 3.681644879e-09 7.644573928e-10)
(0.01099932689 5.033630069e-09 -4.239058974e-10)
(0.01099937716 4.214455774e-09 7.535590341e-10)
(0.01099641117 3.227337333e-10 -9.495570974e-10)
(0.01098981844 1.648083313e-09 -1.473459573e-09)
(0.01099494345 1.739993899e-09 -7.349299881e-10)
(0.01099662714 2.165832271e-09 -1.308425005e-09)
(0.01099749416 1.416845505e-09 -3.90407345e-10)
(0.01099806257 2.079927826e-09 -9.201789364e-10)
(0.01099842466 1.519813427e-09 -3.597493868e-10)
(0.01099867448 2.210375495e-09 -1.341692357e-09)
(0.01099885659 -1.276739018e-10 8.285167905e-10)
(0.01099899728 1.085625171e-09 -1.01243383e-09)
(0.01099910548 -7.878044965e-12 -2.395438161e-09)
(0.01099919495 7.773242222e-10 -1.243147255e-09)
(0.01099926422 2.334444713e-09 -1.06222594e-09)
(0.01099932927 -8.56128788e-10 5.800674882e-10)
(0.01099820108 -3.695558331e-06 5.672381569e-10)
(0.01099651013 -9.190539304e-07 2.514665966e-10)
(0.01099759336 -3.627276342e-07 6.536691415e-10)
(0.01099794713 -1.88138407e-07 3.883792481e-10)
(0.01099825658 -8.347465727e-08 -2.473388405e-10)
(0.01099852246 -3.81293828e-08 -8.873809818e-10)
(0.01099872233 -1.734776159e-08 -2.693478497e-10)
(0.0109988823 -7.545504925e-09 -2.968241593e-10)
(0.0109990097 -3.657919272e-09 -1.980883149e-10)
(0.01099911238 -2.310561727e-09 2.73151255e-10)
(0.01099919514 -1.056519735e-09 2.728324975e-10)
(0.01099926785 -1.480953973e-09 -1.071101191e-09)
(0.01099932316 -3.429509192e-09 -2.365148023e-09)
(0.01099937335 -4.171494535e-09 5.847205132e-11)
(0.01100021966 -6.182800075e-07 -1.923150886e-10)
(0.01099915034 -6.019696233e-08 -1.348871722e-10)
(0.01099914315 -6.827642867e-08 1.519004571e-09)
(0.01099910822 -6.008541862e-08 1.431958121e-10)