/*--------------------------------*- C++ -*----------------------------------*\
| =========                 |                                                 |
| \\      /  F ield         | OpenFOAM: The Open Source CFD Toolbox           |
|  \\    /   O peration     | Version:  4.x                                   |
|   \\  /    A nd           | Web:      www.OpenFOAM.org                      |
|    \\/     M anipulation  |                                                 |
\*---------------------------------------------------------------------------*/
FoamFile
{
    version     2.0;
    format      ascii;
    class       volScalarField;
    location    "10000";
    object      X_CO;
}
// * * * * * * * * * * * * * * * * * * * * * * * * * * * * * * * * * * * * * //

dimensions      [0 0 0 0 0 0 0];

internalField   nonuniform List<scalar> 
1174
(
0.4000276436
0.4000265336
0.4000249662
0.4000229218
0.4000204224
0.4000175234
0.4000143024
0.4000108472
0.4000072472
0.4000035862
0.3999999416
0.3999963958
0.399993094
0.3999904999
0.4000265999
0.4000248194
0.4000224486
0.4000195427
0.4000162021
0.4000125486
0.4000087056
0.4000047854
0.4000008825
0.3999970723
0.399993414
0.3999899649
0.3999868347
0.3999844191
0.4000242932
0.4000211439
0.4000172478
0.4000128252
0.4000081142
0.4000033285
0.3999986371
0.3999941602
0.399989974
0.3999861198
0.3999826149
0.3999794695
0.3999767335
0.3999746855
0.4000209113
0.4000160162
0.400010398
0.4000044684
0.3999985702
0.3999929495
0.3999877598
0.3999830797
0.3999789338
0.3999753107
0.3999721788
0.3999695021
0.3999672754
0.3999656645
0.4000184952
0.4000126411
0.4000062571
0.399999794
0.3999935771
0.399987814
0.3999826173
0.3999780302
0.3999740483
0.3999706381
0.3999677504
0.3999653343
0.3999633659
0.3999619658
0.4000209114
0.4000160163
0.4000103981
0.4000044685
0.3999985704
0.3999929497
0.39998776
0.3999830799
0.3999789341
0.399975311
0.3999721792
0.3999695025
0.3999672757
0.3999656649
0.4000242933
0.400021144
0.4000172479
0.4000128253
0.4000081144
0.4000033288
0.3999986374
0.3999941606
0.3999899745
0.3999861203
0.3999826154
0.3999794701
0.3999767341
0.3999746861
0.4000265999
0.4000248195
0.4000224487
0.4000195428
0.4000162023
0.4000125489
0.4000087059
0.4000047858
0.400000883
0.3999970728
0.3999934146
0.3999899656
0.3999868355
0.3999844199
0.4000276436
0.4000265337
0.4000249663
0.4000229219
0.4000204226
0.4000175236
0.4000143026
0.4000108475
0.4000072476
0.4000035866
0.3999999422
0.3999963965
0.3999930947
0.3999905008
0.4000278019
0.4000265999
0.4000248194
0.4000224487
0.4000195427
0.4000162021
0.4000125487
0.4000087057
0.4000047854
0.4000008826
0.3999970723
0.399993414
0.3999899649
0.3999868348
0.3999844191
0.4000242452
0.4000211164
0.4000173021
0.4000130318
0.4000085364
0.4000040098
0.3999995962
0.3999953921
0.399991454
0.3999878098
0.3999844694
0.3999814413
0.3999787785
0.3999767673
0.4000183173
0.400012234
0.4000056242
0.3999990481
0.399992889
0.3999873557
0.3999825233
0.3999783812
0.3999748714
0.3999719162
0.399969435
0.3999673584
0.3999656532
0.3999644274
0.4000077749
0.3999976548
0.3999880366
0.3999796403
0.3999727162
0.3999672297
0.3999630082
0.3999598341
0.3999574941
0.399955801
0.3999546001
0.3999537685
0.3999532131
0.3999528827
0.3999978221
0.3999856427
0.3999753314
0.3999671578
0.3999609578
0.3999564136
0.3999531878
0.399950978
0.3999495332
0.3999486541
0.3999481855
0.3999480071
0.3999480188
0.3999481134
0.4000077751
0.3999976551
0.3999880369
0.3999796407
0.3999727167
0.3999672301
0.3999630086
0.3999598346
0.3999574946
0.3999558015
0.3999546006
0.399953769
0.3999532136
0.3999528832
0.4000183175
0.4000122343
0.4000056245
0.3999990484
0.3999928895
0.3999873562
0.3999825239
0.3999783818
0.3999748721
0.3999719169
0.3999694358
0.3999673592
0.399965654
0.3999644283
0.4000242453
0.4000211166
0.4000173022
0.400013032
0.4000085367
0.4000040101
0.3999995967
0.3999953926
0.3999914546
0.3999878105
0.3999844701
0.3999814421
0.3999787794
0.3999767683
0.4000265999
0.4000248195
0.4000224487
0.4000195429
0.4000162023
0.4000125489
0.400008706
0.4000047859
0.4000008831
0.399997073
0.3999934148
0.3999899658
0.3999868357
0.3999844202
0.4000265577
0.4000242933
0.4000211439
0.4000172478
0.4000128252
0.4000081143
0.4000033286
0.3999986372
0.3999941603
0.3999899741
0.3999861199
0.399982615
0.3999794696
0.3999767336
0.3999746855
0.4000232302
0.4000183174
0.4000122341
0.4000056242
0.3999990481
0.399992889
0.3999873557
0.3999825234
0.3999783812
0.3999748715
0.3999719162
0.399969435
0.3999673584
0.3999656532
0.3999644275
0.4000007941
0.3999879526
0.3999763309
0.3999668089
0.3999595662
0.3999543916
0.3999509146
0.3999487416
0.3999475225
0.3999469724
0.3999468725
0.3999470581
0.3999473971
0.3999477368
0.3999617906
0.3999400941
0.3999251438
0.399916331
0.3999122037
0.3999112992
0.3999124385
0.3999147674
0.3999177071
0.3999208835
0.3999240634
0.399927097
0.3999298418
0.3999319442
0.3999106715
0.3998890852
0.3998798422
0.399878244
0.399880936
0.3998858071
0.3998916068
0.3998976243
0.3999034723
0.3999089528
0.3999139741
0.3999184911
0.3999224202
0.399925359
0.3999617915
0.3999400949
0.3999251447
0.3999163319
0.3999122045
0.3999113001
0.3999124393
0.3999147682
0.3999177079
0.3999208843
0.3999240641
0.3999270977
0.3999298424
0.3999319449
0.4000007949
0.3999879533
0.3999763317
0.3999668097
0.3999595671
0.3999543926
0.3999509156
0.3999487427
0.3999475236
0.3999469735
0.3999468736
0.3999470592
0.3999473982
0.399947738
0.4000183175
0.4000122343
0.4000056246
0.3999990485
0.3999928896
0.3999873564
0.3999825242
0.3999783821
0.3999748725
0.3999719173
0.3999694362
0.3999673596
0.3999656545
0.3999644288
0.4000242933
0.400021144
0.400017248
0.4000128254
0.4000081146
0.400003329
0.3999986378
0.399994161
0.3999899749
0.3999861208
0.399982616
0.3999794708
0.3999767348
0.3999746869
0.4000246878
0.4000209115
0.4000160164
0.4000103982
0.4000044686
0.3999985704
0.3999929497
0.39998776
0.3999830799
0.399978934
0.3999753109
0.399972179
0.3999695023
0.3999672755
0.3999656646
0.4000170868
0.4000077752
0.3999976551
0.3999880369
0.3999796407
0.3999727166
0.39996723
0.3999630085
0.3999598344
0.3999574944
0.3999558012
0.3999546003
0.3999537687
0.3999532133
0.3999528829
0.39998828
0.3999617911
0.3999400945
0.3999251442
0.3999163313
0.3999122039
0.3999112994
0.3999124386
0.3999147675
0.3999177072
0.3999208836
0.3999240635
0.3999270971
0.3999298418
0.3999319443
0.3998279752
0.3998006451
0.399796149
0.3998040216
0.3998174119
0.3998324541
0.3998471893
0.3998607447
0.3998728203
0.3998833964
0.3998925732
0.3999004722
0.3999071091
0.3999119574
0.3995651401
0.3995994826
0.3996522475
0.3997028315
0.399745807
0.3997808596
0.399809131
0.3998319653
0.3998505336
0.3998657635
0.3998783593
0.3998888249
0.399897397
0.3999035582
0.3998279781
0.3998006472
0.3997961508
0.3998040232
0.3998174134
0.3998324555
0.3998471906
0.3998607459
0.3998728214
0.3998833975
0.3998925742
0.3999004732
0.39990711
0.3999119583
0.3999617914
0.3999400951
0.3999251451
0.3999163325
0.3999122053
0.3999113009
0.3999124402
0.3999147691
0.3999177088
0.3999208852
0.399924065
0.3999270985
0.3999298433
0.3999319457
0.400007775
0.3999976551
0.3999880371
0.3999796411
0.3999727172
0.3999672308
0.3999630095
0.3999598356
0.3999574957
0.3999558026
0.3999546017
0.3999537702
0.3999532148
0.3999528844
0.4000209114
0.4000160163
0.4000103982
0.4000044687
0.3999985708
0.3999929503
0.3999877607
0.3999830808
0.399978935
0.3999753121
0.3999721803
0.3999695037
0.3999672771
0.3999656663
0.4000232841
0.4000184953
0.4000126412
0.4000062573
0.3999997942
0.3999935773
0.3999878142
0.3999826176
0.3999780304
0.3999740486
0.3999706384
0.3999677507
0.3999653345
0.3999633661
0.3999619661
0.4000106713
0.3999978224
0.3999856431
0.3999753318
0.3999671583
0.3999609582
0.399956414
0.3999531882
0.3999509783
0.3999495335
0.3999486544
0.3999481858
0.3999480073
0.3999480191
0.3999481136
0.3999490392
0.399910672
0.3998890858
0.3998798428
0.3998782445
0.3998809365
0.3998858075
0.3998916072
0.3998976247
0.3999034726
0.3999089531
0.3999139743
0.3999184913
0.3999224205
0.3999253592
0.3996119048
0.3995651424
0.3995994842
0.3996522486
0.3997028324
0.3997458077
0.3997808601
0.3998091315
0.3998319657
0.399850534
0.3998657638
0.3998783596
0.3998888251
0.3998973972
0.3999035584
0.398432563
0.3990091434
0.3993282274
0.399514948
0.399630566
0.3997061841
0.399758201
0.3997956115
0.3998235527
0.3998450799
0.3998620787
0.3998757268
0.399886632
0.3998943481
0.399565139
0.3995994851
0.3996522508
0.3997028348
0.3997458101
0.3997808623
0.3998091334
0.3998319674
0.3998505355
0.3998657652
0.3998783609
0.3998888263
0.3998973983
0.3999035595
0.3999106709
0.3998890859
0.3998798437
0.3998782459
0.3998809382
0.3998858094
0.3998916091
0.3998976266
0.3999034745
0.3999089549
0.3999139761
0.399918493
0.3999224221
0.3999253609
0.3999978219
0.3999856429
0.399975332
0.3999671588
0.399960959
0.3999564151
0.3999531894
0.3999509797
0.399949535
0.399948656
0.3999481874
0.399948009
0.3999480208
0.3999481154
0.4000184951
0.4000126411
0.4000062573
0.3999997944
0.3999935777
0.3999878148
0.3999826184
0.3999780315
0.3999740498
0.3999706397
0.3999677522
0.3999653361
0.3999633678
0.3999619679
0.4000246878
0.4000209115
0.4000160165
0.4000103983
0.4000044687
0.3999985706
0.3999929499
0.3999877602
0.3999830802
0.3999789343
0.3999753113
0.3999721794
0.3999695027
0.399967276
0.3999656651
0.4000170869
0.4000077754
0.3999976554
0.3999880373
0.3999796411
0.399972717
0.3999672305
0.399963009
0.3999598349
0.399957495
0.3999558018
0.3999546009
0.3999537693
0.3999532139
0.3999528835
0.3999882812
0.3999617922
0.3999400957
0.3999251454
0.3999163325
0.3999122051
0.3999113006
0.3999124398
0.3999147687
0.3999177083
0.3999208847
0.3999240645
0.399927098
0.3999298428
0.3999319452
0.3998893614
0.3998279801
0.3998006489
0.3997961522
0.3998040243
0.3998174143
0.3998324563
0.3998471913
0.3998607465
0.3998728219
0.3998833979
0.3998925746
0.3999004735
0.3999071103
0.3999119586
0.3996119036
0.3995651421
0.3995994872
0.3996522523
0.3997028359
0.3997458109
0.399780863
0.3998091339
0.3998319679
0.3998505359
0.3998657655
0.3998783611
0.3998888266
0.3998973985
0.3999035596
0.3998893605
0.3998279802
0.3998006498
0.3997961535
0.3998040258
0.3998174159
0.3998324578
0.3998471927
0.3998607478
0.3998728232
0.3998833991
0.3998925757
0.3999004746
0.3999071113
0.3999119595
0.3999617906
0.3999400953
0.3999251458
0.3999163335
0.3999122064
0.3999113022
0.3999124415
0.3999147703
0.39991771
0.3999208863
0.3999240661
0.3999270996
0.3999298443
0.3999319468
0.4000077747
0.399997655
0.3999880372
0.3999796414
0.3999727176
0.3999672314
0.3999630101
0.3999598362
0.3999574964
0.3999558033
0.3999546025
0.3999537709
0.3999532156
0.3999528852
0.4000209113
0.4000160163
0.4000103982
0.4000044688
0.3999985709
0.3999929505
0.399987761
0.3999830811
0.3999789354
0.3999753126
0.3999721808
0.3999695043
0.3999672777
0.3999656669
0.4000265577
0.4000242934
0.4000211441
0.4000172481
0.4000128255
0.4000081146
0.400003329
0.3999986377
0.3999941608
0.3999899747
0.3999861206
0.3999826157
0.3999794704
0.3999767344
0.3999746864
0.4000232304
0.4000183177
0.4000122345
0.4000056247
0.3999990487
0.3999928897
0.3999873565
0.3999825242
0.3999783821
0.3999748724
0.3999719172
0.3999694361
0.3999673595
0.3999656543
0.3999644286
0.4000130407
0.4000007952
0.3999879537
0.3999763321
0.3999668101
0.3999595675
0.399954393
0.399950916
0.3999487431
0.399947524
0.3999469739
0.399946874
0.3999470595
0.3999473985
0.3999477383
0.3999882811
0.3999617924
0.3999400961
0.399925146
0.3999163333
0.399912206
0.3999113016
0.3999124408
0.3999147697
0.3999177093
0.3999208856
0.3999240654
0.3999270989
0.3999298437
0.3999319461
0.3999490389
0.3999106726
0.3998890873
0.3998798449
0.3998782469
0.399880939
0.39988581
0.3998916097
0.3998976271
0.3999034749
0.3999089552
0.3999139764
0.3999184933
0.3999224224
0.3999253611
0.3999882812
0.3999617926
0.3999400966
0.3999251467
0.3999163342
0.3999122069
0.3999113025
0.3999124418
0.3999147706
0.3999177102
0.3999208865
0.3999240663
0.3999270998
0.3999298445
0.3999319469
0.4000130403
0.4000007949
0.3999879537
0.3999763324
0.3999668107
0.3999595683
0.399954394
0.3999509171
0.3999487443
0.3999475252
0.3999469752
0.3999468753
0.3999470609
0.3999473999
0.3999477396
0.4000183173
0.4000122343
0.4000056247
0.3999990488
0.3999928901
0.3999873571
0.3999825249
0.399978383
0.3999748735
0.3999719184
0.3999694373
0.3999673608
0.3999656557
0.39996443
0.4000242932
0.4000211439
0.400017248
0.4000128255
0.4000081148
0.4000033293
0.3999986382
0.3999941615
0.3999899756
0.3999861216
0.3999826169
0.3999794717
0.3999767358
0.399974688
0.400027802
0.4000266
0.4000248196
0.4000224488
0.400019543
0.4000162025
0.400012549
0.4000087061
0.400004786
0.4000008832
0.3999970731
0.3999934149
0.3999899658
0.3999868358
0.3999844202
0.4000265249
0.4000242454
0.4000211167
0.4000173024
0.4000130322
0.4000085369
0.4000040103
0.3999995969
0.3999953929
0.3999914549
0.3999878108
0.3999844704
0.3999814424
0.3999787797
0.3999767686
0.4000232304
0.4000183177
0.4000122346
0.4000056248
0.3999990488
0.39999289
0.3999873568
0.3999825245
0.3999783825
0.3999748728
0.3999719176
0.3999694365
0.3999673599
0.3999656548
0.3999644291
0.4000170869
0.4000077755
0.3999976556
0.3999880377
0.3999796417
0.3999727178
0.3999672314
0.39996301
0.399959836
0.3999574961
0.399955803
0.3999546021
0.3999537706
0.3999532152
0.3999528848
0.4000106713
0.3999978226
0.3999856437
0.3999753328
0.3999671595
0.3999609597
0.3999564157
0.39995319
0.3999509802
0.3999495355
0.3999486564
0.3999481878
0.3999480094
0.3999480211
0.3999481157
0.4000170869
0.4000077756
0.3999976558
0.3999880379
0.399979642
0.3999727182
0.3999672319
0.3999630105
0.3999598366
0.3999574967
0.3999558036
0.3999546028
0.3999537712
0.3999532158
0.3999528854
0.4000232304
0.4000183177
0.4000122346
0.400005625
0.3999990492
0.3999928904
0.3999873573
0.3999825252
0.3999783833
0.3999748737
0.3999719186
0.3999694375
0.3999673609
0.3999656558
0.3999644302
0.4000265249
0.4000242453
0.4000211167
0.4000173024
0.4000130324
0.4000085372
0.4000040108
0.3999995975
0.3999953936
0.3999914557
0.3999878117
0.3999844714
0.3999814435
0.3999787809
0.3999767698
0.4000265999
0.4000248195
0.4000224488
0.400019543
0.4000162026
0.4000125493
0.4000087065
0.4000047865
0.4000008839
0.3999970739
0.3999934158
0.3999899669
0.399986837
0.3999844215
0.4000283574
0.4000276437
0.4000265337
0.4000249664
0.400022922
0.4000204227
0.4000175238
0.4000143028
0.4000108477
0.4000072478
0.4000035869
0.3999999425
0.3999963968
0.399993095
0.3999905011
0.400027802
0.4000266
0.4000248196
0.4000224488
0.400019543
0.4000162025
0.4000125491
0.4000087062
0.4000047861
0.4000008833
0.3999970732
0.399993415
0.399989966
0.399986836
0.3999844205
0.4000265577
0.4000242934
0.4000211441
0.4000172481
0.4000128256
0.4000081148
0.4000033293
0.399998638
0.3999941613
0.3999899752
0.3999861211
0.3999826163
0.3999794711
0.3999767351
0.3999746872
0.4000246878
0.4000209116
0.4000160166
0.4000103985
0.4000044691
0.3999985711
0.3999929507
0.3999877611
0.3999830812
0.3999789354
0.3999753125
0.3999721807
0.3999695041
0.3999672774
0.3999656666
0.4000232841
0.4000184955
0.4000126415
0.4000062578
0.3999997949
0.3999935782
0.3999878154
0.3999826189
0.399978032
0.3999740503
0.3999706402
0.3999677526
0.3999653365
0.3999633682
0.3999619682
0.4000246879
0.4000209116
0.4000160167
0.4000103986
0.4000044693
0.3999985714
0.399992951
0.3999877614
0.3999830816
0.3999789359
0.399975313
0.3999721812
0.3999695046
0.399967278
0.3999656672
0.4000265577
0.4000242934
0.4000211442
0.4000172483
0.4000128258
0.4000081151
0.4000033296
0.3999986385
0.3999941618
0.3999899759
0.3999861218
0.3999826171
0.3999794719
0.399976736
0.3999746882
0.400027802
0.4000266
0.4000248196
0.4000224489
0.4000195431
0.4000162027
0.4000125494
0.4000087066
0.4000047866
0.400000884
0.3999970739
0.3999934159
0.399989967
0.399986837
0.3999844216
0.4000283574
0.4000276436
0.4000265337
0.4000249664
0.4000229221
0.4000204228
0.400017524
0.4000143031
0.4000108482
0.4000072483
0.4000035876
0.3999999433
0.3999963977
0.3999930961
0.3999905023
)
;

boundaryField
{
    top
    {
        type            calculated;
        value           nonuniform List<scalar> 
127
(
0.4000283574
0.4000276436
0.4000265999
0.4000242933
0.4000209114
0.4000184951
0.4000209113
0.4000242932
0.4000265999
0.4000276436
0.4000265337
0.4000248195
0.400021144
0.4000160163
0.4000126411
0.4000160163
0.4000211439
0.4000248195
0.4000265337
0.4000249663
0.4000224487
0.400017248
0.4000103982
0.4000062573
0.4000103982
0.400017248
0.4000224488
0.4000249664
0.4000229219
0.4000195429
0.4000128254
0.4000044687
0.3999997944
0.4000044688
0.4000128255
0.400019543
0.4000229221
0.4000204226
0.4000162023
0.4000081146
0.3999985708
0.3999935777
0.3999985709
0.4000081148
0.4000162026
0.4000204228
0.4000175236
0.4000125489
0.400003329
0.3999929503
0.3999878148
0.3999929505
0.4000033293
0.4000125493
0.400017524
0.4000143026
0.400008706
0.3999986378
0.3999877607
0.3999826184
0.399987761
0.3999986382
0.4000087065
0.4000143031
0.4000108475
0.4000047859
0.399994161
0.3999830808
0.3999780315
0.3999830811
0.3999941615
0.4000047865
0.4000108482
0.4000072476
0.4000008831
0.3999899749
0.399978935
0.3999740498
0.3999789354
0.3999899756
0.4000008839
0.4000072483
0.4000035866
0.399997073
0.3999861208
0.3999753121
0.3999706397
0.3999753126
0.3999861216
0.3999970739
0.4000035876
0.3999999422
0.3999934148
0.399982616
0.3999721803
0.3999677522
0.3999721808
0.3999826169
0.3999934158
0.3999999433
0.3999963965
0.3999899658
0.3999794708
0.3999695037
0.3999653361
0.3999695043
0.3999794717
0.3999899669
0.3999963977
0.3999930947
0.3999868357
0.3999767348
0.3999672771
0.3999633678
0.3999672777
0.3999767358
0.399986837
0.3999930961
0.3999905008
0.3999844202
0.3999746869
0.3999656663
0.3999619679
0.3999656669
0.399974688
0.3999844215
0.3999905023
)
;
    }
    bottom
    {
        type            calculated;
        value           nonuniform List<scalar> 
134
(
0.4000278019
0.4000265577
0.4000246878
0.4000232841
0.4000246878
0.4000265577
0.400027802
0.4000283574
0.4000276436
0.4000265999
0.4000242933
0.4000209115
0.4000184953
0.4000209115
0.4000242934
0.4000266
0.4000276437
0.4000265336
0.4000248194
0.4000211439
0.4000160164
0.4000126412
0.4000160165
0.4000211441
0.4000248196
0.4000265337
0.4000249662
0.4000224487
0.4000172478
0.4000103982
0.4000062573
0.4000103983
0.4000172481
0.4000224488
0.4000249664
0.4000229218
0.4000195427
0.4000128252
0.4000044686
0.3999997942
0.4000044687
0.4000128255
0.400019543
0.400022922
0.4000204224
0.4000162021
0.4000081143
0.3999985704
0.3999935773
0.3999985706
0.4000081146
0.4000162025
0.4000204227
0.4000175234
0.4000125487
0.4000033286
0.3999929497
0.3999878142
0.3999929499
0.400003329
0.400012549
0.4000175238
0.4000143024
0.4000087057
0.3999986372
0.39998776
0.3999826176
0.3999877602
0.3999986377
0.4000087061
0.4000143028
0.4000108472
0.4000047854
0.3999941603
0.3999830799
0.3999780304
0.3999830802
0.3999941608
0.400004786
0.4000108477
0.4000072472
0.4000008826
0.3999899741
0.399978934
0.3999740486
0.3999789343
0.3999899747
0.4000008832
0.4000072478
0.4000035862
0.3999970723
0.3999861199
0.3999753109
0.3999706384
0.3999753113
0.3999861206
0.3999970731
0.4000035869
0.3999999416
0.399993414
0.399982615
0.399972179
0.3999677507
0.3999721794
0.3999826157
0.3999934149
0.3999999425
0.3999963958
0.3999899649
0.3999794696
0.3999695023
0.3999653345
0.3999695027
0.3999794704
0.3999899658
0.3999963968
0.399993094
0.3999868348
0.3999767336
0.3999672755
0.3999633661
0.399967276
0.3999767344
0.3999868358
0.399993095
0.3999904999
0.3999844191
0.3999746855
0.3999656646
0.3999619661
0.3999656651
0.3999746864
0.3999844202
0.3999905011
)
;
    }
    side-walls
    {
        type            calculated;
        value           nonuniform List<scalar> 
261
(
0.4000276436
0.4000265999
0.4000242932
0.4000209113
0.4000184952
0.4000209114
0.4000242933
0.4000265999
0.4000276436
0.4000265336
0.4000248194
0.4000211439
0.4000160162
0.4000126411
0.4000160163
0.400021144
0.4000248195
0.4000265337
0.4000249662
0.4000224486
0.4000172478
0.400010398
0.4000062571
0.4000103981
0.4000172479
0.4000224487
0.4000249663
0.4000229218
0.4000195427
0.4000128252
0.4000044684
0.399999794
0.4000044685
0.4000128253
0.4000195428
0.4000229219
0.4000204224
0.4000162021
0.4000081142
0.3999985702
0.3999935771
0.3999985704
0.4000081144
0.4000162023
0.4000204226
0.4000175234
0.4000125486
0.4000033285
0.3999929495
0.399987814
0.3999929497
0.4000033288
0.4000125489
0.4000175236
0.4000143024
0.4000087056
0.3999986371
0.3999877598
0.3999826173
0.39998776
0.3999986374
0.4000087059
0.4000143026
0.4000108472
0.4000047854
0.3999941602
0.3999830797
0.3999780302
0.3999830799
0.3999941606
0.4000047858
0.4000108475
0.4000072472
0.4000008825
0.399989974
0.3999789338
0.3999740483
0.3999789341
0.3999899745
0.400000883
0.4000072476
0.4000035862
0.3999970723
0.3999861198
0.3999753107
0.3999706381
0.399975311
0.3999861203
0.3999970728
0.4000035866
0.3999999416
0.399993414
0.3999826149
0.3999721788
0.3999677504
0.3999721792
0.3999826154
0.3999934146
0.3999999422
0.3999963958
0.3999899649
0.3999794695
0.3999695021
0.3999653343
0.3999695025
0.3999794701
0.3999899656
0.3999963965
0.399993094
0.3999868347
0.3999767335
0.3999672754
0.3999633659
0.3999672757
0.3999767341
0.3999868355
0.3999930947
0.3999904999
0.3999844191
0.3999746855
0.3999656645
0.3999619658
0.3999656649
0.3999746861
0.3999844199
0.3999905008
0.4000283574
0.400027802
0.4000265577
0.4000246878
0.4000232841
0.4000246879
0.4000265577
0.400027802
0.4000283574
0.4000276437
0.4000266
0.4000242934
0.4000209116
0.4000184955
0.4000209116
0.4000242934
0.4000266
0.4000276436
0.4000265337
0.4000248196
0.4000211441
0.4000160166
0.4000126415
0.4000160167
0.4000211442
0.4000248196
0.4000265337
0.4000249664
0.4000224488
0.4000172481
0.4000103985
0.4000062578
0.4000103986
0.4000172483
0.4000224489
0.4000249664
0.400022922
0.400019543
0.4000128256
0.4000044691
0.3999997949
0.4000044693
0.4000128258
0.4000195431
0.4000229221
0.4000204227
0.4000162025
0.4000081148
0.3999985711
0.3999935782
0.3999985714
0.4000081151
0.4000162027
0.4000204228
0.4000175238
0.4000125491
0.4000033293
0.3999929507
0.3999878154
0.399992951
0.4000033296
0.4000125494
0.400017524
0.4000143028
0.4000087062
0.399998638
0.3999877611
0.3999826189
0.3999877614
0.3999986385
0.4000087066
0.4000143031
0.4000108477
0.4000047861
0.3999941613
0.3999830812
0.399978032
0.3999830816
0.3999941618
0.4000047866
0.4000108482
0.4000072478
0.4000008833
0.3999899752
0.3999789354
0.3999740503
0.3999789359
0.3999899759
0.400000884
0.4000072483
0.4000035869
0.3999970732
0.3999861211
0.3999753125
0.3999706402
0.399975313
0.3999861218
0.3999970739
0.4000035876
0.3999999425
0.399993415
0.3999826163
0.3999721807
0.3999677526
0.3999721812
0.3999826171
0.3999934159
0.3999999433
0.3999963968
0.399989966
0.3999794711
0.3999695041
0.3999653365
0.3999695046
0.3999794719
0.399989967
0.3999963977
0.399993095
0.399986836
0.3999767351
0.3999672774
0.3999633682
0.399967278
0.399976736
0.399986837
0.3999930961
0.3999905011
0.3999844205
0.3999746872
0.3999656666
0.3999619682
0.3999656672
0.3999746882
0.3999844216
0.3999905023
)
;
    }
    inlet
    {
        type            calculated;
        value           nonuniform 0();
    }
    outlet
    {
        type            calculated;
        value           nonuniform List<scalar> 
81
(
0.3999904999
0.3999844191
0.3999746855
0.3999656645
0.3999619658
0.3999656649
0.3999746861
0.3999844199
0.3999905008
0.3999844191
0.3999767673
0.3999644274
0.3999528827
0.3999481134
0.3999528832
0.3999644283
0.3999767683
0.3999844202
0.3999746855
0.3999644275
0.3999477368
0.3999319442
0.399925359
0.3999319449
0.399947738
0.3999644288
0.3999746869
0.3999656646
0.3999528829
0.3999319443
0.3999119574
0.3999035582
0.3999119583
0.3999319457
0.3999528844
0.3999656663
0.3999619661
0.3999481136
0.3999253592
0.3999035584
0.3998943481
0.3999035595
0.3999253609
0.3999481154
0.3999619679
0.3999656651
0.3999528835
0.3999319452
0.3999119586
0.3999035596
0.3999119595
0.3999319468
0.3999528852
0.3999656669
0.3999746864
0.3999644286
0.3999477383
0.3999319461
0.3999253611
0.3999319469
0.3999477396
0.39996443
0.399974688
0.3999844202
0.3999767686
0.3999644291
0.3999528848
0.3999481157
0.3999528854
0.3999644302
0.3999767698
0.3999844215
0.3999905011
0.3999844205
0.3999746872
0.3999656666
0.3999619682
0.3999656672
0.3999746882
0.3999844216
0.3999905023
)
;
    }
    procBoundary1to0
    {
        type            processor;
        value           nonuniform List<scalar> 
97
(
0.4000283574
0.4000283574
0.400027802
0.4000265578
0.4000246879
0.4000232843
0.400024688
0.4000265578
0.400027802
0.4000283575
0.4000285125
0.4000265249
0.4000265249
0.4000265249
0.4000232304
0.4000170871
0.4000106719
0.4000170873
0.4000232306
0.400026525
0.400027802
0.4000279491
0.4000264896
0.4000130402
0.4000130402
0.4000130402
0.3999882817
0.3999490424
0.3999882827
0.4000130413
0.4000232306
0.4000265578
0.4000271231
0.4000239149
0.4000126854
0.3998893599
0.3998893599
0.3998893599
0.3996119247
0.3998893663
0.3999882826
0.4000170872
0.400024688
0.4000265329
0.4000214838
0.4000002009
0.3999158702
0.3973314301
0.3973314301
0.3973314301
0.3996119219
0.3996119219
0.3999490417
0.4000106717
0.4000232842
0.4000271231
0.4000239149
0.4000126852
0.3999800143
0.3999158686
0.3999800148
0.3999882804
0.3999882804
0.3999882804
0.4000170869
0.4000246879
0.4000279491
0.4000264896
0.4000222101
0.4000126852
0.4000002006
0.4000126853
0.4000222102
0.4000232302
0.4000232302
0.4000232302
0.4000265577
0.4000285125
0.4000279374
0.4000264896
0.4000239149
0.4000214837
0.4000239149
0.4000264896
0.4000279374
0.4000278019
0.4000278019
0.4000278019
0.4000287674
0.4000285125
0.4000279491
0.4000271231
0.4000265329
0.4000271231
0.4000279491
0.4000285125
0.4000287674
)
;
    }
}


// ************************************************************************* //
