/*--------------------------------*- C++ -*----------------------------------*\
| =========                 |                                                 |
| \\      /  F ield         | OpenFOAM: The Open Source CFD Toolbox           |
|  \\    /   O peration     | Version:  4.x                                   |
|   \\  /    A nd           | Web:      www.OpenFOAM.org                      |
|    \\/     M anipulation  |                                                 |
\*---------------------------------------------------------------------------*/
FoamFile
{
    version     2.0;
    format      ascii;
    class       volScalarField;
    location    "10000";
    object      X_N2;
}
// * * * * * * * * * * * * * * * * * * * * * * * * * * * * * * * * * * * * * //

dimensions      [0 0 0 0 0 0 0];

internalField   nonuniform List<scalar> 
1174
(
0.599970868
0.5999708676
0.5999708671
0.5999708664
0.5999708655
0.5999708645
0.5999708632
0.5999708618
0.5999708603
0.5999708587
0.5999708569
0.5999708552
0.5999708534
0.599970852
0.5999708676
0.5999708671
0.5999708664
0.5999708654
0.5999708643
0.5999708629
0.5999708615
0.5999708599
0.5999708582
0.5999708564
0.5999708546
0.5999708528
0.5999708511
0.5999708497
0.599970867
0.5999708661
0.599970865
0.5999708636
0.599970862
0.5999708604
0.5999708586
0.5999708567
0.5999708548
0.599970853
0.5999708511
0.5999708493
0.5999708475
0.5999708462
0.5999708661
0.5999708649
0.5999708633
0.5999708615
0.5999708596
0.5999708577
0.5999708556
0.5999708536
0.5999708517
0.5999708497
0.5999708479
0.5999708461
0.5999708444
0.5999708432
0.5999708657
0.5999708642
0.5999708625
0.5999708605
0.5999708585
0.5999708565
0.5999708544
0.5999708524
0.5999708504
0.5999708485
0.5999708466
0.5999708449
0.5999708433
0.5999708421
0.5999708662
0.5999708649
0.5999708634
0.5999708616
0.5999708597
0.5999708578
0.5999708558
0.5999708539
0.5999708519
0.59997085
0.5999708482
0.5999708464
0.5999708448
0.5999708436
0.599970867
0.5999708661
0.599970865
0.5999708637
0.5999708622
0.5999708605
0.5999708588
0.599970857
0.5999708552
0.5999708534
0.5999708516
0.5999708498
0.5999708482
0.5999708469
0.5999708677
0.5999708671
0.5999708664
0.5999708655
0.5999708644
0.5999708631
0.5999708617
0.5999708602
0.5999708586
0.5999708569
0.5999708552
0.5999708534
0.5999708518
0.5999708505
0.599970868
0.5999708676
0.5999708671
0.5999708664
0.5999708656
0.5999708646
0.5999708634
0.5999708621
0.5999708606
0.5999708591
0.5999708574
0.5999708558
0.5999708542
0.5999708529
0.5999708681
0.5999708677
0.5999708671
0.5999708664
0.5999708654
0.5999708643
0.599970863
0.5999708615
0.5999708599
0.5999708582
0.5999708565
0.5999708547
0.5999708528
0.5999708511
0.5999708497
0.5999708669
0.5999708661
0.599970865
0.5999708637
0.5999708622
0.5999708606
0.5999708588
0.5999708571
0.5999708553
0.5999708534
0.5999708516
0.5999708498
0.5999708481
0.5999708468
0.5999708654
0.5999708639
0.5999708621
0.5999708602
0.5999708582
0.5999708562
0.5999708542
0.5999708523
0.5999708504
0.5999708486
0.5999708469
0.5999708453
0.5999708437
0.5999708426
0.5999708632
0.5999708609
0.5999708584
0.5999708559
0.5999708536
0.5999708514
0.5999708494
0.5999708475
0.5999708457
0.5999708441
0.5999708425
0.5999708411
0.5999708398
0.5999708388
0.5999708616
0.5999708589
0.5999708562
0.5999708536
0.5999708513
0.5999708492
0.5999708472
0.5999708455
0.5999708438
0.5999708423
0.5999708409
0.5999708396
0.5999708384
0.5999708375
0.5999708633
0.599970861
0.5999708586
0.5999708562
0.5999708539
0.5999708517
0.5999708497
0.5999708479
0.5999708462
0.5999708446
0.599970843
0.5999708416
0.5999708403
0.5999708394
0.5999708655
0.599970864
0.5999708623
0.5999708604
0.5999708585
0.5999708566
0.5999708547
0.5999708528
0.599970851
0.5999708493
0.5999708477
0.5999708461
0.5999708446
0.5999708435
0.599970867
0.5999708661
0.5999708651
0.5999708638
0.5999708624
0.5999708608
0.5999708592
0.5999708575
0.5999708558
0.5999708541
0.5999708524
0.5999708507
0.5999708491
0.5999708479
0.5999708677
0.5999708671
0.5999708664
0.5999708655
0.5999708644
0.5999708632
0.5999708618
0.5999708603
0.5999708587
0.5999708571
0.5999708554
0.5999708537
0.5999708521
0.5999708508
0.5999708677
0.5999708671
0.5999708662
0.5999708651
0.5999708637
0.5999708621
0.5999708605
0.5999708587
0.5999708568
0.5999708549
0.5999708531
0.5999708512
0.5999708494
0.5999708476
0.5999708463
0.5999708667
0.5999708655
0.599970864
0.5999708622
0.5999708603
0.5999708583
0.5999708563
0.5999708543
0.5999708524
0.5999708505
0.5999708487
0.599970847
0.5999708453
0.5999708438
0.5999708426
0.5999708614
0.5999708587
0.5999708559
0.5999708531
0.5999708507
0.5999708484
0.5999708465
0.5999708447
0.5999708431
0.5999708417
0.5999708403
0.5999708391
0.599970838
0.5999708372
0.5999708543
0.59997085
0.5999708463
0.5999708433
0.599970841
0.5999708392
0.5999708378
0.5999708367
0.5999708357
0.5999708349
0.5999708341
0.5999708334
0.5999708327
0.5999708323
0.5999708479
0.5999708431
0.5999708396
0.5999708373
0.5999708357
0.5999708346
0.5999708338
0.5999708332
0.5999708327
0.5999708322
0.5999708318
0.5999708313
0.5999708309
0.5999708306
0.5999708548
0.5999708505
0.5999708469
0.5999708439
0.5999708417
0.59997084
0.5999708386
0.5999708375
0.5999708365
0.5999708357
0.5999708349
0.5999708342
0.5999708335
0.5999708331
0.5999708617
0.599970859
0.5999708563
0.5999708537
0.5999708513
0.5999708492
0.5999708474
0.5999708457
0.5999708442
0.5999708428
0.5999708415
0.5999708403
0.5999708392
0.5999708384
0.5999708655
0.599970864
0.5999708624
0.5999708606
0.5999708587
0.5999708568
0.599970855
0.5999708532
0.5999708515
0.5999708498
0.5999708481
0.5999708466
0.5999708451
0.599970844
0.599970867
0.5999708661
0.5999708651
0.5999708638
0.5999708623
0.5999708608
0.5999708592
0.5999708575
0.5999708557
0.599970854
0.5999708523
0.5999708506
0.599970849
0.5999708478
0.5999708672
0.5999708663
0.599970865
0.5999708635
0.5999708617
0.5999708598
0.5999708578
0.5999708558
0.5999708538
0.5999708518
0.5999708499
0.599970848
0.5999708462
0.5999708446
0.5999708433
0.5999708655
0.5999708635
0.5999708611
0.5999708587
0.5999708562
0.5999708538
0.5999708516
0.5999708496
0.5999708477
0.5999708459
0.5999708443
0.5999708427
0.5999708413
0.5999708399
0.599970839
0.5999708593
0.5999708549
0.5999708504
0.5999708466
0.5999708436
0.5999708412
0.5999708394
0.599970838
0.5999708368
0.5999708359
0.599970835
0.5999708342
0.5999708335
0.5999708328
0.5999708324
0.5999708331
0.5999708283
0.5999708255
0.5999708243
0.599970824
0.5999708242
0.5999708247
0.5999708252
0.5999708256
0.5999708259
0.5999708262
0.5999708264
0.5999708265
0.5999708266
0.5999708052
0.5999708049
0.5999708073
0.5999708106
0.5999708136
0.5999708162
0.5999708184
0.5999708201
0.5999708214
0.5999708224
0.5999708232
0.5999708238
0.5999708242
0.5999708246
0.5999708349
0.5999708297
0.5999708269
0.5999708258
0.5999708255
0.5999708258
0.5999708261
0.5999708266
0.5999708269
0.5999708272
0.5999708274
0.5999708275
0.5999708275
0.5999708276
0.5999708547
0.5999708507
0.5999708473
0.5999708447
0.5999708426
0.5999708409
0.5999708396
0.5999708385
0.5999708376
0.5999708367
0.5999708359
0.5999708352
0.5999708345
0.5999708341
0.5999708633
0.5999708611
0.5999708589
0.5999708567
0.5999708546
0.5999708526
0.5999708507
0.599970849
0.5999708474
0.5999708458
0.5999708444
0.599970843
0.5999708417
0.5999708408
0.5999708661
0.5999708649
0.5999708635
0.5999708619
0.5999708602
0.5999708584
0.5999708566
0.5999708548
0.599970853
0.5999708512
0.5999708495
0.5999708479
0.5999708463
0.5999708452
0.5999708669
0.5999708658
0.5999708644
0.5999708627
0.5999708608
0.5999708588
0.5999708567
0.5999708547
0.5999708526
0.5999708507
0.5999708488
0.5999708469
0.5999708452
0.5999708435
0.5999708423
0.5999708645
0.599970862
0.5999708593
0.5999708566
0.599970854
0.5999708517
0.5999708495
0.5999708476
0.5999708458
0.5999708441
0.5999708426
0.5999708412
0.5999708398
0.5999708386
0.5999708377
0.599970855
0.5999708489
0.5999708439
0.5999708403
0.5999708379
0.5999708363
0.5999708351
0.5999708343
0.5999708336
0.599970833
0.5999708325
0.599970832
0.5999708316
0.5999708311
0.5999708308
0.5999708152
0.599970808
0.5999708065
0.5999708084
0.5999708113
0.5999708142
0.5999708167
0.5999708187
0.5999708203
0.5999708216
0.5999708226
0.5999708234
0.599970824
0.5999708244
0.5999708247
0.5999706938
0.5999707449
0.599970773
0.5999707895
0.5999707998
0.5999708066
0.5999708113
0.5999708146
0.599970817
0.5999708189
0.5999708202
0.5999708213
0.5999708221
0.5999708227
0.599970805
0.5999708069
0.5999708103
0.5999708137
0.5999708166
0.5999708189
0.5999708208
0.5999708222
0.5999708233
0.5999708242
0.5999708248
0.5999708253
0.5999708256
0.5999708259
0.5999708476
0.5999708439
0.5999708413
0.5999708395
0.5999708382
0.5999708372
0.5999708365
0.5999708358
0.5999708352
0.5999708346
0.5999708341
0.5999708335
0.599970833
0.5999708327
0.5999708615
0.5999708591
0.5999708568
0.5999708547
0.5999708527
0.5999708508
0.5999708491
0.5999708475
0.5999708459
0.5999708445
0.5999708431
0.5999708418
0.5999708406
0.5999708398
0.5999708656
0.5999708643
0.5999708627
0.599970861
0.5999708593
0.5999708575
0.5999708556
0.5999708538
0.5999708521
0.5999708503
0.5999708487
0.599970847
0.5999708455
0.5999708445
0.5999708672
0.5999708663
0.5999708651
0.5999708636
0.5999708619
0.59997086
0.5999708581
0.5999708561
0.5999708542
0.5999708522
0.5999708503
0.5999708485
0.5999708467
0.5999708451
0.5999708439
0.5999708655
0.5999708636
0.5999708614
0.599970859
0.5999708566
0.5999708543
0.5999708521
0.5999708501
0.5999708483
0.5999708465
0.5999708449
0.5999708434
0.5999708419
0.5999708406
0.5999708397
0.5999708602
0.5999708557
0.5999708514
0.5999708477
0.5999708447
0.5999708424
0.5999708406
0.5999708391
0.599970838
0.599970837
0.5999708361
0.5999708353
0.5999708345
0.5999708338
0.5999708334
0.5999708463
0.5999708373
0.5999708315
0.5999708283
0.5999708269
0.5999708264
0.5999708265
0.5999708268
0.5999708271
0.5999708274
0.5999708276
0.5999708277
0.5999708278
0.5999708278
0.5999708279
0.5999708158
0.5999708087
0.5999708091
0.5999708118
0.5999708147
0.5999708173
0.5999708194
0.5999708212
0.5999708226
0.5999708236
0.5999708244
0.5999708251
0.5999708255
0.5999708258
0.5999708261
0.5999708456
0.5999708373
0.5999708323
0.5999708298
0.5999708287
0.5999708283
0.5999708283
0.5999708285
0.5999708287
0.5999708289
0.5999708291
0.5999708291
0.5999708291
0.599970829
0.5999708291
0.5999708543
0.5999708511
0.5999708482
0.5999708459
0.599970844
0.5999708424
0.5999708411
0.59997084
0.599970839
0.5999708381
0.5999708373
0.5999708365
0.5999708357
0.5999708353
0.5999708631
0.5999708611
0.5999708591
0.5999708571
0.5999708551
0.5999708533
0.5999708515
0.5999708498
0.5999708482
0.5999708467
0.5999708453
0.5999708439
0.5999708426
0.5999708417
0.5999708661
0.5999708649
0.5999708636
0.5999708621
0.5999708604
0.5999708588
0.599970857
0.5999708553
0.5999708536
0.5999708519
0.5999708502
0.5999708486
0.5999708471
0.599970846
0.5999708677
0.5999708671
0.5999708663
0.5999708652
0.5999708639
0.5999708624
0.5999708608
0.5999708591
0.5999708573
0.5999708555
0.5999708537
0.5999708519
0.5999708501
0.5999708485
0.5999708472
0.5999708669
0.5999708657
0.5999708643
0.5999708626
0.5999708607
0.5999708588
0.5999708569
0.599970855
0.5999708532
0.5999708514
0.5999708497
0.599970848
0.5999708464
0.5999708449
0.5999708438
0.5999708646
0.5999708623
0.5999708596
0.5999708568
0.5999708543
0.5999708519
0.5999708498
0.5999708479
0.5999708462
0.5999708447
0.5999708432
0.5999708419
0.5999708407
0.5999708396
0.5999708388
0.5999708602
0.5999708559
0.5999708518
0.5999708484
0.5999708456
0.5999708434
0.5999708416
0.5999708402
0.5999708391
0.5999708381
0.5999708372
0.5999708363
0.5999708356
0.5999708348
0.5999708344
0.599970855
0.5999708496
0.5999708455
0.5999708426
0.5999708405
0.5999708391
0.5999708379
0.599970837
0.5999708363
0.5999708356
0.599970835
0.5999708344
0.5999708338
0.5999708333
0.599970833
0.5999708603
0.5999708561
0.5999708523
0.5999708491
0.5999708465
0.5999708444
0.5999708428
0.5999708414
0.5999708402
0.5999708392
0.5999708383
0.5999708374
0.5999708366
0.5999708359
0.5999708354
0.5999708643
0.599970862
0.5999708596
0.5999708572
0.599970855
0.5999708529
0.599970851
0.5999708492
0.5999708476
0.5999708462
0.5999708448
0.5999708435
0.5999708423
0.5999708411
0.5999708404
0.5999708654
0.5999708641
0.5999708627
0.5999708611
0.5999708594
0.5999708577
0.599970856
0.5999708544
0.5999708527
0.5999708511
0.5999708495
0.599970848
0.5999708466
0.5999708456
0.5999708669
0.5999708661
0.5999708652
0.599970864
0.5999708627
0.5999708613
0.5999708598
0.5999708582
0.5999708566
0.599970855
0.5999708533
0.5999708517
0.5999708502
0.5999708491
0.5999708681
0.5999708677
0.5999708672
0.5999708665
0.5999708656
0.5999708645
0.5999708633
0.5999708619
0.5999708604
0.5999708588
0.5999708572
0.5999708554
0.5999708537
0.5999708521
0.5999708508
0.5999708677
0.5999708671
0.5999708663
0.5999708652
0.599970864
0.5999708626
0.5999708611
0.5999708595
0.5999708578
0.5999708561
0.5999708544
0.5999708527
0.599970851
0.5999708494
0.5999708482
0.5999708669
0.5999708658
0.5999708643
0.5999708627
0.5999708609
0.5999708591
0.5999708572
0.5999708554
0.5999708536
0.5999708519
0.5999708502
0.5999708485
0.5999708469
0.5999708455
0.5999708444
0.5999708655
0.5999708637
0.5999708616
0.5999708594
0.5999708572
0.5999708551
0.5999708531
0.5999708512
0.5999708495
0.5999708478
0.5999708463
0.5999708448
0.5999708433
0.5999708421
0.5999708411
0.5999708645
0.5999708622
0.5999708599
0.5999708576
0.5999708554
0.5999708533
0.5999708514
0.5999708496
0.5999708479
0.5999708464
0.5999708449
0.5999708435
0.5999708422
0.599970841
0.5999708401
0.5999708656
0.5999708638
0.5999708618
0.5999708597
0.5999708576
0.5999708556
0.5999708537
0.5999708519
0.5999708502
0.5999708485
0.599970847
0.5999708455
0.5999708441
0.5999708428
0.5999708419
0.5999708668
0.5999708658
0.5999708644
0.5999708629
0.5999708613
0.5999708596
0.5999708579
0.5999708562
0.5999708545
0.5999708529
0.5999708512
0.5999708497
0.5999708481
0.5999708467
0.5999708457
0.5999708677
0.5999708671
0.5999708663
0.5999708653
0.5999708642
0.5999708629
0.5999708616
0.5999708601
0.5999708586
0.599970857
0.5999708555
0.5999708539
0.5999708523
0.5999708508
0.5999708496
0.5999708676
0.5999708672
0.5999708665
0.5999708657
0.5999708647
0.5999708636
0.5999708624
0.599970861
0.5999708596
0.5999708581
0.5999708566
0.599970855
0.5999708535
0.5999708523
0.5999708683
0.5999708681
0.5999708677
0.5999708672
0.5999708665
0.5999708657
0.5999708647
0.5999708636
0.5999708623
0.5999708608
0.5999708593
0.5999708577
0.5999708561
0.5999708544
0.5999708532
0.5999708681
0.5999708677
0.5999708672
0.5999708665
0.5999708656
0.5999708646
0.5999708634
0.599970862
0.5999708606
0.599970859
0.5999708574
0.5999708557
0.599970854
0.5999708524
0.5999708511
0.5999708677
0.5999708671
0.5999708663
0.5999708653
0.599970864
0.5999708626
0.5999708611
0.5999708595
0.5999708578
0.5999708561
0.5999708544
0.5999708526
0.5999708509
0.5999708493
0.5999708481
0.5999708672
0.5999708664
0.5999708652
0.5999708638
0.5999708623
0.5999708606
0.5999708588
0.599970857
0.5999708552
0.5999708534
0.5999708517
0.5999708499
0.5999708483
0.5999708467
0.5999708456
0.5999708669
0.5999708659
0.5999708646
0.5999708631
0.5999708615
0.5999708597
0.5999708579
0.5999708561
0.5999708543
0.5999708525
0.5999708507
0.599970849
0.5999708474
0.5999708459
0.5999708448
0.5999708673
0.5999708664
0.5999708653
0.599970864
0.5999708625
0.5999708608
0.5999708591
0.5999708574
0.5999708557
0.5999708539
0.5999708522
0.5999708505
0.5999708489
0.5999708474
0.5999708462
0.5999708677
0.5999708672
0.5999708664
0.5999708654
0.5999708642
0.5999708629
0.5999708615
0.59997086
0.5999708584
0.5999708568
0.5999708552
0.5999708535
0.5999708519
0.5999708504
0.5999708492
0.5999708681
0.5999708677
0.5999708672
0.5999708666
0.5999708658
0.5999708648
0.5999708637
0.5999708624
0.5999708611
0.5999708597
0.5999708582
0.5999708566
0.599970855
0.5999708535
0.5999708524
0.5999708683
0.599970868
0.5999708677
0.5999708672
0.5999708666
0.5999708658
0.599970865
0.5999708639
0.5999708628
0.5999708615
0.5999708601
0.5999708587
0.5999708572
0.5999708557
0.5999708546
)
;

boundaryField
{
    top
    {
        type            calculated;
        value           nonuniform List<scalar> 
127
(
0.5999708683
0.599970868
0.5999708677
0.599970867
0.5999708661
0.5999708656
0.5999708661
0.5999708669
0.5999708676
0.599970868
0.5999708676
0.5999708671
0.5999708661
0.5999708649
0.5999708643
0.5999708649
0.5999708661
0.5999708672
0.5999708677
0.5999708671
0.5999708664
0.5999708651
0.5999708635
0.5999708627
0.5999708636
0.5999708652
0.5999708665
0.5999708672
0.5999708664
0.5999708655
0.5999708638
0.5999708619
0.599970861
0.5999708621
0.599970864
0.5999708657
0.5999708666
0.5999708656
0.5999708644
0.5999708623
0.5999708602
0.5999708593
0.5999708604
0.5999708627
0.5999708647
0.5999708658
0.5999708646
0.5999708632
0.5999708608
0.5999708584
0.5999708575
0.5999708588
0.5999708613
0.5999708636
0.599970865
0.5999708634
0.5999708618
0.5999708592
0.5999708566
0.5999708556
0.599970857
0.5999708598
0.5999708624
0.5999708639
0.5999708621
0.5999708603
0.5999708575
0.5999708548
0.5999708538
0.5999708553
0.5999708582
0.599970861
0.5999708628
0.5999708606
0.5999708587
0.5999708557
0.599970853
0.5999708521
0.5999708536
0.5999708566
0.5999708596
0.5999708615
0.5999708591
0.5999708571
0.599970854
0.5999708512
0.5999708503
0.5999708519
0.599970855
0.5999708581
0.5999708601
0.5999708574
0.5999708554
0.5999708523
0.5999708495
0.5999708487
0.5999708502
0.5999708533
0.5999708566
0.5999708587
0.5999708558
0.5999708537
0.5999708506
0.5999708479
0.599970847
0.5999708486
0.5999708517
0.599970855
0.5999708572
0.5999708542
0.5999708521
0.599970849
0.5999708463
0.5999708455
0.5999708471
0.5999708502
0.5999708535
0.5999708557
0.5999708529
0.5999708508
0.5999708478
0.5999708452
0.5999708445
0.599970846
0.5999708491
0.5999708523
0.5999708546
)
;
    }
    bottom
    {
        type            calculated;
        value           nonuniform List<scalar> 
134
(
0.5999708681
0.5999708677
0.5999708672
0.5999708669
0.5999708672
0.5999708677
0.5999708681
0.5999708683
0.599970868
0.5999708677
0.5999708671
0.5999708663
0.5999708658
0.5999708663
0.5999708671
0.5999708677
0.5999708681
0.5999708676
0.5999708671
0.5999708662
0.599970865
0.5999708644
0.5999708651
0.5999708663
0.5999708672
0.5999708677
0.5999708671
0.5999708664
0.5999708651
0.5999708635
0.5999708627
0.5999708636
0.5999708652
0.5999708665
0.5999708672
0.5999708664
0.5999708654
0.5999708637
0.5999708617
0.5999708608
0.5999708619
0.5999708639
0.5999708656
0.5999708665
0.5999708655
0.5999708643
0.5999708621
0.5999708598
0.5999708588
0.59997086
0.5999708624
0.5999708645
0.5999708657
0.5999708645
0.599970863
0.5999708605
0.5999708578
0.5999708567
0.5999708581
0.5999708608
0.5999708633
0.5999708647
0.5999708632
0.5999708615
0.5999708587
0.5999708558
0.5999708547
0.5999708561
0.5999708591
0.5999708619
0.5999708636
0.5999708618
0.5999708599
0.5999708568
0.5999708538
0.5999708526
0.5999708542
0.5999708573
0.5999708604
0.5999708623
0.5999708603
0.5999708582
0.5999708549
0.5999708518
0.5999708507
0.5999708522
0.5999708555
0.5999708588
0.5999708608
0.5999708587
0.5999708565
0.5999708531
0.5999708499
0.5999708488
0.5999708503
0.5999708537
0.5999708572
0.5999708593
0.5999708569
0.5999708547
0.5999708512
0.599970848
0.5999708469
0.5999708485
0.5999708519
0.5999708554
0.5999708577
0.5999708552
0.5999708528
0.5999708494
0.5999708462
0.5999708452
0.5999708467
0.5999708501
0.5999708537
0.5999708561
0.5999708534
0.5999708511
0.5999708476
0.5999708446
0.5999708435
0.5999708451
0.5999708485
0.5999708521
0.5999708544
0.599970852
0.5999708497
0.5999708463
0.5999708433
0.5999708423
0.5999708439
0.5999708472
0.5999708508
0.5999708532
)
;
    }
    side-walls
    {
        type            calculated;
        value           nonuniform List<scalar> 
261
(
0.599970868
0.5999708676
0.599970867
0.5999708661
0.5999708657
0.5999708662
0.599970867
0.5999708677
0.599970868
0.5999708676
0.5999708671
0.5999708661
0.5999708649
0.5999708642
0.5999708649
0.5999708661
0.5999708671
0.5999708676
0.5999708671
0.5999708664
0.599970865
0.5999708633
0.5999708625
0.5999708634
0.599970865
0.5999708664
0.5999708671
0.5999708664
0.5999708654
0.5999708636
0.5999708615
0.5999708605
0.5999708616
0.5999708637
0.5999708655
0.5999708664
0.5999708655
0.5999708643
0.599970862
0.5999708596
0.5999708585
0.5999708597
0.5999708622
0.5999708644
0.5999708656
0.5999708645
0.5999708629
0.5999708604
0.5999708577
0.5999708565
0.5999708578
0.5999708605
0.5999708631
0.5999708646
0.5999708632
0.5999708615
0.5999708586
0.5999708556
0.5999708544
0.5999708558
0.5999708588
0.5999708617
0.5999708634
0.5999708618
0.5999708599
0.5999708567
0.5999708536
0.5999708524
0.5999708539
0.599970857
0.5999708602
0.5999708621
0.5999708603
0.5999708582
0.5999708548
0.5999708517
0.5999708504
0.5999708519
0.5999708552
0.5999708586
0.5999708606
0.5999708587
0.5999708564
0.599970853
0.5999708497
0.5999708485
0.59997085
0.5999708534
0.5999708569
0.5999708591
0.5999708569
0.5999708546
0.5999708511
0.5999708479
0.5999708466
0.5999708482
0.5999708516
0.5999708552
0.5999708574
0.5999708552
0.5999708528
0.5999708493
0.5999708461
0.5999708449
0.5999708464
0.5999708498
0.5999708534
0.5999708558
0.5999708534
0.5999708511
0.5999708475
0.5999708444
0.5999708433
0.5999708448
0.5999708482
0.5999708518
0.5999708542
0.599970852
0.5999708497
0.5999708462
0.5999708432
0.5999708421
0.5999708436
0.5999708469
0.5999708505
0.5999708529
0.5999708683
0.5999708681
0.5999708677
0.5999708672
0.5999708669
0.5999708673
0.5999708677
0.5999708681
0.5999708683
0.5999708681
0.5999708677
0.5999708671
0.5999708664
0.5999708659
0.5999708664
0.5999708672
0.5999708677
0.599970868
0.5999708677
0.5999708672
0.5999708663
0.5999708652
0.5999708646
0.5999708653
0.5999708664
0.5999708672
0.5999708677
0.5999708672
0.5999708665
0.5999708653
0.5999708638
0.5999708631
0.599970864
0.5999708654
0.5999708666
0.5999708672
0.5999708665
0.5999708656
0.599970864
0.5999708623
0.5999708615
0.5999708625
0.5999708642
0.5999708658
0.5999708666
0.5999708657
0.5999708646
0.5999708626
0.5999708606
0.5999708597
0.5999708608
0.5999708629
0.5999708648
0.5999708658
0.5999708647
0.5999708634
0.5999708611
0.5999708588
0.5999708579
0.5999708591
0.5999708615
0.5999708637
0.599970865
0.5999708636
0.599970862
0.5999708595
0.599970857
0.5999708561
0.5999708574
0.59997086
0.5999708624
0.5999708639
0.5999708623
0.5999708606
0.5999708578
0.5999708552
0.5999708543
0.5999708557
0.5999708584
0.5999708611
0.5999708628
0.5999708608
0.599970859
0.5999708561
0.5999708534
0.5999708525
0.5999708539
0.5999708568
0.5999708597
0.5999708615
0.5999708593
0.5999708574
0.5999708544
0.5999708517
0.5999708507
0.5999708522
0.5999708552
0.5999708582
0.5999708601
0.5999708577
0.5999708557
0.5999708526
0.5999708499
0.599970849
0.5999708505
0.5999708535
0.5999708566
0.5999708587
0.5999708561
0.599970854
0.5999708509
0.5999708483
0.5999708474
0.5999708489
0.5999708519
0.599970855
0.5999708572
0.5999708544
0.5999708524
0.5999708493
0.5999708467
0.5999708459
0.5999708474
0.5999708504
0.5999708535
0.5999708557
0.5999708532
0.5999708511
0.5999708481
0.5999708456
0.5999708448
0.5999708462
0.5999708492
0.5999708524
0.5999708546
)
;
    }
    inlet
    {
        type            calculated;
        value           nonuniform 0();
    }
    outlet
    {
        type            calculated;
        value           nonuniform List<scalar> 
81
(
0.599970852
0.5999708497
0.5999708462
0.5999708432
0.5999708421
0.5999708436
0.5999708469
0.5999708505
0.5999708529
0.5999708497
0.5999708468
0.5999708426
0.5999708388
0.5999708375
0.5999708394
0.5999708435
0.5999708479
0.5999708508
0.5999708463
0.5999708426
0.5999708372
0.5999708323
0.5999708306
0.5999708331
0.5999708384
0.599970844
0.5999708478
0.5999708433
0.599970839
0.5999708324
0.5999708266
0.5999708246
0.5999708276
0.5999708341
0.5999708408
0.5999708452
0.5999708423
0.5999708377
0.5999708308
0.5999708247
0.5999708227
0.5999708259
0.5999708327
0.5999708398
0.5999708445
0.5999708439
0.5999708397
0.5999708334
0.5999708279
0.5999708261
0.5999708291
0.5999708353
0.5999708417
0.599970846
0.5999708472
0.5999708438
0.5999708388
0.5999708344
0.599970833
0.5999708354
0.5999708404
0.5999708456
0.5999708491
0.5999708508
0.5999708482
0.5999708444
0.5999708411
0.5999708401
0.5999708419
0.5999708457
0.5999708496
0.5999708523
0.5999708532
0.5999708511
0.5999708481
0.5999708456
0.5999708448
0.5999708462
0.5999708492
0.5999708524
0.5999708546
)
;
    }
    procBoundary1to0
    {
        type            processor;
        value           nonuniform List<scalar> 
97
(
0.5999708683
0.5999708683
0.5999708681
0.5999708678
0.5999708674
0.5999708671
0.5999708674
0.5999708678
0.5999708681
0.5999708683
0.5999708684
0.5999708677
0.5999708677
0.5999708677
0.5999708669
0.5999708658
0.5999708651
0.5999708659
0.599970867
0.5999708678
0.5999708681
0.5999708682
0.5999708678
0.5999708643
0.5999708643
0.5999708643
0.5999708609
0.5999708586
0.5999708617
0.5999708651
0.599970867
0.5999708678
0.599970868
0.5999708672
0.5999708652
0.5999708464
0.5999708464
0.5999708464
0.5999708407
0.5999708521
0.5999708617
0.5999708659
0.5999708674
0.5999708678
0.5999708667
0.5999708631
0.599970854
0.599970803
0.599970803
0.599970803
0.5999708395
0.5999708395
0.5999708583
0.599970865
0.5999708671
0.599970868
0.5999708672
0.5999708649
0.5999708596
0.5999708529
0.5999708604
0.5999708597
0.5999708597
0.5999708597
0.5999708656
0.5999708673
0.5999708682
0.5999708678
0.5999708667
0.5999708648
0.599970863
0.599970865
0.5999708668
0.5999708667
0.5999708667
0.5999708667
0.5999708677
0.5999708684
0.5999708682
0.5999708678
0.5999708672
0.5999708667
0.5999708672
0.5999708678
0.5999708682
0.5999708681
0.5999708681
0.5999708681
0.5999708684
0.5999708684
0.5999708682
0.599970868
0.5999708678
0.599970868
0.5999708682
0.5999708684
0.5999708685
)
;
    }
}


// ************************************************************************* //
