/*--------------------------------*- C++ -*----------------------------------*\
| =========                 |                                                 |
| \\      /  F ield         | OpenFOAM: The Open Source CFD Toolbox           |
|  \\    /   O peration     | Version:  4.x                                   |
|   \\  /    A nd           | Web:      www.OpenFOAM.org                      |
|    \\/     M anipulation  |                                                 |
\*---------------------------------------------------------------------------*/
FoamFile
{
    version     2.0;
    format      ascii;
    class       volScalarField;
    location    "1";
    object      ddtVoidfraction;
}
// * * * * * * * * * * * * * * * * * * * * * * * * * * * * * * * * * * * * * //

dimensions      [0 0 -1 0 0 0 0];

internalField   nonuniform List<scalar> 
960
(
9.81022e-05
1.56062e-05
-6.14692e-05
-0.000224211
-0.000429137
0.000421539
0.000200992
-3.2811e-05
2.39796e-05
-5.66981e-05
-0.000261413
-0.00104739
-0.00277475
0.00275886
0.000980642
-8.10652e-05
-4.21687e-05
-0.000171289
-0.000664861
-0.00340926
-0.0140149
0.0139788
0.00323593
-0.000399399
-7.97022e-05
-0.000199256
-0.000351536
-0.00108141
-0.00278851
0.00272898
0.000799141
-0.00168915
-4.48021e-05
-9.35575e-05
-0.000123788
-0.000250234
-0.000451139
0.000354447
0.000208082
0.00189929
-1.65377e-05
-3.12714e-05
-3.88217e-05
-7.29639e-05
-0.000188203
-0.000526394
-0.00179654
0.000395432
-5.11361e-06
-9.84903e-06
-2.1149e-05
-9.76301e-05
-0.000605255
-0.00368373
-0.0179961
-0.0035986
-1.66132e-06
-5.03283e-06
-2.75394e-05
-0.000220755
-0.00191769
-0.017158
-0.169657
-0.0192096
0.000626253
0.000136629
-0.000104516
-0.000538482
-0.00145728
0.001446
0.000520134
7.30003e-05
0.000165501
-0.000148703
-0.000657709
-0.00339652
-0.0146167
0.0145951
0.00333073
0.00042626
-0.000190867
-0.000701611
-0.00220281
-0.0166476
-0.152705
0.15265
0.0164556
0.00146782
-0.000484111
-0.00129487
-0.00132996
-0.00360697
-0.0146641
0.0145834
0.00328533
-7.24602e-05
-0.000236588
-0.00052933
-0.00046373
-0.000655796
-0.00146237
0.00148839
0.00074977
0.000837928
-7.41774e-05
-0.000146015
-0.000122677
-0.000108678
-9.00275e-05
0.000526268
0.00154309
0.000834001
-1.84613e-05
-3.26562e-05
-2.29378e-05
2.4005e-05
0.000348508
0.00264491
0.0145938
0.00297902
-3.83487e-06
-5.49601e-06
6.86969e-06
0.000126989
0.00133661
0.0137113
0.153397
0.0158292
0.0042664
0.000862181
4.19709e-05
-0.000192258
-0.000373005
0.000360424
0.000176449
3.31303e-05
0.000998675
-0.000449595
-0.000637335
-0.00105545
-0.00250358
0.00244332
0.000869638
0.000151707
-0.00104639
-0.00352438
-0.00264414
-0.00364769
-0.0130491
0.0128549
0.00295042
0.000398468
-0.00337611
-0.0112111
-0.00631436
-0.00247676
-0.00277606
0.00239865
0.000858225
4.76728e-05
-0.00134941
-0.00355038
-0.00220666
-0.000855363
-0.000512473
0.000362598
0.000266029
0.000243212
-0.000351954
-0.000780952
-0.000525849
-0.000211312
-5.60427e-05
0.000215902
0.000518494
0.000311642
-7.43808e-05
-0.000145231
-0.000100919
-1.79561e-05
0.000155183
0.000868364
0.00299312
0.000942783
-1.4058e-05
-2.38781e-05
-1.04548e-05
5.62117e-05
0.000456317
0.00293008
0.0146575
0.00302536
0.0259053
0.0039363
0.000321111
-6.80198e-05
-8.39325e-05
5.73006e-05
3.83615e-05
8.43889e-06
0.00434816
-0.00239342
-0.00198853
-0.000786185
-0.000463754
0.000289663
0.000152472
3.24381e-05
-0.0054645
-0.0223213
-0.012108
-0.00339427
-0.00168945
0.00102914
0.000396991
6.95008e-05
-0.0218692
-0.108424
-0.0501252
-0.00936691
-0.00171578
0.00012336
0.000131755
1.33802e-05
-0.00654662
-0.022568
-0.0120799
-0.00302951
-0.000626713
-2.12859e-05
4.96815e-05
5.40897e-05
-0.00134
-0.00361873
-0.00217571
-0.000668604
-0.000147485
2.79977e-05
0.000107232
7.74818e-05
-0.00023018
-0.000525721
-0.000345177
-0.00011568
1.1323e-05
0.00017174
0.000458057
0.000193085
-3.57517e-05
-7.24115e-05
-4.90742e-05
-3.25304e-06
9.07363e-05
0.000451594
0.00146805
0.000456439
0.104697
0.0105843
0.00063308
-4.95119e-05
-3.15395e-05
4.64356e-06
6.45904e-06
1.59576e-06
0.00445581
-0.00879925
-0.00518434
-0.00123428
-0.00024695
7.14467e-06
2.02091e-05
5.32045e-06
-0.0182324
-0.106857
-0.0479356
-0.00809861
-0.00119084
-3.17426e-05
3.71238e-05
9.03935e-06
-0.105356
-1.10151
-0.408146
-0.0388637
-0.00377575
-0.000323881
-1.02754e-05
9.53349e-08
-0.019878
-0.107156
-0.0479611
-0.00806097
-0.00109819
-0.000120985
-2.67388e-06
9.83692e-06
-0.00282091
-0.0105345
-0.00544649
-0.00124621
-0.000211901
-1.9521e-05
1.63918e-05
1.58896e-05
-0.000354482
-0.00104175
-0.000601383
-0.00016662
-2.54152e-05
2.50358e-05
6.37481e-05
3.37309e-05
-4.09819e-05
-0.000102871
-6.4426e-05
-1.75251e-05
1.25159e-05
6.26463e-05
0.000154378
6.39589e-05
-0.1356
-0.0155944
-0.0010942
7.75785e-05
5.00944e-05
1.49729e-05
4.14932e-06
7.24261e-07
-0.0100265
0.0116564
0.00764597
0.00204871
0.000412727
7.91811e-05
1.62524e-05
2.91374e-06
0.0249193
0.133151
0.0624445
0.0118365
0.00184589
0.000279778
4.48423e-05
6.88321e-06
0.131146
1.22245
0.465184
0.0499252
0.00552734
0.000637546
7.79753e-05
1.00949e-05
0.0280407
0.133839
0.0625736
0.0118697
0.00185995
0.00027222
4.09057e-05
7.44787e-06
0.00460187
0.0150975
0.00825606
0.00214917
0.000432837
7.89118e-05
1.65944e-05
5.51091e-06
0.000681742
0.00175212
0.00108173
0.000349838
8.71981e-05
2.33232e-05
1.32902e-05
6.97592e-06
9.5959e-05
0.000209035
0.000142991
5.54739e-05
1.84897e-05
1.33313e-05
1.9713e-05
1.00354e-05
0.000196066
0.000187766
0.000171395
5.99301e-05
7.25575e-05
7.71377e-05
1.2262e-05
1.66164e-05
1.25118e-05
1.75154e-06
4.63064e-07
-1.30326e-05
-1.24153e-07
-1.17925e-06
-1.01221e-05
-3.79836e-07
-9.62904e-07
-4.61629e-06
-2.49316e-07
-4.66973e-07
-1.89334e-06
-3.71847e-07
-2.67409e-07
-7.96054e-07
0.00122852
0.00123586
0.00128481
0.000304699
0.000403875
0.000491955
5.26366e-05
8.0305e-05
7.71528e-05
5.98772e-06
2.08808e-06
-6.8238e-05
6.63503e-08
-5.62781e-06
-4.66606e-05
-1.87254e-07
-2.77139e-06
-1.80062e-05
-9.10838e-08
-1.01114e-06
-5.68086e-06
1.80355e-08
-4.06901e-07
-1.68237e-06
0.00860115
0.00917655
0.0115574
0.00164738
0.00242709
0.00340548
0.000228557
0.000398267
0.000473248
2.16247e-05
3.30354e-06
-0.000389304
-3.33029e-07
-2.18578e-05
-0.000219452
-1.22658e-06
-9.95447e-06
-7.25292e-05
-5.77438e-07
-3.50312e-06
-2.02151e-05
-3.5285e-07
-1.37008e-06
-5.4397e-06
0.0591293
0.0673816
0.113536
0.00776272
0.0132536
0.0214746
0.000803142
0.00166647
0.00248148
6.04407e-05
-3.52122e-06
-0.00187662
-1.63778e-06
-6.72542e-05
-0.000823098
-2.56335e-06
-2.52376e-05
-0.00022207
-1.1455e-06
-7.61718e-06
-5.1675e-05
-5.32031e-07
-2.50661e-06
-1.21842e-05
0.393575
0.470666
1.22305
0.0255293
0.0591219
0.0974381
0.0015863
0.00456515
0.00957377
8.12429e-05
-3.02352e-05
-0.00562723
-1.97221e-06
-9.90092e-05
-0.0016917
-1.89826e-06
-2.74333e-05
-0.000337988
-6.48713e-07
-6.32251e-06
-5.99077e-05
-1.87157e-07
-1.59708e-06
-1.08294e-05
-0.462727
-0.548642
-1.34961
-0.0353063
-0.0752826
-0.122894
-0.00268367
-0.00672829
-0.0126261
-0.000171279
2.67926e-05
0.00797024
4.06082e-06
0.000195226
0.00278922
6.10102e-06
6.61703e-05
0.000654634
2.55594e-06
1.89958e-05
0.000138832
1.07941e-06
6.13458e-06
3.08868e-05
-7.20097e-07
-2.07847e-06
-1.14044e-05
-8.52299e-05
-0.000687312
-0.00565161
-0.0161244
0.000858087
-1.87352e-07
-5.34009e-07
-2.00268e-06
-1.28387e-05
-8.91091e-05
-0.000554511
-0.00182485
1.91976e-05
-2.53386e-07
-3.1703e-07
-5.20724e-07
-1.86124e-06
-1.07511e-05
-5.91403e-05
-0.000186908
9.99401e-05
-9.1339e-07
-5.47078e-07
4.23882e-06
4.7481e-05
0.000465689
0.00452016
0.0129796
-0.00156532
-1.01441e-07
-1.9755e-08
7.32559e-07
5.95728e-06
5.09294e-05
0.000376266
0.0013469
-2.98148e-05
1.08563e-07
7.55133e-08
1.9331e-07
6.23555e-07
4.98961e-06
3.33139e-05
0.000125314
5.79221e-05
-3.36015e-06
-3.1434e-06
1.4427e-06
2.53463e-05
0.000170407
0.000932835
0.00268358
0.00062837
-7.12217e-07
-3.94038e-07
4.52637e-07
4.34097e-06
2.7601e-05
0.000138452
0.000396638
0.000130307
-1.69367e-07
-2.01978e-08
5.06228e-08
6.39282e-07
3.97593e-06
1.93267e-05
5.90338e-05
4.16146e-05
-7.3306e-06
-8.66751e-06
-4.08021e-06
5.93657e-06
4.0075e-05
0.000168958
0.000415809
0.000171261
-1.18753e-06
-1.04456e-06
-2.10779e-07
1.50627e-06
8.20785e-06
3.35391e-05
8.31511e-05
4.58309e-05
-2.57801e-07
-1.05703e-07
1.84027e-08
3.09736e-07
1.47239e-06
6.13632e-06
1.65626e-05
1.53621e-05
-6.15971e-06
-8.86248e-06
-4.52718e-06
4.36808e-07
7.74811e-06
2.78e-05
5.88397e-05
3.18097e-05
-7.9669e-07
-6.48401e-07
-2.27428e-07
3.78974e-07
1.97697e-06
6.84534e-06
1.50382e-05
1.06697e-05
-5.33339e-08
-1.40299e-07
1.61916e-08
1.01405e-07
4.37009e-07
1.60913e-06
3.78446e-06
4.1098e-06
1.8205e-05
2.3052e-05
1.40827e-05
6.06848e-06
3.32137e-06
5.46762e-06
9.24798e-06
5.84481e-06
3.09517e-06
2.57891e-06
1.37733e-06
7.07494e-07
5.78531e-07
1.48831e-06
2.94156e-06
2.50964e-06
5.54893e-07
2.64064e-07
1.25427e-07
3.63834e-08
1.7724e-07
3.54989e-07
8.33109e-07
1.05259e-06
-0.000380852
-0.00101921
-0.00190609
-0.00170486
-0.00738935
-0.0219671
-0.00717556
-0.0521172
-0.262352
-0.0205957
-0.274432
-3.49391
0.0206193
0.274434
3.49391
0.00714229
0.052115
0.262349
0.0011343
0.00731259
0.0219554
-0.00203265
0.000690423
0.00185374
-0.000157627
-0.000433715
-0.000743374
-0.000652103
-0.00268305
-0.00676614
-0.00240835
-0.0148618
-0.058096
-0.00571059
-0.0556679
-0.393583
0.00579703
0.0556764
0.393583
0.00263524
0.0148826
0.0580937
0.00110894
0.00273445
0.00677328
0.0018723
0.000630071
0.000768558
-4.73175e-05
-0.000129717
-0.000206836
-0.000180042
-0.000692089
-0.00153489
-0.000584001
-0.00313685
-0.0100589
-0.00113737
-0.00883564
-0.0447195
0.00117998
0.00884114
0.0447203
0.000684309
0.00314785
0.0100616
0.000392422
0.000724925
0.00154043
0.000655128
0.000236847
0.00022691
-1.18368e-05
-3.17899e-05
-4.80304e-05
-4.17811e-05
-0.000148726
-0.000299243
-0.000119588
-0.000569919
-0.00157375
-0.000193754
-0.00127033
-0.00512474
0.000206595
0.00127237
0.00512511
0.00014735
0.000574106
0.0015747
9.78384e-05
0.000159857
0.000301504
0.000142952
6.21857e-05
5.52726e-05
-2.63934e-06
-6.95218e-06
-9.99846e-06
-8.81976e-06
-2.88098e-05
-5.35784e-05
-2.23018e-05
-9.51014e-05
-0.000233905
-3.04805e-05
-0.000173888
-0.000593246
3.34749e-05
0.000174479
0.000593375
2.83663e-05
9.63783e-05
0.000234177
2.06186e-05
3.16217e-05
5.43222e-05
2.6328e-05
1.37166e-05
1.19616e-05
-4.83947e-07
-1.54471e-06
-2.25496e-06
-1.74078e-06
-5.97694e-06
-1.04558e-05
-3.89174e-06
-1.71386e-05
-3.82451e-05
-4.33962e-06
-2.59822e-05
-7.719e-05
6.40603e-06
2.62568e-05
7.7237e-05
6.02504e-06
1.75394e-05
3.82287e-05
4.58361e-06
6.65983e-06
1.05331e-05
5.19584e-06
3.21638e-06
2.76828e-06
0.000267271
8.08115e-05
1.56406e-05
2.28168e-06
-1.53424e-07
-3.92862e-07
-9.7329e-06
-0.000131051
0.00017913
5.89115e-05
1.19683e-05
-5.22328e-07
-3.14326e-06
3.45117e-06
-5.86034e-06
-0.000100147
0.000128641
4.41172e-05
1.5478e-06
-2.51374e-05
-4.03661e-05
4.37179e-05
2.40127e-05
-5.53402e-05
0.00185627
0.000443731
7.05779e-05
8.96449e-06
6.56366e-07
6.26528e-07
-4.21936e-06
-6.01652e-05
0.00109687
0.000295206
5.37616e-05
4.46142e-06
-5.57421e-06
8.28716e-06
2.12715e-06
-4.57213e-05
0.000788295
0.000235761
3.5444e-05
-4.26407e-05
-9.69699e-05
0.00010945
6.07839e-05
-9.64874e-06
0.0148061
0.00263586
0.000327205
3.51377e-05
3.35839e-06
5.45782e-07
-1.43006e-06
-1.95566e-05
0.00727282
0.00151771
0.000230337
2.85937e-05
8.81458e-07
3.86298e-06
1.6002e-06
-1.4854e-05
0.00522688
0.00128119
0.00022241
1.24576e-05
-2.92697e-05
3.71161e-05
2.55086e-05
-3.19064e-07
0.121482
0.01406
0.00124616
0.00010327
8.38283e-06
7.8576e-07
-4.33633e-07
-5.15512e-06
0.0439975
0.0062857
0.000736952
7.85665e-05
7.46536e-06
1.73895e-06
6.12809e-07
-3.98966e-06
0.0313841
0.00592322
0.00083237
9.51088e-05
2.6928e-06
8.87886e-06
6.74628e-06
1.01566e-08
1.02819
0.0551592
0.0027325
0.000149682
8.23681e-06
4.58712e-07
-9.73022e-08
-1.3724e-06
0.208373
0.0123517
0.00108038
8.51964e-05
6.34995e-06
6.37283e-07
1.78604e-07
-7.75441e-07
0.137407
0.0207486
0.00185137
0.000155108
1.0915e-05
2.28795e-06
1.52476e-06
-8.95115e-09
-1.16661
-0.0723809
-0.00439265
-0.000300404
-2.19308e-05
-1.73473e-06
-1.88564e-07
-4.0708e-07
-0.260925
-0.0205121
-0.00211815
-0.000206871
-2.01679e-05
-1.88125e-06
-2.06785e-07
-3.23569e-07
-0.174942
-0.0282458
-0.00298181
-0.000303316
-2.88622e-05
-1.89756e-06
3.18287e-07
-3.39212e-08
)
;

boundaryField
{
    atmosphere
    {
        type            calculated;
        value           uniform 0;
    }
    walls
    {
        type            calculated;
        value           nonuniform List<scalar> 
351
(
9.81022e-05
2.39796e-05
-4.21687e-05
-7.97022e-05
-4.48021e-05
-1.65377e-05
-5.11361e-06
-1.66132e-06
1.56062e-05
-5.66981e-05
-0.000171289
-0.000199256
-9.35575e-05
-3.12714e-05
-9.84903e-06
-5.03283e-06
-6.14692e-05
-0.000261413
-0.000664861
-0.000351536
-0.000123788
-3.88217e-05
-2.1149e-05
-2.75394e-05
-0.000224211
-0.00104739
-0.00340926
-0.00108141
-0.000250234
-7.29639e-05
-9.76301e-05
-0.000220755
-0.000429137
-0.00277475
-0.0140149
-0.00278851
-0.000451139
-0.000188203
-0.000605255
-0.00191769
0.000421539
0.00275886
0.0139788
0.00272898
0.000354447
-0.000526394
-0.00368373
-0.017158
0.000200992
0.000980642
0.00323593
0.000799141
0.000208082
-0.00179654
-0.0179961
-0.169657
-3.2811e-05
-8.10652e-05
-0.000399399
-0.00168915
0.00189929
0.000395432
-0.0035986
-0.0192096
0.000196066
5.99301e-05
1.2262e-05
1.75154e-06
-1.24153e-07
-3.79836e-07
-2.49316e-07
-3.71847e-07
0.000187766
7.25575e-05
1.66164e-05
4.63064e-07
-1.17925e-06
-9.62904e-07
-4.66973e-07
-2.67409e-07
0.000171395
7.71377e-05
1.25118e-05
-1.30326e-05
-1.01221e-05
-4.61629e-06
-1.89334e-06
-7.96054e-07
-7.20097e-07
-1.87352e-07
-2.53386e-07
-2.07847e-06
-5.34009e-07
-3.1703e-07
-1.14044e-05
-2.00268e-06
-5.20724e-07
-8.52299e-05
-1.28387e-05
-1.86124e-06
-0.000687312
-8.91091e-05
-1.07511e-05
-0.00565161
-0.000554511
-5.91403e-05
-0.0161244
-0.00182485
-0.000186908
0.000858087
1.91976e-05
9.99401e-05
-0.000380852
-0.00170486
-0.00717556
-0.0205957
0.0206193
0.00714229
0.0011343
-0.00203265
-0.00101921
-0.00738935
-0.0521172
-0.274432
0.274434
0.052115
0.00731259
0.000690423
-0.00190609
-0.0219671
-0.262352
-3.49391
3.49391
0.262349
0.0219554
0.00185374
0.000267271
0.00017913
0.000128641
8.08115e-05
5.89115e-05
4.41172e-05
1.56406e-05
1.19683e-05
1.5478e-06
2.28168e-06
-5.22328e-07
-2.51374e-05
-1.53424e-07
-3.14326e-06
-4.03661e-05
-3.92862e-07
3.45117e-06
4.37179e-05
-9.7329e-06
-5.86034e-06
2.40127e-05
-0.000131051
-0.000100147
-5.53402e-05
0.000196066
5.99301e-05
1.2262e-05
1.75154e-06
-1.24153e-07
-3.79836e-07
-2.49316e-07
-3.71847e-07
0.00122852
0.000304699
5.26366e-05
5.98772e-06
6.63503e-08
-1.87254e-07
-9.10838e-08
1.80355e-08
0.00860115
0.00164738
0.000228557
2.16247e-05
-3.33029e-07
-1.22658e-06
-5.77438e-07
-3.5285e-07
0.0591293
0.00776272
0.000803142
6.04407e-05
-1.63778e-06
-2.56335e-06
-1.1455e-06
-5.32031e-07
0.393575
0.0255293
0.0015863
8.12429e-05
-1.97221e-06
-1.89826e-06
-6.48713e-07
-1.87157e-07
-0.462727
-0.0353063
-0.00268367
-0.000171279
4.06082e-06
6.10102e-06
2.55594e-06
1.07941e-06
-2.53386e-07
1.08563e-07
-1.69367e-07
-2.57801e-07
-5.33339e-08
5.54893e-07
-3.1703e-07
7.55133e-08
-2.01978e-08
-1.05703e-07
-1.40299e-07
2.64064e-07
-5.20724e-07
1.9331e-07
5.06228e-08
1.84027e-08
1.61916e-08
1.25427e-07
-1.86124e-06
6.23555e-07
6.39282e-07
3.09736e-07
1.01405e-07
3.63834e-08
-1.07511e-05
4.98961e-06
3.97593e-06
1.47239e-06
4.37009e-07
1.7724e-07
-5.91403e-05
3.33139e-05
1.93267e-05
6.13632e-06
1.60913e-06
3.54989e-07
-0.000186908
0.000125314
5.90338e-05
1.65626e-05
3.78446e-06
8.33109e-07
9.99401e-05
5.79221e-05
4.16146e-05
1.53621e-05
4.1098e-06
1.05259e-06
-0.00190609
-0.0219671
-0.262352
-3.49391
3.49391
0.262349
0.0219554
0.00185374
-0.000743374
-0.00676614
-0.058096
-0.393583
0.393583
0.0580937
0.00677328
0.000768558
-0.000206836
-0.00153489
-0.0100589
-0.0447195
0.0447203
0.0100616
0.00154043
0.00022691
-4.80304e-05
-0.000299243
-0.00157375
-0.00512474
0.0015747
0.000301504
5.52726e-05
-9.99846e-06
-5.35784e-05
-0.000233905
-0.000593246
0.000593375
0.000234177
5.43222e-05
1.19616e-05
-2.25496e-06
-1.04558e-05
-3.82451e-05
-7.719e-05
7.7237e-05
3.82287e-05
1.05331e-05
2.76828e-06
0.000267271
0.00185627
0.0148061
0.121482
1.02819
-1.16661
8.08115e-05
0.000443731
0.00263586
0.01406
0.0551592
-0.0723809
1.56406e-05
7.05779e-05
0.000327205
0.00124616
0.0027325
-0.00439265
2.28168e-06
8.96449e-06
3.51377e-05
0.00010327
0.000149682
-0.000300404
-1.53424e-07
6.56366e-07
3.35839e-06
8.38283e-06
8.23681e-06
-2.19308e-05
-3.92862e-07
6.26528e-07
5.45782e-07
7.8576e-07
4.58712e-07
-1.73473e-06
-9.7329e-06
-4.21936e-06
-1.43006e-06
-4.33633e-07
-9.73022e-08
-1.88564e-07
-0.000131051
-6.01652e-05
-1.95566e-05
-5.15512e-06
-1.3724e-06
-4.0708e-07
)
;
    }
    outlet
    {
        type            calculated;
        value           uniform 0.00512511;
    }
}


// ************************************************************************* //
