/*--------------------------------*- C++ -*----------------------------------*\
| =========                 |                                                 |
| \\      /  F ield         | OpenFOAM: The Open Source CFD Toolbox           |
|  \\    /   O peration     | Version:  4.x                                   |
|   \\  /    A nd           | Web:      www.OpenFOAM.org                      |
|    \\/     M anipulation  |                                                 |
\*---------------------------------------------------------------------------*/
FoamFile
{
    version     2.0;
    format      ascii;
    class       volScalarField;
    location    "1";
    object      nu;
}
// * * * * * * * * * * * * * * * * * * * * * * * * * * * * * * * * * * * * * //

dimensions      [0 2 -1 0 0 0 0];

internalField   nonuniform List<scalar> 
960
(
5.43036e-07
2.39689e-07
1.95917e-07
2.06548e-07
1.90344e-07
2.48992e-07
3.20681e-07
7.84153e-07
2.73704e-07
2.07329e-07
2.11688e-07
2.00483e-07
1.69213e-07
1.79483e-07
2.2863e-07
2.75586e-07
2.00248e-07
1.91956e-07
2.19059e-07
1.79041e-07
2.12241e-07
1.95095e-07
2.33029e-07
2.16596e-07
1.87888e-07
1.80989e-07
2.09084e-07
2.23257e-07
2.3029e-07
2.08567e-07
2.07869e-07
2.13403e-07
1.75039e-07
1.87865e-07
2.15907e-07
1.69554e-07
1.72365e-07
2.13784e-07
1.79223e-07
2.21218e-07
1.94015e-07
2.04715e-07
1.95614e-07
1.64447e-07
1.78754e-07
1.88196e-07
1.80696e-07
2.17613e-07
2.35755e-07
1.89605e-07
1.79873e-07
2.24627e-07
2.35364e-07
1.77938e-07
1.8248e-07
2.57581e-07
3.27772e-07
2.1632e-07
1.92492e-07
2.37426e-07
1.96652e-07
2.31648e-07
2.87325e-07
5.13234e-07
9.6716e-07
2.11571e-07
2.32328e-07
3.22399e-07
1.48752e-07
5.0089e-07
1.07233e-06
1.34893e-06
6.19343e-07
2.07873e-07
3.38269e-07
1.49536e-07
1.49758e-07
1.70928e-07
3.69221e-07
8.56902e-07
6.48037e-07
3.61352e-07
4.95511e-07
3.37823e-07
1.49887e-07
1.49351e-07
2.35893e-07
3.81907e-07
2.16498e-07
2.87447e-07
1.81943e-07
1.93843e-07
3.50009e-07
1.50169e-07
1.5022e-07
3.37234e-07
1.59746e-07
1.49829e-07
2.51423e-07
1.50051e-07
3.79396e-07
1.50088e-07
1.50016e-07
1.49803e-07
3.00724e-07
1.49969e-07
1.46742e-07
1.50013e-07
1.31288e-07
1.51137e-07
3.01139e-07
6.32081e-07
5.69428e-07
1.56247e-07
1.49746e-07
1.5e-07
1.43062e-07
1.502e-07
3.40715e-07
6.00941e-07
7.44326e-07
4.11426e-07
3.03359e-07
1.49378e-07
1.49607e-07
4.60982e-07
5.81436e-07
1.04085e-06
3.84702e-05
3.52457e-05
3.44578e-05
3.3638e-05
3.38422e-05
3.47779e-05
3.67373e-05
3.91104e-05
3.55691e-05
3.2856e-05
3.19274e-05
3.11584e-05
2.98167e-05
3.14814e-05
3.32378e-05
3.5869e-05
3.4015e-05
3.13502e-05
3.07936e-05
2.95722e-05
2.84802e-05
3.045e-05
3.20627e-05
3.36916e-05
3.25597e-05
3.06204e-05
2.91705e-05
2.82115e-05
2.828e-05
2.91587e-05
3.05258e-05
3.29664e-05
3.22751e-05
2.92568e-05
2.88447e-05
2.7756e-05
2.85395e-05
2.94973e-05
3.02338e-05
3.25015e-05
3.30579e-05
3.0604e-05
2.96331e-05
2.88057e-05
2.93798e-05
3.01979e-05
3.09981e-05
3.31639e-05
3.45049e-05
3.1823e-05
3.04199e-05
3.00746e-05
3.01597e-05
3.10004e-05
3.2175e-05
3.45512e-05
3.59847e-05
3.37161e-05
3.31654e-05
3.16058e-05
3.08547e-05
3.29627e-05
3.43289e-05
3.63168e-05
0.000143408
0.000143716
0.000143638
0.000143454
0.00014348
0.00014354
0.000143454
0.00014229
0.000143876
0.000143724
0.000142279
0.000141736
0.000141729
0.000142121
0.000143335
0.000143621
0.000143882
0.000141984
0.000140242
0.000139239
0.000139959
0.000140115
0.000142038
0.000144063
0.000143409
0.000141008
0.000139292
0.000137793
0.000138733
0.000139632
0.000141235
0.000143264
0.000143839
0.000141522
0.000139445
0.000138249
0.000138212
0.000139603
0.00014149
0.000143886
0.000143858
0.000142486
0.000140937
0.00014007
0.000139101
0.00014053
0.000142204
0.000143862
0.000143855
0.000143769
0.000142789
0.000142245
0.000141455
0.000142408
0.000143695
0.00014382
0.000143525
0.000144124
0.000144168
0.000144333
0.000144346
0.000144119
0.000143755
0.000143317
0.000121798
0.000120506
0.000118304
0.000117565
0.000118091
0.000119849
0.00012173
0.000122817
0.000120568
0.000117161
0.000114681
0.000113534
0.000113243
0.000115456
0.000118025
0.000121471
0.000119408
0.000115055
0.000111797
0.000110133
0.000109902
0.000112139
0.000115015
0.000119398
0.000118147
0.000114022
0.000109597
0.000107881
0.000109009
0.00011095
0.000113889
0.000118715
0.000119485
0.000114527
0.000109843
0.000108537
0.000108408
0.000110803
0.000114823
0.000119096
0.000121068
0.000116778
0.000112794
0.000111254
0.000110712
0.000113469
0.000116944
0.000120873
0.000122678
0.0001196
0.000116795
0.000115143
0.000114825
0.000117126
0.000120225
0.000123388
0.000124466
0.000122513
0.000120634
0.000119901
0.000119871
0.000121446
0.00012356
0.000125087
1.99942e-05
1.72979e-05
1.59479e-05
1.54243e-05
1.56257e-05
1.63783e-05
1.80236e-05
2.04523e-05
1.76812e-05
1.53119e-05
1.38872e-05
1.33964e-05
1.36104e-05
1.40832e-05
1.53581e-05
1.79106e-05
1.6354e-05
1.39444e-05
1.29524e-05
1.29393e-05
1.29869e-05
1.30238e-05
1.42057e-05
1.63751e-05
1.55869e-05
1.34975e-05
1.30011e-05
1.2957e-05
1.28755e-05
1.29951e-05
1.3688e-05
1.57245e-05
1.56517e-05
1.35293e-05
1.3024e-05
1.29359e-05
1.28982e-05
1.29329e-05
1.33107e-05
1.58782e-05
1.64888e-05
1.42566e-05
1.31536e-05
1.29923e-05
1.30027e-05
1.3001e-05
1.4361e-05
1.6829e-05
1.80007e-05
1.55596e-05
1.42269e-05
1.35616e-05
1.35166e-05
1.43361e-05
1.58065e-05
1.83264e-05
2.02799e-05
1.76156e-05
1.62353e-05
1.54739e-05
1.57265e-05
1.65559e-05
1.81586e-05
2.08011e-05
2.84602e-07
5.60973e-07
9.03232e-07
2.53109e-07
4.96809e-07
8.15013e-07
1.79406e-07
4.62746e-07
4.31459e-07
1.64047e-07
4.01541e-07
3.36006e-07
2.16495e-07
5.69191e-07
2.60284e-07
2.02998e-07
4.65031e-07
4.74621e-07
2.14912e-07
4.68652e-07
5.70631e-07
1.9645e-07
3.93184e-07
7.35583e-07
1.49251e-07
3.09089e-07
1.03386e-06
1.48389e-07
5.28581e-07
1.10829e-06
1.49862e-07
6.32445e-07
9.27558e-07
1.68416e-07
7.52739e-07
7.35449e-07
1.49569e-07
9.03673e-07
5.07177e-07
1.49916e-07
6.53097e-07
7.23459e-07
1.49772e-07
6.93637e-07
9.24943e-07
1.49674e-07
9.87959e-07
1.38544e-06
2.778e-05
3.47064e-05
3.7316e-05
2.99492e-05
3.58538e-05
3.78067e-05
3.25412e-05
3.68199e-05
3.68785e-05
3.29013e-05
3.64399e-05
3.52844e-05
3.13855e-05
3.6687e-05
3.48197e-05
3.19972e-05
3.56186e-05
3.52678e-05
3.08862e-05
3.49352e-05
3.57408e-05
3.01465e-05
3.40444e-05
3.52981e-05
0.00014631
0.000145012
0.000142654
0.000146024
0.000144036
0.000143016
0.000145797
0.000143875
0.000143861
0.000145546
0.000143886
0.0001438
0.000145584
0.000143968
0.000143973
0.000145592
0.000144265
0.000143828
0.000145553
0.000143977
0.000143407
0.000145835
0.000144488
0.000143224
0.000127845
0.000125694
0.000120935
0.000128055
0.00012562
0.000122658
0.00012732
0.000125435
0.000122799
0.000127268
0.000125827
0.000122819
0.000127767
0.000126129
0.000123389
0.000128416
0.000126596
0.000124263
0.000128679
0.000126904
0.000124898
0.000129148
0.000127552
0.000125858
2.66261e-05
2.49514e-05
2.34589e-05
2.66998e-05
2.43874e-05
2.12367e-05
2.70834e-05
2.43384e-05
2.0101e-05
2.72125e-05
2.41188e-05
1.93594e-05
2.7278e-05
2.40909e-05
1.9382e-05
2.78042e-05
2.47477e-05
2.03979e-05
2.79961e-05
2.55714e-05
2.17589e-05
2.79698e-05
2.62736e-05
2.33839e-05
6.24596e-07
4.97254e-07
4.60335e-07
3.10313e-07
2.63901e-07
4.75618e-07
6.50769e-07
7.10972e-07
3.19453e-07
4.7781e-07
4.93106e-07
4.31121e-07
4.57532e-07
5.95834e-07
4.123e-07
3.2111e-07
2.00184e-07
2.34263e-07
2.32237e-07
1.51175e-07
1.80039e-07
2.60284e-07
2.15874e-07
1.87422e-07
8.1016e-07
8.55866e-07
8.10682e-07
6.23176e-07
4.38806e-07
7.50267e-07
9.51052e-07
9.31666e-07
3.87993e-07
7.40915e-07
7.05282e-07
8.72448e-07
4.69688e-07
6.36285e-07
4.38364e-07
4.22836e-07
1.48754e-07
1.49892e-07
1.48989e-07
5.17084e-07
1.4987e-07
1.48456e-07
1.49212e-07
1.4882e-07
3.46844e-05
3.45655e-05
3.49277e-05
3.43188e-05
3.4338e-05
3.48565e-05
3.57001e-05
3.51675e-05
3.274e-05
3.35341e-05
3.51419e-05
3.60867e-05
3.57216e-05
3.53288e-05
3.46122e-05
3.44738e-05
2.85843e-05
2.97997e-05
3.10569e-05
3.30712e-05
3.16077e-05
2.99052e-05
2.95453e-05
3.07391e-05
0.000143206
0.000143837
0.000144038
0.000144253
0.000144317
0.000143447
0.000143064
0.000143216
0.000144754
0.000143832
0.000144124
0.000144095
0.000143703
0.000143505
0.000144196
0.000144732
0.000145835
0.000145141
0.000145463
0.00014524
0.000145166
0.000145399
0.000145876
0.000145936
0.000126102
0.000125458
0.000124363
0.00012417
0.00012437
0.000124889
0.000125676
0.000126308
0.000127963
0.000127214
0.00012693
0.000126854
0.000126675
0.000127214
0.000127673
0.000128079
0.000128923
0.000128739
0.00012869
0.000128584
0.000128682
0.000129461
0.000129504
0.000129249
2.27213e-05
2.05862e-05
1.94153e-05
1.86714e-05
1.90008e-05
1.99525e-05
2.15573e-05
2.34089e-05
2.54495e-05
2.42018e-05
2.37465e-05
2.33848e-05
2.37057e-05
2.42563e-05
2.53222e-05
2.63103e-05
2.74563e-05
2.69532e-05
2.70437e-05
2.67353e-05
2.70063e-05
2.7415e-05
2.82084e-05
2.82923e-05
9.87995e-07
5.10037e-07
2.46397e-07
6.58434e-07
4.49439e-07
2.20465e-07
3.69533e-07
6.06107e-07
1.94887e-07
3.17659e-07
5.8826e-07
2.23133e-07
2.94573e-07
4.88817e-07
1.89858e-07
4.58082e-07
4.24657e-07
1.87688e-07
5.16748e-07
4.01777e-07
2.02977e-07
7.13629e-07
3.7826e-07
2.01854e-07
1.21975e-06
4.65491e-07
1.48052e-07
9.21885e-07
3.99625e-07
1.49534e-07
8.84068e-07
1.03239e-06
3.7476e-07
7.31479e-07
1.03042e-06
4.45893e-07
4.26588e-07
6.9331e-07
1.8435e-07
7.30899e-07
3.91786e-07
1.29598e-07
7.93539e-07
5.36908e-07
1.492e-07
1.02677e-06
3.65852e-07
1.49232e-07
3.77133e-05
3.54154e-05
2.9025e-05
3.68828e-05
3.5503e-05
3.03342e-05
3.60002e-05
3.76093e-05
3.35939e-05
3.4792e-05
3.64705e-05
3.27219e-05
3.53412e-05
3.74762e-05
3.36901e-05
3.51708e-05
3.56364e-05
3.16012e-05
3.52957e-05
3.51221e-05
3.19506e-05
3.52462e-05
3.4348e-05
3.02134e-05
0.000142064
0.000144393
0.000146441
0.000142885
0.00014388
0.000145343
0.000144174
0.000143349
0.000145264
0.000144391
0.000143646
0.000144418
0.000144406
0.000144566
0.000145246
0.000143818
0.000143842
0.000144825
0.000143461
0.000144144
0.000144953
0.000142657
0.000143838
0.000145927
0.000123536
0.000125885
0.000127528
0.00012351
0.000125882
0.000127622
0.000122993
0.000125457
0.000127508
0.0001231
0.000125884
0.00012745
0.000123172
0.000126254
0.000127761
0.000124023
0.000126833
0.000128239
0.000125296
0.000127362
0.000128994
0.000125987
0.00012773
0.000129021
2.27486e-05
2.45922e-05
2.58802e-05
2.11114e-05
2.40454e-05
2.59794e-05
1.98469e-05
2.36979e-05
2.60173e-05
1.91249e-05
2.30927e-05
2.60128e-05
1.93765e-05
2.34351e-05
2.63818e-05
2.03044e-05
2.39503e-05
2.68686e-05
2.15671e-05
2.49024e-05
2.71628e-05
2.34941e-05
2.6169e-05
2.80274e-05
2.89322e-07
2.37993e-07
2.16454e-07
2.2511e-07
2.33346e-07
2.73639e-07
3.39827e-07
2.87976e-07
6.05011e-07
7.6891e-07
8.80558e-07
7.32375e-07
7.92439e-07
9.61184e-07
6.57434e-07
5.52109e-07
9.36163e-07
5.64977e-07
3.25287e-07
4.27964e-07
3.88455e-07
7.42221e-07
1.02026e-06
8.96664e-07
1.48121e-07
2.19799e-07
3.64278e-07
1.49641e-07
1.48869e-07
1.48826e-07
1.49828e-07
1.46997e-07
4.24868e-07
8.18527e-07
1.11987e-06
8.17777e-07
7.76267e-07
9.79334e-07
1.5615e-07
1.47557e-07
1.19527e-06
9.84511e-07
7.479e-07
8.74384e-07
8.87293e-07
1.24054e-06
1.08645e-06
7.61088e-07
2.92039e-05
3.21018e-05
3.28891e-05
3.288e-05
3.16407e-05
3.26271e-05
2.85742e-05
2.73751e-05
3.5605e-05
3.64314e-05
3.86791e-05
3.88075e-05
3.9157e-05
3.92169e-05
3.67203e-05
3.44324e-05
3.79756e-05
3.81842e-05
3.71233e-05
3.69096e-05
3.71095e-05
3.79048e-05
3.86984e-05
3.78169e-05
0.000146257
0.000145218
0.000145058
0.000145035
0.000144989
0.000145721
0.000146431
0.000146405
0.000144039
0.00014306
0.000142724
0.000143212
0.000142793
0.000143044
0.000144474
0.000145362
0.000142133
0.000143282
0.000143582
0.000143522
0.000143504
0.000143158
0.000142197
0.000142316
0.000125831
0.000126502
0.000125965
0.000125947
0.000125828
0.000126236
0.000127388
0.00012774
0.000125108
0.000124273
0.000123469
0.000123964
0.000123623
0.000123989
0.000125346
0.000126587
0.000121992
0.000122085
0.000121386
0.000121399
0.000121422
0.000121667
0.000122529
0.000123642
2.64982e-05
2.52473e-05
2.50841e-05
2.51605e-05
2.55655e-05
2.59153e-05
2.61509e-05
2.65229e-05
2.4618e-05
2.37275e-05
2.33468e-05
2.28366e-05
2.30805e-05
2.37932e-05
2.41847e-05
2.47334e-05
2.25463e-05
2.06609e-05
1.95126e-05
1.87824e-05
1.89764e-05
2.00507e-05
2.13745e-05
2.28436e-05
)
;

boundaryField
{
    atmosphere
    {
        type            calculated;
        value           uniform 1.3e-05;
    }
    walls
    {
        type            calculated;
        value           nonuniform List<scalar> 
351
(
5.43036e-07
2.73704e-07
2.00248e-07
1.87888e-07
1.75039e-07
1.94015e-07
2.35755e-07
3.27772e-07
2.39689e-07
2.07329e-07
1.91956e-07
1.80989e-07
1.87865e-07
2.04715e-07
1.89605e-07
2.1632e-07
1.95917e-07
2.11688e-07
2.19059e-07
2.09084e-07
2.15907e-07
1.95614e-07
1.79873e-07
1.92492e-07
2.06548e-07
2.00483e-07
1.79041e-07
2.23257e-07
1.69554e-07
1.64447e-07
2.24627e-07
2.37426e-07
1.90344e-07
1.69213e-07
2.12241e-07
2.3029e-07
1.72365e-07
1.78754e-07
2.35364e-07
1.96652e-07
2.48992e-07
1.79483e-07
1.95095e-07
2.08567e-07
2.13784e-07
1.88196e-07
1.77938e-07
2.31648e-07
3.20681e-07
2.2863e-07
2.33029e-07
2.07869e-07
1.79223e-07
1.80696e-07
1.8248e-07
2.87325e-07
7.84153e-07
2.75586e-07
2.16596e-07
2.13403e-07
2.21218e-07
2.17613e-07
2.57581e-07
5.13234e-07
2.84602e-07
2.53109e-07
1.79406e-07
1.64047e-07
2.16495e-07
2.02998e-07
2.14912e-07
1.9645e-07
5.60973e-07
4.96809e-07
4.62746e-07
4.01541e-07
5.69191e-07
4.65031e-07
4.68652e-07
3.93184e-07
9.03232e-07
8.15013e-07
4.31459e-07
3.36006e-07
2.60284e-07
4.74621e-07
5.70631e-07
7.35583e-07
6.24596e-07
3.19453e-07
2.00184e-07
4.97254e-07
4.7781e-07
2.34263e-07
4.60335e-07
4.93106e-07
2.32237e-07
3.10313e-07
4.31121e-07
1.51175e-07
2.63901e-07
4.57532e-07
1.80039e-07
4.75618e-07
5.95834e-07
2.60284e-07
6.50769e-07
4.123e-07
2.15874e-07
7.10972e-07
3.2111e-07
1.87422e-07
9.87995e-07
6.58434e-07
3.69533e-07
3.17659e-07
2.94573e-07
4.58082e-07
5.16748e-07
7.13629e-07
5.10037e-07
4.49439e-07
6.06107e-07
5.8826e-07
4.88817e-07
4.24657e-07
4.01777e-07
3.7826e-07
2.46397e-07
2.20465e-07
1.94887e-07
2.23133e-07
1.89858e-07
1.87688e-07
2.02977e-07
2.01854e-07
2.89322e-07
6.05011e-07
9.36163e-07
2.37993e-07
7.6891e-07
5.64977e-07
2.16454e-07
8.80558e-07
3.25287e-07
2.2511e-07
7.32375e-07
4.27964e-07
2.33346e-07
7.92439e-07
3.88455e-07
2.73639e-07
9.61184e-07
7.42221e-07
3.39827e-07
6.57434e-07
1.02026e-06
2.87976e-07
5.52109e-07
8.96664e-07
2.84602e-07
2.53109e-07
1.79406e-07
1.64047e-07
2.16495e-07
2.02998e-07
2.14912e-07
1.9645e-07
1.49251e-07
1.48389e-07
1.49862e-07
1.68416e-07
1.49569e-07
1.49916e-07
1.49772e-07
1.49674e-07
2.778e-05
2.99492e-05
3.25412e-05
3.29013e-05
3.13855e-05
3.19972e-05
3.08862e-05
3.01465e-05
0.00014631
0.000146024
0.000145797
0.000145546
0.000145584
0.000145592
0.000145553
0.000145835
0.000127845
0.000128055
0.00012732
0.000127268
0.000127767
0.000128416
0.000128679
0.000129148
2.66261e-05
2.66998e-05
2.70834e-05
2.72125e-05
2.7278e-05
2.78042e-05
2.79961e-05
2.79698e-05
2.00184e-07
1.48754e-07
2.85843e-05
0.000145835
0.000128923
2.74563e-05
2.34263e-07
1.49892e-07
2.97997e-05
0.000145141
0.000128739
2.69532e-05
2.32237e-07
1.48989e-07
3.10569e-05
0.000145463
0.00012869
2.70437e-05
1.51175e-07
5.17084e-07
3.30712e-05
0.00014524
0.000128584
2.67353e-05
1.80039e-07
1.4987e-07
3.16077e-05
0.000145166
0.000128682
2.70063e-05
2.60284e-07
1.48456e-07
2.99052e-05
0.000145399
0.000129461
2.7415e-05
2.15874e-07
1.49212e-07
2.95453e-05
0.000145876
0.000129504
2.82084e-05
1.87422e-07
1.4882e-07
3.07391e-05
0.000145936
0.000129249
2.82923e-05
2.46397e-07
2.20465e-07
1.94887e-07
2.23133e-07
1.89858e-07
1.87688e-07
2.02977e-07
2.01854e-07
1.48052e-07
1.49534e-07
3.7476e-07
4.45893e-07
1.8435e-07
1.29598e-07
1.492e-07
1.49232e-07
2.9025e-05
3.03342e-05
3.35939e-05
3.27219e-05
3.36901e-05
3.16012e-05
3.19506e-05
3.02134e-05
0.000146441
0.000145343
0.000145264
0.000144418
0.000144825
0.000144953
0.000145927
0.000127528
0.000127622
0.000127508
0.00012745
0.000127761
0.000128239
0.000128994
0.000129021
2.58802e-05
2.59794e-05
2.60173e-05
2.60128e-05
2.63818e-05
2.68686e-05
2.71628e-05
2.80274e-05
2.89322e-07
1.48121e-07
2.92039e-05
0.000146257
0.000125831
2.64982e-05
2.37993e-07
2.19799e-07
3.21018e-05
0.000145218
0.000126502
2.52473e-05
2.16454e-07
3.64278e-07
3.28891e-05
0.000145058
0.000125965
2.50841e-05
2.2511e-07
1.49641e-07
3.288e-05
0.000145035
0.000125947
2.51605e-05
2.33346e-07
1.48869e-07
3.16407e-05
0.000144989
0.000125828
2.55655e-05
2.73639e-07
1.48826e-07
3.26271e-05
0.000145721
0.000126236
2.59153e-05
3.39827e-07
1.49828e-07
2.85742e-05
0.000146431
0.000127388
2.61509e-05
2.87976e-07
1.46997e-07
2.73751e-05
0.000146405
0.00012774
2.65229e-05
)
;
    }
    outlet
    {
        type            calculated;
        value           uniform 0.000145246;
    }
}


// ************************************************************************* //
