/*--------------------------------*- C++ -*----------------------------------*\
| =========                 |                                                 |
| \\      /  F ield         | OpenFOAM: The Open Source CFD Toolbox           |
|  \\    /   O peration     | Version:  4.x                                   |
|   \\  /    A nd           | Web:      www.OpenFOAM.org                      |
|    \\/     M anipulation  |                                                 |
\*---------------------------------------------------------------------------*/
FoamFile
{
    version     2.0;
    format      ascii;
    class       volScalarField;
    location    "1";
    object      p;
}
// * * * * * * * * * * * * * * * * * * * * * * * * * * * * * * * * * * * * * //

dimensions      [1 -1 -2 0 0 0 0];

internalField   nonuniform List<scalar> 
960
(
2716.09
2715.47
2719.27
2721.75
2724.72
2731.86
2746.82
2772.12
2720.01
2719.05
2721.16
2720.75
2725.03
2728.05
2745.84
2777.95
2721.39
2722.14
2722.02
2722.08
2726.04
2722.17
2737.82
2764.79
2724.31
2724.27
2722.56
2722.45
2722.88
2720.09
2724.81
2735.25
2723.29
2723.95
2723.02
2722.16
2721.33
2714.75
2705.64
2689.83
2723.86
2724.45
2724.06
2722.28
2719.11
2709.74
2693.37
2660.96
2727.68
2727.42
2726.43
2724.45
2720.28
2712.03
2692.61
2657.55
2729.94
2727.68
2725.68
2722.95
2717.21
2711.62
2690.65
2663.21
1835.6
1838.77
1841.55
1848.51
1849.71
1850.98
1863.32
1887.87
1840.55
1843.76
1847.08
1851.46
1853.5
1847.26
1860.12
1886.79
1843.32
1846.18
1849.17
1853.72
1863.54
1832.88
1851.53
1875.22
1848.13
1851.63
1851.7
1851.68
1852.59
1842.6
1846.25
1853.98
1849.2
1851.01
1850.53
1851.06
1847.63
1840.1
1834.1
1821.43
1849.68
1851.13
1850.03
1848.84
1845.65
1837.4
1825.38
1797.29
1850.83
1850.59
1850.3
1848.46
1843.94
1833.48
1813.51
1789.19
1849.06
1849.13
1848.49
1845.29
1842.1
1828.1
1799.19
1789.83
1019.36
1019.87
1020.11
1022.4
1024.13
1024.74
1032.51
1051.95
1021.29
1020.86
1019.85
1019.87
1019.64
1015.89
1020.27
1043.62
1024.27
1025.1
1021.85
1020.09
1018.56
1010.98
1017.02
1036.2
1027.76
1028.21
1023.75
1020.59
1017.97
1014.17
1016.47
1025.69
1028.57
1024.81
1019.86
1018.7
1016.48
1012.41
1009.53
1008.84
1029.81
1026
1022.39
1019.37
1017.32
1012.93
1007.54
998.07
1032.21
1027.09
1024.36
1021.34
1018.7
1014.55
1008.2
994.609
1035.38
1029.88
1026.41
1023.42
1020.92
1017.32
1019.12
1000.66
460.735
461.544
458.458
459.317
458.758
460.106
465.632
479.724
463.151
459.703
455.42
452.814
451.705
450.761
454.049
470.704
465.394
460.904
453.724
447.999
445.18
445.678
451.907
466.224
467.283
466.191
455.903
447.163
444.715
446.067
450.839
462.459
467.077
461.779
455.513
447.319
445.364
445.113
445.648
455.768
468.351
462.023
455.586
450.516
449.581
450.349
452.735
454.849
471.662
464.946
460.194
456.368
455.062
456.057
456.733
456.534
476.821
470.874
466.679
463.633
462.049
461.996
463.86
462.71
148.04
143.844
138.642
136.361
137.205
141.321
147.749
155.537
145.094
135.643
128.603
125.633
125.822
130.373
138.782
147.706
141.376
130.367
121.664
119.138
119.375
122.332
129.998
141.13
139.413
133.622
120.807
116.343
116.5
120.858
127.244
138.665
139.444
128.492
120.206
116.406
116.161
120.113
127.43
139.02
143.234
132.35
124.236
121.674
121.396
124.486
132.681
143.411
149.1
139.156
132.06
128.416
128.605
132.698
140.049
149.01
156.825
148.035
142.306
139.154
139.853
143.502
149.514
156.969
6.49836
3.92746
2.43219
1.82076
2.03194
2.96912
4.77995
7.28399
4.24836
1.81668
0.220834
-0.34174
-0.149315
0.386105
2.16376
4.67211
2.86503
0.343293
-0.88442
-1.03187
-0.97707
-0.833548
0.499567
2.93896
2.34089
0.281322
-0.863223
-1.08454
-1.16495
-0.976522
-0.05138
2.147
2.17508
-0.146352
-0.918758
-1.11396
-1.15995
-1.0585
-0.404958
2.20703
3.08571
0.590473
-0.686572
-0.968918
-0.976218
-0.866845
0.584919
3.22881
4.61913
2.10162
0.53977
-0.17257
-0.208379
0.55558
2.21175
4.9275
7.0517
4.36622
2.87715
1.98025
2.1634
3.02327
4.81262
7.60084
2710.05
2705.38
2713.25
2719.69
2717.42
2721.93
2720.44
2718.46
2723.35
2723.98
2724.18
2725.06
2726
2723.33
2725.84
2727.87
2725.39
2727.73
2730.58
2729.51
2731.22
2735.22
2733.2
2734.05
1847.36
1839.19
1843.35
1838.92
1839.8
1834.87
1847.01
1841.68
1840.11
1849.41
1840.45
1843.37
1848.45
1847.15
1849.92
1858.94
1847.17
1850.58
1851.23
1855.46
1858.5
1859.25
1855.38
1858.79
1022.57
1020.43
1019.63
1032.03
1028.18
1022.96
1038.93
1034.86
1026.08
1040.42
1034.78
1028.63
1044.51
1040.64
1032.48
1048.49
1041.22
1035.94
1046.67
1045.74
1040.43
1049.47
1047.14
1042.8
452.097
455.144
455.313
472.668
469.932
465.821
480.518
477.253
470.138
482.582
479.042
471.941
486.047
482.772
474.118
488.099
483.971
477.077
487.415
486.217
480.223
487.569
486.472
483.062
149.731
148.629
134.227
169.955
162.655
152.379
173.829
165.989
153.47
174.91
166.449
152.32
175.157
167.584
153.211
177.225
169.622
156.75
178.305
171.823
160.964
178.405
173.713
165.847
14.1879
12.7558
10.6727
15.0292
12.1396
8.11982
15.5711
11.8908
6.85102
15.6358
11.5963
6.22016
15.8954
11.7234
6.23343
16.4297
12.516
7.36867
16.6921
13.4262
8.77643
16.7157
14.3643
10.8176
2732.36
2732.4
2726.21
2722.94
2719.22
2712.58
2693.58
2669.53
2732.8
2734.51
2730.1
2725.98
2717.33
2708.99
2685.46
2661.85
2738.87
2739.21
2732.9
2727.11
2717.58
2707.82
2692.46
2660.71
1851.19
1848.08
1846.33
1843.42
1844.89
1838.72
1820.71
1801.12
1860.06
1857.83
1850.57
1843.92
1843.43
1831.82
1816.76
1793.95
1873.67
1857.47
1866.47
1852.22
1842.13
1829.91
1833.93
1791.62
1041.62
1035.93
1032.43
1029.39
1027.47
1024.79
1020.31
1008.33
1048.18
1045.3
1041.49
1037.03
1034.52
1031
1024.57
1011.53
1053.61
1049.19
1050.04
1044.07
1038.68
1034.97
1031.96
1013.2
482.29
478.368
475.454
473.539
471.914
471.615
471.333
468.173
485.926
484.247
483.393
482.304
481.016
479.387
476.941
471.261
487.616
487.524
487.396
486.469
484.34
482.418
480.24
473.004
164.438
158.512
154.715
152.353
152.91
155.527
160.171
164.601
172.235
168.862
167.769
166.745
167.187
168.451
170.498
171.977
176.715
175.428
175.485
175.465
175.52
176.599
177.432
176.182
10.2744
7.82146
6.51087
5.69483
5.84353
6.86418
8.72091
10.8238
13.4578
11.8768
11.1924
10.7186
10.9533
11.7801
13.0707
14.1456
15.9812
15.1866
15.1858
14.8306
15.1973
15.7575
16.4964
16.5536
2813.81
2828.01
2832.21
2835.67
2897.6
2936.63
2831.94
2977.13
3182.28
2773.13
2946.09
3458.07
2653.06
2449.08
1936.86
2595.22
2436.27
2242.4
2602.88
2534.37
2496.53
2629.96
2609.5
2609.03
1920.13
1930.34
1934.93
1937.87
1982.68
2032.39
1930.4
2032.06
2151.6
1880.44
1982.01
2168.9
1787.32
1659.34
1448.49
1740.21
1624.75
1497.2
1740.55
1686.97
1654.75
1765.26
1753.67
1762.84
1074.56
1087.94
1095.15
1078.5
1113.13
1139.45
1069.36
1121.18
1169.09
1042.04
1077.38
1117.07
998.22
958.86
900.782
975.436
931.46
890.087
976.392
954.513
940.261
991.58
989.507
988.691
493.814
501.895
505.25
493.701
511.479
519.288
486.389
507.426
520.896
475.21
486.227
483.155
460.502
454.825
442.331
453.019
444.153
433.539
454.629
449.412
444.335
462.228
461.495
461.404
163.06
171.707
175.713
159.265
171.171
177.271
154.768
168.371
178.069
152.089
165.531
181.021
151.846
163.266
168.178
154.372
163.154
167.02
158.151
165.77
169.941
163.541
169.777
173.239
10.3081
13.015
14.8372
8.3519
12.1798
14.786
6.8659
11.439
14.91
6.03626
10.7464
15.3997
6.05237
10.6043
14.2401
7.06046
11.2038
14.4228
8.63672
12.3033
14.8645
10.8389
13.9052
16.0917
2712.72
2715.76
2719.8
2723.28
2731.33
2739.6
2752.23
2782.26
2707.7
2714.36
2719.2
2723.57
2728.6
2736.25
2750.14
2775.27
2716.03
2717.51
2721.92
2724.78
2729.56
2737.08
2751.2
2773.53
1830.53
1844.13
1850.87
1846.31
1865.68
1871.59
1869.33
1909.07
1829.95
1831.1
1832.38
1846.13
1842.61
1848.92
1869.22
1891.43
1839.81
1832.76
1837.74
1849.29
1852.71
1853.3
1872.36
1886.49
1013.32
1026.42
1035.69
1039.39
1046.78
1052.38
1057.5
1075.65
1016.82
1024.03
1029.07
1035.49
1037.77
1043.03
1054.63
1069.26
1019.84
1020.78
1023.7
1029.05
1031.92
1035.19
1046.45
1060.68
439.819
465.271
475.499
479.694
484.271
486.388
489.112
496.189
453.693
467.697
474.566
477.671
480.32
482.812
487.895
494.348
460.076
466.009
467.541
470.003
471.574
474.983
481.266
489.008
129.459
162.598
168.048
168.957
170.1
171.731
173.307
175.241
149.075
160.416
161.654
162.076
163.04
165.271
167.936
171.45
150.962
152.71
150.523
149.139
150.076
152.822
157.507
163.087
13.5988
13.2515
13.3549
13.3503
13.7021
14.2808
14.6703
15.0598
11.9279
11.0177
10.6637
10.3219
10.5331
11.268
12.0844
13.0812
9.57177
7.59748
6.30632
5.6065
5.88278
6.91036
8.52621
10.4657
)
;

boundaryField
{
    atmosphere
    {
        type            calculated;
        value           uniform -1.1772;
    }
    walls
    {
        type            calculated;
        value           nonuniform List<scalar> 
351
(
3156.93
3158.57
3157.91
3160.65
3160.81
3160.84
3166.58
3171.1
3152.57
3155.37
3158.11
3159.14
3160.38
3160.55
3164.42
3166.21
3155.02
3155.71
3157.45
3157.33
3157.8
3159.87
3162.73
3162.89
3157.46
3155.64
3156.22
3158.03
3158.21
3157.87
3159.98
3160.85
3159.94
3159
3159.98
3157.21
3157.02
3155.13
3156.74
3152.82
3168.08
3163.12
3158.5
3154.12
3151.08
3145.57
3148.3
3149.98
3184.6
3181.34
3172.53
3160.41
3141.01
3128.6
3129.4
3130.6
3213.49
3216.16
3200.31
3170.86
3125.34
3097.7
3095.98
3104.35
3145.09
3154.29
3155.4
3159.66
3159.91
3163.32
3165.48
3170.12
3145.34
3157.25
3159.33
3164.31
3163.81
3165.81
3169.65
3172.13
3154.86
3163.88
3163.05
3164.13
3165.5
3168.2
3172.65
3175.41
3174.2
3171.39
3174.1
3173.84
3174.56
3174.79
3166.06
3169.92
3167.21
3163.13
3167.47
3162.16
3158.22
3158.4
3152.53
3153.63
3150.01
3141.98
3135.66
3125.78
3126.66
3111.14
3100.55
3095.27
3256.08
3277.33
3271.11
3211.64
3092.36
3035.3
3043.74
3071.44
3268.13
3338.14
3417.63
3387.26
2889.43
2876.87
2974.73
3049.27
3266.68
3371.47
3619.34
3900.39
2358.42
2678.4
2932.15
3044.36
3147.69
3147.8
3158.19
3151.43
3155.53
3158.72
3154.03
3160.34
3161.58
3156.89
3165.49
3164.15
3165
3170.96
3169.38
3173.59
3177.35
3177.54
3186.9
3191.29
3193.35
3216.96
3215.69
3215.55
2710.05
2719.69
2720.44
2723.98
2726
2727.87
2730.58
2735.22
1847.36
1838.92
1847.01
1849.41
1848.45
1858.94
1851.23
1859.25
1022.57
1032.03
1038.93
1040.42
1044.51
1048.49
1046.67
1049.47
452.097
472.668
480.518
482.582
486.047
488.099
487.415
487.569
149.731
169.955
173.829
174.91
175.157
177.225
178.305
178.405
14.1879
15.0292
15.5711
15.6358
15.8954
16.4297
16.6921
16.7157
2738.87
1873.67
1053.61
487.616
176.715
15.9812
2739.21
1857.47
1049.19
487.524
175.428
15.1866
2732.9
1866.47
1050.04
487.396
175.485
15.1858
2727.11
1852.22
1044.07
486.469
175.465
14.8306
2717.58
1842.13
1038.68
484.34
175.52
15.1973
2707.82
1829.91
1034.97
482.418
176.599
15.7575
2692.46
1833.93
1031.96
480.24
177.432
16.4964
2660.71
1791.62
1013.2
473.004
176.182
16.5536
2832.21
2936.63
3182.28
3458.07
1936.86
2242.4
2496.53
2609.03
1934.93
2032.39
2151.6
2168.9
1448.49
1497.2
1654.75
1762.84
1095.15
1139.45
1169.09
1117.07
900.782
890.087
940.261
988.691
505.25
519.288
520.896
483.155
433.539
444.335
461.404
175.713
177.271
178.069
181.021
168.178
167.02
169.941
173.239
14.8372
14.786
14.91
15.3997
14.2401
14.4228
14.8645
16.0917
2712.72
1830.53
1013.32
439.819
129.459
13.5988
2715.76
1844.13
1026.42
465.271
162.598
13.2515
2719.8
1850.87
1035.69
475.499
168.048
13.3549
2723.28
1846.31
1039.39
479.694
168.957
13.3503
2731.33
1865.68
1046.78
484.271
170.1
13.7021
2739.6
1871.59
1052.38
486.388
171.731
14.2808
2752.23
1869.33
1057.5
489.112
173.307
14.6703
2782.26
1909.07
1075.65
496.189
175.241
15.0598
)
;
    }
    outlet
    {
        type            calculated;
        value           uniform 442.331;
    }
}


// ************************************************************************* //
