/*--------------------------------*- C++ -*----------------------------------*\
| =========                 |                                                 |
| \\      /  F ield         | OpenFOAM: The Open Source CFD Toolbox           |
|  \\    /   O peration     | Version:  4.x                                   |
|   \\  /    A nd           | Web:      www.OpenFOAM.org                      |
|    \\/     M anipulation  |                                                 |
\*---------------------------------------------------------------------------*/
FoamFile
{
    version     2.0;
    format      ascii;
    class       volScalarField;
    location    "1";
    object      p_rgh;
}
// * * * * * * * * * * * * * * * * * * * * * * * * * * * * * * * * * * * * * //

dimensions      [1 -1 -2 0 0 0 0];

internalField   nonuniform List<scalar> 
960
(
3156.93
3152.57
3155.02
3157.46
3159.94
3168.08
3184.6
3213.49
3158.57
3155.37
3155.71
3155.64
3159
3163.12
3181.34
3216.16
3157.91
3158.11
3157.45
3156.22
3159.98
3158.5
3172.53
3200.31
3160.65
3159.14
3157.33
3158.03
3157.21
3154.12
3160.41
3170.86
3160.81
3160.38
3157.8
3158.21
3157.02
3151.08
3141.01
3125.34
3160.84
3160.55
3159.87
3157.87
3155.13
3145.57
3128.6
3097.7
3166.58
3164.42
3162.73
3159.98
3156.74
3148.3
3129.4
3095.98
3171.1
3166.21
3162.89
3160.85
3152.82
3149.98
3130.6
3104.35
3152.96
3153.5
3156.38
3163.66
3162.88
3166.67
3180.95
3206.55
3156.68
3157.47
3162.53
3165.25
3164.36
3161.78
3175.34
3203.74
3159.55
3161.45
3165.34
3169.33
3177.45
3145.39
3166.32
3190.51
3163.3
3166.71
3166.45
3166.76
3168.17
3156.35
3160.28
3169.22
3163.97
3163.14
3165.91
3164.83
3163.16
3153.8
3148.03
3135.16
3164.75
3165.2
3163.64
3162.3
3160.58
3152.1
3140.5
3113.45
3166.81
3165.47
3163.31
3161.23
3157.61
3147.29
3128.74
3105.11
3165.55
3164.53
3163.51
3156.79
3151.62
3143.61
3112.36
3106.78
2869.16
2899.45
2905.1
2915.28
2916.47
2905.99
2898.84
2898.78
2897.85
2920.88
2928.82
2936.5
2946.05
2925.86
2917.74
2918.72
2910.14
2932.96
2942.58
2952.96
2956.51
2931.41
2924.8
2928.91
2931.79
2951.49
2959.51
2963.32
2959.89
2947.05
2936.93
2924.88
2932.93
2953.45
2955.17
2963.04
2957.78
2943.41
2933.78
2912.24
2929.29
2945.61
2951.31
2954.06
2948.84
2937.58
2924.23
2892.05
2918.89
2937.25
2946.05
2945.77
2942.98
2933.71
2915.36
2877.5
2908.27
2920.17
2926.36
2935.19
2939.65
2916.78
2905.01
2867.42
1734.5
1727.04
1728.83
1732.84
1737.64
1730.48
1738.09
1763.61
1729.63
1732.56
1747.78
1755.52
1750.24
1744.89
1731.9
1742.2
1735.89
1757.11
1773.55
1777.43
1769.01
1766.41
1747.78
1735.54
1749.02
1778.74
1787.54
1796.49
1786.18
1776.26
1758
1743.49
1740
1762.51
1782.59
1790.32
1783.97
1769
1745.9
1726.7
1735.92
1751.61
1765.92
1769.4
1779.77
1762.85
1744.29
1723.75
1736.83
1739.37
1747.12
1747.46
1754.78
1746
1728.06
1723.3
1747.11
1735.94
1735.91
1727.98
1723.5
1727.19
1732.35
1738.17
1363.67
1350.47
1325.06
1315.34
1317.85
1343.59
1364.92
1382.35
1352.73
1311.58
1278.54
1263.55
1259.6
1290.31
1325.11
1365.9
1338.87
1284.8
1243.16
1225.27
1221.22
1246.96
1284.26
1340.66
1325.56
1279.84
1221.92
1198.39
1210.86
1234.99
1270.98
1332.26
1339.06
1280.41
1224.27
1207.49
1206.29
1237.07
1286.01
1337.57
1359.97
1306.56
1259.36
1244.26
1240.12
1270.64
1311.52
1359.79
1381.26
1341.99
1305.64
1286.96
1291.2
1312.09
1350.22
1387.73
1404.75
1379.16
1355.65
1344.45
1347.06
1365.85
1390.27
1412.03
102.865
63.7058
43.8134
36.0631
38.9888
50.1913
74.4597
110.14
69.2987
34.564
13.5145
6.24755
9.2973
16.2809
35.4643
72.8267
49.8828
14.733
-0.182374
-0.621831
-0.0315703
0.619367
18.0893
50.143
39.1593
11.1543
1.46151
-0.350951
-1.68467
0.129514
10.5006
40.4962
39.5496
8.48501
0.624822
-0.897913
-1.36564
-0.798614
4.98658
42.6253
51.8594
18.9077
2.54892
0.0436057
0.136705
0.267771
20.2794
56.6109
74.0405
38.1845
18.4306
8.63383
7.87549
19.8788
41.6174
78.7331
107.615
68.5386
48.1979
36.9048
40.4035
52.6464
76.3277
115.181
3145.09
3145.34
3154.86
3154.29
3157.25
3163.88
3155.4
3159.33
3163.05
3159.66
3164.31
3164.13
3159.91
3163.81
3165.5
3163.32
3165.81
3168.2
3165.48
3169.65
3172.65
3170.12
3172.13
3175.41
3150.43
3152.92
3160.9
3144.62
3155.59
3152.7
3159.13
3157.88
3157.32
3163.69
3156.94
3159.89
3157.22
3164.18
3165.63
3170.35
3163.21
3167.11
3161.44
3171.84
3175.72
3168.86
3172.77
3177.5
2961.23
2900.76
2875.14
2958.62
2900.69
2878.71
2942.76
2895.84
2891.25
2937.84
2900.96
2905.39
2960.97
2906.86
2911.29
2955.99
2914.63
2913.01
2962.21
2922.57
2912.05
2972.48
2934
2918.33
1681.32
1705.19
1736.24
1709.3
1733.66
1745.14
1722.82
1744.78
1740.64
1726.89
1742.21
1743.25
1731.22
1750.44
1743.38
1733.25
1747.48
1745.1
1728.71
1749.53
1754.46
1726.1
1742.02
1755.41
1440.34
1423.96
1345.35
1463.74
1428.62
1377.58
1460.64
1425.1
1380.66
1460.8
1434.11
1382.8
1465.73
1438.25
1390.66
1475.88
1444.66
1402.15
1478.58
1451.74
1412.1
1481.43
1461.84
1430.11
200.619
176.053
151.585
203.35
168.725
121.476
209.368
168.057
104.995
211.013
164.639
94.2532
212.009
164.313
94.4994
219.784
174.105
109.525
222.739
186.344
129.557
222.329
196.855
153.805
3174.2
3173.84
3166.06
3163.13
3158.22
3153.63
3135.66
3111.14
3171.39
3174.56
3169.92
3167.47
3158.4
3150.01
3125.78
3100.55
3174.1
3174.79
3167.21
3162.16
3152.53
3141.98
3126.66
3095.27
3167.93
3165.03
3163.13
3159.58
3160.4
3155.15
3137.56
3118.31
3174.27
3174.36
3166.96
3160.95
3159.04
3148.02
3132.09
3108.64
3179.49
3167.71
3175.31
3167.72
3154.88
3135.9
3138.74
3097.67
2924.15
2918.22
2915.01
2915.07
2915.75
2904.65
2896.37
2883.68
2950.04
2937.87
2920.37
2907.63
2904.02
2908.48
2908.31
2899.02
2990.38
2978.77
2969.38
2943.51
2951.01
2966.21
2962.15
2933.22
1755.96
1745.96
1743.94
1739.67
1732.77
1743.73
1746.69
1742.63
1741.14
1750.05
1746.88
1747.95
1749.36
1747.92
1739.18
1724.07
1730.9
1737.05
1733.69
1733.44
1731.08
1724.38
1718.69
1709.83
1431.61
1416.46
1404.34
1400.83
1401.09
1409.24
1424.38
1437.25
1463.91
1452.24
1446.26
1443.39
1441.48
1451.62
1461.86
1469.08
1474.76
1473.51
1471.58
1474.33
1475.52
1484.95
1485.08
1480.61
144.198
112.577
95.2492
84.2904
88.7992
102.894
126.689
154.073
184.623
166.015
159.11
153.693
158.136
166.63
182.509
197.037
214.526
206.852
208.103
203.544
207.484
213.698
225.298
226.541
3256.08
3268.13
3266.68
3277.33
3338.14
3371.47
3271.11
3417.63
3619.34
3211.64
3387.26
3900.39
3092.36
2889.43
2358.42
3035.3
2876.87
2678.4
3043.74
2974.73
2932.15
3071.44
3049.27
3044.36
3238.4
3245.58
3238.58
3254.85
3298.02
3339.64
3247.47
3349.72
3467.65
3196.97
3300.66
3492.81
3102.62
2974.64
2760.58
3056.61
2940.07
2807.08
3057.2
3002.8
2965.2
3082.63
3068.48
3068.98
2929.92
2963.71
3028.15
2940.67
2986.6
3063.75
2941.48
2977.6
3063.72
2921.89
2942.74
3022.15
2875.49
2816.52
2796.67
2850.2
2806.78
2804.83
2849.53
2832.63
2849.89
2864.2
2873.99
2910.9
1779.82
1760.25
1737.19
1771.22
1775
1764.33
1752.75
1777.22
1768.71
1741.25
1759.1
1735.58
1725.72
1714.14
1691.26
1721.94
1710.92
1687.8
1726.96
1712.47
1694.71
1743.14
1725.66
1698.45
1399.63
1444.03
1460.58
1394.9
1438.95
1463.25
1385.12
1426.63
1464.5
1384.63
1428.94
1462.74
1384.78
1431.26
1453.49
1397.76
1441.54
1460.65
1415.36
1451.91
1473.99
1431.09
1462.82
1475.67
144.628
172.676
192.118
120.274
164.298
193.318
101.505
158.789
194.028
90.8414
149.863
194.205
94.2382
154.259
198.152
107.904
161.858
204.95
126.724
175.962
209.381
155.225
194.789
222.308
3147.69
3151.43
3154.03
3156.89
3165
3173.59
3186.9
3216.96
3147.8
3155.53
3160.34
3165.49
3170.96
3177.35
3191.29
3215.69
3158.19
3158.72
3161.58
3164.15
3169.38
3177.54
3193.35
3215.55
3135.79
3158.21
3164.95
3155.59
3173.9
3180.52
3169.62
3208.43
3145.16
3147.83
3150.16
3162.96
3159.24
3166.31
3182.12
3201.42
3157.91
3150.07
3154.25
3166.29
3169.76
3171.58
3190.11
3203.05
2943.5
2929.85
2936.56
2942.32
2955.61
2958.37
2990.28
3015.78
2888.97
2883.02
2872.34
2878.08
2879.68
2884.61
2921.12
2954.1
2869.75
2874.58
2885.44
2890.33
2893.22
2886.64
2892.85
2915.55
1664.82
1711.92
1723.89
1727.95
1733.81
1726.12
1720.13
1725.24
1714.3
1743.2
1754.85
1750.55
1758.92
1758.27
1747.95
1740.18
1747.55
1742.31
1737.62
1740.98
1742.33
1753.98
1770.26
1773.84
1407.53
1441.82
1437.96
1437.22
1439.24
1447.23
1454.82
1458.73
1415.56
1406.04
1395.91
1405.92
1405.83
1409.71
1433.79
1454.57
1372.18
1371.43
1362.31
1363.26
1364.51
1366.65
1381.08
1402.86
196.785
181.454
179.557
180.733
186.786
192.088
195.541
200.902
171.208
158.58
153.103
145.869
149.473
159.911
166
174.5
140.699
113.268
96.3568
85.7157
88.6214
104.303
123.992
146.035
)
;

boundaryField
{
    atmosphere
    {
        type            fixedValue;
        value           uniform 0;
    }
    walls
    {
        type            fixedFluxPressure;
        gradient        uniform 0;
        value           nonuniform List<scalar> 
351
(
3156.93
3158.57
3157.91
3160.65
3160.81
3160.84
3166.58
3171.1
3152.57
3155.37
3158.11
3159.14
3160.38
3160.55
3164.42
3166.21
3155.02
3155.71
3157.45
3157.33
3157.8
3159.87
3162.73
3162.89
3157.46
3155.64
3156.22
3158.03
3158.21
3157.87
3159.98
3160.85
3159.94
3159
3159.98
3157.21
3157.02
3155.13
3156.74
3152.82
3168.08
3163.12
3158.5
3154.12
3151.08
3145.57
3148.3
3149.98
3184.6
3181.34
3172.53
3160.41
3141.01
3128.6
3129.4
3130.6
3213.49
3216.16
3200.31
3170.86
3125.34
3097.7
3095.98
3104.35
3145.09
3154.29
3155.4
3159.66
3159.91
3163.32
3165.48
3170.12
3145.34
3157.25
3159.33
3164.31
3163.81
3165.81
3169.65
3172.13
3154.86
3163.88
3163.05
3164.13
3165.5
3168.2
3172.65
3175.41
3174.2
3171.39
3174.1
3173.84
3174.56
3174.79
3166.06
3169.92
3167.21
3163.13
3167.47
3162.16
3158.22
3158.4
3152.53
3153.63
3150.01
3141.98
3135.66
3125.78
3126.66
3111.14
3100.55
3095.27
3256.08
3277.33
3271.11
3211.64
3092.36
3035.3
3043.74
3071.44
3268.13
3338.14
3417.63
3387.26
2889.43
2876.87
2974.73
3049.27
3266.68
3371.47
3619.34
3900.39
2358.42
2678.4
2932.15
3044.36
3147.69
3147.8
3158.19
3151.43
3155.53
3158.72
3154.03
3160.34
3161.58
3156.89
3165.49
3164.15
3165
3170.96
3169.38
3173.59
3177.35
3177.54
3186.9
3191.29
3193.35
3216.96
3215.69
3215.55
3145.09
3154.29
3155.4
3159.66
3159.91
3163.32
3165.48
3170.12
3150.43
3144.62
3159.13
3163.69
3157.22
3170.35
3161.44
3168.86
2961.23
2958.62
2942.76
2937.84
2960.97
2955.99
2962.21
2972.48
1681.32
1709.3
1722.82
1726.89
1731.22
1733.25
1728.71
1726.1
1440.34
1463.74
1460.64
1460.8
1465.73
1475.88
1478.58
1481.43
200.619
203.35
209.368
211.013
212.009
219.784
222.739
222.329
3174.1
3179.49
2990.38
1730.9
1474.76
214.526
3174.79
3167.71
2978.77
1737.05
1473.51
206.852
3167.21
3175.31
2969.38
1733.69
1471.58
208.103
3162.16
3167.72
2943.51
1733.44
1474.33
203.544
3152.53
3154.88
2951.01
1731.08
1475.52
207.484
3141.98
3135.9
2966.21
1724.38
1484.95
213.698
3126.66
3138.74
2962.15
1718.69
1485.08
225.298
3095.27
3097.67
2933.22
1709.83
1480.61
226.541
3266.68
3371.47
3619.34
3900.39
2358.42
2678.4
2932.15
3044.36
3238.58
3339.64
3467.65
3492.81
2760.58
2807.08
2965.2
3068.98
3028.15
3063.75
3063.72
3022.15
2796.67
2804.83
2849.89
2910.9
1737.19
1764.33
1768.71
1735.58
1687.8
1694.71
1698.45
1460.58
1463.25
1464.5
1462.74
1453.49
1460.65
1473.99
1475.67
192.118
193.318
194.028
194.205
198.152
204.95
209.381
222.308
3147.69
3135.79
2943.5
1664.82
1407.53
196.785
3151.43
3158.21
2929.85
1711.92
1441.82
181.454
3154.03
3164.95
2936.56
1723.89
1437.96
179.557
3156.89
3155.59
2942.32
1727.95
1437.22
180.733
3165
3173.9
2955.61
1733.81
1439.24
186.786
3173.59
3180.52
2958.37
1726.12
1447.23
192.088
3186.9
3169.62
2990.28
1720.13
1454.82
195.541
3216.96
3208.43
3015.78
1725.24
1458.73
200.902
)
;
    }
    outlet
    {
        type		fixedValue;
		value		uniform 0;
    }
}


// ************************************************************************* //
