/*--------------------------------*- C++ -*----------------------------------*\
| =========                 |                                                 |
| \\      /  F ield         | OpenFOAM: The Open Source CFD Toolbox           |
|  \\    /   O peration     | Version:  4.x                                   |
|   \\  /    A nd           | Web:      www.OpenFOAM.org                      |
|    \\/     M anipulation  |                                                 |
\*---------------------------------------------------------------------------*/
FoamFile
{
    version     2.0;
    format      ascii;
    class       surfaceScalarField;
    location    "1";
    object      phi;
}
// * * * * * * * * * * * * * * * * * * * * * * * * * * * * * * * * * * * * * //

dimensions      [0 3 -1 0 0 0 0];

internalField   nonuniform List<scalar> 
2624
(
3.54656e-07
3.45181e-07
-9.97745e-07
2.5996e-07
3.74083e-08
1.91102e-07
5.30329e-07
2.14604e-07
-5.81683e-07
7.56908e-08
2.71242e-07
1.75309e-07
-3.31291e-07
5.62489e-08
3.82144e-07
8.28417e-08
-4.45296e-07
-2.10835e-07
5.54481e-07
3.57083e-07
-6.43871e-07
-4.62575e-07
4.83115e-07
1.22501e-07
-3.54852e-07
-5.68812e-07
6.49805e-07
-3.71502e-07
-1.72131e-07
2.80222e-07
-1.0989e-06
-2.06766e-07
4.56691e-07
4.68767e-07
3.82149e-07
-2.60143e-07
-2.45772e-07
3.01926e-07
4.09914e-07
2.87264e-07
1.90771e-07
2.04151e-07
1.78681e-07
1.10703e-07
1.83287e-07
2.8104e-07
-7.17124e-08
2.52448e-07
4.90207e-07
-3.23078e-07
4.60424e-07
2.68538e-07
-4.54616e-07
5.53917e-07
2.25346e-07
6.26704e-07
-4.02109e-07
-3.98229e-07
2.57253e-07
2.45036e-07
3.89698e-08
-1.59114e-07
3.0762e-07
2.78142e-07
8.16964e-08
3.07629e-07
2.13425e-07
-7.94773e-09
1.03597e-07
1.28318e-07
2.66119e-07
-1.14143e-07
1.40167e-07
3.5927e-07
-1.20098e-07
4.17915e-07
1.93715e-08
-1.63411e-07
2.9753e-07
2.93316e-07
4.27662e-07
2.87669e-07
-2.51642e-07
1.52726e-07
3.60303e-08
6.55754e-08
-9.14383e-09
6.35908e-08
4.26106e-08
3.25081e-07
2.56368e-08
5.48193e-08
1.97327e-07
1.09771e-07
-4.20074e-08
8.84998e-08
-2.63652e-08
8.15064e-08
2.00728e-07
-1.32998e-07
1.00411e-07
4.18646e-07
-1.21981e-07
5.1863e-08
2.3271e-07
1.33172e-07
1.83374e-07
-7.06337e-09
5.56835e-07
-1.59658e-07
-1.09173e-08
-3.50134e-07
3.96688e-07
-1.27038e-07
3.30013e-07
2.65686e-07
-7.98293e-08
2.65961e-07
2.2662e-07
-1.20158e-07
1.17836e-07
1.00732e-07
-3.64444e-09
2.12107e-07
1.60867e-08
-4.06591e-08
2.24911e-07
-1.06821e-07
-1.63159e-07
3.37751e-07
-1.01878e-07
3.72495e-07
-2.48733e-07
5.16452e-07
-3.07007e-07
1.0384e-07
-4.72852e-07
4.37861e-07
-3.09375e-07
2.61048e-07
2.90125e-07
-1.1161e-07
1.79655e-07
9.20693e-08
-2.07109e-07
2.85208e-07
-4.22333e-08
2.00867e-08
1.10964e-07
-1.51839e-07
-2.47985e-07
3.17945e-07
-3.30446e-07
-3.5384e-07
3.72881e-07
-3.21639e-07
2.65006e-08
-1.38158e-07
5.37258e-07
-3.02332e-07
-2.29786e-07
-3.12046e-07
4.22813e-07
-3.97112e-07
2.0228e-07
2.41025e-07
-1.81104e-07
2.51412e-07
6.79692e-08
-4.20453e-07
3.8665e-07
-1.19844e-07
-5.54922e-08
2.64669e-07
-2.1105e-07
-5.91096e-07
4.41898e-07
-2.09844e-07
-5.47615e-07
2.29973e-07
-2.6037e-07
-2.64561e-07
8.66459e-10
3.12869e-07
-9.59904e-07
5.14821e-08
2.93388e-07
2.78988e-07
-1.81442e-07
-1.81668e-07
2.37053e-07
-1.01293e-07
-3.77344e-08
1.63924e-07
2.44392e-07
-5.91188e-07
-3.39289e-07
8.17185e-07
-3.65423e-07
-4.36129e-07
-4.52138e-08
-4.13334e-07
-1.14442e-07
-2.92337e-07
-2.23612e-07
-9.06907e-07
3.30815e-07
2.41134e-07
1.08526e-07
1.2165e-07
-3.03463e-07
-5.1973e-07
-4.06189e-07
1.27959e-07
2.18393e-07
-1.4227e-08
-9.4214e-09
4.30668e-08
2.69528e-07
4.15504e-08
-5.08047e-08
-1.16063e-07
3.93507e-07
9.63704e-08
-2.46926e-07
-1.08986e-07
3.76584e-07
2.69307e-07
-2.92969e-07
-1.66642e-07
3.30558e-07
5.16329e-08
-2.05063e-07
-3.15485e-07
2.74214e-07
-1.53313e-07
-3.44564e-07
2.78569e-07
-3.46453e-07
-6.72712e-07
-6.73704e-07
1.32695e-07
1.6007e-07
-1.492e-07
-2.82477e-07
1.63923e-07
3.36821e-07
1.37849e-07
1.0693e-08
3.63816e-07
2.38932e-07
-1.29696e-07
4.09293e-07
4.12685e-07
-1.0922e-07
4.03002e-07
4.73754e-07
-2.65444e-07
4.80881e-07
2.441e-07
-3.16254e-07
4.37025e-07
1.06557e-07
2.30573e-07
-1.28832e-07
-5.42429e-07
3.1227e-07
2.02004e-07
2.26221e-08
-3.37507e-07
2.7332e-07
2.17754e-07
2.41137e-07
3.51833e-08
2.71525e-07
3.27046e-07
-1.33806e-07
3.63154e-07
5.15929e-07
-3.97344e-08
3.96131e-07
5.90235e-07
-4.03464e-07
2.21833e-07
3.24219e-07
-3.09008e-07
3.67653e-07
2.33945e-07
2.87568e-07
9.65167e-08
-1.77823e-07
3.70157e-07
1.37062e-07
1.52354e-07
-3.90993e-07
3.51525e-07
1.29535e-07
4.34632e-07
2.1667e-07
1.25544e-07
4.80953e-07
-5.39456e-08
1.52498e-07
5.77339e-07
-1.66145e-07
2.14007e-07
5.25673e-07
-2.1783e-07
9.20902e-08
5.69731e-07
-1.67491e-07
1.63193e-07
3.80064e-07
1.35081e-07
1.79914e-07
-1.15157e-08
2.09974e-07
-3.05213e-08
1.38773e-07
-1.91571e-07
2.96904e-07
-2.49966e-08
3.98736e-07
1.84546e-07
-4.57633e-08
5.50635e-07
-3.40684e-08
-1.06724e-07
5.97092e-07
-1.47485e-07
6.24297e-08
4.80231e-07
-2.21382e-07
-5.37182e-08
4.41576e-07
-9.19491e-08
-1.46185e-09
3.71341e-07
4.9088e-08
1.83796e-07
1.81026e-07
2.04732e-07
-5.74946e-08
1.00946e-07
-1.74678e-07
2.4965e-07
-1.54075e-07
3.45549e-07
8.56674e-08
-1.78801e-07
4.76971e-07
-3.43912e-08
-2.21276e-07
5.20068e-07
-1.35195e-07
-1.94177e-07
4.68568e-07
-1.64054e-07
-1.54451e-07
4.46392e-07
-2.13512e-08
-1.33596e-07
3.59028e-07
-2.0166e-08
2.59138e-08
4.67246e-08
1.59912e-07
-2.13259e-08
-6.05701e-08
-3.65199e-07
1.36651e-07
-1.0813e-07
1.79713e-07
3.5954e-08
-1.57213e-07
3.3061e-07
-4.64006e-08
-2.0103e-07
4.48737e-07
-1.59892e-07
-2.28835e-07
4.12101e-07
-1.9965e-07
-5.07161e-08
3.72371e-07
-1.69294e-07
-1.21152e-07
1.56725e-07
-1.44486e-07
-1.3129e-07
-1.84462e-07
1.83233e-07
-3.39361e-07
-5.05571e-07
-3.19441e-07
1.13203e-07
-8.63372e-08
-1.33146e-07
-6.68597e-08
8.39666e-09
-8.67863e-08
-8.09092e-08
2.29376e-07
-1.72193e-07
6.75279e-08
3.76357e-07
6.07938e-08
-1.3957e-08
2.52304e-08
-6.82665e-08
-2.67478e-07
-1.35087e-07
-3.44492e-07
-3.48986e-07
-5.16427e-07
-4.86444e-07
-2.52925e-07
-1.00136e-07
7.44921e-08
-3.99556e-08
6.04822e-09
-2.6333e-07
-2.13306e-07
-7.4779e-08
2.82374e-07
-2.09661e-07
-2.53632e-07
-8.95346e-08
3.30856e-07
-1.01071e-07
-2.9125e-07
-8.76065e-08
3.66974e-07
1.39369e-07
-2.79916e-07
-8.13188e-08
3.90772e-07
2.22222e-07
-2.50782e-07
-6.87761e-08
2.87586e-07
1.84332e-07
-1.5912e-07
-1.66998e-09
4.50707e-08
2.73705e-08
1.30093e-07
2.3212e-08
-3.42769e-07
-4.39978e-07
-7.81028e-08
-1.31832e-08
2.79798e-07
-3.8345e-07
-8.40032e-08
-4.70841e-08
-2.71704e-07
-1.00382e-07
-2.47773e-08
-8.6057e-08
-9.57663e-08
3.37355e-08
1.71088e-07
-5.86564e-08
5.59525e-10
3.22672e-07
-9.12713e-08
-7.20239e-08
3.89327e-07
-5.772e-08
-6.32583e-08
-4.96384e-08
6.14602e-08
2.75812e-07
-4.38018e-07
1.97673e-08
3.76646e-09
3.6116e-07
-3.60843e-07
1.2215e-08
7.50596e-08
-2.83419e-07
4.01331e-08
1.146e-07
-1.14836e-07
7.15262e-08
1.8766e-07
1.79104e-07
1.67794e-07
9.7061e-08
2.9466e-07
6.86361e-08
2.20129e-08
4.11464e-07
1.31441e-07
-7.81098e-08
9.95494e-08
-9.87726e-08
4.5666e-07
-4.46749e-07
1.84118e-07
4.98991e-08
3.91885e-07
-3.18726e-07
1.96665e-07
1.45516e-07
-1.77403e-07
2.16415e-07
1.76517e-07
-4.96535e-08
2.31438e-07
2.94872e-07
1.41712e-07
3.04729e-07
2.03201e-07
3.34417e-07
2.74452e-07
1.66263e-07
4.88286e-07
3.12198e-07
4.36196e-08
2.82164e-07
-3.95125e-08
5.25038e-07
-4.32375e-07
2.83226e-07
5.33129e-08
4.21549e-07
-2.89637e-07
3.60722e-07
9.93506e-08
-1.31167e-07
3.51263e-07
2.61942e-07
1.63362e-08
3.58184e-07
3.24664e-07
1.44122e-07
3.76544e-07
2.81754e-07
2.88719e-07
3.97146e-07
1.73533e-07
4.41006e-07
4.56103e-07
7.46205e-08
3.92865e-07
-4.31291e-08
5.56642e-07
-3.89091e-07
3.32923e-07
9.96118e-08
3.41491e-07
-3.08649e-07
4.6589e-07
1.6159e-07
-1.79296e-07
4.65168e-07
2.34834e-07
9.72073e-10
4.70113e-07
2.28331e-07
1.8837e-07
4.25402e-07
2.32433e-07
3.50041e-07
4.92098e-07
1.89293e-07
4.62303e-07
5.87824e-07
1.13935e-07
4.32651e-07
1.68655e-08
4.30889e-07
-3.14267e-07
3.00764e-07
1.46195e-07
1.39852e-07
-2.95059e-07
5.05855e-07
1.20874e-07
-1.80531e-07
5.48692e-07
1.32812e-07
-1.58618e-08
5.7981e-07
1.74432e-07
1.90992e-07
4.94828e-07
1.35508e-07
3.42345e-07
5.88111e-07
1.2317e-07
3.94767e-07
5.35104e-07
1.50766e-07
3.21367e-07
9.82026e-08
2.74588e-07
-1.58447e-07
1.57624e-07
-4.2905e-08
5.22524e-09
-1.92401e-07
8.79494e-08
3.6563e-07
-1.75981e-07
6.06536e-08
4.80068e-07
-1.12211e-08
5.42902e-08
5.90041e-07
2.73651e-07
6.18149e-08
5.23563e-07
2.65502e-07
1.46981e-07
4.68392e-07
1.21402e-07
2.27443e-07
2.86115e-07
1.58912e-07
3.02624e-08
-1.01749e-07
-8.82546e-08
-6.21399e-08
-3.55659e-08
1.54753e-07
5.16594e-08
-5.57546e-08
-9.25195e-08
1.94562e-08
-4.2467e-08
-4.44974e-08
-1.63567e-07
5.39044e-08
8.16526e-09
1.25086e-08
-2.05099e-07
4.30932e-08
1.74791e-08
-1.75653e-08
-7.03851e-08
1.34616e-08
5.841e-09
-3.39255e-08
-6.46567e-08
1.59471e-08
-3.82987e-09
-7.09565e-08
2.61965e-08
1.6002e-08
-6.87236e-09
5.98556e-08
-2.41117e-08
-9.9841e-09
3.34625e-08
-9.45073e-08
-7.41572e-08
5.59895e-08
2.82722e-08
-1.42345e-07
-1.89583e-07
1.02772e-07
-1.04635e-07
-2.01883e-07
-2.00507e-08
-3.38858e-08
-2.507e-07
1.02279e-08
5.18439e-08
-1.88167e-07
3.35809e-08
7.00637e-08
-1.48241e-07
-7.22446e-09
-2.60887e-08
-3.44625e-08
9.32947e-08
3.18967e-08
9.15947e-08
-2.83229e-08
-1.88373e-07
-3.95845e-08
1.0639e-07
6.25384e-08
-2.04522e-07
-1.34922e-07
8.30455e-08
-1.21311e-07
-9.81655e-08
-4.71076e-08
7.83212e-09
-1.38407e-07
-4.67004e-08
1.17949e-07
-1.06835e-07
-9.0845e-08
1.83307e-07
-7.52812e-08
-1.18412e-07
1.53123e-07
-1.23435e-09
-8.19811e-08
2.35868e-08
6.4192e-08
-1.65034e-09
-2.76712e-07
6.42986e-08
1.41093e-07
1.27195e-07
-2.13073e-07
1.28094e-07
4.47621e-08
-1.22727e-07
1.23774e-07
-3.13256e-08
2.01925e-08
9.96791e-08
-6.65999e-08
1.69573e-07
8.36297e-08
-1.33044e-07
2.47877e-07
9.7381e-08
-8.49512e-08
1.82882e-07
1.05451e-07
1.68197e-09
1.04988e-07
4.77743e-08
1.416e-08
-1.72213e-07
9.6975e-08
1.53372e-07
5.31249e-08
-2.3404e-07
1.97194e-07
1.39105e-07
-1.59509e-07
2.33733e-07
1.02639e-07
2.5375e-09
2.78857e-07
-1.02321e-08
1.30795e-07
2.16131e-07
2.23302e-08
2.40014e-07
1.88128e-07
-2.63692e-08
2.30306e-07
1.47779e-07
4.18899e-08
8.4645e-08
7.12228e-08
1.36202e-07
-1.34725e-07
7.55794e-08
2.33693e-07
2.48371e-08
-1.74912e-07
2.14928e-07
1.91601e-07
-1.26219e-07
2.59556e-07
1.64869e-07
-7.87539e-09
3.41751e-07
4.84927e-08
1.3438e-07
3.36135e-07
-2.95185e-08
2.00952e-07
2.49344e-07
6.14337e-08
1.64096e-07
2.01394e-07
9.69441e-08
4.64667e-08
1.67919e-07
5.10676e-08
1.90377e-10
3.86869e-08
2.59063e-07
-7.56608e-08
-8.40762e-08
1.43751e-07
2.77441e-07
-7.14616e-08
2.0273e-07
1.77757e-07
-4.86832e-09
2.58971e-07
1.90868e-07
6.19925e-08
3.01062e-07
1.037e-07
1.05372e-07
1.98676e-07
1.3009e-07
6.73231e-08
8.93534e-08
2.99907e-07
1.29238e-09
1.88384e-07
2.19303e-08
6.27646e-08
1.43394e-07
-6.28106e-08
5.30662e-08
1.61627e-08
2.32988e-07
4.54737e-08
1.29692e-08
1.95549e-07
7.1148e-08
1.58731e-08
2.27783e-07
8.25874e-08
-3.16892e-08
3.08379e-07
1.01876e-07
-6.3649e-08
3.02037e-07
7.4632e-08
-4.507e-08
2.33009e-07
6.21478e-08
6.81863e-08
7.03642e-08
-2.4334e-08
4.4736e-10
-1.65759e-07
-1.09431e-07
5.59732e-08
-3.49875e-08
-3.90467e-08
-2.40393e-07
1.95302e-07
8.19686e-08
-5.80061e-08
-2.9859e-07
2.17552e-07
1.52581e-07
2.88003e-08
-3.02838e-07
1.07622e-07
1.51603e-07
7.58123e-08
-3.1149e-07
1.08422e-07
1.69582e-07
4.70347e-08
-1.55317e-07
1.12932e-07
8.71115e-08
5.26058e-09
-1.16216e-07
2.1414e-07
-4.01564e-08
-2.33288e-08
3.57151e-07
-1.81684e-07
-1.7098e-07
-1.01846e-07
-1.77162e-07
2.10043e-07
-5.01229e-08
-1.19268e-07
-2.9957e-07
1.97728e-07
-8.25659e-08
-3.51423e-07
6.89184e-09
7.635e-08
-4.35179e-07
-1.37669e-08
1.91674e-07
-3.82927e-07
-9.78343e-09
1.21793e-07
-2.35481e-07
1.42833e-07
5.28369e-08
-1.77092e-07
2.23095e-07
-9.5351e-08
3.31918e-07
-1.15469e-07
-1.72486e-07
-1.80661e-07
2.73393e-07
4.69858e-08
-2.0098e-07
-3.41303e-07
3.75905e-07
-1.65942e-07
-3.44598e-07
1.09443e-08
7.46324e-08
-4.00521e-07
-3.05069e-07
2.34141e-07
-3.11042e-07
-3.19746e-07
2.02221e-07
-3.14761e-07
-7.13359e-09
1.79833e-07
-2.31475e-07
-5.25787e-09
-1.76184e-07
2.62931e-07
6.19165e-08
-3.48372e-07
-8.36808e-08
4.47101e-07
1.6488e-07
-2.40257e-07
2.68075e-08
1.86336e-06
-1.94067e-07
-7.24051e-08
5.01107e-07
8.4597e-08
-6.27818e-08
-6.01986e-07
2.78038e-07
-5.3782e-08
-5.75889e-07
3.14498e-07
-1.0656e-07
-3.28957e-07
2.29925e-07
-1.13024e-07
-3.21634e-08
-1.344e-07
1.92172e-07
4.3752e-08
-2.91349e-07
4.43391e-08
1.94564e-07
1.63566e-07
-3.33096e-07
1.28987e-07
3.01937e-07
-2.07424e-07
1.78783e-07
-1.74285e-07
7.94073e-08
2.16075e-07
-5.59119e-07
2.71082e-07
1.58814e-07
-3.79652e-07
3.08143e-07
5.24538e-08
-2.22195e-07
2.60566e-07
-3.2593e-08
9.06448e-09
-6.80887e-08
1.12582e-07
1.52884e-07
-2.48544e-07
1.28832e-07
2.54271e-07
1.49362e-07
-2.21794e-07
2.5225e-07
6.35514e-08
-1.38205e-07
3.17297e-07
-4.58664e-08
5.52952e-08
3.6005e-07
-2.86392e-07
1.70232e-07
2.59166e-07
-2.44371e-07
1.94172e-07
1.45354e-07
-5.53398e-08
2.36251e-07
7.78356e-08
-5.55805e-08
-1.23005e-08
2.28702e-07
1.19652e-07
-1.4967e-07
1.1715e-07
3.99888e-07
2.12715e-08
-1.73757e-07
2.62877e-07
2.93086e-07
-1.26291e-07
3.26019e-07
1.22841e-07
2.22363e-09
3.6132e-07
6.14505e-08
8.85744e-08
2.63975e-07
1.26104e-08
1.42044e-07
2.1911e-07
2.82642e-09
1.80745e-07
1.38673e-07
2.00242e-07
-5.15325e-09
3.05795e-07
5.6117e-08
-7.51471e-09
4.16163e-07
-1.22761e-07
-2.5251e-08
-6.49304e-08
4.49596e-07
1.03905e-07
-9.01875e-08
3.69748e-07
1.77218e-07
-5.78458e-08
3.07648e-07
2.49158e-07
6.45621e-09
2.84722e-07
2.23309e-07
3.56877e-08
3.06967e-07
1.84822e-07
2.59109e-08
3.23647e-07
5.74893e-08
2.76887e-07
-8.53296e-08
-1.02756e-07
3.56484e-06
3.43825e-06
-2.74666e-06
-2.62447e-06
2.99161e-06
5.10845e-06
-3.96411e-06
1.55909e-06
7.65589e-06
-5.62151e-06
-1.67018e-07
9.07138e-06
-6.38305e-06
-1.8191e-06
8.92969e-06
-6.08058e-06
-2.92598e-06
7.49931e-06
-5.65656e-06
-2.95216e-06
5.19072e-06
-4.03973e-06
3.38709e-06
-2.20839e-06
-2.78715e-06
5.85635e-06
2.82034e-06
-4.20931e-06
5.85839e-06
4.7543e-06
3.18615e-06
7.56485e-06
-6.79296e-07
6.96169e-06
-2.90448e-06
7.93353e-06
-4.95449e-06
7.86907e-06
-4.91923e-06
4.84438e-06
3.03196e-06
-3.74319e-06
7.74085e-06
1.49758e-06
-5.53445e-06
8.27224e-06
1.59992e-06
2.36787e-06
9.96987e-07
-5.49398e-07
7.60402e-07
-2.3941e-06
2.45236e-06
-8.32193e-06
2.18182e-06
-6.98644e-06
3.05038e-06
1.56358e-06
-5.05781e-06
6.59244e-06
1.62467e-07
-6.10895e-06
6.54834e-06
3.18333e-07
2.70416e-06
-1.24447e-07
8.30621e-07
1.34451e-07
-2.26647e-06
-1.13465e-07
-7.8741e-06
5.84827e-07
-8.48579e-06
1.10534e-06
-3.59711e-07
-5.88878e-06
8.41678e-06
-1.45364e-06
-6.56573e-06
7.44153e-06
-2.71908e-06
2.9362e-06
-3.05356e-06
5.52262e-07
-1.93707e-06
-1.22543e-06
-2.33145e-06
-6.3473e-06
-2.59345e-06
-9.16176e-06
-3.93278e-06
-1.9466e-06
-6.16914e-06
7.00192e-06
-2.44299e-06
-5.52701e-06
7.29902e-06
-4.26706e-06
3.49886e-06
-6.52375e-06
2.27916e-07
-6.75524e-06
-1.98812e-06
-6.56519e-06
-8.24975e-06
-7.84189e-06
-7.05058e-06
-4.87285e-06
-2.592e-06
-5.10432e-06
5.61269e-06
-2.58403e-06
-4.50837e-06
5.29539e-06
-4.31784e-06
3.53589e-06
-6.24066e-06
9.44823e-08
-7.71983e-06
-3.62405e-06
-8.3361e-06
-5.02857e-06
-6.38177e-06
-4.64254e-06
-4.44231e-06
-2.70241e-06
-3.63078e-06
3.83496e-06
-3.17979e-06
-2.21633e-06
3.37767e-06
-3.62384e-06
1.80492e-06
-5.02677e-06
-6.00557e-07
-5.74243e-06
-2.36628e-06
-5.98123e-06
-3.2267e-06
-4.58513e-06
-3.35723e-06
-3.3186e-06
-2.34134e-06
-2.90633e-06
-2.19056e-06
7.85978e-08
2.38745e-06
-2.76148e-07
-1.38935e-06
-1.52932e-07
-3.19015e-07
-3.29858e-07
-1.50299e-07
-8.55295e-07
-1.24213e-07
-1.96785e-06
2.60944e-08
2.02003e-06
-1.03137e-06
-4.42803e-07
-6.46903e-07
1.49614e-08
-1.44265e-06
-1.4717e-06
1.04736e-07
1.39289e-06
-6.46421e-07
-2.59286e-07
-1.00895e-06
1.72186e-07
-9.62821e-07
-1.501e-06
2.9198e-07
1.31367e-06
-8.35083e-07
1.55598e-07
-1.08082e-06
3.45404e-09
-6.75464e-07
-1.59766e-06
2.00318e-07
1.68929e-06
-6.0532e-07
2.67675e-07
-1.10445e-06
-1.57254e-07
-7.94698e-07
-1.47913e-06
1.99463e-07
1.48e-06
-4.1635e-07
4.06168e-07
-1.20123e-06
2.31443e-08
-1.06955e-06
-1.28022e-06
4.84865e-08
1.43126e-06
-5.04812e-07
3.92054e-07
-7.61233e-07
2.95474e-07
-1.08913e-06
-1.6286e-06
1.68852e-06
-1.13223e-08
-9.90743e-07
-3.03371e-07
5.76606e-08
-7.53549e-07
1.09824e-07
1.59452e-06
1.16803e-07
5.75631e-07
9.71663e-08
1.30968e-06
7.17598e-08
-1.9086e-07
8.21265e-08
1.12352e-07
-2.46267e-07
6.62804e-08
1.50233e-06
2.60096e-07
3.73352e-07
1.25968e-06
4.50455e-08
-3.78745e-07
2.05785e-08
-3.7486e-07
1.55589e-06
1.522e-07
-5.53664e-08
9.71023e-07
8.74165e-08
-4.66763e-07
-1.96163e-10
-3.0875e-07
1.46938e-06
3.07009e-08
-3.42636e-08
9.45815e-07
1.33266e-08
-4.83189e-07
7.0795e-08
-1.91421e-07
1.37333e-06
1.32034e-07
2.14592e-07
8.14405e-07
-2.81463e-09
-5.29359e-07
1.01404e-07
-2.02324e-07
1.39539e-06
2.27029e-07
-1.03678e-08
8.09772e-07
-7.05655e-08
-5.47837e-07
-2.65989e-08
-3.06381e-07
1.51538e-06
5.30737e-08
8.9878e-08
1.12512e-06
-7.18204e-08
-3.69679e-07
-3.04008e-08
-3.25357e-07
1.38635e-06
3.58021e-07
-2.72331e-09
1.14546e-06
-1.80377e-07
4.61461e-08
-2.55599e-07
1.11558e-07
7.96788e-07
8.42511e-08
-4.34138e-07
1.05889e-07
4.47494e-07
1.51769e-07
-5.52551e-08
4.17773e-08
9.71144e-08
2.39245e-08
2.02253e-08
6.7164e-07
2.44582e-07
-4.64089e-07
2.12426e-07
2.2994e-07
-4.57627e-09
1.30065e-07
7.64366e-08
4.76929e-07
1.0491e-07
-3.93519e-07
-1.30707e-08
1.64369e-07
8.74923e-08
1.34677e-07
3.34188e-08
4.16445e-07
-8.78496e-09
-3.37115e-07
-5.99702e-08
1.08697e-07
4.889e-08
2.56272e-07
2.00627e-08
5.43595e-07
1.67973e-07
-5.0577e-07
-5.78859e-08
7.65011e-08
1.04393e-07
2.62692e-07
1.55589e-07
4.70409e-07
1.72796e-07
-4.85583e-07
2.28783e-09
6.63921e-08
-6.95594e-08
1.69072e-07
1.31235e-07
5.67991e-07
3.79645e-08
-3.43256e-07
2.3542e-07
2.73417e-09
2.65794e-08
9.03738e-08
1.2868e-07
6.46536e-07
-2.89324e-07
3.88094e-08
3.86959e-07
3.74243e-08
4.45503e-08
1.00892e-07
7.79633e-08
-2.16325e-07
-2.00708e-07
-2.32242e-07
5.82612e-08
-1.64472e-07
-2.19294e-07
-2.70168e-08
-8.39694e-09
-1.40198e-07
1.50165e-08
-5.67478e-08
-1.24585e-07
-1.50869e-07
-4.14993e-07
-5.43449e-08
-1.94631e-07
-1.36875e-07
-8.37541e-08
-5.63398e-08
-6.44258e-08
-7.19709e-08
-4.11035e-07
1.59323e-08
-6.44854e-08
-1.28463e-07
-1.65771e-08
3.78499e-08
-5.36264e-08
-3.34844e-08
-3.22223e-07
-2.05443e-08
-1.72909e-08
-3.13782e-08
1.33971e-08
1.02342e-07
-6.99079e-08
9.83136e-09
-4.79181e-07
1.60066e-08
4.61917e-08
-4.4762e-08
4.06774e-08
1.99899e-07
-2.61529e-08
8.47449e-08
-5.34331e-07
9.36845e-09
9.56626e-08
-1.5447e-07
4.32979e-08
1.63445e-07
-3.57863e-08
9.44978e-08
-3.17214e-07
4.49343e-08
1.16213e-07
-7.46582e-08
7.45182e-08
6.68627e-08
-4.61861e-08
-2.08946e-07
6.03224e-08
-1.17811e-09
4.4373e-08
6.42889e-08
4.60098e-08
6.54362e-08
3.04128e-07
-2.22105e-07
-1.53066e-06
1.72059e-07
6.0646e-07
-2.06125e-07
-1.24238e-06
8.81393e-08
-2.84722e-07
-1.06523e-06
-8.54688e-08
3.79666e-07
-1.18332e-07
-9.82781e-07
4.16828e-07
-4.49254e-08
-5.02053e-07
-1.08951e-07
-9.33912e-08
3.43408e-07
-9.98205e-08
-7.7895e-07
2.72736e-07
-3.17582e-08
-8.58892e-08
-1.23147e-07
3.45294e-07
2.83009e-07
-2.29721e-08
-6.82411e-07
1.6329e-07
-5.41665e-08
1.10854e-07
-1.03793e-07
4.27951e-07
2.39151e-07
2.92403e-08
-7.7054e-07
1.32633e-07
-2.353e-08
3.14643e-08
-1.13297e-08
4.08687e-07
2.56034e-07
6.90373e-08
-8.30153e-07
1.47583e-07
-2.65118e-08
-4.29473e-08
-2.19459e-08
4.71944e-07
3.15055e-07
1.17748e-07
-6.80976e-07
2.6194e-07
2.26146e-08
-7.06492e-08
-3.81498e-08
3.66418e-07
2.26137e-07
-4.12913e-07
9.55835e-08
3.18419e-07
-8.28292e-08
5.75431e-08
1.703e-07
3.32418e-08
1.57577e-06
-7.69973e-07
3.25269e-07
2.18964e-06
-3.40158e-07
2.64756e-07
4.48189e-07
1.28235e-07
1.9995e-06
-7.19712e-07
3.09423e-06
-1.10223e-07
6.08808e-07
2.20436e-06
-3.2322e-07
3.94416e-06
2.99563e-07
6.79658e-07
2.68638e-06
1.82601e-07
4.58078e-06
3.44174e-07
3.98646e-07
2.54031e-06
4.92167e-07
4.68092e-06
1.73659e-07
-3.4587e-08
2.49483e-06
6.41013e-07
4.28952e-06
1.75095e-07
-1.15895e-07
2.18827e-06
7.73312e-07
3.61551e-06
4.07609e-07
1.31227e-07
1.74434e-06
5.78983e-07
2.97157e-06
5.48345e-07
6.20036e-07
-1.0898e-07
1.5003e-06
-9.88016e-07
3.901e-08
8.9434e-07
-1.22388e-06
6.14748e-08
1.0054e-06
-1.06543e-06
1.02924e-07
2.4869e-07
-8.80985e-07
-8.39643e-08
3.58774e-07
-5.35165e-07
1.00064e-07
6.32097e-07
-1.21388e-06
1.87767e-07
9.87331e-07
-1.26103e-06
1.29558e-06
-8.1373e-07
3.5125e-08
-2.34931e-07
1.97737e-06
-1.84335e-07
-2.07542e-07
1.54025e-06
-6.73201e-07
-2.55782e-07
2.06133e-06
-1.00756e-06
8.15608e-08
1.23255e-06
-1.32104e-06
5.21298e-07
1.50981e-06
-1.5904e-06
6.52314e-07
1.75498e-06
-1.25216e-06
1.2626e-07
2.25258e-06
-7.34205e-07
1.67229e-06
-1.75329e-07
-7.53886e-08
5.25337e-08
1.91355e-06
8.07547e-08
1.51212e-06
-6.59885e-09
2.14877e-06
2.1759e-07
1.00844e-06
4.88174e-07
1.2393e-06
2.07239e-07
2.03605e-06
-1.61557e-08
2.47645e-06
1.6886e-06
-3.28303e-08
1.96287e-07
-1.12043e-06
-2.71698e-07
1.0821e-07
-8.799e-07
-3.88959e-07
5.3153e-08
-7.03722e-07
-3.93376e-07
-1.5205e-08
-7.01713e-07
-2.8319e-07
3.84523e-09
-3.63738e-07
-1.31026e-07
-7.72607e-08
-8.65629e-07
-3.47911e-07
-1.51254e-07
-1.16252e-06
-3.99416e-07
-1.22546e-06
-2.98859e-07
4.55073e-08
2.47209e-07
-1.39173e-06
-1.14064e-07
2.26009e-07
-1.24705e-06
-2.84773e-07
2.24749e-07
-1.3198e-06
-3.90143e-07
6.76124e-08
-1.37876e-06
-4.86832e-07
-1.09353e-07
-1.28684e-06
-4.90468e-07
-2.58282e-07
-1.49215e-06
-4.77998e-07
-1.67556e-07
-1.63165e-06
-3.597e-07
-1.44058e-06
-2.35692e-07
1.07886e-07
6.59964e-08
4.53142e-07
1.39976e-08
3.17098e-07
2.41462e-07
6.0155e-07
-8.25005e-08
-4.63315e-08
-2.01884e-07
7.18512e-08
-9.15756e-08
4.33429e-07
1.80626e-07
5.72106e-07
3.34835e-07
9.36028e-08
1.77892e-07
-4.48266e-07
8.19076e-08
1.60432e-07
-1.07161e-07
1.01334e-07
1.14723e-07
1.33458e-08
1.19099e-07
-3.72847e-08
2.95813e-07
1.62997e-07
-3.14061e-08
2.12295e-07
1.73893e-07
-6.1458e-08
-6.62763e-08
2.14213e-07
-5.50799e-08
-3.20046e-07
1.94054e-07
-3.78425e-07
6.81541e-08
-1.45455e-08
2.01767e-07
-6.83957e-07
-3.55423e-08
2.53877e-07
-5.09563e-07
6.55497e-08
1.90829e-07
-5.79768e-07
2.66056e-07
-6.08824e-08
-2.56722e-07
3.17428e-07
-1.88666e-07
-4.16338e-07
2.6586e-07
-1.62691e-07
-6.89379e-07
1.18663e-07
-5.81213e-08
-7.84894e-07
-5.93121e-10
-6.69285e-07
-4.51065e-08
4.18017e-08
1.17256e-07
-3.0925e-07
1.55999e-07
-2.31183e-07
2.04996e-07
-2.71927e-08
-1.13094e-07
1.50492e-08
-2.7943e-07
-1.78157e-07
-1.42237e-07
-3.93253e-07
5.22946e-08
-4.07564e-07
-3.57043e-07
7.47454e-08
6.27147e-08
1.00495e-07
3.72406e-08
4.87904e-08
3.40366e-08
1.26736e-07
5.89057e-08
3.1993e-08
1.48166e-07
3.32216e-08
1.4439e-08
2.56825e-07
-6.90953e-08
6.27712e-09
3.71698e-07
-7.28516e-08
7.05675e-08
2.21577e-07
-3.22948e-08
1.15994e-07
9.86821e-08
1.36816e-07
-2.84536e-09
-2.80672e-08
1.06019e-09
9.74149e-08
3.07831e-08
-3.77891e-08
7.22799e-08
6.61827e-08
-1.6824e-08
6.93937e-08
2.07708e-07
2.10248e-08
6.58037e-08
2.28216e-07
4.32041e-08
8.95208e-08
1.60421e-07
3.9783e-08
1.36249e-07
5.62704e-08
5.26297e-09
1.35826e-07
1.3819e-08
1.21261e-07
-3.72273e-09
-2.07141e-08
2.18133e-08
-1.73313e-07
-2.36221e-08
-1.13458e-07
-8.19907e-09
2.67879e-08
4.49663e-08
2.7692e-08
2.56808e-08
-6.93605e-08
-2.32255e-08
-2.08143e-07
-2.09967e-08
-2.74046e-07
-2.48536e-07
-8.29297e-09
7.9253e-08
-2.21662e-07
1.87656e-07
4.46448e-08
-1.18071e-07
3.83341e-07
1.09107e-08
-7.14904e-08
4.30623e-07
-4.18823e-08
1.09236e-09
5.57686e-07
-8.94115e-08
1.44658e-08
6.28049e-07
-1.19647e-07
-5.30455e-08
4.89599e-07
-8.58802e-08
-1.3883e-07
2.6109e-07
-2.67303e-07
8.46555e-08
8.53787e-09
5.40063e-08
-1.34734e-07
-5.25966e-08
3.99417e-08
-1.20949e-07
8.31303e-08
6.94438e-08
-1.06771e-07
2.13493e-07
-9.29372e-09
-8.43286e-08
3.92376e-07
-1.33856e-07
-1.0134e-07
4.00783e-07
-1.44833e-07
-1.23031e-07
1.37206e-07
-8.20515e-08
-1.34876e-07
-5.29674e-08
-1.71256e-07
-1.60088e-07
-2.17645e-08
5.15195e-08
-2.63982e-07
8.29975e-09
-1.91184e-07
5.67878e-09
-7.73592e-08
-3.04825e-08
-2.04743e-08
-7.79295e-08
-1.23255e-07
-8.62688e-08
-3.22847e-07
-6.58613e-08
-4.2935e-07
-4.44933e-07
-4.07364e-08
1.40159e-06
-2.69627e-06
1.48374e-06
-3.41962e-06
7.89636e-07
-4.11851e-06
-6.21482e-07
-4.46976e-06
-1.39028e-06
-4.32741e-06
-1.45753e-06
-3.64072e-06
-1.1337e-06
-3.03875e-06
-2.70498e-06
-3.56485e-07
7.72526e-07
-1.73504e-06
7.27797e-07
-2.03091e-06
4.5391e-07
-2.25332e-06
-2.90082e-07
-2.25395e-06
-8.55138e-07
-2.23458e-06
-9.6319e-07
-2.18656e-06
-6.96087e-07
-2.02091e-06
-1.71768e-06
-2.96268e-07
4.60421e-07
2.73219e-07
1.34274e-07
-2.82453e-07
-5.35731e-07
-6.02881e-07
-4.28545e-07
-2.43294e-07
8.69834e-07
-3.17697e-07
-9.74808e-07
2.17056e-07
1.67451e-06
-7.99287e-07
-3.5665e-07
3.53515e-07
-4.28233e-07
1.97837e-06
1.29574e-07
3.25941e-07
1.03115e-07
-1.14154e-06
1.2097e-06
-1.04064e-06
-6.2145e-07
-1.51819e-06
2.37231e-06
-1.03839e-07
5.42511e-07
-5.67246e-07
5.11333e-08
-3.46711e-07
-6.78456e-07
-2.86429e-06
2.38721e-06
4.01789e-07
6.31281e-07
-4.36447e-07
-6.87145e-07
2.37529e-06
-6.72453e-07
7.0598e-06
3.44296e-06
1.02602e-06
1.23848e-07
-8.29089e-07
4.36685e-06
2.64559e-08
-1.95307e-06
-1.17649e-06
-1.45121e-06
1.12098e-06
-1.88894e-10
-1.15498e-06
2.45878e-06
-3.00939e-08
-1.45163e-06
-2.83023e-07
5.74705e-07
1.04305e-06
6.19926e-08
-1.10699e-06
1.79305e-06
1.75431e-07
-9.76357e-07
1.39714e-07
1.2976e-06
1.27624e-06
-9.34361e-07
1.78257e-06
-4.08022e-07
1.88441e-06
-1.43914e-06
2.16024e-08
-3.12118e-07
8.23782e-08
-1.65908e-06
8.76973e-08
-2.91688e-07
6.84099e-08
-1.53329e-08
5.10133e-07
-1.73502e-07
-1.39716e-06
3.98672e-08
-3.03447e-07
-1.81581e-06
3.6255e-08
-1.43905e-07
-1.77069e-07
7.40571e-07
-8.33065e-07
3.01045e-07
-1.66729e-07
-1.76195e-06
3.60207e-07
-2.50476e-08
-2.17924e-07
8.85536e-07
-5.26686e-07
4.99459e-07
-1.02609e-07
-1.61015e-06
9.7989e-07
-1.36154e-08
1.92496e-06
1.27289e-06
-1.70338e-08
1.20786e-07
-2.6989e-07
-6.46682e-08
-1.55688e-07
-9.65113e-07
-1.3456e-07
-1.03945e-06
-4.82315e-07
-8.11268e-08
-4.31358e-07
-9.64227e-07
-3.439e-07
-8.30283e-07
-2.29769e-07
-5.13684e-07
-7.96177e-07
-1.3353e-07
-4.45454e-07
-1.24921e-06
-3.11261e-07
-5.63774e-07
-7.99422e-08
-1.23896e-07
-1.20849e-06
-3.03547e-07
-1.56804e-06
-2.53325e-07
3.27926e-07
-4.10948e-07
1.88812e-07
8.60986e-08
-1.52739e-07
-8.26683e-07
2.74879e-07
6.04615e-09
-1.56574e-07
2.49183e-07
-3.6362e-07
-2.01524e-07
-2.21346e-07
2.0668e-07
1.76176e-07
-7.42063e-07
3.41365e-07
3.1232e-07
2.44965e-07
7.83273e-09
1.30218e-07
2.89978e-07
7.80792e-08
-4.65129e-07
3.70565e-07
5.51403e-07
2.16521e-07
4.86757e-07
1.66654e-07
4.38105e-07
1.11016e-07
-5.16052e-07
4.74561e-07
5.95914e-07
6.30896e-07
5.22384e-07
3.90051e-07
3.26594e-07
4.6307e-09
-1.88307e-07
1.53523e-08
4.14991e-08
2.85214e-08
-8.05369e-07
1.49817e-07
1.85894e-07
-1.15241e-08
-4.07849e-07
-1.12207e-07
-1.55367e-07
-1.0568e-07
-8.25372e-07
-3.32061e-08
3.65124e-08
1.08104e-08
-4.509e-07
-1.35537e-07
-1.24851e-07
-1.13912e-07
-5.7171e-07
-4.38867e-07
5.44553e-08
-7.02051e-07
-8.44671e-08
-4.13931e-07
1.11935e-07
-2.71801e-08
-3.86212e-08
2.99819e-08
1.89031e-07
-1.62299e-07
4.88692e-08
4.24979e-08
-1.44166e-07
-7.18885e-08
4.16139e-08
-2.5188e-08
6.56495e-08
8.03499e-08
7.46935e-08
-1.45855e-07
1.96426e-07
-1.28828e-07
6.81762e-08
-1.28607e-07
1.11434e-07
1.59607e-07
-6.29044e-08
1.01744e-07
2.39937e-07
7.03443e-08
2.30634e-07
-1.08605e-07
1.56068e-07
1.89732e-07
1.40618e-07
3.04058e-07
1.48825e-07
2.79189e-07
4.74726e-07
7.76493e-08
4.00544e-08
1.78558e-07
1.96065e-07
1.03655e-07
1.18963e-07
3.05537e-08
-3.81297e-07
3.64272e-08
-1.78173e-08
6.05878e-08
1.10793e-07
3.46088e-08
-1.62605e-07
-5.7597e-08
-6.32403e-07
5.59861e-08
-1.41882e-08
-2.70754e-08
9.97917e-08
2.68996e-08
-1.61457e-07
-1.84599e-08
-5.12081e-07
6.54777e-08
-7.78475e-08
1.16828e-07
-1.29802e-07
-3.24026e-07
-4.51072e-07
-1.03336e-08
1.95125e-07
4.59802e-08
-2.75358e-07
-4.377e-08
-1.00161e-07
1.71098e-08
-5.58314e-08
-2.99049e-07
7.66481e-09
-3.9001e-07
-3.47189e-08
3.793e-07
-2.98014e-07
-4.15674e-08
1.02315e-07
-5.45865e-08
-2.309e-07
-2.03025e-07
-1.45517e-07
5.35416e-07
-2.39616e-07
-1.35047e-07
3.70328e-07
-1.72021e-07
1.09324e-07
-2.05717e-07
-1.20792e-07
4.14576e-07
-2.76214e-07
-1.38461e-07
2.23329e-07
1.31881e-08
1.56707e-08
-1.28879e-07
-1.59345e-07
4.98766e-07
-1.47947e-07
-1.42811e-07
1.41764e-07
-1.08803e-07
-4.09665e-07
-2.01137e-07
-1.75589e-07
3.9753e-07
-1.81079e-07
-7.05182e-08
-2.55282e-07
-4.19396e-08
-8.81236e-07
-2.22613e-07
-1.28201e-07
2.04212e-07
-2.08855e-07
-6.54352e-10
-2.45178e-07
3.39591e-08
-7.97023e-07
-3.16343e-07
1.60432e-08
-2.04811e-07
-2.6379e-07
-5.3565e-07
-2.27344e-06
6.70386e-07
-2.69871e-07
-1.5843e-06
2.18328e-07
-2.23167e-07
9.41464e-08
-2.86938e-07
-3.22451e-06
7.40329e-07
-2.09554e-06
2.11359e-07
-7.75956e-08
-3.61102e-06
2.08266e-07
-2.01769e-06
-7.93016e-08
-4.33944e-07
-4.37823e-06
-1.62395e-07
-2.42398e-06
-1.85853e-07
-1.85051e-07
-4.16975e-06
-5.20166e-07
-2.28242e-06
-2.80822e-07
-1.67262e-07
-3.99474e-06
-6.48827e-07
-2.34263e-06
-1.97069e-07
1.1578e-07
-3.48515e-06
-3.46199e-07
-2.23106e-06
3.28134e-08
2.07673e-07
-3.04023e-06
-1.91914e-06
-3.16054e-07
-1.77298e-06
1.81203e-06
-9.99074e-08
-1.44891e-06
1.23227e-06
3.56745e-07
-2.02501e-06
1.56802e-06
3.48051e-07
-1.82083e-06
1.82931e-06
2.2709e-07
-1.97702e-06
2.09776e-06
4.38209e-07
-2.25377e-06
2.04259e-06
4.95457e-08
-2.06508e-06
2.4538e-06
-2.63328e-06
2.81282e-06
-4.94727e-07
-1.09876e-06
-5.09969e-07
-2.41862e-07
-3.36825e-07
-1.36537e-06
7.37776e-08
-5.6817e-07
-1.77279e-06
1.74397e-07
-5.09774e-07
-1.41188e-06
3.84495e-07
-2.73179e-07
-1.9142e-06
4.99138e-07
-8.38688e-07
-1.52982e-06
1.10869e-07
-1.00623e-06
-6.7055e-07
-1.9231e-06
-2.45512e-07
-2.57299e-07
-9.28616e-07
3.2017e-08
-1.20811e-06
8.97876e-09
-8.76592e-07
-5.028e-08
-8.95944e-07
-1.21603e-08
-9.55263e-07
6.92893e-08
-1.27516e-06
1.82763e-07
-1.29185e-06
-1.06645e-06
5.0499e-09
1.63608e-06
2.63052e-07
-1.66136e-07
1.5365e-06
-1.34625e-07
-6.73354e-08
1.44065e-06
2.8173e-08
-2.20148e-08
1.45364e-06
3.30207e-07
-8.12533e-08
1.81278e-06
3.44107e-07