/*--------------------------------*- C++ -*----------------------------------*\
| =========                 |                                                 |
| \\      /  F ield         | OpenFOAM: The Open Source CFD Toolbox           |
|  \\    /   O peration     | Version:  4.x                                   |
|   \\  /    A nd           | Web:      www.OpenFOAM.org                      |
|    \\/     M anipulation  |                                                 |
\*---------------------------------------------------------------------------*/
FoamFile
{
    version     2.0;
    format      ascii;
    class       volScalarField;
    location    "1";
    object      rho;
}
// * * * * * * * * * * * * * * * * * * * * * * * * * * * * * * * * * * * * * //

dimensions      [1 -3 0 0 0 0 0];

internalField   nonuniform List<scalar> 
960
(
6740.69
6683.52
6662.88
6662.36
6654.71
6670.1
6693.99
6748.76
6705.72
6671.65
6644.47
6649.81
6635.66
6652.45
6659.14
6700.32
6674.56
6666.18
6657.96
6638.19
6635.06
6671.71
6646.94
6659.4
6671.88
6649.42
6647.81
6660.15
6641.05
6636.54
6660.44
6660.67
6689.76
6673.34
6648.08
6667.44
6661.94
6671.65
6656.96
6659.17
6681.71
6668.19
6663.75
6660.44
6667.01
6664.04
6654.93
6677.89
6710.93
6681.95
6671.32
6659.59
6673.7
6670.79
6678.71
6703.77
6745.6
6705.34
6685.14
6695.74
6660.76
6702.71
6727.04
6745.23
6714.37
6700.97
6701.46
6703.08
6693
6705.89
6715.72
6721.08
6708.1
6695.78
6704.64
6696.17
6681.22
6699.93
6703.46
6712.27
6708.65
6703.74
6708.32
6705.47
6696.75
6689.66
6701.3
6703.82
6703.21
6702.72
6701.1
6702.76
6705.31
6696
6697.39
6703.57
6701.18
6687.71
6704.28
6696.05
6705.09
6695.76
6696.88
6695.88
6702.67
6697.62
6695.26
6694.52
6701.96
6700.86
6702.98
6708.26
6707.31
6701.73
6692.22
6690.96
6695.59
6696.28
6703.5
6707.02
6709.93
6704.39
6702.43
6684.47
6674.41
6704.98
6693.05
6712.24
5656.9
5747.95
5764.49
5788.63
5786.99
5753.05
5707.44
5647.81
5738.72
5810.47
5837.84
5861.27
5891.18
5840.87
5802.66
5734.25
5767.19
5834.43
5873.8
5910.93
5926.46
5872.88
5834.21
5788.1
5822.71
5881.6
5919.75
5941.07
5938.6
5910.94
5872.96
5807.92
5823.73
5897.97
5918.4
5946.01
5936.67
5905.19
5884.56
5820.78
5808.79
5870.36
5898.84
5916.48
5906.79
5885.8
5861.44
5792
5769.67
5841.48
5876.75
5885.1
5884.65
5868.99
5832.28
5758.09
5727.48
5780.71
5810.24
5846.38
5867.68
5808.76
5767.25
5708.74
2782.36
2764.29
2774.95
2781.84
2793.54
2774.95
2779.5
2804.47
2766.45
2780.38
2822.97
2845.59
2836.46
2826.85
2791.3
2777.41
2775.23
2831.37
2882.98
2903.96
2891.73
2884.96
2830.66
2772.64
2799.78
2867.07
2908.78
2947.41
2930.24
2905.62
2855.31
2798.24
2780.53
2841.26
2898.82
2933.6
2923.99
2891.85
2840.23
2776.17
2768.83
2816.93
2862.23
2880.91
2905.62
2866.98
2821.21
2771.74
2763.57
2783.79
2811.11
2820.2
2839.04
2817.7
2777.03
2767.08
2774.78
2763.36
2772.46
2761.78
2755.47
2763.63
2770.84
2786.06
2065.29
2050
2015.66
2003.03
2005.85
2042.59
2067.91
2084.29
2051.7
1997.85
1953.68
1933.27
1926.24
1970.67
2015.5
2069.65
2034.47
1961.33
1905.36
1879.26
1871.97
1910.68
1961.03
2037.93
2015.21
1947.36
1870.73
1838.34
1859.27
1892.85
1943.14
2027.85
2038.08
1957.05
1875.75
1853.69
1852.07
1897.66
1968.37
2036.28
2067.18
1994.91
1928.51
1907.21
1900.65
1947.26
2002.79
2066.56
2093.37
2043.54
1993.85
1968.3
1975.19
2003.72
2056.02
2104.52
2120.16
2091.62
2061.41
2047.73
2050.99
2076.7
2107.98
2132.28
133.954
83.0947
57.5218
47.5984
51.3717
65.6411
96.8581
142.974
90.423
45.5203
18.4789
9.15942
13.1312
22.0946
46.2894
94.7381
65.3569
20.0023
0.975877
0.569975
1.31429
2.01962
24.4505
65.6159
51.1793
15.1139
3.23149
1.01972
-0.722436
1.53744
14.6677
53.3072
51.9524
11.998
2.14565
0.30032
-0.285922
0.361256
7.49449
56.1833
67.7977
25.4618
4.49748
1.40746
1.54702
1.57717
27.3762
74.2037
96.499
50.1569
24.8691
12.2413
11.237
26.8602
54.7758
102.593
139.788
89.2026
62.998
48.5468
53.1555
68.9785
99.4093
149.542
6652.08
6727.28
6752.41
6645.25
6725.25
6757.59
6650.76
6741.08
6723.23
6661.79
6729.82
6713.71
6634.8
6735.14
6722.66
6658.27
6734.25
6734.98
6649.89
6730.04
6749.67
6649.86
6711.38
6748.65
6641.52
6695.9
6715.35
6654.95
6706.37
6716.77
6687.65
6708.43
6713.63
6698.69
6709.95
6710.06
6670.6
6712.71
6705.98
6684.05
6707.65
6710.17
6677.89
6709.38
6713.68
6674.9
6714.53
6721.23
5928.62
5750.26
5674.34
5891.73
5726.32
5675.08
5822.11
5691.07
5703.91
5802.5
5706.99
5739.33
5860.73
5707.08
5745.59
5833.33
5729.1
5740.28
5857.94
5739.52
5723.6
5880.78
5770.22
5735.56
2685.07
2730.54
2798.01
2701.26
2760.43
2794.49
2713.64
2768.74
2775.23
2718.01
2759.22
2776.99
2719.91
2769.05
2772.52
2719.86
2759.95
2769.83
2711.44
2759.52
2783.38
2705.4
2742.57
2779.27
2192.68
2166.72
2057.64
2198.07
2150.81
2081.56
2186.23
2139.16
2084.92
2184.67
2153.68
2090.53
2192.62
2158.79
2102.35
2206.35
2166.22
2115.87
2209.1
2174.52
2125.61
2213.77
2188.46
2147.92
259.149
226.991
195.874
261.775
217.661
157.57
269.387
217.078
136.425
271.583
212.736
122.37
272.607
212.106
122.694
282.671
224.616
142.002
286.415
240.364
167.89
285.813
253.671
198.759
6755.97
6749.73
6725.54
6730.66
6712.52
6743.93
6759.61
6752.43
6706.21
6728.71
6725.08
6750.61
6744.25
6743.38
6732.74
6707.81
6654.95
6660.2
6640.81
6652.28
6650.47
6638.48
6639.14
6644.61
6711.24
6712.3
6711.55
6708.25
6704.94
6709.62
6711.77
6713.53
6698.3
6710.13
6709.42
6712.7
6705.49
6708.42
6704.02
6700.76
6655.55
6678.06
6670.91
6704.86
6690.89
6656.46
6650.42
6656.74
5756.96
5756.22
5757.14
5766.6
5774.58
5748.78
5737.2
5735
5816.09
5787.69
5745.79
5720.48
5717.1
5741.54
5760.67
5772.13
5922.85
5900.83
5869.56
5808.69
5848.08
5905.92
5902.72
5871.61
2782.15
2768.88
2770.83
2765.68
2754.16
2778.75
2785.84
2783.88
2741.84
2764.97
2759.9
2764.63
2770.52
2770.92
2757.2
2736.58
2715.79
2729.42
2722.35
2723.84
2723.32
2712.89
2705.23
2701.68
2152.85
2137.18
2123.05
2121.1
2120.59
2129.99
2147.82
2162.17
2194.49
2180.39
2172.08
2168.96
2164.96
2180.04
2193.96
2203.72
2205.31
2205.38
2202
2206.7
2208.62
2222.82
2221.63
2216.15
186.161
145.614
123.351
109.252
115.312
133.485
163.981
199.123
237.928
214.26
205.612
198.742
204.59
215.248
235.527
254.228
275.987
266.425
268.164
262.32
267.287
275.146
290.244
291.893
6762.6
6729.64
6643.18
6753.14
6736.2
6648.94
6715.14
6735.52
6682.96
6705.02
6745.62
6763.41
6717.17
6733.16
6445.86
6729.12
6737.08
6666.77
6740.9
6733.36
6660.84
6750.52
6724.21
6656.36
6718.98
6703.56
6644.5
6712.39
6704.08
6662.86
6712.88
6715.91
6707.71
6710.16
6720.97
6747.77
6703.88
6703.86
6687.52
6709.51
6703.94
6676.25
6710.78
6706.58
6679.15
6714.45
6701.4
6657.2
5673.89
5736.3
5911.33
5694.73
5729.26
5884.71
5725.14
5677.12
5793.95
5748.78
5704.47
5825.92
5740.88
5680.93
5797.82
5733.22
5734.92
5855.47
5728.23
5743.48
5839.83
5726.68
5762.96
5878.32
2809.09
2748.69
2690.99
2790.56
2759.99
2719.61
2766.19
2773.68
2725.68
2765.48
2780.41
2735.74
2763.68
2750.79
2728.11
2771.77
2767.08
2739.75
2779.22
2758.98
2731.27
2797.97
2761.39
2702.16
2100.87
2161.61
2182.92
2099.29
2153.88
2184.8
2090.3
2137.71
2185.58
2094.02
2146.46
2177.58
2094.69
2154.25
2183.68
2112.46
2171.9
2197.81
2135.93
2185.08
2215.5
2153.5
2196.81
2212.76
186.712
221.937
246.429
155.577
211.452
248.168
131.552
204.823
248.982
117.883
193.379
248.547
122.582
199.687
255.646
140.177
209.417
264.842
164.147
227.493
270.387
200.703
251.437
286.65
6650.84
6661.57
6639.49
6630.16
6631.02
6635.88
6646.32
6646.84
6729.45
6745.82
6745.35
6757.17
6763.97
6744.63
6745.42
6734.26
6760.91
6746.37
6722.63
6718.17
6725.1
6734.81
6760.65
6758.72
6652.67
6697.62
6697.66
6673.16
6667.75
6671.41
6627.35
6622.63
6703.42
6711.16
6716.52
6711.69
6710.63
6714.54
6691.64
6676.83
6718.16
6714.12
6710.07
6712.51
6712.79
6719.06
6716.4
6710.33
5902.7
5820.89
5813.07
5819.35
5837.4
5828.74
5910.63
5933.12
5725.25
5685.01
5636.92
5634.84
5632.76
5631.71
5707.91
5764.05
5657.21
5669.11
5693.4
5691.97
5692.05
5661.91
5646.47
5672.4
2675.85
2723.12
2726.93
2726.64
2729.45
2708.02
2688.98
2684.69
2753.62
2786.16
2796.61
2780.43
2792.93
2786.05
2752.41
2721.35
2812.3
2787.9
2774.32
2776.27
2775.79
2793.8
2815.62
2806.54
2171.38
2173.33
2157.52
2154.72
2156.2
2167.01
2177.22
2180.59
2151.7
2116.25
2096.93
2113.23
2111.43
2114.23
2150.62
2179.95
2074.78
2070.54
2058.77
2062.72
2063.26
2062.22
2078.78
2106.31
254.638
233.809
231.029
232.669
240.595
247.16
251.418
258.329
221.406
205.119
197.997
188.416
193.133
206.621
213.949
224.379
182.273
146.887
125.174
111.356
115.011
135.38
160.503
188.448
)
;

boundaryField
{
    atmosphere
    {
        type            calculated;
        value           uniform 1.5;
    }
    walls
    {
        type            calculated;
        value           nonuniform List<scalar> 
351
(
6740.69
6705.72
6674.56
6671.88
6689.76
6681.71
6710.93
6745.6
6683.52
6671.65
6666.18
6649.42
6673.34
6668.19
6681.95
6705.34
6662.88
6644.47
6657.96
6647.81
6648.08
6663.75
6671.32
6685.14
6662.36
6649.81
6638.19
6660.15
6667.44
6660.44
6659.59
6695.74
6654.71
6635.66
6635.06
6641.05
6661.94
6667.01
6673.7
6660.76
6670.1
6652.45
6671.71
6636.54
6671.65
6664.04
6670.79
6702.71
6693.99
6659.14
6646.94
6660.44
6656.96
6654.93
6678.71
6727.04
6748.76
6700.32
6659.4
6660.67
6659.17
6677.89
6703.77
6745.23
6652.08
6645.25
6650.76
6661.79
6634.8
6658.27
6649.89
6649.86
6727.28
6725.25
6741.08
6729.82
6735.14
6734.25
6730.04
6711.38
6752.41
6757.59
6723.23
6713.71
6722.66
6734.98
6749.67
6748.65
6755.97
6706.21
6654.95
6749.73
6728.71
6660.2
6725.54
6725.08
6640.81
6730.66
6750.61
6652.28
6712.52
6744.25
6650.47
6743.93
6743.38
6638.48
6759.61
6732.74
6639.14
6752.43
6707.81
6644.61
6762.6
6753.14
6715.14
6705.02
6717.17
6729.12
6740.9
6750.52
6729.64
6736.2
6735.52
6745.62
6733.16
6737.08
6733.36
6724.21
6643.18
6648.94
6682.96
6763.41
6445.86
6666.77
6660.84
6656.36
6650.84
6729.45
6760.91
6661.57
6745.82
6746.37
6639.49
6745.35
6722.63
6630.16
6757.17
6718.17
6631.02
6763.97
6725.1
6635.88
6744.63
6734.81
6646.32
6745.42
6760.65
6646.84
6734.26
6758.72
6652.08
6645.25
6650.76
6661.79
6634.8
6658.27
6649.89
6649.86
6641.52
6654.95
6687.65
6698.69
6670.6
6684.05
6677.89
6674.9
5928.62
5891.73
5822.11
5802.5
5860.73
5833.33
5857.94
5880.78
2685.07
2701.26
2713.64
2718.01
2719.91
2719.86
2711.44
2705.4
2192.68
2198.07
2186.23
2184.67
2192.62
2206.35
2209.1
2213.77
259.149
261.775
269.387
271.583
272.607
282.671
286.415
285.813
6654.95
6655.55
5922.85
2715.79
2205.31
275.987
6660.2
6678.06
5900.83
2729.42
2205.38
266.425
6640.81
6670.91
5869.56
2722.35
2202
268.164
6652.28
6704.86
5808.69
2723.84
2206.7
262.32
6650.47
6690.89
5848.08
2723.32
2208.62
267.287
6638.48
6656.46
5905.92
2712.89
2222.82
275.146
6639.14
6650.42
5902.72
2705.23
2221.63
290.244
6644.61
6656.74
5871.61
2701.68
2216.15
291.893
6643.18
6648.94
6682.96
6763.41
6445.86
6666.77
6660.84
6656.36
6644.5
6662.86
6707.71
6747.77
6687.52
6676.25
6679.15
6657.2
5911.33
5884.71
5793.95
5825.92
5797.82
5855.47
5839.83
5878.32
2690.99
2719.61
2725.68
2735.74
2739.75
2731.27
2702.16
2182.92
2184.8
2185.58
2177.58
2183.68
2197.81
2215.5
2212.76
246.429
248.168
248.982
248.547
255.646
264.842
270.387
286.65
6650.84
6652.67
5902.7
2675.85
2171.38
254.638
6661.57
6697.62
5820.89
2723.12
2173.33
233.809
6639.49
6697.66
5813.07
2726.93
2157.52
231.029
6630.16
6673.16
5819.35
2726.64
2154.72
232.669
6631.02
6667.75
5837.4
2729.45
2156.2
240.595
6635.88
6671.41
5828.74
2708.02
2167.01
247.16
6646.32
6627.35
5910.63
2688.98
2177.22
251.418
6646.84
6622.63
5933.12
2684.69
2180.59
258.329
)
;
    }
    outlet
    {
        type            calculated;
        value           uniform 2728.11;
    }
}


// ************************************************************************* //
