/*--------------------------------*- C++ -*----------------------------------*\
| =========                 |                                                 |
| \\      /  F ield         | OpenFOAM: The Open Source CFD Toolbox           |
|  \\    /   O peration     | Version:  4.x                                   |
|   \\  /    A nd           | Web:      www.OpenFOAM.org                      |
|    \\/     M anipulation  |                                                 |
\*---------------------------------------------------------------------------*/
FoamFile
{
    version     2.0;
    format      ascii;
    class       surfaceScalarField;
    location    "1";
    object      surfaceTensionForce;
}
// * * * * * * * * * * * * * * * * * * * * * * * * * * * * * * * * * * * * * //

dimensions      [1 -2 -2 0 0 0 0];

internalField   nonuniform List<scalar> 
2624
(
0.607932
0.592593
-0.304394
1.17493
0.490482
0.168903
0.11087
0.0326317
-0.679904
-0.0447586
-0.0765822
-0.0926515
-0.499573
0.0452505
0.0232106
-0.15689
-0.552349
-0.15879
0.148367
0.0560258
-0.451161
-0.220903
0.252969
-0.324895
-0.931451
-0.940074
0.27962
-1.20178
-0.236564
0.696068
-0.0960615
0.26602
0.0814587
0.238515
0.218424
-0.444499
-0.476122
-0.0221227
0.069892
-2.91252e-05
0.0518265
-0.0220309
-0.232531
0.259732
0.0919793
0.127554
-0.0798485
-0.299316
0.111431
-0.177702
-0.0809592
0.0189864
-0.109975
-0.010661
-0.175378
0.163093
-0.571435
-0.410456
0.0318765
0.0379405
-0.683486
-0.532998
-0.0959135
0.0646052
-0.369216
0.116514
0.0181138
-0.299449
-0.09675
-0.0377328
-0.258297
0.076764
-0.0110363
0.068177
-0.153766
-0.0631496
0.131769
0.0445372
0.0978663
-0.00411911
0.0102606
-0.273016
-0.416014
0.0330621
0.0549159
-0.0389778
-0.35903
-0.126682
-0.0437615
-0.378675
0.00313123
0.0024095
0.0149519
0.0109413
0.137071
-0.0303339
0.0163673
0.109653
0.0556501
0.00606696
-0.00694298
0.070576
-0.024063
0.166829
0.161404
-0.024739
-0.170157
-0.260281
-0.0782913
-0.0715973
0.0374969
-0.322291
-0.0627526
-0.0907589
0.116482
0.113236
0.00278359
0.0271404
-0.0172666
0.0353985
0.0650986
-0.115643
-0.0300883
-0.462457
0.11394
0.0704776
0.0237779
-0.194361
-0.00828782
0.0823801
0.0146736
0.118124
-0.189293
-0.0351579
-0.0952379
-0.105842
-0.407236
0.0294912
0.0817025
0.111686
0.152082
0.0955647
0.0500418
-0.0867313
-0.245226
0.051692
-0.0454626
-0.136945
0.103403
0.0352687
0.0628204
0.0823214
-0.155486
-0.00572706
-0.283283
-0.130266
-0.689714
-0.512232
0.20067
-0.180048
-0.396262
-0.295864
0.0752278
-0.128751
0.0992488
-0.23315
-0.0773809
0.139017
-0.00377284
-0.0189273
0.0245045
0.21036
0.0968749
-0.00251289
-0.0267967
-0.259966
0.0978918
-0.303635
-0.403971
-0.380962
-0.38376
-0.490682
-0.37803
0.275329
-0.260259
0.118289
0.196058
0.0764262
-0.332838
-0.668419
-0.124053
-0.156021
-0.482512
0.150705
0.107869
-0.147557
-0.127471
0.112474
-0.244576
-0.144841
-0.274302
-0.460153
-0.302066
-0.376211
-0.226582
0.0489347
0.362046
0.299103
-0.0295862
-0.0284955
5.83691
0.000166059
0.0276908
-0.00148991
0.000243566
-0.608835
-0.00737596
-0.00401065
-0.00467841
-1.68598
-0.0188918
0.00658026
0.0050754
-0.839581
0.00653025
-0.0162829
0.000669555
-1.49981
-0.0119383
0.0217977
0.0176665
-0.896806
0.0146796
0.041553
-0.0259612
2.94337
-0.00117544
-0.0712332
7.63762
-0.0102363
-0.0695449
0.0124273
0.000648483
0.949614
0.0205221
-0.00575851
-0.00523888
-2.16417
0.00533323
0.00450196
-0.783931
-0.00118593
-0.00121309
-1.23286
-0.00125224
-0.000530437
-2.43957
-0.0128108
0.00276943
-2.27354
0.0156731
0.00799907
-1.00509
-0.0114246
2.58713
0.000726215
-0.00203933
0.00366793
0.073202
0.00853856
0.0025447
0.000160424
-0.792688
-0.00844061
-0.00230519
0.105177
0.00137538
0.0105062
-0.497327
0.00198973
0.00249513
-2.13692
-0.0054801
-0.00140529
-1.41826
-0.00774398
0.00398684
-1.29973
0.00223491
-1.30451
-0.00315471
-0.00130347
0.0031847
-1.10304
-0.0065859
0.00120305
0.00207471
-0.675299
0.00426104
0.00011566
-1.10351
0.00029313
-0.0080036
-0.965205
-0.00424551
0.00399107
-0.304599
-0.000122509
-0.000145822
-1.17535
-0.00959143
-0.000145104
-1.54914
0.00952441
-1.11669
-0.00723504
0.000621505
-0.00598543
-1.72102
-0.0134343
-0.000122669
-9.03655e-06
-1.59675
-0.00222708
0.00103341
-1.12172
0.0106573
3.6847e-05
-1.23246
-0.011839
-0.00148395
0.0857962
-0.000206406
0.00181719
-0.581785
0.00010751
-0.00383343
-1.61555
-0.00436697
-1.48304
-0.00845833
0.00492294
0.00247042
-0.507272
-0.00127798
-0.000137685
-0.000312505
-1.5259
-0.000364453
0.000555478
-1.17053
0.00329654
-0.000384961
-0.80714
-0.00423112
-0.00230773
-0.584934
-0.00466967
-0.00103447
-1.06686
0.00209445
-0.000926296
-1.02852
-0.000976321
0.145907
0.00151372
0.00604547
0.00985928
1.57598
0.0192476
0.000497113
-0.0131836
-1.3882
8.29814e-05
-0.00581379
-1.82089
0.00473615
-0.000507908
-0.909215
-0.00286334
-0.00331513
-1.10792
-0.00759185
-0.00722024
-1.42662
0.00138157
-0.000609216
-0.812455
0.0388481
1.4482
0.0073351
-0.00632081
3.51975
0.0983057
0.000298791
0.00294103
0.0868797
-0.000206336
0.00537809
-0.148644
0.00825708
-0.000113631
-1.48185
-0.00963049
-0.00528325
-1.83036
-0.00693514
0.00207261
-0.181607
0.00407685
0.0385327
1.397
0.015548
4.39894
-0.0173762
-0.00381978
-0.373634
-0.354052
5.49715
-0.269036
-0.0970554
0.0143698
0.0491255
3.95486
0.21332
0.0157386
0.11761
1.56529
0.0056991
-0.00705437
0.170379
0.7279
-0.0182102
-0.0133391
0.325414
0.160022
0.0505375
0.137844
0.178546
2.08144
0.0825951
0.334247
-0.0624308
4.94074
0.146101
-0.574464
4.09616
-0.387681
-0.3376
0.02727
-0.0170959
5.13423
0.182873
0.174055
0.0818841
0.898228
0.0554446
-0.0159795
-1.89913
-0.00654094
0.0839924
-3.32881
-0.167932
0.150778
-6.8785
-0.00548314
0.0680048
-4.07058
-0.0738016
-0.0555406
1.76054
-0.0456754
5.1003
0.0768894
0.087338
0.0361741
1.81859
0.113677
0.0654106
0.0432984
-3.34903
0.121142
0.0378959
-6.12262
-0.0218953
0.012115
-7.74474
-0.182493
0.0418113
-9.74502
-0.0719701
0.164071
-7.87302
-0.0499182
0.0774154
-2.45884
0.022822
1.63028
-0.0145748
0.0891282
0.0141368
-0.998273
0.0282778
0.0762558
0.076554
-5.5761
0.067012
0.0215391
-9.04106
0.000737316
0.0756857
-11.6685
-0.000684257
-0.0405459
-8.42855
-0.120132
-0.0600973
-7.83989
-0.112442
0.0130361
-5.46113
0.028022
-0.0366419
-0.00549107
0.192215
-0.0191778
-0.0340952
-0.0264832
0.0457073
-0.0982938
-5.848
0.151797
-0.0625154
-8.79727
-0.128298
-0.138296
-11.2423
-0.0175824
-0.0204688
-8.28227
-0.0451265
-0.0471268
-6.24126
-0.155041
-0.098133
-5.40857
-0.0372817
-0.363318
-0.021866
0.0889501
0.0336294
1.89723
0.0510757
0.0627403
-0.0522763
-2.73699
0.0528356
-0.049094
-5.58811
-0.0165845
-0.0604465
-6.32278
-0.0308885
-0.0257108
-7.80563
-0.0366255
-0.0246237
-5.60119
-0.0858942
-0.0437775
-2.32916
0.020587
1.98039
0.0562119
-0.0464769
0.168101
4.72036
0.115917
0.0712961
0.0243292
0.960028
0.026004
-0.0302678
-2.55466
-0.015333
-0.0176266
-1.8352
-0.0407317
-0.0344771
-4.41909
-0.0416928
-0.0696088
-2.75104
0.0278497
0.0389191
2.14444
0.161985
3.85674
0.0361256
-0.205739
3.94815
-0.0825416
-0.190735
-0.0116302
3.79918
0.035811
0.0563328
2.50134
0.0240965
-0.00575714
0.612643
-0.0515465
-0.101714
-0.217236
-0.0966233
0.0215412
2.40645
0.0960884
0.196699
4.51402
0.133321
2.59958
-0.137766
-0.124342
0.00301725
-0.00669999
2.13719
0.0708949
0.158376
-0.0248412
-0.0350692
1.07373
-0.0203002
-0.0118371
-0.0538477
0.156966
-0.000490681
-0.00952
-0.0309464
0.284303
0.00381338
0.0208395
-0.0186847
0.922671
0.00921331
-0.00745152
-0.0632216
-0.0402959
-0.0162067
0.0619059
-0.0145163
-0.0806633
0.0275906
-0.0668308
1.60214
0.0252948
0.00971516
-0.026295
-0.0107262
0.729849
-0.00799755
-0.0643928
-0.0631358
0.158436
0.00513744
0.0935367
0.430671
-0.00280239
0.124594
1.10894
-0.00166269
0.0718336
1.71823
0.0455849
0.0912295
0.467984
0.0208561
-0.0342278
-0.198793
0.0151173
0.301524
6.9955e-05
-0.0372086
-0.0241006
0.342851
-0.000982241
0.094518
0.0446396
0.849427
0.079147
0.0947761
1.37279
-0.0436061
0.18395
1.7524
-0.016043
0.106131
2.27898
-0.108194
0.0557715
1.97527
0.0575344
0.030348
1.31742
-0.0415848
0.14557
0.00946906
0.0585423
0.0172875
0.564198
0.00924764
0.13935
-0.0322003
2.05372
0.187975
-0.0283565
3.07417
-0.0942241
-0.0683131
2.96495
-0.0811669
0.010701
1.89963
-0.117279
-0.0222566
2.09306
-0.0323347
-0.0177095
1.72187
0.022032
0.445801
0.0311752
-0.0248986
0.0122559
-0.0308946
0.00586149
0.124547
-0.00594476
1.07134
0.143162
-0.0968246
2.82505
-0.0231023
-0.186081
2.86159
-0.126917
-0.0954505
2.80616
-0.104712
-0.0700834
1.73224
0.00999371
-0.00698347
0.303293
0.00421193
0.17584
0.0141448
-0.0478973
0.00826018
-0.101578
-0.00131396
0.0256156
0.0333009
0.388003
0.0398903
-0.0180142
1.62523
0.0899473
-0.0607592
1.6885
-0.14331
-0.203884
1.83825
-0.0516605
-0.0672942
1.01631
0.0617075
0.0625501
0.233983
0.00582076
0.143139
-0.00021145
-0.0218013
0.00191456
0.67399
-0.00303926
-0.0327612
0.0250264
0.109542
-0.00634118
0.040886
0.890359
0.0117069
0.0714887
1.22156
-0.0176596
0.0667004
0.00332973
0.0479964
0.0547389
0.437351
0.0146165
0.00731745
0.382185
0.0139304
0.662944
-0.0017525
-0.0049938
0.743667
0.0183885
0.0200494
-0.00875671
0.712546
-0.00553093
0.0142602
0.198622
-0.000154484
0.0102142
0.403487
-0.00388347
-0.0196131
0.23508
0.00196651
-0.012693
0.102106
-0.0136342
0.0133973
0.260314
0.00541052
0.79803
-0.00316236
0.0569522
-0.0266425
-0.0235284
10.253
-0.145754
-0.0902536
-0.00729579
0.0128628
13.6693
0.0340033
0.0210214
0.157503
21.6408
-0.0335486
-0.00657447
0.270871
24.5876
-0.0541447
0.0184296
0.313212
20.6421
0.00861822
0.105557
0.0867309
16.1986
0.037164
0.0337968
-0.0833052
9.11832
0.0261772
-0.0482791
6.18597
-0.0634042
-0.072278
0.0382671
-0.00213564
12.8246
0.0266511
0.11966
0.15965
26.4543
0.0852679
0.283632
55.2246
0.0343384
0.397925
80.0484
-0.203058
0.49396
62.2794
-0.116612
0.365531
48.8401
0.00698851
0.197928
28.6769
-0.00514147
10.9786
0.043712
0.267763
0.0432909
19.5393
0.0137557
0.357778
0.3423
55.33
0.20862
0.477119
165.33
0.0588382
0.409676
205.818
-0.359465
0.13703
158.631
-0.382897
0.169626
147.092
-0.300809
0.139684
44.8604
0.0269129
18.5186
-0.0123625
0.62991
-0.032682
23.8297
-0.0482921
0.699809
-0.256664
53.3787
0.247584
-0.151618
93.0583
-0.179779
-0.119138
204.285
-0.27871
0.0599158
283.368
-0.417049
-0.00129362
150.994
-0.438874
-0.0948775
59.8677
-0.0151706
22.237
-0.0653307
0.271337
0.0315132
23.1435
0.0459924
0.732953
-0.187009
67.8474
0.266798
-0.525109
125.382
-0.0205901
-0.514226
270.412
-0.415699
-0.409539
278.946
-0.479972
-0.364935
220.912
-0.266126
-0.148147
104.4
-0.0300612
22.3055
-0.0500588
0.0220014
0.0487605
17.1895
0.0961826
0.345863
-0.102067
42.1016
0.221836
-0.382985
109.657
0.108147
-0.526168
157.603
-0.457767
-0.665544
152.777
-0.325696
-0.37857
156.854
-0.110153
-0.104678
46.4542
0.0690697
15.1272
0.0256305
0.00645151
0.0307909
12.4942
0.0524538
0.119179
-0.0272357
23.9763
0.125794
-0.137962
40.5049
0.0419374
-0.283434
64.337
-0.209635
-0.313156
75.7832
-0.117027
-0.134704
44.2825
0.0739649
0.0741157
22.8841
0.0568506
9.1302
0.0595005
-0.0225778
7.92865
-0.0432255
-0.0339006
-6.98075e-05
12.5507
0.0722032
0.00942821
17.0647
0.00480175
0.000778633
21.6071
-0.00147284
-0.00311157
21.5651
0.0321956
0.0637864
15.5561
0.0347529
0.0541837
10.765
0.0506238
6.20473
-0.0386373
-0.0307371
0.594855
0.457202
-0.171476
-0.170799
0.487484
0.820368
-0.534078
0.226526
1.53971
-0.857741
-0.0852924
2.0662
-0.913157
-0.293181
1.60561
-0.832616
-0.505001
1.49904
-0.769127
-0.389928
1.07424
-0.380568
0.409738
-0.0822088
-0.0948755
0.927263
0.423281
-0.475344
1.14222
1.04733
0.655609
2.07129
-0.289957
1.3388
-0.500655
1.38973
-0.95535
2.07014
-1.0314
0.788762
0.453743
-0.388315
1.69309
0.305775
-0.840902
2.23144
0.240111
0.0828739
-0.311976
-0.149449
-0.103109
-0.116323
0.503147
-2.23679
0.0772742
-1.25124
0.492379
0.239877
-0.713316
1.29076
-0.0157996
-1.02543
0.868628
0.194064
0.359549
0.12502
0.478585
0.19252
-0.547284
-0.137465
-1.45526
0.238484
-1.52799
0.602412
-0.0623397
-0.815611
1.84542
-0.345406
-1.04101
0.986292
-0.74383
0.4032
-0.289826
0.18182
-0.26226
-0.181781
-0.438512
-1.25613
-0.248363
-3.21541
-1.55237
-0.344209
-0.878284
1.30858
-0.476289
-0.850522
1.64757
-0.815259
0.43918
-1.58002
-0.0231765
-1.26754
-0.00505811
-1.15987
-2.75013
-2.65478
-1.4588
-0.953163
-0.380945
-0.601363
0.867226
-0.466834
-0.499144
0.808806
-0.729497
0.662503
-1.10945
0.0715459
-1.57475
-0.939308
-2.06158
-0.92693
-1.27314
-0.816705
-0.799621
-0.414079
-0.350905
0.542817
-0.25891
-0.208911
0.413306
-0.441227
0.28906
-0.688143
-0.0996696
-0.862141
-0.306128
-0.845507
-0.454323
-0.670473
-0.482948
-0.443262
-0.190251
-0.178716
-1.1156
0.0950328
0.325393
-0.0169473
1.03285
0.174129
0.253324
-0.0897968
-0.340111
0.450138
0.182711
-0.698942
0.235403
0.245891
-0.078627
0.0530357
-0.022946
0.209274
0.137345
-0.714605
0.0384887
0.0750867
0.0230807
0.0667607
-0.0937482
0.204582
-0.499623
-0.541939
-0.15973
-0.00783508
0.110332
-0.062436
-0.243919
0.222624
-0.549558
-0.471406
0.0580817
0.134757
0.351981
-0.013291
0.0974558
-0.429461
-0.403201
-0.513175
-0.0189394
0.120715
-0.00825
-0.00709904
-0.0210893
-0.0143855
-0.141451
-0.703497
0.0826325
0.163864
-0.0104239
0.0316932
-0.103538
0.178552
0.136778
-0.717886
0.125509
-0.0137033
0.0882811
-0.298022
0.111456
0.528507
-0.2313
-0.00762592
-0.000133771
-4.17713
6.3869e-05
0.0514642
-0.00162654
0.546893
-0.00153078
-0.00731599
5.26068
0.0280364
-0.00555788
-0.000316315
-2.62834
0.0264061
0.000810141
1.09833
-0.0138564
3.65701
-0.00327611
-0.000577072
-0.969295
0.0091254
0.00253631
1.45109
-0.00653082
2.54039
0.00331936
0.000375071
-0.637785
-0.000729581
0.00596477
1.70268
0.0013188
0.779674
0.00908255
0.000200122
-1.31236
-0.00587209
-0.0047924
2.26937
-0.000201083
0.520528
-0.00242355
0.000405121
-1.10334
-0.000497816
-0.00041551
1.1377
0.00893095
1.2076
-0.00594558
0.000697599
-1.80795
0.014566
0.0210527
1.13072
0.0621432
3.05606
-0.00171105
-3.43165
2.91163e-05
0.0650661
2.40044
-0.0248483
4.93039
-0.0729288
-0.837212
-0.329838
-9.21133
-0.226194
0.374184
0.0176364
3.90387
0.0462923
-0.0105131
3.21113
0.15234
-0.234444
-0.178432
-4.41127
0.147356
0.0416611
1.85654
-0.0639645
4.46513
0.0860505
-0.00643401
0.166516
-0.00200484
-0.0216208
2.01771
-0.0623561
5.1379
0.076261
0.0411767
0.533959
-0.0273051
0.0059698
2.68455
-0.0532794
2.61082
0.0459997
-0.0221897
-1.97336
-0.0994733
-0.0631881
3.17504
0.0226308
3.05244
0.0158324
0.0539063
-0.898053
-0.0120045
-0.00900049
2.03313
0.0349556
3.4543
-0.0556637
0.0739653
-1.45469
0.059451
-0.0122833
1.37236
-0.040546
3.05052
-0.19475
-2.83363
0.155104
0.0961524
2.05933
-0.0337597
1.8447
-0.0761456
-0.100356
-0.0276427
-0.881951
0.0141878
0.158675
-0.00127322
-1.47982
0.00222041
-0.0444592
1.10376
0.080681
-0.0365223
-0.0129858
-0.903451
0.0328835
0.00283322
-0.187872
-0.0136014
0.559108
-0.000996719
-0.00426413
-0.720489
0.00124771
-0.00351696
0.388363
-0.000498197
0.504549
-0.0085405
-0.000425651
-0.420574
-0.00188132
0.00167132
-0.293627
0.00330609
-0.0183374
-0.00488582
0.000473671
-0.435414
0.000335492
-0.00334125
-0.305775
-0.000547682
0.0803765
-0.00599075
0.00509136
-0.676704
0.00120062
0.00251816
-0.0535676
0.00742232
0.174417
-0.0181843
0.0112158
-0.806861
0.0194769
-0.00388819
-0.281358
0.00907044
0.327015
-0.0475707
-0.648297
-0.00986075
0.0691776
-0.370253
4.61968e-05
0.391812
0.00595923
-0.131292
-0.0369165
-10.5099
-0.025871
0.0454995
-0.0702025
-3.71205
-0.0474298
-0.0307871
4.91284
0.0568957
-0.135349
-0.0392532
-7.85595
0.00527563
0.0135093
-1.47858
-0.00173096
2.25453
-0.0422509
-0.00380951
-5.41362
-0.0093205
-0.00404271
-1.15997
-0.00833808
4.98903
-0.0414688
0.0108331
-4.54286
-0.0835642
0.00491786
-2.07002
0.013222
6.35613
-0.0496994
0.0282717
-4.91553
-0.060169
0.00980551
-1.08296
0.0220615
6.64587
-0.064099
0.0133979
-6.25753
-0.0301911
0.00269577
-1.29974
0.0107058
4.4385
-0.0776136
0.0176562
-7.4913
-0.00793353
0.00431189
-2.40167
-0.0121397
1.215
-0.0809229
-8.83513
-0.0106646
0.031676
-2.85047
0.00364486
4.14257
-0.00876069
-0.105971
0.0102993
-0.0208452
-0.031692
-0.00041121
-0.00448295
0.0115998
0.00592107
-0.108388
0.0200628
0.0249722
0.00288416
0.028356
-0.110854
0.002974
0.172966
-0.00132713
0.0485125
-0.0977048
0.00217386
0.285065
-6.7053e-07
-0.00203363
-0.0846555
0.0327234
0.294929
0.00111013
-0.0815986
-0.117887
0.0178364
0.184381
0.0129751
-0.0406471
-0.156646
-0.000360183
-0.0128554
0.0089272
-0.0127088
-0.14927
-0.0364381
-0.0182345
-0.0201337
0.0346902
-0.0572255
0.0118869
0.201907
0.00957412
0.0125993
-0.248953
0.208947
-0.00529897
-0.140842
0.126827
-0.21601
-0.341888
-0.511194
-0.303244
-0.307675
-0.0248218
0.00227137
-0.24237
0.195955
0.112827
0.220456
-0.193364
0.335199
0.00884137
-0.147739
0.540509
-0.0799131
7.47183e-05
0.533974
-0.0317748
0.0516685
0.423263
0.0470863
-0.029498
0.697407
-0.505934
0.0961519
0.52606
-0.00275658
0.0479766
0.306752
0.041816
0.0976099
0.656483
-0.0360194
0.628168
-0.115814
-0.101431
-0.135302
0.14219
-0.0159778
0.189075
0.232389
0.183126
-0.0883068
-0.714588
-0.240021
0.0698439
0.165517
0.238501
0.120445
0.155783
0.112063
-0.056542
-0.000392291
-0.0118422
2.34678
0.00204783
-0.00293378
1.4321
-0.00892713
-0.00630723
2.16917
0.000461271
0.00647506
0.584424
0.00354128
1.4454e-05
0.232371
0.0122996
-0.00250993
1.78249
0.00699041
-0.0181353
2.79678
-0.0307325
3.07235
0.0115602
0.00266203
0.00758777
-0.0496638
-0.00162356
0.00617015
0.695672
0.0065708
-0.00520386
1.79294
-0.0103203
-0.00801005
1.92388
0.00235007
-0.000452125
1.47468
-0.00151163
0.00272798
1.36531
-0.0012472
0.00451421
0.931847
0.0086702
0.489224
0.000846498
-0.000258703
-2.84902
-0.000455918
-2.21799
-0.00345135
-1.27076
0.000922969
0.286681
0.000140977
-0.671782
0.00026172
-1.91701
0.000170299
-2.16553
-2.2948
-1.60457e-05
-0.0320457
-0.121509
1.37763
0.00443086
-0.0393267
2.50878
-0.00278109
0.0162714
3.7237
0.00142146
0.0566934
2.73052
0.0529224
0.0620922
3.70337
0.0123327
-0.0077194
3.08227
-0.0405793
-0.0853595
2.96894
-0.0437313
0.575437
0.01493
-0.00261771
0.421977
0.581112
0.0413063
0.183314
-0.442532
0.0497932
-0.00730058
2.40694
0.0109555
-0.0982022
3.30604
-0.0271837
-0.0866481
2.50716
-0.0254806
0.11165
1.30014
0.0206747
0.206802
2.07114
0.16932
2.62752
0.00123427
-0.128986
-5.76334
-0.0975906
-4.10539
-0.0288171
-1.23507
0.00933706
1.57275
0.115755
-0.765408
0.0356157
-3.32032
-0.0889426
-3.33697
-1.42215
0.0432712
-0.0291027
-0.0599812
0.0337706
-0.000132584
-0.000900032
0.115772
0.0018386
-0.00158251
-0.150014
0.00891891
-0.000179549
-0.0969076
-0.0133508
-0.00483012
0.649614
0.0086486
-0.00397585
0.322389
0.0103233
-0.0257241
-0.351403
-0.0721688
-0.141126
0.0578428
0.0034602
0.0354581
-0.723986
-0.00396363
-0.000228612
-0.524798
0.00087984
0.00556711
-0.24911
0.00419235
0.00437158
-0.00163019
0.00281384
-0.00844111
0.178769
-0.00848065
-0.00242636
-0.0831716
0.000711487
0.0383225
-0.572138
0.0598233
-0.833911
0.0103642
-0.0168438
-0.209151
0.0040682
-0.417876
-0.00221181
-0.343519
-0.000208289
-0.47839
0.00598578
-0.601164
0.0129148
-0.661379
0.00579646
-0.478279
-0.265662
-0.000846444
0.006596
0.0273451
3.91651
-0.0228805
0.0420979
2.6231
0.000618015
0.040995
6.63596
0.010419
0.0469848
7.78888
0.0014505
0.0259605
6.9958
0.000603752
0.0123115
5.88827
-0.000111522
0.0548597
2.2149
0.0312786
3.54774
0.0135729
-0.0109368
0.0482668
-1.94302
-0.00573849
0.0492274
-1.26749
-0.000307551
0.0538994
-0.591413
-0.00346779
0.050466
-0.0204082
-0.00071698
0.0453875
0.177747
0.0105788
0.080109
0.115423
0.012571
0.0783963
-1.53289
0.0440833
-2.25105
-0.00826076
-0.00878186
-7.76078
-0.00136133
-6.44271
0.00329124
-6.41422
-0.00197014
-5.75933
0.0333158
-5.49721
0.00103749
-6.8803
-0.0066017
-8.16197
-8.31647
-0.0158203
0.0774729
-0.0785546
0.0545744
-0.144663
0.0621522
-0.286384
-0.0494127
-0.35676
-0.0815553
-0.321674
-0.0728975
-0.217148
-0.0345319
-0.0563412
-0.0270559
-0.00311607
-0.00133284
0.117945
0.00142002
0.105149
0.00302506
0.094718
-0.00331011
0.0743577
-0.00238654
0.0743066
0.00686562
0.102033
0.0108926
0.169036
0.16651
-0.00439853
-0.0363027
0.000895236
-0.0199408
0.0127647
0.0253744
0.0587098
0.0103514
-0.0218229
-0.253988
-0.499544
0.345853
-0.238059
1.16959
0.227552
0.045412
-0.0797815
0.0856627
0.264344
-0.152238
0.294496
0.434406
-0.0377674
0.8095
-0.167537
0.0546372
0.0625573
0.182664
-0.335782
0.106087
-0.763501
0.766244
0.00457871
-0.0511841
-0.0895271
-0.373715
-0.351907
0.0650941
-0.611175
0.544752
-0.00239705
-0.0272656
0.0643717
-0.397729
-0.197774
-0.279318
-0.179127
0.435562
0.034154
0.0257528
0.0409434
0.0253693
0.041146
-0.0266855
-0.14095
0.633759
0.0151011
0.0233827
-0.0353132
0.141483
0.0936188
0.284354
-0.0167687
0.601453
-0.0193931
-0.0989081
0.0151567
0.134762
-0.18622
0.412903
0.749636
0.010798
0.145363
-0.0555128
-0.0425637
5.40601
-0.045386
0.0122415
-0.00027127
0.690001
0.00534003
-0.000271767
-4.08331
2.33394e-05
-0.00643697
-0.00125754
2.41533
0.0069433
0.00904884
0.329077
-0.00557078
-2.26223
0.0058996
-0.00381702
1.21657
-0.0115023
-0.0011447
2.37231
-0.000898841
-0.641885
0.0098183
-0.000567
0.835524
-0.0143673
-0.0114975
2.23548
0.00261669
-0.426365
0.000811839
0.00144992
0.444001
-0.000489368
-0.00205004
1.71851
0.0012069
-0.706482
-0.00278044
0.0046825
1.42591
0.00455616
0.00150658
0.63723
-0.000279912
-1.3317
-0.00776791
0.0256905
1.6776
0.00303846
-0.00244529
0.549743
0.00015038
-1.49735
-0.0447808
3.42591
0.00749844
0.502049
-2.64537
-0.314724
-0.182152
1.7844
0.01895
0.65419
-0.0281112
2.13614
-0.0250108
-0.189821
-5.82607
0.267174
-0.0911891
-0.0628056
3.03725
0.173069
0.104023
1.68599
-0.165671
-3.84902
0.100592
-0.0315824
3.50772
-0.110206
-0.0448923
1.92987
0.0126287
0.181432
0.0982438
0.0176367
3.83965
-0.0946627
0.040252
2.47903
0.0259372
-0.651649
0.111781
0.00565196
3.78888
-0.0480396
-0.0836326
4.39965
0.0450665
-0.308458
0.0389708
-0.0235933
4.06547
0.011523
-0.0303606
2.37589
-0.00813428
-2.51317
-0.00590092
0.00948323
1.32704
0.0974814
0.00372019
0.688264
0.134751
-2.12137
-0.069507
-0.790544
0.231993
0.147299
-1.47385
-0.210708
-0.100044
0.774532
-0.0253038
0.119383
0.000892006
-0.803438
0.0169722
-0.0600458
-0.747734
0.0107325
-0.0225805
-0.00244409
0.19373
0.0207066
0.00794851
-0.230396
-0.00446721
-0.752899
0.000632535
0.00397935
0.286382
-0.0121631
0.000157515
0.293274
-0.00598459
-0.809932
-0.00735302
0.00153277
0.112305
-0.00396497
-0.00186713
0.0786392
0.00418638
-0.374801
0.00532827
-0.00888905
0.380015
0.00799379
-0.00108636
-0.0592122
-0.0036068
-0.234936
0.000505591
0.00245426
0.277037
0.000977903
-0.00176033
-0.264317
0.00273244
-0.545887
-0.0141005
0.0657615
0.121714
0.00390264
0.00859983
-0.427498
0.0460844
-0.837277
-0.114103
0.250436
0.0693688
-0.692528
-0.433593
-0.0729659
-0.0306174
4.17685
-0.0162856
0.0604038
-0.0136707
-0.923306
0.0627653
0.00299953
-6.98304
0.02553
0.0217489
-0.00148419
1.23288
0.0683253
0.00473884
-1.80177
0.00188792
-6.13973
0.0227766
0.00404193
4.50465
0.0630618
0.00264342
-1.0034
-0.00835584
-5.67777
0.0462511
0.00296034
5.61505
0.0460907
0.00924581
-0.4112
0.00178518
-4.96744
0.0447725
-0.000687557
5.53579
0.038241
0.00929397
-1.00481
0.0189859
-4.97861
0.0414239
0.0110233
3.75682
0.04733
0.0106289
-1.47269
0.0413789
-5.95157
0.0331771
-0.00456038
0.838087
0.0726112
0.0112502
-1.49887
-0.00178604
-7.20389
-0.0128135
3.88643
0.042544
-2.18206
-8.00657
0.0125879
0.0133937
-0.00104932
0.0620624
-0.00435307
0.00175822
0.0026996
0.0328621
-0.00843224
0.0397012
0.0834169
-0.00265524
-0.000330484
-0.146788
0.0447346
0.077901
-0.00147995
-0.00377486
-0.218909
-0.0285421
0.0609743
-0.00173204
0.0172452
-0.199155
-0.0579872
0.0685762
-0.00140035
0.0263081
-0.130655
-0.0335289
0.0862715
0.006799
0.0192597
-0.0155026
-0.0263909
0.104849
0.0193105
0.0576162
-0.00196328
0.141791
0.170723
-1.41888
0.364078
0.017777
-1.27438
0.0493477
-0.0607191
-0.689654
-0.334207
-0.0271207
-1.01345
0.179463
-0.102009
-0.806461
0.194746
-0.172892
-0.956335
0.3011
0.190364
-0.937264
0.391484
-1.09238
0.347744
-0.140625
0.19212
0.232415
0.0838781
0.250054
7.47921e-06
-0.104302
0.350824
0.255365
0.0110789
0.406317
-0.0176197
0.162094
0.304161
-0.00604248
0.105726
0.0220076
0.0143654
0.0916424
0.136916
0.538279
-0.065643
0.452003
-0.19586
0.459747
0.543343
-0.523531
-0.392411
-0.707198
0.107292
-0.624429
-0.660838
-0.642003
0.158252
-0.361799
-0.2703
0.100941
-0.113605
-0.00379575
-0.0137791
-4.11514
-0.00388685
0.0045808
-1.84344
0.00389687
0.0218313
-1.02255
1.6265e-05
0.00151183
-1.4238
0.00036064
0.00219035
-1.62663
0.000270152
0.00706787
-1.67207
0.000140442
-0.000448023
-2.8714
-0.00180188
-3.82029
0.0081245
0.0636969
0.78001
0.0214927
0.00613288
1.65282
-0.0182652
-0.0166574
3.12232
-0.00301582
0.00225863
2.2679
0.00930703
0.00375554
2.78873
-0.00383846
0.0160995
3.35025
-0.00591884
-0.00151618
0.29972
-0.00373479
-0.567419
-0.0255064
5.41162
-0.00361001
2.72833
0.00390182
1.21311
-0.000493647
1.4367
0.0199089
2.13264
-0.00802149
3.33961
-0.00406438
3.53558
4.53743
-0.396439
-0.611774
-4.99471
-0.0347124
-0.0528403
-1.76434
0.0152822
0.129338
-0.948531
0.0494971
0.0783442
-1.73065
-0.0246061
0.13023
-2.82932
0.386256
0.169576
-0.28824
0.20512
-0.479492
-5.68724
-0.926901
-9.5743
-0.0278322
0.284002
1.74087
0.101649
0.168743
-0.0710541
0.00305689
-0.111918
2.42693
0.051585
-0.109027
3.83753
0.0100975
-0.141695
3.66748
-0.170685
-0.14428
3.32316
-0.0486424
0.182516
3.6696
0.454054
4.19626
0.053813
1.9472
-0.140486
4.32812
0.00176328
4.18862
0.026348
3.67108
0.0297586
5.18369
0.0755537
4.43752
-0.066055
3.82559
3.77806
-0.0936789
-0.147682
-1.71122
-0.00492704
0.00600136
-1.13621
-0.000648413
0.0222396
-0.676866
-0.00111834
-0.00380001
-0.434754
0.0191924
0.0163609
-0.626634
0.0354859
0.00356391
-1.0001
0.00911536
-0.0883389
-0.649774
-0.102087
0.358181
0.023159
0.212692
-0.377044
0.0110123
-0.0021414
0.492826
-0.0144075
-0.00845953
0.817324
0.00915887
0.00169753
-0.122048
-0.00770212
-0.00252088
-0.203193
-0.019503
0.00298534
0.493638
0.0152502
0.0738815
-0.612792
0.177553
-1.83652
-0.103591
1.42643
-0.000938114
0.532899
-0.00123594
0.878973
-0.000184745
0.323079
-0.00251967
0.218887
0.0405861
0.900485
0.0257902
0.431528
0.218245
-0.137355
-0.217559
-10.7088
-0.0495105
-0.0754487
-5.5377
-0.00296935
-0.0212485
-4.61805
-0.000669596
-0.0514281
-4.30883
0.0250662
-0.0449403
-4.47149
0.0508708
-0.046524
-5.58259
0.0289263
-0.100791
-7.74331
-0.0238433
-8.57315
0.014794
0.189484
-1.42786
0.0219903
0.0291631
-1.02772
-0.0145856
0.0215171
-0.175764
-0.00501534
-0.0377823
-0.805178
0.00356053
-0.0201661
-0.283937
0.00659624
0.0659619
-0.10048
0.0749627
-0.0276388
-1.8333
-0.117608
-2.47841
0.000514712
6.30682
0.00170584
2.85578
-0.00510874
5.88682
-0.000260031
6.27859
0.0150467
5.68922
-0.00686895
5.1924
-0.0198871
1.04638
3.30342
-0.0503291
-0.0942391
-0.00670483
-0.0623013
0.00248778
-0.0520547
0.018585
-0.0518345
0.017754
-0.0658219
0.0135593
-0.082268
0.0233213
-0.0974816
-0.105734
-0.00909561
0.0140047
-0.00454488
0.0271758
-0.00397666
0.140882
0.00023083
0.225787
0.00712478
0.220832
0.00468741
0.0977387
0.0034373
-0.0219812
0.00144988
0.033503
0.0365039
0.047881
-0.024916
-0.0787134
-0.0313045
-0.00708069
)
;

boundaryField
{
    atmosphere
    {
        type            calculated;
        value           nonuniform List<scalar> 
160
(
1.79615
2.30738
2.39416
2.19049
2.28584
2.4178
2.44974
2.02072
2.48043
2.2701
1.9028
1.2696
1.34576
1.90401
2.15944
2.24833
2.30181
1.81514
-0.175757
0.315851
0.160208
0.64547
1.76724
2.06139
2.05809
1.20296
-0.3969
-0.203932
-0.684102
-0.0291553
1.30159
1.9536
2.01006
1.36258
-0.0593077
-1.33675
-1.05653
0.0145473
1.40033
2.09349
2.35823
1.90144
0.15367
0.012111
-0.516311
0.0245335
2.06646
2.1495
2.28053
2.49691
1.82499
1.44232
1.23155
2.26334
2.29214
2.36324
1.10185
2.24516
2.2011
2.01075
2.31437
2.13484
2.12639
1.77486
-2.15801
-2.10092
-2.19914
-2.10029
-2.02109
-2.44536
-2.78082
-2.9373
-0.555318
-0.453436
-0.373919
-0.110964
0.0858245
-0.197208
-1.03121
-1.27297
-0.145161
0.573395
1.53229
1.88391
1.86673
1.55318
0.553817
0.714042
1.0829
-0.162026
-2.77156
1.21188
0.0723237
-2.34475
1.78295
0.263584
-2.27809
1.90474
0.29002
-1.93771
1.83508
0.244733
-1.91495
1.58195
0.0427575
-2.27433
0.858791
-0.5063
-3.11147
0.907338
-0.812662
-3.39424
0.142124
0.464498
1.3675
1.52761
1.42809
1.1823
0.516905
0.634397
-0.45994
-0.534194
-0.295799
0.147611
0.124096
0.0302147
-0.516187
-0.833937
-1.5964
-1.69616
-1.68923
-1.57747
-1.73378
-1.98351
-2.13084
-2.98046
-2.24243
-0.339309
0.471013
-1.31953
-0.671521
0.730661
-1.16833
-0.445126
1.35529
-1.34683
-0.00805121
1.54268
-1.60262
-0.0419511
1.56079
-1.68903
-0.528811
1.16587
-1.91613
-0.657605
0.193457
-2.39628
-0.2834
0.25011
)
;
    }
    walls
    {
        type            calculated;
        value           uniform 0;
    }
    outlet
    {
        type            calculated;
        value           uniform 0;
    }
}


// ************************************************************************* //
