/*--------------------------------*- C++ -*----------------------------------*\
| =========                 |                                                 |
| \\      /  F ield         | OpenFOAM: The Open Source CFD Toolbox           |
|  \\    /   O peration     | Version:  4.x                                   |
|   \\  /    A nd           | Web:      www.OpenFOAM.org                      |
|    \\/     M anipulation  |                                                 |
\*---------------------------------------------------------------------------*/
FoamFile
{
    version     2.0;
    format      ascii;
    class       volVectorField;
    location    "1";
    object      U;
}
// * * * * * * * * * * * * * * * * * * * * * * * * * * * * * * * * * * * * * //

dimensions      [0 1 -1 0 0 0 0];

internalField   nonuniform List<vector> 
960
(
(0.0039874 0.0041428 -0.0134759)
(0.00444915 0.00695427 0.00370094)
(0.000612574 0.00384555 0.00142089)
(0.00155675 0.00624119 -0.000838556)
(-0.000537485 0.00930965 0.00166377)
(-0.00373147 0.00591734 0.000391198)
(-0.00520614 0.00596492 -0.0044577)
(-0.00604957 0.00193547 -0.0160102)
(0.0058854 0.00399433 -0.00340247)
(0.00607521 0.00419608 0.00263778)
(0.00186639 0.00184814 -0.000232791)
(0.00213471 0.00307976 -3.70602e-05)
(0.000288871 0.00462089 0.00278451)
(-0.0021523 0.00355981 0.000868643)
(-0.0054619 0.00694087 0.00157933)
(-0.00563843 0.00630402 -0.00537544)
(0.00158462 0.00349413 4.7117e-05)
(0.0038729 0.00451815 -0.00183056)
(0.00263254 0.0033593 -0.00348331)
(0.00352699 0.00170565 -1.21762e-05)
(-0.0012565 0.00214124 0.000868568)
(-0.00196448 0.00544269 -0.00469637)
(-0.000484527 0.00440155 0.00161046)
(-0.00347059 0.00616149 0.00287918)
(0.00140557 0.00153205 -0.000898318)
(0.00202652 0.00137924 0.00156236)
(-0.00083748 0.00216733 -0.000754447)
(0.00142904 0.000837287 -0.0033091)
(0.000881493 0.00112323 -0.000710358)
(-0.00170786 0.00320633 0.00170761)
(-0.00160454 0.00196297 -0.000409783)
(-0.00181517 0.0026271 0.000572178)
(0.00613746 -0.00101147 -0.00264217)
(0.00579144 -0.00064977 0.00131023)
(0.00269668 -0.000769589 -4.63212e-05)
(0.00278302 -0.00191962 -0.00280557)
(0.00188704 0.000555158 0.000253813)
(-3.39854e-05 -0.00137045 -0.000385327)
(0.000390092 -0.00168707 0.0015749)
(-0.0023777 -0.00166444 0.00392437)
(0.00521626 -0.00307564 0.000384545)
(0.00587584 -0.0027159 0.000584889)
(0.00344179 -0.0011485 -0.00210907)
(0.0027105 -0.00116961 -3.17818e-05)
(-0.000632295 -0.000918506 -0.00212424)
(-0.000346341 -0.000124419 0.00145342)
(-0.00253552 -0.00319059 0.00266762)
(-0.00385547 -0.00255611 -0.000462955)
(0.00524286 -0.00460561 -0.00289396)
(0.00593883 -0.00503028 0.00130868)
(0.00306445 -0.00149181 0.000284914)
(0.0020076 -0.00406155 0.00154858)
(-0.000542263 0.0015578 -0.000279307)
(-0.00214987 -0.00605432 0.00328054)
(-0.00224443 -0.00566322 0.0012626)
(-0.0038228 -0.00492814 -0.00377491)
(0.00339484 -0.00139748 -0.0119249)
(0.00448759 -0.00525879 -0.00211195)
(0.00137171 -0.00287961 -0.00266487)
(0.0046729 -0.00598446 0.000686035)
(-0.00125122 -0.00284629 0.0092597)
(-0.00673636 -0.0077594 -0.00249001)
(-0.00271314 -0.00560661 -0.00678749)
(-0.0013551 4.30476e-05 -0.013694)
(0.00358664 0.00216981 -0.0104134)
(-0.000292921 0.000646769 0.00140701)
(0.00382191 0.00268641 0.00331422)
(-0.00237366 0.00523629 0.0041647)
(-0.00115377 0.00495196 0.00837414)
(-0.00215239 0.00293637 0.00291699)
(-0.00237833 0.00264094 -0.00414313)
(-0.00628349 0.00675452 -0.0127631)
(0.00116218 0.00149185 -0.00373431)
(0.002456 0.00550078 0.00514669)
(0.00215096 0.00521691 0.0059286)
(-0.00163988 0.00598074 0.00868386)
(-0.00191446 0.0059825 0.0120089)
(-0.00203303 0.00630798 0.00634858)
(-0.00515293 0.00517702 0.00433602)
(-0.00386074 0.00104114 -0.00417695)
(0.00418672 0.00291683 0.00101635)
(0.00478357 0.00385628 0.00491987)
(0.00302446 0.00508902 0.00465281)
(-0.00194255 0.00498332 0.00787871)
(-0.000372313 0.00691592 0.0114171)
(-0.00334681 0.00588694 0.00593735)
(-0.00627617 0.00643688 0.00590299)
(-0.00258478 0.00524829 0.00423339)
(0.00535771 0.0030851 0.00327766)
(0.00538094 0.00265611 0.00772866)
(0.00448085 0.00275992 0.00718976)
(0.00151325 0.00437749 0.00724163)
(-0.00279075 0.00390278 0.00748163)
(-0.00267018 0.00139596 0.0100008)
(-0.00318887 0.00379855 0.00735194)
(-0.00180523 0.00282964 0.00458712)
(0.00253324 0.000797828 0.00346934)
(0.00358963 0.000825021 0.00842832)
(0.00457738 0.000633129 0.00802494)
(0.000667656 -0.000248255 0.00819036)
(-0.00151086 0.00214238 0.00589471)
(-0.00279389 0.00088033 0.00749643)
(-0.00306124 0.000415748 0.00784456)
(0.000894403 0.00046161 0.00612195)
(0.00121966 -0.00165247 0.00268304)
(0.00452265 -0.00143518 0.00698829)
(0.00217475 -0.00184482 0.00784531)
(0.00017544 -0.00281148 0.00856129)
(-0.00108647 -0.000406776 0.00651544)
(-0.00276948 -0.00233677 0.00766981)
(-0.00144701 -0.000609239 0.0077436)
(0.00104915 0.000550636 0.00179943)
(0.001766 0.000166254 -0.00252768)
(0.00279546 -0.00277915 0.00423657)
(0.00102147 -0.00299392 0.00710991)
(2.2458e-05 -0.00313241 0.00919685)
(-0.00119343 -0.00490977 0.00802205)
(-0.00323766 -0.00203386 0.00867955)
(-0.00252243 -0.00308246 0.00436007)
(-0.00152979 -0.000887407 -0.00345701)
(0.00351537 -0.000942354 -0.01138)
(0.00202128 -0.000240799 -0.00282224)
(0.00129016 -0.00149425 -0.000345735)
(-0.003323 -0.00264335 0.00648898)
(0.00129307 -0.00153718 0.0113438)
(0.000626973 4.92627e-05 0.000612357)
(-0.00205156 -0.00141202 -0.00412907)
(-0.00427468 -0.00329287 -0.0115715)
(-0.00216441 -0.00145858 0.00145665)
(-0.00526945 -0.00452536 -0.00209326)
(-0.00270166 -0.00505278 -0.00243151)
(-0.00355648 -0.00571922 -0.00155983)
(0.0005619 -0.00551741 -0.000852427)
(0.00333508 -0.00457088 -0.00188108)
(0.00326449 -0.00265595 -0.00082453)
(0.00237099 0.00210216 0.00174852)
(-0.00634589 -0.0014909 -0.000952449)
(-0.00676811 -0.00184792 -0.00140471)
(-0.00480477 -0.00272198 0.00101934)
(-0.00333282 -0.00292358 0.00268992)
(0.00085694 -0.0027108 0.00219745)
(0.00361772 -0.00294694 0.000251577)
(0.0054409 -0.00245622 -0.00209089)
(0.00647659 -0.00161275 -0.000322185)
(-0.00641778 -0.000856601 -0.000443247)
(-0.00675273 -0.000514525 0.00256462)
(-0.00442524 -0.000263881 0.00510812)
(-0.00382723 0.000183645 0.00621963)
(0.000795574 0.00133713 0.00600741)
(0.00366533 0.000176925 0.00391569)
(0.00496184 0.000981711 0.000258006)
(0.00732855 0.000246791 -0.00206335)
(-0.00631143 0.00142085 0.00122635)
(-0.00562799 0.00107328 0.00481789)
(-0.00353437 0.00165913 0.00722328)
(-0.00170212 0.00197541 0.00937314)
(0.000344087 0.00393446 0.00855355)
(0.00343287 0.00218982 0.00688728)
(0.00605783 0.00312956 0.0035658)
(0.00793076 0.00269521 0.000529348)
(-0.00722674 0.0039993 0.000653062)
(-0.0061103 0.00440183 0.00345329)
(-0.00287259 0.00443291 0.00812024)
(-0.00086964 0.00454162 0.00967736)
(0.00145782 0.0054186 0.00848153)
(0.00289939 0.0058331 0.006032)
(0.00567508 0.0055534 0.00260169)
(0.00810111 0.00542526 -0.000679438)
(-0.00622586 0.00464007 0.000202195)
(-0.00531745 0.00651718 0.00295486)
(-0.00370033 0.00612111 0.00579843)
(-0.00158705 0.0062011 0.00699387)
(0.00164903 0.00591791 0.00748182)
(0.00383919 0.00619017 0.0055244)
(0.00640983 0.0077166 0.00265424)
(0.00769235 0.00684701 -0.000829916)
(-0.00435049 0.0053386 0.000778028)
(-0.00513514 0.00738654 0.000929763)
(-0.00375562 0.0076589 0.002701)
(-0.0016848 0.00791546 0.00386893)
(0.00126394 0.00644838 0.00391979)
(0.00438575 0.00834428 0.00279686)
(0.00612068 0.0095224 0.000920544)
(0.00565289 0.00614413 -5.4173e-05)
(-0.00173988 0.00338576 0.00143586)
(-0.00301632 0.00819306 5.48507e-05)
(-0.00280447 0.00874497 0.000399513)
(-0.002628 0.00984297 0.000485337)
(0.00226873 0.0084282 2.25681e-05)
(0.00600771 0.00940314 0.000673658)
(0.00304208 0.00746438 0.00252325)
(0.000572817 0.00353831 0.00178045)
(-0.00165792 -0.000783846 0.000405043)
(-0.00105206 -0.000256109 -8.74058e-05)
(-0.00118648 -0.00158887 -0.000198705)
(-3.68792e-05 -0.0020633 -0.000616471)
(1.92597e-05 -0.00164878 -0.00128714)
(-0.000588289 -0.00119123 -0.000393947)
(-0.000795301 -0.000277032 7.09557e-05)
(-0.000447635 0.000288652 0.00162657)
(-0.00072619 -0.000975581 0.000742689)
(-0.00216964 -0.00260651 0.000614773)
(-0.00235526 -0.00317476 -0.000821496)
(-0.000791905 -0.00407355 -0.000120107)
(0.000304715 -0.00345472 -0.000948431)
(0.000195357 -0.00237485 -0.00122919)
(0.00139375 -0.000507168 -0.000844018)
(0.000723971 0.00126815 0.00112695)
(-0.002085 -0.00135472 0.00128382)
(-0.00357658 -0.0033009 0.0012905)
(-0.0029634 -0.00312007 0.000318252)
(-0.000822826 -0.00366547 0.00118938)
(0.00125573 -0.00299372 -0.00108364)
(0.00226747 -0.00199818 -0.00222604)
(0.00327655 -3.11523e-07 -0.00301012)
(0.0017769 -4.61164e-05 -0.000653874)
(-0.0034029 0.000244903 0.00149553)
(-0.00404772 9.44119e-05 0.001465)
(-0.00303147 0.000596031 0.000816083)
(-0.00103469 -0.000529277 0.00173842)
(0.0016513 -4.62961e-05 0.000164292)
(0.0032979 0.000112067 -0.000305162)
(0.00394459 8.98524e-05 -0.00100852)
(0.00229768 0.000935003 -0.00106569)
(-0.0019983 0.00149797 0.00210285)
(-0.00324684 0.00287001 0.00196488)
(-0.00368553 0.0028167 0.00303422)
(-0.00146982 0.00321154 0.00248271)
(0.00182979 0.00254003 0.00279882)
(0.00253625 0.00264147 0.00133623)
(0.0044651 0.00203247 0.000672054)
(0.00379698 0.00178121 6.36011e-05)
(-0.0013553 0.0015225 0.00376882)
(-0.00271524 0.00330909 0.00365596)
(-0.0026544 0.00380422 0.00337955)
(-0.00131736 0.00508569 0.00222736)
(0.00119613 0.00432887 0.00157754)
(0.00292608 0.00371032 0.0021391)
(0.0033254 0.00352506 0.00232962)
(0.00196482 0.00110747 0.00212319)
(0.000829806 0.000844948 0.00406506)
(-0.000888914 0.00312253 0.00388083)
(-0.0016028 0.0042954 0.00304981)
(-0.00071334 0.00536413 0.00319707)
(0.000558124 0.00575745 0.00177207)
(0.00154371 0.0040389 0.00253285)
(0.00172332 0.00212425 0.00462209)
(0.000431899 0.00018559 0.00368009)
(0.00117571 0.000461589 0.0033339)
(0.000698192 0.00136943 0.00324128)
(-0.000162808 0.00213907 0.00248834)
(0.000587408 0.00282581 0.00249011)
(-4.55372e-05 0.00321777 0.0030129)
(-0.000995058 0.00211264 0.00476433)
(-0.000841383 0.000841413 0.00391925)
(-0.000704916 0.000207254 0.00330125)
(-0.00177209 -0.00220199 -0.000709709)
(-3.66529e-05 -0.00343397 0.000440533)
(-0.00154993 -0.00440697 0.00124831)
(-0.000264482 -0.00430931 0.000698967)
(0.00110194 -0.00444245 0.000479217)
(0.00125605 -0.00282666 0.000802874)
(0.000252966 -0.00186265 0.00105059)
(0.000100616 -0.000385142 -0.00160203)
(-0.0015946 -0.0025544 0.00116244)
(-0.00195953 -0.00423692 0.000941283)
(-0.00186549 -0.00503004 -0.00222797)
(-0.000562352 -0.00554385 -0.00209252)
(0.00269264 -0.00546796 -0.000449804)
(0.00315859 -0.00222872 -7.45865e-05)
(0.000896644 -0.00185077 0.00237389)
(0.000691019 -0.000530078 0.00219829)
(-0.00265953 -0.00318146 0.00136223)
(-0.00302698 -0.00564969 -0.00129867)
(-0.00359826 -0.00597255 -0.00516613)
(-0.00111295 -0.00784393 -0.00546992)
(0.00344279 -0.00606272 -0.0044326)
(0.00363975 -0.00543405 -0.00373834)
(0.00267999 -0.00411143 -0.0011305)
(0.00319045 -0.00277757 0.00197746)
(-0.00508826 -0.00260644 0.00108257)
(-0.00468454 -0.00324901 -0.00303866)
(-0.00428017 -0.0040302 -0.00613244)
(-0.00137527 -0.00426156 -0.00710898)
(0.00388159 -0.00330774 -0.00723887)
(0.00501665 -0.00393076 -0.00509696)
(0.00444693 -0.00250847 -0.000821183)
(0.00291667 -0.00255145 0.00136647)
(-0.00376922 -0.000306708 0.00119377)
(-0.00478269 0.00131674 -0.000938092)
(-0.0054348 0.00126946 -0.00446982)
(-0.000773446 0.00200716 -0.00630276)
(0.00359597 0.00169174 -0.0055657)
(0.00513874 6.65448e-06 -0.00436334)
(0.00397865 -0.00105586 -0.00049715)
(0.00436077 -0.00161912 0.00260953)
(-0.00398404 0.00184381 0.00268203)
(-0.00366782 0.0031744 0.000872856)
(-0.00345667 0.00447113 -0.00135954)
(-0.000569418 0.00463464 -0.00350688)
(0.00216495 0.00361171 -0.0052272)
(0.00281705 0.00171301 -0.00248984)
(0.00324457 0.000426933 0.000481262)
(0.00430198 -0.000231748 0.00313287)
(-0.00231154 0.00201002 0.00373385)
(-0.00237606 0.00448679 0.00331546)
(-0.00297265 0.00558878 0.00142343)
(-0.00095486 0.0057428 0.00101818)
(0.000983618 0.00389065 -0.000783124)
(0.00181064 0.00291293 0.0013281)
(0.00274604 0.00196753 0.00422803)
(0.00310927 -0.000252489 0.00276681)
(-0.000189058 0.00173841 0.00166804)
(-0.000324652 0.00364707 0.00368791)
(-0.00165137 0.00474563 0.00282641)
(-0.00126803 0.00552779 0.00389534)
(-0.000411866 0.00460393 0.00568897)
(0.000694496 0.00438576 0.00503773)
(0.000517462 0.00253386 0.00446231)
(0.000556854 0.000376519 0.00023015)
(0.0503675 0.0478729 -0.00149232)
(0.0576342 0.0753681 0.00470736)
(0.0357964 0.103878 0.00365198)
(0.0115898 0.117363 0.000213247)
(-0.0162736 0.108702 -0.000191051)
(-0.0401646 0.105395 0.000702511)
(-0.0501204 0.0760844 0.00242433)
(-0.0383229 0.0457919 0.00543232)
(0.077023 0.0496453 0.00363259)
(0.0919146 0.080249 0.00446113)
(0.0769285 0.123247 0.00539029)
(0.0172794 0.140947 0.00979237)
(-0.0259699 0.134206 0.0058054)
(-0.0691534 0.12894 0.00543743)
(-0.088358 0.0891249 0.00061933)
(-0.0691202 0.0553494 0.00503821)
(0.104494 0.034015 0.00442551)
(0.131701 0.0550187 0.0120318)
(0.093176 0.0734714 0.0199482)
(0.00667105 0.0570246 0.00960087)
(-0.0142737 0.0789337 0.00813676)
(-0.0977053 0.0887049 0.0175478)
(-0.115563 0.0604893 -0.000142571)
(-0.094611 0.0389685 0.00463294)
(0.107403 0.01383 0.00898921)
(0.0873925 0.00877679 0.0178855)
(0.0839323 0.000828768 0.0137805)
(0.0204049 0.00185063 -0.00528985)
(-0.00481362 0.0100032 -8.4464e-05)
(-0.0838956 0.0157423 0.00588145)
(-0.131762 0.0334496 0.0041473)
(-0.107467 0.0106169 0.00340868)
(0.113593 -0.00980069 0.0030803)
(0.126442 -0.0153821 0.0122534)
(0.0796831 -0.018701 0.0122782)
(0.0168696 -0.00806606 -0.00047313)
(-0.00213938 -0.014914 0.000998598)
(-0.0574941 -0.01109 0.00893618)
(-0.143953 -0.0294089 0.0103835)
(-0.111761 -0.0212225 -0.000624997)
(0.0987381 -0.0327903 0.00367343)
(0.11268 -0.0598093 0.00342827)
(0.0918212 -0.0801408 0.0109295)
(0.0238377 -0.0675708 0.00864296)
(-0.00965507 -0.0680909 0.00805007)
(-0.0960046 -0.0977671 0.0156428)
(-0.120669 -0.0744996 -0.00170676)
(-0.0891033 -0.0362772 0.00221238)
(0.0757755 -0.0395182 0.00575205)
(0.0855777 -0.066302 0.00537892)
(0.0714038 -0.100496 0.00497232)
(0.0332771 -0.122851 0.00817975)
(-0.0336734 -0.134382 0.00936887)
(-0.0763347 -0.113201 -0.000219169)
(-0.0806499 -0.0762802 0.00103673)
(-0.0659123 -0.0460867 0.00506163)
(0.0552145 -0.035822 0.0083267)
(0.0589005 -0.0591693 0.00791677)
(0.0429963 -0.0866659 0.0078236)
(0.0113759 -0.101903 0.00612917)
(-0.0273813 -0.104918 0.00243149)
(-0.0453973 -0.0833591 0.00305577)
(-0.0541985 -0.0610159 0.00389331)
(-0.0478949 -0.0388289 0.00647103)
(-0.0133108 -0.00690605 0.0206588)
(-0.0162193 -0.00944968 -0.00828262)
(-0.00699783 -0.00603466 -0.0192949)
(-0.013036 -0.00452677 0.0178556)
(-0.0153964 -0.010547 -0.00912098)
(-0.00118023 -0.000948894 -0.0184729)
(-0.00883539 -0.00206656 0.0116399)
(-0.0113936 -0.00670824 -0.0102731)
(0.00153268 0.00120012 -0.00994361)
(-0.00896309 0.00138048 0.0102418)
(-0.0129763 -0.000317315 -0.00885777)
(-0.00174686 0.00178926 -0.00765129)
(-0.0131586 0.00297262 0.0125987)
(-0.0127478 0.00230616 -0.0103802)
(-3.64058e-06 -0.00186494 -0.00958126)
(-0.00730402 0.00318951 0.0107625)
(-0.0112511 0.00569257 -0.0104321)
(0.00421615 -0.00180187 -0.0118063)
(-0.00729701 0.00467705 0.0143053)
(-0.0112499 0.00949857 -0.00996444)
(0.00219378 0.000432505 -0.0155235)
(-0.0080824 0.0050465 0.017083)
(-0.0116753 0.0115732 -0.0056577)
(-0.00388954 0.00681627 -0.0152594)
(0.00654224 0.00353187 0.0212138)
(0.0184673 0.014445 0.00277826)
(0.00887765 0.00679393 -0.00778599)
(0.00580036 0.00579734 0.0147831)
(0.0199401 0.00817732 -0.00321759)
(0.00684142 0.00424998 -0.00994774)
(0.011563 0.00617946 0.00565933)
(0.0168679 0.00469853 -0.00652013)
(0.00539291 0.00042575 -0.00651481)
(0.0112231 0.000134499 0.00494938)
(0.0161881 0.00170077 -0.00530445)
(0.00596519 0.00116706 -0.00333881)
(0.0102331 0.000185759 0.0095405)
(0.0152937 -0.000848037 -0.0072644)
(0.00266228 0.000535211 -0.00507467)
(0.0112052 0.000878742 0.00608446)
(0.0154769 -0.00415305 -0.00683927)
(0.00362719 0.00034214 -0.00757998)
(0.0103524 -0.00283784 0.00909192)
(0.0176407 -0.00742161 -0.004857)
(0.00763519 -0.00379086 -0.00996943)
(0.00599508 -0.00410218 0.0138936)
(0.014567 -0.0124888 -0.000285439)
(0.00883756 -0.00598038 -0.00908511)
(0.00720101 0.00412099 -0.0102601)
(0.00707634 0.00625572 -0.00911052)
(0.00261748 0.00230153 -0.00151343)
(0.00524958 0.00565334 -0.0082865)
(0.00596782 0.00618551 -0.00514181)
(-0.00195718 0.00170778 0.000826186)
(0.00550021 0.0040249 -0.00628897)
(0.00324737 0.0028451 -0.00197495)
(-0.00422878 -7.5738e-05 -5.95867e-05)
(0.00557481 -0.000311901 -0.00528663)
(0.00259492 0.00132705 -0.00252505)
(-0.00459254 0.00205556 -0.000647472)
(0.00798418 0.000219404 -0.0059842)
(0.00412138 0.0013316 -0.0018599)
(-0.00544175 0.00391158 0.000948756)
(0.00596862 0.00169159 -0.00624316)
(0.00452536 0.00021315 -0.00305724)
(-0.00381726 0.00353198 0.000913662)
(0.00605472 -0.00117417 -0.00671743)
(0.00666064 -0.0016892 -0.00319849)
(6.5507e-05 0.00205039 0.00132191)
(0.00464326 -0.00310346 -0.00645823)
(0.00673903 -0.00537223 -0.00441073)
(0.00241453 -0.000450095 -4.79125e-05)
(0.000118576 -0.00279915 -0.00217607)
(-0.00166505 -0.0036416 0.00577515)
(-0.00203664 -0.002395 0.0022322)
(0.000291283 -0.00286668 -0.00237187)
(-0.00058434 -0.00388328 0.00372577)
(0.000145475 -0.00184956 0.000770161)
(-0.000402626 -0.00155327 -0.00156056)
(-0.000256618 -0.00155814 0.00198842)
(0.000593463 -0.000307242 0.000743376)
(-0.000470876 -0.00059846 -0.00100189)
(-0.000675148 -0.000481308 0.00267441)
(-0.00016366 -0.000212589 0.00126638)
(-0.000734972 -5.01367e-05 -0.00315715)
(-0.000642952 0.000315137 0.0027912)
(0.000665789 0.000434885 0.00252034)
(-0.00016545 0.00075542 -0.0030754)
(-5.42549e-05 0.00128556 0.000662292)
(0.000477237 0.000377184 0.00209712)
(0.00026331 0.00120748 -0.0014437)
(0.000145478 0.00150384 0.00291564)
(0.00128613 0.000280382 0.0019329)
(0.000640724 0.00145674 -0.00168964)
(0.000363384 0.00222044 0.00492417)
(0.000640723 0.0013045 0.00342486)
(0.00239555 -0.00202242 -0.00358873)
(0.00739543 0.00139117 -0.00586917)
(0.00462956 0.00180268 -0.00369608)
(0.00234593 -0.00170338 -0.00400026)
(0.00650407 0.000978824 -0.00487705)
(0.00417718 -0.00120045 -0.00159836)
(0.00200109 -0.0010027 -0.00382591)
(0.00510607 0.000876689 -0.00278927)
(0.0016843 -0.00112433 0.00061205)
(0.00184898 -0.00077467 -0.00318562)
(0.00424059 -0.000616121 -0.00185421)
(-0.000176834 -0.00200656 0.00103932)
(0.00151229 0.000108725 -0.00303309)
(0.00338451 -0.000648742 -0.0022466)
(-0.000462557 -0.000436248 0.00182696)
(0.00142372 0.000319715 -0.00442009)
(0.00379174 -0.000888965 -0.00278132)
(-0.000294469 0.000396044 0.00206827)
(0.0018366 0.000456291 -0.0040621)
(0.00438324 -0.00230304 -0.00297254)
(0.00159041 -0.00134678 0.000722669)
(0.00151267 0.00163085 -0.00252818)
(0.00412367 -0.00144744 -0.00173881)
(0.00343286 -0.00250705 -0.00058355)
(0.0112528 -0.0042515 -0.0172407)
(0.0223021 0.00880566 -0.014882)
(0.0282702 0.023971 -0.013738)
(0.0121778 -0.00589677 -0.0116484)
(0.0303906 0.00733991 -0.00536068)
(0.044414 0.0265632 0.0010593)
(0.010678 -0.00404741 -0.00926895)
(0.0337241 0.0100868 -0.00164492)
(0.0624301 0.024096 0.00540983)
(0.0118074 -5.49113e-05 -0.00894373)
(0.0407545 0.00708828 0.000291978)
(0.0706775 0.011593 0.00558151)
(0.0116929 0.00393373 -0.00948961)
(0.0404092 2.86421e-05 -0.000210468)
(0.0739908 -0.00298571 0.00461343)
(0.010633 0.00384987 -0.00959087)
(0.0377393 -0.00678591 -0.00109025)
(0.0638717 -0.0164186 0.00632137)
(0.0115349 0.00468197 -0.00931007)
(0.0331579 -0.0107259 -0.00145216)
(0.0516743 -0.0228061 0.0066743)
(0.0117889 0.00651426 -0.00750408)
(0.030492 -0.00934703 -0.00282674)
(0.0450442 -0.0240254 0.0051818)
(-0.00554209 0.0059772 -0.0179987)
(-0.000603331 0.00177054 -0.0157598)
(-0.000117906 0.00202455 -0.0109559)
(0.00199512 -0.00613241 -0.00838685)
(-0.000373077 -0.00493806 -0.00612653)
(-0.00161703 -0.00151693 -0.0150508)
(0.00271046 0.000930449 -0.0196288)
(0.00624076 0.00730615 -0.017154)
(-0.0123279 0.0146434 -0.00561839)
(-0.00818164 0.0133828 -0.00961022)
(-0.00519592 0.0148877 -0.0092305)
(-0.00246606 0.010986 -0.0105945)
(0.003253 0.0112873 -0.0146456)
(0.00866007 0.0136989 -0.0132216)
(0.0109145 0.0157823 -0.00930852)
(0.0100685 0.016546 -0.00375326)
(-0.00484888 0.00786971 0.0171783)
(-0.00339865 0.00933602 0.013791)
(-0.0021581 0.0124485 0.0135379)
(-0.000848356 0.00735789 0.00941432)
(0.00354061 0.0117412 0.00953436)
(0.00741414 0.0128474 0.0158154)
(0.00423125 0.0123227 0.018445)
(0.00547569 0.00840258 0.0196705)
(0.00945399 -0.0073604 -0.00911917)
(0.0030163 -0.00387436 -0.0100986)
(0.00130783 -0.00106131 -0.00895632)
(0.00014791 -0.00215886 -0.00643584)
(-0.000136887 0.00427393 -0.00349606)
(0.000752797 -0.00156314 -0.009561)
(-0.00527077 -0.00656207 -0.0111239)
(-0.00805917 -0.0100234 -0.00950878)
(0.0148228 -0.0145082 0.00221293)
(0.00839474 -0.0143811 -0.00372106)
(0.00589128 -0.0150642 -0.00553693)
(0.00286495 -0.0134684 -0.00758233)
(-0.00114668 -0.0123224 -0.00824157)
(-0.00556018 -0.0179425 -0.00600979)
(-0.0118793 -0.0189773 -0.0024417)
(-0.0118236 -0.0158429 0.000222757)
(0.00559649 -0.00587257 0.0157777)
(0.00231131 -0.00743286 0.0105656)
(0.00391441 -0.00831446 0.0118419)
(0.00311927 -0.011084 0.00244774)
(-0.00469476 -0.0114179 0.00606161)
(-0.00271896 -0.008521 0.0132385)
(-0.00328628 -0.00805623 0.0164449)
(-0.00185069 -0.00840382 0.0155964)
(0.00495384 -0.0025531 -0.000469391)
(0.00080197 0.00301741 2.38811e-06)
(0.000973899 0.00528266 0.000301641)
(-0.000326649 0.0084568 0.000784237)
(-0.000461549 0.00787129 0.000600936)
(0.00150342 0.0045868 0.00176102)
(-0.00128606 0.000495944 0.000988926)
(-0.00178791 -0.00196019 -0.00130396)
(0.007763 -0.00659499 -0.00571966)
(0.00525879 -0.00458687 -0.00226013)
(0.00423239 -0.00439228 -0.00141046)
(0.000806858 -0.00108781 3.94195e-05)
(-0.00218503 -0.00246634 0.000289801)
(-0.00345582 -0.0063181 -0.00205704)
(-0.0050486 -0.007728 -0.00475279)
(-0.00490561 -0.00695751 -0.00609691)
(0.00494523 -0.00413799 -0.00608197)
(0.00322171 -0.00433127 -0.00469321)
(0.00414963 -0.00579559 -0.00282682)
(0.00147563 -0.00393066 -0.00284095)
(-0.00416202 -0.00633205 -0.00453841)
(-0.00428796 -0.00716629 -0.00588385)
(-0.00343679 -0.00689484 -0.00641439)
(-0.00215282 -0.00583343 -0.00722709)
(0.000348631 0.0012238 0.00299774)
(0.000817009 0.000215012 0.00273802)
(0.000365358 0.000127895 0.0026968)
(0.00112325 -0.000256226 0.00318919)
(-0.000316937 -0.000447892 0.00348498)
(-0.00123902 0.000437279 0.0036545)
(-7.31358e-05 0.00117274 0.00431435)
(0.000296194 0.00180527 0.0038219)
(-0.000604103 0.00166308 0.00364878)
(-0.000806995 0.000756797 0.0033503)
(-0.000626886 0.000838582 0.00594763)
(-1.27575e-05 0.000853955 0.0054051)
(0.000519165 0.000896213 0.00430544)
(0.0009223 0.0016376 0.00378945)
(0.00133938 0.00170027 0.00421669)
(0.000822985 0.00197597 0.00452956)
(0.000292995 0.000800951 -0.00263865)
(-0.000358828 0.000518734 -0.00082515)
(-0.000542146 0.00044607 0.00161465)
(0.000233156 0.000606322 0.00243212)
(0.000710007 0.000884022 0.000702877)
(0.000216585 0.00108937 -0.0018157)
(8.98044e-05 0.000954245 -0.00237498)
(8.43896e-05 0.000794579 -0.00211711)
(0.00277124 -0.00205246 -0.000711977)
(0.00103489 -0.000415091 0.00118194)
(0.000189007 0.000409529 0.000911127)
(-0.000345205 0.00158617 0.00238927)
(-0.000534563 0.00196485 0.00454439)
(-0.00106778 0.00113925 0.00236361)
(-0.00177618 -0.000732957 -0.000178373)
(-0.00299912 -0.00267294 -0.00195198)
(0.00237758 -0.00213387 -0.000977094)
(0.00128706 -0.00190642 -0.000512028)
(0.000971567 -0.0017101 -0.000490989)
(0.000935287 -0.00115606 0.000162532)
(-0.0010923 -0.00122093 0.000171715)
(-0.00242466 -0.00176724 -0.000992798)
(-0.00239659 -0.00191296 -0.00203581)
(-0.00276067 -0.00275993 -0.00219768)
(0.000828366 0.000863893 -0.000787129)
(0.000171027 -8.015e-05 -1.20183e-05)
(9.41861e-05 -8.99934e-05 0.000313787)
(4.54984e-05 -0.000297303 -0.000311701)
(-0.0007666 -0.000586689 -0.000300594)
(-0.00101327 -6.24431e-05 -0.000238088)
(-0.000934914 0.000300956 -0.0010099)
(-0.000655626 0.000565734 -0.00204236)
(0.0424351 -0.029932 0.00555866)
(0.0396085 -0.0424092 0.00691407)
(0.0300301 -0.0613627 0.0071718)
(0.00641936 -0.0737803 0.00807475)
(-0.0191947 -0.0655416 0.00623219)
(-0.0300668 -0.0528525 0.00652736)
(-0.0374211 -0.0399662 0.00579674)
(-0.0387452 -0.0312547 0.00392302)
(0.0273244 -0.019526 -0.00245485)
(0.0217164 -0.0269696 0.000363466)
(0.0158018 -0.0337356 0.0027064)
(0.00420672 -0.0364699 0.00480912)
(-0.0100325 -0.033743 0.00496633)
(-0.0181203 -0.0317275 0.0021929)
(-0.0238015 -0.0264425 -0.000612047)
(-0.0249013 -0.0212269 -0.0041327)
(0.00917628 0.000196341 -0.00620582)
(0.00577872 -0.0041447 -0.00445279)
(0.00431505 -0.00747405 -0.0030068)
(0.000141829 -0.007647 -0.00131471)
(-0.00560813 -0.00767411 -0.00272215)
(-0.0073175 -0.0058718 -0.00552151)
(-0.00880884 -0.00380102 -0.00723513)
(-0.00686551 -0.0020055 -0.00859318)
(0.0026871 -0.00718174 -0.0207747)
(0.0117193 -0.0151754 -0.0085664)
(0.009091 -0.00829533 0.0211498)
(-0.00144931 6.90024e-05 -0.0173017)
(0.00985486 -0.0130364 -0.00969427)
(0.00600916 -0.0109723 0.0179174)
(-0.00221799 0.0046099 -0.00721116)
(0.00431635 -0.00502817 -0.00940758)
(0.00196503 -0.0130386 0.0132161)
(-0.000336876 0.00414066 -0.00570834)
(0.00300657 0.00762583 -0.0105349)
(0.00362578 0.0118773 0.0122378)
(0.000823434 0.000452933 -0.0081378)
(0.0195682 0.00981411 -0.0126679)
(0.0155765 0.0199239 0.00442239)
(0.00156968 0.00100348 -0.0118494)
(0.0148373 0.00417312 -0.0112835)
(0.0100458 0.00201341 0.0106945)
(0.00151729 0.00106618 -0.0134183)
(0.0119995 0.00897126 -0.010067)
(0.00672484 0.00517852 0.0137577)
(0.00492776 0.00592459 -0.0162253)
(0.0117079 0.0110515 -0.00658215)
(0.00709052 0.00524268 0.0179605)
(-0.0106913 0.00813902 -0.011206)
(-0.0182473 0.0144241 -0.00107906)
(-0.00662785 0.00611711 0.0197614)
(-0.0104925 0.00401281 -0.0102645)
(-0.0214231 0.00959651 -0.00340927)
(-0.0101502 0.00381133 0.0149859)
(-0.00249479 0.00217938 -0.00515294)
(-0.0154707 0.00667239 -0.00618564)
(-0.0128352 0.00427407 0.00902796)
(0.000783585 0.00501133 -0.00378916)
(-0.0143555 0.00849306 -0.00689373)
(-0.00986835 0.00729309 0.0129178)
(0.00709195 0.00325058 -0.00505591)
(-0.00788932 0.0048411 -0.0113983)
(-0.00480814 0.0107832 -0.000371653)
(0.000832405 0.000804676 -0.00807354)
(-0.0121201 -0.00641536 -0.00835838)
(-0.0084908 -0.00278399 0.00534867)
(-0.00413792 -0.0029221 -0.00952939)
(-0.0139015 -0.00789902 -0.00565555)
(-0.00842902 -0.00329444 0.00832182)
(-0.00875725 -0.00746465 -0.0095659)
(-0.0145594 -0.0160328 -0.00136884)
(-0.00691698 -0.00687583 0.0147517)
(-0.000873528 0.00394973 -0.000688775)
(-0.00609762 0.00879798 -0.00736729)
(-0.00452024 0.00728303 -0.00871331)
(0.00206524 0.00176757 0.000741343)
(-0.0058326 0.00717689 -0.00261779)
(-0.00522406 0.00677378 -0.00415314)
(0.00596773 0.00144335 5.26596e-05)
(-0.00175353 0.00497591 0.001563)
(-0.00501016 0.0045402 -0.000981578)
(0.00693502 0.00351194 0.00108933)
(-0.00246259 0.00494667 0.00295141)
(-0.00696056 0.00378932 0.000723706)
(0.00912837 0.00496499 0.000118914)
(-0.000340322 0.00270467 -0.00356445)
(-0.00598836 0.00388799 -0.011794)
(0.00540416 0.00457588 -0.000674815)
(-0.00310624 -0.00162916 -0.00421645)
(-0.00615715 -0.00160098 -0.00778589)
(0.0024034 0.00328664 -0.00106884)
(-0.0039621 -0.00248235 -0.00453012)
(-0.00482188 -0.00225372 -0.0060843)
(-0.00317767 -0.00196388 0.000264513)
(-0.00667033 -0.00717885 -0.00453467)
(-0.00430252 -0.00494549 -0.00692222)
(0.000477867 -0.00145811 0.00344048)
(0.00142552 -0.00332351 0.00618424)
(0.000238912 -0.00173318 -0.00105906)
(-0.000837184 0.00123834 0.00346657)
(0.000285915 -0.0020635 0.00780324)
(-0.000259972 -0.00184944 0.00222968)
(-0.00192467 0.00143228 0.00172017)
(-0.00121482 -0.00144259 0.00783351)
(-0.00022192 8.90587e-05 0.00632668)
(-0.00231919 0.00188847 0.00152113)
(0.000406298 0.00240095 0.00704855)
(0.00206714 0.00290279 0.00728313)
(9.844e-05 0.00108526 0.000390526)
(0.00177026 0.00271056 0.00367319)
(0.00132516 0.00154109 -0.00319583)
(-0.000513478 -0.000249284 0.000767012)
(0.000896632 0.000544459 0.00117666)
(0.000952425 -0.000468865 -0.00591583)
(0.000157993 -2.91434e-05 0.00153199)
(0.00100748 0.00144543 0.0016653)
(0.000382793 0.000329022 -0.00403373)
(2.51896e-05 0.000129199 0.00170707)
(0.00121298 0.00121899 0.00219942)
(0.00079187 0.000353305 -0.0031786)
(-0.00527234 0.00304681 -0.00454771)
(-0.005207 0.00214395 -0.00485317)
(-0.000812706 -0.000581623 -0.00126836)
(-0.00415758 0.00189096 -0.00110716)
(-0.005014 0.00210006 -0.00303276)
(-0.0010413 -0.000154725 -0.000492135)
(-0.0015042 -0.00136499 0.00220147)
(-0.00421908 -0.000689977 -0.00120002)
(-0.00120603 -0.00147721 0.000821213)
(-0.00228594 -0.00162032 0.00289176)
(-0.00415679 -0.00137394 -5.19117e-05)
(-0.000660416 -0.00108476 0.00195968)
(-0.000111947 -0.00114792 0.00386533)
(-0.00283528 -0.00180877 -1.3683e-05)
(-0.000183957 -0.000855237 -0.00128363)
(-0.00103105 -0.00253596 0.00162333)
(-0.00337997 -0.00247136 -0.00301388)
(0.000203519 -0.00105873 -0.00386494)
(-0.00136572 -0.0028814 -0.000968283)
(-0.00362079 -0.00148407 -0.00332036)
(-0.000628561 0.000154591 -0.00376006)
(-0.00325742 -0.00394587 -0.00300256)
(-0.00354629 -0.00221062 -0.00368324)
(-0.000515725 0.000442663 -0.00224148)
(-0.0280247 0.0291055 0.00781084)
(-0.0212049 0.0171509 -0.000397907)
(-0.00469681 0.0050567 -0.00650804)
(-0.0443998 0.0324419 0.00885259)
(-0.0285696 0.0166956 0.00195182)
(-0.00821104 0.00435844 -0.00494016)
(-0.0590701 0.0190392 0.00825846)
(-0.0306837 0.0067848 0.00479383)
(-0.00845554 -0.0015773 -0.00163866)
(-0.0707844 0.00467067 0.00498632)
(-0.0370104 0.000747897 0.000548484)
(-0.00926881 -0.00397925 -0.00539632)
(-0.0658238 -0.00844206 0.00525165)
(-0.0359954 -0.0048584 0.00150927)
(-0.00903944 -0.00335661 -0.00615281)