/*--------------------------------*- C++ -*----------------------------------*\
| =========                 |                                                 |
| \\      /  F ield         | OpenFOAM: The Open Source CFD Toolbox           |
|  \\    /   O peration     | Version:  4.x                                   |
|   \\  /    A nd           | Web:      www.OpenFOAM.org                      |
|    \\/     M anipulation  |                                                 |
\*---------------------------------------------------------------------------*/
FoamFile
{
    version     2.0;
    format      ascii;
    class       volVectorField;
    location    "1";
    object      UsNext;
}
// * * * * * * * * * * * * * * * * * * * * * * * * * * * * * * * * * * * * * //

dimensions      [0 1 -1 0 0 0 0];

internalField   nonuniform List<vector> 
960
(
(2.63582e-05 3.90852e-05 -7.70636e-05)
(7.22533e-05 3.34931e-05 -4.89007e-05)
(7.85824e-05 1.91434e-05 -3.52851e-05)
(6.01269e-05 -3.7986e-06 -3.69381e-05)
(4.85415e-05 1.29444e-05 -2.45278e-05)
(-1.52448e-05 1.08464e-05 -5.26298e-05)
(-4.79159e-05 -2.11511e-05 -0.000112134)
(1.90582e-05 -4.23205e-05 -8.42612e-05)
(5.58969e-05 4.36615e-05 -6.42052e-05)
(7.46255e-05 2.5411e-05 -3.58065e-05)
(6.70959e-05 -1.33691e-05 -2.21244e-05)
(5.87268e-05 -1.9924e-05 -3.9048e-06)
(-5.56837e-06 8.70388e-06 -1.05498e-05)
(-5.45499e-05 3.64011e-05 -7.22952e-05)
(-5.65321e-05 3.7355e-05 -0.000102851)
(-1.86935e-05 4.1925e-05 -3.51203e-05)
(6.65448e-05 7.0903e-05 3.04073e-06)
(6.79432e-05 2.30575e-05 9.75455e-06)
(3.15615e-05 6.46294e-06 8.8688e-06)
(4.41349e-06 -1.02354e-05 1.80407e-05)
(-3.59109e-05 3.21811e-05 4.69975e-07)
(-8.21233e-05 6.33574e-05 -4.04129e-05)
(-4.52866e-05 4.59199e-05 -5.86234e-05)
(4.40481e-06 1.39685e-05 2.36446e-05)
(1.59413e-05 6.78255e-05 3.57009e-05)
(2.39345e-05 3.32802e-05 2.66497e-05)
(-3.08021e-05 3.0217e-06 4.05898e-05)
(-3.42987e-05 2.88112e-05 5.53985e-05)
(-5.95111e-05 3.38796e-05 3.2623e-06)
(-8.57966e-05 6.25627e-05 -2.76623e-05)
(-5.11069e-05 3.36189e-05 -4.61766e-05)
(3.34788e-06 2.00832e-06 1.08038e-05)
(2.3141e-05 4.17215e-05 3.54278e-05)
(2.4986e-05 4.21149e-05 4.70767e-05)
(-4.0622e-05 -8.06647e-06 7.79275e-05)
(-6.31847e-05 1.08432e-05 7.18661e-05)
(-3.75607e-05 -1.18486e-07 1.40897e-05)
(-9.43318e-05 2.74883e-05 -7.02129e-05)
(-3.01678e-05 2.38085e-05 -9.19082e-05)
(2.14574e-05 -2.00295e-05 -6.65749e-05)
(-5.56718e-06 -6.82493e-07 3.36179e-05)
(-3.70801e-08 -4.33977e-06 6.46132e-05)
(-2.91613e-05 -2.7043e-05 0.000105761)
(-0.000112284 -4.84412e-05 3.45184e-05)
(-6.92835e-05 -1.5393e-05 -3.10456e-05)
(-4.66302e-05 -1.49183e-06 -0.000109172)
(-7.7789e-06 1.43146e-05 -9.81227e-05)
(4.2832e-06 2.67858e-05 -0.000125619)
(-8.7592e-06 -3.39767e-05 5.97688e-06)
(-8.86267e-06 -4.07645e-05 2.32288e-05)
(-3.05936e-05 -3.23681e-05 3.13269e-05)
(-6.66883e-05 -2.448e-05 9.95117e-06)
(-6.61868e-05 -2.95475e-05 -7.72411e-05)
(-2.75409e-05 -6.953e-06 -0.000121917)
(1.84984e-05 1.99317e-05 -5.10054e-05)
(-4.68883e-06 5.35025e-05 -2.50271e-05)
(-3.14833e-05 -4.46153e-05 -3.24649e-05)
(-2.63864e-05 -1.7403e-05 -2.16579e-05)
(-3.85509e-05 -3.77989e-05 -1.31256e-06)
(-5.07e-05 -3.50561e-05 6.11883e-07)
(-4.43359e-05 -8.34223e-06 -5.45977e-05)
(-1.5163e-05 8.69042e-07 -6.46162e-05)
(4.29706e-05 -1.71168e-05 2.62024e-05)
(1.61572e-05 5.61165e-06 6.61947e-05)
(-2.18227e-05 1.19894e-05 -7.83139e-05)
(1.24562e-07 4.08087e-06 -5.21754e-05)
(7.20259e-06 -3.18681e-05 -2.60501e-05)
(1.43874e-05 -2.24973e-05 -1.90433e-05)
(3.16554e-05 -1.50571e-05 -2.21644e-05)
(2.46814e-06 -1.48924e-06 -3.82622e-05)
(-2.11385e-05 -1.20164e-05 -8.59495e-05)
(-2.60682e-05 -3.17355e-05 -6.49895e-05)
(1.60368e-05 -1.73175e-05 -5.72026e-05)
(2.4693e-05 -2.86437e-05 -4.02663e-05)
(3.24349e-05 -5.07104e-05 -1.92183e-05)
(1.75786e-05 -4.61596e-05 4.66863e-06)
(1.24451e-05 -1.17739e-05 -8.97257e-06)
(-1.25505e-05 1.90234e-05 -3.92435e-05)
(-3.53338e-05 8.0168e-06 -8.21446e-05)
(-4.45145e-05 -1.09451e-05 -3.77783e-05)
(2.3856e-05 -3.48079e-06 -1.87436e-05)
(3.46274e-05 -2.75246e-05 -4.24864e-06)
(2.58886e-05 -3.70557e-05 -2.17051e-06)
(2.24058e-06 -3.89884e-05 5.92921e-06)
(-4.31751e-06 1.45971e-06 -1.40933e-05)
(-2.74851e-05 3.26819e-05 -3.28626e-05)
(-4.43271e-05 2.66152e-05 -6.2142e-05)
(-3.0709e-05 1.636e-05 -2.79952e-06)
(-5.46197e-06 1.53722e-05 -5.47866e-06)
(1.91379e-05 -6.84197e-06 1.049e-05)
(4.50409e-06 -1.9309e-05 3.68183e-05)
(3.34828e-07 -6.69281e-07 2.0753e-05)
(-1.97238e-05 2.08996e-05 -1.3909e-06)
(-4.03601e-05 4.5215e-05 -3.84268e-05)
(-3.31337e-05 3.46118e-05 -5.39037e-05)
(-2.64268e-05 2.88391e-05 -2.35536e-05)
(-1.57943e-05 3.62104e-05 2.46027e-05)
(5.6942e-07 2.54069e-05 3.43327e-05)
(-2.32009e-05 4.0367e-06 5.11971e-05)
(-1.92878e-05 1.56362e-05 3.25782e-05)
(-2.37973e-05 2.81449e-05 -3.91994e-06)
(-3.96204e-05 4.19911e-05 -5.51927e-05)
(-2.74375e-05 3.78114e-05 -0.000100108)
(-1.34381e-05 1.17092e-05 -9.29338e-05)
(-2.39496e-05 1.66809e-05 4.20136e-05)
(-1.44617e-05 2.02507e-05 5.97213e-05)
(-1.44235e-05 2.3242e-05 9.29243e-05)
(-4.618e-05 1.28445e-05 4.10186e-05)
(-4.20271e-05 1.84223e-05 -4.21251e-05)
(-2.96778e-05 1.7078e-05 -9.23079e-05)
(-2.11282e-05 8.03838e-06 -0.00010302)
(-3.47064e-05 4.11667e-06 -9.36326e-05)
(-2.34397e-05 -7.71954e-06 1.65047e-05)
(-2.46978e-05 8.03753e-07 2.60148e-05)
(-1.86564e-05 1.20185e-05 4.0255e-05)
(-2.98371e-05 -2.03284e-06 2.40602e-06)
(-3.71592e-05 6.99997e-06 -7.22952e-05)
(-1.69512e-05 -2.90419e-07 -0.000110492)
(-7.51395e-06 7.14707e-06 -5.96319e-05)
(-2.09049e-05 -1.52347e-05 -3.99173e-05)
(-3.04435e-05 -2.18318e-05 -2.07568e-05)
(-2.71561e-05 -1.03498e-05 -1.5918e-05)
(-2.09285e-05 -1.22214e-05 -8.37681e-06)
(-2.06421e-05 -8.56702e-06 -1.55367e-05)
(-2.74214e-05 -8.3489e-06 -6.76554e-05)
(-3.85263e-05 -1.89016e-05 -6.77776e-05)
(8.98445e-06 -1.17371e-05 -4.09013e-06)
(2.71827e-05 -1.08081e-05 3.27515e-05)
(-2.63979e-05 -6.65554e-06 -0.000105028)
(-4.16006e-05 -4.12775e-06 -6.29402e-05)
(-4.39621e-05 -3.12332e-05 -3.37448e-06)
(-3.65831e-05 -3.72501e-05 -1.25531e-05)
(-4.67496e-06 -2.09486e-05 -1.32225e-05)
(2.43155e-05 -4.10329e-06 -2.82746e-05)
(2.30958e-05 9.20277e-06 -4.39043e-05)
(-1.77659e-08 -9.90579e-06 -2.92682e-05)
(-3.13359e-05 -4.1194e-05 -7.94629e-05)
(-1.80336e-05 -2.71157e-05 -6.73945e-05)
(-8.69574e-06 -4.50831e-05 -2.89814e-05)
(-9.81388e-06 -5.46705e-05 -1.9496e-05)
(6.44409e-07 -3.82305e-05 -1.63176e-05)
(1.65914e-05 6.7466e-07 -3.81749e-05)
(1.55197e-05 7.3906e-06 -5.09634e-05)
(5.0027e-07 -9.19815e-06 -3.10681e-05)
(-2.07731e-05 -3.99245e-05 -6.3012e-05)
(7.90025e-06 -2.30081e-05 -6.58942e-05)
(1.05947e-05 -3.26298e-05 -3.12154e-05)
(5.76061e-06 -4.19027e-05 -2.25782e-05)
(5.66979e-06 -3.07614e-05 -2.2854e-05)
(7.14289e-06 1.786e-06 -3.51241e-05)
(6.86226e-06 1.61617e-05 -4.83051e-05)
(-2.16253e-05 1.77267e-05 -1.34871e-05)
(-2.76431e-05 -4.36201e-05 -6.32243e-05)
(4.58613e-06 -5.49194e-06 -3.2253e-05)
(1.55106e-05 -7.90408e-06 -2.96806e-05)
(1.84159e-05 -3.63123e-05 -1.99241e-05)
(1.44499e-05 -5.57287e-06 -2.45936e-05)
(-4.79865e-06 1.74008e-05 -4.34342e-05)
(-5.40195e-06 3.13213e-05 -5.19137e-05)
(-2.43646e-05 3.28749e-05 -2.28283e-05)
(-6.96515e-07 -4.16192e-06 8.25549e-06)
(-1.26455e-05 4.38961e-06 -1.06459e-06)
(-5.09951e-06 -4.71154e-06 -4.17779e-06)
(2.59778e-05 -1.5738e-05 -6.85382e-06)
(1.45674e-05 1.04345e-05 -1.63972e-05)
(1.60884e-05 2.85406e-05 -4.9144e-05)
(3.77605e-06 3.15691e-05 -6.6439e-05)
(-2.38411e-05 3.32027e-05 -5.57907e-05)
(-1.16209e-05 1.5467e-05 4.13301e-05)
(-1.47925e-05 3.36157e-05 3.59557e-05)
(-1.29671e-05 1.33394e-05 2.80722e-05)
(3.6093e-06 -4.96212e-06 -5.62499e-07)
(-2.52561e-06 2.02759e-05 -4.89386e-05)
(-6.88908e-07 2.92229e-05 -7.46757e-05)
(-1.62774e-05 1.70376e-05 -7.87656e-05)
(-3.84387e-05 9.23113e-07 -6.03314e-05)
(-2.06092e-05 5.51729e-06 3.13107e-05)
(-1.31371e-05 1.91416e-05 2.39738e-05)
(-7.57249e-06 3.02465e-05 1.39545e-05)
(-4.1372e-06 1.50237e-05 -1.18825e-05)
(-9.872e-06 -9.00242e-07 -6.9134e-05)
(-1.77303e-05 -2.30119e-06 -8.89557e-05)
(-2.55432e-05 -5.07656e-06 -6.47972e-05)
(-3.39938e-05 -3.00395e-05 -4.06272e-05)
(-1.9958e-05 -7.69536e-06 -6.36074e-06)
(-1.59907e-05 8.40367e-06 -4.83067e-06)
(-1.23744e-05 1.28453e-05 -3.28651e-06)
(-1.55654e-05 1.07014e-05 -1.32876e-05)
(-1.84146e-05 -1.55718e-06 -6.116e-05)
(-2.77512e-05 -1.13728e-05 -7.60261e-05)
(-2.46602e-05 -1.44784e-05 -5.77581e-05)
(-4.7174e-06 -4.26095e-05 -1.46165e-05)
(-4.09081e-05 -8.8887e-06 -9.11116e-05)
(-5.91622e-05 -1.09249e-05 -7.5048e-05)
(-7.42022e-05 2.0295e-06 -1.65775e-05)
(-6.36069e-05 -2.08139e-05 -1.94692e-05)
(-1.79644e-05 -2.21042e-05 -1.77039e-05)
(1.64602e-06 -1.29389e-05 -3.13334e-05)
(1.55782e-05 1.36453e-05 -2.80746e-05)
(-1.67394e-06 5.1924e-07 -4.32492e-06)
(-5.33731e-05 1.36346e-05 -0.00010008)
(-6.84114e-05 2.54717e-05 -0.000110725)
(-4.07814e-05 -1.48131e-05 -2.72687e-05)
(-3.84542e-05 -3.56668e-05 -2.88255e-05)
(-1.29249e-05 -4.30882e-05 -2.18613e-05)
(1.2592e-05 -1.38403e-05 -4.30607e-05)
(1.84825e-05 8.18052e-06 -3.45402e-05)
(2.8082e-06 1.10972e-05 -9.39083e-06)
(-5.42625e-05 -2.91356e-05 -8.04943e-05)
(-3.2314e-05 -1.47176e-05 -0.000101521)
(-3.34033e-06 -2.92242e-05 -7.59074e-05)
(-2.05587e-06 -4.23883e-05 -3.51104e-05)
(7.81543e-06 -3.62525e-05 -3.05427e-05)
(1.10861e-05 -9.72268e-06 -4.36622e-05)
(6.94331e-06 5.70737e-06 -3.03014e-05)
(-1.03845e-05 1.69111e-05 -9.49247e-06)
(-2.04727e-05 -5.42289e-05 -9.41057e-05)
(-2.30937e-05 -1.26749e-05 -0.00010507)
(2.56472e-05 -1.69679e-05 -7.80274e-05)
(3.72653e-05 -1.22305e-05 -4.44869e-05)
(2.10204e-05 -1.84548e-05 -3.74232e-05)
(9.6423e-06 -3.0608e-06 -4.20552e-05)
(6.3048e-06 1.12929e-05 -4.21372e-05)
(-1.62323e-05 1.68879e-05 -1.29375e-05)
(4.86025e-06 -2.34404e-05 -2.63433e-05)
(8.17937e-06 -8.254e-06 -6.5664e-05)
(2.13969e-05 4.62843e-06 -4.18396e-05)
(2.81768e-05 6.3959e-07 -4.95461e-05)
(3.61862e-05 -6.52642e-06 -3.16397e-05)
(1.89887e-05 1.0235e-05 -3.71806e-05)
(-4.53409e-06 1.64221e-05 -4.12164e-05)
(-1.37644e-05 2.01669e-05 -3.0037e-05)
(8.20334e-07 6.87738e-06 5.70509e-06)
(4.96933e-06 1.46378e-05 -8.96834e-06)
(1.37272e-05 3.71626e-06 -3.4094e-05)
(3.47918e-05 1.65702e-05 -5.6563e-05)
(2.60035e-05 6.58005e-06 -4.68559e-05)
(8.58639e-06 1.02225e-05 -4.49773e-05)
(-1.72951e-05 1.26401e-05 -5.12953e-05)
(-2.51569e-05 4.08353e-06 -3.90922e-05)
(-1.15972e-05 1.14882e-05 2.03633e-05)
(-4.07306e-06 2.84032e-05 1.20979e-05)
(5.35988e-06 1.98968e-05 -3.33896e-06)
(1.68974e-05 1.74302e-05 -2.75727e-05)
(8.66085e-06 1.54591e-05 -5.46665e-05)
(-1.99554e-05 5.14125e-06 -5.84841e-05)
(-2.1176e-05 -1.08378e-05 -5.89168e-05)
(-3.3232e-05 -1.83998e-05 -3.96211e-05)
(-1.18308e-05 3.91972e-06 -2.98602e-06)
(-9.03519e-06 2.11026e-05 -2.34001e-06)
(-9.89794e-06 1.68851e-05 -1.90056e-06)
(-6.88414e-06 1.09556e-05 -1.34407e-05)
(-1.75127e-05 -1.83578e-05 -5.13321e-05)
(-3.46617e-05 -1.78284e-05 -6.63286e-05)
(-3.4158e-05 -2.85875e-05 -7.0129e-05)
(-2.62595e-05 -4.63616e-05 -4.38129e-05)
(-2.03732e-05 -2.26848e-05 -0.000123022)
(-7.30809e-05 -1.7489e-05 -7.90743e-05)
(-6.06266e-05 2.48053e-05 -1.1711e-05)
(-3.26945e-05 -3.07712e-05 -1.51378e-05)
(-2.54936e-05 -3.67543e-05 -2.81486e-05)
(-2.63372e-05 -2.88552e-05 -2.66617e-05)
(-3.16093e-06 5.03699e-06 -2.4432e-05)
(-6.30917e-06 -2.56032e-07 1.95749e-06)
(-5.09655e-05 1.89632e-05 -7.23957e-05)
(-8.56331e-05 -1.12272e-06 -0.000119924)
(-5.20378e-05 -1.22676e-05 -3.64522e-05)
(-4.12291e-05 -4.72564e-05 -3.09859e-05)
(2.03136e-06 -4.61731e-05 -3.12648e-05)
(1.52135e-05 -2.09942e-05 -4.29522e-05)
(8.75592e-06 4.28061e-07 -3.09855e-05)
(-2.25687e-08 -3.52114e-06 -8.38805e-06)
(-4.54637e-05 5.80529e-06 -7.17159e-05)
(1.62726e-05 -2.67715e-05 -0.000131057)
(3.11085e-05 -2.52216e-05 -0.000124491)
(1.19454e-05 -5.90726e-05 -3.51961e-05)
(9.20433e-06 -5.14263e-05 -4.53159e-05)
(1.0751e-05 -2.37341e-05 -5.06527e-05)
(8.32556e-08 -4.63415e-06 -3.36936e-05)
(-9.62941e-06 -5.25421e-06 -8.6996e-06)
(-4.45405e-05 1.47978e-05 -9.84193e-05)
(0.00033918 -3.09196e-05 -0.0017559)
(0.000205058 -0.000152103 -0.000669618)
(4.26635e-05 -3.74818e-05 -6.17158e-05)
(3.14215e-05 -3.54421e-05 -4.20782e-05)
(1.31198e-05 -2.91849e-05 -4.23038e-05)
(5.87076e-06 -9.3434e-06 -3.61946e-05)
(-9.43437e-06 -2.59277e-06 -1.49613e-05)
(-2.08592e-05 -5.86013e-07 -7.01395e-05)
(3.46877e-05 -2.63702e-05 -0.000146248)
(2.81173e-05 -1.9736e-05 -0.000108867)
(4.16681e-05 -2.35854e-05 -6.0216e-05)
(2.59975e-05 -1.20358e-05 -3.56112e-05)
(8.19473e-06 -1.81541e-05 -2.54283e-05)
(-8.04122e-06 -5.27795e-06 -2.64831e-05)
(-1.09415e-05 3.82986e-06 -1.8678e-05)
(1.46427e-05 -1.54507e-05 -1.6843e-05)
(1.20386e-05 -1.09117e-05 -4.65195e-05)
(2.1149e-05 -2.39625e-05 -3.75974e-05)
(2.13219e-05 -1.33432e-05 -6.15045e-05)
(1.50383e-05 -2.97641e-06 -4.49417e-05)
(-2.90046e-07 -2.49501e-06 -3.4436e-05)
(-1.8293e-05 -5.81476e-07 -3.50623e-05)
(-2.53231e-05 -2.26062e-06 -2.72013e-05)
(-1.47924e-05 -1.13991e-06 1.35254e-05)
(-1.19805e-05 9.14024e-06 -9.40758e-06)
(7.16947e-06 -1.43045e-05 -3.4802e-05)
(-1.81169e-06 -1.86926e-05 -3.71735e-05)
(-9.5742e-06 -6.07932e-06 -2.51688e-05)
(-1.40551e-05 7.67202e-07 -3.65589e-05)
(-2.68282e-05 -8.6302e-06 -3.47154e-05)
(-2.77474e-05 -1.57098e-05 -3.19082e-05)
(-5.80796e-06 -2.2157e-05 -5.9459e-06)
(-4.59899e-06 3.43807e-06 -5.84473e-06)
(-1.20729e-06 -8.53226e-07 -1.14217e-05)
(-2.30418e-05 -9.47513e-06 -1.33691e-05)
(-3.09147e-05 -1.38844e-05 -1.29626e-05)
(-3.25517e-05 -8.5115e-06 -4.45249e-05)
(-4.7948e-05 -8.31077e-06 -6.30912e-05)
(-3.5466e-05 -3.31052e-05 -4.29556e-05)
(-1.60624e-05 2.76363e-05 -6.69165e-05)
(-8.6478e-05 -9.82935e-06 -5.31593e-05)
(-2.2251e-05 3.11623e-05 -1.33617e-05)
(0.000166667 4.70778e-05 -2.01982e-05)
(-4.94457e-06 -1.24223e-05 -2.81163e-05)
(-1.51181e-05 -2.3915e-05 -3.607e-05)
(-1.17506e-05 2.50079e-06 -2.73864e-05)
(-4.70556e-06 -7.30542e-07 -8.76307e-06)
(-5.48654e-05 2.92136e-06 -3.06472e-05)
(-9.98439e-05 -9.01483e-06 -9.657e-05)
(-5.21988e-05 -9.33303e-06 -4.70752e-05)
(2.26834e-05 4.97532e-05 -4.2602e-05)
(4.75711e-07 -1.44252e-05 -5.16469e-05)
(-5.03891e-06 -2.22841e-05 -5.15317e-05)
(-9.1284e-06 -9.75515e-06 -3.2858e-05)
(-1.72801e-06 -1.21589e-05 -1.33602e-05)
(-2.79657e-07 3.43609e-05 -4.70611e-05)
(5.77832e-05 0.00010144 -0.000214047)
(-5.61061e-05 3.97635e-05 -0.000109311)
(-3.15492e-06 -9.86359e-06 -4.04293e-05)
(-1.65402e-05 -2.78801e-05 -5.48134e-05)
(3.51822e-06 -3.10252e-05 -5.34832e-05)
(-7.3153e-07 -2.43348e-05 -4.36122e-05)
(-8.49423e-06 -2.33701e-05 -2.03866e-05)
(-3.71813e-05 -9.37778e-06 -5.7875e-05)
(0.000213154 0.000237342 -0.000964966)
(6.98427e-05 -3.64274e-05 -0.000236893)
(5.23284e-05 -2.4094e-06 -6.70578e-05)
(2.44764e-05 -3.04593e-05 -5.22838e-05)
(-1.70196e-06 -4.89662e-05 -5.09222e-05)
(-3.84382e-06 -3.84911e-05 -4.0406e-05)
(-2.03262e-06 -1.75636e-05 -2.51727e-05)
(2.50658e-05 -2.0549e-05 -7.61432e-05)
(-2.41425e-06 -4.53385e-05 -0.000129348)
(-5.81146e-05 -2.53947e-06 -8.07366e-05)
(9.94908e-06 -3.78056e-05 -5.71763e-05)
(1.63649e-05 -5.40015e-06 -5.4886e-05)
(1.22671e-05 -3.44193e-05 -4.79744e-05)
(-5.53418e-06 -3.68153e-05 -2.8629e-05)
(-5.04355e-06 -1.50338e-05 -2.53641e-05)
(2.46354e-05 -6.14658e-05 -2.88365e-05)
(6.2758e-06 -6.77826e-05 -6.98142e-05)
(2.02779e-05 -8.36431e-05 -3.56544e-05)
(-2.30747e-06 -3.75025e-05 -5.8271e-05)
(1.81512e-05 -1.52319e-05 -5.76961e-05)
(1.00081e-05 -3.06622e-05 -4.44902e-05)
(-2.29476e-05 -2.53711e-05 -3.1972e-05)
(-2.62529e-05 -3.68052e-06 -2.50069e-05)
(1.74845e-05 -3.57359e-05 -1.45963e-05)
(2.77401e-05 -3.74734e-05 -3.22802e-05)
(-2.8709e-06 -3.10417e-05 -4.30194e-05)
(-2.41872e-05 -3.15724e-05 -4.18568e-05)
(-1.98188e-05 -3.98546e-05 -2.85005e-05)
(-1.65285e-05 -1.63244e-05 -3.84915e-05)
(-3.69603e-05 -9.56291e-06 -3.50915e-05)
(-3.55907e-05 -3.56359e-06 -2.90837e-05)
(1.09028e-06 -1.64393e-05 -1.6073e-05)
(-2.23038e-06 -1.70626e-05 -2.21343e-05)
(-1.30255e-05 -4.57298e-06 -2.31091e-05)
(-3.92524e-05 -2.26765e-05 -2.6898e-05)
(-3.45962e-05 -3.34366e-05 -2.02291e-05)
(-2.84072e-05 -1.05495e-05 -4.23901e-05)
(-3.25178e-05 1.6526e-07 -4.25975e-05)
(-2.94485e-05 -1.47103e-05 -3.36155e-05)
(2.29176e-06 -3.94841e-06 3.00346e-07)
(-2.30273e-05 -1.78475e-05 -2.86406e-05)
(-3.43019e-05 1.95519e-05 -5.74342e-05)
(-3.99917e-05 -2.57452e-05 -7.5418e-05)
(-1.16982e-06 2.32136e-05 -9.24599e-05)
(6.35542e-06 5.50533e-05 -7.98358e-05)
(-3.67918e-06 3.71819e-05 -7.88028e-05)
(2.21406e-05 7.92349e-05 -8.80717e-05)
(6.4556e-05 6.9815e-05 -5.0698e-05)
(-1.24242e-05 4.83207e-05 -4.13541e-05)
(1.65596e-05 4.25881e-05 -1.86577e-05)
(3.25877e-05 4.53002e-05 3.3356e-05)
(-1.39064e-05 7.99778e-06 -2.15923e-05)
(-8.864e-06 5.96037e-06 -4.43884e-06)
(-5.32921e-06 2.54295e-06 4.08695e-05)
(-4.14427e-05 3.15975e-05 -3.50549e-06)
(-2.59758e-05 -1.48682e-05 -1.96214e-05)
(-1.43001e-05 -1.43594e-05 1.44855e-05)
(-8.42559e-06 -1.45368e-05 -1.6098e-05)
(-3.00171e-05 -5.31837e-05 -1.26343e-06)
(-2.73104e-05 -5.38276e-05 -8.66176e-06)
(-1.98042e-05 -2.70201e-05 -2.19602e-05)
(-4.15381e-05 -4.51244e-05 -2.73201e-05)
(-4.2763e-05 -5.93797e-05 -4.5806e-05)
(-1.87969e-05 1.20183e-05 -4.72707e-06)
(-5.26575e-05 -1.23109e-05 -3.31595e-05)
(-6.3773e-05 -2.138e-05 -6.92613e-05)
(-2.30174e-05 7.70501e-06 -7.25547e-05)
(-3.81694e-05 2.06719e-05 -7.8601e-05)
(-3.18768e-05 1.16099e-05 -8.47844e-05)
(-4.55911e-06 3.24544e-05 -6.20041e-05)
(-1.28165e-05 4.36879e-05 -7.35475e-05)
(1.30199e-05 2.93178e-05 -5.01792e-05)
(-6.4581e-06 3.45719e-05 -2.63819e-05)
(-5.18208e-07 4.61037e-05 -1.70744e-05)
(6.50286e-06 3.66509e-05 2.20548e-05)
(-5.6128e-06 1.25233e-05 -1.11414e-05)
(-2.01955e-05 2.37303e-05 4.88963e-06)
(-2.00654e-05 2.59883e-05 3.66481e-05)
(-1.34675e-05 7.00734e-06 -2.98145e-06)
(-3.03038e-05 2.03366e-06 -4.72107e-06)
(-2.46426e-05 4.48776e-07 2.73079e-05)
(-6.09464e-06 -2.26524e-06 -8.54488e-06)
(-1.90267e-05 -1.33714e-05 1.56041e-06)
(-2.50314e-05 -1.37999e-05 8.49844e-06)
(-8.16572e-06 -6.76229e-06 -9.18279e-06)
(-2.03913e-05 -2.10583e-05 -2.23286e-05)
(-2.87217e-05 -2.53364e-05 -2.50672e-05)
(-3.54165e-05 2.0424e-05 5.54899e-06)
(-6.33707e-05 3.00668e-06 -4.72006e-06)
(-5.75436e-05 -2.25559e-05 -6.63985e-05)
(-3.73744e-05 2.04646e-05 -4.04372e-05)
(-6.70618e-05 6.00548e-06 -2.86315e-05)
(-4.96248e-05 -4.07425e-05 -7.60061e-05)
(-1.51392e-05 1.45088e-05 -3.31696e-05)
(-2.0283e-05 2.66358e-05 -4.68413e-05)
(-2.48964e-05 -3.00226e-05 -6.4304e-05)
(1.84661e-06 2.08185e-05 -1.19944e-05)
(-5.47352e-06 2.30926e-05 -4.36205e-06)
(-2.79966e-05 3.85086e-06 -2.87167e-05)
(1.25908e-06 9.66015e-06 -9.26141e-07)
(-1.29735e-05 2.63727e-05 2.48653e-05)
(-7.22262e-06 1.30865e-05 2.87403e-05)
(-6.35921e-06 5.6586e-06 7.04423e-06)
(-2.15988e-05 2.48196e-05 1.61056e-05)
(-1.60187e-05 1.25362e-05 3.21813e-05)
(-4.92974e-06 8.84825e-06 1.14088e-06)
(-1.64276e-05 1.54369e-05 1.11756e-05)
(-2.56092e-05 2.29551e-06 2.14041e-05)
(-3.89692e-06 5.57682e-07 -2.65599e-06)
(-9.61414e-06 1.73059e-06 -3.90007e-06)
(-1.67095e-05 -6.28238e-06 -5.80575e-07)
(-2.97552e-05 9.88394e-06 6.24946e-05)
(-1.82196e-05 -3.86256e-05 3.72095e-05)
(-2.50188e-05 -2.58186e-05 -2.86457e-05)
(-2.67311e-06 -4.19677e-05 -8.43412e-06)
(-4.41275e-05 -2.05072e-05 4.70438e-06)
(-5.44492e-05 -2.72574e-05 -5.57975e-05)
(7.12645e-07 -5.16504e-06 -1.30727e-05)
(-1.61309e-06 -4.7985e-06 -2.96197e-05)
(-4.00409e-05 -3.13251e-05 -6.67459e-05)
(6.71458e-06 1.19975e-05 7.26251e-07)
(4.19068e-06 1.78969e-05 8.34058e-07)
(-1.87469e-05 -9.3704e-06 -4.28537e-05)
(5.77437e-06 1.12207e-05 1.20102e-05)
(9.60341e-06 2.87982e-05 2.47128e-05)
(2.43442e-05 3.26498e-06 1.08203e-05)
(-6.63031e-06 1.37675e-05 1.2788e-05)
(-1.22677e-05 2.01666e-05 1.87014e-05)
(6.19004e-06 -2.94353e-06 3.29568e-05)
(-1.78307e-06 1.36699e-05 1.40388e-05)
(-1.02259e-05 1.43791e-05 1.80833e-05)
(-1.05464e-05 5.51114e-07 2.49715e-05)
(1.07501e-06 5.23707e-06 4.38824e-06)
(-4.38909e-06 4.94899e-06 6.79086e-06)
(-8.24162e-06 9.3224e-07 8.38678e-06)
(7.00426e-05 -2.02844e-05 0.000233365)
(-7.93136e-06 -2.30668e-05 0.000177558)
(-0.000433311 -7.60643e-05 0.001828)
(3.26507e-05 -2.43937e-06 7.5653e-05)
(5.29352e-05 -3.03354e-05 1.52485e-05)
(-3.06547e-05 5.93439e-05 -4.90973e-05)
(2.06463e-05 9.20407e-06 8.36069e-07)
(3.96175e-05 8.22267e-06 -2.75205e-05)
(-3.81041e-05 1.40029e-05 -4.29188e-05)
(9.48013e-06 1.20289e-05 -6.28818e-06)
(9.46095e-06 2.71492e-05 -1.79082e-05)
(-1.23476e-05 1.50597e-05 -5.0779e-05)
(6.32191e-06 1.77665e-05 6.68603e-06)
(1.9337e-05 2.08292e-05 1.28618e-05)
(2.02842e-05 7.38034e-06 -1.00231e-05)
(1.92502e-06 7.99859e-06 1.29581e-05)
(1.07003e-05 1.38223e-06 1.77115e-05)
(2.53226e-05 -2.3094e-05 1.72908e-05)
(7.9973e-07 5.4793e-06 8.91409e-06)
(-6.09678e-06 9.99996e-07 1.55649e-05)
(-2.3473e-06 -9.07753e-06 1.20089e-05)
(-1.05592e-06 -4.2672e-07 3.14324e-06)
(2.70874e-07 -4.50325e-06 1.07592e-05)
(-5.5778e-06 -7.65392e-06 8.35049e-06)
(-0.000150769 0.00010344 0.000336298)
(-0.000160731 5.57879e-05 0.000626507)
(-0.000902311 -6.148e-05 0.00347362)
(-1.0013e-05 6.23345e-05 2.86156e-05)
(9.05722e-05 2.13531e-05 -3.80958e-05)
(1.58752e-05 2.65138e-05 -4.23452e-05)
(4.05579e-05 9.32967e-06 -1.57533e-06)
(4.67033e-05 2.59346e-05 -4.87076e-05)
(-5.54787e-05 4.93213e-05 -1.07013e-05)
(5.47566e-06 2.14892e-06 -7.22124e-06)
(5.4704e-06 4.41273e-05 -2.67171e-05)
(1.08657e-05 7.88668e-06 -2.39474e-05)
(3.62575e-06 5.0434e-06 4.42539e-06)
(2.77975e-05 -8.65399e-07 5.31987e-06)
(4.96536e-05 -2.33026e-05 -2.0682e-05)
(9.93386e-07 -1.01748e-05 7.79754e-06)
(2.05359e-05 -1.76665e-05 6.20252e-06)
(3.10113e-05 -2.46328e-05 -1.55426e-05)
(3.67459e-06 -1.02412e-05 1.47618e-06)
(3.58281e-05 -7.87179e-05 1.18634e-06)
(-2.21792e-06 -1.16001e-05 -1.53078e-06)
(-5.48136e-06 -5.04457e-06 -3.89754e-06)
(-9.90161e-06 -3.66323e-06 1.83694e-06)
(-8.04227e-06 -8.7286e-06 -4.2455e-06)
(-4.70443e-05 -4.9487e-05 -5.36478e-05)
(-4.42449e-05 -2.80602e-05 -7.04174e-05)
(-4.64697e-05 -1.52499e-05 -3.24317e-05)
(-4.65097e-05 -2.82521e-05 2.44015e-05)
(-3.79088e-05 4.9356e-05 -1.1063e-05)
(-3.91655e-05 5.092e-05 -2.89179e-05)
(-5.29755e-06 8.80734e-06 1.45235e-05)
(-6.30972e-05 -2.56001e-05 8.24823e-05)
(-3.32414e-05 -3.25044e-05 -5.12131e-05)
(-9.02961e-06 -4.85289e-06 -5.77231e-05)
(5.45581e-05 8.44689e-06 -3.65253e-05)
(9.11457e-05 -5.09416e-05 1.66134e-05)
(3.30408e-05 1.50715e-05 6.47524e-05)
(-2.14167e-05 6.40356e-05 4.6566e-05)
(6.64065e-06 3.87457e-05 1.75012e-05)
(-6.68753e-05 -3.16281e-05 2.0742e-05)
(-1.13e-05 -6.46764e-06 -1.75422e-05)
(8.69754e-06 -5.61621e-06 -1.95716e-05)
(6.96664e-05 1.92663e-05 -1.1662e-05)
(8.33451e-05 -3.38784e-05 3.16201e-05)
(1.91673e-05 -1.40993e-05 5.2204e-05)
(-1.87535e-05 2.40118e-06 4.25928e-05)
(-5.06574e-06 1.9826e-05 3.73569e-05)
(4.41989e-07 -9.08713e-05 4.98586e-05)
(-2.33481e-05 -2.91834e-05 -5.13565e-05)
(-1.52003e-05 -1.66887e-05 -4.87829e-05)
(-5.11461e-06 -2.0999e-05 -2.45011e-05)
(-9.59621e-06 -2.24411e-05 5.36116e-06)
(-1.77751e-05 6.9131e-06 -1.00058e-05)
(-1.88501e-05 1.03551e-05 -3.14689e-05)
(1.54577e-06 -4.54973e-06 -2.23625e-05)
(-1.23199e-05 -2.58991e-05 2.50532e-05)
(-1.64052e-05 -2.9454e-05 -4.55803e-05)
(3.98701e-06 -1.75734e-05 -5.81607e-05)
(3.42299e-05 -1.4081e-05 -3.43158e-05)
(3.54918e-05 -3.3392e-05 3.18106e-05)
(1.56882e-06 -8.66335e-07 7.02232e-05)
(-8.79109e-06 9.88809e-06 3.24517e-05)
(9.97683e-06 1.09026e-05 9.16748e-06)
(-3.12966e-06 -4.95116e-05 4.36552e-05)
(-6.05929e-06 -1.30467e-05 -1.58551e-05)
(4.9078e-06 -6.04764e-06 -2.49387e-05)
(2.73637e-05 -4.25965e-06 -1.88772e-05)
(3.94101e-05 -6.54331e-06 7.44023e-06)
(1.40582e-05 -1.483e-05 4.55159e-05)
(-1.19925e-05 4.05197e-06 2.84502e-05)
(1.92137e-06 2.3624e-06 2.08892e-05)
(1.15488e-05 -3.05218e-05 3.1067e-05)
(-1.54848e-05 -1.32986e-05 -3.13729e-05)
(-1.41851e-05 -6.54619e-06 -3.74014e-05)
(-8.53529e-06 -4.95839e-06 -1.90281e-05)
(-5.24191e-06 -1.22662e-05 3.2455e-06)
(-8.58075e-06 -1.75482e-05 -1.38066e-05)
(-1.14807e-05 -1.49137e-05 -3.3833e-05)
(-8.25036e-06 -2.6863e-05 -4.34803e-05)
(-4.04452e-06 -4.74228e-05 -4.69415e-06)
(-5.78138e-06 -1.46399e-05 -2.76239e-05)
(-1.76161e-06 -1.23454e-05 -4.76706e-05)
(6.96709e-06 -9.56007e-06 -3.28743e-05)
(1.11331e-05 -1.76818e-05 1.22265e-05)
(3.98124e-06 -2.19606e-05 4.29425e-05)
(-2.97369e-06 -1.80579e-05 1.07149e-05)
(-2.27195e-06 -2.85546e-05 -1.35258e-05)
(8.72106e-07 -4.04049e-05 1.38226e-05)
(3.37913e-07 -5.23086e-06 -1.39204e-05)
(4.67919e-06 -6.47659e-06 -2.62602e-05)
(9.61892e-06 -5.50595e-06 -1.83117e-05)
(1.26739e-05 -6.52914e-06 5.7787e-06)
(8.18301e-06 -8.11697e-06 3.06115e-05)
(2.91428e-06 -5.94164e-06 2.09603e-05)
(3.82276e-06 -1.43301e-05 1.13023e-05)
(-1.37372e-06 -1.40638e-05 1.34602e-05)
(-9.7425e-06 -7.30113e-06 -1.48654e-05)
(-1.01252e-05 2.04852e-06 -2.07287e-05)
(-1.45347e-05 4.21119e-06 -9.09776e-06)
(-9.41122e-06 -8.51308e-06 2.85273e-06)
(-1.47185e-05 -2.94723e-05 -7.40083e-06)
(-3.23875e-05 -2.92235e-05 -3.71436e-05)
(-2.79204e-05 -3.96722e-05 -4.76372e-05)
(-2.14866e-05 -6.18075e-05 -3.02747e-05)
(-4.63407e-06 -9.515e-06 -1.65078e-05)
(-1.13009e-05 -1.74736e-05 -3.53143e-05)
(-4.72046e-06 -9.89483e-06 -2.47774e-05)
(5.8244e-08 -1.59894e-05 6.26713e-06)
(1.21063e-06 -3.12251e-05 2.23759e-05)
(-1.05173e-05 -3.33916e-05 -1.56346e-06)
(-7.39869e-06 -4.29785e-05 -2.44591e-05)
(-1.1386e-05 -4.83323e-05 -9.21097e-06)
(2.76105e-07 -3.21566e-06 -1.19197e-05)
(-9.90443e-07 -8.58446e-06 -2.46602e-05)
(-7.144e-07 -8.22608e-06 -2.00167e-05)
(6.97675e-07 -7.12872e-06 3.71605e-06)
(5.28786e-06 -7.5958e-06 2.0216e-05)
(2.80961e-06 -1.44289e-05 1.19359e-05)
(-2.68107e-06 -1.68037e-05 -5.00845e-06)
(-4.93594e-06 -1.32721e-05 -7.42759e-06)
(-4.08644e-06 -1.09768e-05 -2.06645e-06)
(-1.76858e-05 -9.15224e-07 -1.37198e-05)
(-2.14786e-05 2.97369e-06 -6.02748e-06)
(-3.0467e-05 -4.61498e-06 9.40177e-06)
(-3.32836e-05 -2.77193e-05 2.95396e-06)
(-3.3018e-05 -3.03315e-05 -3.44285e-05)
(-2.71687e-05 -3.7347e-05 -4.97727e-05)
(-2.43286e-05 -4.37307e-05 -4.7696e-05)
(-5.45102e-06 -1.35913e-05 -1.15124e-05)
(-1.37375e-05 -8.85853e-06 -2.62156e-05)
(-2.04328e-05 -2.70874e-06 -1.7485e-05)
(-2.12142e-05 -7.25724e-06 4.57685e-06)
(-2.31191e-05 -2.74779e-05 1.19865e-05)
(-1.9041e-05 -3.59843e-05 -1.24025e-05)
(-3.0052e-05 -6.52312e-05 -2.93574e-05)
(-1.93502e-05 -3.87016e-05 -3.48246e-05)
(-1.27533e-05 -1.32228e-05 -1.00388e-05)
(-1.44193e-05 -8.90946e-06 -2.14996e-05)
(-1.21928e-05 -4.47595e-06 -1.5486e-05)
(-1.00282e-05 -4.51184e-06 -1.55667e-06)
(-2.95548e-06 -9.77129e-06 5.16783e-06)
(-2.90095e-06 -1.54196e-05 4.81967e-06)
(-3.90393e-06 -1.8069e-05 -6.97102e-06)
(-1.68587e-05 -1.03173e-05 -3.06364e-05)
(1.37016e-06 -8.01555e-06 -4.36537e-06)
(-2.06522e-05 -8.82603e-06 -1.18008e-05)
(-2.7358e-05 3.8366e-06 -1.11252e-05)
(-4.54222e-05 -7.82672e-06 -6.66289e-06)
(-3.76914e-05 -2.56149e-05 7.46116e-07)
(-3.35888e-05 -2.93567e-05 -2.95537e-05)
(-1.96893e-05 -2.50055e-05 -3.92749e-05)
(-2.75919e-05 -2.15931e-05 -4.16398e-05)
(-7.61226e-07 9.70856e-07 -1.13052e-05)
(-8.15501e-06 -5.04571e-06 -2.04596e-05)
(-2.98262e-05 -2.57078e-06 -1.17526e-05)
(-3.23112e-05 3.16127e-06 -1.95613e-06)
(-1.81065e-05 -7.51448e-06 -1.01335e-05)
(-9.4334e-06 -1.98474e-05 -7.16478e-06)
(-1.67761e-05 -3.09303e-05 -2.15402e-05)
(-1.91309e-05 -1.64142e-05 -2.94253e-05)
(-8.40905e-07 -6.86574e-06 -9.95949e-06)
(-1.31541e-05 -3.67685e-06 -1.97767e-05)
(-1.59854e-05 -2.8188e-06 -7.73451e-06)
(-1.45624e-05 2.89648e-06 -5.33079e-06)
(-7.74954e-06 -2.46079e-06 -2.05488e-06)
(-5.97669e-06 -6.23135e-06 -2.76221e-06)
(-6.74771e-06 -1.47816e-05 -4.71131e-06)
(-7.55909e-06 -4.39231e-06 -1.15791e-05)
(-6.78455e-05 -0.000103019 -9.41713e-06)
(-1.22145e-05 -5.23738e-05 -9.14342e-06)
(7.66473e-05 -1.03861e-05 -2.35592e-05)
(-1.11627e-05 1.35045e-05 2.15892e-05)
(-1.49701e-05 2.06105e-05 8.71364e-05)
(-2.55369e-05 5.27369e-05 5.86197e-05)
(7.52358e-05 4.31342e-05 0.000160185)
(1.37606e-05 4.44749e-05 6.54897e-05)
(-9.89964e-07 -9.37304e-05 -9.98386e-05)
(0.000117387 -7.64123e-06 -7.15786e-06)
(0.000217913 9.14751e-05 0.00011583)
(0.000180213 7.8943e-05 0.000105495)
(-6.55439e-06 -8.53455e-05 -9.55439e-05)
(1.12706e-05 5.10272e-05 2.0071e-05)
(-0.000232838 -2.97071e-05 -7.3454e-05)
(-0.00010548 7.1876e-06 -0.000162418)
(-0.000197351 0.000358323 -0.000168525)
(-2.20701e-05 -0.000144942 -0.00011385)
(-7.44365e-05 1.23509e-05 2.86087e-05)
(1.63931e-05 9.9903e-05 9.07259e-05)
(-4.09539e-08 6.79213e-05 4.79234e-05)
(-2.52912e-05 -2.09115e-05 8.61832e-05)
(-2.39583e-05 -2.67271e-05 0.000111476)
(-2.07102e-05 5.60451e-05 9.41512e-05)
(-2.44402e-05 -4.58134e-05 -8.40032e-06)
(-1.07147e-05 -2.92257e-05 5.39528e-06)
(-1.74695e-06 -1.18689e-05 -5.26957e-06)
(-1.4445e-05 -9.82054e-06 2.9915e-05)
(-4.32138e-05 -1.77096e-05 4.26135e-05)
(-2.90905e-05 -2.81425e-06 2.57251e-05)
(2.05886e-05 3.84712e-05 0.000114803)
(3.5415e-05 5.27663e-05 8.5171e-05)
(-1.87221e-05 4.06771e-05 -1.62469e-05)
(2.69861e-05 3.96973e-05 2.67461e-05)
(0.000102825 -6.45348e-05 8.02577e-05)
(-2.93132e-05 -0.000127925 7.71204e-05)
(-1.66925e-05 1.83329e-05 -7.66908e-05)
(-0.000111643 1.87342e-05 6.55161e-06)
(-7.87579e-05 -2.14471e-06 2.74585e-05)
(-4.7653e-05 4.4669e-06 -0.000119885)
(-0.000150127 6.54101e-05 -8.97338e-05)
(4.6447e-06 -0.000124013 -0.000132891)
(-3.55067e-05 -3.67618e-05 -2.10008e-05)
(-3.57167e-05 7.71273e-05 4.63165e-05)
(1.88684e-05 2.32074e-05 1.08097e-05)
(3.13881e-06 -6.14085e-05 4.68432e-05)
(-1.57641e-05 -2.35169e-05 7.0586e-05)
(-2.31097e-06 4.59074e-06 6.18162e-05)
(-2.77068e-05 -3.5366e-05 1.02938e-06)
(-1.79834e-05 -2.94442e-05 9.70403e-06)
(-5.57765e-06 -7.23458e-06 2.91693e-06)
(-1.0554e-05 -2.53462e-05 1.43496e-05)
(-3.85374e-05 -6.07195e-06 4.30278e-05)
(-2.96741e-05 6.10424e-06 9.31187e-06)
(-2.46307e-05 3.17256e-05 6.02045e-05)
(-1.8098e-05 4.29977e-05 9.62476e-05)
(-1.5867e-05 5.90995e-05 4.46322e-05)
(-3.34743e-05 6.84989e-05 4.0802e-05)
(-3.93099e-05 4.23758e-05 9.97029e-05)
(-6.1185e-06 -1.14878e-05 4.83134e-05)
(-4.67269e-05 6.51993e-05 -2.68309e-05)
(-4.60313e-05 3.9779e-05 9.96965e-06)
(-4.12962e-07 -4.44324e-06 -4.61012e-06)