/*--------------------------------*- C++ -*----------------------------------*\
| =========                 |                                                 |
| \\      /  F ield         | OpenFOAM: The Open Source CFD Toolbox           |
|  \\    /   O peration     | Version:  4.x                                   |
|   \\  /    A nd           | Web:      www.OpenFOAM.org                      |
|    \\/     M anipulation  |                                                 |
\*---------------------------------------------------------------------------*/
FoamFile
{
    version     2.0;
    format      ascii;
    class       volVectorField;
    location    "1";
    object      UsPrev;
}
// * * * * * * * * * * * * * * * * * * * * * * * * * * * * * * * * * * * * * //

dimensions      [0 1 -1 0 0 0 0];

internalField   nonuniform List<vector> 
960
(
(-2.73318e-05 -3.4771e-05 3.73005e-05)
(-6.757e-05 7.44702e-06 2.05019e-05)
(-8.65599e-05 -1.53941e-05 9.77461e-06)
(-7.84083e-05 -1.31464e-05 -3.17669e-05)
(-6.16893e-05 -2.65423e-05 -6.25475e-05)
(8.34304e-06 -3.91427e-05 -2.53271e-05)
(3.25568e-05 -3.91729e-05 4.97614e-05)
(-2.11147e-06 -2.26149e-05 6.1508e-05)
(-3.19404e-05 -5.39204e-05 3.93356e-05)
(-6.2232e-05 -1.13566e-05 2.70488e-05)
(-9.25165e-05 1.11719e-05 -1.43426e-05)
(-0.000124551 1.27192e-05 -3.9828e-05)
(-4.30032e-05 -1.1475e-05 -6.57702e-05)
(2.12551e-05 -5.95905e-05 -3.3587e-05)
(4.4652e-05 -7.65478e-05 -2.0471e-06)
(3.03491e-05 -0.000112803 -2.2946e-05)
(-3.78532e-05 -7.35853e-05 -1.62398e-05)
(-6.39343e-05 -1.61621e-05 -2.03915e-05)
(-9.12022e-05 -3.62105e-06 -2.76613e-05)
(-8.68881e-05 -1.12386e-06 -6.54859e-05)
(-3.83471e-05 -3.57145e-05 -8.06026e-05)
(3.74646e-05 -8.11794e-05 -7.95413e-05)
(3.5236e-05 -8.53543e-05 -6.08108e-05)
(3.25347e-05 -8.07695e-05 -0.000112437)
(-4.81061e-05 -6.79876e-05 -2.76536e-05)
(-9.30496e-05 -4.61174e-05 9.91749e-07)
(-8.23986e-05 -4.16382e-05 -2.73116e-05)
(-6.66843e-05 -4.16482e-05 -0.000101966)
(-1.55329e-05 -3.85222e-05 -9.69309e-05)
(3.41076e-05 -8.65868e-05 -9.91508e-05)
(3.32289e-05 -8.54882e-05 -9.40147e-05)
(1.84309e-05 -5.68977e-05 -0.000108882)
(-8.29282e-05 -4.90707e-05 -3.95593e-05)
(-9.59624e-05 -8.27942e-05 -2.59116e-05)
(-6.28632e-05 -3.39741e-05 -5.85665e-05)
(-4.65157e-05 -2.2437e-05 -0.000101922)
(7.78539e-06 -3.74254e-05 -9.35598e-05)
(4.43983e-05 -7.42687e-05 -8.23702e-05)
(1.88592e-05 -7.19697e-05 -5.16183e-05)
(1.68329e-05 -2.69651e-05 -4.18805e-05)
(-5.15723e-05 -1.10895e-05 -4.46091e-05)
(-6.16305e-05 -1.94146e-05 -6.96199e-05)
(-4.27977e-05 -6.81633e-07 -9.62064e-05)
(3.40942e-05 1.97489e-05 -9.88169e-05)
(-4.10264e-06 -2.02589e-05 -8.2894e-05)
(-8.243e-06 -2.75378e-05 -6.22107e-05)
(-4.628e-06 -4.3626e-05 -5.87232e-05)
(1.33721e-05 -5.48109e-05 1.88003e-05)
(-4.05656e-05 2.61409e-05 -3.71304e-05)
(-2.2987e-05 3.48222e-05 -5.50289e-05)
(-1.77331e-05 2.72405e-05 -8.61628e-05)
(1.86329e-05 3.85264e-05 -8.4698e-05)
(1.64393e-05 1.64377e-05 -4.50131e-05)
(-9.56354e-06 2.38599e-06 -1.34964e-05)
(-3.20352e-05 -2.34172e-05 -9.78134e-05)
(1.78429e-05 -5.84571e-05 -8.5005e-05)
(2.06662e-05 4.8806e-05 -2.785e-05)
(2.21152e-05 6.70076e-05 -5.74716e-05)
(1.73427e-05 9.24487e-05 -5.42843e-05)
(1.72115e-05 7.92004e-05 -5.23496e-05)
(2.5378e-06 3.54526e-05 -2.883e-05)
(-2.32615e-05 1.90121e-05 -4.74857e-05)
(-5.59305e-05 4.61448e-05 -0.000156368)
(-3.27772e-05 -6.79368e-06 -0.000138058)
(1.89848e-05 -1.21402e-05 -1.37068e-05)
(2.34681e-05 1.94536e-05 -1.34941e-05)
(-2.04924e-05 2.43511e-05 -1.48257e-05)
(-3.79357e-05 7.07012e-06 -4.63655e-05)
(-4.43585e-05 -3.257e-06 -6.16231e-05)
(-1.90596e-05 -2.27388e-05 -3.99314e-05)
(-2.24633e-06 -1.6345e-05 2.87301e-05)
(4.05532e-06 2.4741e-06 4.69825e-05)
(-2.75869e-05 7.08635e-06 -9.45332e-06)
(-5.98016e-06 5.20843e-05 7.25451e-06)
(-3.44626e-05 3.87843e-05 -3.40195e-05)
(-4.09017e-05 3.10625e-05 -7.4621e-05)
(-4.41459e-05 5.24446e-06 -7.86218e-05)
(-1.55534e-05 -2.99137e-05 -6.99546e-05)
(8.54809e-06 -2.88579e-05 -1.18633e-05)
(2.20789e-05 -1.84452e-05 -2.05463e-05)
(-4.52339e-05 -2.85629e-06 -1.75574e-05)
(-3.98072e-05 1.7054e-05 7.23453e-07)
(-4.67701e-05 2.2189e-05 -2.7783e-05)
(-4.6216e-05 3.37167e-05 -7.1925e-05)
(-3.81626e-05 -1.0318e-05 -8.64007e-05)
(-7.42485e-06 -5.25077e-05 -8.09755e-05)
(3.05472e-05 -5.32356e-05 -5.72778e-05)
(2.99051e-05 -5.0317e-05 -8.19628e-05)
(-2.02801e-05 -2.34203e-05 6.057e-06)
(-4.39037e-05 1.1032e-05 1.59231e-06)
(-6.42981e-05 -1.87267e-06 -5.86386e-05)
(-5.49815e-05 -3.39172e-06 -8.6481e-05)
(-2.63668e-05 -2.99568e-05 -9.85563e-05)
(7.05596e-06 -7.28596e-05 -9.03999e-05)
(2.47835e-05 -6.50945e-05 -8.34843e-05)
(3.72938e-05 -6.54471e-05 -8.78556e-05)
(-3.72442e-05 -3.71534e-05 -2.7952e-05)
(-8.03655e-05 -2.80252e-05 -1.15981e-05)
(-6.10206e-05 -1.55378e-05 -7.32874e-05)
(-4.69837e-05 -2.51576e-05 -0.000113631)
(-2.77228e-05 -3.58907e-05 -0.000114029)
(5.47135e-06 -5.26991e-05 -0.00010204)
(1.8461e-05 -6.55547e-05 -5.01973e-05)
(1.6542e-05 -3.89643e-05 -2.59577e-05)
(-3.29488e-05 -2.06241e-05 -4.77129e-05)
(-5.31475e-05 -3.18749e-05 -6.58531e-05)
(-4.82957e-05 -3.11656e-05 -0.000114546)
(-2.71894e-05 -2.37167e-05 -0.000115587)
(-1.93546e-05 -2.83233e-05 -8.12891e-05)
(-5.02975e-06 -3.01452e-05 -7.20507e-05)
(2.73379e-06 -2.21226e-05 -5.10498e-05)
(2.99071e-05 -1.46696e-05 -2.2987e-05)
(-2.38358e-05 1.41081e-06 -4.81822e-05)
(-2.19501e-05 -1.42317e-06 -7.13148e-05)
(-2.72865e-05 -1.42912e-05 -9.88562e-05)
(-1.62484e-05 -1.10268e-06 -9.26077e-05)
(-1.44164e-06 -8.75829e-06 -5.21427e-05)
(-1.05667e-05 -5.0784e-06 -3.08055e-05)
(-7.38441e-06 -8.67177e-06 -7.95093e-05)
(9.17416e-06 1.36256e-05 -6.88084e-05)
(5.16355e-06 2.42353e-05 -3.81531e-05)
(-3.12961e-06 2.61769e-05 -4.44718e-05)
(-6.25645e-06 2.34491e-05 -4.75705e-05)
(-5.39125e-06 1.77244e-05 -4.82754e-05)
(4.80988e-06 1.00341e-05 -1.73762e-05)
(1.45276e-05 1.3812e-05 -3.81154e-05)
(-1.43105e-05 3.14589e-05 -0.000106892)
(-3.47148e-05 1.69332e-05 -0.00010976)
(6.3035e-05 9.86052e-06 -3.31846e-05)
(6.31546e-05 2.10247e-05 -6.12834e-05)
(2.15648e-05 1.45295e-05 -5.40467e-05)
(-4.41173e-06 1.92936e-05 -5.09004e-05)
(-2.20399e-05 1.57742e-05 -6.64831e-05)
(-3.88364e-05 -3.32467e-06 -4.8938e-05)
(-4.04443e-05 -8.8195e-06 -7.75423e-06)
(-1.98374e-05 9.92193e-06 6.86742e-06)
(1.72467e-05 3.77056e-05 -4.89615e-05)
(-1.06773e-05 -1.74324e-06 -3.19241e-05)
(-8.12251e-06 1.88286e-05 -4.20659e-05)
(-1.08034e-05 2.87525e-05 -7.5517e-05)
(-2.79809e-05 3.08038e-05 -7.604e-05)
(-3.87996e-05 -3.24361e-06 -6.47344e-05)
(-3.03399e-05 -8.40501e-06 -3.33662e-05)
(-1.64832e-05 1.6743e-05 -2.025e-05)
(-1.73035e-05 3.85626e-05 -3.68232e-06)
(-1.21462e-05 1.72376e-05 -1.06218e-05)
(-2.08684e-05 -1.11157e-06 -2.23223e-05)
(-3.14966e-05 4.38956e-06 -8.36365e-05)
(-2.41424e-05 1.02509e-05 -8.3633e-05)
(-2.07299e-05 -9.17221e-06 -7.86117e-05)
(-1.23147e-05 -2.27168e-05 -6.74395e-05)
(1.45025e-05 -1.32059e-05 -6.26752e-05)
(1.79009e-05 1.66247e-05 3.50105e-05)
(7.79008e-06 5.19626e-06 -8.14627e-06)
(-3.88143e-05 2.95558e-05 -5.33677e-05)
(-4.96446e-05 3.2329e-05 -7.58489e-05)
(-3.49089e-05 1.87117e-06 -8.93065e-05)
(-1.24213e-05 -2.53986e-05 -9.64715e-05)
(6.14335e-06 -3.78249e-05 -8.94716e-05)
(2.62911e-05 -3.28428e-05 -8.08506e-05)
(-2.33031e-05 -2.91373e-05 -5.34712e-06)
(-3.49855e-05 -3.30893e-05 -8.45687e-06)
(-8.01875e-05 8.69071e-06 -7.45297e-05)
(-8.79606e-05 -1.08786e-05 -0.000100896)
(-5.53402e-05 -2.18036e-05 -0.000104604)
(-3.53826e-05 -3.04014e-05 -0.00010565)
(-1.02563e-05 -3.97704e-05 -8.27907e-05)
(1.91563e-05 -3.69461e-05 -6.34279e-05)
(-8.86903e-06 -2.86305e-05 -3.10021e-05)
(-4.82494e-05 -3.01093e-05 -6.4377e-05)
(-5.07664e-05 -3.20103e-05 -8.13546e-05)
(-4.84617e-05 -3.55155e-05 -9.5549e-05)
(-3.43832e-05 -3.1925e-05 -8.42069e-05)
(-2.60554e-05 -2.53221e-05 -7.89487e-05)
(4.98586e-06 -2.14963e-05 -6.6512e-05)
(2.65861e-05 -3.44116e-06 -5.74519e-05)
(-1.11042e-05 -1.39533e-05 -5.50273e-05)
(-2.11608e-05 -1.97496e-05 -7.11256e-05)
(-2.72931e-05 -5.18395e-05 -8.264e-05)
(-2.9905e-05 -3.47196e-05 -9.2605e-05)
(-1.77297e-05 -6.83869e-06 -6.10705e-05)
(-2.23745e-06 -4.64836e-07 -4.56714e-05)
(8.95836e-06 -5.69599e-06 -5.66366e-05)
(1.44228e-05 2.18398e-05 -5.49603e-05)
(-1.72951e-05 3.02397e-06 -4.9087e-05)
(-1.45211e-05 -1.05332e-05 -4.43214e-05)
(-1.96804e-05 -2.24945e-05 -4.68767e-05)
(-1.58927e-05 -1.49059e-05 -5.05342e-05)
(-7.97964e-06 -7.19853e-07 -2.58288e-05)
(1.05439e-05 -6.91977e-06 -1.46892e-05)
(1.22327e-05 -4.6967e-06 -1.99642e-05)
(-1.2377e-05 3.24759e-05 -4.90719e-05)
(2.0042e-05 1.59585e-05 -2.45726e-05)
(7.18544e-05 2.51029e-05 -7.68899e-05)
(8.38838e-05 -1.34399e-05 -7.89434e-05)
(4.76979e-05 1.51543e-05 -4.34693e-05)
(-1.24473e-05 2.65939e-05 -7.09204e-05)
(-3.84381e-05 2.09757e-05 -5.3111e-05)
(-4.10552e-05 2.27432e-06 -3.13753e-05)
(-1.88777e-05 2.14888e-05 -2.8335e-05)
(2.83644e-05 7.20082e-05 -7.2548e-05)
(6.82762e-05 -3.55471e-06 -8.4955e-05)
(6.34144e-05 -2.31974e-05 -6.70863e-05)
(6.06552e-05 -3.30543e-06 -5.50522e-05)
(4.63198e-06 4.44828e-05 -7.05092e-05)
(-2.96154e-05 2.42432e-05 -6.39463e-05)
(-3.30927e-05 8.17949e-06 -5.32734e-05)
(-1.79143e-05 2.52997e-05 -4.78536e-05)
(1.55597e-05 -7.07761e-06 9.55626e-06)
(8.63535e-06 -8.9342e-06 3.55646e-06)
(2.64783e-05 -4.86924e-05 -2.09285e-05)
(4.29886e-06 -1.61725e-05 -7.74462e-05)
(-1.53904e-05 3.07008e-05 -7.74102e-05)
(-1.51223e-05 2.26768e-05 -7.6794e-05)
(-1.12661e-05 7.79231e-06 -7.59158e-05)
(-1.17993e-06 1.49405e-05 -6.79744e-05)
(-4.73131e-06 -2.5381e-05 1.06323e-05)
(4.58702e-05 -5.1074e-05 -1.3013e-05)
(1.11075e-05 -7.15608e-06 -6.5488e-05)
(-3.33514e-05 1.96642e-05 -7.71581e-05)
(-2.66187e-05 2.71001e-05 -8.37092e-05)
(-1.44709e-05 1.48404e-05 -9.25675e-05)
(-4.61676e-06 3.51878e-06 -9.31699e-05)
(5.95402e-06 8.57326e-06 -8.29085e-05)
(-2.57925e-05 -3.1388e-05 -3.19122e-05)
(2.98849e-05 -5.38165e-05 -5.99734e-05)
(-1.6843e-05 4.41771e-05 -3.83035e-05)
(-6.96869e-05 7.66243e-06 -3.2122e-05)
(-4.39745e-05 1.18926e-06 -9.50801e-05)
(-2.29551e-05 -3.13631e-06 -9.56202e-05)
(-4.96994e-06 -7.22802e-06 -9.62971e-05)
(5.79691e-06 -1.08714e-05 -8.35765e-05)
(-2.24748e-05 -1.78933e-05 -3.95644e-05)
(-5.50531e-05 -3.81785e-05 -3.6301e-05)
(-5.30533e-05 -1.14367e-05 -4.0146e-05)
(-5.02224e-05 -2.96875e-05 -4.47573e-05)
(-3.11598e-05 -7.72499e-06 -9.17806e-05)
(-1.91689e-05 -9.34542e-06 -8.58785e-05)
(-2.11321e-06 -1.39097e-05 -8.32663e-05)
(5.2847e-06 -2.8578e-06 -7.25408e-05)
(-1.36961e-05 -3.43483e-06 -6.21204e-05)
(-3.40305e-05 -2.5508e-05 -5.58096e-05)
(-3.22925e-05 -4.2768e-05 -7.86752e-05)
(-3.03655e-05 -4.01795e-05 -7.95385e-05)
(-2.52195e-05 -9.84325e-06 -7.42891e-05)
(7.88004e-06 -9.8762e-06 -5.94648e-05)
(-7.55608e-07 -4.71638e-07 -4.27245e-05)
(1.33531e-05 1.6197e-05 -5.14898e-05)
(-2.43245e-05 5.4041e-06 -5.84439e-05)
(-1.83023e-05 -2.15079e-05 -4.83874e-05)
(-1.70674e-05 -4.09702e-05 -5.73634e-05)
(-2.56135e-05 -3.20031e-05 -5.99569e-05)
(-8.18581e-06 -9.95481e-07 -3.24012e-05)
(1.3753e-05 4.10097e-06 -1.42451e-05)
(1.22916e-05 1.05382e-05 3.19153e-06)
(3.7891e-06 3.41253e-05 -1.52027e-05)
(3.45308e-05 2.82291e-05 -5.62365e-05)
(7.4018e-05 2.91315e-05 -7.60931e-05)
(3.29725e-05 -3.84903e-05 -8.66455e-05)
(3.11862e-05 9.17003e-06 -5.61119e-05)
(1.59839e-05 3.2087e-05 -6.52783e-05)
(-8.24506e-06 2.67959e-05 -7.20913e-05)
(-2.89679e-05 2.36055e-05 -5.57968e-05)
(-2.17239e-05 2.82766e-05 -5.13251e-05)
(5.52779e-05 -5.87675e-05 -2.91445e-05)
(9.23864e-05 -5.71635e-10 -6.95853e-06)
(3.14786e-05 -3.10123e-05 -6.87609e-05)
(4.63583e-05 6.71378e-06 -4.47501e-05)
(1.5049e-05 6.39329e-05 -5.81749e-05)
(-1.30196e-05 5.07264e-05 -6.50495e-05)
(-1.82682e-05 3.07934e-05 -6.71335e-05)
(-1.83424e-05 3.88364e-05 -6.30733e-05)
(1.54522e-05 -9.67579e-05 2.37229e-05)
(5.04454e-05 -3.22154e-06 4.33325e-05)
(-8.04874e-06 -5.67113e-05 -5.17777e-05)
(-7.97668e-07 6.70857e-06 -6.44549e-05)
(9.18269e-06 6.37139e-05 -6.80273e-05)
(6.24931e-06 4.77744e-05 -7.2215e-05)
(-1.82277e-06 3.69793e-05 -7.5732e-05)
(-6.10101e-06 4.25565e-05 -7.26021e-05)
(7.10502e-05 3.71582e-05 -1.3638e-05)
(0.000318031 -0.00033079 0.000397181)
(3.56651e-05 -3.65802e-05 -9.42816e-05)
(-1.57905e-06 -1.32698e-05 -6.90669e-05)
(-8.3867e-07 3.58788e-05 -7.04869e-05)
(1.15812e-05 4.90386e-05 -8.3263e-05)
(3.78223e-07 4.38538e-05 -8.5235e-05)
(-5.06682e-06 3.76153e-05 -7.97131e-05)
(-7.35458e-05 3.8326e-05 -9.08991e-05)
(-9.98954e-07 -4.98355e-05 -3.648e-05)
(-9.02006e-06 1.20889e-05 -2.84532e-05)
(-1.04531e-05 -1.69853e-05 -5.21945e-05)
(-9.47454e-06 2.36051e-05 -7.42825e-05)
(-1.57046e-05 2.75495e-05 -9.00811e-05)
(-6.46007e-06 3.08061e-05 -9.7665e-05)
(-4.88109e-06 2.22043e-05 -8.86047e-05)
(-1.64918e-05 -1.93594e-05 -3.51466e-05)
(-4.22037e-05 -4.80541e-05 -3.73341e-05)
(-2.78595e-05 2.79515e-05 -5.67255e-05)
(-5.85096e-06 1.48806e-05 -5.52225e-05)
(-1.83115e-05 1.53766e-05 -8.04577e-05)
(-1.76438e-05 6.98603e-06 -7.80303e-05)
(5.56705e-07 -5.37167e-07 -8.3429e-05)
(5.71466e-06 9.18015e-06 -7.3915e-05)
(4.05272e-06 1.64142e-06 -5.55415e-05)
(-3.7252e-05 -2.36641e-06 -5.20842e-05)
(-8.30898e-06 -2.37523e-06 -5.8129e-05)
(-2.91606e-06 -7.5042e-06 -7.50126e-05)
(-2.6412e-06 -5.12825e-07 -9.64416e-05)
(-3.02997e-06 -1.0512e-05 -7.13774e-05)
(7.53019e-06 -1.15748e-05 -6.47213e-05)
(4.19203e-06 5.93974e-06 -5.8905e-05)
(-1.16528e-05 1.96227e-05 -5.97458e-05)
(-7.25422e-06 -8.08509e-07 -5.14258e-05)
(1.53823e-06 -2.8743e-05 -6.52136e-05)
(2.14784e-06 -2.88501e-05 -6.80468e-05)
(4.7981e-06 -1.13756e-05 -6.54972e-05)
(1.36395e-05 -1.43556e-05 -3.3187e-05)
(3.50109e-05 -1.58308e-05 -7.13286e-06)
(1.40162e-05 1.99486e-05 -2.58919e-05)
(-7.84388e-05 -9.70298e-05 -0.000255389)
(-1.02909e-05 -8.00663e-05 -1.414e-05)
(-0.000103866 -6.08094e-05 -9.34043e-05)
(0.000180427 4.72798e-05 -7.25651e-05)
(3.01626e-05 4.01266e-05 -7.563e-05)
(6.35157e-06 7.21501e-05 -9.22987e-05)
(-1.53028e-05 1.5813e-05 -6.6e-05)
(-2.10999e-05 2.75847e-05 -5.82635e-05)
(4.11729e-05 5.57617e-06 -1.22304e-05)
(3.80871e-05 -4.5391e-05 -3.1944e-05)
(-2.00558e-05 -7.035e-05 -7.06217e-05)
(4.38019e-05 7.0135e-05 -5.56584e-05)
(2.2769e-05 5.10882e-05 -8.36417e-05)
(1.10588e-05 5.31221e-05 -7.36494e-05)
(4.05219e-08 3.1056e-05 -6.7427e-05)
(-2.12635e-05 3.51805e-05 -7.23744e-05)
(-6.80464e-06 -4.54614e-05 -1.85645e-05)
(-4.12902e-05 -6.33481e-05 0.000111385)
(3.30617e-05 -6.87517e-05 -5.88513e-05)
(6.16129e-06 3.57139e-06 -8.50688e-05)
(6.97264e-06 5.14463e-05 -8.14487e-05)
(1.42221e-05 5.56524e-05 -7.70557e-05)
(3.81026e-06 3.89601e-05 -8.1616e-05)
(-9.01224e-06 4.28355e-05 -7.68593e-05)
(-5.86604e-05 -4.47512e-05 5.58232e-05)
(3.44664e-06 -0.000221485 0.00104266)
(-2.61574e-05 -0.000102341 0.00011727)
(-3.82683e-05 -4.24322e-05 -8.16642e-05)
(4.62206e-06 3.68135e-05 -8.09156e-05)
(1.71981e-05 6.09536e-05 -8.47756e-05)
(-2.15637e-06 6.08553e-05 -7.97305e-05)
(-1.30032e-05 3.88373e-05 -7.60375e-05)
(-5.652e-05 1.14873e-05 -5.39702e-05)
(1.02895e-05 -5.7598e-05 -4.35516e-05)
(-3.94958e-05 0.000101487 -1.99441e-06)
(-1.64564e-05 -2.08267e-05 -5.34642e-05)
(-1.42199e-05 3.71393e-05 -6.79463e-05)
(-1.83295e-05 5.11373e-05 -8.36373e-05)
(-2.49562e-06 4.8693e-05 -9.06192e-05)
(-7.06993e-06 2.99542e-05 -8.29319e-05)
(6.45676e-06 -6.98872e-06 -4.50555e-05)
(-2.11444e-05 -2.28409e-05 -7.11128e-05)
(-3.89106e-05 4.57255e-06 -8.11368e-05)
(1.65191e-06 1.48865e-05 -6.40139e-05)
(6.14261e-06 1.64769e-05 -7.41849e-05)
(-2.26525e-06 3.14206e-05 -8.72124e-05)
(1.50567e-05 2.62958e-05 -9.4056e-05)
(9.16174e-06 9.51824e-06 -7.37373e-05)
(-2.29296e-05 2.79582e-05 -6.24435e-05)
(-2.42568e-05 1.59436e-06 -5.85378e-05)
(2.41261e-06 5.86289e-06 -6.88083e-05)
(2.90709e-05 2.34393e-05 -6.96507e-05)
(1.67342e-05 1.7385e-05 -9.38776e-05)
(1.66276e-05 3.09178e-06 -7.75785e-05)
(1.97159e-05 -7.38047e-06 -7.00812e-05)
(1.67074e-05 -1.24052e-06 -6.32871e-05)
(-1.1476e-05 6.31722e-06 -5.56171e-05)
(6.832e-06 1.9281e-06 -6.00222e-05)
(1.66287e-05 -2.31766e-05 -6.39606e-05)
(2.35577e-05 -3.03275e-05 -6.95822e-05)
(1.5195e-05 -5.9665e-06 -7.12165e-05)
(1.60037e-05 -1.41548e-05 -4.9484e-05)
(2.0213e-05 -2.28815e-05 -4.53254e-05)
(1.40532e-05 -2.90979e-06 -3.66389e-05)
(-2.22334e-05 -7.75523e-06 -3.79453e-05)
(2.16215e-05 -1.90593e-08 -8.08859e-05)
(3.14097e-05 -2.29505e-05 -3.20982e-05)
(-1.36193e-05 2.24344e-05 7.84002e-06)
(-4.02837e-06 -1.60363e-05 -2.68206e-05)
(-1.63641e-06 -6.67739e-05 1.58413e-05)
(-1.65471e-06 -1.52968e-05 9.06687e-06)
(1.29098e-05 -8.35501e-05 2.80986e-05)
(-1.76302e-05 -7.31667e-05 -2.26609e-06)
(-7.86572e-06 -4.44101e-05 3.15981e-06)
(-1.58343e-05 -5.6167e-05 -9.62392e-06)
(-1.36347e-05 -6.87648e-05 -5.57032e-05)
(5.97642e-06 -1.40922e-05 1.57427e-06)
(-1.91644e-05 -2.61436e-05 -9.37332e-06)
(-3.9465e-05 -2.22747e-05 -5.12507e-05)
(-2.03137e-05 -2.27795e-06 6.98826e-06)
(-3.75948e-05 -1.45087e-05 9.58837e-06)
(-5.01214e-05 -1.13257e-05 -1.6721e-05)
(-5.0395e-06 1.67177e-05 -3.89761e-06)
(-1.80802e-05 2.72193e-05 -2.74777e-05)
(-2.81989e-05 1.44243e-05 -2.95587e-05)
(9.65896e-06 5.3717e-05 -1.29019e-05)
(4.07127e-05 5.02195e-05 -3.5568e-05)
(2.95537e-05 5.62916e-05 -3.25561e-05)
(1.35552e-05 5.39887e-07 -3.62445e-05)
(6.53101e-05 -1.42268e-05 -6.27326e-05)
(6.25525e-05 -1.3973e-05 -2.7438e-05)
(1.40561e-05 4.92414e-06 2.49131e-05)
(3.6915e-05 -2.33106e-05 -9.70009e-06)
(7.77877e-06 -1.72203e-05 5.62538e-06)
(-6.32359e-06 -5.92652e-06 1.07494e-05)
(7.0581e-06 -3.80585e-05 2.2877e-05)
(-1.81499e-05 -7.82064e-06 -6.16775e-06)
(-1.33738e-05 -1.11459e-05 3.29339e-06)
(-9.20301e-06 -4.90454e-05 -1.53514e-05)
(-7.21562e-06 -2.13867e-05 -3.94715e-05)
(-1.13615e-06 -2.01668e-05 2.20504e-06)
(-8.34368e-06 -3.32826e-05 -1.28848e-05)
(-1.72098e-05 -3.00113e-05 -4.96535e-05)
(-4.97263e-06 -1.17794e-05 5.52608e-06)
(-1.34232e-05 -2.5921e-05 -4.03072e-06)
(-2.30853e-05 -2.18601e-05 -2.11972e-05)
(2.16881e-06 3.91201e-06 -5.31467e-06)
(-4.02826e-06 6.95001e-06 -2.73407e-05)
(-1.66979e-05 7.13087e-06 -3.98587e-05)
(3.12412e-06 1.2057e-05 -1.49819e-05)
(1.60235e-05 2.80172e-05 -3.54137e-05)
(9.46117e-06 2.57901e-05 -3.69188e-05)
(-4.28687e-06 1.00374e-05 -7.8787e-05)
(7.4517e-05 8.43064e-07 -7.7733e-05)
(8.54512e-05 2.43035e-05 -3.8526e-05)
(3.80719e-05 -1.62012e-05 -1.49266e-05)
(6.87645e-05 -1.84737e-05 -5.30065e-05)
(3.95656e-05 2.59579e-05 -2.60312e-05)
(1.07561e-05 -1.3253e-05 1.68261e-05)
(-2.80632e-06 -1.66474e-06 -2.07361e-05)
(-2.25443e-07 2.14306e-05 -1.68686e-05)
(-1.05178e-05 1.05258e-05 1.30809e-05)
(-1.36947e-05 -1.16391e-05 -3.58285e-05)
(5.18185e-06 2.79886e-05 -2.25631e-05)
(-1.93365e-06 -1.24315e-05 1.31819e-06)
(-2.16099e-06 -3.1488e-05 -2.70222e-05)
(7.29313e-06 -1.5711e-05 -3.47511e-05)
(-2.64246e-06 -1.71227e-05 -6.64111e-06)
(6.38945e-06 -4.11735e-05 -2.40854e-05)
(1.13832e-05 -3.56031e-05 -3.69134e-05)
(-5.80821e-07 -6.34071e-06 -1.64417e-05)
(-1.67819e-06 -1.77708e-05 -3.67636e-05)
(-3.73336e-06 -1.87086e-05 -4.47379e-05)
(-6.16261e-07 2.04234e-06 -1.68572e-05)
(-3.66505e-06 2.86426e-06 -3.57723e-05)
(-4.57938e-06 3.2599e-06 -4.56519e-05)
(-5.15954e-05 4.46569e-05 -7.81898e-05)
(-3.37962e-05 2.11375e-05 -2.10779e-05)
(-7.39226e-05 0.000101412 -0.000102815)
(-3.07541e-05 3.48645e-05 -3.7687e-05)
(-4.00959e-05 -6.52695e-06 -6.15283e-05)
(-2.8983e-05 8.23919e-05 -7.49892e-05)
(1.32167e-05 -7.20148e-07 -1.20766e-05)
(2.37051e-05 -1.66388e-05 -2.95721e-06)
(1.14066e-05 1.43365e-05 -2.08809e-05)
(4.52262e-06 -1.37819e-06 6.47555e-06)
(5.6939e-06 -2.90181e-05 -3.72665e-05)
(-1.34402e-05 6.02564e-06 -2.30683e-05)
(7.75023e-06 -2.139e-05 -8.83286e-06)
(3.26985e-06 -5.30603e-05 -2.83626e-05)
(-1.04406e-05 -1.31197e-05 -2.1909e-05)
(3.98337e-06 -1.96649e-05 -1.66451e-05)
(4.83337e-06 -3.90519e-05 -3.69308e-05)
(-8.45974e-06 -2.60699e-05 -3.38054e-05)
(-2.60447e-06 -7.72714e-06 -2.59743e-05)
(-6.21445e-06 -1.6175e-05 -4.67873e-05)
(-9.49133e-06 -1.815e-05 -5.19353e-05)
(-3.58514e-06 -5.66214e-07 -1.71264e-05)
(-1.0085e-05 4.04178e-07 -3.92377e-05)
(-2.07732e-05 -3.95711e-06 -5.90508e-05)
(-0.000327104 0.000308345 -0.000292689)
(-0.000384599 7.44933e-05 0.000256577)
(-0.00108281 -2.17592e-05 0.00219937)
(-9.36585e-05 2.53857e-05 -9.21243e-05)
(-8.89438e-05 1.93292e-05 -6.25613e-05)
(4.35374e-05 -4.61416e-05 -3.53311e-05)
(-3.60062e-05 -1.04587e-05 -3.37449e-05)
(-8.24166e-06 -1.83814e-05 -3.75137e-05)
(2.35101e-05 -3.19034e-05 -4.96068e-05)
(1.32563e-06 -2.12659e-05 -7.24828e-06)
(8.42875e-06 -4.39076e-05 -4.21997e-05)
(4.16336e-06 -1.0607e-06 -3.26218e-05)
(4.63689e-06 -2.05937e-05 -2.51089e-05)
(8.16208e-07 -3.72519e-05 -3.04268e-05)
(-2.76098e-05 2.64385e-06 -1.27129e-05)
(5.70624e-06 -5.5047e-06 -2.66889e-05)
(1.1791e-05 -2.17711e-05 -4.77225e-05)
(-1.1272e-05 8.85376e-06 -2.21263e-05)
(-7.27207e-07 -1.21038e-06 -2.15088e-05)
(-3.10192e-06 -8.43638e-06 -5.10388e-05)
(-1.8401e-07 -1.84396e-06 -5.96012e-05)
(-3.9251e-06 1.73701e-07 -1.82573e-05)
(-1.39815e-05 2.65029e-06 -4.51008e-05)
(-1.83789e-05 1.60247e-06 -6.59096e-05)
(-0.000132083 7.11186e-05 -0.000208926)
(1.4212e-05 -9.07742e-05 0.00013455)
(-0.000438983 -8.64411e-05 0.00137567)
(-6.71563e-05 -1.68216e-05 -3.29329e-05)
(-9.69092e-05 -4.06939e-05 -9.68268e-06)
(-4.10715e-05 3.91099e-05 -2.76333e-05)
(-3.97856e-05 1.16643e-05 -3.15407e-05)
(-6.29735e-05 1.36765e-05 -2.21955e-05)
(-1.07488e-05 -3.87579e-05 -7.08717e-05)
(6.73181e-07 -1.62883e-06 -1.19916e-05)
(1.60719e-05 -1.85085e-05 -2.94642e-05)
(-2.64527e-05 -2.7679e-05 -4.71923e-05)
(6.961e-06 -3.54663e-06 -2.81298e-05)
(-6.70026e-06 -1.37739e-05 -2.58098e-05)
(-2.65713e-05 1.29524e-05 -3.00453e-05)
(4.8945e-06 5.3453e-06 -2.62309e-05)
(-3.14972e-06 -3.23902e-06 -4.05862e-05)
(-5.93765e-06 1.94669e-05 -4.48748e-05)
(5.67341e-06 -1.47149e-05 -1.93712e-05)
(3.47436e-05 -7.22026e-05 -4.51378e-05)
(-8.43222e-06 1.42557e-05 -6.13392e-05)
(-5.05543e-07 -2.07283e-06 -1.67885e-05)
(-1.83946e-05 -1.07508e-05 -3.81901e-05)
(-2.36592e-05 -6.77412e-06 -5.61833e-05)
(5.52997e-05 6.98962e-05 -7.54609e-06)
(5.8799e-05 9.20632e-05 1.23374e-05)
(-2.59499e-06 8.20804e-05 1.63688e-05)
(1.10654e-05 9.03088e-05 -3.54618e-06)
(-1.99013e-06 9.42303e-06 -6.09711e-06)
(-8.0122e-06 -4.08554e-06 1.51098e-05)
(-2.00366e-05 3.49289e-05 -5.8676e-05)
(3.2383e-05 7.48228e-05 -9.77645e-05)
(5.03502e-05 6.36438e-05 3.11318e-08)
(3.84802e-05 3.98361e-05 3.3813e-05)
(-3.49143e-05 5.47226e-06 6.1298e-05)
(-7.49433e-05 4.53075e-05 3.59126e-05)
(-4.41609e-05 1.42178e-05 5.65687e-06)
(-1.92282e-05 -2.29096e-05 1.66809e-06)
(-3.34545e-05 4.47463e-06 -4.39243e-07)
(4.50144e-05 8.0094e-05 -2.92248e-05)
(1.91182e-05 2.17616e-05 4.55496e-06)
(1.23836e-05 1.66619e-05 1.29497e-05)
(-5.50462e-06 -1.1739e-05 3.08759e-05)
(-6.80885e-05 1.45018e-05 1.05262e-05)
(-3.03195e-05 1.45275e-06 4.43801e-06)
(-1.25652e-06 -1.04406e-06 -1.53988e-05)
(-2.89671e-05 1.11831e-06 -2.21604e-05)
(-9.58248e-06 9.75019e-05 -5.17869e-05)
(2.06837e-05 3.59842e-05 -9.55556e-06)
(1.55575e-05 3.55135e-05 1.0412e-05)
(1.3771e-06 3.11678e-05 2.67826e-05)
(-6.47771e-07 2.7455e-05 6.20112e-06)
(-3.62242e-06 5.0406e-06 7.15508e-06)
(-1.35515e-06 -7.71819e-06 6.68061e-06)
(-1.83226e-05 1.51757e-05 -2.10906e-05)
(-3.10208e-06 5.16604e-05 -4.95841e-05)
(2.24791e-05 3.27428e-05 4.96752e-07)
(1.42226e-05 2.62986e-05 3.99657e-05)
(-1.37028e-05 1.62793e-05 6.89876e-05)
(-3.30995e-05 2.15057e-05 3.88281e-05)
(-1.97146e-05 3.51846e-06 -1.83945e-06)
(-1.22878e-05 -4.1803e-06 7.57459e-06)
(-3.17835e-05 -5.73014e-07 -9.0718e-07)
(-1.1078e-05 6.13424e-05 -4.24919e-05)
(1.03532e-05 1.51831e-05 1.99876e-06)
(7.52333e-06 1.19434e-05 1.78218e-05)
(-7.69123e-06 5.63517e-06 3.57349e-05)
(-3.27291e-05 -3.77886e-06 2.81621e-05)
(-2.02956e-05 7.24036e-06 1.07483e-06)
(-2.51881e-06 -1.76125e-06 -1.31744e-06)
(-1.53647e-05 1.7916e-06 -6.96676e-06)
(-1.68233e-05 3.67449e-05 -2.85386e-05)
(-6.88376e-06 2.01139e-05 -1.8478e-05)
(-8.7423e-06 4.54201e-06 2.05248e-06)
(-8.2227e-06 -2.47786e-06 9.7459e-06)
(-1.13036e-05 2.14302e-06 -1.42746e-06)
(-5.19098e-06 2.01593e-06 3.99321e-06)
(3.24518e-08 -1.02553e-05 1.15336e-05)
(-6.81032e-06 9.49757e-06 1.09415e-05)
(-1.48195e-05 4.01898e-05 -2.37835e-05)
(-5.34053e-06 1.86292e-05 -6.71307e-06)
(-5.57668e-06 1.43302e-05 3.11844e-05)
(-1.33401e-05 6.97702e-07 5.30601e-05)
(-1.64677e-05 1.09629e-06 3.36631e-05)
(-1.21988e-05 5.42678e-06 3.46333e-06)
(-1.09425e-05 5.77969e-06 1.41648e-05)
(-1.85356e-05 2.08314e-05 1.2597e-05)
(-1.41372e-05 3.8303e-05 -2.33833e-05)
(-2.22992e-06 7.24088e-06 -1.03364e-06)
(-3.7336e-06 8.40758e-06 2.12589e-05)
(-8.34254e-06 2.21078e-06 3.20493e-05)
(-1.14711e-05 -6.37003e-07 2.58539e-05)
(-1.08697e-05 3.30469e-06 1.42656e-06)
(-9.42732e-06 3.77234e-06 3.51784e-07)
(-1.33906e-05 1.35375e-05 -6.16081e-06)
(-3.91348e-06 1.51756e-05 -1.48415e-05)
(-2.31238e-05 9.74038e-06 -3.1063e-05)
(-2.0827e-05 -8.56508e-06 -1.27667e-05)
(-1.49218e-05 -1.65794e-05 -1.32061e-05)
(-1.07611e-05 -1.05396e-05 -1.5358e-05)
(-1.99595e-06 5.81627e-06 -9.23001e-06)
(1.80087e-05 3.03451e-06 4.68865e-06)
(1.09744e-05 1.82591e-05 8.41167e-06)
(5.96975e-06 4.89739e-05 -4.55611e-06)
(-1.31268e-05 1.21842e-05 -1.24704e-05)
(-6.68924e-06 1.10751e-05 1.82812e-05)
(-1.23439e-05 -7.48875e-06 2.91255e-05)
(-1.07019e-05 -3.63266e-06 1.87637e-05)
(-1.05474e-05 8.37238e-06 9.13958e-07)
(-1.90175e-06 1.95599e-05 6.61512e-06)
(-1.50412e-06 3.06947e-05 1.27842e-05)
(7.15898e-07 4.07395e-05 -1.0253e-05)
(-5.66545e-06 6.04917e-06 -3.57934e-06)
(-4.78638e-06 7.18076e-06 1.7551e-05)
(-5.64536e-06 3.02442e-06 2.4033e-05)
(-8.64727e-06 1.00112e-06 1.76815e-05)
(-1.01809e-05 5.18398e-06 -9.28575e-07)
(-5.46485e-06 1.29333e-05 -1.11033e-06)
(-3.9127e-07 1.40982e-05 4.36379e-06)
(3.31351e-06 1.00565e-05 1.08734e-06)
(-2.14118e-05 4.72734e-06 -4.56171e-05)
(-9.85804e-06 -1.27912e-05 -2.81257e-05)
(1.93858e-06 -3.06002e-05 -3.08127e-05)
(5.14235e-06 -2.13476e-05 -3.75375e-05)
(1.06461e-05 -5.30167e-07 -3.29698e-05)
(1.49746e-05 3.01582e-06 -9.29679e-06)
(9.61488e-06 1.87498e-05 2.4248e-06)
(6.84127e-06 3.06207e-05 1.19819e-06)
(-1.53228e-05 6.37966e-06 -1.81717e-05)
(-8.86909e-06 -4.71691e-06 1.47445e-06)
(-2.14093e-06 -2.13789e-05 4.88745e-06)
(3.15673e-06 -1.77889e-05 1.38303e-06)
(6.45258e-06 5.47081e-06 -1.184e-05)
(7.37881e-06 1.97706e-05 -7.76332e-06)
(5.40723e-06 -2.8853e-06 4.41063e-06)
(1.65116e-05 1.4861e-05 3.80124e-06)
(-1.10049e-05 -3.45919e-07 -4.47968e-06)
(-8.20349e-06 -1.74658e-06 1.0878e-05)
(2.17689e-06 -3.15449e-06 1.10349e-05)
(2.00666e-07 -3.64953e-06 8.13852e-06)
(-1.40042e-06 3.89897e-06 -5.74157e-06)
(-2.27137e-07 1.18327e-05 -7.57471e-06)
(5.51908e-06 9.57013e-06 2.3558e-06)
(1.11073e-05 -4.62021e-06 1.66541e-05)
(-2.55783e-05 -6.94442e-06 -4.89461e-05)
(9.51451e-06 -6.41665e-06 -3.18817e-05)
(1.87902e-05 -3.76022e-05 -3.93918e-05)
(3.00515e-05 -4.02392e-05 -4.40294e-05)
(3.1173e-05 -2.10159e-05 -4.88473e-05)
(3.06035e-05 -7.13468e-06 -3.02228e-05)
(1.36224e-05 3.3076e-06 -1.66158e-05)
(1.1256e-05 9.4194e-07 -1.31536e-05)
(-2.02996e-05 -7.97717e-06 -2.51894e-05)
(-1.28789e-05 -3.07653e-06 -1.82357e-05)
(6.53774e-06 -2.28953e-05 -1.67069e-05)
(1.1636e-05 -2.54952e-05 -1.8672e-05)
(1.56906e-05 -1.45578e-05 -1.72195e-05)
(7.47498e-06 -5.58992e-07 -2.52471e-05)
(1.05519e-05 1.38563e-05 -1.249e-05)
(1.17207e-05 -6.06244e-06 -8.36189e-06)
(-1.31758e-05 -8.94106e-06 1.06559e-06)
(-3.38925e-06 -3.47821e-06 -4.39891e-06)
(-7.79871e-07 -5.74203e-06 -2.85945e-06)
(7.70426e-06 -1.33949e-05 -1.26616e-05)
(7.95549e-06 -6.70204e-06 -7.49839e-06)
(4.62863e-06 4.93951e-07 -1.40571e-05)
(7.49993e-06 4.42206e-06 -1.07566e-05)
(1.21559e-05 -5.32314e-06 -1.06588e-05)
(5.78431e-05 3.37685e-05 1.0122e-05)
(-2.60813e-05 1.50119e-05 4.29319e-05)
(-0.000105651 -1.00901e-05 4.62147e-05)
(3.56572e-06 -8.57338e-05 -3.6294e-05)
(-1.45965e-05 -9.86782e-05 -6.32615e-05)
(9.46431e-06 -0.000108244 -4.42485e-05)
(-5.21698e-05 -0.000122382 -0.000193395)
(-1.3306e-05 -0.00010695 -6.98552e-05)
(-2.39546e-07 5.49438e-05 0.000100363)
(-7.19728e-05 -4.13115e-05 -3.93733e-05)
(-0.000195471 -0.000144784 -0.000123937)
(-0.000117744 -0.000175295 -7.45328e-05)
(4.93341e-05 4.81138e-05 4.51224e-05)
(-1.52654e-06 -7.21605e-05 -3.59374e-05)
(0.000141751 9.68008e-05 2.63798e-05)
(0.000129969 -1.51863e-05 0.000103954)
(0.000204504 -0.000351573 0.000160503)
(2.58469e-05 0.000150945 0.00010952)
(8.93583e-05 -5.68298e-06 -8.89544e-05)
(-1.72402e-05 -7.53802e-05 -0.000107714)
(3.71215e-06 -5.71723e-05 -4.48087e-05)
(9.04678e-06 5.16625e-05 -0.000131902)
(1.20528e-05 5.38902e-05 -0.00012389)
(1.37709e-05 -4.53314e-05 -0.000102538)
(-1.96371e-05 1.30876e-05 3.08673e-05)
(-3.32144e-05 -3.21375e-06 2.77348e-05)
(-1.58967e-05 -2.83529e-06 2.7414e-05)
(-7.93452e-06 -3.39636e-05 -3.91212e-05)
(1.58179e-05 -3.38104e-05 -2.30098e-05)
(8.05093e-06 -3.39e-05 -4.42266e-06)
(-1.86631e-05 -8.23719e-05 -0.000145947)
(-3.33191e-05 -0.000105975 -9.38344e-05)
(1.51411e-05 -6.54856e-05 1.9231e-05)
(-6.14817e-06 -7.01158e-05 -8.19695e-05)
(-8.35966e-05 3.91106e-05 -8.97402e-05)
(4.48421e-05 0.00011615 -8.16879e-05)
(3.2117e-05 -3.74633e-05 1.53866e-05)
(0.000117002 -2.0581e-05 -1.84871e-05)
(8.46715e-05 -1.00176e-05 -2.81465e-05)
(5.00476e-05 -1.33601e-05 5.28231e-05)
(0.000144994 -6.231e-05 7.53065e-05)
(1.56103e-06 0.00012644 0.000130046)
(2.4172e-05 3.63014e-05 -3.95818e-05)
(1.90487e-05 -6.45802e-05 -6.74311e-05)
(-2.21524e-05 -1.30618e-05 -7.88933e-06)
(-1.93356e-05 6.94788e-05 -8.57976e-05)
(-4.69745e-06 3.34072e-05 -8.83468e-05)
(-3.81279e-06 1.80847e-06 -6.50061e-05)
(-1.01473e-06 2.9056e-05 1.23074e-05)
(-6.9569e-06 1.66824e-05 1.61743e-05)
(-4.57864e-06 3.62663e-07 1.21655e-05)
(-7.03997e-06 1.65133e-05 -2.83915e-05)
(2.22285e-05 -1.09157e-05 -2.77136e-05)
(2.09421e-05 -1.89957e-05 5.95378e-06)
(2.13836e-05 -3.68742e-05 -9.60991e-05)
(1.29496e-05 -6.3296e-05 -0.000102903)
(1.12787e-05 -7.64652e-05 -3.98992e-05)
(3.33419e-05 -7.31654e-05 -0.000100803)
(4.35708e-05 -5.38049e-05 -0.000116949)
(6.12011e-06 5.76009e-06 -4.93419e-05)
(4.34667e-05 -6.5429e-05 -4.23727e-05)
(3.16698e-05 -3.29727e-05 -2.53474e-05)
(7.22581e-07 8.99166e-06 6.66354e-06)
(3.70475e-05 -2.98127e-05 -6.79011e-06)