/*--------------------------------*- C++ -*----------------------------------*\
| =========                 |                                                 |
| \\      /  F ield         | OpenFOAM: The Open Source CFD Toolbox           |
|  \\    /   O peration     | Version:  4.x                                   |
|   \\  /    A nd           | Web:      www.OpenFOAM.org                      |
|    \\/     M anipulation  |                                                 |
\*---------------------------------------------------------------------------*/
FoamFile
{
    version     2.0;
    format      ascii;
    class       volScalarField;
    location    "1";
    object      voidfractionPrev;
}
// * * * * * * * * * * * * * * * * * * * * * * * * * * * * * * * * * * * * * //

dimensions      [0 0 0 0 0 0 0];

internalField   nonuniform List<scalar> 
960
(
0.603334
0.587872
0.580035
0.597506
0.596447
0.610508
0.63902
0.621684
0.599329
0.566266
0.602874
0.593547
0.577139
0.62816
0.598539
0.61769
0.606377
0.56464
0.564807
0.605804
0.551145
0.584797
0.556623
0.577954
0.600697
0.58988
0.585019
0.598253
0.60168
0.61075
0.583092
0.598525
0.579244
0.552942
0.567549
0.595966
0.618889
0.597834
0.548135
0.573659
0.565114
0.566959
0.560671
0.572613
0.575627
0.585466
0.577748
0.603561
0.606448
0.560356
0.571329
0.579024
0.578891
0.571058
0.591877
0.617984
0.620208
0.581823
0.548958
0.571957
0.607392
0.579981
0.598211
0.636066
0.438644
0.418041
0.418928
0.405594
0.433712
0.442445
0.452032
0.43613
0.431423
0.430049
0.418035
0.443309
0.398099
0.441403
0.429484
0.449361
0.419482
0.416423
0.419871
0.463728
0.402621
0.4302
0.451585
0.43529
0.412252
0.42195
0.425344
0.449852
0.422535
0.420007
0.430974
0.417555
0.419302
0.422371
0.437955
0.405817
0.445713
0.418696
0.450225
0.422363
0.433807
0.439457
0.448894
0.435103
0.416014
0.428013
0.431791
0.41277
0.447967
0.437066
0.427786
0.437928
0.439167
0.418167
0.437393
0.433523
0.43169
0.414608
0.421519
0.414774
0.419643
0.42526
0.423052
0.424592
0.408801
0.405904
0.389492
0.401708
0.397578
0.400391
0.389653
0.423045
0.396485
0.404732
0.392098
0.40787
0.437496
0.417751
0.40669
0.397262
0.395641
0.389259
0.401332
0.420207
0.393408
0.425823
0.401378
0.407705
0.438537
0.44453
0.400092
0.414217
0.38263
0.427212
0.418642
0.423814
0.385272
0.39199
0.399264
0.416219
0.389386
0.387027
0.410162
0.382182
0.398227
0.408913
0.41479
0.391329
0.410802
0.407505
0.418113
0.38324
0.403156
0.392823
0.396155
0.408072
0.414007
0.405313
0.391546
0.411574
0.422248
0.385667
0.401319
0.375046
0.383977
0.387372
0.39622
0.399568
0.397873
0.406829
0.387962
0.370999
0.419785
0.380645
0.365436
0.395959
0.370579
0.391783
0.393395
0.411419
0.365276
0.431423
0.380222
0.401141
0.386293
0.38764
0.39798
0.378083
0.380225
0.385345
0.384912
0.394456
0.391346
0.409264
0.395822
0.375973
0.41363
0.412923
0.387032
0.380726
0.386245
0.385481
0.41495
0.415942
0.379227
0.35485
0.390226
0.37793
0.375391
0.395903
0.400989
0.397841
0.389818
0.392252
0.395211
0.384037
0.399022
0.402786
0.387079
0.393495
0.405972
0.382108
0.400791
0.403824
0.393206
0.390417
0.371027
0.356319
0.397001
0.371146
0.373963
0.391789
0.401385
0.392997
0.388257
0.387151
0.398492
0.404478
0.382216
0.39207
0.392102
0.389555
0.39502
0.383127
0.399919
0.395452
0.384082
0.379775
0.382818
0.38231
0.394182
0.393419
0.388107
0.384329
0.400869
0.376673
0.367589
0.400589
0.38616
0.396794
0.406083
0.371129
0.401726
0.403451
0.43535
0.404802
0.39406
0.41369
0.353608
0.38975
0.415633
0.384444
0.403246
0.397921
0.378086
0.415755
0.397207
0.396666
0.405474
0.389227
0.403761
0.401048
0.388332
0.400175
0.409349
0.384657
0.389854
0.386692
0.401975
0.39182
0.383712
0.394089
0.37915
0.371076
0.3884
0.401386
0.420981
0.376099
0.391744
0.39288
0.388042
0.384891
0.383486
0.414216
0.417163
0.409346
0.395634
0.393425
0.440871
0.360937
0.362709
0.383953
0.380887
0.380347
0.39788
0.393734
0.407747
0.400538
0.397588
0.379518
0.39194
0.404519
0.395378
0.401611
0.369385
0.366985
0.438131
0.36784
0.400102
0.396135
0.442567
0.406179
0.383723
0.384966
0.374642
0.395666
0.386114
0.389981
0.40574
0.396576
0.382813
0.381455
0.389484
0.396437
0.423572
0.40662
0.39008
0.40438
0.38365
0.376094
0.382105
0.362251
0.385006
0.411629
0.387202
0.368195
0.395405
0.3879
0.385007
0.39295
0.693671
0.671911
0.661275
0.684675
0.669953
0.66306
0.738773
0.717932
0.650433
0.717923
0.689648
0.61483
0.733914
0.637875
0.586406
0.73236
0.654046
0.595102
0.706712
0.650831
0.647518
0.774619
0.678555
0.651916
0.467388
0.452294
0.44995
0.463028
0.45389
0.453948
0.461576
0.438994
0.44956
0.476772
0.442354
0.4297
0.445325
0.476895
0.44753
0.446782
0.44397
0.439751
0.470995
0.440866
0.44576
0.481684
0.464761
0.439567
0.409028
0.40709
0.427103
0.405811
0.398675
0.386026
0.424611
0.412348
0.392316
0.441026
0.426628
0.382824
0.397215
0.403824
0.392623
0.418383
0.401185
0.408985
0.397723
0.392239
0.430733
0.421826
0.408162
0.389384
0.383608
0.398957
0.397009
0.386751
0.399769
0.394989
0.401735
0.408671
0.383008
0.400591
0.38776
0.375258
0.431375
0.396632
0.421495
0.418962
0.404865
0.393665
0.414299
0.379377
0.394138
0.411898
0.388188
0.394998
0.395968
0.372686
0.370462
0.40977
0.408589
0.386095
0.437996
0.40775
0.38393
0.412187
0.38244
0.392095
0.426124
0.399396
0.374811
0.41202
0.407293
0.398633
0.430223
0.406598
0.390019
0.413899
0.403871
0.382537
0.461027
0.43784
0.403475
0.459486
0.411597
0.383117
0.437502
0.408025
0.384964
0.419531
0.426537
0.387698
0.419196
0.407652
0.399288
0.446226
0.43513
0.400838
0.446879
0.419704
0.402067
0.451817
0.386614
0.375796
0.637747
0.621564
0.588769
0.607464
0.634153
0.594855
0.610474
0.621627
0.655862
0.676373
0.636905
0.671446
0.696892
0.661638
0.62506
0.668794
0.721684
0.732225
0.718463
0.73907
0.715884
0.701151
0.684843
0.699893
0.422514
0.426539
0.432389
0.437909
0.429724
0.436577
0.432389
0.417131
0.437187
0.453235
0.438968
0.466621
0.467186
0.468864
0.453996
0.458909
0.441985
0.47012
0.46793
0.481949
0.463909
0.466264
0.45317
0.475363
0.391062
0.393766
0.402201
0.399498
0.390452
0.402661
0.397084
0.375846
0.386618
0.393678
0.408449
0.424347
0.390854
0.403913
0.410021
0.400417
0.396033
0.402584
0.437293
0.422011
0.395792
0.407711
0.409748
0.436384
0.403877
0.395987
0.390211
0.389867
0.409717
0.38105
0.387481
0.37118
0.376123
0.41676
0.405407
0.394704
0.393083
0.395284
0.404208
0.381846
0.403552
0.413173
0.418521
0.404211
0.400448
0.406748
0.417001
0.39204
0.392231
0.398637
0.400588
0.390196
0.408092
0.402731
0.394813
0.388915
0.410778
0.410183
0.410516
0.39536
0.39836
0.401372
0.403823
0.401905
0.411173
0.462012
0.425496
0.417878
0.412019
0.400179
0.425925
0.418498
0.418059
0.433881
0.410321
0.391987
0.419914
0.3922
0.389102
0.415487
0.418725
0.424891
0.409167
0.40848
0.429188
0.42049
0.413896
0.40343
0.434248
0.471706
0.447396
0.457021
0.44256
0.45627
0.465096
0.445707
0.627526
0.665275
0.689331
0.650225
0.658374
0.67021
0.644328
0.704384
0.724797
0.652085
0.70937
0.748596
0.63099
0.67652
0.72768
0.642526
0.665786
0.732486
0.640735
0.671357
0.72612
0.623116
0.653749
0.695133
0.440222
0.465827
0.463811
0.425715
0.439376
0.467958
0.422504
0.459203
0.476335
0.428647
0.452217
0.474098
0.438836
0.425088
0.458296
0.419883
0.445654
0.458016
0.429456
0.441221
0.460994
0.45373
0.459477
0.451635
0.425769
0.426448
0.43554
0.411639
0.414485
0.418405
0.406776
0.402005
0.429001
0.398376
0.406395
0.419489
0.422907
0.403015
0.403426
0.407939
0.406292
0.406461
0.390996
0.401093
0.420343
0.379363
0.399342
0.424893
0.389207
0.416114
0.445043
0.391933
0.39003
0.428966
0.37851
0.392487
0.407501
0.399086
0.426744
0.411125
0.415512
0.378415
0.41384
0.406741
0.392307
0.412748
0.394565
0.405669
0.413558
0.394711
0.413627
0.427635
0.382242
0.405972
0.415946
0.391114
0.398248
0.438717
0.384669
0.385763
0.410397
0.398391
0.401957
0.420644
0.392585
0.392202
0.416378
0.411214
0.396991
0.43003
0.383644
0.397847
0.402085
0.388621
0.398392
0.429681
0.388622
0.401772
0.438826
0.394192
0.41567
0.463195
0.376995
0.416426
0.462003
0.395106
0.421696
0.446556
0.399698
0.411591
0.429149
0.41678
0.417694
0.458002
0.403851
0.432301
0.471529
0.396694
0.409115
0.443996
0.699853
0.676275
0.711782
0.670886
0.694165
0.681663
0.693146
0.686083
0.689526
0.719362
0.707015
0.669518
0.6455
0.671807
0.659815
0.653148
0.683242
0.666824
0.645225
0.649433
0.648601
0.60484
0.634779
0.63593
0.476551
0.475284
0.460926
0.453801
0.453701
0.465687
0.447673
0.480868
0.462896
0.45121
0.459889
0.430927
0.462525
0.461907
0.443049
0.458674
0.458061
0.45279
0.439962
0.447288
0.420811
0.440955
0.454976
0.430761
0.406299
0.405101
0.417105
0.413026
0.410113
0.42506
0.406342
0.418425
0.415956
0.407109
0.407182
0.380937
0.401498
0.402765
0.407407
0.408183
0.397241
0.405892
0.40863
0.378463
0.398803
0.407249
0.401938
0.400323
0.388072
0.41885
0.408004
0.418098
0.417782
0.415113
0.440657
0.406447
0.392142
0.403216
0.397841
0.397472
0.389901
0.403749
0.398138
0.408704
0.378813
0.41448
0.39281
0.368449
0.394566
0.395974
0.385384
0.39696
0.411228
0.408364
0.409434
0.42607
0.427066
0.43781
0.44134
0.46865
0.395027
0.42194
0.41994
0.410394
0.384243
0.410572
0.402454
0.386025
0.370738
0.384549
0.401525
0.403562
0.379383
0.386837
0.377029
0.388119
0.456143
0.451793
0.43772
0.433104
0.457814
0.456941
0.45677
0.469969
0.42448
0.425914
0.402957
0.41326
0.41902
0.412801
0.438856
0.447999
0.402824
0.414532
0.398755
0.373753
0.400536
0.422014
0.414767
0.428291
)
;

boundaryField
{
    atmosphere
    {
        type            fixedValue;
        value           uniform 1;
    }
    walls
    {
        type            zeroGradient;
    }
    outlet
    {
        type            zeroGradient;
    }
}


// ************************************************************************* //
