/*--------------------------------*- C++ -*----------------------------------*\
| =========                 |                                                 |
| \\      /  F ield         | OpenFOAM: The Open Source CFD Toolbox           |
|  \\    /   O peration     | Version:  4.x                                   |
|   \\  /    A nd           | Web:      www.OpenFOAM.org                      |
|    \\/     M anipulation  |                                                 |
\*---------------------------------------------------------------------------*/
FoamFile
{
    version     2.0;
    format      ascii;
    class       volScalarField;
    location    "1";
    object      voidfractionNext;
}
// * * * * * * * * * * * * * * * * * * * * * * * * * * * * * * * * * * * * * //

dimensions      [0 0 0 0 0 0 0];

internalField   nonuniform List<scalar> 
960
(
0.603334
0.587872
0.580035
0.597505
0.596445
0.61051
0.639021
0.621684
0.599329
0.566266
0.602873
0.593542
0.577125
0.628174
0.598544
0.61769
0.606377
0.56464
0.564803
0.605787
0.551075
0.584867
0.556639
0.577952
0.600696
0.589879
0.585017
0.598247
0.601666
0.610764
0.583096
0.598517
0.579244
0.552942
0.567549
0.595965
0.618886
0.597836
0.548136
0.573669
0.565114
0.566959
0.560671
0.572613
0.575626
0.585463
0.577739
0.603563
0.606448
0.560356
0.571329
0.579023
0.578888
0.57104
0.591787
0.617966
0.620208
0.581823
0.548958
0.571956
0.607382
0.579895
0.597363
0.63597
0.438647
0.418041
0.418928
0.405591
0.433705
0.442453
0.452034
0.43613
0.431424
0.430048
0.418032
0.443292
0.398026
0.441476
0.429501
0.449363
0.419481
0.41642
0.41986
0.463645
0.401857
0.430963
0.451668
0.435298
0.412249
0.421943
0.425338
0.449834
0.422461
0.42008
0.430991
0.417555
0.419301
0.422368
0.437953
0.405814
0.445706
0.418703
0.450229
0.422367
0.433806
0.439456
0.448894
0.435102
0.416013
0.428015
0.431798
0.412774
0.447967
0.437066
0.427786
0.437928
0.439169
0.41818
0.437466
0.433538
0.43169
0.414608
0.421519
0.414775
0.41965
0.425328
0.423819
0.424671
0.408822
0.405908
0.389492
0.401707
0.397577
0.400393
0.389654
0.423045
0.39649
0.40473
0.392095
0.407865
0.437483
0.417764
0.406695
0.397263
0.395636
0.389242
0.401318
0.420189
0.393343
0.425887
0.401393
0.407707
0.43852
0.444474
0.40006
0.414204
0.382617
0.427224
0.418646
0.423815
0.385265
0.391972
0.399253
0.416214
0.389384
0.387028
0.410164
0.382184
0.398225
0.40891
0.414788
0.391328
0.410802
0.407507
0.418116
0.383241
0.403156
0.392822
0.396155
0.408072
0.414008
0.405317
0.391561
0.411579
0.422248
0.385667
0.401319
0.375046
0.383979
0.387387
0.396294
0.399583
0.398003
0.406848
0.387964
0.370999
0.419784
0.380645
0.365436
0.395959
0.370601
0.391771
0.393385
0.411415
0.365273
0.431424
0.380223
0.401141
0.386266
0.387528
0.397919
0.378066
0.380217
0.38535
0.384914
0.394457
0.391237
0.408722
0.395571
0.375926
0.413621
0.412924
0.387033
0.380726
0.386212
0.385368
0.414889
0.415927
0.379224
0.35485
0.390226
0.37793
0.375384
0.395885
0.400978
0.397837
0.389818
0.392252
0.395211
0.384037
0.399021
0.402784
0.387077
0.393494
0.405972
0.382109
0.400793
0.403825
0.393205
0.390416
0.371026
0.356319
0.397002
0.371149
0.37397
0.391791
0.401909
0.39305
0.38826
0.38715
0.398492
0.404478
0.382216
0.39207
0.392125
0.389511
0.394994
0.383121
0.399918
0.395452
0.384082
0.379775
0.382726
0.381776
0.393942
0.393378
0.388101
0.384329
0.40087
0.376673
0.367062
0.395082
0.384119
0.3966
0.406064
0.371128
0.401726
0.403451
0.435251
0.404266
0.39382
0.41365
0.353602
0.389749
0.415633
0.384444
0.403232
0.397868
0.378059
0.415749
0.397206
0.396666
0.405474
0.389227
0.403759
0.401042
0.388329
0.400174
0.409349
0.384657
0.389854
0.386692
0.401975
0.39182
0.383712
0.394089
0.37915
0.371076
0.388401
0.401387
0.420303
0.376021
0.391739
0.39288
0.388043
0.384891
0.383486
0.414216
0.417113
0.409404
0.395672
0.393436
0.440874
0.360938
0.362709
0.383953
0.381012
0.381013
0.398192
0.393793
0.407756
0.400539
0.397588
0.379518
0.392595
0.410632
0.397704
0.40186
0.369412
0.366988
0.438131
0.36784
0.400242
0.396804
0.442879
0.406238
0.383732
0.384967
0.374642
0.395666
0.386137
0.390057
0.405782
0.396587
0.382815
0.381456
0.389484
0.396437
0.423575
0.406629
0.390085
0.404382
0.38365
0.376094
0.382105
0.362252
0.385007
0.41163
0.387203
0.368195
0.395405
0.3879
0.385007
0.39295
0.693672
0.671912
0.661276
0.684676
0.669953
0.663061
0.738773
0.717932
0.650433
0.717923
0.689648
0.61483
0.733914
0.637875
0.586406
0.73236
0.654045
0.595102
0.706712
0.650831
0.647518
0.774619
0.678555
0.651916
0.467394
0.4523
0.449956
0.46303
0.453892
0.45395
0.461576
0.438994
0.44956
0.476772
0.442354
0.429699
0.445325
0.476895
0.44753
0.446782
0.44397
0.439751
0.470995
0.440866
0.44576
0.481684
0.464761
0.439567
0.409071
0.407136
0.427161
0.405819
0.398687
0.386043
0.424612
0.41235
0.392318
0.441026
0.426628
0.382822
0.397215
0.403824
0.392622
0.418383
0.401185
0.408984
0.397723
0.392239
0.430733
0.421826
0.408162
0.389384
0.383903
0.399294
0.397577
0.38679
0.399835
0.395096
0.401739
0.408679
0.38302
0.400591
0.38776
0.375249
0.431375
0.396631
0.421491
0.418962
0.404865
0.393664
0.414299
0.379377
0.394138
0.411898
0.388188
0.394998
0.397936
0.375039
0.376578
0.409898
0.408885
0.386582
0.438004
0.407773
0.383978
0.412187
0.38244
0.392066
0.426124
0.399396
0.374802
0.41202
0.407293
0.398631
0.430223
0.406598
0.390019
0.413899
0.403871
0.382536
0.458714
0.435097
0.396727
0.45931
0.41122
0.382502
0.437488
0.407991
0.384901
0.41953
0.426537
0.387738
0.419196
0.407653
0.399302
0.446226
0.43513
0.400842
0.446879
0.419704
0.402067
0.451817
0.386615
0.375796
0.637747
0.621564
0.588769
0.607464
0.63415
0.594827
0.610393
0.621631
0.655862
0.676373
0.636905
0.671446
0.696891
0.661636
0.625051
0.668794
0.721684
0.732224
0.718463
0.73907
0.715884
0.70115
0.684842
0.699893
0.422514
0.426539
0.432389
0.43791
0.429726
0.4366
0.432454
0.417124
0.437187
0.453235
0.438968
0.466621
0.467186
0.468866
0.454003
0.458909
0.441985
0.47012
0.46793
0.481949
0.463909
0.466264
0.453171
0.475363
0.391062
0.393766
0.402201
0.399498
0.390453
0.402666
0.397098
0.37585
0.386618
0.393678
0.408449
0.424347
0.390854
0.403914
0.410023
0.400417
0.396033
0.402584
0.437293
0.422011
0.395792
0.407711
0.409748
0.436384
0.403877
0.395987
0.390211
0.389867
0.409717
0.381051
0.387484
0.371181
0.376123
0.41676
0.405407
0.394704
0.393083
0.395284
0.404208
0.381846
0.403552
0.413173
0.418521
0.404211
0.400448
0.406748
0.417001
0.39204
0.392231
0.398637
0.400588
0.390196
0.408092
0.402731
0.394813
0.388915
0.410778
0.410183
0.410516
0.39536
0.39836
0.401372
0.403823
0.401905
0.411173
0.462012
0.425496
0.417878
0.412019
0.400179
0.425925
0.418498
0.418059
0.433881
0.410321
0.391987
0.419914
0.3922
0.389102
0.415487
0.418725
0.424891
0.409167
0.40848
0.429188
0.42049
0.413896
0.40343
0.434248
0.471706
0.447396
0.457021
0.44256
0.45627
0.465096
0.445707
0.627524
0.66527
0.689321
0.650217
0.658337
0.6701
0.644292
0.704123
0.723485
0.651982
0.707998
0.731126
0.631093
0.677892
0.74515
0.642562
0.666047
0.733798
0.640741
0.671393
0.726229
0.623105
0.653752
0.695142
0.440222
0.465825
0.463807
0.425712
0.439363
0.467924
0.422492
0.459128
0.476044
0.428619
0.451939
0.47213
0.438864
0.425367
0.460263
0.419897
0.445729
0.458307
0.429461
0.441235
0.461028
0.453739
0.45948
0.451639
0.425768
0.426447
0.435539
0.411638
0.414481
0.418397
0.406773
0.40199
0.428951
0.39837
0.406351
0.419266
0.422913
0.403059
0.40365
0.407943
0.406308
0.406512
0.390998
0.401097
0.42035
0.379366
0.399344
0.424894
0.389207
0.416114
0.445043
0.391933
0.390029
0.428964
0.37851
0.392485
0.407493
0.399085
0.426738
0.411099
0.415514
0.378421
0.413866
0.406742
0.39231
0.412755
0.394566
0.40567
0.41356
0.394712
0.413628
0.427636
0.382242
0.405972
0.415946
0.391114
0.398248
0.438716
0.384669
0.385762
0.410396
0.39839
0.401956
0.420641
0.392585
0.392203
0.416381
0.411214
0.396992
0.430032
0.383645
0.397847
0.402085
0.388621
0.398392
0.429681
0.388622
0.401772
0.438826
0.394192
0.41567
0.463195
0.376995
0.416426
0.462003
0.395106
0.421696
0.446556
0.399698
0.411591
0.42915
0.41678
0.417694
0.458002
0.403851
0.432301
0.471529
0.396694
0.409115
0.443996
0.699854
0.676275
0.711782
0.670886
0.694165
0.681663
0.693146
0.686082
0.689527
0.719362
0.707015
0.669518
0.6455
0.671807
0.659815
0.653147
0.683242
0.666824
0.645225
0.649433
0.648601
0.604841
0.634779
0.63593
0.476561
0.475286
0.460926
0.453801
0.453701
0.465687
0.447673
0.480868
0.462902
0.451211
0.45989
0.430927
0.462525
0.461907
0.443049
0.458674
0.458065
0.452791
0.439963
0.447287
0.42081
0.440955
0.454976
0.43076
0.406373
0.405114
0.417107
0.413026
0.410113
0.42506
0.406342
0.418425
0.415993
0.407116
0.407183
0.380937
0.401498
0.402765
0.407407
0.408183
0.397267
0.405898
0.408631
0.378463
0.398803
0.407249
0.401938
0.400323
0.388679
0.41892
0.40801
0.418098
0.417782
0.415113
0.440657
0.406447
0.392362
0.403247
0.397845
0.397473
0.389901
0.403749
0.398138
0.408704
0.37897
0.414509
0.392814
0.36845
0.394566
0.395974
0.385384
0.39696
0.416369
0.40864
0.409448
0.426071
0.427066
0.43781
0.44134
0.46865
0.396069
0.422002
0.419946
0.410395
0.384243
0.410572
0.402454
0.386025
0.371425
0.384653
0.401534
0.403563
0.379383
0.386837
0.377029
0.388119
0.45031
0.451432
0.437698
0.433103
0.457814
0.456941
0.45677
0.469969
0.423176
0.425812
0.402946
0.413258
0.41902
0.412801
0.438856
0.447999
0.401949
0.41439
0.39874
0.373752
0.400536
0.422014
0.414767
0.428291
)
;

boundaryField
{
    atmosphere
    {
        type            fixedValue;
        value           uniform 1;
    }
    walls
    {
        type            zeroGradient;
    }
    outlet
    {
        type            zeroGradient;
    }
}


// ************************************************************************* //
