/*--------------------------------*- C++ -*----------------------------------*\
| =========                 |                                                 |
| \\      /  F ield         | OpenFOAM: The Open Source CFD Toolbox           |
|  \\    /   O peration     | Version:  4.x                                   |
|   \\  /    A nd           | Web:      www.OpenFOAM.org                      |
|    \\/     M anipulation  |                                                 |
\*---------------------------------------------------------------------------*/
FoamFile
{
    version     2.0;
    format      ascii;
    class       volScalarField;
    location    "2000";
    object      CO2;
}
// * * * * * * * * * * * * * * * * * * * * * * * * * * * * * * * * * * * * * //

dimensions      [0 0 0 0 0 0 0];

internalField   nonuniform List<scalar> 
1174
(
0.0631564507
0.06316135899
0.06316828215
0.06317730366
0.06318832503
0.06320110134
0.06321529157
0.06323050913
0.06324636328
0.06326248649
0.06327853951
0.06329416082
0.06330870899
0.06332013455
0.06316104101
0.06316888743
0.06317932516
0.06319210958
0.06320679883
0.06322285933
0.06323975107
0.06325698337
0.06327414338
0.06329090264
0.06330700207
0.06332219015
0.06333598041
0.06334662257
0.06317116417
0.06318499688
0.06320209419
0.06322149059
0.06324214505
0.06326312551
0.06328369582
0.06330333338
0.06332170731
0.0633386389
0.06335405296
0.06336790335
0.06337996603
0.06338900083
0.06318596644
0.06320741277
0.06323200971
0.06325795988
0.0632837698
0.06330836965
0.06333109326
0.06335159994
0.06336978479
0.06338569834
0.06339947903
0.06341128206
0.06342112283
0.06342825311
0.06319651274
0.0632221279
0.06325004877
0.06327831284
0.06330550346
0.06333071827
0.06335346859
0.06337356861
0.06339103799
0.06340602421
0.06341874151
0.06342941017
0.06343812703
0.06344434053
0.0631859662
0.06320741241
0.06323200925
0.06325795934
0.0632837692
0.063308369
0.06333109256
0.06335159921
0.06336978403
0.06338569755
0.06339947822
0.06341128123
0.06342112199
0.06342825225
0.06317116388
0.06318499647
0.06320209369
0.06322148999
0.06324214436
0.06326312472
0.06328369495
0.06330333242
0.06332170626
0.06333863777
0.06335405176
0.06336790208
0.06337996469
0.06338899944
0.06316104074
0.06316888709
0.06317932474
0.06319210908
0.06320679823
0.06322285863
0.06323975026
0.06325698244
0.06327414233
0.06329090147
0.06330700077
0.06332218873
0.06333597889
0.06334662095
0.06315645048
0.06316135873
0.06316828184
0.06317730327
0.06318832456
0.06320110076
0.06321529088
0.0632305083
0.06324636231
0.06326248538
0.06327853824
0.0632941594
0.06330870742
0.06332013285
0.06315573674
0.06316104099
0.06316888741
0.06317932513
0.06319210955
0.06320679881
0.06322285931
0.06323975105
0.06325698336
0.06327414337
0.06329090262
0.06330700205
0.06332219012
0.06333598039
0.06334662254
0.06317136421
0.06318509962
0.06320183147
0.06322055389
0.06324026027
0.06326010508
0.06327946052
0.06329790847
0.06331520281
0.06333122306
0.0633459254
0.06335927075
0.06337102
0.06337989914
0.06319728802
0.06322389565
0.06325278578
0.06328151977
0.06330843365
0.06333262523
0.06335377162
0.06337192262
0.06338733164
0.06340033789
0.06341129055
0.06342048955
0.06342807024
0.06343353409
0.06324325456
0.06328739041
0.06332931748
0.06336591978
0.06339612188
0.06342008259
0.06343855587
0.06345248926
0.06346281001
0.0634703307
0.06347572141
0.06347951299
0.06348210202
0.0634836816
0.06328652221
0.06333954888
0.0633844485
0.06342006612
0.06344712053
0.06346699398
0.0634811524
0.06349090867
0.0634973511
0.06350134483
0.06350356176
0.06350452243
0.06350465311
0.06350439144
0.06324325377
0.0632873894
0.06332931635
0.06336591861
0.0633961207
0.0634200814
0.06343855469
0.06345248811
0.06346280887
0.06347032957
0.06347572031
0.06347951191
0.06348210095
0.06348368054
0.06319728714
0.06322389465
0.0632527847
0.0632815186
0.06330843241
0.06333262391
0.06335377023
0.06337192116
0.06338733012
0.06340033632
0.06341128894
0.06342048791
0.06342806856
0.06343353238
0.06317136355
0.06318509896
0.06320183075
0.06322055307
0.06324025933
0.06326010401
0.06327945931
0.06329790712
0.06331520133
0.06333122146
0.06334592369
0.06335926893
0.06337101809
0.06337989714
0.06316104074
0.06316888707
0.0631793247
0.063192109
0.06320679811
0.06322285847
0.06323975005
0.06325698218
0.06327414202
0.0632909011
0.06330700036
0.06332218828
0.0633359784
0.06334662041
0.06316120585
0.06317116412
0.06318499675
0.06320209405
0.06322149043
0.06324214488
0.06326312533
0.06328369564
0.06330333319
0.06332170712
0.0633386387
0.06335405275
0.06336790313
0.06337996581
0.06338900061
0.063175775
0.06319728791
0.06322389544
0.06325278554
0.06328151951
0.06330843339
0.06333262497
0.06335377136
0.06337192236
0.06338733139
0.06340033765
0.06341129032
0.06342048932
0.06342807002
0.06343353388
0.06327368095
0.06332962615
0.06338022354
0.06342167483
0.06345322035
0.06347579158
0.06349100593
0.06350057443
0.0635060183
0.06350857185
0.06350918306
0.06350856244
0.06350727466
0.06350595228
0.06344317059
0.06353737943
0.06360226935
0.06364053971
0.06365851368
0.06366254144
0.06365773554
0.06364779419
0.06363522202
0.06362163589
0.06360804363
0.06359509022
0.06358338622
0.06357443572
0.06366461524
0.06375812665
0.06379823055
0.06380526862
0.06379375561
0.06377282291
0.06374787883
0.06372199845
0.06369685702
0.06367331088
0.063651756
0.06363238629
0.06361555864
0.06360299104
0.06344316721
0.06353737607
0.06360226631
0.06364053694
0.06365851114
0.06366253911
0.06365773342
0.06364779224
0.06363522022
0.06362163421
0.06360804206
0.06359508874
0.0635833848
0.06357443434
0.0632736778
0.06332962349
0.06338022102
0.06342167233
0.06345321784
0.06347578906
0.06349100343
0.06350057195
0.06350601585
0.06350856945
0.0635091807
0.06350856012
0.06350727237
0.06350595002
0.06319728712
0.06322389452
0.06325278447
0.06328151826
0.06330843194
0.06333262334
0.06335376955
0.0633719204
0.06338732929
0.06340033544
0.06341128803
0.06342048696
0.06342806759
0.06343353138
0.06317116388
0.06318499639
0.06320209351
0.06322148969
0.06324214392
0.06326312413
0.06328369421
0.06330333154
0.06332170526
0.06333863665
0.06335405053
0.06336790076
0.0633799633
0.06338899798
0.06316940299
0.06318596625
0.06320741239
0.06323200924
0.06325795935
0.06328376924
0.06330836906
0.06333109265
0.06335159933
0.06336978418
0.06338569773
0.06339947844
0.06341128148
0.06342112226
0.06342825255
0.0632026046
0.06324325437
0.06328738983
0.0633293168
0.06336591909
0.0633961212
0.06342008191
0.06343855521
0.06345248863
0.0634628094
0.06347033012
0.06347572086
0.06347951247
0.06348210152
0.06348368112
0.06332803983
0.06344317046
0.06353737874
0.06360226862
0.063640539
0.06365851301
0.06366254081
0.06365773497
0.06364779368
0.06363522154
0.06362163546
0.06360804324
0.06359508986
0.06358338587
0.06357443539
0.06402287834
0.06414102702
0.06416042737
0.06412639719
0.06406856144
0.06400362031
0.06394002982
0.06388155498
0.0638294874
0.0637839095
0.06374438688
0.06371039337
0.0636818579
0.0636610369
0.06515747138
0.06500916253
0.06478155175
0.06456333642
0.06437791069
0.06422664692
0.06410463813
0.06400609839
0.06392598195
0.06386028942
0.06380598196
0.06376088475
0.0637239736
0.06369746937
0.06402286533
0.06414101837
0.06416042083
0.0641263919
0.064068557
0.06400361653
0.06394002658
0.06388155215
0.06382948488
0.06378390723
0.0637443848
0.06371039145
0.06368185612
0.0636610352
0.06344316722
0.06353737513
0.06360226479
0.06364053507
0.06365850912
0.06366253704
0.06365773136
0.06364779023
0.06363521827
0.06362163234
0.06360804026
0.063595087
0.06358338312
0.0635744327
0.06324325384
0.06328738901
0.06332931556
0.06336591745
0.06339611921
0.06342007964
0.06343855272
0.06345248598
0.06346280663
0.06347032726
0.06347571795
0.06347950953
0.06348209855
0.06348367812
0.06318596624
0.06320741225
0.06323200886
0.06325795867
0.06328376823
0.06330836772
0.06333109101
0.0633515974
0.06336978201
0.06338569534
0.06339947586
0.06341127874
0.06342111938
0.06342824954
0.06317554039
0.06319651243
0.06322212732
0.06325004806
0.06327831205
0.06330550262
0.06333071739
0.06335346769
0.06337356769
0.06339103708
0.06340602332
0.06341874063
0.06342940932
0.0634381262
0.06344433973
0.06323055076
0.06328652174
0.06333954774
0.06338444725
0.06342006489
0.06344711934
0.06346699284
0.06348115131
0.06349090762
0.06349735011
0.06350134388
0.06350356087
0.06350452158
0.0635046523
0.06350439066
0.06349841505
0.06366461535
0.06375812438
0.06379822819
0.06380526648
0.06379375372
0.06377282123
0.06374787736
0.06372199714
0.06369685584
0.06367330984
0.06365175506
0.06363238542
0.06361555784
0.06360299029
0.0649567468
0.0651574649
0.06500915732
0.06478154781
0.06456333343
0.06437790835
0.06422664512
0.06410463669
0.06400609719
0.06392598094
0.06386028856
0.06380598121
0.0637608841
0.06372397303
0.06369746886
0.0700398118
0.06755980854
0.06618447322
0.06537834919
0.0648786177
0.06455153441
0.06432645136
0.06416455901
0.06404366286
0.06395054926
0.06387705695
0.06381808411
0.06377099021
0.06373767793
0.06515747302
0.06500914932
0.06478153938
0.06456332637
0.06437790259
0.06422664028
0.06410463261
0.06400609368
0.06392597788
0.06386028586
0.0638059788
0.06376088191
0.06372397102
0.06369746697
0.06366461594
0.06375812275
0.06379822527
0.06380526291
0.06379374992
0.06377281744
0.06374787366
0.06372199358
0.06369685243
0.06367330658
0.06365175195
0.06363238246
0.06361555499
0.06360298752
0.06328652218
0.06333954761
0.06338444639
0.06342006339
0.06344711733
0.06346699045
0.06348114864
0.06349090477
0.06349734714
0.06350134083
0.06350355777
0.06350451845
0.06350464915
0.0635043875
0.06319651266
0.06322212739
0.06325004781
0.06327831142
0.06330550158
0.06333071595
0.06335346589
0.06337356558
0.06339103469
0.0634060207
0.06341873782
0.06342940635
0.06343812309
0.0634443365
0.0631694028
0.06318596587
0.06320741184
0.06323200853
0.06325795852
0.0632837683
0.06330836804
0.06333109156
0.06335159819
0.063369783
0.06338569653
0.06339947721
0.06341128024
0.06342112101
0.06342825129
0.06320260388
0.06324325312
0.06328738828
0.0633293151
0.06336591732
0.0633961194
0.06342008012
0.06343855344
0.06345248689
0.06346280769
0.06347032844
0.06347571922
0.06347951086
0.06348209994
0.06348367956
0.06332803504
0.06344316547
0.06353737329
0.0636022635
0.06364053432
0.06365850878
0.06366253698
0.06365773148
0.0636477905
0.06363521863
0.06362163278
0.06360804074
0.06359508752
0.06358338367
0.06357443328
0.06375718525
0.06402285921
0.06414101149
0.06416041516
0.06412638743
0.06406855346
0.06400361368
0.06394002424
0.0638815502
0.06382948325
0.06378390584
0.0637443836
0.0637103904
0.06368185516
0.06366103433
0.06495674725
0.06515746192
0.06500914178
0.06478153431
0.06456332289
0.06437790006
0.0642266384
0.06410463113
0.0640060925
0.06392597692
0.06386028505
0.06380597811
0.06376088132
0.0637239705
0.0636974665
0.06375718797
0.06402285724
0.06414100829
0.06416041186
0.06412638432
0.06406855058
0.06400361101
0.0639400218
0.06388154795
0.06382948116
0.06378390389
0.06374438177
0.06371038868
0.06368185356
0.06366103278
0.063443171
0.06353737516
0.0636022632
0.06364053281
0.06365850658
0.06366253443
0.06365772877
0.06364778773
0.06363521587
0.06362163006
0.06360803808
0.06359508492
0.06358338112
0.06357443077
0.06324325462
0.06328738916
0.06332931517
0.06336591664
0.06339611811
0.06342007835
0.06343855131
0.0634524845
0.06346280512
0.06347032574
0.06347571642
0.063479508
0.06348209702
0.0634836766
0.06318596641
0.0632074123
0.06323200874
0.06325795835
0.06328376773
0.06330836706
0.0633310902
0.06335159647
0.06336978098
0.06338569424
0.0633994747
0.06341127753
0.06342111814
0.06342824828
0.06316120564
0.0631711637
0.06318499613
0.06320209324
0.06322148945
0.06324214373
0.06326312402
0.06328369418
0.0633033316
0.0633217054
0.06333863688
0.06335405085
0.06336790116
0.06337996377
0.06338899852
0.06317577417
0.06319728673
0.06322389396
0.06325278387
0.06328151767
0.0633084314
0.06333262286
0.06335376913
0.06337192006
0.06338732901
0.06340033522
0.06341128786
0.06342048685
0.06342806753
0.06343353136
0.06322026638
0.06327367674
0.06332962188
0.06338021928
0.06342167054
0.06345321607
0.06347578736
0.06349100179
0.0635005704
0.06350601438
0.06350856807
0.0635091794
0.06350855889
0.06350727121
0.0635059489
0.06332803468
0.06344316427
0.06353737141
0.06360226118
0.06364053181
0.06365850619
0.06366253444
0.06365772906
0.0636477882
0.06363521648
0.06362163074
0.06360803881
0.06359508568
0.06358338191
0.06357443158
0.06349841412
0.06366461028
0.06375811726
0.06379822062
0.06380525912
0.06379374683
0.06377281488
0.06374787151
0.06372199177
0.0636968509
0.06367330526
0.06365175079
0.06363238142
0.06361555405
0.06360298666
0.06332803423
0.06344316339
0.06353737026
0.06360225987
0.06364053041
0.06365850477
0.06366253301
0.06365772761
0.06364778677
0.06363521507
0.06362162936
0.06360803746
0.06359508437
0.06358338063
0.06357443032
0.06322026778
0.0632736779
0.06332962238
0.06338021907
0.06342166975
0.06345321485
0.06347578582
0.06349100004
0.06350056852
0.06350601241
0.06350856603
0.06350917732
0.06350855679
0.0635072691
0.06350594679
0.06319728795
0.06322389466
0.06325278404
0.06328151735
0.06330843063
0.06333262169
0.06335376766
0.06337191832
0.06338732707
0.0634003331
0.0634112856
0.06342048447
0.06342806506
0.06343352882
0.06317116418
0.06318499656
0.06320209348
0.06322148942
0.06324214339
0.06326312335
0.06328369319
0.0633033303
0.06332170382
0.06333863505
0.06335404878
0.06336789889
0.06337996132
0.06338899591
0.06315573652
0.06316104063
0.06316888688
0.06317932445
0.0631921087
0.06320679777
0.06322285809
0.06323974964
0.06325698176
0.06327414159
0.06329090068
0.06330699995
0.06332218788
0.06333597801
0.06334662006
0.06316134395
0.06317136332
0.06318509857
0.06320183024
0.06322055246
0.06324025863
0.06326010323
0.06327945847
0.06329790623
0.0633152004
0.06333122051
0.06334592272
0.06335926795
0.06337101711
0.06337989616
0.06317577408
0.06319728653
0.06322389362
0.06325278337
0.06328151703
0.06330843063
0.06333262199
0.06335376819
0.06337191905
0.06338732797
0.06340033415
0.06341128678
0.06342048575
0.06342806642
0.06343353025
0.0632026037
0.06324325254
0.06328738723
0.0633293136
0.06336591543
0.06339611722
0.06342007773
0.06343855091
0.06345248429
0.06346280505
0.0634703258
0.06347571658
0.06347950824
0.06348209733
0.06348367697
0.06323055034
0.06328652025
0.0633395453
0.06338444405
0.06342006114
0.06344711525
0.06346698854
0.0634811469
0.06349090319
0.0634973457
0.06350133951
0.06350355655
0.06350451733
0.06350464812
0.06350438652
0.0632026036
0.06324325237
0.06328738698
0.06332931325
0.06336591499
0.06339611668
0.06342007709
0.06343855019
0.0634524835
0.06346280422
0.06347032491
0.06347571566
0.06347950729
0.06348209637
0.06348367598
0.06317577424
0.06319728671
0.0632238937
0.06325278326
0.06328151671
0.06330843008
0.06333262123
0.06335376725
0.06337191795
0.06338732673
0.06340033279
0.06341128532
0.06342048421
0.06342806481
0.06343352859
0.06316134425
0.06317136366
0.06318509884
0.06320183035
0.06322055237
0.0632402583
0.06326010267
0.06327945767
0.06329790521
0.06331519918
0.06333121909
0.06334592114
0.06335926621
0.06337101523
0.06337989417
0.063161041
0.06316888719
0.06317932466
0.06319210876
0.06320679765
0.06322285775
0.06323974908
0.06325698096
0.06327414055
0.0632908994
0.06330699844
0.06332218616
0.06333597609
0.06334661797
0.06315328969
0.0631564504
0.06316135858
0.06316828162
0.06317730298
0.06318832418
0.0632011003
0.06321529034
0.06323050768
0.06324636162
0.06326248463
0.06327853744
0.06329415856
0.06330870655
0.06332013195
0.06315573651
0.0631610406
0.06316888682
0.06317932435
0.06319210855
0.06320679757
0.06322285783
0.06323974933
0.06325698139
0.06327414117
0.06329090021
0.06330699944
0.06332218734
0.06333597744
0.06334661945
0.0631612056
0.06317116359
0.06318499592
0.06320209289
0.06322148894
0.06324214306
0.06326312318
0.06328369319
0.06330333048
0.06332170417
0.06333863555
0.06335404943
0.06336789967
0.06337996222
0.0633889969
0.06316940277
0.06318596567
0.0632074114
0.06323200779
0.06325795745
0.06328376691
0.06330836635
0.06333108961
0.06335159601
0.06336978064
0.06338569401
0.06339947457
0.0634112775
0.06342111819
0.06342824839
0.06317554023
0.06319651192
0.06322212636
0.0632500466
0.06327831011
0.06330550022
0.06333071459
0.06335346455
0.06337356428
0.06339103345
0.06340601951
0.06341873669
0.06342940528
0.06343812208
0.06344433552
0.06316940275
0.06318596564
0.06320741136
0.06323200773
0.06325795734
0.06328376674
0.06330836611
0.06333108929
0.06335159562
0.06336978017
0.06338569347
0.06339947397
0.06341127684
0.06342111748
0.06342824765
0.06316120562
0.06317116362
0.06318499594
0.06320209286
0.06322148882
0.06324214282
0.06326312282
0.06328369269
0.06330332984
0.06332170339
0.06333863464
0.06335404841
0.06336789853
0.06337996098
0.06338899559
0.06315573656
0.06316104068
0.0631688869
0.06317932438
0.06319210849
0.06320679738
0.06322285749
0.06323974882
0.06325698071
0.06327414031
0.06329089917
0.06330699822
0.06332218595
0.0633359759
0.06334661779
0.06315328978
0.06315645053
0.06316135871
0.06316828173
0.06317730303
0.06318832413
0.06320110012
0.06321528998
0.06323050714
0.06324636089
0.06326248368
0.06327853629
0.0632941572
0.06330870499
0.06332013022
)
;

boundaryField
{
    top
    {
        type            zeroGradient;
    }
    bottom
    {
        type            zeroGradient;
    }
    side-walls
    {
        type            zeroGradient;
    }
    inlet
    {
        type            zeroGradient;
    }
    outlet
    {
        type            zeroGradient;
    }
    procBoundary1to0
    {
        type            processor;
        value           nonuniform List<scalar> 
97
(
0.0631532898
0.0631532898
0.06315573658
0.06316120559
0.0631694026
0.06317553991
0.06316940245
0.06316120541
0.06315573641
0.06315328963
0.06315259631
0.06316134431
0.06316134431
0.06316134431
0.0631757743
0.06320260345
0.06323054926
0.06320260283
0.06317577365
0.06316134374
0.06315573641
0.06315507689
0.06316147736
0.06322026821
0.06322026821
0.06322026821
0.06332803498
0.06349840944
0.0633280316
0.06322026502
0.06317577367
0.06316120543
0.06315870374
0.06317273827
0.06322170351
0.06375719975
0.06375719975
0.06375719975
0.06495672714
0.06375717845
0.0633280319
0.06320260302
0.06316940253
0.06316128732
0.06318333476
0.06327591224
0.06364110762
0.07476312107
0.07476312107
0.07476312107
0.06495673463
0.06495673463
0.0634984113
0.06323054962
0.06317554
0.06315870369
0.06317273815
0.06322170305
0.06336362345
0.06364110899
0.06336362307
0.06332803818
0.06332803818
0.06332803818
0.06320260394
0.06316940272
0.06315507685
0.06316147728
0.06318019123
0.06322170303
0.0632759123
0.06322170282
0.06318019133
0.06317577475
0.06317577475
0.06317577475
0.06316120571
0.06315259627
0.0631551257
0.06316147725
0.06317273813
0.06318333475
0.06317273809
0.06316147726
0.06315512574
0.06315573669
0.06315573669
0.06315573669
0.0631514714
0.06315259627
0.06315507685
0.06315870371
0.0631612873
0.0631587037
0.06315507685
0.06315259627
0.06315147142
)
;
    }
}


// ************************************************************************* //
