/*--------------------------------*- C++ -*----------------------------------*\
| =========                 |                                                 |
| \\      /  F ield         | OpenFOAM: The Open Source CFD Toolbox           |
|  \\    /   O peration     | Version:  4.x                                   |
|   \\  /    A nd           | Web:      www.OpenFOAM.org                      |
|    \\/     M anipulation  |                                                 |
\*---------------------------------------------------------------------------*/
FoamFile
{
    version     2.0;
    format      ascii;
    class       volScalarField;
    location    "2000";
    object      Cpv;
}
// * * * * * * * * * * * * * * * * * * * * * * * * * * * * * * * * * * * * * //

dimensions      [0 2 -2 -1 0 0 0];

internalField   nonuniform List<scalar> 
1174
(
1245.090736
1245.090753
1245.090785
1245.090824
1245.090875
1245.090961
1245.091046
1245.091116
1245.09118
1245.091264
1245.091344
1245.091422
1245.091495
1245.091586
1245.090921
1245.090943
1245.09098
1245.091068
1245.091148
1245.091226
1245.091309
1245.09139
1245.091463
1245.091539
1245.091603
1245.091678
1245.091744
1245.091846
1245.090518
1245.090616
1245.090726
1245.090824
1245.09091
1245.091009
1245.091085
1245.091183
1245.091277
1245.091363
1245.09143
1245.091488
1245.09157
1245.091619
1245.091057
1245.091144
1245.091281
1245.091399
1245.091512
1245.091618
1245.091736
1245.091828
1245.091908
1245.091991
1245.092089
1245.092151
1245.092232
1245.092268
1245.091081
1245.09121
1245.091349
1245.091503
1245.091627
1245.091746
1245.091875
1245.091977
1245.09208
1245.092164
1245.092221
1245.092277
1245.092314
1245.092368
1245.090864
1245.090959
1245.091082
1245.091198
1245.091302
1245.091448
1245.091547
1245.091632
1245.091714
1245.091791
1245.091856
1245.091939
1245.091985
1245.09203
1245.090684
1245.090758
1245.090822
1245.090896
1245.091001
1245.091079
1245.091164
1245.091262
1245.091365
1245.091424
1245.091493
1245.091554
1245.091631
1245.091679
1245.091075
1245.091104
1245.091149
1245.091222
1245.091262
1245.091329
1245.091419
1245.091546
1245.091615
1245.091698
1245.091794
1245.091902
1245.091979
1245.092028
1245.090862
1245.090902
1245.090933
1245.090965
1245.091029
1245.091112
1245.091186
1245.091249
1245.091329
1245.091404
1245.091496
1245.091578
1245.091658
1245.091693
1245.09109
1245.0911
1245.091118
1245.091182
1245.091265
1245.091327
1245.091404
1245.091503
1245.091565
1245.091659
1245.091756
1245.09184
1245.091919
1245.091985
1245.092027
1245.090983
1245.091043
1245.091129
1245.091178
1245.091287
1245.091366
1245.091453
1245.091512
1245.091595
1245.091665
1245.091764
1245.091847
1245.091932
1245.09197
1245.091123
1245.091249
1245.091371
1245.09151
1245.091644
1245.091742
1245.091862
1245.091959
1245.092035
1245.092094
1245.092164
1245.092229
1245.092268
1245.092274
1245.091306
1245.091499
1245.091702
1245.091904
1245.092053
1245.092155
1245.092246
1245.092317
1245.092394
1245.092442
1245.092465
1245.092476
1245.0925
1245.092512
1245.091597
1245.091859
1245.092066
1245.092236
1245.092372
1245.09247
1245.092511
1245.092552
1245.092589
1245.092602
1245.092632
1245.092633
1245.092626
1245.09263
1245.091172
1245.091357
1245.091554
1245.091726
1245.091901
1245.092022
1245.092134
1245.092216
1245.092282
1245.092339
1245.092381
1245.092411
1245.09244
1245.09244
1245.091468
1245.091588
1245.091735
1245.091885
1245.092023
1245.09215
1245.092271
1245.092377
1245.092468
1245.092554
1245.092631
1245.092681
1245.09274
1245.092764
1245.090673
1245.090696
1245.090779
1245.09088
1245.09099
1245.091078
1245.09116
1245.091229
1245.091282
1245.091386
1245.091447
1245.091525
1245.09161
1245.09165
1245.09104
1245.091082
1245.091146
1245.091206
1245.091269
1245.09133
1245.091418
1245.091496
1245.09158
1245.09164
1245.09172
1245.091813
1245.09188
1245.091932
1245.09124
1245.091266
1245.091337
1245.091437
1245.091513
1245.091606
1245.091723
1245.091839
1245.091929
1245.092
1245.092095
1245.092191
1245.092267
1245.09235
1245.092429
1245.090803
1245.090916
1245.091043
1245.091195
1245.091331
1245.091444
1245.091557
1245.09166
1245.09174
1245.091823
1245.091911
1245.092013
1245.092051
1245.092058
1245.09208
1245.091461
1245.091731
1245.091954
1245.092149
1245.092321
1245.092448
1245.092533
1245.092621
1245.092663
1245.092676
1245.092692
1245.092683
1245.092688
1245.092705
1245.092162
1245.092588
1245.092932
1245.093117
1245.093201
1245.093251
1245.093273
1245.093252
1245.093184
1245.093092
1245.093082
1245.093033
1245.092983
1245.092979
1245.093135
1245.093579
1245.093758
1245.093792
1245.093748
1245.09364
1245.093551
1245.093464
1245.093369
1245.093256
1245.09315
1245.093081
1245.092992
1245.092921
1245.091983
1245.092428
1245.092754
1245.092944
1245.093007
1245.093046
1245.093033
1245.093
1245.092944
1245.092901
1245.092857
1245.092781
1245.092737
1245.092688
1245.091722
1245.09198
1245.092219
1245.092432
1245.092607
1245.092723
1245.092782
1245.092825
1245.092882
1245.092896
1245.092888
1245.092872
1245.092866
1245.092887
1245.091104
1245.091245
1245.09136
1245.091505
1245.091637
1245.091773
1245.091857
1245.091938
1245.09203
1245.092106
1245.092173
1245.092236
1245.092265
1245.092299
1245.09047
1245.090553
1245.090641
1245.090767
1245.09089
1245.090982
1245.09107
1245.091176
1245.091258
1245.091328
1245.091391
1245.091473
1245.09154
1245.091578
1245.090855
1245.090914
1245.09104
1245.091137
1245.091279
1245.091386
1245.091505
1245.09163
1245.091711
1245.091795
1245.091884
1245.091969
1245.092016
1245.092059
1245.092098
1245.090978
1245.09118
1245.091347
1245.091531
1245.091709
1245.09184
1245.091973
1245.092083
1245.09215
1245.092235
1245.092278
1245.092298
1245.092328
1245.09235
1245.092354
1245.091633
1245.092196
1245.092642
1245.092985
1245.093184
1245.093265
1245.093323
1245.093305
1245.093254
1245.093209
1245.093166
1245.093113
1245.093051
1245.093005
1245.092973
1245.094727
1245.095282
1245.095389
1245.095238
1245.094979
1245.094698
1245.094422
1245.094159
1245.09394
1245.093723
1245.09352
1245.093357
1245.093208
1245.093131
1245.097198
1245.096535
1245.095495
1245.094517
1245.093706
1245.093038
1245.092475
1245.092029
1245.091654
1245.091355
1245.0911
1245.090885
1245.090723
1245.0906
1245.094714
1245.095305
1245.095424
1245.095276
1245.095021
1245.094742
1245.094454
1245.09419
1245.093972
1245.093742
1245.093571
1245.093429
1245.093298
1245.093221
1245.091866
1245.092314
1245.092642
1245.092803
1245.092897
1245.092906
1245.092897
1245.092858
1245.092815
1245.092785
1245.092731
1245.092682
1245.092653
1245.092641
1245.09168
1245.091902
1245.092108
1245.092296
1245.092441
1245.09258
1245.09269
1245.092766
1245.092824
1245.092833
1245.092846
1245.092843
1245.092876
1245.092866
1245.091126
1245.091233
1245.091355
1245.09145
1245.091567
1245.091684
1245.091799
1245.091914
1245.092
1245.092085
1245.092153
1245.092215
1245.092297
1245.092327
1245.090871
1245.090957
1245.091079
1245.091214
1245.091357
1245.091487
1245.091602
1245.091702
1245.091807
1245.091878
1245.091962
1245.092026
1245.092065
1245.092125
1245.092184
1245.091178
1245.09145
1245.091705
1245.091938
1245.092131
1245.092278
1245.092384
1245.092446
1245.092519
1245.092556
1245.092563
1245.09255
1245.092567
1245.092585
1245.092579
1245.09254
1245.093308
1245.093742
1245.093953
1245.093996
1245.093949
1245.093855
1245.093718
1245.093622
1245.093504
1245.093405
1245.093336
1245.093261
1245.093215
1245.093152
1245.09644
1245.097382
1245.096738
1245.095711
1245.094726
1245.09388
1245.09321
1245.092675
1245.092247
1245.091869
1245.091569
1245.091346
1245.091106
1245.090915
1245.09079
1243.385798
1243.374369
1243.367153
1243.36214
1243.358268
1243.355045
1243.352173
1243.349564
1243.347058
1243.344656
1243.342308
1243.340022
1243.337806
1243.335629
1245.098171
1245.097488
1245.096445
1245.095453
1245.094601
1245.093947
1245.093373
1245.092878
1245.092522
1245.092214
1245.091978
1245.091772
1245.091602
1245.091466
1245.09316
1245.093606
1245.093789
1245.093803
1245.093714
1245.093615
1245.093518
1245.093398
1245.09329
1245.09316
1245.093085
1245.092987
1245.092932
1245.092894
1245.091195
1245.091455
1245.091668
1245.091842
1245.091992
1245.092129
1245.092206
1245.09226
1245.092301
1245.092318
1245.092349
1245.092375
1245.09241
1245.092423
1245.090632
1245.090756
1245.090916
1245.091049
1245.091169
1245.091289
1245.091381
1245.091471
1245.091536
1245.09163
1245.091682
1245.091742
1245.091799
1245.09185
1245.090407
1245.090499
1245.090613
1245.090725
1245.090871
1245.090983
1245.091105
1245.091222
1245.091342
1245.091439
1245.091506
1245.091586
1245.091657
1245.091703
1245.091753
1245.090973
1245.091177
1245.091353
1245.091555
1245.091708
1245.091847
1245.091971
1245.092049
1245.09213
1245.092194
1245.092244
1245.092297
1245.092328
1245.09236
1245.09238
1245.091984
1245.092551
1245.092977
1245.09331
1245.093482
1245.093573
1245.093591
1245.09356
1245.093519
1245.093439
1245.093423
1245.093364
1245.093319
1245.093256
1245.093218
1245.093225
1245.094464
1245.09502
1245.095125
1245.094974
1245.094734
1245.094448
1245.09417
1245.093904
1245.093675
1245.093491
1245.093308
1245.093161
1245.093066
1245.092987
1245.097083
1245.097997
1245.097342
1245.096349
1245.095356
1245.094533
1245.093831
1245.093282
1245.092852
1245.09246
1245.092158
1245.091911
1245.09169
1245.091512
1245.091409
1245.093101
1245.094328
1245.094889
1245.095005
1245.094877
1245.094628
1245.09437
1245.094059
1245.093823
1245.093589
1245.093364
1245.093195
1245.093046
1245.092915
1245.0928
1245.091953
1245.0924
1245.092707
1245.092916
1245.093
1245.093037
1245.092984
1245.092957
1245.092915
1245.092864
1245.092792
1245.092744
1245.092701
1245.092653
1245.090606
1245.090814
1245.091009
1245.091179
1245.091332
1245.09142
1245.091502
1245.091571
1245.091668
1245.09171
1245.091737
1245.091771
1245.091775
1245.091783
1245.090894
1245.09098
1245.091112
1245.09124
1245.09139
1245.091541
1245.091638
1245.091757
1245.091842
1245.091915
1245.091977
1245.092035
1245.092097
1245.092111
1245.091007
1245.091082
1245.091122
1245.09121
1245.091306
1245.091397
1245.091483
1245.091552
1245.091648
1245.091736
1245.091827
1245.091886
1245.091952
1245.092021
1245.092071
1245.091502
1245.09161
1245.091741
1245.091892
1245.09205
1245.092165
1245.092271
1245.092369
1245.092449
1245.092546
1245.0926
1245.092676
1245.09272
1245.092779
1245.092801
1245.091914
1245.092158
1245.092389
1245.092645
1245.092822
1245.09297
1245.093095
1245.093135
1245.093224
1245.093244
1245.093259
1245.093279
1245.093272
1245.093288
1245.093295
1245.091754
1245.092288
1245.092752
1245.093047
1245.093225
1245.093335
1245.093341
1245.093312
1245.093306
1245.093243
1245.093215
1245.093161
1245.093104
1245.093039
1245.092989
1245.092207
1245.092968
1245.09341
1245.093617
1245.09369
1245.093631
1245.093566
1245.093447
1245.093331
1245.093235
1245.093131
1245.093067
1245.092998
1245.092928
1245.092907
1245.091527
1245.092032
1245.09247
1245.092793
1245.092975
1245.093074
1245.093071
1245.093064
1245.093038
1245.092987
1245.092928
1245.092895
1245.092853
1245.09279
1245.092757
1245.091378
1245.091646
1245.091886
1245.092123
1245.092337
1245.092477
1245.092626
1245.092706
1245.092736
1245.092774
1245.092812
1245.092845
1245.092847
1245.092835
1245.092812
1245.090654
1245.090796
1245.090916
1245.091065
1245.091183
1245.091299
1245.091412
1245.0915
1245.091573
1245.091642
1245.091683
1245.091731
1245.091769
1245.091809
1245.090726
1245.090803
1245.090886
1245.090973
1245.091058
1245.091164
1245.091259
1245.09133
1245.091404
1245.091506
1245.091603
1245.091693
1245.091755
1245.091819
1245.091017
1245.091061
1245.091089
1245.09113
1245.091209
1245.091264
1245.091352
1245.091452
1245.091519
1245.091595
1245.091668
1245.091765
1245.091839
1245.091904
1245.091961
1245.090992
1245.091054
1245.091117
1245.091195
1245.091255
1245.091325
1245.091438
1245.091529
1245.091608
1245.091715
1245.091809
1245.091879
1245.091936
1245.09201
1245.092088
1245.090826
1245.090923
1245.091084
1245.091195
1245.091318
1245.091452
1245.091583
1245.091693
1245.091781
1245.09186
1245.091931
1245.091997
1245.092064
1245.092112
1245.092159
1245.090898
1245.091098
1245.091309
1245.091512
1245.091669
1245.09183
1245.091946
1245.092051
1245.092126
1245.092195
1245.092236
1245.092275
1245.092309
1245.09234
1245.092363
1245.091307
1245.091575
1245.091811
1245.092017
1245.092181
1245.092331
1245.092435
1245.092511
1245.092546
1245.09258
1245.092612
1245.092641
1245.09266
1245.092668
1245.092689
1245.091315
1245.091483
1245.091669
1245.091874
1245.092036
1245.092175
1245.092286
1245.092374
1245.092434
1245.092506
1245.092543
1245.092564
1245.092585
1245.092636
1245.092642
1245.090749
1245.090841
1245.090949
1245.091081
1245.091234
1245.091369
1245.0915
1245.091594
1245.091679
1245.091773
1245.091816
1245.091876
1245.091926
1245.091975
1245.091974
1245.090968
1245.091023
1245.091064
1245.091158
1245.091261
1245.091364
1245.091458
1245.091566
1245.091649
1245.091729
1245.09182
1245.0919
1245.091939
1245.092024
1245.092097
1245.090928
1245.090988
1245.091031
1245.091084
1245.091143
1245.091233
1245.091297
1245.091388
1245.091481
1245.091565
1245.091645
1245.091728
1245.091792
1245.091846
1245.090789
1245.090812
1245.090848
1245.09088
1245.090917
1245.090957
1245.091017
1245.09109
1245.091174
1245.091238
1245.091327
1245.09141
1245.091456
1245.091536
1245.091607
1245.090752
1245.090781
1245.090821
1245.090907
1245.090941
1245.091002
1245.091091
1245.091165
1245.09125
1245.09134
1245.091396
1245.091517
1245.091614
1245.091704
1245.091774
1245.090781
1245.090837
1245.090886
1245.090972
1245.091101
1245.091186
1245.091286
1245.091395
1245.091518
1245.091625
1245.0917
1245.091768
1245.091846
1245.091932
1245.091984
1245.091059
1245.09114
1245.091241
1245.091352
1245.091474
1245.091575
1245.0917
1245.0918
1245.091906
1245.092002
1245.092094
1245.092164
1245.092248
1245.092301
1245.092335
1245.090618
1245.090718
1245.090833
1245.090972
1245.091124
1245.091235
1245.09135
1245.091453
1245.091552
1245.091635
1245.091709
1245.091781
1245.091842
1245.091889
1245.091928
1245.091356
1245.091426
1245.091533
1245.091668
1245.091772
1245.091901
1245.092021
1245.092119
1245.092209
1245.092296
1245.092374
1245.092436
1245.092518
1245.092547
1245.092601
1245.090874
1245.090915
1245.090998
1245.091095
1245.091192
1245.091281
1245.091367
1245.091474
1245.091579
1245.091661
1245.09175
1245.091826
1245.091898
1245.091959
1245.092017
1245.090316
1245.09033
1245.090362
1245.090415
1245.090476
1245.090531
1245.090597
1245.090664
1245.090729
1245.090825
1245.090919
1245.091008
1245.091095
1245.091138
1245.091211
1245.090828
1245.090847
1245.09087
1245.090907
1245.090969
1245.09104
1245.091099
1245.091176
1245.091259
1245.091337
1245.091411
1245.091498
1245.091588
1245.091668
1245.091721
)
;

boundaryField
{
    top
    {
        type            calculated;
        value           nonuniform List<scalar> 
127
(
1245.090828
1245.090862
1245.09104
1245.09047
1245.091126
1245.090632
1245.090894
1245.090726
1245.090928
1245.090847
1245.090902
1245.091082
1245.090553
1245.091233
1245.090756
1245.09098
1245.090803
1245.090988
1245.09087
1245.090933
1245.091146
1245.090641
1245.091355
1245.090916
1245.091112
1245.090886
1245.091031
1245.090907
1245.090965
1245.091206
1245.090767
1245.09145
1245.091049
1245.09124
1245.090973
1245.091084
1245.090969
1245.091029
1245.091269
1245.09089
1245.091567
1245.091169
1245.09139
1245.091058
1245.091143
1245.09104
1245.091112
1245.09133
1245.090982
1245.091684
1245.091289
1245.091541
1245.091164
1245.091233
1245.091099
1245.091186
1245.091418
1245.09107
1245.091799
1245.091381
1245.091638
1245.091259
1245.091297
1245.091176
1245.091249
1245.091496
1245.091176
1245.091914
1245.091471
1245.091757
1245.09133
1245.091388
1245.091259
1245.091329
1245.09158
1245.091258
1245.092
1245.091536
1245.091842
1245.091404
1245.091481
1245.091337
1245.091404
1245.09164
1245.091328
1245.092085
1245.09163
1245.091915
1245.091506
1245.091565
1245.091411
1245.091496
1245.09172
1245.091391
1245.092153
1245.091682
1245.091977
1245.091603
1245.091645
1245.091498
1245.091578
1245.091813
1245.091473
1245.092215
1245.091742
1245.092035
1245.091693
1245.091728
1245.091588
1245.091658
1245.09188
1245.09154
1245.092297
1245.091799
1245.092097
1245.091755
1245.091792
1245.091668
1245.091693
1245.091932
1245.091578
1245.092327
1245.09185
1245.092111
1245.091819
1245.091846
1245.091721
)
;
    }
    bottom
    {
        type            calculated;
        value           nonuniform List<scalar> 
134
(
1245.09109
1245.09124
1245.090855
1245.090871
1245.090407
1245.091007
1245.091017
1245.090789
1245.090736
1245.0911
1245.091266
1245.090914
1245.090957
1245.090499
1245.091082
1245.091061
1245.090812
1245.090753
1245.091118
1245.091337
1245.09104
1245.091079
1245.090613
1245.091122
1245.091089
1245.090848
1245.090785
1245.091182
1245.091437
1245.091137
1245.091214
1245.090725
1245.09121
1245.09113
1245.09088
1245.090824
1245.091265
1245.091513
1245.091279
1245.091357
1245.090871
1245.091306
1245.091209
1245.090917
1245.090875
1245.091327
1245.091606
1245.091386
1245.091487
1245.090983
1245.091397
1245.091264
1245.090957
1245.090961
1245.091404
1245.091723
1245.091505
1245.091602
1245.091105
1245.091483
1245.091352
1245.091017
1245.091046
1245.091503
1245.091839
1245.09163
1245.091702
1245.091222
1245.091552
1245.091452
1245.09109
1245.091116
1245.091565
1245.091929
1245.091711
1245.091807
1245.091342
1245.091648
1245.091519
1245.091174
1245.09118
1245.091659
1245.092
1245.091795
1245.091878
1245.091439
1245.091736
1245.091595
1245.091238
1245.091264
1245.091756
1245.092095
1245.091884
1245.091962
1245.091506
1245.091827
1245.091668
1245.091327
1245.091344
1245.09184
1245.092191
1245.091969
1245.092026
1245.091586
1245.091886
1245.091765
1245.09141
1245.091422
1245.091919
1245.092267
1245.092016
1245.092065
1245.091657
1245.091952
1245.091839
1245.091456
1245.091495
1245.091985
1245.09235
1245.092059
1245.092125
1245.091703
1245.092021
1245.091904
1245.091536
1245.091586
1245.092027
1245.092429
1245.092098
1245.092184
1245.091753
1245.092071
1245.091961
1245.091607
)
;
    }
    side-walls
    {
        type            calculated;
        value           nonuniform List<scalar> 
261
(
1245.090736
1245.090921
1245.090518
1245.091057
1245.091081
1245.090864
1245.090684
1245.091075
1245.090862
1245.090753
1245.090943
1245.090616
1245.091144
1245.09121
1245.090959
1245.090758
1245.091104
1245.090902
1245.090785
1245.09098
1245.090726
1245.091281
1245.091349
1245.091082
1245.090822
1245.091149
1245.090933
1245.090824
1245.091068
1245.090824
1245.091399
1245.091503
1245.091198
1245.090896
1245.091222
1245.090965
1245.090875
1245.091148
1245.09091
1245.091512
1245.091627
1245.091302
1245.091001
1245.091262
1245.091029
1245.090961
1245.091226
1245.091009
1245.091618
1245.091746
1245.091448
1245.091079
1245.091329
1245.091112
1245.091046
1245.091309
1245.091085
1245.091736
1245.091875
1245.091547
1245.091164
1245.091419
1245.091186
1245.091116
1245.09139
1245.091183
1245.091828
1245.091977
1245.091632
1245.091262
1245.091546
1245.091249
1245.09118
1245.091463
1245.091277
1245.091908
1245.09208
1245.091714
1245.091365
1245.091615
1245.091329
1245.091264
1245.091539
1245.091363
1245.091991
1245.092164
1245.091791
1245.091424
1245.091698
1245.091404
1245.091344
1245.091603
1245.09143
1245.092089
1245.092221
1245.091856
1245.091493
1245.091794
1245.091496
1245.091422
1245.091678
1245.091488
1245.092151
1245.092277
1245.091939
1245.091554
1245.091902
1245.091578
1245.091495
1245.091744
1245.09157
1245.092232
1245.092314
1245.091985
1245.091631
1245.091979
1245.091658
1245.091586
1245.091846
1245.091619
1245.092268
1245.092368
1245.09203
1245.091679
1245.092028
1245.091693
1245.090789
1245.090752
1245.090781
1245.091059
1245.090618
1245.091356
1245.090874
1245.090316
1245.090828
1245.090812
1245.090781
1245.090837
1245.09114
1245.090718
1245.091426
1245.090915
1245.09033
1245.090847
1245.090848
1245.090821
1245.090886
1245.091241
1245.090833
1245.091533
1245.090998
1245.090362
1245.09087
1245.09088
1245.090907
1245.090972
1245.091352
1245.090972
1245.091668
1245.091095
1245.090415
1245.090907
1245.090917
1245.090941
1245.091101
1245.091474
1245.091124
1245.091772
1245.091192
1245.090476
1245.090969
1245.090957
1245.091002
1245.091186
1245.091575
1245.091235
1245.091901
1245.091281
1245.090531
1245.09104
1245.091017
1245.091091
1245.091286
1245.0917
1245.09135
1245.092021
1245.091367
1245.090597
1245.091099
1245.09109
1245.091165
1245.091395
1245.0918
1245.091453
1245.092119
1245.091474
1245.090664
1245.091176
1245.091174
1245.09125
1245.091518
1245.091906
1245.091552
1245.092209
1245.091579
1245.090729
1245.091259
1245.091238
1245.09134
1245.091625
1245.092002
1245.091635
1245.092296
1245.091661
1245.090825
1245.091337
1245.091327
1245.091396
1245.0917
1245.092094
1245.091709
1245.092374
1245.09175
1245.090919
1245.091411
1245.09141
1245.091517
1245.091768
1245.092164
1245.091781
1245.092436
1245.091826
1245.091008
1245.091498
1245.091456
1245.091614
1245.091846
1245.092248
1245.091842
1245.092518
1245.091898
1245.091095
1245.091588
1245.091536
1245.091704
1245.091932
1245.092301
1245.091889
1245.092547
1245.091959
1245.091138
1245.091668
1245.091607
1245.091774
1245.091984
1245.092335
1245.091928
1245.092601
1245.092017
1245.091211
1245.091721
)
;
    }
    inlet
    {
        type            calculated;
        value           nonuniform 0();
    }
    outlet
    {
        type            calculated;
        value           nonuniform List<scalar> 
81
(
1245.091586
1245.091846
1245.091619
1245.092268
1245.092368
1245.09203
1245.091679
1245.092028
1245.091693
1245.092027
1245.09197
1245.092274
1245.092512
1245.09263
1245.09244
1245.092764
1245.09165
1245.091932
1245.092429
1245.09208
1245.092705
1245.092979
1245.092921
1245.092688
1245.092887
1245.092299
1245.091578
1245.092098
1245.092354
1245.092973
1245.093131
1245.0906
1245.093221
1245.092641
1245.092866
1245.092327
1245.092184
1245.092579
1245.093152
1245.09079
1243.335629
1245.091466
1245.092894
1245.092423
1245.09185
1245.091753
1245.09238
1245.093218
1245.092987
1245.091409
1245.0928
1245.092653
1245.091783
1245.092111
1245.092071
1245.092801
1245.093295
1245.092989
1245.092907
1245.092757
1245.092812
1245.091809
1245.091819
1245.091961
1245.092088
1245.092159
1245.092363
1245.092689
1245.092642
1245.091974
1245.092097
1245.091846
1245.091607
1245.091774
1245.091984
1245.092335
1245.091928
1245.092601
1245.092017
1245.091211
1245.091721
)
;
    }
    procBoundary1to0
    {
        type            processor;
        value           nonuniform List<scalar> 
97
(
1245.090711
1245.090711
1245.090888
1245.090499
1245.091005
1245.09098
1245.090775
1245.090656
1245.091058
1245.090836
1245.091053
1245.090925
1245.090925
1245.090925
1245.091042
1245.091128
1245.091358
1245.090984
1245.091357
1245.090614
1245.091017
1245.091237
1245.090704
1245.091214
1245.091214
1245.091214
1245.091613
1245.092406
1245.091437
1245.091467
1245.090994
1245.090423
1245.090791
1245.090837
1245.091144
1245.093453
1245.093453
1245.093453
1245.096273
1245.093469
1245.091351
1245.091475
1245.091049
1245.090818
1245.090926
1245.091537
1245.092895
1243.403793
1243.403793
1243.403793
1245.097218
1245.097218
1245.092351
1245.09093
1245.090541
1245.09034
1245.090853
1245.091487
1245.091398
1245.093544
1245.091291
1245.091402
1245.091402
1245.091402
1245.090414
1245.090792
1245.090984
1245.091413
1245.091727
1245.091257
1245.091197
1245.09101
1245.091192
1245.090549
1245.090549
1245.090549
1245.090675
1245.091014
1245.090947
1245.090756
1245.090746
1245.091092
1245.09118
1245.090702
1245.090928
1245.090906
1245.090906
1245.090906
1245.090776
1245.090729
1245.090775
1245.091021
1245.090556
1245.091322
1245.090831
1245.090301
1245.090826
)
;
    }
}


// ************************************************************************* //
