/*--------------------------------*- C++ -*----------------------------------*\
| =========                 |                                                 |
| \\      /  F ield         | OpenFOAM: The Open Source CFD Toolbox           |
|  \\    /   O peration     | Version:  4.x                                   |
|   \\  /    A nd           | Web:      www.OpenFOAM.org                      |
|    \\/     M anipulation  |                                                 |
\*---------------------------------------------------------------------------*/
FoamFile
{
    version     2.0;
    format      ascii;
    class       volScalarField;
    location    "2000";
    object      H2;
}
// * * * * * * * * * * * * * * * * * * * * * * * * * * * * * * * * * * * * * //

dimensions      [0 0 0 0 0 0 0];

internalField   nonuniform List<scalar> 
1174
(
0.002172394319
0.002172305757
0.00217218087
0.002172018181
0.002171819496
0.002171589268
0.002171333675
0.002171059714
0.002170774448
0.002170484514
0.002170196028
0.00216991549
0.002169654395
0.002169449446
0.002172311389
0.002172169759
0.00217198141
0.002171750798
0.002171485938
0.00217119649
0.002170892226
0.002170582012
0.002170273303
0.002169972022
0.002169682831
0.002169410236
0.002169162929
0.002168972201
0.002172128454
0.002171878678
0.002171570061
0.002171220093
0.002170847615
0.00217046948
0.002170098984
0.002169745559
0.002169415162
0.002169110998
0.002168834396
0.002168586147
0.002168370198
0.00216820861
0.002171860873
0.00217147352
0.002171029447
0.002170561183
0.002170095731
0.002169652418
0.002169243257
0.002168874372
0.002168547626
0.002168262069
0.002168015166
0.002167804066
0.002167628385
0.002167501292
0.002171670154
0.002171207458
0.002170703357
0.002170193355
0.002169703054
0.002169248741
0.002168839213
0.002168477788
0.002168164071
0.00216789536
0.002167667747
0.002167477205
0.002167321879
0.002167211383
0.002171860876
0.002171473525
0.002171029453
0.00217056119
0.002170095739
0.002169652427
0.002169243266
0.002168874383
0.002168547637
0.002168262081
0.002168015178
0.002167804078
0.002167628397
0.002167501304
0.002172128458
0.002171878683
0.002171570067
0.002171220101
0.002170847624
0.00217046949
0.002170098996
0.002169745572
0.002169415176
0.002169111013
0.002168834413
0.002168586165
0.002168370217
0.00216820863
0.002172311393
0.002172169763
0.002171981416
0.002171750805
0.002171485945
0.0021711965
0.002170892237
0.002170582025
0.002170273318
0.002169972039
0.002169682849
0.002169410256
0.002169162951
0.002168972225
0.002172394322
0.00217230576
0.002172180874
0.002172018185
0.002171819502
0.002171589275
0.002171333684
0.002171059725
0.002170774461
0.00217048453
0.002170196046
0.002169915511
0.002169654418
0.002169449471
0.002172407153
0.00217231139
0.00217216976
0.002171981411
0.002171750799
0.002171485938
0.002171196491
0.002170892226
0.002170582012
0.002170273303
0.002169972022
0.002169682831
0.002169410236
0.00216916293
0.002168972201
0.002172124817
0.002171876786
0.002171574755
0.002171236945
0.002170881571
0.002170523921
0.002170175335
0.002169843355
0.00216953241
0.002169244655
0.002168980856
0.002168741678
0.002168531343
0.002168372531
0.002171656151
0.002171175499
0.002170653853
0.002170135326
0.002169649992
0.002169214128
0.002168833534
0.002168507266
0.002168230708
0.002167997694
0.002167801881
0.002167637809
0.002167502933
0.00216740592
0.002170824837
0.002170027365
0.002169270256
0.002168609826
0.002168065448
0.002167634171
0.002167302289
0.002167052608
0.002166868319
0.002166734698
0.002166639603
0.002166573403
0.002166528839
0.002166502083
0.002170042021
0.002169083873
0.002168273221
0.002167630849
0.002167143637
0.002166786487
0.002166532809
0.002166358803
0.002166244752
0.002166174984
0.002166137329
0.002166122349
0.002166122251
0.002166128792
0.002170824847
0.002170027379
0.002169270271
0.002168609841
0.002168065464
0.002167634188
0.002167302305
0.002167052624
0.002166868336
0.002166734714
0.002166639619
0.002166573419
0.002166528855
0.002166502099
0.002171656162
0.002171175512
0.002170653867
0.002170135341
0.002169650008
0.002169214146
0.002168833553
0.002168507287
0.002168230729
0.002167997716
0.002167801904
0.002167637833
0.002167502958
0.002167405945
0.002172124826
0.002171876794
0.002171574765
0.002171236956
0.002170881584
0.002170523936
0.002170175352
0.002169843374
0.002169532431
0.002169244678
0.00216898088
0.002168741705
0.002168531371
0.002168372561
0.002172311393
0.002172169764
0.002171981416
0.002171750806
0.002171485947
0.002171196502
0.00217089224
0.002170582029
0.002170273323
0.002169972044
0.002169682855
0.002169410263
0.002169162959
0.002168972233
0.002172308317
0.002172128455
0.00217187868
0.002171570063
0.002171220095
0.002170847617
0.002170469482
0.002170098987
0.002169745561
0.002169415164
0.002169111
0.002168834398
0.00216858615
0.0021683702
0.002168208613
0.002172044903
0.002171656153
0.002171175502
0.002170653857
0.00217013533
0.002169649996
0.002169214132
0.002168833538
0.00216850727
0.002168230711
0.002167997697
0.002167801885
0.002167637813
0.002167502936
0.002167405923
0.002170274574
0.002169263628
0.002168349893
0.002167601992
0.00216703355
0.002166627611
0.002166354835
0.002166184215
0.002166088197
0.002166044437
0.002166035774
0.002166049337
0.002166074837
0.002166100515
0.002167208187
0.002165505641
0.002164334215
0.002163644765
0.002163322645
0.002163252809
0.002163342675
0.002163525304
0.00216375538
0.002164003661
0.002164251932
0.002164488527
0.002164702352
0.002164865919
0.002163200312
0.002161511176
0.002160789061
0.00216066539
0.002160877262
0.002161259339
0.002161713736
0.002162184827
0.002162642333
0.002163070794
0.002163463079
0.002163815696
0.002164122147
0.002164351094
0.002167208232
0.002165505686
0.002164334255
0.002163644803
0.00216332268
0.002163252841
0.002163342705
0.002163525332
0.002163755406
0.002164003686
0.002164251955
0.002164488549
0.002164702373
0.00216486594
0.002170274615
0.002169263662
0.002168349926
0.002167602025
0.002167033585
0.002166627646
0.002166354871
0.00216618425
0.002166088233
0.002166044472
0.002166035809
0.002166049372
0.002166074871
0.002166100549
0.002171656163
0.002171175514
0.00217065387
0.002170135346
0.002169650015
0.002169214154
0.002168833563
0.002168507298
0.002168230741
0.002167997729
0.002167801918
0.002167637848
0.002167502973
0.00216740596
0.002172128458
0.002171878684
0.002171570069
0.002171220105
0.00217084763
0.002170469498
0.002170099007
0.002169745585
0.002169415191
0.00216911103
0.002168834431
0.002168586185
0.002168370238
0.002168208652
0.002172160128
0.002171860876
0.002171473525
0.002171029454
0.00217056119
0.002170095739
0.002169652426
0.002169243265
0.002168874381
0.002168547635
0.002168262078
0.002168015175
0.002167804074
0.002167628393
0.002167501299
0.002171559645
0.002170824841
0.002170027374
0.002169270266
0.002168609836
0.002168065458
0.002167634181
0.002167302298
0.002167052617
0.002166868328
0.002166734706
0.002166639611
0.00216657341
0.002166528846
0.002166502089
0.002169290187
0.002167208191
0.002165505651
0.002164334225
0.002163644775
0.002163322655
0.002163252818
0.002163342684
0.002163525312
0.002163755386
0.002164003667
0.002164251937
0.002164488532
0.002164702356
0.002164865924
0.002156716979
0.002154583282
0.002154237181
0.00215485779
0.002155908683
0.002157087583
0.002158241523
0.002159302461
0.002160247119
0.002161074088
0.002161791292
0.002162408294
0.002162926362
0.002163304461
0.002136176554
0.00213886989
0.002142997246
0.002146952872
0.00215031362
0.002153055017
0.002155266183
0.002157052065
0.002158504149
0.002159694933
0.002160679496
0.002161497244
0.002162166705
0.002162647513
0.002156717147
0.002154583393
0.002154237266
0.002154857861
0.002155908744
0.002157087637
0.002158241569
0.002159302503
0.002160247157
0.002161074122
0.002161791324
0.002162408323
0.00216292639
0.002163304488
0.002167208231
0.002165505697
0.002164334276
0.002163644829
0.002163322709
0.002163252871
0.002163342736
0.002163525362
0.002163755435
0.002164003714
0.002164251982
0.002164488576
0.002164702399
0.002164865965
0.002170824846
0.002170027383
0.002169270282
0.002168609857
0.002168065485
0.002167634213
0.002167302334
0.002167052656
0.002166868369
0.002166734749
0.002166639655
0.002166573455
0.002166528891
0.002166502136
0.002171860875
0.002171473526
0.002171029458
0.002170561199
0.002170095753
0.002169652445
0.002169243289
0.002168874409
0.002168547667
0.002168262114
0.002168015214
0.002167804116
0.002167628437
0.002167501346
0.00217204913
0.002171670159
0.002171207467
0.002170703367
0.002170193366
0.002169703066
0.002169248754
0.002168839226
0.002168477801
0.002168164084
0.002167895373
0.00216766776
0.002167477217
0.002167321891
0.002167211394
0.002171053973
0.002170042029
0.002169083889
0.002168273238
0.002167630866
0.002167143654
0.002166786503
0.002166532824
0.002166358818
0.002166244766
0.002166174997
0.002166137342
0.002166122361
0.002166122263
0.002166128803
0.002166206161
0.002163200314
0.002161511208
0.002160789094
0.00216066542
0.002160877289
0.002161259363
0.002161713757
0.002162184846
0.002162642349
0.002163070809
0.002163463093
0.002163815709
0.002164122158
0.002164351104
0.002139802521
0.002136176653
0.002138869967
0.002142997304
0.002146952916
0.002150313655
0.002153055044
0.002155266205
0.002157052083
0.002158504164
0.002159694946
0.002160679507
0.002161497253
0.002162166714
0.00216264752
0.002047768664
0.00209269281
0.002117604453
0.002132205023
0.002141255848
0.002147179692
0.002151256244
0.002154188437
0.002156378251
0.002158064996
0.002159396476
0.002160465079
0.002161318593
0.002161922435
0.002136176516
0.002138870061
0.002142997416
0.002146953016
0.00215031374
0.002153055117
0.002155266267
0.002157052138
0.002158504212
0.002159694989
0.002160679545
0.002161497288
0.002162166746
0.00216264755
0.002163200295
0.002161511223
0.002160789131
0.002160665469
0.002160877343
0.002161259419
0.002161713812
0.0021621849
0.002162642402
0.002163070859
0.002163463141
0.002163815755
0.002164122203
0.002164351148
0.00217004202
0.002169083889
0.00216827325
0.002167630887
0.002167143683
0.002166786539
0.002166532864
0.002166358862
0.002166244811
0.002166175044
0.00216613739
0.00216612241
0.002166122312
0.002166128853
0.002171670155
0.002171207465
0.002170703371
0.002170193375
0.002169703082
0.002169248776
0.002168839254
0.002168477834
0.002168164121
0.002167895414
0.002167667804
0.002167477264
0.00216732194
0.002167211445
0.002172160131
0.002171860881
0.002171473533
0.002171029464
0.002170561202
0.002170095752
0.00216965244
0.00216924328
0.002168874397
0.002168547651
0.002168262095
0.002168015192
0.002167804092
0.002167628411
0.002167501318
0.002171559654
0.002170824857
0.002170027394
0.002169270288
0.002168609859
0.002168065482
0.002167634205
0.002167302322
0.002167052641
0.002166868352
0.00216673473
0.002166639634
0.002166573433
0.002166528869
0.002166502112
0.002169290251
0.002167208257
0.002165505724
0.002164334294
0.002163644839
0.002163322713
0.002163252871
0.002163342733
0.002163525357
0.002163755428
0.002164003706
0.002164251974
0.002164488566
0.002164702389
0.002164865955
0.002161522597
0.00215671724
0.002154583493
0.002154237347
0.002154857926
0.002155908795
0.002157087678
0.002158241603
0.00215930253
0.00216024718
0.002161074142
0.002161791341
0.002162408338
0.002162926403
0.0021633045
0.002139802501
0.002136176682
0.002138870171
0.002142997489
0.002146953066
0.002150313776
0.002153055144
0.002155266288
0.002157052154
0.002158504226
0.002159695
0.002160679555
0.002161497296
0.002162166753
0.002162647557
0.002161522554
0.00215671726
0.002154583533
0.002154237392
0.00215485797
0.002155908838
0.002157087718
0.002158241641
0.002159302566
0.002160247213
0.002161074173
0.00216179137
0.002162408365
0.002162926429
0.002163304524
0.00216720818
0.002165505698
0.0021643343
0.002163644863
0.002163322747
0.002163252911
0.002163342775
0.002163525401
0.002163755472
0.002164003749
0.002164252016
0.002164488608
0.002164702429
0.002164865995
0.002170824836
0.002170027383
0.002169270289
0.002168609871
0.002168065504
0.002167634234
0.002167302357
0.002167052679
0.002166868393
0.002166734773
0.002166639679
0.002166573479
0.002166528915
0.002166502159
0.002171860873
0.002171473526
0.002171029461
0.002170561205
0.002170095762
0.002169652456
0.002169243303
0.002168874425
0.002168547684
0.002168262132
0.002168015232
0.002167804135
0.002167628457
0.002167501366
0.00217230832
0.00217212846
0.002171878688
0.002171570073
0.002171220108
0.002170847632
0.002170469499
0.002170099006
0.002169745583
0.002169415188
0.002169111025
0.002168834425
0.002168586178
0.002168370229
0.002168208642
0.002172044913
0.002171656168
0.002171175521
0.002170653878
0.002170135353
0.002169650021
0.00216921416
0.002168833567
0.002168507301
0.002168230744
0.002167997731
0.002167801919
0.002167637848
0.002167502972
0.002167405959
0.002171240197
0.00217027463
0.002169263684
0.002168349949
0.002167602049
0.002167033608
0.00216662767
0.002166354893
0.002166184271
0.002166088253
0.002166044491
0.002166035827
0.002166049389
0.002166074887
0.002166100565
0.002169290256
0.002167208274
0.00216550575
0.002164334327
0.002163644875
0.002163322751
0.002163252908
0.002163342768
0.002163525391
0.00216375546
0.002164003737
0.002164252003
0.002164488594
0.002164702415
0.002164865981
0.00216620617
0.00216320038
0.002161511303
0.002160789198
0.002160665524
0.002160877388
0.002161259456
0.002161713843
0.002162184926
0.002162642423
0.002163070878
0.002163463157
0.002163815769
0.002164122216
0.00216435116
0.002169290262
0.002167208286
0.002165505767
0.002164334346
0.002163644897
0.002163322773
0.002163252931
0.002163342792
0.002163525414
0.002163755483
0.002164003759
0.002164252025
0.002164488616
0.002164702436
0.002164866001
0.002171240178
0.002170274615
0.002169263679
0.002168349955
0.002167602064
0.002167033629
0.002166627695
0.002166354922
0.002166184302
0.002166088285
0.002166044524
0.002166035861
0.002166049423
0.002166074922
0.002166100599
0.002171656152
0.002171175513
0.002170653878
0.002170135361
0.002169650036
0.002169214181
0.002168833593
0.002168507331
0.002168230777
0.002167997766
0.002167801956
0.002167637887
0.002167503012
0.002167406001
0.002172128454
0.002171878682
0.002171570071
0.00217122011
0.00217084764
0.002170469512
0.002170099024
0.002169745605
0.002169415215
0.002169111056
0.002168834459
0.002168586215
0.00216837027
0.002168208685
0.002172407156
0.002172311394
0.002172169766
0.002171981419
0.00217175081
0.002171485951
0.002171196507
0.002170892245
0.002170582034
0.002170273328
0.002169972049
0.00216968286
0.002169410268
0.002169162963
0.002168972237
0.002172305807
0.002172124829
0.002171876799
0.002171574771
0.002171236964
0.002170881593
0.002170523946
0.002170175363
0.002169843386
0.002169532443
0.002169244691
0.002168980893
0.002168741718
0.002168531384
0.002168372574
0.002172044915
0.002171656171
0.002171175526
0.002170653885
0.002170135363
0.002169650033
0.002169214173
0.002168833582
0.002168507316
0.00216823076
0.002167997747
0.002167801935
0.002167637864
0.002167502989
0.002167405976
0.002171559656
0.002170824865
0.002170027409
0.00216927031
0.002168609886
0.002168065514
0.00216763424
0.002167302359
0.00216705268
0.002166868391
0.002166734769
0.002166639674
0.002166573473
0.002166528908
0.002166502151
0.002171053977
0.002170042048
0.002169083922
0.002168273283
0.002167630919
0.002167143713
0.002166786566
0.002166532889
0.002166358883
0.002166244831
0.002166175062
0.002166137407
0.002166122425
0.002166122326
0.002166128866
0.002171559658
0.002170824867
0.002170027412
0.002169270315
0.002168609893
0.002168065523
0.002167634251
0.002167302371
0.002167052693
0.002166868405
0.002166734784
0.002166639689
0.002166573489
0.002166528924
0.002166502168
0.002172044913
0.002171656169
0.002171175526
0.002170653888
0.002170135369
0.002169650043
0.002169214186
0.002168833598
0.002168507335
0.002168230781
0.00216799777
0.00216780196
0.00216763789
0.002167503015
0.002167406004
0.002172305803
0.002172124825
0.002171876796
0.002171574771
0.002171236967
0.0021708816
0.002170523957
0.002170175377
0.002169843404
0.002169532464
0.002169244715
0.00216898092
0.002168741747
0.002168531415
0.002168372607
0.00217231139
0.002172169763
0.002171981417
0.00217175081
0.002171485955
0.002171196514
0.002170892255
0.002170582048
0.002170273346
0.002169972071
0.002169682886
0.002169410297
0.002169162995
0.002168972272
0.002172451363
0.002172394323
0.002172305762
0.002172180877
0.002172018189
0.002171819507
0.002171589282
0.002171333691
0.002171059734
0.002170774471
0.00217048454
0.002170196057
0.002169915522
0.00216965443
0.002169449483
0.002172407156
0.002172311395
0.002172169767
0.002171981421
0.002171750812
0.002171485954
0.002171196511
0.00217089225
0.002170582039
0.002170273334
0.002169972056
0.002169682868
0.002169410276
0.002169162972
0.002168972246
0.00217230832
0.002172128462
0.002171878691
0.002171570078
0.002171220116
0.002170847642
0.002170469511
0.002170099021
0.0021697456
0.002169415206
0.002169111045
0.002168834446
0.0021685862
0.002168370253
0.002168208667
0.002172160131
0.002171860883
0.002171473538
0.002171029474
0.002170561216
0.002170095772
0.002169652464
0.002169243309
0.002168874429
0.002168547686
0.002168262132
0.002168015231
0.002167804133
0.002167628453
0.002167501361
0.002172049132
0.002171670166
0.00217120748
0.002170703388
0.002170193393
0.002169703101
0.002169248794
0.002168839272
0.002168477852
0.002168164138
0.00216789543
0.002167667819
0.002167477278
0.002167321953
0.002167211458
0.002172160131
0.002171860883
0.002171473539
0.002171029475
0.002170561218
0.002170095775
0.002169652469
0.002169243314
0.002168874435
0.002168547694
0.002168262141
0.002168015242
0.002167804144
0.002167628465
0.002167501374
0.00217230832
0.002172128462
0.002171878691
0.002171570079
0.002171220118
0.002170847647
0.002170469518
0.00217009903
0.002169745611
0.00216941522
0.002169111061
0.002168834464
0.00216858622
0.002168370274
0.002168208689
0.002172407156
0.002172311394
0.002172169767
0.002171981421
0.002171750814
0.002171485959
0.002171196517
0.002170892259
0.002170582052
0.002170273349
0.002169972075
0.002169682889
0.0021694103
0.002169162998
0.002168972274
0.002172451362
0.002172394321
0.002172305761
0.002172180876
0.00217201819
0.002171819509
0.002171589286
0.002171333698
0.002171059744
0.002170774484
0.002170484556
0.002170196077
0.002169915545
0.002169654456
0.002169449512
)
;

boundaryField
{
    top
    {
        type            zeroGradient;
    }
    bottom
    {
        type            zeroGradient;
    }
    side-walls
    {
        type            zeroGradient;
    }
    inlet
    {
        type            zeroGradient;
    }
    outlet
    {
        type            zeroGradient;
    }
    procBoundary1to0
    {
        type            processor;
        value           nonuniform List<scalar> 
97
(
0.002172451361
0.002172451361
0.002172407156
0.002172308321
0.002172160134
0.002172049137
0.002172160136
0.002172308323
0.002172407158
0.002172451364
0.002172463857
0.002172305803
0.002172305803
0.002172305803
0.002172044912
0.002171559661
0.002171053995
0.00217155967
0.002172044921
0.002172305811
0.002172407158
0.002172419031
0.002172303315
0.002171240173
0.002171240173
0.002171240173
0.002169290257
0.00216620625
0.002169290303
0.002171240217
0.002172044921
0.002172308323
0.002172353468
0.00217209966
0.002171213842
0.002161522414
0.002161522414
0.002161522414
0.002139802887
0.002161522706
0.002169290298
0.002171559667
0.002172160134
0.002172306747
0.002171907945
0.002170232739
0.002163622021
0.00196220083
0.00196220083
0.00196220083
0.002139802761
0.002139802761
0.002166206219
0.002171053989
0.002172049136
0.002172353469
0.002172099661
0.002171213846
0.002168645457
0.002163621992
0.002168645464
0.002169290209
0.002169290209
0.002169290209
0.002171559654
0.002172160132
0.002172419031
0.002172303315
0.002171964869
0.002171213846
0.002170232737
0.002171213849
0.002171964869
0.002172044906
0.002172044906
0.002172044906
0.002172308319
0.002172463857
0.002172418143
0.002172303316
0.002172099661
0.002171907945
0.002172099662
0.002172303316
0.002172418142
0.002172407154
0.002172407154
0.002172407154
0.00217248418
0.002172463858
0.002172419031
0.002172353468
0.002172306747
0.002172353469
0.002172419031
0.002172463858
0.002172484179
)
;
    }
}


// ************************************************************************* //
