/*--------------------------------*- C++ -*----------------------------------*\
| =========                 |                                                 |
| \\      /  F ield         | OpenFOAM: The Open Source CFD Toolbox           |
|  \\    /   O peration     | Version:  4.x                                   |
|   \\  /    A nd           | Web:      www.OpenFOAM.org                      |
|    \\/     M anipulation  |                                                 |
\*---------------------------------------------------------------------------*/
FoamFile
{
    version     2.0;
    format      ascii;
    class       volScalarField;
    location    "2000";
    object      H2O;
}
// * * * * * * * * * * * * * * * * * * * * * * * * * * * * * * * * * * * * * //

dimensions      [0 0 0 0 0 0 0];

internalField   nonuniform List<scalar> 
1174
(
1.996971018e-06
2.738706402e-06
3.784670969e-06
5.147250397e-06
6.811312092e-06
8.739595891e-06
1.088035903e-05
1.317501447e-05
1.556441757e-05
1.799298708e-05
2.040949439e-05
2.275950063e-05
2.49467004e-05
2.66635986e-05
2.691563393e-06
3.877728831e-06
5.455165572e-06
7.386576683e-06
9.604860933e-06
1.202911274e-05
1.45775322e-05
1.717585189e-05
1.976164483e-05
2.22853091e-05
2.470779622e-05
2.699134451e-05
2.906312053e-05
3.066093232e-05
4.223667495e-06
6.315470567e-06
8.900073493e-06
1.183102018e-05
1.495056016e-05
1.811757262e-05
2.122069757e-05
2.418096394e-05
2.694846638e-05
2.949635974e-05
3.181349462e-05
3.389322511e-05
3.570246352e-05
3.705627309e-05
6.464524549e-06
9.708376894e-06
1.342728861e-05
1.734888956e-05
2.124704628e-05
2.495992942e-05
2.838691995e-05
3.147671607e-05
3.421371952e-05
3.660585149e-05
3.867434064e-05
4.044303776e-05
4.191509133e-05
4.298005574e-05
8.061550627e-06
1.193628521e-05
1.61578693e-05
2.04289939e-05
2.453525493e-05
2.834027225e-05
3.177035511e-05
3.479771014e-05
3.742562284e-05
3.967670736e-05
4.15836638e-05
4.31802135e-05
4.448181592e-05
4.540778411e-05
6.464460379e-06
9.708281133e-06
1.342715664e-05
1.734871121e-05
2.124681477e-05
2.495963495e-05
2.838656334e-05
3.147629788e-05
3.42132423e-05
3.660531687e-05
3.867375165e-05
4.044239901e-05
4.19144116e-05
4.297932707e-05
4.223581876e-06
6.315358412e-06
8.899924516e-06
1.183081507e-05
1.495028549e-05
1.811720908e-05
2.122023176e-05
2.418038852e-05
2.694777977e-05
2.949556522e-05
3.181259033e-05
3.389222106e-05
3.570135951e-05
3.705508131e-05
2.691484625e-06
3.877637637e-06
5.455051547e-06
7.386420074e-06
9.604641951e-06
1.202880965e-05
1.457712058e-05
1.717531672e-05
1.976097788e-05
2.228450061e-05
2.470684114e-05
2.699023943e-05
2.906187565e-05
3.06595554e-05
1.996913473e-06
2.738649958e-06
3.784602628e-06
5.147153594e-06
6.811164183e-06
8.739373449e-06
1.088003667e-05
1.317456909e-05
1.556382802e-05
1.79922397e-05
2.040857606e-05
2.275840259e-05
2.494541582e-05
2.666212344e-05
1.889454067e-06
2.691502652e-06
3.877672569e-06
5.45511112e-06
7.386522631e-06
9.604808502e-06
1.202906049e-05
1.457748076e-05
1.71758009e-05
1.976159545e-05
2.228526086e-05
2.470774954e-05
2.699129512e-05
2.906307294e-05
3.066088973e-05
4.254174239e-06
6.331336811e-06
8.860760739e-06
1.168989387e-05
1.466620664e-05
1.766167448e-05
2.058133576e-05
2.336202096e-05
2.596663122e-05
2.837711032e-05
3.058703492e-05
3.259079924e-05
3.435301453e-05
3.568355097e-05
8.179131533e-06
1.220421531e-05
1.657269936e-05
2.09151947e-05
2.497987167e-05
2.863040676e-05
3.181823083e-05
3.455120115e-05
3.686797264e-05
3.882015306e-05
4.046082947e-05
4.183572375e-05
4.296608088e-05
4.377912263e-05
1.514052203e-05
2.181850825e-05
2.815872989e-05
3.368958193e-05
3.824880663e-05
4.186107839e-05
4.464112955e-05
4.673289243e-05
4.827711244e-05
4.939707022e-05
5.019441984e-05
5.074979384e-05
5.112390957e-05
5.134861899e-05
2.16951151e-05
2.971851673e-05
3.650717829e-05
4.188692778e-05
4.59675673e-05
4.895921525e-05
5.108448469e-05
5.254262253e-05
5.349873623e-05
5.40840338e-05
5.440040312e-05
5.452688375e-05
5.452865827e-05
5.447453563e-05
1.514027023e-05
2.181820119e-05
2.815836293e-05
3.368914589e-05
3.82482831e-05
4.186047358e-05
4.464045145e-05
4.673215807e-05
4.827631834e-05
4.939623103e-05
5.019354496e-05
5.074888428e-05
5.112298022e-05
5.134765465e-05
8.17885273e-06
1.220391747e-05
1.657234939e-05
2.091475364e-05
2.497931003e-05
2.862970946e-05
3.18173929e-05
3.455022869e-05
3.686687653e-05
3.881894096e-05
4.045951669e-05
4.183432201e-05
4.296460322e-05
4.377756562e-05
4.253996401e-06
6.331172265e-06
8.860560716e-06
1.168961429e-05
1.466581129e-05
1.766114141e-05
2.05806448e-05
2.336116571e-05
2.596560759e-05
2.837592146e-05
3.058568638e-05
3.258930341e-05
3.435137746e-05
3.568178436e-05
2.691490813e-06
3.877637496e-06
5.455036517e-06
7.386381888e-06
9.604569982e-06
1.202869406e-05
1.457695619e-05
1.717510054e-05
1.976070363e-05
2.228416819e-05
2.470645403e-05
2.698979784e-05
2.906137453e-05
3.065898089e-05
2.717211382e-06
4.22351734e-06
6.315313213e-06
8.899911396e-06
1.183085308e-05
1.495039421e-05
1.81174048e-05
2.122052841e-05
2.418079647e-05
2.69483018e-05
2.949619736e-05
3.181333217e-05
3.389306543e-05
3.570230489e-05
3.705611558e-05
4.923450997e-06
8.178916466e-06
1.220402383e-05
1.657252187e-05
2.09150273e-05
2.49797147e-05
2.863025878e-05
3.181808412e-05
3.455105959e-05
3.686783941e-05
3.882002253e-05
4.046070173e-05
4.183559831e-05
4.296596276e-05
4.377901093e-05
1.974891178e-05
2.821419213e-05
3.586582705e-05
4.212910465e-05
4.688986849e-05
5.029002111e-05
5.257519801e-05
5.400499966e-05
5.481011766e-05
5.517763899e-05
5.525124142e-05
5.513872021e-05
5.492614596e-05
5.471177012e-05
4.542543693e-05
5.968157495e-05
6.949107325e-05
7.52651828e-05
7.796366688e-05
7.854974731e-05
7.77985546e-05
7.627058419e-05
7.434527843e-05
7.226746354e-05
7.018967168e-05
6.820958703e-05
6.642006233e-05
6.505102238e-05
7.898190179e-05
9.312623257e-05
9.9174243e-05
0.0001002114957
9.843912201e-05
9.524146e-05
9.143812372e-05
8.749487607e-05
8.366530021e-05
8.007882383e-05
7.679517521e-05
7.384360976e-05
7.12784889e-05
6.936199299e-05
4.542428893e-05
5.968048382e-05
6.948993547e-05
7.526395531e-05
7.796235175e-05
7.854836568e-05
7.779714083e-05
7.626915939e-05
7.434384158e-05
7.226604503e-05
7.018828025e-05
6.820821369e-05
6.641870292e-05
6.504967716e-05
1.974801967e-05
2.821342927e-05
3.586496837e-05
4.212804343e-05
4.688858859e-05
5.028853731e-05
5.257353812e-05
5.400319826e-05
5.480819274e-05
5.517564092e-05
5.524919496e-05
5.513662484e-05
5.492402172e-05
5.470960187e-05
8.1788652e-06
1.220387877e-05
1.657222513e-05
2.091452652e-05
2.497897367e-05
2.862926572e-05
3.181684759e-05
3.454959682e-05
3.686616459e-05
3.881816323e-05
4.045868487e-05
4.183344425e-05
4.296368477e-05
4.377661209e-05
4.223599576e-06
6.315341885e-06
8.899841586e-06
1.18306351e-05
1.494998046e-05
1.811676675e-05
2.121964248e-05
2.417965195e-05
2.694689797e-05
2.949454524e-05
3.181144571e-05
3.389095569e-05
3.569998175e-05
3.705358164e-05
3.958231095e-06
6.46426279e-06
9.708079492e-06
1.342696781e-05
1.734855332e-05
2.12466976e-05
2.495957348e-05
2.838656413e-05
3.14763626e-05
3.421337341e-05
3.660551534e-05
3.867401164e-05
4.044271735e-05
4.191478214e-05
4.297975268e-05
8.986932673e-06
1.514004627e-05
2.181803755e-05
2.815827594e-05
3.368915082e-05
3.824839193e-05
4.186067956e-05
4.464075432e-05
4.673253867e-05
4.827677884e-05
4.939674997e-05
5.019411502e-05
5.074950095e-05
5.112364029e-05
5.13483619e-05
2.799175373e-05
4.54245377e-05
5.968089323e-05
6.949051341e-05
7.526470978e-05
7.796326005e-05
7.854937912e-05
7.779823605e-05
7.627030357e-05
7.43450217e-05
7.226722397e-05
7.018946089e-05
6.820939618e-05
6.641988235e-05
6.505085587e-05
0.0001332706624
0.0001511356552
0.0001540349172
0.0001488403196
0.0001400429633
0.0001301736033
0.0001205130545
0.0001116310416
0.0001037224979
9.679926534e-05
9.07950013e-05
8.562966113e-05
8.129255812e-05
7.812712603e-05
0.00030524268
0.0002826959193
0.0002481424373
0.0002150258015
0.0001868891921
0.0001639377062
0.0001454253991
0.0001304736596
0.0001183165796
0.000108347174
0.0001001043498
9.325815914e-05
8.765343947e-05
8.362798515e-05
0.000133266479
0.0001511326482
0.0001540320876
0.0001488375213
0.000140040169
0.0001301709146
0.000120510485
0.000111628618
0.0001037202146
9.679710586e-05
9.079295954e-05
8.562771953e-05
8.129071631e-05
7.812532133e-05
4.542439986e-05
5.968009098e-05
6.948906045e-05
7.526269735e-05
7.796083876e-05
7.854669508e-05
7.779538266e-05
7.626736671e-05
7.434205844e-05
7.226427823e-05
7.018655154e-05
6.820652611e-05
6.641704926e-05
6.504804068e-05
1.514034838e-05
2.181803149e-05
2.81578587e-05
3.368829092e-05
3.824710218e-05
4.185900466e-05
4.463874534e-05
4.673026492e-05
4.827428061e-05
4.939408793e-05
5.019132169e-05
5.074660345e-05
5.112065012e-05
5.134527616e-05
6.46451032e-06
9.708226636e-06
1.342691857e-05
1.734823035e-05
2.124605324e-05
2.495858505e-05
2.838522726e-05
3.147469037e-05
3.421138644e-05
3.660324096e-05
3.86714794e-05
4.043995565e-05
4.191180709e-05
4.297655798e-05
4.88772506e-06
8.061239001e-06
1.19359122e-05
1.615744773e-05
2.042853871e-05
2.453477849e-05
2.833977949e-05
3.176986003e-05
3.479720981e-05
3.742512836e-05
3.967622104e-05
4.158319467e-05
4.317975574e-05
4.448137218e-05
4.540735228e-05
1.322097532e-05
2.169448942e-05
2.971784138e-05
3.650648163e-05
4.188623752e-05
4.596690373e-05
4.895857966e-05
5.108387913e-05
5.254204582e-05
5.349819173e-05
5.408351379e-05
5.439991355e-05
5.452641947e-05
5.452821748e-05
5.447411132e-05
5.381248943e-05
7.898046321e-05
9.312481852e-05
9.917295879e-05
0.0001002103703
9.843813557e-05
9.524060076e-05
9.143738183e-05
8.749422352e-05
8.366471654e-05
8.007830096e-05
7.679470037e-05
7.384317556e-05
7.127808848e-05
6.936161986e-05
0.0002748807513
0.0003052381161
0.0002826930184
0.0002481404349
0.0002150243762
0.0001868881138
0.0001639369049
0.0001454247662
0.0001304731221
0.0001183161222
0.0001083467862
0.0001001040062
9.325786172e-05
8.765318551e-05
8.362775206e-05
0.001045421203
0.0006693053643
0.0004607395745
0.0003385003499
0.0002627247125
0.0002131288169
0.0001789988483
0.0001544497516
0.0001361160877
0.0001219942715
0.0001108468599
0.0001019003544
9.475460612e-05
8.969899358e-05
0.0003052431964
0.0002826914763
0.0002481366334
0.000215020008
0.0001868838507
0.0001639329393
0.0001454211712
0.0001304698855
0.0001183131767
0.0001083441037
0.0001001015413
9.325557014e-05
8.765102251e-05
8.362568069e-05
7.898237922e-05
9.312460616e-05
9.917115633e-05
0.0001002075714
9.843477502e-05
9.523698102e-05
9.143365194e-05
8.7490502e-05
8.366105802e-05
8.007473838e-05
7.679124858e-05
7.38398372e-05
7.127484434e-05
6.935841423e-05
2.169527937e-05
2.971802657e-05
3.650596572e-05
4.18850664e-05
4.596515852e-05
4.895637679e-05
5.108131368e-05
5.253920863e-05
5.349515949e-05
5.40803337e-05
5.439662938e-05
5.452306034e-05
5.452479371e-05
5.447061754e-05
8.061623521e-06
1.193613547e-05
1.615738204e-05
2.042809877e-05
2.453392246e-05
2.833849991e-05
3.176817141e-05
3.479514856e-05
3.742272116e-05
3.967351286e-05
4.158022518e-05
4.317655219e-05
4.447796398e-05
4.540373332e-05
3.958208476e-06
6.464181846e-06
9.707931843e-06
1.342674376e-05
1.734824808e-05
2.124631153e-05
2.49591079e-05
2.838601643e-05
3.147574121e-05
3.421268188e-05
3.660475982e-05
3.867320048e-05
4.044185785e-05
4.191387857e-05
4.297880457e-05
8.986734381e-06
1.513968545e-05
2.181753639e-05
2.8157647e-05
3.368840891e-05
3.824755065e-05
4.185974909e-05
4.463975266e-05
4.673147747e-05
4.827566808e-05
4.93956082e-05
5.019294316e-05
5.074830633e-05
5.112242358e-05
5.134711849e-05
2.798983357e-05
4.542273075e-05
5.967891414e-05
6.948845806e-05
7.52626007e-05
7.796113982e-05
7.854727744e-05
7.779616204e-05
7.626827427e-05
7.434305396e-05
7.226531402e-05
7.018760872e-05
6.820759621e-05
6.641813617e-05
6.504913195e-05
9.302809297e-05
0.0001332623229
0.0001511292503
0.0001540294114
0.0001488354115
0.0001400384841
0.0001301695504
0.0001205093636
0.0001116276724
0.0001037194053
9.679642043e-05
9.07923529e-05
8.562718516e-05
8.129022911e-05
7.812486762e-05
0.0002748801014
0.0003052368303
0.0002826875067
0.0002481340259
0.000215018251
0.000186882557
0.0001639319953
0.0001454204179
0.0001304692766
0.0001183126842
0.0001083436802
0.0001001011785
9.325524987e-05
8.765075038e-05
8.362542509e-05
9.30294845e-05
0.0001332621799
0.0001511276383
0.0001540268493
0.0001488323889
0.0001400353352
0.0001301664367
0.0001205063988
0.000111624875
0.0001037167917
9.679396377e-05
9.079004979e-05
8.562502844e-05
8.128820038e-05
7.812291456e-05
4.542552526e-05
5.967954534e-05
6.948753851e-05
7.526062844e-05
7.795848413e-05
7.854422292e-05
7.779288973e-05
7.626491207e-05
7.433966808e-05
7.226197262e-05
7.018432845e-05
6.820438174e-05
6.641498743e-05
6.504601592e-05
1.514071481e-05
2.18180054e-05
2.815744261e-05
3.368754344e-05
3.824609999e-05
4.185781422e-05
4.463742138e-05
4.672884443e-05
4.827280548e-05
4.939256365e-05
5.018977551e-05
5.074503875e-05
5.111908123e-05
5.134369927e-05
6.464616531e-06
9.708237034e-06
1.342678511e-05
1.734793278e-05
2.124558701e-05
2.495795803e-05
2.838445277e-05
3.147378886e-05
3.421037808e-05
3.660214063e-05
3.867030179e-05
4.043871848e-05
4.191052328e-05
4.297523146e-05
2.717165776e-06
4.223402353e-06
6.315118435e-06
8.899625511e-06
1.183046223e-05
1.494988191e-05
1.811676364e-05
2.121975598e-05
2.417988793e-05
2.694726361e-05
2.949503167e-05
3.181205118e-05
3.389167426e-05
3.570081674e-05
3.705453825e-05
4.923129166e-06
8.178489589e-06
1.220346488e-05
1.657182497e-05
2.091417728e-05
2.497870383e-05
2.862908077e-05
3.181675485e-05
3.454959089e-05
3.686624106e-05
3.88183107e-05
4.045889671e-05
4.183371955e-05
4.296400703e-05
4.37769852e-05
1.166196949e-05
1.97471424e-05
2.821244205e-05
3.586392934e-05
4.212701199e-05
4.688757984e-05
5.02875742e-05
5.257262635e-05
5.400233404e-05
5.48073831e-05
5.517487575e-05
5.524847762e-05
5.513594534e-05
5.492337635e-05
5.470899156e-05
2.79898393e-05
4.542235999e-05
5.967806641e-05
6.948718048e-05
7.526101127e-05
7.795932943e-05
7.854537214e-05
7.779421729e-05
7.626633045e-05
7.434114066e-05
7.226345029e-05
7.018579689e-05
6.820583115e-05
6.641641653e-05
6.50474472e-05
5.381244614e-05
7.897892323e-05
9.312169198e-05
9.916878213e-05
0.0001002056456
9.843320813e-05
9.52356898e-05
9.143257491e-05
8.7489601e-05
8.366027508e-05
8.007405531e-05
7.67906483e-05
7.383929468e-05
7.127435432e-05
6.935795896e-05
2.798972061e-05
4.542194856e-05
5.967721844e-05
6.948593042e-05
7.52594561e-05
7.79575897e-05
7.854351348e-05
7.779230553e-05
7.626442864e-05
7.433926388e-05
7.226161878e-05
7.018401021e-05
6.820409564e-05
6.641473162e-05
6.504577492e-05
1.166261056e-05
1.974760779e-05
2.821240796e-05
3.586331017e-05
4.212584396e-05
4.688596128e-05
5.028560196e-05
5.257039903e-05
5.399994564e-05
5.480487784e-05
5.517229405e-05
5.52458518e-05
5.51333044e-05
5.492072855e-05
5.470632081e-05
8.179126362e-06
1.220375923e-05
1.657172199e-05
2.091365242e-05
2.497775913e-05
2.862775235e-05
3.181508274e-05
3.454762453e-05
3.686402227e-05
3.881588216e-05
4.045629646e-05
4.183096976e-05
4.29611377e-05
4.3774003e-05
4.223724724e-06
6.315354661e-06
8.89968436e-06
1.183026874e-05
1.494938622e-05
1.811593272e-05
2.121857665e-05
2.417836454e-05
2.694541395e-05
2.949287679e-05
3.180961302e-05
3.388898124e-05
3.569788575e-05
3.705137914e-05
1.889378582e-06
2.691379675e-06
3.877488469e-06
5.454854034e-06
7.386173675e-06
9.604345669e-06
1.202846646e-05
1.457673662e-05
1.717489724e-05
1.976052491e-05
2.228402129e-05
2.470634352e-05
2.698972766e-05
2.906134923e-05
3.065902661e-05
2.738206752e-06
4.253804242e-06
6.330912396e-06
8.860236228e-06
1.168923151e-05
1.466537768e-05
1.766066373e-05
2.058013572e-05
2.336062914e-05
2.596505391e-05
2.837535385e-05
3.058510956e-05
3.258872547e-05
3.435079601e-05
3.568120313e-05
4.923122494e-06
8.178442282e-06
1.22033425e-05
1.65716042e-05
2.091384453e-05
2.49782529e-05
2.862852648e-05
3.181610703e-05
3.454885239e-05
3.686543375e-05
3.881744549e-05
4.045798949e-05
4.183276644e-05
4.296302621e-05
4.377596926e-05
8.986734789e-06
1.51394983e-05
2.181704553e-05
2.815680518e-05
3.36872167e-05
3.824604849e-05
4.185799608e-05
4.463778736e-05
4.672935586e-05
4.827343023e-05
4.939328654e-05
5.019056469e-05
5.074588494e-05
5.111997193e-05
5.134463102e-05
1.322096063e-05
2.169397718e-05
2.971665885e-05
3.650463088e-05
4.188381216e-05
4.596399878e-05
4.895531712e-05
5.108034864e-05
5.253833763e-05
5.349435657e-05
5.407959913e-05
5.439594914e-05
5.452242937e-05
5.452421155e-05
5.447006371e-05
8.986662111e-06
1.513933022e-05
2.181673226e-05
2.815632067e-05
3.368656161e-05
3.824523464e-05
4.185704742e-05
4.463673916e-05
4.672823015e-05
4.827224842e-05
4.939206158e-05
5.018931139e-05
5.074461353e-05
5.111868103e-05
5.134332115e-05
4.923168666e-06
8.178457529e-06
1.220321999e-05
1.65712666e-05
2.091325633e-05
2.497740859e-05
2.862743883e-05
3.181480241e-05
3.45473637e-05
3.686378434e-05
3.881566736e-05
4.045609605e-05
4.183078547e-05
4.296096671e-05
4.377384062e-05
2.738340681e-06
4.253946494e-06
6.330976967e-06
8.860150235e-06
1.168894104e-05
1.466485028e-05
1.765988245e-05
2.057909695e-05
2.335934042e-05
2.596353067e-05
2.837360979e-05
3.058316714e-05
3.258659582e-05
3.434850253e-05
3.567876149e-05
2.691569172e-06
3.877621349e-06
5.454888643e-06
7.386061145e-06
9.604043248e-06
1.202793554e-05
1.457594987e-05
1.717383913e-05
1.97591891e-05
2.228240704e-05
2.470445651e-05
2.698758198e-05
2.905895692e-05
3.065639299e-05
1.519114774e-06
1.996844103e-06
2.738546904e-06
3.78445964e-06
5.146966318e-06
6.810930709e-06
8.739093069e-06
1.087971138e-05
1.317420092e-05
1.556342246e-05
1.799179869e-05
2.040810468e-05
2.275790934e-05
2.494490559e-05
2.666160147e-05
1.889380015e-06
2.691375559e-06
3.877472264e-06
5.454815939e-06
7.38610574e-06
9.604238557e-06
1.202831289e-05
1.457653104e-05
1.71746369e-05
1.976020842e-05
2.228364802e-05
2.470591291e-05
2.698924329e-05
2.906081097e-05
3.065841352e-05
2.717167835e-06
4.223378386e-06
6.315039028e-06
8.899459664e-06
1.183018158e-05
1.494946918e-05
1.811620687e-05
2.121904745e-05
2.417903232e-05
2.694626415e-05
2.949390451e-05
3.181079953e-05
3.389031443e-05
3.569934918e-05
3.70529542e-05
3.958218498e-06
6.46411592e-06
9.707713746e-06
1.342630729e-05
1.734754569e-05
2.124532062e-05
2.495782336e-05
2.838445078e-05
3.147391409e-05
3.421061998e-05
3.660248933e-05
3.86707535e-05
4.043925107e-05
4.19111302e-05
4.297590416e-05
4.887723248e-06
8.061070132e-06
1.193545952e-05
1.615662275e-05
2.042729063e-05
2.453309591e-05
2.833767758e-05
3.176736893e-05
3.479437145e-05
3.742197633e-05
3.96728032e-05
4.157954737e-05
4.317591257e-05
4.447735749e-05
4.540315298e-05
3.958190234e-06
6.464050416e-06
9.707588443e-06
1.34260979e-05
1.734723763e-05
2.124490413e-05
2.49572958e-05
2.8383823e-05
3.147319388e-05
3.420981371e-05
3.660160788e-05
3.866980558e-05
4.043824875e-05
4.191007997e-05
4.297480413e-05
2.717158712e-06
4.223348658e-06
6.314950832e-06
8.899272318e-06
1.18298604e-05
1.494898806e-05
1.811555011e-05
2.121821302e-05
2.417802071e-05
2.694508778e-05
2.949257091e-05
3.180932577e-05
3.388871499e-05
3.569763577e-05
3.705113953e-05
1.889395229e-06
2.691393644e-06
3.877460329e-06
5.454734466e-06
7.385911044e-06
9.603895425e-06
1.20277916e-05
1.457581148e-05
1.717370581e-05
1.975906185e-05
2.228228536e-05
2.470433985e-05
2.698747229e-05
2.905885543e-05
3.065629762e-05
1.519152427e-06
1.996895681e-06
2.738585943e-06
3.784452676e-06
5.146872808e-06
6.810710359e-06
8.738708373e-06
1.087912774e-05
1.3173391e-05
1.556236784e-05
1.799048677e-05
2.040652898e-05
2.275606894e-05
2.494280904e-05
2.665925865e-05
)
;

boundaryField
{
    top
    {
        type            zeroGradient;
    }
    bottom
    {
        type            zeroGradient;
    }
    side-walls
    {
        type            zeroGradient;
    }
    inlet
    {
        type            zeroGradient;
    }
    outlet
    {
        type            zeroGradient;
    }
    procBoundary1to0
    {
        type            processor;
        value           nonuniform List<scalar> 
97
(
1.519150926e-06
1.519150926e-06
1.889382728e-06
2.717100645e-06
3.958025423e-06
4.887411626e-06
3.957973183e-06
2.717028276e-06
1.88930954e-06
1.519076128e-06
1.414422537e-06
2.73834148e-06
2.73834148e-06
2.73834148e-06
4.923094887e-06
8.986277757e-06
1.321982313e-05
8.986035845e-06
4.922800457e-06
2.738067811e-06
1.889312966e-06
1.789868832e-06
2.758947209e-06
1.166260985e-05
1.166260985e-05
1.166260985e-05
2.798875488e-05
5.380640312e-05
2.798726821e-05
1.166103425e-05
4.922809909e-06
2.717039916e-06
2.338955749e-06
4.464441364e-06
1.188188583e-05
9.30294251e-05
9.30294251e-05
9.30294251e-05
0.0002748403168
9.301878748e-05
2.798737753e-05
8.98609892e-06
3.958008097e-06
2.73022564e-06
6.069838596e-06
2.009693941e-05
7.544426897e-05
0.001761516045
0.001761516045
0.001761516045
0.0002748430865
0.0002748430865
5.380710726e-05
1.321999298e-05
4.887469019e-06
2.338967797e-06
4.464495595e-06
1.188227499e-05
3.338800799e-05
7.544617087e-05
3.338688734e-05
2.799105079e-05
2.799105079e-05
2.799105079e-05
8.986638629e-06
3.958117553e-06
1.789881892e-06
2.759010014e-06
5.593329626e-06
1.188230149e-05
2.009718385e-05
1.188205656e-05
5.593202587e-06
4.923413231e-06
4.923413231e-06
4.923413231e-06
2.717181393e-06
1.414433769e-06
1.797322421e-06
2.759008481e-06
4.464504816e-06
6.069874015e-06
4.46444494e-06
2.758973322e-06
1.797306628e-06
1.889453631e-06
1.889453631e-06
1.889453631e-06
1.244215671e-06
1.414434601e-06
1.789883886e-06
2.338976546e-06
2.730234674e-06
2.338957867e-06
1.789868938e-06
1.414427782e-06
1.244213731e-06
)
;
    }
}


// ************************************************************************* //
