/*--------------------------------*- C++ -*----------------------------------*\
| =========                 |                                                 |
| \\      /  F ield         | OpenFOAM: The Open Source CFD Toolbox           |
|  \\    /   O peration     | Version:  4.x                                   |
|   \\  /    A nd           | Web:      www.OpenFOAM.org                      |
|    \\/     M anipulation  |                                                 |
\*---------------------------------------------------------------------------*/
FoamFile
{
    version     2.0;
    format      ascii;
    class       volScalarField;
    location    "2000";
    object      molarConc;
}
// * * * * * * * * * * * * * * * * * * * * * * * * * * * * * * * * * * * * * //

dimensions      [0 -3 0 0 1 0 0];

internalField   nonuniform List<scalar> 
1174
(
9.963278491
9.963276077
9.963272296
9.963267442
9.963261393
9.963252988
9.963244223
9.963235927
9.963227835
9.963218662
9.963209715
9.963201104
9.963193032
9.963184973
9.963267342
9.96326376
9.963258556
9.963250022
9.963241257
9.963232273
9.9632228
9.963213367
9.963204366
9.963195431
9.963187364
9.96317906
9.963171671
9.963163302
9.963285295
9.963275847
9.963264741
9.963253532
9.963242669
9.96323102
9.963220817
9.963209796
9.96319938
9.963189923
9.963181976
9.963174973
9.963167322
9.963162257
9.96325234
9.963240996
9.963226099
9.963211817
9.963197938
9.963184841
9.963171775
9.963160827
9.963151324
9.963142378
9.963133351
9.963126865
9.963119968
9.96311623
9.963247701
9.963232811
9.963216776
9.963199888
9.963185006
9.963171081
9.963157457
9.96314614
9.963135635
9.963126957
9.963120422
9.963114646
9.963110415
9.96310601
9.963262464
9.963250714
9.96323655
9.963222379
9.963208947
9.963193779
9.963181672
9.963171128
9.963161482
9.963152823
9.963145551
9.963137958
9.963132914
9.963128671
9.963276588
9.96326838
9.963259656
9.96324976
9.963237865
9.963227355
9.963216671
9.963205596
9.963194741
9.963186669
9.96317862
9.963171469
9.963164089
9.96315908
9.963259262
9.963255314
9.963249694
9.963241924
9.963235292
9.963226844
9.963216967
9.963205131
9.963196367
9.963187075
9.963177323
9.963167223
9.963159267
9.96315366
9.963271898
9.963268298
9.963264503
9.963260029
9.963253284
9.963245025
9.963236839
9.96322895
9.963219984
9.963211251
9.963201706
9.963192844
9.963184407
9.963179314
9.963260161
9.963257953
9.963254549
9.963247952
9.96323963
9.963231873
9.963222933
9.96321262
9.963204166
9.963194108
9.963184056
9.963174942
9.963166429
9.963159015
9.963153811
9.963260852
9.963253356
9.963243611
9.963235226
9.963223472
9.963213257
9.963202824
9.963194196
9.963184729
9.963176356
9.963166915
9.96315881
9.963151055
9.96314663
9.963245243
9.963230262
9.963214771
9.963198503
9.963183162
9.963170672
9.963158042
9.963147596
9.963139117
9.963132403
9.963125707
9.963119889
9.963115926
9.963114248
9.963220913
9.963196794
9.963172973
9.96315101
9.963133919
9.963121347
9.963111173
9.963103502
9.963096709
9.963092305
9.963089948
9.963088714
9.9630871
9.963086406
9.963191688
9.963161119
9.963136201
9.963116229
9.963100904
9.963089941
9.963083806
9.963079082
9.963075609
9.96307425
9.963072507
9.963072702
9.963073565
9.963073816
9.963227974
9.963204253
9.963180733
9.963160334
9.963141874
9.963128278
9.963117007
9.963108743
9.963102546
9.963097699
9.963094284
9.963092028
9.963090235
9.963090095
9.96322713
9.963212444
9.963195644
9.963178811
9.963163259
9.963149199
9.963136484
9.963125565
9.963116341
9.963108181
9.963101112
9.963096093
9.963091083
9.963088431
9.963277106
9.963271582
9.963261998
9.963250898
9.963238998
9.963228305
9.963218158
9.963208994
9.963201083
9.963190946
9.963183481
9.963175599
9.963167897
9.963163342
9.963261097
9.963256444
9.963249842
9.963242721
9.963234885
9.963226772
9.963217027
9.963207745
9.963198192
9.96319008
9.963181148
9.963171882
9.963164431
9.963158665
9.963250548
9.963246059
9.963237953
9.963227404
9.963217389
9.963206097
9.963193537
9.963181224
9.963170607
9.963161438
9.963151483
9.963142
9.963134097
9.9631264
9.963119755
9.963268879
9.963256121
9.963241037
9.963224013
9.963207918
9.9631937
9.963180378
9.96316863
9.963159054
9.963150255
9.963141959
9.96313363
9.963129211
9.963126954
9.963124456
9.963203108
9.963171144
9.963143521
9.963120369
9.963101726
9.96308833
9.963079571
9.963072423
9.963069013
9.963068079
9.963067599
9.963068833
9.963069456
9.963069406
9.963111724
9.963059399
9.96302102
9.962999628
9.962990114
9.962986886
9.962987953
9.962992906
9.963001108
9.963010893
9.963016338
9.963023615
9.963030491
9.963033971
9.962988919
9.962936021
9.96291447
9.96291124
9.962918122
9.962931321
9.962944749
9.962958288
9.962972013
9.962986096
9.962999101
9.963009513
9.963020046
9.963028169
9.963121077
9.963067743
9.963030305
9.963008631
9.963000266
9.962997573
9.963000494
9.963006066
9.963013672
9.963020847
9.963028086
9.963036763
9.96304333
9.963049137
9.963189332
9.963158041
9.963129573
9.963105483
9.963086614
9.963073842
9.963066401
9.963061627
9.963057414
9.963056454
9.963057195
9.963058755
9.963060002
9.963059724
9.963246228
9.963230439
9.963215297
9.963198757
9.963183521
9.963168982
9.963158223
9.963148562
9.963139319
9.963131616
9.963125111
9.963119387
9.963115932
9.963112829
9.963287851
9.963279138
9.963269175
9.963256518
9.96324371
9.963232415
9.963221563
9.963210089
9.963200288
9.963191665
9.963183887
9.963175672
9.963168744
9.96316427
9.96326814
9.963259805
9.963246423
9.963233647
9.963218104
9.963204553
9.963190767
9.963177321
9.96316699
9.963157218
9.963147975
9.96313964
9.963133907
9.963129019
9.963125115
9.963251063
9.963227507
9.963204776
9.963181915
9.963161199
9.963145069
9.963130898
9.963119726
9.963112262
9.963105041
9.96310091
9.963098687
9.963096425
9.963094999
9.963094665
9.963176377
9.96310989
9.963056541
9.963018192
9.962996077
9.962986746
9.962983116
9.962986287
9.962992804
9.962999814
9.963007018
9.963014699
9.963022691
9.963029317
9.96303426
9.962789786
9.962723263
9.96271247
9.962732467
9.962765725
9.962802266
9.962838049
9.962871394
9.962900247
9.962926897
9.962950788
9.96297075
9.96298817
9.962999242
9.962291523
9.962376018
9.962505978
9.962629341
9.962733033
9.962817949
9.962887689
9.962943596
9.96298969
9.96302709
9.963058465
9.963084716
9.963105527
9.963120799
9.9627903
9.962721921
9.962710447
9.962730299
9.962763361
9.962799819
9.962836194
9.962869602
9.962898464
9.962925763
9.962948002
9.962966846
9.96298336
9.962994441
9.963127231
9.963073684
9.963036104
9.963015965
9.963005933
9.963004847
9.963007497
9.963013389
9.96302032
9.963026862
9.963034625
9.963041861
9.963047617
9.963051501
9.963201314
9.963175634
9.963151627
9.963130345
9.963113433
9.963098904
9.963087737
9.963079792
9.963073995
9.963071629
9.96306977
9.963069222
9.963067178
9.963067621
9.963248723
9.963236317
9.963222183
9.963209122
9.963194978
9.963181285
9.963168382
9.963156222
9.96314634
9.963137293
9.963129841
9.963123324
9.96311635
9.96311291
9.963265358
9.963254184
9.963239662
9.963223843
9.963207517
9.963192311
9.963178592
9.963166527
9.963155033
9.9631462
9.963137546
9.96313063
9.963125741
9.963120332
9.963115674
9.963231542
9.963199394
9.96316916
9.963142884
9.963121704
9.96310584
9.963094393
9.963087181
9.963080794
9.96307732
9.963076269
9.963076771
9.963076126
9.963075677
9.963076482
9.963073391
9.962979664
9.962927372
9.962904167
9.962900476
9.962907538
9.962919989
9.962935941
9.962949987
9.962964875
9.962978235
9.962989355
9.96300003
9.96300831
9.963015999
9.96239485
9.962281342
9.962365172
9.962494567
9.962618304
9.962723867
9.962808899
9.962877158
9.962932129
9.962978381
9.963015829
9.963045534
9.963073076
9.963095424
9.963110808
10.05055869
10.05208753
10.05298393
10.05355132
10.05394366
10.05423696
10.05447345
10.0546723
10.05485038
10.05501254
10.05516444
10.05530768
10.05544277
10.05557055
9.962240507
9.962325808
9.962455827
9.962579941
9.962685819
9.962769983
9.962840344
9.962898818
9.962943966
9.962981859
9.963012238
9.963038002
9.963059215
9.963075206
9.962987614
9.962934493
9.962912659
9.962910449
9.962919666
9.962932357
9.962946178
9.962961519
9.962975873
9.962990856
9.963002305
9.963014189
9.963022981
9.963029389
9.963212796
9.963182326
9.963157018
9.963136823
9.963120729
9.963107652
9.963099612
9.963094199
9.963090556
9.963088938
9.963087169
9.963086006
9.963084662
9.963084435
9.963271259
9.963256649
9.963239492
9.963223694
9.963208997
9.963194963
9.96318327
9.963172574
9.963164028
9.963154832
9.96314851
9.963142487
9.963137251
9.963132972
9.963291681
9.963281604
9.963268872
9.963255244
9.963239538
9.963225646
9.963211762
9.963198743
9.963186329
9.963175892
9.963167744
9.963159663
9.963152704
9.963147654
9.963143199
9.963251329
9.963227636
9.963204442
9.963180654
9.963161231
9.963144672
9.963130958
9.963121459
9.963113221
9.963107114
9.963102653
9.963098652
9.963096363
9.963094362
9.96309326
9.963157861
9.963091173
9.963038856
9.96300104
9.962980359
9.962970483
9.962968954
9.962972789
9.962978792
9.96298765
9.962993432
9.963001429
9.963008505
9.96301606
9.963021291
9.962953661
9.962803076
9.962736679
9.962725994
9.962746038
9.962778323
9.962815173
9.962851076
9.962884556
9.962914021
9.9629389
9.962961763
9.962980877
9.962995494
9.96300669
9.962361083
9.962249019
9.962333215
9.962460747
9.962584938
9.96268931
9.962776006
9.962845047
9.962900168
9.962947206
9.962984741
9.96301572
9.963042306
9.96306394
9.963078176
9.962960267
9.962810223
9.962743463
9.962732151
9.962750917
9.962783706
9.9628191
9.962856725
9.962888685
9.962918333
9.9629454
9.962967536
9.962986819
9.963003322
9.963016373
9.963122699
9.963069161
9.963032601
9.963009921
9.963000377
9.962997836
9.963002834
9.963008087
9.963014941
9.963022543
9.963031278
9.963038476
9.963045009
9.963050759
9.963257716
9.963232725
9.963209305
9.96318892
9.963171633
9.963159744
9.963150007
9.963142407
9.96313457
9.963130466
9.96312788
9.963125423
9.963124909
9.963124395
9.963260857
9.96324962
9.963234929
9.963220113
9.963204231
9.96318879
9.963176811
9.963164383
9.963154567
9.963146135
9.963138991
9.96313268
9.963126779
9.963124168
9.963262746
9.963255681
9.963249235
9.963239299
9.963228203
9.96321708
9.963206102
9.96319625
9.963185306
9.963175211
9.963165514
9.963157932
9.963150571
9.963143588
9.963138433
9.963232121
9.963219639
9.963204361
9.963187361
9.96317011
9.963155761
9.963142831
9.963131321
9.963121772
9.963112209
9.9631057
9.963098726
9.963093981
9.963088975
9.963086467
9.963196296
9.963166415
9.963136509
9.963107149
9.963084949
9.963067538
9.963054258
9.963047794
9.96304064
9.963038369
9.963037335
9.963036622
9.963037749
9.963037826
9.963038267
9.963169949
9.963104923
9.963050607
9.96301475
9.962993742
9.96298286
9.962981943
9.962985674
9.962989831
9.962997781
9.963004212
9.963011974
9.963019693
9.963027323
9.963033214
9.963090878
9.962997428
9.962944635
9.962921559
9.962916288
9.962923912
9.962934853
9.962949853
9.962964982
9.962978727
9.962992348
9.963003203
9.963013618
9.963023155
9.963028691
9.96318185
9.963118366
9.963065382
9.963027994
9.963006748
9.962996447
9.962995995
9.962998606
9.96300379
9.96301114
9.963019188
9.963025825
9.963032738
9.963040305
9.963045295
9.963224453
9.963193305
9.963162894
9.963134498
9.963110331
9.963093306
9.963078761
9.963070205
9.9630661
9.963062889
9.96306067
9.963059294
9.963059897
9.96306146
9.963063447
9.96326988
9.963254014
9.963238593
9.963221806
9.963207261
9.963193786
9.963181442
9.963171459
9.963163184
9.963155864
9.963150717
9.963145776
9.96314181
9.963138372
9.9632744
9.96326602
9.963256278
9.96324571
9.963234817
9.963222808
9.963211543
9.963201937
9.963192534
9.963182237
9.963172664
9.963163976
9.963157355
9.963151482
9.96326399
9.963260005
9.963256105
9.963250659
9.963242565
9.96323515
9.963225615
9.963215245
9.963206542
9.963197408
9.963188622
9.963178795
9.963170506
9.963163177
9.963157155
9.963263535
9.963257115
9.963249463
9.963240139
9.9632312
9.963221427
9.963209405
9.963198773
9.963189051
9.963178324
9.96316871
9.963160794
9.96315403
9.963146825
9.963140293
9.963267622
9.963255738
9.963238879
9.963223936
9.963208531
9.963193179
9.96317893
9.963166796
9.963156782
9.963148167
9.963140807
9.963134316
9.963128385
9.963123957
9.963120118
9.963255244
9.963231814
9.963206688
9.963182858
9.963163227
9.963145466
9.963132143
9.963121231
9.963113358
9.963106921
9.96310292
9.963099683
9.963097226
9.963095322
9.963094009
9.963224766
9.963192775
9.963163523
9.963138591
9.963118964
9.963102852
9.963091525
9.963083559
9.963079149
9.963075833
9.963073475
9.963071759
9.963071049
9.963071102
9.96307049
9.963233383
9.963211554
9.963187813
9.963163836
9.963143906
9.963127292
9.963114234
9.963104219
9.963097077
9.963090565
9.963086724
9.963084461
9.963082698
9.963079669
9.963079243
9.963271669
9.963260022
9.963245913
9.963229935
9.963212912
9.963197485
9.963183181
9.9631719
9.963162055
9.963152671
9.963146712
9.963140545
9.963135506
9.963131003
9.963129727
9.963264774
9.963258713
9.963252268
9.963242076
9.963230834
9.96321934
9.963208306
9.963196734
9.963186852
9.963177495
9.963168005
9.963159596
9.963153722
9.963145986
9.963139688
9.963267013
9.963261372
9.963255891
9.963249137
9.963241489
9.963231835
9.963223311
9.963213355
9.963203329
9.963193911
9.963185011
9.963176214
9.963168876
9.963163049
9.963276729
9.963274508
9.963271129
9.963267287
9.963262547
9.963257048
9.963249992
9.963241863
9.963232836
9.963224725
9.963215295
9.963206203
9.963199213
9.963190797
9.963183768
9.963277908
9.963274718
9.963270129
9.963262374
9.963256645
9.963248909
9.963239327
9.963230304
9.963220654
9.963210772
9.96320284
9.963191789
9.963182312
9.96317361
9.963166919
9.963274628
9.963268575
9.963261662
9.963251751
9.963238942
9.9632281
9.963216412
9.963204454
9.963192086
9.963181
9.963172088
9.963164065
9.963156023
9.963148141
9.963142925
9.963257446
9.963247936
9.963235877
9.96322234
9.963207847
9.963194535
9.963180428
9.963168296
9.963156616
9.963146181
9.963136786
9.963129219
9.963121559
9.963116098
9.963112436
9.963278619
9.963266717
9.963252574
9.963236509
9.963219697
9.963205452
9.963191705
9.963179439
9.963168237
9.963158788
9.963150616
9.96314332
9.963137227
9.96313246
9.963128845
9.96324185
9.963232916
9.963220529
9.963205707
9.963192163
9.963177373
9.963163548
9.963151526
9.963140642
9.96313073
9.963121997
9.963114875
9.963107326
9.963103134
9.963098411
9.963269753
9.963264434
9.963255742
9.963245299
9.963234162
9.963223082
9.963212158
9.96320028
9.963188813
9.963179049
9.963169388
9.963160956
9.963153214
9.963146636
9.963141087
9.963300771
9.963298364
9.963294245
9.963288221
9.96328104
9.963273639
9.963265205
9.963256536
9.963247919
9.963237743
9.963227823
9.963218405
9.96320944
9.963203203
9.963196345
9.963274666
9.963272697
9.96326995
9.963265842
9.963259839
9.963252712
9.963245673
9.963237325
9.96322837
9.963219477
9.963210767
9.963201492
9.963192175
9.963183767
9.963177659
)
;

boundaryField
{
    top
    {
        type            calculated;
        value           nonuniform List<scalar> 
127
(
9.963274666
9.963271898
9.963261097
9.963287851
9.963248723
9.963271259
9.963260857
9.9632744
9.963267013
9.963272697
9.963268298
9.963256444
9.963279138
9.963236317
9.963256649
9.96324962
9.96326602
9.963261372
9.96326995
9.963264503
9.963249842
9.963269175
9.963222183
9.963239492
9.963234929
9.963256278
9.963255891
9.963265842
9.963260029
9.963242721
9.963256518
9.963209122
9.963223694
9.963220113
9.96324571
9.963249137
9.963259839
9.963253284
9.963234885
9.96324371
9.963194978
9.963208997
9.963204231
9.963234817
9.963241489
9.963252712
9.963245025
9.963226772
9.963232415
9.963181285
9.963194963
9.96318879
9.963222808
9.963231835
9.963245673
9.963236839
9.963217027
9.963221563
9.963168382
9.96318327
9.963176811
9.963211543
9.963223311
9.963237325
9.96322895
9.963207745
9.963210089
9.963156222
9.963172574
9.963164383
9.963201937
9.963213355
9.96322837
9.963219984
9.963198192
9.963200288
9.96314634
9.963164028
9.963154567
9.963192534
9.963203329
9.963219477
9.963211251
9.96319008
9.963191665
9.963137293
9.963154832
9.963146135
9.963182237
9.963193911
9.963210767
9.963201706
9.963181148
9.963183887
9.963129841
9.96314851
9.963138991
9.963172664
9.963185011
9.963201492
9.963192844
9.963171882
9.963175672
9.963123324
9.963142487
9.96313268
9.963163976
9.963176214
9.963192175
9.963184407
9.963164431
9.963168744
9.96311635
9.963137251
9.963126779
9.963157355
9.963168876
9.963183767
9.963179314
9.963158665
9.96316427
9.96311291
9.963132972
9.963124168
9.963151482
9.963163049
9.963177659
)
;
    }
    bottom
    {
        type            calculated;
        value           nonuniform List<scalar> 
134
(
9.963260161
9.963250548
9.96326814
9.963265358
9.963291681
9.963262746
9.96326399
9.963276729
9.963278491
9.963257953
9.963246059
9.963259805
9.963254184
9.963281604
9.963255681
9.963260005
9.963274508
9.963276077
9.963254549
9.963237953
9.963246423
9.963239662
9.963268872
9.963249235
9.963256105
9.963271129
9.963272296
9.963247952
9.963227404
9.963233647
9.963223843
9.963255244
9.963239299
9.963250659
9.963267287
9.963267442
9.96323963
9.963217389
9.963218104
9.963207517
9.963239538
9.963228203
9.963242565
9.963262547
9.963261393
9.963231873
9.963206097
9.963204553
9.963192311
9.963225646
9.96321708
9.96323515
9.963257048
9.963252988
9.963222933
9.963193537
9.963190767
9.963178592
9.963211762
9.963206102
9.963225615
9.963249992
9.963244223
9.96321262
9.963181224
9.963177321
9.963166527
9.963198743
9.96319625
9.963215245
9.963241863
9.963235927
9.963204166
9.963170607
9.96316699
9.963155033
9.963186329
9.963185306
9.963206542
9.963232836
9.963227835
9.963194108
9.963161438
9.963157218
9.9631462
9.963175892
9.963175211
9.963197408
9.963224725
9.963218662
9.963184056
9.963151483
9.963147975
9.963137546
9.963167744
9.963165514
9.963188622
9.963215295
9.963209715
9.963174942
9.963142
9.96313964
9.96313063
9.963159663
9.963157932
9.963178795
9.963206203
9.963201104
9.963166429
9.963134097
9.963133907
9.963125741
9.963152704
9.963150571
9.963170506
9.963199213
9.963193032
9.963159015
9.9631264
9.963129019
9.963120332
9.963147654
9.963143588
9.963163177
9.963190797
9.963184973
9.963153811
9.963119755
9.963125115
9.963115674
9.963143199
9.963138433
9.963157155
9.963183768
)
;
    }
    side-walls
    {
        type            calculated;
        value           nonuniform List<scalar> 
261
(
9.963278491
9.963267342
9.963285295
9.96325234
9.963247701
9.963262464
9.963276588
9.963259262
9.963271898
9.963276077
9.96326376
9.963275847
9.963240996
9.963232811
9.963250714
9.96326838
9.963255314
9.963268298
9.963272296
9.963258556
9.963264741
9.963226099
9.963216776
9.96323655
9.963259656
9.963249694
9.963264503
9.963267442
9.963250022
9.963253532
9.963211817
9.963199888
9.963222379
9.96324976
9.963241924
9.963260029
9.963261393
9.963241257
9.963242669
9.963197938
9.963185006
9.963208947
9.963237865
9.963235292
9.963253284
9.963252988
9.963232273
9.96323102
9.963184841
9.963171081
9.963193779
9.963227355
9.963226844
9.963245025
9.963244223
9.9632228
9.963220817
9.963171775
9.963157457
9.963181672
9.963216671
9.963216967
9.963236839
9.963235927
9.963213367
9.963209796
9.963160827
9.96314614
9.963171128
9.963205596
9.963205131
9.96322895
9.963227835
9.963204366
9.96319938
9.963151324
9.963135635
9.963161482
9.963194741
9.963196367
9.963219984
9.963218662
9.963195431
9.963189923
9.963142378
9.963126957
9.963152823
9.963186669
9.963187075
9.963211251
9.963209715
9.963187364
9.963181976
9.963133351
9.963120422
9.963145551
9.96317862
9.963177323
9.963201706
9.963201104
9.96317906
9.963174973
9.963126865
9.963114646
9.963137958
9.963171469
9.963167223
9.963192844
9.963193032
9.963171671
9.963167322
9.963119968
9.963110415
9.963132914
9.963164089
9.963159267
9.963184407
9.963184973
9.963163302
9.963162257
9.96311623
9.96310601
9.963128671
9.96315908
9.96315366
9.963179314
9.963276729
9.963277908
9.963274628
9.963257446
9.963278619
9.96324185
9.963269753
9.963300771
9.963274666
9.963274508
9.963274718
9.963268575
9.963247936
9.963266717
9.963232916
9.963264434
9.963298364
9.963272697
9.963271129
9.963270129
9.963261662
9.963235877
9.963252574
9.963220529
9.963255742
9.963294245
9.96326995
9.963267287
9.963262374
9.963251751
9.96322234
9.963236509
9.963205707
9.963245299
9.963288221
9.963265842
9.963262547
9.963256645
9.963238942
9.963207847
9.963219697
9.963192163
9.963234162
9.96328104
9.963259839
9.963257048
9.963248909
9.9632281
9.963194535
9.963205452
9.963177373
9.963223082
9.963273639
9.963252712
9.963249992
9.963239327
9.963216412
9.963180428
9.963191705
9.963163548
9.963212158
9.963265205
9.963245673
9.963241863
9.963230304
9.963204454
9.963168296
9.963179439
9.963151526
9.96320028
9.963256536
9.963237325
9.963232836
9.963220654
9.963192086
9.963156616
9.963168237
9.963140642
9.963188813
9.963247919
9.96322837
9.963224725
9.963210772
9.963181
9.963146181
9.963158788
9.96313073
9.963179049
9.963237743
9.963219477
9.963215295
9.96320284
9.963172088
9.963136786
9.963150616
9.963121997
9.963169388
9.963227823
9.963210767
9.963206203
9.963191789
9.963164065
9.963129219
9.96314332
9.963114875
9.963160956
9.963218405
9.963201492
9.963199213
9.963182312
9.963156023
9.963121559
9.963137227
9.963107326
9.963153214
9.96320944
9.963192175
9.963190797
9.96317361
9.963148141
9.963116098
9.96313246
9.963103134
9.963146636
9.963203203
9.963183767
9.963183768
9.963166919
9.963142925
9.963112436
9.963128845
9.963098411
9.963141087
9.963196345
9.963177659
)
;
    }
    inlet
    {
        type            calculated;
        value           nonuniform 0();
    }
    outlet
    {
        type            calculated;
        value           nonuniform List<scalar> 
81
(
9.963184973
9.963163302
9.963162257
9.96311623
9.96310601
9.963128671
9.96315908
9.96315366
9.963179314
9.963153811
9.96314663
9.963114248
9.963086406
9.963073816
9.963090095
9.963088431
9.963163342
9.963158665
9.963119755
9.963124456
9.963069406
9.963033971
9.963028169
9.963049137
9.963059724
9.963112829
9.96316427
9.963125115
9.963094665
9.96303426
9.962999242
9.963120799
9.962994441
9.963051501
9.963067621
9.96311291
9.963115674
9.963076482
9.963015999
9.963110808
10.05557055
9.963075206
9.963029389
9.963084435
9.963132972
9.963143199
9.96309326
9.963021291
9.96300669
9.963078176
9.963016373
9.963050759
9.963124395
9.963124168
9.963138433
9.963086467
9.963038267
9.963033214
9.963028691
9.963045295
9.963063447
9.963138372
9.963151482
9.963157155
9.963140293
9.963120118
9.963094009
9.96307049
9.963079243
9.963129727
9.963139688
9.963163049
9.963183768
9.963166919
9.963142925
9.963112436
9.963128845
9.963098411
9.963141087
9.963196345
9.963177659
)
;
    }
    procBoundary1to0
    {
        type            processor;
        value           nonuniform List<scalar> 
97
(
9.963280817
9.963280817
9.963270731
9.963289441
9.963260252
9.96325958
9.963272356
9.963281185
9.963261812
9.963274236
9.963263047
9.963267046
9.963267046
9.963267046
9.963256307
9.963243151
9.963222055
9.963250688
9.963239726
9.963283336
9.96326396
9.963252613
9.96327856
9.963233057
9.963233057
9.963233057
9.963177252
9.963080053
9.963186411
9.963219678
9.963258805
9.963293416
9.963274884
9.963268005
9.963236108
9.962941704
9.962941704
9.962941704
9.962400613
9.962940258
9.963190962
9.963224936
9.963257948
9.963272618
9.9632599
9.963197967
9.963007891
10.04782866
10.04782866
10.04782866
9.962351167
9.962351167
9.963082961
9.963244513
9.963282659
9.963298578
9.963267145
9.963218134
9.96317692
9.962973991
9.963182493
9.963188488
9.963188488
9.963188488
9.963280688
9.96327143
9.96326592
9.96324136
9.963218875
9.963230224
9.96321583
9.963243173
9.963246983
9.963282182
9.963282182
9.963282182
9.963280177
9.963265131
9.963267807
9.963275853
9.963272746
9.963251164
9.963249977
9.963278673
9.963268801
9.963269795
9.963269795
9.963269795
9.963277933
9.963280068
9.96327685
9.963262833
9.963286416
9.963247028
9.963273906
9.963302547
9.963275306
)
;
    }
}


// ************************************************************************* //
