/*--------------------------------*- C++ -*----------------------------------*\
| =========                 |                                                 |
| \\      /  F ield         | OpenFOAM: The Open Source CFD Toolbox           |
|  \\    /   O peration     | Version:  4.x                                   |
|   \\  /    A nd           | Web:      www.OpenFOAM.org                      |
|    \\/     M anipulation  |                                                 |
\*---------------------------------------------------------------------------*/
FoamFile
{
    version     2.0;
    format      ascii;
    class       volScalarField;
    location    "2000";
    object      N2;
}
// * * * * * * * * * * * * * * * * * * * * * * * * * * * * * * * * * * * * * //

dimensions      [0 0 0 0 0 0 0];

internalField   nonuniform List<scalar> 
1174
(
0.6030918798
0.6030903718
0.6030882449
0.6030854736
0.6030820883
0.6030781643
0.6030738065
0.6030691338
0.6030642664
0.6030593171
0.6030543901
0.6030495965
0.6030451329
0.6030416278
0.603090469
0.6030880581
0.6030848512
0.6030809237
0.6030764115
0.6030714786
0.6030662912
0.603061
0.6030557318
0.6030505876
0.603045647
0.603040987
0.6030367567
0.6030334927
0.6030873576
0.6030831069
0.6030778536
0.6030718944
0.6030655496
0.6030591056
0.6030527886
0.6030467592
0.6030411191
0.6030359229
0.6030311938
0.6030269457
0.603023247
0.6030204774
0.6030828077
0.603076217
0.603068659
0.6030606862
0.6030527577
0.6030452022
0.6030382245
0.6030319291
0.6030263481
0.6030214658
0.6030172394
0.6030136212
0.603010606
0.6030084221
0.6030795657
0.6030716938
0.6030631143
0.6030544307
0.6030460783
0.6030383343
0.6030313489
0.603025179
0.6030198183
0.6030152214
0.6030113222
0.6030080529
0.6030053833
0.6030034813
0.6030828078
0.6030762172
0.6030686592
0.6030606864
0.6030527579
0.6030452026
0.6030382249
0.6030319295
0.6030263485
0.6030214663
0.60301724
0.6030136218
0.6030106066
0.6030084227
0.6030873577
0.6030831071
0.6030778538
0.6030718947
0.6030655499
0.603059106
0.6030527891
0.6030467598
0.6030411197
0.6030359237
0.6030311946
0.6030269466
0.603023248
0.6030204785
0.6030904691
0.6030880582
0.6030848514
0.6030809239
0.6030764117
0.603071479
0.6030662916
0.6030610005
0.6030557325
0.6030505884
0.6030456479
0.603040988
0.6030367578
0.6030334939
0.6030918799
0.6030903719
0.603088245
0.6030854737
0.6030820884
0.6030781645
0.6030738068
0.6030691343
0.603064267
0.6030593178
0.603054391
0.6030495975
0.603045134
0.6030416291
0.603092099
0.6030904691
0.6030880581
0.6030848512
0.6030809237
0.6030764115
0.6030714787
0.6030662912
0.603061
0.6030557319
0.6030505877
0.603045647
0.603040987
0.6030367568
0.6030334928
0.603087296
0.6030830752
0.6030779341
0.603072182
0.6030661284
0.6030600333
0.6030540895
0.6030484255
0.6030431169
0.6030382005
0.6030336899
0.6030295968
0.6030259942
0.6030232723
0.6030793273
0.6030711502
0.6030622727
0.6030534445
0.603045177
0.6030377474
0.6030312547
0.6030256835
0.6030209557
0.6030169669
0.6030136097
0.6030107917
0.6030084709
0.603006799
0.6030651966
0.6030516321
0.6030387484
0.6030275031
0.6030182266
0.6030108698
0.6030052004
0.6030009271
0.6029977645
0.6029954629
0.602993816
0.6029926606
0.6029918744
0.6029913967
0.6030518947
0.6030355976
0.603021801
0.6030108595
0.6030025517
0.6029964522
0.60299211
0.6029891213
0.6029871514
0.6029859342
0.6029852632
0.6029849781
0.6029849477
0.602985036
0.603065197
0.6030516325
0.6030387489
0.6030275037
0.6030182272
0.6030108704
0.6030052011
0.6030009278
0.6029977653
0.6029954636
0.6029938168
0.6029926614
0.6029918752
0.6029913975
0.6030793276
0.6030711506
0.6030622732
0.6030534451
0.6030451776
0.6030377481
0.6030312555
0.6030256844
0.6030209567
0.603016968
0.6030136108
0.6030107929
0.6030084721
0.6030068004
0.6030872962
0.6030830754
0.6030779343
0.6030721823
0.6030661289
0.6030600338
0.6030540901
0.6030484263
0.6030431178
0.6030382016
0.6030336911
0.6030295981
0.6030259956
0.6030232738
0.6030904691
0.6030880582
0.6030848514
0.6030809239
0.6030764118
0.6030714791
0.6030662918
0.6030610007
0.6030557327
0.6030505887
0.6030456482
0.6030409883
0.6030367582
0.6030334944
0.603090418
0.6030873577
0.603083107
0.6030778537
0.6030718946
0.6030655497
0.6030591057
0.6030527887
0.6030467594
0.6030411192
0.6030359231
0.6030311939
0.6030269458
0.6030232471
0.6030204776
0.6030859393
0.6030793274
0.6030711504
0.6030622729
0.6030534447
0.6030451772
0.6030377475
0.6030312548
0.6030256836
0.6030209558
0.603016967
0.6030136098
0.6030107918
0.603008471
0.6030067991
0.6030558429
0.6030386488
0.6030231006
0.6030103658
0.6030006773
0.6029937485
0.6029890817
0.6029861507
0.6029844876
0.602983713
0.6029835354
0.6029837362
0.6029841415
0.6029845557
0.6030037355
0.6029747809
0.6029548427
0.6029430897
0.6029375771
0.6029363518
0.6029378419
0.60294091
0.6029447864
0.6029489739
0.6029531627
0.6029571546
0.6029607618
0.6029635206
0.6029356505
0.6029069136
0.6028945991
0.602892451
0.6028960058
0.6029024556
0.6029101375
0.6029181063
0.6029258469
0.6029330963
0.602939733
0.6029456972
0.6029508792
0.6029547498
0.603003737
0.6029747823
0.602954844
0.6029430911
0.6029375785
0.6029363532
0.6029378432
0.6029409113
0.6029447877
0.6029489751
0.6029531639
0.6029571558
0.6029607629
0.6029635217
0.6030558442
0.6030386498
0.6030231017
0.6030103669
0.6030006787
0.60299375
0.6029890833
0.6029861523
0.6029844893
0.6029837147
0.6029835371
0.602983738
0.6029841433
0.6029845575
0.6030793276
0.6030711507
0.6030622733
0.6030534453
0.6030451779
0.6030377485
0.603031256
0.6030256849
0.6030209573
0.6030169686
0.6030136115
0.6030107936
0.6030084729
0.6030068012
0.6030873577
0.6030831071
0.6030778538
0.6030718949
0.6030655502
0.6030591064
0.6030527896
0.6030467604
0.6030411205
0.6030359245
0.6030311956
0.6030269476
0.6030232491
0.6030204797
0.6030878983
0.6030828079
0.6030762173
0.6030686593
0.6030606865
0.603052758
0.6030452026
0.6030382249
0.6030319295
0.6030263484
0.6030214661
0.6030172398
0.6030136216
0.6030106063
0.6030084224
0.6030776915
0.603065197
0.6030516325
0.6030387488
0.6030275036
0.6030182271
0.6030108702
0.6030052008
0.6030009274
0.6029977649
0.6029954632
0.6029938163
0.6029926609
0.6029918747
0.602991397
0.6030391267
0.6030037361
0.6029747815
0.6029548432
0.6029430902
0.6029375775
0.6029363522
0.6029378422
0.6029409103
0.6029447866
0.6029489741
0.6029531629
0.6029571548
0.602960762
0.6029635208
0.6028254994
0.6027891946
0.6027832518
0.6027937351
0.6028115352
0.6028315174
0.602851082
0.602869072
0.6028850907
0.602899113
0.6029112728
0.602921732
0.6029305125
0.6029369197
0.6024766368
0.602522275
0.6025922897
0.6026594086
0.60271644
0.6027629634
0.6028004889
0.6028307964
0.6028554379
0.6028756436
0.6028923481
0.6029062203
0.6029175752
0.6029257291
0.6028255048
0.6027891983
0.6027832549
0.602793738
0.6028115379
0.6028315199
0.6028510843
0.6028690741
0.6028850926
0.6028991148
0.6029112745
0.6029217336
0.602930514
0.6029369212
0.6030037369
0.6029747827
0.6029548449
0.6029430923
0.6029375798
0.6029363547
0.6029378447
0.6029409129
0.6029447892
0.6029489766
0.6029531654
0.6029571572
0.6029607643
0.6029635231
0.6030651969
0.6030516327
0.6030387493
0.6030275044
0.6030182283
0.6030108717
0.6030052026
0.6030009294
0.602997767
0.6029954654
0.6029938187
0.6029926633
0.6029918772
0.6029913995
0.6030828077
0.6030762172
0.6030686594
0.6030606868
0.6030527586
0.6030452035
0.6030382261
0.6030319309
0.6030263501
0.603021468
0.6030172419
0.6030136239
0.6030106087
0.603008425
0.6030860116
0.603079566
0.6030716941
0.6030631147
0.6030544311
0.6030460787
0.6030383348
0.6030313494
0.6030251795
0.6030198188
0.6030152219
0.6030113227
0.6030080534
0.6030053838
0.6030034818
0.6030690996
0.6030518951
0.6030355983
0.6030218017
0.6030108602
0.6030025524
0.6029964528
0.6029921106
0.6029891218
0.6029871519
0.6029859347
0.6029852637
0.6029849786
0.6029849481
0.6029850364
0.6029867418
0.6029356514
0.602906915
0.6028946004
0.6028924521
0.6028960068
0.6029024564
0.6029101383
0.602918107
0.6029258475
0.6029330969
0.6029397335
0.6029456977
0.6029508796
0.6029547502
0.6025383216
0.602476641
0.6025222779
0.6025922918
0.6026594101
0.6027164412
0.6027629643
0.6028004896
0.602830797
0.6028554384
0.602875644
0.6028923485
0.6029062207
0.6029175754
0.6029257293
0.60097534
0.6017380051
0.602160947
0.6024088417
0.6025625148
0.6026630962
0.6027323118
0.602782096
0.602819274
0.602847909
0.6028705106
0.6028886478
0.6029031323
0.6029133786
0.6024766362
0.6025222806
0.602592296
0.6026594144
0.602716445
0.6027629678
0.6028004927
0.6028307997
0.6028554409
0.6028756462
0.6028923505
0.6029062225
0.6029175772
0.602925731
0.6029356501
0.6029069155
0.6028946021
0.6028924546
0.6028960097
0.6029024595
0.6029101414
0.60291811
0.6029258505
0.6029330998
0.6029397363
0.6029457004
0.6029508822
0.6029547527
0.6030518946
0.6030355982
0.6030218022
0.6030108613
0.6030025539
0.6029964547
0.6029921127
0.6029891242
0.6029871544
0.6029859374
0.6029852664
0.6029849814
0.6029849509
0.6029850393
0.6030795657
0.603071694
0.6030631148
0.6030544315
0.6030460795
0.6030383359
0.6030313509
0.6030251812
0.6030198208
0.6030152241
0.6030113252
0.603008056
0.6030053865
0.6030034847
0.6030878984
0.603082808
0.6030762175
0.6030686596
0.6030606869
0.6030527585
0.6030452031
0.6030382255
0.6030319301
0.6030263491
0.6030214668
0.6030172405
0.6030136224
0.6030106071
0.6030084233
0.6030776917
0.6030651975
0.6030516332
0.6030387496
0.6030275044
0.603018228
0.6030108711
0.6030052018
0.6030009285
0.6029977659
0.6029954643
0.6029938174
0.602992662
0.6029918758
0.6029913981
0.6030391289
0.6030037383
0.6029747839
0.6029548456
0.6029430925
0.6029375797
0.6029363543
0.6029378442
0.6029409123
0.6029447885
0.6029489759
0.6029531646
0.6029571565
0.6029607635
0.6029635223
0.602907179
0.6028255087
0.6027892019
0.6027832578
0.6027937403
0.6028115397
0.6028315213
0.6028510855
0.6028690751
0.6028850935
0.6028991155
0.6029112751
0.6029217342
0.6029305146
0.6029369217
0.602538322
0.6024766425
0.6025222847
0.6025922987
0.6026594162
0.6027164464
0.6027629688
0.6028004935
0.6028308004
0.6028554414
0.6028756467
0.6028923509
0.6029062229
0.6029175775
0.6029257313
0.6029071776
0.6028255092
0.6027892036
0.6027832601
0.6027937428
0.6028115423
0.6028315238
0.6028510879
0.6028690773
0.6028850955
0.6028991174
0.6029112769
0.6029217359
0.6029305162
0.6029369232
0.6030037354
0.6029747831
0.6029548462
0.602943094
0.6029375818
0.6029363568
0.6029378468
0.6029409149
0.6029447912
0.6029489785
0.6029531672
0.602957159
0.602960766
0.6029635247
0.6030651965
0.6030516327
0.6030387497
0.6030275051
0.6030182291
0.6030108727
0.6030052037
0.6030009306
0.6029977682
0.6029954667
0.6029938199
0.6029926646
0.6029918785
0.6029914008
0.6030828076
0.6030762172
0.6030686595
0.6030606871
0.603052759
0.603045204
0.6030382267
0.6030319317
0.603026351
0.6030214689
0.6030172429
0.6030136249
0.6030106098
0.6030084261
0.6030904181
0.6030873578
0.6030831073
0.603077854
0.603071895
0.6030655503
0.6030591064
0.6030527895
0.6030467603
0.6030411202
0.6030359242
0.6030311951
0.6030269471
0.6030232485
0.603020479
0.6030859397
0.6030793279
0.603071151
0.6030622737
0.6030534456
0.6030451782
0.6030377487
0.6030312561
0.603025685
0.6030209573
0.6030169686
0.6030136115
0.6030107935
0.6030084727
0.6030068009
0.6030722619
0.6030558449
0.6030386508
0.6030231027
0.603010368
0.6030006797
0.6029937509
0.6029890842
0.6029861532
0.6029844901
0.6029837155
0.6029835379
0.6029837386
0.602984144
0.6029845581
0.603039129
0.6030037388
0.6029747848
0.6029548468
0.602943094
0.6029375814
0.6029363561
0.6029378459
0.602940914
0.6029447901
0.6029489775
0.6029531661
0.6029571579
0.602960765
0.6029635237
0.6029867421
0.6029356535
0.6029069185
0.6028946046
0.6028924566
0.6028960113
0.6029024609
0.6029101425
0.602918111
0.6029258513
0.6029331005
0.6029397369
0.6029457009
0.6029508828
0.6029547532
0.6030391292
0.6030037392
0.6029747856
0.6029548479
0.6029430953
0.6029375828
0.6029363575
0.6029378474
0.6029409155
0.6029447916
0.6029489789
0.6029531675
0.6029571593
0.6029607663
0.602963525
0.6030722612
0.6030558444
0.6030386507
0.6030231031
0.6030103689
0.6030006809
0.6029937525
0.6029890859
0.6029861551
0.6029844921
0.6029837176
0.6029835399
0.6029837407
0.6029841461
0.6029845602
0.6030793273
0.6030711507
0.6030622737
0.603053446
0.603045179
0.6030377498
0.6030312575
0.6030256866
0.6030209591
0.6030169706
0.6030136135
0.6030107957
0.603008475
0.6030068033
0.6030873575
0.6030831071
0.6030778539
0.6030718951
0.6030655507
0.6030591071
0.6030527905
0.6030467615
0.6030411217
0.6030359259
0.6030311971
0.6030269493
0.6030232508
0.6030204815
0.6030920991
0.6030904692
0.6030880584
0.6030848516
0.6030809241
0.603076412
0.6030714793
0.603066292
0.6030610009
0.6030557329
0.6030505889
0.6030456483
0.6030409885
0.6030367583
0.6030334945
0.6030903755
0.6030872964
0.6030830757
0.6030779347
0.6030721827
0.6030661293
0.6030600343
0.6030540906
0.6030484268
0.6030431183
0.6030382022
0.6030336917
0.6030295986
0.6030259962
0.6030232744
0.6030859397
0.603079328
0.6030711512
0.6030622739
0.603053446
0.6030451787
0.6030377492
0.6030312567
0.6030256857
0.603020958
0.6030169694
0.6030136122
0.6030107943
0.6030084736
0.6030068018
0.6030776918
0.6030651977
0.6030516337
0.6030387504
0.6030275055
0.6030182294
0.6030108727
0.6030052035
0.6030009303
0.6029977679
0.6029954663
0.6029938194
0.6029926641
0.6029918779
0.6029914002
0.6030690997
0.6030518958
0.6030355995
0.6030218035
0.6030108625
0.603002555
0.6029964557
0.6029921137
0.6029891251
0.6029871552
0.6029859381
0.6029852671
0.602984982
0.6029849515
0.6029850398
0.6030776919
0.6030651978
0.603051634
0.6030387508
0.603027506
0.60301823
0.6030108734
0.6030052044
0.6030009312
0.6029977688
0.6029954672
0.6029938204
0.602992665
0.6029918789
0.6029914012
0.6030859397
0.603079328
0.6030711513
0.6030622742
0.6030534464
0.6030451793
0.6030377501
0.6030312577
0.6030256868
0.6030209593
0.6030169708
0.6030136137
0.6030107959
0.6030084752
0.6030068035
0.6030903753
0.6030872962
0.6030830756
0.6030779347
0.6030721829
0.6030661297
0.6030600349
0.6030540915
0.6030484278
0.6030431196
0.6030382036
0.6030336932
0.6030296003
0.603025998
0.6030232763
0.603090469
0.6030880582
0.6030848515
0.6030809242
0.6030764122
0.6030714797
0.6030662926
0.6030610017
0.603055734
0.6030505901
0.6030456498
0.6030409902
0.6030367602
0.6030334965
0.6030928511
0.60309188
0.603090372
0.6030882452
0.6030854739
0.6030820887
0.6030781648
0.6030738072
0.6030691346
0.6030642674
0.6030593182
0.6030543914
0.6030495979
0.6030451345
0.6030416296
0.6030920991
0.6030904692
0.6030880584
0.6030848516
0.6030809242
0.6030764121
0.6030714795
0.6030662922
0.6030610011
0.6030557332
0.6030505892
0.6030456487
0.6030409889
0.6030367588
0.603033495
0.6030904181
0.6030873579
0.6030831074
0.6030778542
0.6030718953
0.6030655507
0.6030591069
0.6030527902
0.603046761
0.6030411211
0.6030359252
0.6030311962
0.6030269483
0.6030232497
0.6030204803
0.6030878984
0.6030828081
0.6030762177
0.60306866
0.6030606875
0.6030527594
0.6030452043
0.6030382268
0.6030319317
0.6030263509
0.6030214688
0.6030172426
0.6030136246
0.6030106094
0.6030084257
0.6030860116
0.6030795662
0.6030716946
0.6030631156
0.6030544323
0.6030460803
0.6030383367
0.6030313517
0.603025182
0.6030198215
0.6030152248
0.6030113258
0.6030080567
0.6030053871
0.6030034853
0.6030878984
0.6030828081
0.6030762178
0.6030686602
0.6030606877
0.6030527597
0.6030452046
0.6030382273
0.6030319322
0.6030263515
0.6030214694
0.6030172433
0.6030136253
0.6030106102
0.6030084265
0.6030904181
0.6030873579
0.6030831074
0.6030778543
0.6030718955
0.603065551
0.6030591074
0.6030527908
0.6030467618
0.603041122
0.6030359262
0.6030311974
0.6030269495
0.6030232511
0.6030204817
0.6030920991
0.6030904692
0.6030880584
0.6030848516
0.6030809243
0.6030764124
0.6030714798
0.6030662927
0.6030610019
0.6030557341
0.6030505903
0.60304565
0.6030409903
0.6030367603
0.6030334966
0.6030928511
0.6030918799
0.603090372
0.6030882452
0.603085474
0.6030820888
0.6030781651
0.6030738076
0.6030691353
0.6030642682
0.6030593192
0.6030543926
0.6030495994
0.6030451362
0.6030416314
)
;

boundaryField
{
    top
    {
        type            zeroGradient;
    }
    bottom
    {
        type            zeroGradient;
    }
    side-walls
    {
        type            zeroGradient;
    }
    inlet
    {
        type            zeroGradient;
    }
    outlet
    {
        type            zeroGradient;
    }
    procBoundary1to0
    {
        type            processor;
        value           nonuniform List<scalar> 
97
(
0.6030928511
0.6030928511
0.6030920991
0.6030904181
0.6030878985
0.6030860119
0.6030878986
0.6030904182
0.6030920991
0.6030928511
0.6030930641
0.6030903753
0.6030903753
0.6030903753
0.6030859397
0.6030776921
0.6030691006
0.6030776924
0.60308594
0.6030903756
0.6030920991
0.6030923016
0.6030903342
0.6030722611
0.6030722611
0.6030722611
0.6030391296
0.6029867468
0.6030391313
0.6030722628
0.60308594
0.6030904182
0.6030911868
0.6030868724
0.6030718189
0.6029071751
0.6029071751
0.6029071751
0.6025383509
0.6029071862
0.6030391311
0.6030776923
0.6030878985
0.6030903926
0.6030836146
0.6030551517
0.6029428653
0.5995229529
0.5995229529
0.5995229529
0.6025383475
0.6025383475
0.602986746
0.6030691004
0.6030860118
0.6030911868
0.6030868724
0.6030718188
0.6030281841
0.6029428638
0.6030281849
0.6030391275
0.6030391275
0.6030391275
0.6030776918
0.6030878984
0.6030923016
0.6030903342
0.6030845812
0.6030718188
0.6030551515
0.603071819
0.6030845812
0.6030859394
0.6030859394
0.6030859394
0.603090418
0.6030930641
0.6030922866
0.6030903342
0.6030868724
0.6030836146
0.6030868725
0.6030903342
0.6030922866
0.603092099
0.603092099
0.603092099
0.6030934098
0.6030930641
0.6030923017
0.6030911868
0.6030903926
0.6030911868
0.6030923017
0.6030930641
0.6030934098
)
;
    }
}


// ************************************************************************* //
