/*--------------------------------*- C++ -*----------------------------------*\
| =========                 |                                                 |
| \\      /  F ield         | OpenFOAM: The Open Source CFD Toolbox           |
|  \\    /   O peration     | Version:  4.x                                   |
|   \\  /    A nd           | Web:      www.OpenFOAM.org                      |
|    \\/     M anipulation  |                                                 |
\*---------------------------------------------------------------------------*/
FoamFile
{
    version     2.0;
    format      ascii;
    class       surfaceScalarField;
    location    "2000";
    object      phi;
}
// * * * * * * * * * * * * * * * * * * * * * * * * * * * * * * * * * * * * * //

dimensions      [1 0 -1 0 0 0 0];

internalField   nonuniform List<scalar> 
3172
(
9.428674449e-06
-5.341848076e-11
-5.207533509e-11
9.428769004e-06
-4.670033729e-11
-4.626686395e-11
9.428838982e-06
-3.489532544e-11
-3.531128624e-11
9.428887947e-06
-2.23087346e-11
-2.400189277e-11
9.428919854e-06
-1.371999324e-11
-1.413376077e-11
9.428933986e-06
-7.671257267e-12
-7.711905708e-12
9.428938917e-06
-3.773004354e-12
-1.340059238e-13
9.428934497e-06
2.394839086e-12
2.977928639e-12
9.428927299e-06
4.731296546e-12
4.288974055e-12
9.428910833e-06
4.026753498e-12
6.260547871e-12
9.428894258e-06
6.69085789e-12
7.531350277e-12
9.428877862e-06
9.01472375e-12
8.609873608e-12
9.428857489e-06
1.065294041e-11
1.056867172e-11
9.339641585e-12
9.523043161e-12
9.428693586e-06
-9.381961351e-11
-6.727033007e-11
9.428788439e-06
-8.228082487e-11
-6.040086777e-11
9.428854578e-06
-5.630928148e-11
-4.133387837e-11
9.428890681e-06
-3.746795195e-11
-2.588611111e-11
9.428909386e-06
-2.207676537e-11
-1.209420445e-11
9.428914473e-06
-9.372447529e-12
-2.456958178e-12
9.428911919e-06
-1.072499381e-13
5.243056405e-12
9.428899253e-06
5.472233567e-12
6.999972219e-12
9.428885294e-06
9.76987367e-12
9.520085395e-12
9.428871452e-06
1.224718054e-11
1.073305343e-11
9.428854649e-06
1.307622131e-11
1.284899478e-11
9.428838316e-06
1.286615524e-11
1.202910604e-11
9.428819436e-06
1.694778136e-11
1.378239909e-11
1.524014376e-11
1.199678063e-11
9.428769195e-06
-9.401173695e-11
-1.2591413e-10
9.428865021e-06
-7.584734501e-11
-1.035586459e-10
9.428911529e-06
-4.916842417e-11
-6.133793496e-11
9.428927106e-06
-2.606330946e-11
-2.870267236e-11
9.42892536e-06
-1.135388707e-11
-5.469532445e-12
9.428913613e-06
-1.753604606e-12
5.88589501e-12
9.428897401e-06
7.107272462e-12
1.406417963e-11
9.428877327e-06
9.815080536e-12
1.558949443e-11
9.428857956e-06
9.493527639e-12
1.646862209e-11
9.428841067e-06
1.091606835e-11
1.584956429e-11
9.428826317e-06
1.226726142e-11
1.602717054e-11
9.428813209e-06
1.378476656e-11
1.564548663e-11
9.428797635e-06
1.53741473e-11
1.626229079e-11
1.399622534e-11
1.383292502e-11
9.428789584e-06
-6.993675508e-11
-1.217723244e-10
9.428867894e-06
-4.668664117e-11
-1.083652138e-10
9.428897236e-06
-2.606335143e-11
-5.08912073e-11
9.428893462e-06
-1.072826266e-11
-1.001573597e-11
9.428875504e-06
-4.045309646e-12
1.149371282e-11
9.428855404e-06
9.681642301e-13
2.285461867e-11
9.428828412e-06
5.487798323e-13
2.642576425e-11
9.42880536e-06
1.787693933e-12
2.522870084e-11
9.42879158e-06
4.410584605e-12
2.430822586e-11
9.428776788e-06
6.049784851e-12
2.26920343e-11
9.428762838e-06
4.64965156e-12
2.168675413e-11
9.428751989e-06
5.959503182e-12
1.885334074e-11
9.428742601e-06
6.735387116e-12
2.073489966e-11
5.018847306e-12
1.601775452e-11
9.428885018e-06
6.984650041e-11
-2.377697499e-10
9.428929933e-06
4.514119221e-11
-1.376441679e-10
9.42892766e-06
2.385362006e-11
-4.728166248e-11
9.428899016e-06
1.177258904e-11
3.231069528e-12
9.42886798e-06
5.240081734e-12
2.294556207e-11
9.428837465e-06
1.166890175e-12
3.079333418e-11
9.428810248e-06
-1.952562557e-12
3.214511716e-11
9.42878699e-06
-3.578440376e-12
3.052332361e-11
9.42876873e-06
-2.881818131e-12
2.603965178e-11
9.428752966e-06
-5.196667305e-12
2.272766662e-11
9.428745686e-06
-5.292580056e-12
2.231958663e-11
9.428737921e-06
-3.752364929e-12
1.843483224e-11
9.428729203e-06
-4.406383776e-12
1.992832654e-11
-4.962902302e-12
1.671270136e-11
9.428799901e-06
9.355660659e-11
-1.214855329e-10
9.428878796e-06
7.514255405e-11
-1.090237669e-10
9.428908466e-06
4.827707341e-11
-5.163688198e-11
9.428902348e-06
2.396303373e-11
-1.151630843e-11
9.428885106e-06
1.029305349e-11
9.162708267e-12
9.428861483e-06
1.599971338e-12
2.140887211e-11
9.428838257e-06
-2.837518264e-12
2.619549067e-11
9.428818999e-06
-7.159133443e-12
2.60227744e-11
9.428800155e-06
-1.145841421e-11
2.488294424e-11
9.428785774e-06
-1.366145746e-11
2.114256623e-11
9.428775528e-06
-1.296910958e-11
2.178910839e-11
9.428765429e-06
-1.317874854e-11
1.839442436e-11
9.428752393e-06
-1.588849125e-11
1.972070096e-11
-1.200232639e-11
1.64555359e-11
9.428760405e-06
9.454253634e-11
-1.265644751e-10
9.428856425e-06
8.285537049e-11
-1.047508067e-10
9.428906134e-06
5.705136123e-11
-6.100281771e-11
9.428924267e-06
3.645039536e-11
-2.802677348e-11
9.428920245e-06
2.039047199e-11
-8.274998949e-12
9.428908713e-06
8.964922088e-12
4.531187608e-12
9.428891793e-06
1.709702387e-12
1.312340824e-11
9.428872867e-06
-5.868340249e-12
1.656414958e-11
9.428855078e-06
-9.925358515e-12
1.814245046e-11
9.428839348e-06
-1.089572013e-11
1.854259412e-11
9.428824867e-06
-1.168254081e-11
1.790366382e-11
9.428810869e-06
-1.400306407e-11
1.479752654e-11
9.428797352e-06
-1.54780829e-11
1.706990981e-11
-1.518814456e-11
1.482659395e-11
9.428683462e-06
5.207448406e-11
-6.775775493e-11
9.428777641e-06
4.646073257e-11
-6.172919157e-11
9.428845519e-06
3.584512872e-11
-4.118444928e-11
9.428884378e-06
2.438237639e-11
-2.519809215e-11
9.428903935e-06
1.373469509e-11
-1.423608597e-11
9.428909019e-06
5.671716712e-12
-4.23610353e-12
9.428902192e-06
6.006282669e-13
7.839532651e-13
9.428891023e-06
-2.370132955e-12
7.749242718e-12
9.428878112e-06
-5.125923813e-12
1.02616367e-11
9.42886229e-06
-5.304661144e-12
1.049714679e-11
9.428847008e-06
-6.105732917e-12
1.136432528e-11
9.428830819e-06
-8.613493769e-12
1.136640957e-11
9.428810947e-06
-1.167799754e-11
1.329887252e-11
-1.031866851e-11
1.213259891e-11
9.428667112e-06
-5.240929933e-11
9.428761475e-06
-4.731529637e-11
9.428832092e-06
-3.436364512e-11
9.428879104e-06
-2.408165026e-11
9.428912297e-06
-1.43777828e-11
9.428927135e-06
-8.654439459e-12
9.42893038e-06
-5.218261298e-12
9.428927531e-06
1.20171147e-13
9.428918543e-06
4.562643875e-12
9.428903914e-06
5.065953323e-12
9.428887691e-06
5.213006567e-12
9.42887139e-06
7.176862677e-12
9.428851027e-06
1.001867118e-11
1.071537518e-11
9.428574902e-06
-1.508549941e-10
9.428683628e-06
-6.748509534e-11
-9.488557205e-11
9.428778892e-06
-5.987457328e-11
-8.135410822e-11
9.428844608e-06
-4.028841833e-11
-5.627590449e-11
9.428882927e-06
-2.384424984e-11
-3.405290116e-11
9.428901567e-06
-1.11284663e-11
-1.917863065e-11
9.428907722e-06
-2.204816663e-12
-7.100848208e-12
9.428900411e-06
2.851782034e-12
1.040325341e-12
9.428889829e-06
7.871301329e-12
6.594453187e-12
9.428876605e-06
1.033843291e-11
9.948172505e-12
9.428858833e-06
9.40565134e-12
1.135041224e-11
9.428842731e-06
1.28883634e-11
1.491916009e-11
9.428828046e-06
1.325300732e-11
1.529537491e-11
9.428807872e-06
1.450891343e-11
1.803386465e-11
1.289488661e-11
1.635757838e-11
9.428731726e-06
-1.194331789e-10
-1.190295894e-10
9.428817825e-06
-1.051619646e-10
-1.047181096e-10
9.428869112e-06
-6.755313712e-11
-6.771386601e-11
9.428888199e-06
-3.557983496e-11
-3.494191502e-11
9.428890858e-06
-1.396312693e-11
-1.316363564e-11
9.428884517e-06
5.209848467e-13
2.454774014e-12
9.428871189e-06
1.070067707e-11
1.089158708e-11
9.428857884e-06
1.603685489e-11
1.580486789e-11
9.428842489e-06
1.867716231e-11
1.949246907e-11
9.42882954e-06
2.026506727e-11
1.888028486e-11
9.428813556e-06
1.854888932e-11
1.99840982e-11
9.428800135e-06
1.919815285e-11
1.909116689e-11
9.428785709e-06
2.127337416e-11
1.976391912e-11
1.887079312e-11
1.838350945e-11
9.428816164e-06
-1.196973896e-10
-2.295645544e-10
9.428877699e-06
-9.514271737e-11
-1.751577917e-10
9.428887547e-06
-4.875197089e-11
-8.846575537e-11
9.428870576e-06
-1.586606115e-11
-2.992825554e-11
9.428845082e-06
1.156951912e-12
2.916501626e-12
9.428822669e-06
1.215088656e-11
2.286472241e-11
9.428797442e-06
1.716690755e-11
2.943292393e-11
9.428780373e-06
1.888231272e-11
2.997894923e-11
9.428767877e-06
1.748705427e-11
3.041798105e-11
9.428757952e-06
1.745585485e-11
2.840853962e-11
9.428750426e-06
1.836974769e-11
2.591815536e-11
9.428744334e-06
1.763420168e-11
2.356862163e-11
9.4287399e-06
1.995082512e-11
2.709079314e-11
1.609049063e-11
2.223194938e-11
9.42885238e-06
-7.378352511e-11
-1.621100198e-10
9.428860846e-06
-5.007855959e-11
-1.625832999e-10
9.42883337e-06
-2.388192477e-11
-5.129763155e-11
9.428792931e-06
-4.970590673e-12
1.752734583e-11
9.428757903e-06
1.636696907e-12
4.409525735e-11
9.428735175e-06
6.723457196e-12
5.455733676e-11
9.428716388e-06
6.062653191e-12
5.430431469e-11
9.428705126e-06
7.941080156e-12
4.941885988e-11
9.428701886e-06
7.763177456e-12
4.306164083e-11
9.428700953e-06
7.727676985e-12
3.562666391e-11
9.428698597e-06
6.879608558e-12
3.164949953e-11
9.428704501e-06
7.323003589e-12
2.72493675e-11
9.428704739e-06
7.545828691e-12
3.001008085e-11
7.422574708e-12
2.687840411e-11
9.428997672e-06
7.337236115e-11
-2.885188693e-10
9.428905509e-06
4.79240534e-11
-1.445853956e-10
9.428827295e-06
2.069924705e-11
-8.489096606e-12
9.428760969e-06
3.956644512e-12
6.118439319e-11
9.428718833e-06
-3.630883663e-12
7.563265943e-11
9.428693976e-06
-6.519200473e-12
7.147927873e-11
9.428682322e-06
-8.318338599e-12
6.276582913e-11
9.428674102e-06
-1.001269699e-11
5.12788984e-11
9.428676239e-06
-6.531776755e-12
4.389512521e-11
9.428679705e-06
-8.313687308e-12
3.691386531e-11
9.428681541e-06
-8.070591349e-12
3.270555444e-11
9.428686183e-06
-5.862049065e-12
2.699309216e-11
9.428691249e-06
-6.684326477e-12
3.059387209e-11
-6.993913557e-12
2.506226342e-11
9.42885572e-06
1.179953308e-10
-1.634553599e-10
9.428865868e-06
9.283979989e-11
-1.623499994e-10
9.428842057e-06
4.753860082e-11
-4.934450121e-11
9.428799428e-06
1.45266605e-11
1.838894971e-11
9.428766942e-06
-2.153143785e-12
4.533785392e-11
9.42873914e-06
-1.350793026e-11
5.543028162e-11
9.428722097e-06
-1.527753905e-11
5.485536593e-11
9.428714805e-06
-1.748214136e-11
4.982842837e-11
9.428706498e-06
-1.915306107e-11
4.213128941e-11
9.428705932e-06
-1.778501015e-11
3.79278677e-11
9.428705828e-06
-1.761640642e-11
3.29493601e-11
9.428707876e-06
-1.807395189e-11
2.750902925e-11
9.428706983e-06
-1.973742751e-11
2.939871889e-11
-1.458443643e-11
2.646447971e-11
9.428796621e-06
1.208692597e-10
-2.292784188e-10
9.428859949e-06
1.050830505e-10
-1.740944506e-10
9.42886895e-06
6.844002311e-11
-8.650924682e-11
9.428849941e-06
3.565952259e-11
-2.837451565e-11
9.428824884e-06
1.263803463e-11
3.975284526e-12
9.428800593e-06
-6.007799597e-13
2.2741956e-11
9.428778106e-06
-1.118231743e-11
2.920458642e-11
9.428760724e-06
-1.525470794e-11
3.141425339e-11
9.428744779e-06
-1.821889066e-11
2.951657951e-11
9.428735839e-06
-1.960697595e-11
2.833643802e-11
9.428727701e-06
-2.005073185e-11
2.63585885e-11
9.428723845e-06
-1.825796396e-11
2.490522043e-11
9.428716393e-06
-2.056842422e-11
2.703613547e-11
-1.838274093e-11
2.179129763e-11
9.428745013e-06
6.739742436e-11
-1.228101012e-10
9.428835266e-06
6.156293261e-11
-1.046346948e-10
9.428883464e-06
4.27850547e-11
-6.807463245e-11
9.428903753e-06
2.59322165e-11
-3.488062059e-11
9.428907779e-06
1.387409926e-11
-1.308374603e-11
9.428899927e-06
2.081676009e-12
1.942907653e-12
9.428888109e-06
-5.33990897e-12
1.010789554e-11
9.428871646e-06
-1.085039171e-11
1.32706443e-11
9.428856511e-06
-1.127302653e-11
1.730930915e-11
9.428844072e-06
-1.091559354e-11
1.838142766e-11
9.428829911e-06
-1.245599442e-11
1.760342739e-11
9.428817128e-06
-1.329167107e-11
1.718507856e-11
9.428801192e-06
-1.402446164e-11
1.930210976e-11
-1.221256663e-11
1.760904898e-11
9.428685912e-06
-9.611634075e-11
9.428782003e-06
-8.314526829e-11
9.428845821e-06
-5.938947254e-11
9.428883503e-06
-3.647888231e-11
9.428902812e-06
-2.11682903e-11
9.428908167e-06
-9.075830753e-12
9.428904632e-06
-9.456760102e-13
9.428894614e-06
4.138328888e-12
9.428879621e-06
7.990934416e-12
9.42886669e-06
1.082530174e-11
9.428849717e-06
1.35244115e-11
9.428834044e-06
1.389263102e-11
9.428815686e-06
1.487750572e-11
1.37177937e-11
9.428609134e-06
-2.47659951e-10
-1.821535869e-10
9.428732875e-06
-1.232065619e-10
-9.293472887e-11
9.42882721e-06
-1.032036093e-10
-7.632745186e-11
9.428875903e-06
-6.060373655e-11
-4.931493373e-11
9.428891582e-06
-2.687768339e-11
-2.547840201e-11
9.428890602e-06
-6.239184218e-12
-1.119555293e-11
9.428877255e-06
6.632649675e-12
-1.553105322e-12
9.428858183e-06
1.300069699e-11
3.797785789e-12
9.428837574e-06
1.671889751e-11
7.079131691e-12
9.428821275e-06
2.004313391e-11
1.037234075e-11
9.428804834e-06
1.76114406e-11
1.05943876e-11
9.428788453e-06
1.794084097e-11
1.097609753e-11
9.428775477e-06
1.658877268e-11
1.166258982e-11
9.428760138e-06
1.777884549e-11
1.401395169e-11
1.603866358e-11
1.391095056e-11
9.42872315e-06
-3.456704168e-10
9.428823039e-06
-2.294732236e-10
-1.20263078e-10
9.428885378e-06
-1.749829736e-10
-9.579174229e-11
9.428897552e-06
-8.731281407e-11
-4.94587389e-11
9.42887886e-06
-3.055132482e-11
-1.748294805e-11
9.428853157e-06
2.464018701e-12
8.356750659e-13
9.428828113e-06
2.079089107e-11
1.110327857e-11
9.428807064e-06
2.902948646e-11
1.59605009e-11
9.428792383e-06
3.148205777e-11
1.770507663e-11
9.428775605e-06
3.026458887e-11
1.898574119e-11
9.42876744e-06
2.9252279e-11
1.710197867e-11
9.428758269e-06
2.567628532e-11
1.556578449e-11
9.428753821e-06
2.443712423e-11
1.530752213e-11
9.428750589e-06
2.874783568e-11
1.892200323e-11
2.235024346e-11
1.725266798e-11
9.428953208e-06
-2.474709435e-10
-2.483169699e-10
9.428917445e-06
-1.586827819e-10
-1.61601166e-10
9.428840085e-06
-4.750234731e-11
-4.907486957e-11
9.428764522e-06
9.901551319e-12
8.908735289e-12
9.428711904e-06
3.09316766e-11
3.187895073e-11
9.428682248e-06
3.794709681e-11
3.955977335e-11
9.428664235e-06
3.882984173e-11
3.716660927e-11
9.428660889e-06
3.610704121e-11
3.458482993e-11
9.428661804e-06
3.042453351e-11
2.955928603e-11
9.428667572e-06
2.506353587e-11
2.506953036e-11
9.428676233e-06
2.432021628e-11
2.302286172e-11
9.428684331e-06
2.099955158e-11
1.989683668e-11
9.428690335e-06
2.351220927e-11
2.283415175e-11
2.105190128e-11
2.068293422e-11
9.428902039e-06
-1.175808565e-10
-8.493465029e-12
9.428737911e-06
-7.374175731e-11
-8.537977593e-11
9.428613997e-06
-1.538747436e-11
4.072116532e-11
9.428540199e-06
1.289657388e-11
8.873747735e-11
9.428513753e-06
1.911258783e-11
8.820672044e-11
9.428514836e-06
1.865020197e-11
7.670692063e-11
9.428530025e-06
1.485889886e-11
6.298675524e-11
9.428551623e-06
1.218042815e-11
4.89205202e-11
9.428578029e-06
1.04538285e-11
4.064480477e-11
9.428603331e-06
9.985002277e-12
3.305157777e-11
9.428623056e-06
8.679763806e-12
2.831917307e-11
9.428646138e-06
8.952183287e-12
2.638734662e-11
9.428663751e-06
9.644133531e-12
2.693142192e-11
8.100901577e-12
2.389890149e-11
9.429135922e-06
1.164688624e-10
1.386146685e-10
9.428711053e-06
7.208932725e-11
1.384836453e-10
9.428518413e-06
1.324534943e-11
1.656964682e-10
9.428444419e-06
-1.317607278e-11
1.669303001e-10
9.428435723e-06
-2.00852137e-11
1.233643383e-10
9.428458986e-06
-1.879351983e-11
9.157514146e-11
9.428491543e-06
-1.693634223e-11
6.675650852e-11
9.428525934e-06
-1.297660975e-11
5.059195886e-11
9.428559034e-06
-1.079309994e-11
4.041999084e-11
9.428587628e-06
-8.546639783e-12
3.201952082e-11
9.428613253e-06
-8.980952738e-12
2.815066381e-11
9.428640766e-06
-7.739008041e-12
2.564778517e-11
9.42866419e-06
-8.916081516e-12
2.828375667e-11
-7.818545388e-12
2.253028531e-11
9.428908081e-06
2.464477541e-10
-6.252389849e-12
9.428744623e-06
1.590262667e-10
-8.529436777e-11
9.428622789e-06
4.790226571e-11
4.093316614e-11
9.428549495e-06
-1.027841197e-11
8.902258879e-11
9.428526215e-06
-3.19314002e-11
8.736899601e-11
9.428526283e-06
-3.924120822e-11
7.772058704e-11
9.428543483e-06
-3.800975091e-11
6.283439097e-11
9.428566242e-06
-3.462161214e-11
4.962412272e-11
9.428592353e-06
-3.106701273e-11
4.019739094e-11
9.428613396e-06
-2.827982093e-11
3.044720199e-11
9.428635381e-06
-2.532768392e-11
2.713445424e-11
9.428655997e-06
-2.118011029e-11
2.38299286e-11
9.428676323e-06
-2.259565714e-11
2.675369535e-11
-2.059078861e-11
2.300647463e-11
9.428941735e-06
2.28005452e-10
-2.457607055e-10
9.428905907e-06
1.743289714e-10
-1.604671425e-10
9.42882768e-06
8.597881458e-11
-4.926522233e-11
9.428751315e-06
2.773996273e-11
8.54017065e-12
9.428699492e-06
-4.496959737e-12
3.036978105e-11
9.428667518e-06
-2.141876564e-11
3.84230173e-11
9.428654271e-06
-3.027541373e-11
3.850856788e-11
9.42864786e-06
-3.285043794e-11
3.416096726e-11
9.42865159e-06
-3.0715678e-11
2.994587806e-11
9.428656704e-06
-2.919558181e-11
2.506815199e-11
9.428666846e-06
-2.791968504e-11
2.354575235e-11
9.428675456e-06
-2.537074946e-11
2.039680537e-11
9.428682126e-06
-2.79433632e-11
2.319940476e-11
-2.233624881e-11
2.175064338e-11
9.428815991e-06
1.266474428e-10
-1.176575711e-10
9.428876068e-06
1.025914584e-10
-9.537527165e-11
9.428888221e-06
6.03031079e-11
-4.932217441e-11
9.428869194e-06
2.84490303e-11
-1.594066892e-11
9.428845129e-06
6.908293417e-12
2.466814563e-12
9.428817508e-06
-7.655201986e-12
1.211854976e-11
9.428798126e-06
-1.43534883e-11
1.779726626e-11
9.428780607e-06
-1.823648504e-11
1.858613212e-11
9.428767338e-06
-1.947810352e-11
1.963093384e-11
9.428757374e-06
-1.74275487e-11
1.801201514e-11
9.428751599e-06
-1.552052444e-11
1.843309948e-11
9.428744434e-06
-1.51257265e-11
1.618838359e-11
9.428739183e-06
-1.687521428e-11
1.98934921e-11
-1.600549282e-11
1.566836143e-11
9.428771162e-06
-9.504512777e-11
9.428866295e-06
-7.633595095e-11
9.428915374e-06
-4.848173879e-11
9.428928679e-06
-2.689613041e-11
9.428927085e-06
-1.295960532e-11
9.42891416e-06
-1.66378753e-12
9.428895373e-06
4.659430425e-12
9.428877748e-06
9.696164834e-12
9.428860497e-06
1.297046402e-11
9.428844262e-06
1.332866863e-11
9.428827245e-06
1.257110515e-11
9.428816387e-06
1.221689979e-11
9.428799656e-06
1.537476716e-11
1.360450571e-11
9.428701853e-06
-3.864335159e-10
-1.654362648e-10
9.428795849e-06
-1.21171825e-10
-6.953237954e-11
9.428875327e-06
-1.08679786e-10
-4.598823651e-11
9.428903806e-06
-5.157920206e-11
-2.58581856e-11
9.428898989e-06
-1.105958251e-11
-1.30777593e-11
9.428882153e-06
1.168064835e-11
-6.143242917e-12
9.428858898e-06
2.405961425e-11
-1.450495484e-12
9.42883463e-06
2.754171816e-11
1.211309951e-13
9.428812976e-06
2.784539816e-11
3.192757844e-12
9.428795409e-06
2.739667631e-11
2.813910064e-12
9.428778821e-06
2.257965233e-11
4.502912065e-12
9.428768587e-06
2.15821339e-11
3.147804222e-12
9.428759269e-06
1.966279325e-11
3.956753783e-12
9.428750964e-06
2.120267428e-11
6.284329661e-12
1.807967593e-11
5.717366905e-12
9.428862463e-06
-9.298716411e-10
-3.407993476e-10
9.428856757e-06
-1.614984755e-10
-7.578696681e-11
9.428866007e-06
-1.627715006e-10
-5.114472948e-11
9.428841227e-06
-4.984769772e-11
-2.253256745e-11
9.428802974e-06
1.81176059e-11
-5.269858604e-12
9.428767422e-06
4.528884657e-11
9.768551868e-13
9.428742432e-06
5.636253841e-11
5.893993992e-12
9.428724251e-06
5.338532276e-11
6.565415274e-12
9.428714239e-06
4.911688077e-11
7.865220924e-12
9.428706875e-06
4.15674963e-11
6.387784187e-12
9.428706767e-06
3.666772257e-11
6.166638622e-12
9.428708311e-06
3.261398036e-11
4.65320492e-12
9.428710427e-06
2.913741229e-11
6.379514395e-12
9.428714213e-06
3.124263574e-11
5.90805476e-12
2.626864594e-11
5.621752376e-12
9.429182426e-06
-9.91470977e-10
9.428896697e-06
-8.650793506e-12
-1.197683393e-10
9.428734558e-06
-8.471183551e-11
-7.448846877e-11
9.428610695e-06
4.187884031e-11
-1.462384058e-11
9.428537802e-06
8.94464294e-11
1.26508541e-11
9.428511806e-06
8.751346045e-11
1.761177603e-11
9.428510912e-06
7.593814972e-11
1.806436546e-11
9.42852905e-06
6.391886321e-11
1.678611828e-11
9.428552516e-06
5.065343574e-11
1.487446421e-11
9.428576686e-06
4.002291191e-11
1.107214728e-11
9.428599068e-06
3.271417654e-11
9.404220086e-12
9.428622397e-06
2.901711856e-11
9.139723206e-12
9.428643106e-06
2.678031377e-11
8.300554468e-12
9.428663437e-06
2.840056668e-11
8.729483867e-12
2.46486989e-11
8.02643866e-12
9.428146984e-06
4.701438011e-10
4.698371732e-10
9.428020247e-06
-1.912932281e-11
-1.956525711e-11
9.42803698e-06
3.723248857e-11
3.743355978e-11
9.428106964e-06
5.873078775e-11
5.767799645e-11
9.428199073e-06
4.481144633e-11
4.372239092e-11
9.428291317e-06
3.472897388e-11
3.307783111e-11
9.428369941e-06
2.319384923e-11
2.404801738e-11
9.428439374e-06
1.72468935e-11
1.837309736e-11
9.428497052e-06
1.332122679e-11
1.340926125e-11
9.428542672e-06
1.033984736e-11
1.065733781e-11
9.428583196e-06
1.001227245e-11
8.884015604e-12
9.428617202e-06
8.840884271e-12
6.636517626e-12
9.428653502e-06
1.060148659e-11
9.342267215e-12
7.879184546e-12
7.72518054e-12
9.427768947e-06
-4.709992323e-10
3.033347448e-09
9.427686333e-06
1.799327558e-11
1.916173033e-10
9.427874014e-06
-3.857832163e-11
6.041195616e-11
9.428077902e-06
-5.982096855e-11
8.553579891e-11
9.428245327e-06
-4.678767762e-11
4.976286972e-11
9.428376678e-06
-3.449529194e-11
3.118541864e-11
9.428479649e-06
-2.482815111e-11
2.139690319e-11
9.428556775e-06
-1.743628182e-11
1.492197569e-11
9.428618379e-06
-1.323754231e-11
1.175926365e-11
9.428667892e-06
-1.26636681e-11
8.879961845e-12
9.428710695e-06
-1.073870602e-11
8.376307234e-12
9.428744753e-06
-1.053358039e-11
6.016549438e-12
9.428785631e-06
-1.156998429e-11
9.754118612e-12
-9.537334418e-12
4.429838314e-12
9.428145468e-06
6.096395518e-12
4.68043589e-10
9.428020918e-06
8.443568975e-11
-1.952512513e-11
9.428034617e-06
-4.27318028e-11
3.68279342e-11
9.428105239e-06
-9.030479201e-11
5.83572152e-11
9.4281984e-06
-8.83853681e-11
4.500116745e-11
9.428287392e-06
-7.87817088e-11
3.274673954e-11
9.428370268e-06
-6.281248306e-11
2.432188521e-11
9.428437337e-06
-5.136662241e-11
1.668882517e-11
9.428492808e-06
-4.17628047e-11
1.262587627e-11
9.428542955e-06
-3.22654129e-11
1.132875905e-11
9.42858091e-06
-2.890284664e-11
9.835530504e-12
9.428613383e-06
-2.406837585e-11
8.548618234e-12
9.428649897e-06
-2.665527227e-11
1.062910432e-11
-2.170135595e-11
9.623336964e-12
9.428912917e-06
1.614395311e-10
-1.184876694e-10
9.428750219e-06
1.615411726e-10
-7.321422307e-11
9.428628631e-06
4.941488292e-11
-1.339674018e-11
9.428555612e-06
-1.843926337e-11
1.347597354e-11
9.428528917e-06
-4.406829924e-11
1.877881492e-11
9.428533376e-06
-5.365455314e-11
1.964432503e-11
9.428547811e-06
-5.474512975e-11
1.608989557e-11
9.428572021e-06
-4.942259236e-11
1.363217227e-11
9.428597245e-06
-4.263685339e-11
1.268599456e-11
9.42861849e-06
-3.682035514e-11
9.627675667e-12
9.428640246e-06
-3.273559353e-11
8.655222692e-12
9.428660128e-06
-2.946823497e-11
7.440466364e-12
9.428681986e-06
-3.061695441e-11
8.630310786e-12
-2.742880039e-11
6.661036331e-12
9.428830724e-06
1.202824498e-10
-7.404492036e-11
9.428838734e-06
1.084959903e-10
-5.036189547e-11
9.42881342e-06
5.12997429e-11
-2.125377963e-11
9.428772147e-06
9.383094867e-12
-4.365040466e-12
9.428737947e-06
-1.364989852e-11
3.919949739e-12
9.428710801e-06
-2.446148348e-11
5.944000193e-12
9.428694587e-06
-2.826001317e-11
6.580832946e-12
9.428685448e-06
-2.808111639e-11
8.222091693e-12
9.428680954e-06
-2.527043883e-11
7.480801043e-12
9.428681122e-06
-2.206298443e-11
6.866212792e-12
9.428681779e-06
-2.129021481e-11
6.889106092e-12
9.428685964e-06
-1.826986561e-11
6.740385812e-12
9.428685334e-06
-2.026051051e-11
6.969867563e-12
-1.696691214e-11
6.800785034e-12
9.428787773e-06
-6.906751286e-11
9.428866562e-06
-4.703792149e-11
9.428894737e-06
-2.679958458e-11
9.428888915e-06
-1.21793559e-11
9.428876106e-06
-3.908518676e-12
9.428850414e-06
4.908655721e-13
9.428825878e-06
3.181154868e-12
9.42880394e-06
4.103252919e-12
9.428784395e-06
4.095918341e-12
9.428769481e-06
4.146700952e-12
9.428757969e-06
4.243423381e-12
9.428749517e-06
4.264308475e-12
9.428737457e-06
5.123612291e-12
5.2765827e-12
9.428790312e-06
-9.231013979e-10
1.646303918e-10
9.428888719e-06
-2.387746075e-10
6.672278126e-11
9.42893685e-06
-1.39377514e-10
4.172396331e-11
9.428933609e-06
-4.656746207e-11
2.154287489e-11
9.428906188e-06
4.083078545e-12
7.084013451e-12
9.428874732e-06
2.455563713e-11
1.279445399e-12
9.428844704e-06
3.323867754e-11
-2.872066449e-12
9.428817801e-06
3.380657882e-11
-5.358943151e-12
9.428793163e-06
3.21370537e-11
-4.505966779e-12
9.428779006e-06
3.007542638e-11
-4.341284654e-12
9.428761564e-06
2.354927333e-11
-7.118866797e-12
9.428752971e-06
2.186839776e-11
-5.752528143e-12
9.428747639e-06
2.041848786e-11
-4.247343308e-12
9.428738374e-06
2.068270968e-11
-5.746455288e-12
1.794748388e-11
-5.140271009e-12
9.429101136e-06
-2.634533076e-09
3.388565894e-10
9.429004505e-06
-2.876619583e-10
7.351043041e-11
9.428912447e-06
-1.442280415e-10
4.859080537e-11
9.428831626e-06
-6.888754299e-12
1.968519858e-11
9.428766979e-06
6.242509042e-11
1.497180022e-12
9.428722536e-06
7.500794627e-11
-5.689130688e-12
9.428697253e-06
7.237718808e-11
-9.0508778e-12
9.428682598e-06
6.290157699e-11
-9.359883534e-12
9.42867705e-06
5.441440075e-11
-8.711020367e-12
9.428675272e-06
4.486497765e-11
-8.258820098e-12
9.428678897e-06
3.869973133e-11
-7.746931803e-12
9.428685938e-06
3.615362175e-11
-6.591077234e-12
9.428690399e-06
3.016580643e-11
-6.093313645e-12
9.428696042e-06
3.402539209e-11
-7.382985795e-12
2.782986572e-11
-6.813038698e-12
9.429784881e-06
-6.964991661e-09
9.866341609e-10
9.429126974e-06
1.38401135e-10
1.153042565e-10
9.428703608e-06
1.391688071e-10
7.06603538e-11
9.428508031e-06
1.658796699e-10
1.191686316e-11
9.428435024e-06
1.674003355e-10
-1.518241162e-11
9.428427885e-06
1.236366983e-10
-1.960637636e-11
9.428448689e-06
9.025149899e-11
-2.033092175e-11
9.428482635e-06
6.782638045e-11
-1.731242946e-11
9.428516989e-06
5.130678591e-11
-1.54548706e-11
9.428549964e-06
4.051438414e-11
-1.167713486e-11
9.428579206e-06
3.257005591e-11
-1.065574886e-11
9.428603288e-06
2.690948517e-11
-9.383198432e-12
9.428629746e-06
2.453845072e-11
-6.874864284e-12
9.428653109e-06
2.882339077e-11
-9.880999069e-12
2.238244978e-11
-8.488296473e-12
9.429706226e-06
1.988426574e-09
9.427757308e-06
3.03439376e-09
-4.72723966e-10
9.427675863e-06
1.925066447e-10
1.693544411e-11
9.427863083e-06
5.972784898e-11
-3.763826814e-11
9.428069009e-06
8.702450288e-11
-5.795520344e-11
9.4282368e-06
5.11467657e-11
-4.596236795e-11
9.428367475e-06
3.293114179e-11
-3.477764548e-11
9.428468362e-06
2.094170278e-11
-2.585564846e-11
9.428544641e-06
1.384667939e-11
-1.986605551e-11
9.428608575e-06
1.149933003e-11
-1.511952809e-11
9.428655101e-06
8.867439486e-12
-1.178709467e-11
9.428699518e-06
1.01052104e-11
-1.166730478e-11
9.428736899e-06
9.082861199e-12
-8.89107891e-12
9.428775458e-06
1.026052021e-11
-1.125924035e-11
3.881820027e-12
-9.384308496e-12
9.5128823e-06
-3.035417708e-09
-3.037498155e-09
9.513781709e-06
-1.931536941e-10
-1.949993118e-10
9.514144443e-06
-6.113300384e-11
-6.118072385e-11
9.514602439e-06
-8.673977577e-11
-8.604094314e-11
9.514915452e-06
-5.152074904e-11
-5.163867624e-11
9.515146791e-06
-3.26010391e-11
-3.207030746e-11
9.515343806e-06
-2.177491482e-11
-2.071702843e-11
9.515515119e-06
-1.653397439e-11
-1.473547885e-11
9.515672934e-06
-1.347321663e-11
-1.136963881e-11
9.515820042e-06
-1.101993452e-11
-1.0573636e-11
9.515962901e-06
-1.00291229e-11
-9.74786572e-12
9.516100953e-06
-7.938507668e-12
-8.674161664e-12
9.516247626e-06
-1.092736349e-11
-9.420755073e-12
-3.512392875e-12
-3.68380236e-12
9.427720408e-06
-1.4060091e-10
-4.709042295e-10
9.427639515e-06
-1.394278529e-10
1.710856692e-11
9.42782718e-06
-1.664231359e-10
-3.830339734e-11
9.42803407e-06
-1.677177833e-10
-5.79522902e-11
9.428201698e-06
-1.249764392e-10
-4.413404882e-11
9.428330323e-06
-9.200803572e-11
-3.339014318e-11
9.428432723e-06
-6.787033349e-11
-2.452124608e-11
9.428513381e-06
-5.119896616e-11
-1.789781762e-11
9.428574884e-06
-3.909650288e-11
-1.331261736e-11
9.428623508e-06
-3.224638178e-11
-1.036317718e-11
9.428664961e-06
-2.85199234e-11
-9.996775444e-12
9.428700102e-06
-2.550953914e-11
-8.982408307e-12
9.428743632e-06
-2.790462815e-11
-8.070139e-12
-2.224992004e-11
-7.638156099e-12
9.429133516e-06
2.874894463e-10
1.149642586e-10
9.428710988e-06
1.424886256e-10
7.097801211e-11
9.428518056e-06
6.154646375e-12
1.285792225e-11
9.428443855e-06
-6.358247724e-11
-1.274667495e-11
9.428438947e-06
-7.253538462e-11
-1.674731369e-11
9.428459406e-06
-7.184705127e-11
-1.703300952e-11
9.428492843e-06
-6.448876283e-11
-1.635442745e-11
9.428528421e-06
-5.29999883e-11
-1.310652184e-11
9.428561345e-06
-4.636187598e-11
-1.145911719e-11
9.428590602e-06
-3.919467563e-11
-7.996600596e-12
9.428618255e-06
-3.353061565e-11
-8.02562932e-12
9.428642812e-06
-2.908912856e-11
-7.888337097e-12
9.42866709e-06
-3.123975503e-11
-8.589633676e-12
-2.627081832e-11
-7.752084456e-12
9.429013705e-06
2.376984307e-10
7.30940684e-11
9.42892628e-06
1.365661821e-10
4.9165493e-11
9.428844812e-06
4.53314926e-11
2.083558623e-11
9.428780351e-06
-4.475914226e-12
4.040243322e-12
9.428734232e-06
-2.646816277e-11
-3.71348533e-12
9.428707205e-06
-3.270427587e-11
-6.46642057e-12
9.428697973e-06
-3.273087919e-11
-8.508934915e-12
9.428688844e-06
-3.128276824e-11
-9.229838474e-12
9.428689387e-06
-2.739205968e-11
-6.113998118e-12
9.428691643e-06
-2.336931921e-11
-5.988798606e-12
9.428694506e-06
-2.178828692e-11
-5.511723109e-12
9.428701061e-06
-1.943496206e-11
-6.991121977e-12
9.428703572e-06
-2.213787996e-11
-9.129113802e-12
-1.762786195e-11
-6.712759859e-12
9.428903903e-06
6.936909916e-11
9.428953877e-06
4.654682657e-11
9.428952163e-06
2.552780166e-11
9.428920887e-06
1.226292593e-11
9.428890662e-06
5.420588694e-12
9.428861262e-06
1.249418329e-12
9.428834677e-06
-2.417347252e-12
9.428810781e-06
-4.666351429e-12
9.428793487e-06
-4.33409529e-12
9.428780696e-06
-4.75002156e-12
9.428769705e-06
-5.468387299e-12
9.428763656e-06
-4.532605863e-12