/*--------------------------------*- C++ -*----------------------------------*\
| =========                 |                                                 |
| \\      /  F ield         | OpenFOAM: The Open Source CFD Toolbox           |
|  \\    /   O peration     | Version:  4.x                                   |
|   \\  /    A nd           | Web:      www.OpenFOAM.org                      |
|    \\/     M anipulation  |                                                 |
\*---------------------------------------------------------------------------*/
FoamFile
{
    version     2.0;
    format      ascii;
    class       volScalarField;
    location    "2000";
    object      X_CO2;
}
// * * * * * * * * * * * * * * * * * * * * * * * * * * * * * * * * * * * * * //

dimensions      [0 0 0 0 0 0 0];

internalField   nonuniform List<scalar> 
1174
(
0.03999897707
0.04000218652
0.04000671349
0.04001261257
0.0400198194
0.04002817384
0.04003745295
0.04004740394
0.04005777132
0.04006831477
0.04007881244
0.0400890279
0.04009854169
0.04010601351
0.04000197863
0.04000710933
0.04001393451
0.04002229425
0.04003189967
0.04004240188
0.04005344779
0.04006471654
0.04007593815
0.04008689782
0.0400974261
0.04010735849
0.04011637684
0.04012333649
0.04000859813
0.04001764336
0.04002882347
0.04004150716
0.04005501374
0.04006873372
0.0400821857
0.04009502789
0.04010704386
0.0401181167
0.04012819719
0.04013725511
0.04014514392
0.04015105257
0.04001827746
0.04003230154
0.04004838618
0.0400653561
0.04008223467
0.04009832222
0.04011318302
0.04012659418
0.04013848701
0.04014889448
0.04015790709
0.04016562628
0.04017206212
0.0401767253
0.04002517388
0.04004192426
0.04006018282
0.04007866626
0.04009644811
0.04011293817
0.04012781675
0.04014096221
0.04015238732
0.04016218847
0.0401705057
0.04017748307
0.0401831839
0.04018724749
0.0400182773
0.04003230131
0.04004838588
0.04006535576
0.04008223428
0.0400983218
0.04011318257
0.04012659371
0.04013848652
0.04014889398
0.04015790657
0.04016562575
0.04017206159
0.04017672475
0.04000859795
0.0400176431
0.04002882315
0.04004150677
0.04005501329
0.04006873322
0.04008218514
0.04009502728
0.04010704319
0.04011811598
0.04012819642
0.0401372543
0.04014514307
0.04015105169
0.04000197846
0.04000710911
0.04001393424
0.04002229393
0.04003189928
0.04004240143
0.04005344727
0.04006471594
0.04007593748
0.04008689707
0.04009742527
0.04010735759
0.04011637587
0.04012333545
0.03999897692
0.04000218635
0.04000671328
0.04001261232
0.04001981909
0.04002817347
0.0400374525
0.0400474034
0.0400577707
0.04006831406
0.04007881163
0.040089027
0.04009854068
0.04010601242
0.03999851024
0.04000197862
0.04000710932
0.04001393449
0.04002229424
0.04003189966
0.04004240187
0.04005344778
0.04006471653
0.04007593814
0.04008689781
0.04009742609
0.04010735847
0.04011637682
0.04012333647
0.04000872895
0.04001771056
0.04002865168
0.04004089464
0.04005378122
0.04006675852
0.04007941598
0.04009148014
0.04010279001
0.04011326677
0.04012288172
0.04013160927
0.04013929304
0.04014509983
0.04002568084
0.04004308025
0.04006197271
0.04008076353
0.04009836445
0.04011418538
0.04012801498
0.04013988574
0.04014996329
0.04015846941
0.04016563245
0.04017164853
0.04017660619
0.04018017943
0.04005574012
0.04008460335
0.04011202318
0.04013596148
0.04015571448
0.04017138569
0.04018346798
0.04019258096
0.04019933101
0.04020424959
0.04020777496
0.04021025435
0.04021194718
0.04021297986
0.04008403588
0.04011871508
0.0401480805
0.04017137602
0.04018907117
0.04020206963
0.04021133005
0.04021771104
0.04022192442
0.04022453607
0.04022598548
0.04022661315
0.04022669795
0.04022652623
0.0400557396
0.04008460268
0.04011202245
0.04013596072
0.04015571372
0.04017138493
0.04018346723
0.04019258022
0.04019933028
0.04020424887
0.04020777426
0.04021025366
0.0402119465
0.04021297918
0.04002568027
0.0400430796
0.04006197201
0.04008076277
0.04009836365
0.04011418453
0.04012801409
0.04013988481
0.04014996232
0.04015846841
0.04016563142
0.04017164748
0.04017660512
0.04018017834
0.04000872852
0.04001771013
0.04002865122
0.04004089411
0.04005378061
0.04006675783
0.0400794152
0.04009147928
0.04010278907
0.04011326575
0.04012288063
0.04013160811
0.04013929182
0.04014509856
0.04000197846
0.0400071091
0.04001393421
0.04002229388
0.04003189921
0.04004240133
0.04005344713
0.04006471578
0.04007593728
0.04008689684
0.04009742501
0.0401073573
0.04011637555
0.04012333511
0.04000208644
0.04000859811
0.04001764329
0.04002882338
0.04004150706
0.04005501363
0.04006873361
0.04008218559
0.04009502777
0.04010704374
0.04011811657
0.04012819706
0.04013725497
0.04014514378
0.04015105243
0.04001161324
0.04002568077
0.04004308012
0.04006197256
0.04008076336
0.04009836429
0.04011418521
0.04012801482
0.04013988558
0.04014996313
0.04015846925
0.04016563229
0.04017164838
0.04017660605
0.04018017929
0.04007563786
0.04011222537
0.04014531709
0.04017242814
0.04019306093
0.04020782412
0.04021777532
0.04022403355
0.04022759379
0.04022926341
0.0402296625
0.04022925582
0.04022841277
0.04022754723
0.04018648959
0.04024811297
0.04029056149
0.04031559739
0.04032735554
0.04032998972
0.04032684466
0.04032033991
0.04031211413
0.04030322516
0.04029433233
0.04028585759
0.04027820035
0.04027234462
0.040331351
0.04039253174
0.04041877121
0.04042337533
0.04041584098
0.04040214337
0.0403858215
0.04036888752
0.0403524375
0.04033703167
0.040322929
0.04031025623
0.0402992468
0.0402910246
0.0401864874
0.04024811081
0.04029055953
0.04031559561
0.04032735391
0.04032998823
0.04032684331
0.04032033867
0.04031211298
0.04030322409
0.04029433133
0.04028585665
0.04027819946
0.04027234375
0.04007563582
0.04011222364
0.04014531546
0.04017242653
0.0401930593
0.04020782249
0.04021777371
0.04022403197
0.04022759223
0.04022926188
0.04022966099
0.04022925434
0.04022841132
0.04022754579
0.04002568026
0.04004307952
0.04006197186
0.04008076254
0.04009836335
0.04011418416
0.04012801366
0.04013988433
0.04014996179
0.04015846785
0.04016563084
0.04017164688
0.0401766045
0.04018017771
0.04000859795
0.04001764305
0.04002882303
0.04004150658
0.04005501301
0.04006873284
0.04008218467
0.04009502672
0.04010704255
0.04011811527
0.04012819564
0.04013725346
0.04014514219
0.04015105076
0.04000744655
0.04001827734
0.0400323013
0.04004838588
0.04006535576
0.04008223431
0.04009832184
0.04011318263
0.04012659379
0.04013848662
0.04014889409
0.0401579067
0.04016562591
0.04017206176
0.04017672494
0.0400291576
0.04005574001
0.04008460298
0.04011202275
0.04013596104
0.04015571404
0.04017138525
0.04018346756
0.04019258056
0.04019933062
0.04020424921
0.04020777461
0.04021025402
0.04021194686
0.04021297955
0.04011118852
0.04018648953
0.04024811254
0.04029056102
0.04031559693
0.0403273551
0.04032998932
0.0403268443
0.04032033958
0.04031211382
0.04030322488
0.04029433208
0.04028585736
0.04027820013
0.04027234441
0.04056578318
0.04064311222
0.04065580955
0.04063353344
0.04059567709
0.0405531729
0.04051155557
0.04047328864
0.04043921665
0.04040939285
0.0403835324
0.04036129054
0.04034262043
0.04032899803
0.04130878155
0.04121160893
0.04106250764
0.04091959393
0.04079817991
0.0406991517
0.04061928706
0.04055479203
0.04050235994
0.04045937071
0.04042383401
0.04039432559
0.04037017451
0.04035283324
0.04056577474
0.04064310666
0.04065580535
0.04063353003
0.04059567424
0.04055317048
0.04051155349
0.04047328683
0.04043921505
0.0404093914
0.04038353108
0.04036128933
0.0403426193
0.04032899696
0.0401864874
0.04024811019
0.04029055855
0.04031559442
0.04032735262
0.04032998692
0.040326842
0.04032033739
0.04031211175
0.0403032229
0.04029433019
0.04028585554
0.04027819839
0.04027234271
0.04005573965
0.04008460244
0.04011202194
0.04013595998
0.04015571277
0.0401713838
0.04018346597
0.04019257886
0.04019932886
0.04020424741
0.04020777276
0.04021025215
0.04021194498
0.04021297765
0.04001827733
0.04003230121
0.04004838563
0.04006535532
0.04008223366
0.04009832099
0.04011318158
0.04012659256
0.04013848523
0.04014889257
0.04015790507
0.04016562417
0.04017205994
0.04017672304
0.04001145984
0.04002517369
0.04004192389
0.04006018236
0.04007866575
0.04009644757
0.0401129376
0.04012781617
0.04014096162
0.04015238674
0.04016218789
0.04017050514
0.04017748253
0.04018318337
0.04018724698
0.04004743268
0.04008403559
0.04011871436
0.0401480797
0.04017137523
0.0401890704
0.0402020689
0.04021132934
0.04021771036
0.04022192378
0.04022453546
0.04022598491
0.04022661261
0.04022669743
0.04022652573
0.04022262625
0.0403313511
0.04039253029
0.04041876969
0.04042337394
0.04041583977
0.04040214229
0.04038582055
0.04036888667
0.04035243674
0.040337031
0.04032292838
0.04031025567
0.04029924628
0.04029102412
0.04117727516
0.0413087774
0.04121160557
0.0410625051
0.04091959201
0.04079817842
0.04069915055
0.04061928611
0.04055479125
0.04050235929
0.04045937016
0.04042383353
0.04039432517
0.04037017414
0.04035283291
0.04451587925
0.042884818
0.04198206177
0.04145351932
0.04112608424
0.04091186245
0.0407644868
0.04065850685
0.04057937571
0.04051843591
0.04047034165
0.04043175166
0.04040093649
0.04037913998
0.04130878262
0.04121160038
0.04106249968
0.04091958749
0.04079817473
0.04069914746
0.04061928353
0.04055478903
0.04050235735
0.04045936845
0.040423832
0.04039432378
0.04037017286
0.04035283172
0.04033135145
0.04039252922
0.04041876781
0.04042337168
0.04041583736
0.04040213989
0.04038581821
0.04036888441
0.04035243459
0.04033702894
0.04032292642
0.0403102538
0.04029924449
0.04029102237
0.04008403586
0.04011871427
0.04014807915
0.04017137427
0.04018906912
0.04020206738
0.04021132765
0.04021770855
0.0402219219
0.04022453353
0.04022598294
0.04022661063
0.04022669544
0.04022652373
0.04002517383
0.04004192393
0.04006018221
0.04007866535
0.0400964469
0.04011293669
0.04012781502
0.04014096028
0.04015238522
0.04016218623
0.04017050336
0.04017748065
0.0401831814
0.04018724494
0.04000744643
0.04001827709
0.04003230094
0.04004838542
0.04006535523
0.0400822337
0.04009832118
0.04011318193
0.04012659305
0.04013848586
0.04014889332
0.04015790591
0.04016562511
0.04017206096
0.04017672414
0.04002915713
0.04005573919
0.04008460197
0.04011202164
0.04013595989
0.04015571289
0.0401713841
0.04018346642
0.04019257944
0.04019932952
0.04020424814
0.04020777356
0.04021025299
0.04021194585
0.04021297856
0.04011118542
0.04018648629
0.040248109
0.04029055771
0.04031559392
0.04032735237
0.04032998685
0.04032684206
0.04032033754
0.04031211196
0.04030322316
0.04029433048
0.04028585586
0.04027819873
0.04027234307
0.04039191744
0.04056577081
0.0406431022
0.04065580166
0.04063352712
0.04059567195
0.04055316864
0.04051155199
0.04047328558
0.040439214
0.04040939051
0.04038353031
0.04036128865
0.04034261868
0.04032899639
0.0411772755
0.04130877551
0.04121159552
0.04106249639
0.04091958522
0.0407981731
0.04069914625
0.04061928257
0.04055478826
0.04050235672
0.04045936793
0.04042383156
0.0403943234
0.04037017253
0.04035283141
0.04039191918
0.04056576954
0.04064310013
0.04065579957
0.04063352516
0.04059567013
0.04055316696
0.04051155045
0.04047328416
0.04043921268
0.04040938928
0.04038352916
0.04036128757
0.04034261767
0.04032899542
0.04018648986
0.04024811023
0.04029055754
0.04031559297
0.040327351
0.04032998525
0.04032684035
0.0403203358
0.04031211022
0.04030322145
0.04029432881
0.04028585423
0.04027819712
0.04027234148
0.04005574015
0.04008460254
0.0401120217
0.04013595947
0.04015571207
0.04017138298
0.04018346508
0.04019257793
0.0401993279
0.04020424643
0.04020777179
0.04021025118
0.04021194401
0.04021297669
0.04001827744
0.04003230124
0.04004838555
0.04006535512
0.04008223334
0.04009832056
0.04011318107
0.04012659197
0.04013848458
0.04014889187
0.04015790433
0.0401656234
0.04017205915
0.04017672224
0.04000208631
0.04000859783
0.04001764289
0.04002882286
0.04004150642
0.04005501289
0.04006873277
0.04008218465
0.04009502675
0.04010704264
0.04011811541
0.04012819584
0.04013725371
0.04014514248
0.04015105109
0.0400116127
0.04002568001
0.04004307916
0.04006197147
0.04008076217
0.04009836301
0.04011418385
0.04012801339
0.0401398841
0.04014996161
0.0401584677
0.04016563073
0.0401716468
0.04017660446
0.04018017769
0.04004070721
0.04007563514
0.0401122226
0.04014531434
0.04017242538
0.04019305817
0.0402078214
0.04021777266
0.04022403096
0.04022759129
0.04022926099
0.04022966016
0.04022925355
0.04022841057
0.04022754507
0.04011118518
0.0401864855
0.04024810778
0.04029055621
0.0403155923
0.04032735072
0.04032998524
0.04032684052
0.04032033608
0.04031211059
0.04030322186
0.04029432925
0.0402858547
0.04027819761
0.04027234199
0.04022262568
0.04033134782
0.04039252569
0.04041876482
0.04042336923
0.04041583536
0.04040213823
0.04038581682
0.04036888325
0.0403524336
0.04033702809
0.04032292567
0.04031025313
0.04029924389
0.04029102181
0.04011118491
0.04018648495
0.04024810706
0.04029055539
0.04031559143
0.04032734983
0.04032998433
0.04032683961
0.04032033518
0.04031210971
0.040303221
0.04029432841
0.04028585387
0.04027819681
0.04027234119
0.04004070811
0.04007563589
0.04011222293
0.04014531421
0.04017242489
0.0401930574
0.04020782043
0.04021777156
0.04022402978
0.04022759005
0.04022925971
0.04022965885
0.04022925223
0.04022840924
0.04022754374
0.0400256808
0.04004307961
0.04006197159
0.04008076197
0.04009836252
0.04011418312
0.04012801246
0.040139883
0.04014996037
0.04015846636
0.0401656293
0.0401716453
0.0401766029
0.04018017608
0.04000859814
0.04001764316
0.04002882301
0.04004150641
0.04005501268
0.04006873234
0.04008218403
0.04009502593
0.04010704165
0.04011811425
0.04012819453
0.04013725227
0.04014514093
0.04015104945
0.03999851009
0.04000197838
0.04000710898
0.04001393405
0.04002229369
0.04003189899
0.04004240108
0.04005344687
0.04006471551
0.040075937
0.04008689656
0.04009742474
0.04010735704
0.0401163753
0.04012333488
0.04000217675
0.04000872837
0.04001770988
0.04002865089
0.04004089372
0.04005378016
0.04006675733
0.04007941466
0.04009147871
0.04010278847
0.04011326514
0.04012288001
0.04013160748
0.04013929119
0.04014509793
0.04001161264
0.04002567988
0.04004307894
0.04006197115
0.04008076176
0.04009836251
0.04011418329
0.04012801279
0.04013988346
0.04014996094
0.04015846702
0.04016563003
0.0401716461
0.04017660375
0.04018017698
0.04002915701
0.04005573881
0.0400846013
0.04011202068
0.04013595868
0.04015571149
0.04017138257
0.04018346481
0.04019257778
0.04019932784
0.04020424646
0.04020777188
0.04021025132
0.0402119442
0.04021297691
0.04004743241
0.04008403463
0.04011871278
0.04014807764
0.04017137283
0.04018906778
0.04020206615
0.04021132653
0.04021770754
0.04022192098
0.04022453268
0.04022598217
0.04022660991
0.04022669477
0.0402265231
0.04002915695
0.04005573871
0.04008460114
0.04011202047
0.04013595841
0.04015571115
0.04017138217
0.04018346436
0.04019257729
0.04019932732
0.0402042459
0.0402077713
0.04021025073
0.04021194359
0.04021297629
0.04001161274
0.04002568
0.04004307899
0.04006197109
0.04008076156
0.04009836217
0.04011418282
0.0401280122
0.04013988277
0.04014996016
0.04015846617
0.04016562912
0.04017164513
0.04017660274
0.04018017594
0.04000217694
0.04000872859
0.04001771006
0.04002865097
0.04004089366
0.04005377996
0.04006675698
0.04007941416
0.04009147806
0.0401027877
0.04011326424
0.04012287901
0.04013160639
0.04013929001
0.04014509668
0.04000197862
0.04000710918
0.04001393419
0.04002229373
0.04003189892
0.04004240088
0.04005344652
0.040064715
0.04007593635
0.04008689576
0.04009742379
0.04010735595
0.04011637409
0.04012333357
0.03999691014
0.03999897687
0.04000218626
0.04000671315
0.04001261213
0.04001981885
0.04002817317
0.04003745215
0.04004740301
0.04005777026
0.04006831358
0.04007881111
0.04008902646
0.04009854013
0.04010601185
0.03999851009
0.04000197836
0.04000710894
0.04001393399
0.04002229359
0.04003189886
0.04004240092
0.04005344667
0.04006471527
0.04007593673
0.04008689627
0.04009742442
0.04010735669
0.04011637494
0.0401233345
0.04000208628
0.04000859776
0.04001764275
0.04002882263
0.04004150609
0.04005501246
0.04006873223
0.04008218402
0.04009502604
0.04010704186
0.04011811456
0.04012819494
0.04013725276
0.04014514149
0.04015105007
0.0400074464
0.04001827696
0.04003230066
0.04004838495
0.04006535454
0.04008223281
0.0400983201
0.04011318069
0.04012659167
0.04013848436
0.04014889172
0.04015790424
0.04016562337
0.04017205917
0.0401767223
0.04001145973
0.04002517335
0.04004192326
0.04006018143
0.0400786645
0.04009644603
0.04011293581
0.04012781417
0.04014095945
0.04015238442
0.04016218547
0.04017050264
0.04017747996
0.04018318075
0.04018724431
0.04000744639
0.04001827695
0.04003230063
0.04004838491
0.04006535447
0.04008223271
0.04009831995
0.04011318049
0.04012659142
0.04013848407
0.04014889139
0.04015790387
0.04016562296
0.04017205873
0.04017672183
0.0400020863
0.04000859778
0.04001764276
0.04002882261
0.04004150602
0.04005501231
0.040068732
0.04008218371
0.04009502564
0.04010704137
0.04011811399
0.04012819429
0.04013725205
0.04014514072
0.04015104924
0.03999851012
0.04000197842
0.04000710899
0.04001393401
0.04002229356
0.04003189875
0.04004240071
0.04005344635
0.04006471484
0.04007593619
0.04008689561
0.04009742365
0.04010735582
0.04011637397
0.04012333345
0.0399969102
0.03999897695
0.04000218634
0.04000671322
0.04001261216
0.04001981882
0.04002817306
0.04003745193
0.04004740267
0.0400577698
0.04006831299
0.04007881039
0.0400890256
0.04009853915
0.04010601076
)
;

boundaryField
{
    top
    {
        type            calculated;
        value           nonuniform List<scalar> 
127
(
0.0399969102
0.03999897692
0.04000197846
0.04000859795
0.04001827733
0.04002517383
0.04001827744
0.04000859814
0.04000197862
0.03999897695
0.04000218635
0.0400071091
0.04001764305
0.04003230121
0.04004192393
0.04003230124
0.04001764316
0.04000710918
0.04000218634
0.04000671328
0.04001393421
0.04002882303
0.04004838563
0.04006018221
0.04004838555
0.04002882301
0.04001393419
0.04000671322
0.04001261232
0.04002229388
0.04004150658
0.04006535532
0.04007866535
0.04006535512
0.04004150641
0.04002229373
0.04001261216
0.04001981909
0.04003189921
0.04005501301
0.04008223366
0.0400964469
0.04008223334
0.04005501268
0.04003189892
0.04001981882
0.04002817347
0.04004240133
0.04006873284
0.04009832099
0.04011293669
0.04009832056
0.04006873234
0.04004240088
0.04002817306
0.0400374525
0.04005344713
0.04008218467
0.04011318158
0.04012781502
0.04011318107
0.04008218403
0.04005344652
0.04003745193
0.0400474034
0.04006471578
0.04009502672
0.04012659256
0.04014096028
0.04012659197
0.04009502593
0.040064715
0.04004740267
0.0400577707
0.04007593728
0.04010704255
0.04013848523
0.04015238522
0.04013848458
0.04010704165
0.04007593635
0.0400577698
0.04006831406
0.04008689684
0.04011811527
0.04014889257
0.04016218623
0.04014889187
0.04011811425
0.04008689576
0.04006831299
0.04007881163
0.04009742501
0.04012819564
0.04015790507
0.04017050336
0.04015790433
0.04012819453
0.04009742379
0.04007881039
0.040089027
0.0401073573
0.04013725346
0.04016562417
0.04017748065
0.0401656234
0.04013725227
0.04010735595
0.0400890256
0.04009854068
0.04011637555
0.04014514219
0.04017205994
0.0401831814
0.04017205915
0.04014514093
0.04011637409
0.04009853915
0.04010601242
0.04012333511
0.04015105076
0.04017672304
0.04018724494
0.04017672224
0.04015104945
0.04012333357
0.04010601076
)
;
    }
    bottom
    {
        type            calculated;
        value           nonuniform List<scalar> 
134
(
0.03999851024
0.04000208644
0.04000744655
0.04001145984
0.04000744643
0.04000208631
0.03999851009
0.03999691014
0.03999897707
0.04000197862
0.04000859811
0.04001827734
0.04002517369
0.04001827709
0.04000859783
0.04000197838
0.03999897687
0.04000218652
0.04000710932
0.04001764329
0.0400323013
0.04004192389
0.04003230094
0.04001764289
0.04000710898
0.04000218626
0.04000671349
0.04001393449
0.04002882338
0.04004838588
0.04006018236
0.04004838542
0.04002882286
0.04001393405
0.04000671315
0.04001261257
0.04002229424
0.04004150706
0.04006535576
0.04007866575
0.04006535523
0.04004150642
0.04002229369
0.04001261213
0.0400198194
0.04003189966
0.04005501363
0.04008223431
0.04009644757
0.0400822337
0.04005501289
0.04003189899
0.04001981885
0.04002817384
0.04004240187
0.04006873361
0.04009832184
0.0401129376
0.04009832118
0.04006873277
0.04004240108
0.04002817317
0.04003745295
0.04005344778
0.04008218559
0.04011318263
0.04012781617
0.04011318193
0.04008218465
0.04005344687
0.04003745215
0.04004740394
0.04006471653
0.04009502777
0.04012659379
0.04014096162
0.04012659305
0.04009502675
0.04006471551
0.04004740301
0.04005777132
0.04007593814
0.04010704374
0.04013848662
0.04015238674
0.04013848586
0.04010704264
0.040075937
0.04005777026
0.04006831477
0.04008689781
0.04011811657
0.04014889409
0.04016218789
0.04014889332
0.04011811541
0.04008689656
0.04006831358
0.04007881244
0.04009742609
0.04012819706
0.0401579067
0.04017050514
0.04015790591
0.04012819584
0.04009742474
0.04007881111
0.0400890279
0.04010735847
0.04013725497
0.04016562591
0.04017748253
0.04016562511
0.04013725371
0.04010735704
0.04008902646
0.04009854169
0.04011637682
0.04014514378
0.04017206176
0.04018318337
0.04017206096
0.04014514248
0.0401163753
0.04009854013
0.04010601351
0.04012333647
0.04015105243
0.04017672494
0.04018724698
0.04017672414
0.04015105109
0.04012333488
0.04010601185
)
;
    }
    side-walls
    {
        type            calculated;
        value           nonuniform List<scalar> 
261
(
0.03999897707
0.04000197863
0.04000859813
0.04001827746
0.04002517388
0.0400182773
0.04000859795
0.04000197846
0.03999897692
0.04000218652
0.04000710933
0.04001764336
0.04003230154
0.04004192426
0.04003230131
0.0400176431
0.04000710911
0.04000218635
0.04000671349
0.04001393451
0.04002882347
0.04004838618
0.04006018282
0.04004838588
0.04002882315
0.04001393424
0.04000671328
0.04001261257
0.04002229425
0.04004150716
0.0400653561
0.04007866626
0.04006535576
0.04004150677
0.04002229393
0.04001261232
0.0400198194
0.04003189967
0.04005501374
0.04008223467
0.04009644811
0.04008223428
0.04005501329
0.04003189928
0.04001981909
0.04002817384
0.04004240188
0.04006873372
0.04009832222
0.04011293817
0.0400983218
0.04006873322
0.04004240143
0.04002817347
0.04003745295
0.04005344779
0.0400821857
0.04011318302
0.04012781675
0.04011318257
0.04008218514
0.04005344727
0.0400374525
0.04004740394
0.04006471654
0.04009502789
0.04012659418
0.04014096221
0.04012659371
0.04009502728
0.04006471594
0.0400474034
0.04005777132
0.04007593815
0.04010704386
0.04013848701
0.04015238732
0.04013848652
0.04010704319
0.04007593748
0.0400577707
0.04006831477
0.04008689782
0.0401181167
0.04014889448
0.04016218847
0.04014889398
0.04011811598
0.04008689707
0.04006831406
0.04007881244
0.0400974261
0.04012819719
0.04015790709
0.0401705057
0.04015790657
0.04012819642
0.04009742527
0.04007881163
0.0400890279
0.04010735849
0.04013725511
0.04016562628
0.04017748307
0.04016562575
0.0401372543
0.04010735759
0.040089027
0.04009854169
0.04011637684
0.04014514392
0.04017206212
0.0401831839
0.04017206159
0.04014514307
0.04011637587
0.04009854068
0.04010601351
0.04012333649
0.04015105257
0.0401767253
0.04018724749
0.04017672475
0.04015105169
0.04012333545
0.04010601242
0.03999691014
0.03999851009
0.04000208628
0.0400074464
0.04001145973
0.04000744639
0.0400020863
0.03999851012
0.0399969102
0.03999897687
0.04000197836
0.04000859776
0.04001827696
0.04002517335
0.04001827695
0.04000859778
0.04000197842
0.03999897695
0.04000218626
0.04000710894
0.04001764275
0.04003230066
0.04004192326
0.04003230063
0.04001764276
0.04000710899
0.04000218634
0.04000671315
0.04001393399
0.04002882263
0.04004838495
0.04006018143
0.04004838491
0.04002882261
0.04001393401
0.04000671322
0.04001261213
0.04002229359
0.04004150609
0.04006535454
0.0400786645
0.04006535447
0.04004150602
0.04002229356
0.04001261216
0.04001981885
0.04003189886
0.04005501246
0.04008223281
0.04009644603
0.04008223271
0.04005501231
0.04003189875
0.04001981882
0.04002817317
0.04004240092
0.04006873223
0.0400983201
0.04011293581
0.04009831995
0.040068732
0.04004240071
0.04002817306
0.04003745215
0.04005344667
0.04008218402
0.04011318069
0.04012781417
0.04011318049
0.04008218371
0.04005344635
0.04003745193
0.04004740301
0.04006471527
0.04009502604
0.04012659167
0.04014095945
0.04012659142
0.04009502564
0.04006471484
0.04004740267
0.04005777026
0.04007593673
0.04010704186
0.04013848436
0.04015238442
0.04013848407
0.04010704137
0.04007593619
0.0400577698
0.04006831358
0.04008689627
0.04011811456
0.04014889172
0.04016218547
0.04014889139
0.04011811399
0.04008689561
0.04006831299
0.04007881111
0.04009742442
0.04012819494
0.04015790424
0.04017050264
0.04015790387
0.04012819429
0.04009742365
0.04007881039
0.04008902646
0.04010735669
0.04013725276
0.04016562337
0.04017747996
0.04016562296
0.04013725205
0.04010735582
0.0400890256
0.04009854013
0.04011637494
0.04014514149
0.04017205917
0.04018318075
0.04017205873
0.04014514072
0.04011637397
0.04009853915
0.04010601185
0.0401233345
0.04015105007
0.0401767223
0.04018724431
0.04017672183
0.04015104924
0.04012333345
0.04010601076
)
;
    }
    inlet
    {
        type            calculated;
        value           nonuniform 0();
    }
    outlet
    {
        type            calculated;
        value           nonuniform List<scalar> 
81
(
0.04010601351
0.04012333649
0.04015105257
0.0401767253
0.04018724749
0.04017672475
0.04015105169
0.04012333545
0.04010601242
0.04012333647
0.04014509983
0.04018017943
0.04021297986
0.04022652623
0.04021297918
0.04018017834
0.04014509856
0.04012333511
0.04015105243
0.04018017929
0.04022754723
0.04027234462
0.0402910246
0.04027234375
0.04022754579
0.04018017771
0.04015105076
0.04017672494
0.04021297955
0.04027234441
0.04032899803
0.04035283324
0.04032899696
0.04027234271
0.04021297765
0.04017672304
0.04018724698
0.04022652573
0.04029102412
0.04035283291
0.04037913998
0.04035283172
0.04029102237
0.04022652373
0.04018724494
0.04017672414
0.04021297856
0.04027234307
0.04032899639
0.04035283141
0.04032899542
0.04027234148
0.04021297669
0.04017672224
0.04015105109
0.04018017769
0.04022754507
0.04027234199
0.04029102181
0.04027234119
0.04022754374
0.04018017608
0.04015104945
0.04012333488
0.04014509793
0.04018017698
0.04021297691
0.0402265231
0.04021297629
0.04018017594
0.04014509668
0.04012333357
0.04010601185
0.0401233345
0.04015105007
0.0401767223
0.04018724431
0.04017672183
0.04015104924
0.04012333345
0.04010601076
)
;
    }
    procBoundary1to0
    {
        type            processor;
        value           nonuniform List<scalar> 
97
(
0.03999691021
0.03999691021
0.03999851013
0.04000208627
0.0400074463
0.04001145953
0.0400074462
0.04000208616
0.03999851002
0.0399969101
0.03999645675
0.04000217699
0.04000217699
0.04000217699
0.04001161279
0.04002915686
0.04004743172
0.04002915645
0.04001161237
0.04000217662
0.03999851003
0.03999807878
0.04000226401
0.0400407084
0.0400407084
0.0400407084
0.04011118541
0.04022262272
0.04011118322
0.04004070634
0.04001161238
0.04000208617
0.04000045035
0.04000962755
0.04004164712
0.04039192691
0.04039192691
0.04039192691
0.04117726313
0.0403919132
0.04011118342
0.04002915657
0.04000744626
0.04000213975
0.04001655673
0.04007709753
0.04031597263
0.04763381833
0.04763381833
0.04763381833
0.04117726791
0.04117726791
0.04022262391
0.04004743196
0.04001145958
0.04000045032
0.04000962747
0.04004164681
0.04013446134
0.0403159735
0.04013446112
0.04011118745
0.04011118745
0.04011118745
0.04002915717
0.04000744638
0.03999807876
0.04000226396
0.0400145011
0.04004164679
0.04007709756
0.04004164667
0.04001450118
0.04001161307
0.04001161307
0.04001161307
0.04000208635
0.03999645673
0.0399981107
0.04000226394
0.04000962746
0.04001655672
0.04000962743
0.04000226395
0.03999811072
0.0399985102
0.0399985102
0.0399985102
0.0399957212
0.03999645673
0.03999807875
0.04000045033
0.04000213974
0.04000045033
0.03999807875
0.03999645673
0.03999572121
)
;
    }
}


// ************************************************************************* //
