/*--------------------------------*- C++ -*----------------------------------*\
| =========                 |                                                 |
| \\      /  F ield         | OpenFOAM: The Open Source CFD Toolbox           |
|  \\    /   O peration     | Version:  4.x                                   |
|   \\  /    A nd           | Web:      www.OpenFOAM.org                      |
|    \\/     M anipulation  |                                                 |
\*---------------------------------------------------------------------------*/
FoamFile
{
    version     2.0;
    format      ascii;
    class       volScalarField;
    location    "2000";
    object      X_H2O;
}
// * * * * * * * * * * * * * * * * * * * * * * * * * * * * * * * * * * * * * //

dimensions      [0 0 0 0 0 0 0];

internalField   nonuniform List<scalar> 
1174
(
3.090017192e-06
4.237862093e-06
5.856515766e-06
7.965155322e-06
1.054037578e-05
1.352453013e-05
1.68375572e-05
2.038880109e-05
2.408673861e-05
2.78453512e-05
3.158536173e-05
3.522250755e-05
3.860772722e-05
4.12650766e-05
4.164906963e-06
6.000524066e-06
8.4416658e-06
1.14306303e-05
1.486359617e-05
1.861537413e-05
2.255937952e-05
2.658068378e-05
3.05826741e-05
3.448857618e-05
3.823795101e-05
4.177233574e-05
4.497900715e-05
4.745210761e-05
6.535873471e-06
9.773027122e-06
1.377287271e-05
1.830879411e-05
2.313668461e-05
2.803814822e-05
3.284084049e-05
3.742252471e-05
4.170594917e-05
4.564954324e-05
4.923603573e-05
5.245511938e-05
5.525555896e-05
5.73510947e-05
1.000369429e-05
1.502378825e-05
2.077920652e-05
2.684846711e-05
3.288160539e-05
3.862814832e-05
4.393233237e-05
4.871472634e-05
5.295116166e-05
5.665385837e-05
5.98556428e-05
6.259342346e-05
6.487206161e-05
6.652056015e-05
1.247519214e-05
1.847169717e-05
2.500516492e-05
3.161549518e-05
3.797085232e-05
4.38601266e-05
4.916922628e-05
5.385508094e-05
5.792274523e-05
6.140718672e-05
6.4359009e-05
6.683037323e-05
6.884519296e-05
7.027856914e-05
1.00035947e-05
1.502364097e-05
2.077900211e-05
2.684819009e-05
3.288124577e-05
3.862769034e-05
4.393178421e-05
4.871408855e-05
5.295042112e-05
5.665302849e-05
5.985473058e-05
6.259243743e-05
6.48710048e-05
6.651943916e-05
6.535740822e-06
9.772852402e-06
1.377264186e-05
1.83084783e-05
2.313625817e-05
2.803758334e-05
3.284011537e-05
3.742163286e-05
4.170488727e-05
4.564831094e-05
4.923463591e-05
5.245356367e-05
5.525385289e-05
5.734924517e-05
4.16478497e-06
6.000382486e-06
8.441488709e-06
1.14303879e-05
1.486325749e-05
1.861490433e-05
2.255874178e-05
2.657985481e-05
3.058163904e-05
3.448732056e-05
3.823647251e-05
4.177062804e-05
4.49770758e-05
4.744998144e-05
3.089928064e-06
4.237774637e-06
5.85641009e-06
7.965005052e-06
1.054014671e-05
1.352418504e-05
1.68370574e-05
2.038811227e-05
2.408582611e-05
2.784419494e-05
3.158393949e-05
3.522080501e-05
3.860573868e-05
4.126279841e-05
2.923633659e-06
4.164812865e-06
6.000436936e-06
8.441581167e-06
1.143054721e-05
1.48635151e-05
1.861529441e-05
2.255929823e-05
2.658060586e-05
3.058259628e-05
3.448849977e-05
3.82378758e-05
4.177226455e-05
4.497893338e-05
4.745204047e-05
6.583082759e-06
9.7975808e-06
1.37120328e-05
1.809038769e-05
2.269660498e-05
2.733256559e-05
3.185129394e-05
3.615501508e-05
4.018629853e-05
4.391718183e-05
4.733770197e-05
5.043917402e-05
5.316681211e-05
5.52262955e-05
1.265715622e-05
1.888634904e-05
2.564718062e-05
3.236798803e-05
3.865900602e-05
4.430919324e-05
4.924332515e-05
5.347352187e-05
5.705957395e-05
6.008133037e-05
6.262095355e-05
6.474918899e-05
6.649892087e-05
6.775747353e-05
2.343066005e-05
3.3766044e-05
4.357910891e-05
5.213982385e-05
5.919688463e-05
6.478835366e-05
6.909171229e-05
7.232971069e-05
7.472015386e-05
7.645386297e-05
7.768818406e-05
7.854792946e-05
7.912708633e-05
7.947495135e-05
3.357506015e-05
4.599332112e-05
5.650103682e-05
6.482834175e-05
7.114496325e-05
7.577600393e-05
7.906594877e-05
8.132320412e-05
8.280332552e-05
8.370941541e-05
8.41991875e-05
8.439501157e-05
8.439777635e-05
8.431400585e-05
2.343027069e-05
3.376556983e-05
4.357854504e-05
5.213914479e-05
5.919608042e-05
6.478741659e-05
6.909067083e-05
7.232857486e-05
7.471892505e-05
7.645256432e-05
7.76868284e-05
7.854651691e-05
7.912563399e-05
7.947346163e-05
1.265672504e-05
1.888589071e-05
2.564663815e-05
3.236730693e-05
3.865813529e-05
4.430811494e-05
4.92420245e-05
5.347201538e-05
5.705787581e-05
6.007945233e-05
6.26189224e-05
6.47470256e-05
6.649663019e-05
6.775505324e-05
6.582807622e-06
9.797326114e-06
1.371172303e-05
1.808995505e-05
2.269599395e-05
2.733173885e-05
3.185022396e-05
3.615368916e-05
4.018471329e-05
4.391533861e-05
4.733561369e-05
5.043685861e-05
5.31642736e-05
5.522356512e-05
4.164794484e-06
6.000382214e-06
8.441465331e-06
1.143032862e-05
1.486314631e-05
1.861472567e-05
2.255848982e-05
2.657952054e-05
3.058121603e-05
3.448681073e-05
3.823586803e-05
4.176994533e-05
4.497630036e-05
4.744908794e-05
4.204597328e-06
6.535641109e-06
9.772783477e-06
1.377262175e-05
1.830853664e-05
2.31364254e-05
2.803788787e-05
3.28405765e-05
3.742226236e-05
4.170569613e-05
4.564929249e-05
4.923578484e-05
5.245487162e-05
5.525531708e-05
5.735085053e-05
7.618810384e-06
1.265682205e-05
1.888605281e-05
2.564690334e-05
3.236772709e-05
3.865876274e-05
4.430895865e-05
4.924309637e-05
5.347329934e-05
5.705936116e-05
6.008112926e-05
6.262075038e-05
6.474899416e-05
6.649873902e-05
6.775729698e-05
3.056291618e-05
4.366494284e-05
5.550831323e-05
6.52032132e-05
7.257265742e-05
7.783608781e-05
8.137361247e-05
8.358703476e-05
8.48334073e-05
8.540237937e-05
8.551634638e-05
8.534216526e-05
8.501310557e-05
8.468125552e-05
7.030569944e-05
9.237470423e-05
0.0001075613924
0.0001165011287
0.0001206792014
0.0001215866454
0.0001204236035
0.0001180578867
0.0001150770179
0.0001118600677
0.0001086431844
0.0001055776248
0.0001028071091
0.0001006876111
0.0001222555965
0.000144156479
0.0001535217945
0.0001551280461
0.0001523835247
0.0001474320024
0.0001415427291
0.0001354369533
0.0001295073442
0.0001239542832
0.0001188702103
0.0001143003952
0.0001103289764
0.0001073618272
7.030392074e-05
9.23729956e-05
0.0001075596197
0.0001164992306
0.0001206771579
0.0001215845083
0.000120421423
0.0001180556862
0.0001150748093
0.0001118578566
0.0001086410198
0.0001055754915
0.0001028050103
0.0001006855362
3.056153242e-05
4.366375902e-05
5.550697927e-05
6.520156976e-05
7.257067058e-05
7.783378717e-05
8.137104514e-05
8.358424063e-05
8.483044398e-05
8.53992866e-05
8.551317026e-05
8.53389235e-05
8.500981789e-05
8.467789838e-05
1.265674449e-05
1.888582899e-05
2.564644756e-05
3.236695479e-05
3.865761443e-05
4.430742362e-05
4.924118482e-05
5.34710354e-05
5.705677344e-05
6.007825044e-05
6.26176354e-05
6.474566441e-05
6.649521597e-05
6.775358619e-05
6.535768369e-06
9.772827479e-06
1.377251385e-05
1.830819777e-05
2.313578743e-05
2.803689926e-05
3.283920621e-05
3.742049459e-05
4.170352272e-05
4.564673805e-05
4.9232862e-05
5.245160582e-05
5.525172357e-05
5.734692938e-05
6.125101794e-06
1.000328925e-05
1.502332857e-05
2.077871102e-05
2.684794472e-05
3.288106544e-05
3.862759723e-05
4.393178097e-05
4.871418829e-05
5.295062826e-05
5.665333414e-05
5.985513525e-05
6.259293103e-05
6.487158425e-05
6.65200931e-05
1.390728644e-05
2.342992041e-05
3.376531571e-05
4.357840882e-05
5.213915937e-05
5.91962482e-05
6.478773443e-05
6.909113219e-05
7.232916334e-05
7.471962986e-05
7.645336557e-05
7.768771754e-05
7.854747381e-05
7.912666805e-05
7.947455899e-05
4.332064174e-05
7.030430167e-05
9.237364698e-05
0.0001075605258
0.0001165003978
0.0001206785562
0.0001215860761
0.0001204231199
0.0001180574604
0.0001150766206
0.0001118596932
0.0001086428589
0.0001055773187
0.0001028068295
0.000100687359
0.0002063267244
0.0002339991071
0.0002384903418
0.0002304436662
0.0002168166838
0.0002015301377
0.0001865679694
0.000172812458
0.0001605652219
0.000149844396
0.0001405470261
0.0001325489873
0.0001258336261
0.0001209325296
0.0004728439894
0.000437884319
0.0003843178151
0.0003329904312
0.0002893905094
0.0002538314698
0.0002251541254
0.0002019950251
0.0001831663511
0.0001677270541
0.0001549624389
0.0001443611467
0.0001356826338
0.0001294497086
0.0002063202222
0.0002339944144
0.0002384859706
0.0002304393131
0.0002168123567
0.0002015259644
0.000186563985
0.0001728086905
0.0001605616965
0.0001498410612
0.0001405438672
0.0001325459888
0.0001258307763
0.0001209297519
7.030408564e-05
9.237240013e-05
0.0001075582677
0.0001164972816
0.0001206748059
0.0001215819303
0.0001204186982
0.0001180529138
0.0001150720441
0.000111855137
0.0001086383555
0.0001055728762
0.0001028024474
0.0001006829887
2.343038826e-05
3.376530591e-05
4.357776522e-05
5.213782303e-05
5.919424788e-05
6.478514385e-05
6.908802573e-05
7.23256397e-05
7.471577062e-05
7.644924706e-05
7.768338742e-05
7.854298876e-05
7.912203282e-05
7.946977701e-05
1.000367203e-05
1.502355522e-05
2.077863403e-05
2.684744684e-05
3.288006968e-05
3.862606778e-05
4.392971335e-05
4.871159365e-05
5.294754769e-05
5.664980624e-05
5.985120859e-05
6.258865324e-05
6.486697516e-05
6.65151547e-05
7.563523493e-06
1.247470948e-05
1.847112174e-05
2.500451523e-05
3.161479019e-05
3.797011116e-05
4.385936316e-05
4.916845841e-05
5.385430698e-05
5.792198276e-05
6.140644024e-05
6.435828408e-05
6.682966453e-05
6.884450871e-05
7.02779e-05
2.045990288e-05
3.357409361e-05
4.599227661e-05
5.649995669e-05
6.482727564e-05
7.114392886e-05
7.577501079e-05
7.906500996e-05
8.132231361e-05
8.280248164e-05
8.370861601e-05
8.419844306e-05
8.439429686e-05
8.439709712e-05
8.431335146e-05
8.3288878e-05
0.0001222533778
0.0001441542803
0.0001535198009
0.0001551263022
0.0001523820066
0.0001474306732
0.0001415415748
0.0001354359391
0.0001295064309
0.0001239534606
0.0001188694688
0.0001142997223
0.0001103283445
0.0001073612515
0.0004257673694
0.0004728369096
0.0004378798298
0.0003843147131
0.000332988218
0.0002893888578
0.0002538302467
0.0002251531394
0.0002019941686
0.0001831656263
0.0001677264426
0.0001549618998
0.0001443606941
0.0001356822414
0.0001294493515
0.001623484254
0.001038079054
0.0007140959677
0.000524422678
0.0004069232317
0.0003300511091
0.0002771656609
0.0002391335338
0.0002107346274
0.0001888622504
0.0001715982408
0.0001577436965
0.0001466784193
0.0001388500415
0.0004728447846
0.0004378774119
0.0003843088094
0.0003329814861
0.0002893822679
0.0002538241173
0.0002251475806
0.0002019891845
0.0001831610803
0.0001677222995
0.0001549580797
0.0001443571433
0.0001356789089
0.0001294461495
0.0001222563386
0.0001441539471
0.0001535170118
0.0001551219697
0.0001523768126
0.00014742506
0.0001415358063
0.0001354301815
0.0001295007708
0.0001239479371
0.000118864121
0.000114294547
0.0001103233291
0.0001073562921
3.357531211e-05
4.59925612e-05
5.649915394e-05
6.482545087e-05
7.114122893e-05
7.577159522e-05
7.906103718e-05
8.131791909e-05
8.279779652e-05
8.370369391e-05
8.419335061e-05
8.438908753e-05
8.439178774e-05
8.430793431e-05
1.247530414e-05
1.847146675e-05
2.50044117e-05
3.161410911e-05
3.796878942e-05
4.385738239e-05
4.916584332e-05
5.385111519e-05
5.791825785e-05
6.140224514e-05
6.435368216e-05
6.682470459e-05
6.8839236e-05
7.027229887e-05
6.125066611e-06
1.000316423e-05
1.502310073e-05
2.077836525e-05
2.684747363e-05
3.288046902e-05
3.862687673e-05
4.393094018e-05
4.871322328e-05
5.29495574e-05
5.665216692e-05
5.985388136e-05
6.25916027e-05
6.487018476e-05
6.651862498e-05
1.390697949e-05
2.342936389e-05
3.376453788e-05
4.357743579e-05
5.213800865e-05
5.91949435e-05
6.4786297e-05
6.908958801e-05
7.232751992e-05
7.471791572e-05
7.645159882e-05
7.768590195e-05
7.854562391e-05
7.912478126e-05
7.947262562e-05
4.331767162e-05
7.030150773e-05
9.237058463e-05
0.0001075573331
0.0001164971427
0.0001206752653
0.0001215828174
0.0001204198999
0.0001180543106
0.0001150735741
0.0001118567332
0.0001086399848
0.0001055745371
0.0001028041324
0.0001006846883
0.0001440044321
0.000206313796
0.0002339891728
0.00023848181
0.0002304360315
0.0002168097412
0.000201523839
0.000186562259
0.000172807235
0.0001605604492
0.0001498399897
0.0001405429406
0.0001325451636
0.0001258300187
0.0001209290447
0.0004257663439
0.0004728349421
0.0004378712929
0.0003843047876
0.0003329787281
0.0002893802635
0.0002538226213
0.0002251464113
0.0002019882335
0.0001831603049
0.0001677216357
0.0001549575307
0.0001443566586
0.0001356784775
0.0001294457532
0.0001440065952
0.0002063135864
0.0002339866811
0.0002384778546
0.0002304313599
0.0002168048679
0.0002015190212
0.0001865576886
0.000172802917
0.0001605564171
0.0001498361982
0.0001405393649
0.000132541816
0.0001258268646
0.0001209260058
7.030583574e-05
9.237155389e-05
0.0001075559207
0.000116494072
0.0001206711615
0.0001215780909
0.0001204148337
0.0001180491089
0.0001150683397
0.0001118515621
0.0001086349173
0.0001055695607
0.0001027992541
0.0001006798585
2.343095678e-05
3.376526493e-05
4.357711799e-05
5.213666569e-05
5.919269795e-05
6.478330215e-05
6.908598432e-05
7.232344535e-05
7.471348204e-05
7.644688606e-05
7.768099333e-05
7.854056599e-05
7.911960683e-05
7.946732893e-05
1.000383641e-05
1.502357241e-05
2.077842752e-05
2.684698478e-05
3.287934544e-05
3.862509519e-05
4.392851786e-05
4.871020188e-05
5.294599159e-05
5.664811136e-05
5.984939522e-05
6.258674122e-05
6.486498995e-05
6.651309582e-05
4.204526219e-06
6.535462352e-06
9.772482142e-06
1.377217913e-05
1.830793035e-05
2.313563344e-05
2.803689697e-05
3.28393836e-05
3.742085637e-05
4.170408642e-05
4.5647489e-05
4.923380008e-05
5.245272003e-05
5.525301128e-05
5.734840535e-05
7.618312452e-06
1.265616388e-05
1.888518946e-05
2.564582608e-05
3.236641417e-05
3.865719606e-05
4.430714096e-05
4.924103495e-05
5.347102391e-05
5.705689082e-05
6.007847883e-05
6.261795853e-05
6.474608802e-05
6.649571321e-05
6.77541617e-05
1.804715774e-05
3.056017879e-05
4.366223414e-05
5.55053721e-05
6.519997417e-05
7.256911494e-05
7.783229879e-05
8.136963925e-05
8.358290315e-05
8.48291892e-05
8.539810434e-05
8.551206232e-05
8.533787289e-05
8.500882548e-05
8.467695231e-05
4.331768336e-05
7.030094273e-05
9.236927134e-05
0.0001075553732
0.0001164946749
0.0001206724829
0.0001215798757
0.0001204168935
0.0001180513016
0.0001150706128
0.0001118538467
0.0001086371806
0.0001055718065
0.0001028014717
0.0001006820797
8.328880306e-05
0.0001222509943
0.0001441494386
0.0001535133246
0.0001551189821
0.0001523743859
0.000147423062
0.0001415341298
0.0001354287691
0.0001294995597
0.0001239468878
0.0001188631886
0.0001142937035
0.0001103225682
0.0001073555817
4.331749286e-05
7.030029763e-05
9.236795517e-05
0.0001075534245
0.0001164922577
0.0001206697701
0.0001215770017
0.0001204139326
0.0001180483591
0.0001150677111
0.000111851011
0.0001086344141
0.0001055691152
0.0001027988542
0.0001006794952
1.804814981e-05
3.056089936e-05
4.366218187e-05
5.550441209e-05
6.519816392e-05
7.256660338e-05
7.782924482e-05
8.136618308e-05
8.357920103e-05
8.482529892e-05
8.539411002e-05
8.550799949e-05
8.533378643e-05
8.500472059e-05
8.467281503e-05
1.265714743e-05
1.888564397e-05
2.564566672e-05
3.236560083e-05
3.865573651e-05
4.430508243e-05
4.92384513e-05
5.346798005e-05
5.705345195e-05
6.007472038e-05
6.261393567e-05
6.47418339e-05
6.649126825e-05
6.774954403e-05
6.535961578e-06
9.772847841e-06
1.377227113e-05
1.830763224e-05
2.313486579e-05
2.803560945e-05
3.28375543e-05
3.741850282e-05
4.170122309e-05
4.564415196e-05
4.923002582e-05
5.244855008e-05
5.524848116e-05
5.734352187e-05
2.923516861e-06
4.16462261e-06
6.000152149e-06
8.441183329e-06
1.143000585e-05
1.486279956e-05
1.861437169e-05
2.255814715e-05
2.657920655e-05
3.058094014e-05
3.448658119e-05
3.823569672e-05
4.17698361e-05
4.497626612e-05
4.744915659e-05
4.237087808e-06
6.582510525e-06
9.79692369e-06
1.371122102e-05
1.808936276e-05
2.269532384e-05
2.733100376e-05
3.184943897e-05
3.615286236e-05
4.018385298e-05
4.391446114e-05
4.733472368e-05
5.043596629e-05
5.31633797e-05
5.522266144e-05
7.618303455e-06
1.265609139e-05
1.888499873e-05
2.564548303e-05
3.236589809e-05
3.865650138e-05
4.430628148e-05
4.924003313e-05
5.346988632e-05
5.705564003e-05
6.007714629e-05
6.261655578e-05
6.474461258e-05
6.649419107e-05
6.775258688e-05
1.390698257e-05
2.34290757e-05
3.376378068e-05
4.35761303e-05
5.213616399e-05
5.91926189e-05
6.478358007e-05
6.908654401e-05
7.232423584e-05
7.471445312e-05
7.644800478e-05
7.768220926e-05
7.854187561e-05
7.912098273e-05
7.946878054e-05
2.045987848e-05
3.357330116e-05
4.599044696e-05
5.649709506e-05
6.48235124e-05
7.113943495e-05
7.57699589e-05
7.905955465e-05
8.131657644e-05
8.279655088e-05
8.37025504e-05
8.419229836e-05
8.438811498e-05
8.439089199e-05
8.430707614e-05
1.390686847e-05
2.342881432e-05
3.376329226e-05
4.35753761e-05
5.213514377e-05
5.919135717e-05
6.47821153e-05
6.908492314e-05
7.232249755e-05
7.471262162e-05
7.644610415e-05
7.768027129e-05
7.853990479e-05
7.911898853e-05
7.946675608e-05
7.618373546e-06
1.265611319e-05
1.888480966e-05
2.564496257e-05
3.236498998e-05
3.865519193e-05
4.430459717e-05
4.923801572e-05
5.346757993e-05
5.705308828e-05
6.007438946e-05
6.261362517e-05
6.474154574e-05
6.649100162e-05
6.774930088e-05
4.237294589e-06
6.582730529e-06
9.797024331e-06
1.371108902e-05
1.80889126e-05
2.26945072e-05
2.732979181e-05
3.184782896e-05
3.615086354e-05
4.018149638e-05
4.391176293e-05
4.733171726e-05
5.043267139e-05
5.315982817e-05
5.521888477e-05
4.164915829e-06
6.000357329e-06
8.441236428e-06
1.142983255e-05
1.486232982e-05
1.861354919e-05
2.255693055e-05
2.657756823e-05
3.057887091e-05
3.448408341e-05
3.823278203e-05
4.176651349e-05
4.497255837e-05
4.744508183e-05
2.35053178e-06
3.089820804e-06
4.237615058e-06
5.856188597e-06
7.96471526e-06
1.053978483e-05
1.352375209e-05
1.683655382e-05
2.038754169e-05
2.408519699e-05
2.784351176e-05
3.158320999e-05
3.522004532e-05
3.860494776e-05
4.12619866e-05
2.923518843e-06
4.164616274e-06
6.00012705e-06
8.441124595e-06
1.142990111e-05
1.486263401e-05
1.861413491e-05
2.255783026e-05
2.657880115e-05
3.058044816e-05
3.448600595e-05
3.823503502e-05
4.17690876e-05
4.497542825e-05
4.744820651e-05
4.204529586e-06
6.535425955e-06
9.772359673e-06
1.377192455e-05
1.830749677e-05
2.313499489e-05
2.803603529e-05
3.283828373e-05
3.741953347e-05
4.170253788e-05
4.564574356e-05
4.923186355e-05
5.245061457e-05
5.525074565e-05
5.734595828e-05
6.125081847e-06
1.000306143e-05
1.502276249e-05
2.077768781e-05
2.684638669e-05
3.287893384e-05
3.862488774e-05
4.392851402e-05
4.871039452e-05
5.294636315e-05
5.664865279e-05
5.985009211e-05
6.258756359e-05
6.486592614e-05
6.651413854e-05
7.563521549e-06
1.24744492e-05
1.84704214e-05
2.500323592e-05
3.161286068e-05
3.796751031e-05
4.385610952e-05
4.916459909e-05
5.384990667e-05
5.791709947e-05
6.140114615e-05
6.435263474e-05
6.682371148e-05
6.88382919e-05
7.027139961e-05
6.125037905e-06
1.00029607e-05
1.502256794e-05
2.077736289e-05
2.684591067e-05
3.287829078e-05
3.862407047e-05
4.392754202e-05
4.870927899e-05
5.294511587e-05
5.664728496e-05
5.984862629e-05
6.258601451e-05
6.486430438e-05
6.651243676e-05
4.204515124e-06
6.53537951e-06
9.772222655e-06
1.377163358e-05
1.83070007e-05
2.313425064e-05
2.803501829e-05
3.283699178e-05
3.74179687e-05
4.170072114e-05
4.564367647e-05
4.922958168e-05
5.244814105e-05
5.524809053e-05
5.734314829e-05
2.923542334e-06
4.164644478e-06
6.000108524e-06
8.440997342e-06
1.142959951e-05
1.486210236e-05
1.861332829e-05
2.255671641e-05
2.657736113e-05
3.057867363e-05
3.448389365e-05
3.823259912e-05
4.176634393e-05
4.497240349e-05
4.744493439e-05
2.350590028e-06
3.089900548e-06
4.237675951e-06
5.856177333e-06
7.964570621e-06
1.053944425e-05
1.352315634e-05
1.683565158e-05
2.038628921e-05
2.40835654e-05
2.784148087e-05
3.158077224e-05
3.521719581e-05
3.860170579e-05
4.125836195e-05
)
;

boundaryField
{
    top
    {
        type            calculated;
        value           nonuniform List<scalar> 
127
(
2.350590028e-06
3.089928064e-06
4.164794484e-06
6.535768369e-06
1.000367203e-05
1.247530414e-05
1.000383641e-05
6.535961578e-06
4.164915829e-06
3.089900548e-06
4.237774637e-06
6.000382214e-06
9.772827479e-06
1.502355522e-05
1.847146675e-05
1.502357241e-05
9.772847841e-06
6.000357329e-06
4.237675951e-06
5.85641009e-06
8.441465331e-06
1.377251385e-05
2.077863403e-05
2.50044117e-05
2.077842752e-05
1.377227113e-05
8.441236428e-06
5.856177333e-06
7.965005052e-06
1.143032862e-05
1.830819777e-05
2.684744684e-05
3.161410911e-05
2.684698478e-05
1.830763224e-05
1.142983255e-05
7.964570621e-06
1.054014671e-05
1.486314631e-05
2.313578743e-05
3.288006968e-05
3.796878942e-05
3.287934544e-05
2.313486579e-05
1.486232982e-05
1.053944425e-05
1.352418504e-05
1.861472567e-05
2.803689926e-05
3.862606778e-05
4.385738239e-05
3.862509519e-05
2.803560945e-05
1.861354919e-05
1.352315634e-05
1.68370574e-05
2.255848982e-05
3.283920621e-05
4.392971335e-05
4.916584332e-05
4.392851786e-05
3.28375543e-05
2.255693055e-05
1.683565158e-05
2.038811227e-05
2.657952054e-05
3.742049459e-05
4.871159365e-05
5.385111519e-05
4.871020188e-05
3.741850282e-05
2.657756823e-05
2.038628921e-05
2.408582611e-05
3.058121603e-05
4.170352272e-05
5.294754769e-05
5.791825785e-05
5.294599159e-05
4.170122309e-05
3.057887091e-05
2.40835654e-05
2.784419494e-05
3.448681073e-05
4.564673805e-05
5.664980624e-05
6.140224514e-05
5.664811136e-05
4.564415196e-05
3.448408341e-05
2.784148087e-05
3.158393949e-05
3.823586803e-05
4.9232862e-05
5.985120859e-05
6.435368216e-05
5.984939522e-05
4.923002582e-05
3.823278203e-05
3.158077224e-05
3.522080501e-05
4.176994533e-05
5.245160582e-05
6.258865324e-05
6.682470459e-05
6.258674122e-05
5.244855008e-05
4.176651349e-05
3.521719581e-05
3.860573868e-05
4.497630036e-05
5.525172357e-05
6.486697516e-05
6.8839236e-05
6.486498995e-05
5.524848116e-05
4.497255837e-05
3.860170579e-05
4.126279841e-05
4.744908794e-05
5.734692938e-05
6.65151547e-05
7.027229887e-05
6.651309582e-05
5.734352187e-05
4.744508183e-05
4.125836195e-05
)
;
    }
    bottom
    {
        type            calculated;
        value           nonuniform List<scalar> 
134
(
2.923633659e-06
4.204597328e-06
6.125101794e-06
7.563523493e-06
6.125066611e-06
4.204526219e-06
2.923516861e-06
2.35053178e-06
3.090017192e-06
4.164812865e-06
6.535641109e-06
1.000328925e-05
1.247470948e-05
1.000316423e-05
6.535462352e-06
4.16462261e-06
3.089820804e-06
4.237862093e-06
6.000436936e-06
9.772783477e-06
1.502332857e-05
1.847112174e-05
1.502310073e-05
9.772482142e-06
6.000152149e-06
4.237615058e-06
5.856515766e-06
8.441581167e-06
1.377262175e-05
2.077871102e-05
2.500451523e-05
2.077836525e-05
1.377217913e-05
8.441183329e-06
5.856188597e-06
7.965155322e-06
1.143054721e-05
1.830853664e-05
2.684794472e-05
3.161479019e-05
2.684747363e-05
1.830793035e-05
1.143000585e-05
7.96471526e-06
1.054037578e-05
1.48635151e-05
2.31364254e-05
3.288106544e-05
3.797011116e-05
3.288046902e-05
2.313563344e-05
1.486279956e-05
1.053978483e-05
1.352453013e-05
1.861529441e-05
2.803788787e-05
3.862759723e-05
4.385936316e-05
3.862687673e-05
2.803689697e-05
1.861437169e-05
1.352375209e-05
1.68375572e-05
2.255929823e-05
3.28405765e-05
4.393178097e-05
4.916845841e-05
4.393094018e-05
3.28393836e-05
2.255814715e-05
1.683655382e-05
2.038880109e-05
2.658060586e-05
3.742226236e-05
4.871418829e-05
5.385430698e-05
4.871322328e-05
3.742085637e-05
2.657920655e-05
2.038754169e-05
2.408673861e-05
3.058259628e-05
4.170569613e-05
5.295062826e-05
5.792198276e-05
5.29495574e-05
4.170408642e-05
3.058094014e-05
2.408519699e-05
2.78453512e-05
3.448849977e-05
4.564929249e-05
5.665333414e-05
6.140644024e-05
5.665216692e-05
4.5647489e-05
3.448658119e-05
2.784351176e-05
3.158536173e-05
3.82378758e-05
4.923578484e-05
5.985513525e-05
6.435828408e-05
5.985388136e-05
4.923380008e-05
3.823569672e-05
3.158320999e-05
3.522250755e-05
4.177226455e-05
5.245487162e-05
6.259293103e-05
6.682966453e-05
6.25916027e-05
5.245272003e-05
4.17698361e-05
3.522004532e-05
3.860772722e-05
4.497893338e-05
5.525531708e-05
6.487158425e-05
6.884450871e-05
6.487018476e-05
5.525301128e-05
4.497626612e-05
3.860494776e-05
4.12650766e-05
4.745204047e-05
5.735085053e-05
6.65200931e-05
7.02779e-05
6.651862498e-05
5.734840535e-05
4.744915659e-05
4.12619866e-05
)
;
    }
    side-walls
    {
        type            calculated;
        value           nonuniform List<scalar> 
261
(
3.090017192e-06
4.164906963e-06
6.535873471e-06
1.000369429e-05
1.247519214e-05
1.00035947e-05
6.535740822e-06
4.16478497e-06
3.089928064e-06
4.237862093e-06
6.000524066e-06
9.773027122e-06
1.502378825e-05
1.847169717e-05
1.502364097e-05
9.772852402e-06
6.000382486e-06
4.237774637e-06
5.856515766e-06
8.4416658e-06
1.377287271e-05
2.077920652e-05
2.500516492e-05
2.077900211e-05
1.377264186e-05
8.441488709e-06
5.85641009e-06
7.965155322e-06
1.14306303e-05
1.830879411e-05
2.684846711e-05
3.161549518e-05
2.684819009e-05
1.83084783e-05
1.14303879e-05
7.965005052e-06
1.054037578e-05
1.486359617e-05
2.313668461e-05
3.288160539e-05
3.797085232e-05
3.288124577e-05
2.313625817e-05
1.486325749e-05
1.054014671e-05
1.352453013e-05
1.861537413e-05
2.803814822e-05
3.862814832e-05
4.38601266e-05
3.862769034e-05
2.803758334e-05
1.861490433e-05
1.352418504e-05
1.68375572e-05
2.255937952e-05
3.284084049e-05
4.393233237e-05
4.916922628e-05
4.393178421e-05
3.284011537e-05
2.255874178e-05
1.68370574e-05
2.038880109e-05
2.658068378e-05
3.742252471e-05
4.871472634e-05
5.385508094e-05
4.871408855e-05
3.742163286e-05
2.657985481e-05
2.038811227e-05
2.408673861e-05
3.05826741e-05
4.170594917e-05
5.295116166e-05
5.792274523e-05
5.295042112e-05
4.170488727e-05
3.058163904e-05
2.408582611e-05
2.78453512e-05
3.448857618e-05
4.564954324e-05
5.665385837e-05
6.140718672e-05
5.665302849e-05
4.564831094e-05
3.448732056e-05
2.784419494e-05
3.158536173e-05
3.823795101e-05
4.923603573e-05
5.98556428e-05
6.4359009e-05
5.985473058e-05
4.923463591e-05
3.823647251e-05
3.158393949e-05
3.522250755e-05
4.177233574e-05
5.245511938e-05
6.259342346e-05
6.683037323e-05
6.259243743e-05
5.245356367e-05
4.177062804e-05
3.522080501e-05
3.860772722e-05
4.497900715e-05
5.525555896e-05
6.487206161e-05
6.884519296e-05
6.48710048e-05
5.525385289e-05
4.49770758e-05
3.860573868e-05
4.12650766e-05
4.745210761e-05
5.73510947e-05
6.652056015e-05
7.027856914e-05
6.651943916e-05
5.734924517e-05
4.744998144e-05
4.126279841e-05
2.35053178e-06
2.923518843e-06
4.204529586e-06
6.125081847e-06
7.563521549e-06
6.125037905e-06
4.204515124e-06
2.923542334e-06
2.350590028e-06
3.089820804e-06
4.164616274e-06
6.535425955e-06
1.000306143e-05
1.24744492e-05
1.00029607e-05
6.53537951e-06
4.164644478e-06
3.089900548e-06
4.237615058e-06
6.00012705e-06
9.772359673e-06
1.502276249e-05
1.84704214e-05
1.502256794e-05
9.772222655e-06
6.000108524e-06
4.237675951e-06
5.856188597e-06
8.441124595e-06
1.377192455e-05
2.077768781e-05
2.500323592e-05
2.077736289e-05
1.377163358e-05
8.440997342e-06
5.856177333e-06
7.96471526e-06
1.142990111e-05
1.830749677e-05
2.684638669e-05
3.161286068e-05
2.684591067e-05
1.83070007e-05
1.142959951e-05
7.964570621e-06
1.053978483e-05
1.486263401e-05
2.313499489e-05
3.287893384e-05
3.796751031e-05
3.287829078e-05
2.313425064e-05
1.486210236e-05
1.053944425e-05
1.352375209e-05
1.861413491e-05
2.803603529e-05
3.862488774e-05
4.385610952e-05
3.862407047e-05
2.803501829e-05
1.861332829e-05
1.352315634e-05
1.683655382e-05
2.255783026e-05
3.283828373e-05
4.392851402e-05
4.916459909e-05
4.392754202e-05
3.283699178e-05
2.255671641e-05
1.683565158e-05
2.038754169e-05
2.657880115e-05
3.741953347e-05
4.871039452e-05
5.384990667e-05
4.870927899e-05
3.74179687e-05
2.657736113e-05
2.038628921e-05
2.408519699e-05
3.058044816e-05
4.170253788e-05
5.294636315e-05
5.791709947e-05
5.294511587e-05
4.170072114e-05
3.057867363e-05
2.40835654e-05
2.784351176e-05
3.448600595e-05
4.564574356e-05
5.664865279e-05
6.140114615e-05
5.664728496e-05
4.564367647e-05
3.448389365e-05
2.784148087e-05
3.158320999e-05
3.823503502e-05
4.923186355e-05
5.985009211e-05
6.435263474e-05
5.984862629e-05
4.922958168e-05
3.823259912e-05
3.158077224e-05
3.522004532e-05
4.17690876e-05
5.245061457e-05
6.258756359e-05
6.682371148e-05
6.258601451e-05
5.244814105e-05
4.176634393e-05
3.521719581e-05
3.860494776e-05
4.497542825e-05
5.525074565e-05
6.486592614e-05
6.88382919e-05
6.486430438e-05
5.524809053e-05
4.497240349e-05
3.860170579e-05
4.12619866e-05
4.744820651e-05
5.734595828e-05
6.651413854e-05
7.027139961e-05
6.651243676e-05
5.734314829e-05
4.744493439e-05
4.125836195e-05
)
;
    }
    inlet
    {
        type            calculated;
        value           nonuniform 0();
    }
    outlet
    {
        type            calculated;
        value           nonuniform List<scalar> 
81
(
4.12650766e-05
4.745210761e-05
5.73510947e-05
6.652056015e-05
7.027856914e-05
6.651943916e-05
5.734924517e-05
4.744998144e-05
4.126279841e-05
4.745204047e-05
5.52262955e-05
6.775747353e-05
7.947495135e-05
8.431400585e-05
7.947346163e-05
6.775505324e-05
5.522356512e-05
4.744908794e-05
5.735085053e-05
6.775729698e-05
8.468125552e-05
0.0001006876111
0.0001073618272
0.0001006855362
8.467789838e-05
6.775358619e-05
5.734692938e-05
6.65200931e-05
7.947455899e-05
0.000100687359
0.0001209325296
0.0001294497086
0.0001209297519
0.0001006829887
7.946977701e-05
6.65151547e-05
7.02779e-05
8.431335146e-05
0.0001073612515
0.0001294493515
0.0001388500415
0.0001294461495
0.0001073562921
8.430793431e-05
7.027229887e-05
6.651862498e-05
7.947262562e-05
0.0001006846883
0.0001209290447
0.0001294457532
0.0001209260058
0.0001006798585
7.946732893e-05
6.651309582e-05
5.734840535e-05
6.77541617e-05
8.467695231e-05
0.0001006820797
0.0001073555817
0.0001006794952
8.467281503e-05
6.774954403e-05
5.734352187e-05
4.744915659e-05
5.522266144e-05
6.775258688e-05
7.946878054e-05
8.430707614e-05
7.946675608e-05
6.774930088e-05
5.521888477e-05
4.744508183e-05
4.12619866e-05
4.744820651e-05
5.734595828e-05
6.651413854e-05
7.027139961e-05
6.651243676e-05
5.734314829e-05
4.744493439e-05
4.125836195e-05
)
;
    }
    procBoundary1to0
    {
        type            processor;
        value           nonuniform List<scalar> 
97
(
2.350587798e-06
2.350587798e-06
2.923523369e-06
4.204425854e-06
6.124783277e-06
7.563038952e-06
6.124702169e-06
4.20431349e-06
2.923409897e-06
2.350471999e-06
2.188520041e-06
4.237296103e-06