/*--------------------------------*- C++ -*----------------------------------*\
| =========                 |                                                 |
| \\      /  F ield         | OpenFOAM: The Open Source CFD Toolbox           |
|  \\    /   O peration     | Version:  4.x                                   |
|   \\  /    A nd           | Web:      www.OpenFOAM.org                      |
|    \\/     M anipulation  |                                                 |
\*---------------------------------------------------------------------------*/
FoamFile
{
    version     2.0;
    format      ascii;
    class       volScalarField;
    location    "2000";
    object      X_H2;
}
// * * * * * * * * * * * * * * * * * * * * * * * * * * * * * * * * * * * * * //

dimensions      [0 0 0 0 0 0 0];

internalField   nonuniform List<scalar> 
1174
(
0.02997573288
0.02997458558
0.0299729677
0.02997086011
0.02996828624
0.02996530374
0.02996199268
0.0299584437
0.02995474831
0.02995099248
0.02994725546
0.02994362145
0.02994023935
0.02993758456
0.02997465848
0.02997282365
0.02997038357
0.029967396
0.02996396474
0.029960215
0.02995627332
0.02995225462
0.02994825546
0.02994435259
0.02994060639
0.02993707527
0.0299338718
0.02993140125
0.02997228841
0.02996905243
0.02996505414
0.02996052014
0.02995569452
0.02995079563
0.02994599576
0.02994141711
0.02993713687
0.02993319658
0.02992961347
0.02992639777
0.02992360057
0.02992150759
0.02996882158
0.02996380307
0.02995804969
0.02995198286
0.02994595249
0.02994020897
0.029934908
0.02993012895
0.02992589594
0.02992219672
0.0299189984
0.02991626404
0.02991398864
0.02991234264
0.02996635052
0.02996035578
0.02995382455
0.02994721685
0.02994086442
0.02993497831
0.02992967253
0.0299249901
0.02992092591
0.02991744495
0.0299144966
0.02991202864
0.02991001701
0.02990858609
0.02996882162
0.02996380314
0.02995804977
0.02995198296
0.0299459526
0.02994020909
0.02993490813
0.02993012908
0.02992589609
0.02992219687
0.02991899856
0.0299162642
0.02991398881
0.02991234281
0.02997228845
0.0299690525
0.02996505422
0.02996052024
0.02995569464
0.02995079576
0.02994599592
0.02994141729
0.02993713707
0.02993319679
0.0299296137
0.02992639802
0.02992360083
0.02992150787
0.02997465853
0.0299728237
0.02997038364
0.02996739608
0.02996396484
0.02996021512
0.02995627347
0.02995225479
0.02994825565
0.02994435281
0.02994060664
0.02993707555
0.0299338721
0.02993140158
0.02997573291
0.02997458562
0.02997296775
0.02997086017
0.02996828632
0.02996530384
0.0299619928
0.02995844385
0.02995474848
0.02995099269
0.02994725571
0.02994362173
0.02994023966
0.0299375849
0.02997589912
0.02997465849
0.02997282365
0.02997038358
0.029967396
0.02996396475
0.029960215
0.02995627332
0.02995225462
0.02994825546
0.02994435259
0.02994060639
0.02993707527
0.0299338718
0.02993140126
0.02997224128
0.02996902789
0.02996511493
0.02996073844
0.02995613442
0.02995150095
0.02994698495
0.02994268417
0.02993865598
0.02993492831
0.02993151108
0.02992841292
0.02992568848
0.02992363147
0.02996616909
0.02995994169
0.0299531831
0.0299464649
0.02994017679
0.02993452971
0.02992959881
0.02992537193
0.02992178922
0.02991877082
0.02991623454
0.02991410958
0.02991236293
0.02991110672
0.02995539778
0.02994506492
0.02993525487
0.02992669748
0.02991964391
0.029914056
0.02990975619
0.02990652168
0.02990413467
0.02990240431
0.02990117325
0.02990031666
0.02989974041
0.0298993947
0.02994525422
0.02993283885
0.02992233454
0.02991401083
0.02990769789
0.02990307051
0.02989978414
0.02989753038
0.02989605364
0.02989515084
0.02989466424
0.02989447149
0.02989447154
0.02989455738
0.02995539792
0.0299450651
0.02993525507
0.02992669768
0.02991964412
0.02991405622
0.0299097564
0.0299065219
0.02990413489
0.02990240452
0.02990117346
0.02990031688
0.02989974063
0.02989939492
0.02996616924
0.02995994185
0.02995318328
0.0299464651
0.029940177
0.02993452994
0.02992959907
0.0299253722
0.02992178951
0.02991877113
0.02991623485
0.02991410991
0.02991236327
0.02991110707
0.02997224139
0.029969028
0.02996511505
0.02996073858
0.02995613459
0.02995150114
0.02994698518
0.02994268442
0.02993865626
0.02993492862
0.02993151142
0.02992841328
0.02992568886
0.02992363187
0.02997465853
0.0299728237
0.02997038365
0.02996739609
0.02996396487
0.02996021515
0.02995627351
0.02995225484
0.02994825572
0.02994435288
0.02994060673
0.02993707564
0.0299338722
0.02993140169
0.02997461862
0.02997228842
0.02996905246
0.02996505417
0.02996052017
0.02995569455
0.02995079566
0.02994599579
0.02994141714
0.02993713691
0.02993319662
0.0299296135
0.02992639781
0.02992360061
0.02992150763
0.02997120578
0.02996616913
0.02995994173
0.02995318315
0.02994646495
0.02994017684
0.02993452976
0.02992959886
0.02992537198
0.02992178927
0.02991877087
0.02991623458
0.02991410962
0.02991236298
0.02991110676
0.02994826775
0.02993516836
0.02992332828
0.02991363699
0.02990627129
0.02990101156
0.02989747765
0.02989526772
0.02989402469
0.02989345894
0.02989334806
0.02989352522
0.02989385701
0.02989419085
0.02990853041
0.02988646524
0.02987128293
0.02986234766
0.02985817385
0.02985727033
0.02985843697
0.02986080598
0.02986378991
0.02986700973
0.02987022929
0.0298732974
0.02987607022
0.02987819133
0.0298565811
0.02983468525
0.02982532534
0.02982372409
0.02982647305
0.02983142849
0.02983732124
0.02984343013
0.02984936261
0.02985491833
0.02986000488
0.02986457704
0.02986855059
0.02987151919
0.02990853099
0.02988646581
0.02987128345
0.02986234815
0.02985817431
0.02985727076
0.02985843737
0.02986080636
0.02986379027
0.02986701006
0.02987022961
0.0298732977
0.02987607051
0.02987819161
0.02994826829
0.0299351688
0.02992332871
0.02991363743
0.02990627174
0.02990101203
0.02989747813
0.0298952682
0.02989402517
0.02989345942
0.02989334854
0.02989352569
0.02989385748
0.02989419132
0.02996616924
0.02995994187
0.02995318332
0.02994646517
0.02994017709
0.02993453005
0.0299295992
0.02992537235
0.02992178968
0.0299187713
0.02991623504
0.0299141101
0.02991236347
0.02991110728
0.02997228845
0.02996905251
0.02996505425
0.0299605203
0.02995569472
0.02995079588
0.02994599607
0.02994141746
0.02993713727
0.02993319703
0.02992961395
0.02992639829
0.02992360113
0.02992150818
0.02997269868
0.02996882162
0.02996380315
0.02995804979
0.02995198297
0.0299459526
0.02994020908
0.02993490811
0.02993012906
0.02992589606
0.02992219683
0.02991899851
0.02991626415
0.02991398874
0.02991234275
0.02996491849
0.02995539783
0.02994506504
0.02993525501
0.02992669761
0.02991964404
0.02991405613
0.02990975631
0.0299065218
0.02990413478
0.02990240441
0.02990117335
0.02990031676
0.0298997405
0.02989939479
0.02993551126
0.02990853048
0.02988646538
0.02987128307
0.0298623478
0.02985817398
0.02985727045
0.02985843707
0.02986080608
0.02986379
0.02986700981
0.02987022936
0.02987329747
0.02987607028
0.02987819139
0.02977252092
0.02974485218
0.02974036624
0.02974841802
0.02976204943
0.02977733968
0.02979230495
0.02980606315
0.02981831274
0.02982903571
0.02983833507
0.02984633496
0.02985305198
0.02985795415
0.02950599498
0.0295409652
0.02959454094
0.02964587508
0.02968947995
0.02972504269
0.02975372298
0.0297768845
0.02979571525
0.02981115637
0.02982392268
0.02983452555
0.02984320547
0.02984943926
0.0297725231
0.02974485361
0.02974036735
0.02974841896
0.02976205025
0.0297773404
0.02979230559
0.02980606372
0.02981831325
0.02982903618
0.0298383355
0.02984633536
0.02985305236
0.02985795452
0.02990853097
0.02988646596
0.02987128373
0.0298623485
0.0298581747
0.02985727116
0.02985843778
0.02986080677
0.02986379067
0.02986701045
0.02987022998
0.02987329807
0.02987607086
0.02987819196
0.02995539789
0.02994506515
0.02993525521
0.0299266979
0.02991964441
0.02991405657
0.0299097568
0.02990652234
0.02990413534
0.029902405
0.02990117395
0.02990031737
0.02989974113
0.02989939543
0.0299688216
0.02996380316
0.02995804984
0.02995198308
0.02994595278
0.02994020934
0.02993490844
0.02993012945
0.0299258965
0.02992219732
0.02991899905
0.02991626473
0.02991398935
0.02991234339
0.02997126055
0.02996635059
0.0299603559
0.02995382469
0.029947217
0.02994086458
0.02993497848
0.02992967271
0.02992499027
0.02992092608
0.02991744512
0.02991449676
0.0299120288
0.02991001717
0.02990858624
0.02995836638
0.02994525432
0.02993283906
0.02992233477
0.02991401106
0.02990769811
0.02990307072
0.02989978435
0.02989753057
0.02989605382
0.02989515101
0.0298946644
0.02989447164
0.02989447169
0.02989455753
0.02989554218
0.02985658116
0.02983468567
0.02982532577
0.02982372449
0.0298264734
0.0298314288
0.02983732152
0.02984343037
0.02984936283
0.02985491853
0.02986000507
0.02986457721
0.02986855074
0.02987151933
0.02955306221
0.02950599631
0.02954096622
0.02959454171
0.02964587566
0.0296894804
0.02972504303
0.02975372327
0.02977688474
0.02979571544
0.02981115653
0.02982392282
0.02983452567
0.02984320558
0.02984943935
0.02835529834
0.02894074735
0.02926475428
0.02945444097
0.02957194835
0.02964882549
0.02970171437
0.02973974899
0.02976814989
0.02979002393
0.02980728946
0.02982114538
0.02983221187
0.0298400409
0.02950599448
0.02954096741
0.02959454318
0.02964587699
0.02968948155
0.02972504403
0.02975372412
0.02977688548
0.0297957161
0.02981115712
0.02982392335
0.02983452615
0.02984320603
0.02984943977
0.02985658087
0.02983468587
0.02982532627
0.02982372515
0.02982647414
0.02983142957
0.02983732228
0.02984343112
0.02984936355
0.02985491922
0.02986000573
0.02986457785
0.02986855136
0.02987151994
0.0299452542
0.02993283906
0.02992233492
0.02991401135
0.02990769851
0.02990307121
0.02989978491
0.02989753117
0.02989605445
0.02989515166
0.02989466507
0.02989447232
0.02989447238
0.02989455821
0.02996635053
0.02996035587
0.02995382473
0.02994721712
0.0299408648
0.02993497878
0.02992967308
0.02992499072
0.02992092659
0.02991744569
0.02991449737
0.02991202945
0.02991001784
0.02990858695
0.02997269871
0.02996882168
0.02996380325
0.02995804991
0.02995198311
0.02994595276
0.02994020927
0.02993490831
0.02993012927
0.02992589628
0.02992219706
0.02991899875
0.02991626439
0.02991398899
0.02991234299
0.02996491861
0.02995539804
0.0299450653
0.0299352553
0.02992669792
0.02991964436
0.02991405645
0.02990975663
0.02990652213
0.0299041351
0.02990240473
0.02990117366
0.02990031707
0.02989974081
0.0298993951
0.0299355121
0.02990853134
0.02988646632
0.02987128397
0.02986234863
0.02985817475
0.02985727115
0.02985843773
0.02986080668
0.02986379056
0.02986701033
0.02987022985
0.02987329793
0.02987607072
0.02987819181
0.02983483006
0.02977252436
0.02974485493
0.02974036844
0.02974841981
0.02976205092
0.02977734094
0.02979230603
0.02980606409
0.02981831356
0.02982903644
0.02983833572
0.02984633556
0.02985305254
0.02985795468
0.02955306196
0.02950599669
0.02954096888
0.02959454416
0.02964587766
0.02968948203
0.02972504438
0.0297537244
0.0297768857
0.02979571628
0.02981115727
0.02982392347
0.02983452626
0.02984320612
0.02984943986
0.02983482949
0.0297725246
0.02974485546
0.02974036904
0.02974842042
0.02976205152
0.02977734151
0.02979230656
0.02980606459
0.02981831402
0.02982903687
0.02983833613
0.02984633594
0.0298530529
0.02985795503
0.02990853032
0.02988646598
0.02987128406
0.02986234897
0.02985817523
0.02985727171
0.02985843832
0.02986080729
0.02986379118
0.02986701094
0.02987023044
0.02987329851
0.02987607129
0.02987819237
0.02995539776
0.02994506515
0.02993525531
0.02992669809
0.02991964466
0.02991405685
0.02990975711
0.02990652266
0.02990413568
0.02990240534
0.02990117429
0.02990031771
0.02989974146
0.02989939576
0.02996882158
0.02996380316
0.02995804988
0.02995198316
0.0299459529
0.02994020949
0.02993490862
0.02993012966
0.02992589673
0.02992219757
0.02991899931
0.029916265
0.02991398963
0.02991234367
0.02997461866
0.02997228849
0.02996905256
0.0299650543
0.02996052034
0.02995569475
0.02995079589
0.02994599606
0.02994141743
0.02993713722
0.02993319695
0.02992961386
0.02992639818
0.029923601
0.02992150804
0.02997120592
0.02996616932
0.02995994198
0.02995318342
0.02994646527
0.02994017718
0.02993453013
0.02992959926
0.0299253724
0.02992178971
0.02991877132
0.02991623505
0.0299141101
0.02991236346
0.02991110725
0.02996077943
0.02994826848
0.02993516909
0.02992332902
0.02991363775
0.02990627206
0.02990101234
0.02989747842
0.02989526848
0.02989402544
0.02989345967
0.02989334878
0.02989352592
0.02989385769
0.02989419152
0.02993551216
0.02990853155
0.02988646667
0.02987128441
0.02986234911
0.02985817525
0.02985727165
0.02985843821
0.02986080715
0.029863791
0.02986701075
0.02987023025
0.02987329831
0.02987607109
0.02987819217
0.02989554229
0.029856582
0.02983468693
0.02982532716
0.02982372588
0.02982647474
0.02983143006
0.02983732269
0.02984343146
0.02984936384
0.02985491947
0.02986000595
0.02986457804
0.02986855153
0.0298715201
0.02993551224
0.02990853171
0.02988646689
0.02987128468
0.02986234942
0.02985817557
0.02985727198
0.02985843854
0.02986080748
0.02986379133
0.02986701107
0.02987023056
0.02987329861
0.02987607138
0.02987819246
0.02996077918
0.02994826829
0.02993516903
0.02992332911
0.02991363795
0.02990627235
0.0299010127
0.02989747883
0.02989526892
0.0298940259
0.02989346014
0.02989334926
0.0298935264
0.02989385817
0.02989419201
0.02996616911
0.02995994187
0.02995318343
0.02994646537
0.02994017738
0.02993453041
0.02992959961
0.0299253728
0.02992179016
0.02991877181
0.02991623557
0.02991411064
0.02991236402
0.02991110783
0.0299722884
0.02996905249
0.02996505427
0.02996052037
0.02995569485
0.02995079606
0.0299459963
0.02994141774
0.02993713759
0.02993319738
0.02992961434
0.02992639871
0.02992360156
0.02992150864
0.02997589916
0.02997465855
0.02997282374
0.02997038369
0.02996739615
0.02996396493
0.02996021521
0.02995627358
0.02995225491
0.02994825578
0.02994435295
0.02994060679
0.0299370757
0.02993387226
0.02993140173
0.0299745861
0.02997224143
0.02996902807
0.02996511514
0.02996073869
0.02995613471
0.02995150128
0.02994698532
0.02994268458
0.02993865642
0.02993492879
0.02993151159
0.02992841346
0.02992568903
0.02992363205
0.02997120594
0.02996616936
0.02995994204
0.02995318352
0.02994646539
0.02994017733
0.0299345303
0.02992959945
0.0299253726
0.02992178992
0.02991877154
0.02991623527
0.02991411032
0.02991236369
0.02991110748
0.02996491864
0.02995539815
0.02994506549
0.02993525558
0.02992669828
0.02991964478
0.02991405693
0.02990975714
0.02990652265
0.02990413564
0.02990240527
0.02990117421
0.02990031761
0.02989974135
0.02989939564
0.02995836644
0.02994525458
0.0299328395
0.02992233536
0.02991401177
0.0299076989
0.02990307157
0.02989978523
0.02989753146
0.02989605472
0.02989515191
0.02989466529
0.02989447252
0.02989447256
0.02989455839
0.02996491865
0.02995539818
0.02994506554
0.02993525566
0.02992669838
0.02991964491
0.02991405708
0.02990975731
0.02990652284
0.02990413584
0.02990240548
0.02990117442
0.02990031783
0.02989974158
0.02989939587
0.02997120592
0.02996616933
0.02995994204
0.02995318357
0.02994646549
0.02994017747
0.02993453049
0.02992959968
0.02992537286
0.02992179022
0.02991877186
0.02991623561
0.02991411069
0.02991236406
0.02991110787
0.02997458605
0.02997224138
0.02996902803
0.02996511514
0.02996073873
0.02995613481
0.02995150143
0.02994698552
0.02994268483
0.02993865672
0.02993492912
0.02993151196
0.02992841387
0.02992568947
0.02992363251
0.02997465848
0.02997282369
0.02997038367
0.02996739615
0.02996396497
0.02996021531
0.02995627372
0.02995225511
0.02994825604
0.02994435325
0.02994060715
0.02993707611
0.02993387271
0.02993140223
0.02997647188
0.02997573293
0.02997458565
0.02997296779
0.02997086023
0.02996828638
0.02996530392
0.0299619929
0.02995844396
0.02995474861
0.02995099282
0.02994725585
0.02994362188
0.02994023982
0.02993758506
0.02997589916
0.02997465855
0.02997282375
0.02997038371
0.02996739618
0.02996396497
0.02996021527
0.02995627364
0.02995225498
0.02994825587
0.02994435304
0.02994060689
0.02993707581
0.02993387238
0.02993140186
0.02997461866
0.02997228851
0.0299690526
0.02996505437
0.02996052044
0.02995569488
0.02995079605
0.02994599625
0.02994141766
0.02993713747
0.02993319722
0.02992961415
0.02992639849
0.02992360132
0.02992150837
0.02997269872
0.02996882172
0.02996380332
0.02995805004
0.02995198331
0.02994595303
0.02994020959
0.0299349087
0.02993012971
0.02992589675
0.02992219757
0.02991899928
0.02991626495
0.02991398957
0.0299123436
0.02997126057
0.02996635068
0.02996035607
0.02995382496
0.02994721737
0.02994086504
0.02993497903
0.02992967333
0.02992499096
0.02992092682
0.0299174459
0.02991449757
0.02991202964
0.02991001803
0.02990858712
0.02997269872
0.02996882172
0.02996380333
0.02995805006
0.02995198334
0.02994595307
0.02994020966
0.02993490878
0.0299301298
0.02992589687
0.0299221977
0.02991899943
0.02991626511
0.02991398974
0.02991234378
0.02997461866
0.0299722885
0.0299690526
0.02996505438
0.02996052047
0.02995569495
0.02995079615
0.02994599638
0.02994141782
0.02993713766
0.02993319745
0.0299296144
0.02992639876
0.02992360162
0.02992150869
0.02997589915
0.02997465854
0.02997282374
0.02997038372
0.0299673962
0.02996396502
0.02996021536
0.02995627377
0.02995225516
0.02994825609
0.0299443533
0.02994060719
0.02993707614
0.02993387274
0.02993140226
0.02997647186
0.02997573291
0.02997458563
0.02997296778
0.02997086023
0.02996828641
0.02996530398
0.029961993
0.0299584441
0.0299547488
0.02995099306
0.02994725613
0.02994362221
0.0299402402
0.02993758548
)
;

boundaryField
{
    top
    {
        type            calculated;
        value           nonuniform List<scalar> 
127
(
0.02997647186
0.02997573291
0.02997465853
0.02997228845
0.0299688216
0.02996635053
0.02996882158
0.0299722884
0.02997465848
0.02997573291
0.02997458562
0.0299728237
0.02996905251
0.02996380316
0.02996035587
0.02996380316
0.02996905249
0.02997282369
0.02997458563
0.02997296775
0.02997038365
0.02996505425
0.02995804984
0.02995382473
0.02995804988
0.02996505427
0.02997038367
0.02997296778
0.02997086017
0.02996739609
0.0299605203
0.02995198308
0.02994721712
0.02995198316
0.02996052037
0.02996739615
0.02997086023
0.02996828632
0.02996396487
0.02995569472
0.02994595278
0.0299408648
0.0299459529
0.02995569485
0.02996396497
0.02996828641
0.02996530384
0.02996021515
0.02995079588
0.02994020934
0.02993497878
0.02994020949
0.02995079606
0.02996021531
0.02996530398
0.0299619928
0.02995627351
0.02994599607
0.02993490844
0.02992967308
0.02993490862
0.0299459963
0.02995627372
0.029961993
0.02995844385
0.02995225484
0.02994141746
0.02993012945
0.02992499072
0.02993012966
0.02994141774
0.02995225511
0.0299584441
0.02995474848
0.02994825572
0.02993713727
0.0299258965
0.02992092659
0.02992589673
0.02993713759
0.02994825604
0.0299547488
0.02995099269
0.02994435288
0.02993319703
0.02992219732
0.02991744569
0.02992219757
0.02993319738
0.02994435325
0.02995099306
0.02994725571
0.02994060673
0.02992961395
0.02991899905
0.02991449737
0.02991899931
0.02992961434
0.02994060715
0.02994725613
0.02994362173
0.02993707564
0.02992639829
0.02991626473
0.02991202945
0.029916265
0.02992639871
0.02993707611
0.02994362221
0.02994023966
0.0299338722
0.02992360113
0.02991398935
0.02991001784
0.02991398963
0.02992360156
0.02993387271
0.0299402402
0.0299375849
0.02993140169
0.02992150818
0.02991234339
0.02990858695
0.02991234367
0.02992150864
0.02993140223
0.02993758548
)
;
    }
    bottom
    {
        type            calculated;
        value           nonuniform List<scalar> 
134
(
0.02997589912
0.02997461862
0.02997269868
0.02997126055
0.02997269871
0.02997461866
0.02997589916
0.02997647188
0.02997573288
0.02997465849
0.02997228842
0.02996882162
0.02996635059
0.02996882168
0.02997228849
0.02997465855
0.02997573293
0.02997458558
0.02997282365
0.02996905246
0.02996380315
0.0299603559
0.02996380325
0.02996905256
0.02997282374
0.02997458565
0.0299729677
0.02997038358
0.02996505417
0.02995804979
0.02995382469
0.02995804991
0.0299650543
0.02997038369
0.02997296779
0.02997086011
0.029967396
0.02996052017
0.02995198297
0.029947217
0.02995198311
0.02996052034
0.02996739615
0.02997086023
0.02996828624
0.02996396475
0.02995569455
0.0299459526
0.02994086458
0.02994595276
0.02995569475
0.02996396493
0.02996828638
0.02996530374
0.029960215
0.02995079566
0.02994020908
0.02993497848
0.02994020927
0.02995079589
0.02996021521
0.02996530392
0.02996199268
0.02995627332
0.02994599579
0.02993490811
0.02992967271
0.02993490831
0.02994599606
0.02995627358
0.0299619929
0.0299584437
0.02995225462
0.02994141714
0.02993012906
0.02992499027
0.02993012927
0.02994141743
0.02995225491
0.02995844396
0.02995474831
0.02994825546
0.02993713691
0.02992589606
0.02992092608
0.02992589628
0.02993713722
0.02994825578
0.02995474861
0.02995099248
0.02994435259
0.02993319662
0.02992219683
0.02991744512
0.02992219706
0.02993319695
0.02994435295
0.02995099282
0.02994725546
0.02994060639
0.0299296135
0.02991899851
0.02991449676
0.02991899875
0.02992961386
0.02994060679
0.02994725585
0.02994362145
0.02993707527
0.02992639781
0.02991626415
0.0299120288
0.02991626439
0.02992639818
0.0299370757
0.02994362188
0.02994023935
0.0299338718
0.02992360061
0.02991398874
0.02991001717
0.02991398899
0.029923601
0.02993387226
0.02994023982
0.02993758456
0.02993140126
0.02992150763
0.02991234275
0.02990858624
0.02991234299
0.02992150804
0.02993140173
0.02993758506
)
;
    }
    side-walls
    {
        type            calculated;
        value           nonuniform List<scalar> 
261
(
0.02997573288
0.02997465848
0.02997228841
0.02996882158
0.02996635052
0.02996882162
0.02997228845
0.02997465853
0.02997573291
0.02997458558
0.02997282365
0.02996905243
0.02996380307
0.02996035578
0.02996380314
0.0299690525
0.0299728237
0.02997458562
0.0299729677
0.02997038357
0.02996505414
0.02995804969
0.02995382455
0.02995804977
0.02996505422
0.02997038364
0.02997296775
0.02997086011
0.029967396
0.02996052014
0.02995198286
0.02994721685
0.02995198296
0.02996052024
0.02996739608
0.02997086017
0.02996828624
0.02996396474
0.02995569452
0.02994595249
0.02994086442
0.0299459526
0.02995569464
0.02996396484
0.02996828632
0.02996530374
0.029960215
0.02995079563
0.02994020897
0.02993497831
0.02994020909
0.02995079576
0.02996021512
0.02996530384
0.02996199268
0.02995627332
0.02994599576
0.029934908
0.02992967253
0.02993490813
0.02994599592
0.02995627347
0.0299619928
0.0299584437
0.02995225462
0.02994141711
0.02993012895
0.0299249901
0.02993012908
0.02994141729
0.02995225479
0.02995844385
0.02995474831
0.02994825546
0.02993713687
0.02992589594
0.02992092591
0.02992589609
0.02993713707
0.02994825565
0.02995474848
0.02995099248
0.02994435259
0.02993319658
0.02992219672
0.02991744495
0.02992219687
0.02993319679
0.02994435281
0.02995099269
0.02994725546
0.02994060639
0.02992961347
0.0299189984
0.0299144966
0.02991899856
0.0299296137
0.02994060664
0.02994725571
0.02994362145
0.02993707527
0.02992639777
0.02991626404
0.02991202864
0.0299162642
0.02992639802
0.02993707555
0.02994362173
0.02994023935
0.0299338718
0.02992360057
0.02991398864
0.02991001701
0.02991398881
0.02992360083
0.0299338721
0.02994023966
0.02993758456
0.02993140125
0.02992150759
0.02991234264
0.02990858609
0.02991234281
0.02992150787
0.02993140158
0.0299375849
0.02997647188
0.02997589916
0.02997461866
0.02997269872
0.02997126057
0.02997269872
0.02997461866
0.02997589915
0.02997647186
0.02997573293
0.02997465855
0.02997228851
0.02996882172
0.02996635068
0.02996882172
0.0299722885
0.02997465854
0.02997573291
0.02997458565
0.02997282375
0.0299690526
0.02996380332
0.02996035607
0.02996380333
0.0299690526
0.02997282374
0.02997458563
0.02997296779
0.02997038371
0.02996505437
0.02995805004
0.02995382496
0.02995805006
0.02996505438
0.02997038372
0.02997296778
0.02997086023
0.02996739618
0.02996052044
0.02995198331
0.02994721737
0.02995198334
0.02996052047
0.0299673962
0.02997086023
0.02996828638
0.02996396497
0.02995569488
0.02994595303
0.02994086504
0.02994595307
0.02995569495
0.02996396502
0.02996828641
0.02996530392
0.02996021527
0.02995079605
0.02994020959
0.02993497903
0.02994020966
0.02995079615
0.02996021536
0.02996530398
0.0299619929
0.02995627364
0.02994599625
0.0299349087
0.02992967333
0.02993490878
0.02994599638
0.02995627377
0.029961993
0.02995844396
0.02995225498
0.02994141766
0.02993012971
0.02992499096
0.0299301298
0.02994141782
0.02995225516
0.0299584441
0.02995474861
0.02994825587
0.02993713747
0.02992589675
0.02992092682
0.02992589687
0.02993713766
0.02994825609
0.0299547488
0.02995099282
0.02994435304
0.02993319722
0.02992219757
0.0299174459
0.0299221977
0.02993319745
0.0299443533
0.02995099306
0.02994725585
0.02994060689
0.02992961415
0.02991899928
0.02991449757
0.02991899943
0.0299296144
0.02994060719
0.02994725613
0.02994362188
0.02993707581
0.02992639849
0.02991626495
0.02991202964
0.02991626511
0.02992639876
0.02993707614
0.02994362221
0.02994023982
0.02993387238
0.02992360132
0.02991398957
0.02991001803
0.02991398974
0.02992360162
0.02993387274
0.0299402402
0.02993758506
0.02993140186
0.02992150837
0.0299123436
0.02990858712
0.02991234378
0.02992150869
0.02993140226
0.02993758548
)
;
    }
    inlet
    {
        type            calculated;
        value           nonuniform 0();
    }
    outlet
    {
        type            calculated;
        value           nonuniform List<scalar> 
81
(
0.02993758456
0.02993140125
0.02992150759
0.02991234264
0.02990858609
0.02991234281
0.02992150787
0.02993140158
0.0299375849
0.02993140126
0.02992363147
0.02991110672
0.0298993947
0.02989455738
0.02989939492
0.02991110707
0.02992363187
0.02993140169
0.02992150763
0.02991110676
0.02989419085
0.02987819133
0.02987151919
0.02987819161
0.02989419132
0.02991110728
0.02992150818
0.02991234275
0.02989939479
0.02987819139
0.02985795415
0.02984943926
0.02985795452
0.02987819196
0.02989939543
0.02991234339
0.02990858624
0.02989455753
0.02987151933
0.02984943935
0.0298400409
0.02984943977
0.02987151994
0.02989455821
0.02990858695
0.02991234299
0.0298993951
0.02987819181
0.02985795468
0.02984943986
0.02985795503
0.02987819237
0.02989939576
0.02991234367
0.02992150804
0.02991110725
0.02989419152
0.02987819217
0.0298715201
0.02987819246
0.02989419201
0.02991110783
0.02992150864
0.02993140173
0.02992363205
0.02991110748
0.02989939564
0.02989455839
0.02989939587
0.02991110787
0.02992363251
0.02993140223
0.02993758506
0.02993140186
0.02992150837
0.0299123436
0.02990858712
0.02991234378
0.02992150869
0.02993140226
0.02993758548
)
;
    }
    procBoundary1to0
    {
        type            processor;
        value           nonuniform List<scalar> 
97
(
0.02997647186
0.02997647186
0.02997589915
0.02997461867
0.02997269876
0.02997126064
0.02997269878
0.0299746187
0.02997589918
0.02997647189
0.02997663373
0.02997458604
0.02997458604
0.02997458604
0.02997120591
0.02996491871
0.02995836668
0.02996491882
0.02997120603
0.02997458614
0.02997589918
0.02997605297
0.02997455376
0.02996077912
0.02996077912
0.02996077912
0.02993551219
0.02989554342
0.0299355128
0.0299607797
0.02997120602
0.0299746187
0.02997520355
0.02997191515
0.02996043775
0.02983482773
0.02983482773
0.02983482773
0.02955306759
0.02983483161
0.02993551274
0.02996491878
0.02997269876
0.02997459823
0.02996943117
0.02994772484
0.02986204574
0.02723606303
0.02723606303
0.02723606303
0.02955306595
0.02955306595
0.02989554301
0.02995836661
0.02997126063
0.02997520356
0.02997191516
0.02996043779
0.0299271558
0.02986204532
0.02992715591
0.02993551155
0.02993551155
0.02993551155
0.02996491861
0.02997269873
0.02997605298
0.02997455376
0.02997016875
0.02996043779
0.0299477248
0.02996043784
0.02997016874
0.02997120583
0.02997120583
0.02997120583
0.02997461865
0.02997663373
0.02997604146
0.02997455377
0.02997191517
0.02996943116
0.02997191517
0.02997455377
0.02997604146
0.02997589913
0.02997589913
0.02997589913
0.02997689701
0.02997663373
0.02997605298
0.02997520356
0.02997459823
0.02997520356
0.02997605298
0.02997663373
0.02997689701
)
;
    }
}


// ************************************************************************* //
