/*--------------------------------*- C++ -*----------------------------------*\
| =========                 |                                                 |
| \\      /  F ield         | OpenFOAM: The Open Source CFD Toolbox           |
|  \\    /   O peration     | Version:  4.x                                   |
|   \\  /    A nd           | Web:      www.OpenFOAM.org                      |
|    \\/     M anipulation  |                                                 |
\*---------------------------------------------------------------------------*/
FoamFile
{
    version     2.0;
    format      ascii;
    class       volScalarField;
    location    "9000";
    object      Cpv;
}
// * * * * * * * * * * * * * * * * * * * * * * * * * * * * * * * * * * * * * //

dimensions      [0 2 -2 -1 0 0 0];

internalField   nonuniform List<scalar> 
1175
(
1245.091171
1245.091158
1245.091168
1245.09116
1245.09114
1245.091147
1245.091163
1245.091161
1245.091165
1245.09115
1245.091158
1245.091151
1245.091141
1245.091122
1245.091116
1245.090933
1245.090921
1245.090906
1245.090921
1245.090901
1245.090896
1245.09089
1245.090892
1245.090929
1245.090959
1245.090924
1245.090941
1245.09092
1245.090894
1245.09091
1245.091116
1245.091106
1245.091097
1245.091094
1245.0911
1245.091106
1245.091118
1245.091127
1245.091134
1245.09111
1245.091108
1245.091087
1245.091075
1245.091061
1245.091039
1245.091271
1245.091274
1245.091288
1245.091306
1245.091316
1245.091321
1245.091328
1245.091349
1245.091349
1245.091314
1245.091304
1245.091293
1245.091263
1245.091271
1245.091251
1245.091291
1245.091276
1245.091289
1245.091294
1245.091283
1245.091264
1245.091287
1245.091306
1245.091309
1245.091301
1245.09132
1245.091334
1245.091342
1245.09135
1245.091309
1245.089794
1245.089823
1245.089781
1245.089794
1245.089793
1245.089787
1245.089805
1245.089794
1245.089797
1245.089783
1245.089808
1245.089832
1245.089825
1245.089825
1245.089799
1245.089941
1245.089924
1245.089929
1245.089932
1245.089922
1245.089917
1245.089903
1245.089917
1245.089957
1245.089964
1245.089969
1245.089961
1245.08997
1245.089969
1245.089946
1245.090832
1245.090815
1245.090833
1245.09086
1245.090845
1245.090846
1245.090859
1245.090855
1245.090859
1245.090863
1245.090863
1245.090867
1245.090846
1245.090818
1245.090818
1245.090891
1245.090882
1245.09087
1245.090869
1245.090862
1245.090857
1245.09087
1245.090878
1245.090884
1245.090901
1245.090915
1245.090904
1245.090903
1245.090876
1245.090863
1245.09064
1245.090666
1245.090644
1245.09066
1245.090661
1245.090646
1245.090668
1245.090652
1245.090668
1245.09067
1245.090666
1245.090697
1245.09069
1245.090693
1245.091563
1245.091567
1245.091588
1245.091576
1245.091571
1245.091574
1245.091556
1245.091563
1245.09156
1245.09157
1245.091559
1245.091537
1245.091562
1245.09154
1245.091507
1245.091429
1245.091443
1245.091439
1245.091431
1245.091428
1245.091458
1245.091452
1245.091445
1245.091408
1245.091407
1245.091407
1245.091419
1245.091424
1245.091408
1245.091373
1245.090598
1245.090598
1245.090595
1245.090591
1245.090596
1245.090604
1245.090612
1245.09061
1245.09061
1245.090611
1245.090608
1245.090653
1245.090625
1245.090619
1245.090507
1245.091041
1245.091014
1245.091011
1245.090991
1245.090987
1245.090968
1245.090963
1245.090974
1245.090977
1245.090968
1245.09097
1245.09095
1245.090911
1245.090846
1245.090722
1245.091729
1245.091718
1245.09171
1245.09171
1245.091704
1245.091699
1245.091699
1245.091713
1245.091701
1245.091716
1245.091697
1245.091707
1245.09166
1245.091638
1245.091558
1245.092251
1245.092253
1245.092228
1245.092248
1245.092285
1245.092265
1245.09225
1245.092265
1245.092263
1245.092242
1245.092251
1245.092251
1245.092256
1245.092243
1245.0922
1245.090102
1245.090132
1245.090115
1245.090096
1245.090089
1245.09009
1245.090087
1245.090069
1245.090092
1245.090077
1245.090068
1245.090062
1245.090057
1245.090054
1245.090076
1245.090956
1245.090964
1245.090973
1245.090961
1245.090975
1245.090958
1245.090954
1245.090957
1245.090945
1245.090975
1245.090966
1245.090955
1245.090967
1245.090964
1245.090958
1245.091058
1245.091053
1245.091069
1245.091064
1245.091055
1245.091068
1245.091061
1245.091077
1245.091042
1245.091021
1245.091055
1245.091062
1245.09104
1245.091051
1245.090487
1245.090462
1245.090476
1245.090458
1245.090465
1245.090426
1245.090432
1245.090409
1245.090404
1245.090389
1245.090427
1245.090409
1245.090412
1245.090407
1245.090476
1245.090474
1245.090462
1245.090451
1245.090445
1245.090464
1245.090447
1245.090414
1245.090413
1245.090423
1245.09042
1245.090416
1245.090399
1245.090337
1245.09021
1245.090687
1245.09068
1245.090677
1245.090682
1245.090673
1245.090668
1245.090653
1245.090681
1245.090671
1245.090673
1245.090666
1245.090639
1245.090598
1245.090462
1245.090183
1245.091608
1245.091619
1245.091641
1245.091646
1245.091619
1245.091654
1245.091633
1245.091624
1245.091649
1245.091649
1245.091667
1245.091649
1245.091565
1245.091322
1245.090633
1245.089837
1245.089857
1245.089871
1245.089842
1245.089889
1245.08991
1245.089906
1245.089938
1245.08994
1245.089932
1245.089922
1245.08989
1245.089852
1245.08973
1245.089441
1245.090557
1245.090572
1245.090561
1245.090545
1245.090548
1245.090534
1245.090553
1245.090548
1245.09053
1245.090542
1245.090539
1245.090518
1245.090507
1245.090423
1245.090311
1245.090996
1245.091007
1245.091001
1245.09102
1245.091002
1245.090976
1245.090988
1245.090995
1245.091007
1245.091023
1245.091039
1245.091041
1245.091049
1245.091012
1245.090942
1245.090357
1245.090339
1245.090336
1245.090316
1245.090336
1245.090325
1245.090309
1245.090309
1245.090307
1245.09033
1245.090336
1245.090339
1245.090351
1245.090359
1245.090343
1245.090476
1245.090478
1245.090452
1245.090455
1245.090471
1245.090468
1245.090488
1245.090488
1245.0905
1245.09051
1245.090503
1245.090505
1245.090498
1245.090479
1245.090429
1245.090457
1245.090477
1245.090479
1245.090493
1245.090501
1245.090513
1245.090505
1245.090517
1245.09052
1245.090527
1245.090521
1245.09051
1245.090465
1245.089637
1245.089631
1245.089647
1245.089652
1245.089652
1245.089642
1245.089679
1245.08969
1245.089671
1245.089671
1245.089681
1245.089658
1245.08963
1245.089506
1245.090836
1245.09084
1245.090881
1245.090888
1245.090871
1245.090885
1245.090893
1245.090857
1245.090838
1245.090818
1245.090855
1245.090809
1245.090698
1245.090233
1245.089112
1245.090794
1245.090793
1245.090826
1245.09081
1245.090817
1245.090834
1245.090818
1245.090811
1245.090811
1245.090821
1245.090788
1245.090733
1245.090489
1245.089403
1245.0854
1245.090885
1245.090879
1245.090863
1245.090866
1245.090887
1245.090888
1245.090855
1245.090853
1245.090852
1245.090823
1245.090794
1245.090767
1245.090637
1245.090187
1245.089094
1245.090697
1245.090707
1245.090696
1245.090697
1245.090696
1245.09068
1245.090708
1245.090707
1245.090714
1245.090725
1245.090746
1245.090701
1245.090646
1245.090516
1245.09019
1245.091104
1245.091116
1245.091118
1245.091115
1245.091104
1245.091104
1245.091098
1245.091118
1245.091127
1245.091111
1245.091102
1245.09109
1245.091104
1245.091047
1245.090951
1245.091284
1245.091278
1245.091278
1245.091264
1245.091289
1245.091271
1245.091251
1245.091253
1245.091247
1245.091231
1245.091225
1245.091228
1245.091194
1245.091185
1245.091143
1245.091007
1245.09102
1245.091052
1245.091039
1245.091033
1245.091014
1245.091051
1245.091048
1245.091047
1245.091057
1245.091054
1245.091046
1245.091044
1245.091039
1245.090683
1245.090689
1245.090676
1245.090659
1245.090656
1245.09067
1245.090656
1245.090656
1245.09064
1245.09062
1245.090603
1245.090585
1245.090571
1245.090469
1245.09267
1245.09269
1245.09272
1245.092734
1245.092759
1245.092762
1245.092775
1245.092767
1245.092783
1245.092783
1245.092752
1245.092741
1245.092651
1245.092376
1245.091083
1245.09111
1245.0911
1245.091099
1245.091106
1245.0911
1245.091107
1245.091125
1245.091112
1245.09109
1245.091093
1245.091034
1245.090785
1245.089713
1245.091231
1245.091221
1245.091202
1245.091187
1245.091182
1245.091179
1245.091202
1245.091182
1245.091165
1245.091172
1245.09118
1245.09109
1245.09047
1245.086404
1244.524619
1245.091035
1245.091045
1245.091041
1245.091041
1245.091026
1245.09105
1245.091061
1245.091077
1245.091087
1245.091086
1245.091082
1245.091022
1245.09078
1245.089747
1245.085796
1245.090745
1245.090716
1245.090695
1245.090714
1245.090688
1245.090696
1245.090679
1245.09069
1245.090708
1245.090717
1245.090693
1245.090674
1245.090605
1245.090341
1245.089721
1245.090363
1245.09037
1245.090378
1245.090396
1245.090428
1245.090423
1245.090428
1245.09044
1245.09045
1245.090443
1245.090448
1245.090414
1245.090393
1245.090322
1245.09019
1245.090326
1245.090348
1245.090338
1245.090354
1245.090348
1245.09036
1245.090347
1245.090368
1245.090385
1245.090393
1245.090406
1245.090384
1245.090384
1245.090369
1245.090339
1245.090437
1245.090447
1245.090463
1245.090475
1245.090487
1245.09048
1245.090478
1245.090471
1245.090474
1245.090474
1245.090455
1245.090476
1245.090467
1245.09046
1245.090154
1245.090149
1245.090122
1245.090137
1245.090142
1245.090167
1245.090161
1245.090175
1245.090158
1245.09017
1245.090173
1245.090163
1245.090169
1245.090126
1245.090579
1245.090566
1245.090603
1245.090583
1245.090562
1245.090557
1245.09058
1245.09057
1245.090585
1245.090603
1245.090613
1245.090618
1245.090567
1245.090451
1245.090495
1245.090503
1245.090511
1245.090508
1245.09051
1245.090498
1245.090515
1245.09053
1245.090537
1245.090525
1245.090535
1245.090509
1245.090373
1245.089936
1245.090471
1245.090464
1245.090492
1245.090467
1245.090463
1245.090487
1245.090494
1245.090488
1245.090447
1245.090473
1245.090454
1245.090417
1245.090159
1245.089073
1245.090221
1245.09023
1245.090243
1245.090253
1245.090262
1245.09026
1245.09027
1245.090262
1245.090265
1245.090263
1245.090269
1245.090242
1245.090123
1245.089704
1245.090783
1245.090784
1245.090815
1245.090804
1245.090808
1245.090838
1245.090842
1245.090846
1245.09085
1245.090866
1245.090867
1245.090852
1245.0908
1245.090641
1245.090339
1245.090445
1245.090454
1245.090462
1245.090481
1245.090481
1245.090457
1245.090449
1245.090465
1245.090478
1245.090492
1245.090495
1245.090495
1245.090476
1245.090451
1245.090353
1245.090452
1245.090447
1245.090455
1245.09045
1245.090427
1245.09041
1245.090411
1245.090395
1245.090393
1245.090419
1245.090416
1245.090421
1245.090399
1245.090386
1245.090343
1245.090171
1245.090175
1245.090201
1245.090208
1245.090225
1245.090195
1245.09018
1245.090185
1245.090159
1245.090167
1245.090163
1245.090152
1245.090162
1245.090161
1245.091297
1245.091306
1245.091325
1245.091347
1245.091334
1245.091315
1245.091287
1245.091332
1245.09133
1245.091322
1245.091311
1245.091309
1245.09131
1245.091323
1245.092338
1245.092335
1245.092306
1245.092291
1245.09229
1245.092317
1245.092304
1245.092301
1245.092327
1245.09232
1245.092288
1245.0923
1245.092285
1245.092216
1245.090839
1245.090844
1245.090848
1245.090845
1245.090839
1245.090845
1245.090841
1245.090839
1245.090809
1245.09081
1245.09081
1245.090804
1245.090743
1245.090647
1245.090125
1245.090124
1245.090108
1245.090111
1245.090097
1245.090109
1245.09013
1245.090138
1245.090174
1245.090163
1245.09016
1245.090132
1245.090062
1245.089791
1245.090806
1245.090794
1245.090785
1245.090797
1245.090787
1245.090766
1245.09076
1245.090769
1245.090788
1245.090788
1245.090813
1245.090787
1245.090759
1245.090589
1245.09078
1245.090772
1245.090755
1245.090766
1245.090763
1245.090746
1245.090735
1245.090758
1245.090744
1245.09073
1245.090731
1245.090737
1245.09072
1245.090656
1245.090276
1245.090253
1245.090246
1245.090225
1245.090244
1245.090252
1245.090256
1245.090271
1245.090286
1245.090308
1245.09029
1245.090291
1245.090278
1245.09024
1245.090194
1245.091306
1245.09131
1245.091317
1245.091334
1245.091317
1245.091329
1245.091337
1245.091368
1245.091357
1245.091363
1245.091364
1245.091351
1245.091354
1245.091353
1245.091331
1245.091242
1245.091233
1245.091251
1245.091268
1245.091246
1245.091276
1245.091251
1245.091254
1245.091252
1245.091264
1245.09126
1245.091251
1245.091237
1245.091229
1245.090897
1245.090895
1245.090898
1245.090894
1245.090895
1245.090907
1245.090933
1245.090917
1245.09093
1245.090917
1245.090924
1245.090924
1245.09092
1245.0909
1245.091064
1245.091064
1245.091078
1245.091116
1245.091119
1245.091105
1245.091075
1245.091058
1245.091046
1245.091038
1245.091042
1245.091037
1245.09101
1245.09101
1245.090864
1245.090857
1245.090886
1245.0909
1245.090903
1245.0909
1245.090903
1245.090917
1245.090909
1245.090917
1245.090942
1245.090934
1245.090907
1245.090879
1245.091245
1245.091239
1245.091239
1245.091247
1245.091265
1245.091254
1245.09125
1245.091259
1245.09126
1245.091274
1245.091218
1245.091223
1245.091181
1245.09112
1245.090636
1245.090638
1245.090647
1245.090661
1245.090684
1245.090693
1245.090695
1245.090682
1245.090666
1245.090648
1245.090632
1245.09064
1245.090613
1245.090566
1245.090679
1245.090698
1245.090678
1245.090688
1245.090693
1245.090695
1245.090701
1245.090678
1245.090679
1245.090638
1245.090622
1245.090619
1245.090657
1245.090641
1245.091068
1245.091074
1245.091102
1245.091085
1245.091066
1245.091059
1245.091088
1245.091084
1245.09107
1245.091034
1245.091028
1245.091
1245.091
1245.09101
1245.091466
1245.09146
1245.091465
1245.09148
1245.091502
1245.091486
1245.09148
1245.091471
1245.09149
1245.091477
1245.091472
1245.091471
1245.091432
1245.091452
1245.091463
1245.090555
1245.09056
1245.09057
1245.090574
1245.090564
1245.090562
1245.090565
1245.090565
1245.090541
1245.090523
1245.090522
1245.090526
1245.090538
1245.090549
1245.091104
1245.091094
1245.091101
1245.091122
1245.091114
1245.091131
1245.091119
1245.091138
1245.091144
1245.091149
1245.091158
1245.091179
1245.091173
1245.091185
1245.090746
1245.090725
1245.090707
1245.090702
1245.090701
1245.090721
1245.09072
1245.090684
1245.09067
1245.090686
1245.090663
1245.090667
1245.090687
1245.090679
1245.091431
1245.091414
1245.091446
1245.091421
1245.091404
1245.091409
1245.091411
1245.091386
1245.091393
1245.091374
1245.091367
1245.091371
1245.091367
1245.091379
1245.090694
1245.090696
1245.090725
1245.090706
1245.090716
1245.090712
1245.090701
1245.090691
1245.090682
1245.090671
1245.090688
1245.09069
1245.09069
1245.090661
1245.091869
1245.091861
1245.091863
1245.091879
1245.091883
1245.0919
1245.091905
1245.091906
1245.091908
1245.091925
1245.091936
1245.091902
1245.091896
1245.091886
1245.09082
1245.090807
1245.090804
1245.090801
1245.090777
1245.090789
1245.090804
1245.09079
1245.090789
1245.090764
1245.090748
1245.090754
1245.090764
1245.090759
1245.09036
1245.090348
1245.090332
1245.090352
1245.090365
1245.090375
1245.090372
1245.090381
1245.09039
1245.090396
1245.090384
1245.090401
1245.090426
1245.090419
1245.09075
1245.090765
1245.090754
1245.090777
1245.090782
1245.090781
1245.090778
1245.090777
1245.090788
1245.090768
1245.09077
1245.090762
1245.090768
1245.090774
)
;

boundaryField
{
    top
    {
        type            calculated;
        value           nonuniform List<scalar> 
134
(
1245.090891
1245.090956
1245.090357
1245.091284
1245.090326
1245.090452
1245.091306
1245.091466
1245.09075
1245.090882
1245.090964
1245.090339
1245.091278
1245.090348
1245.090447
1245.09131
1245.09146
1245.090765
1245.09087
1245.090973
1245.090336
1245.091278
1245.090338
1245.090455
1245.091317
1245.091465
1245.090754
1245.090869
1245.090961
1245.090316
1245.091264
1245.090354
1245.09045
1245.091334
1245.09148
1245.090777
1245.090862
1245.090975
1245.090336
1245.091289
1245.090348
1245.090427
1245.091317
1245.091502
1245.090782
1245.090857
1245.090958
1245.090325
1245.091271
1245.09036
1245.09041
1245.091329
1245.091486
1245.090781
1245.09087
1245.090954
1245.090309
1245.091251
1245.090347
1245.090411
1245.091337
1245.09148
1245.090778
1245.090878
1245.090957
1245.090309
1245.091253
1245.090368
1245.090395
1245.091368
1245.091471
1245.090777
1245.090884
1245.090945
1245.090307
1245.091247
1245.090385
1245.090393
1245.091357
1245.09149
1245.090788
1245.090901
1245.090975
1245.09033
1245.091231
1245.090393
1245.090419
1245.091363
1245.091477
1245.090768
1245.090915
1245.090966
1245.090336
1245.091225
1245.090406
1245.090416
1245.091364
1245.091472
1245.09077
1245.090904
1245.090955
1245.090339
1245.091228
1245.090384
1245.090421
1245.091351
1245.091471
1245.090762
1245.090903
1245.090967
1245.090351
1245.091194
1245.090384
1245.090399
1245.091354
1245.091432
1245.090768
1245.090876
1245.090964
1245.090359
1245.091185
1245.090369
1245.090386
1245.091353
1245.091452
1245.090774
1245.090863
1245.090958
1245.090343
1245.091143
1245.090339
1245.090343
1245.091331
1245.091463
)
;
    }
    bottom
    {
        type            calculated;
        value           nonuniform List<scalar> 
127
(
1245.091171
1245.09064
1245.091058
1245.090476
1245.091007
1245.090437
1245.090171
1245.091242
1245.090555
1245.091158
1245.090666
1245.091053
1245.090478
1245.09102
1245.090447
1245.090175
1245.091233
1245.09056
1245.091168
1245.090644
1245.091069
1245.090452
1245.091052
1245.090463
1245.090201
1245.091251
1245.09057
1245.09116
1245.09066
1245.091064
1245.090455
1245.091039
1245.090475
1245.090208
1245.091268
1245.090574
1245.09114
1245.090661
1245.091055
1245.090471
1245.091033
1245.090487
1245.090225
1245.091246
1245.090564
1245.091147
1245.090646
1245.091068
1245.090468
1245.091014
1245.09048
1245.090195
1245.091276
1245.090562
1245.091163
1245.090668
1245.091061
1245.090488
1245.091051
1245.090478
1245.09018
1245.091251
1245.090565
1245.091161
1245.090652
1245.091077
1245.090488
1245.091048
1245.090471
1245.090185
1245.091254
1245.090565
1245.091165
1245.090668
1245.091042
1245.0905
1245.091047
1245.090474
1245.090159
1245.091252
1245.090541
1245.09115
1245.09067
1245.091021
1245.09051
1245.091057
1245.090474
1245.090167
1245.091264
1245.090523
1245.091158
1245.090666
1245.091055
1245.090503
1245.091054
1245.090455
1245.090163
1245.09126
1245.090522
1245.091151
1245.090697
1245.091062
1245.090505
1245.091046
1245.090476
1245.090152
1245.091251
1245.090526
1245.091141
1245.09069
1245.09104
1245.090498
1245.091044
1245.090467
1245.090162
1245.091237
1245.090538
1245.091122
1245.090693
1245.091051
1245.090479
1245.091039
1245.09046
1245.090161
1245.091229
1245.090549
1245.091116
)
;
    }
    side-walls
    {
        type            calculated;
        value           nonuniform List<scalar> 
261
(
1245.091171
1245.090933
1245.091116
1245.091271
1245.091291
1245.089794
1245.089941
1245.090832
1245.090891
1245.091158
1245.090921
1245.091106
1245.091274
1245.091276
1245.089823
1245.089924
1245.090815
1245.090882
1245.091168
1245.090906
1245.091097
1245.091288
1245.091289
1245.089781
1245.089929
1245.090833
1245.09087
1245.09116
1245.090921
1245.091094
1245.091306
1245.091294
1245.089794
1245.089932
1245.09086
1245.090869
1245.09114
1245.090901
1245.0911
1245.091316
1245.091283
1245.089793
1245.089922
1245.090845
1245.090862
1245.091147
1245.090896
1245.091106
1245.091321
1245.091264
1245.089787
1245.089917
1245.090846
1245.090857
1245.091163
1245.09089
1245.091118
1245.091328
1245.091287
1245.089805
1245.089903
1245.090859
1245.09087
1245.091161
1245.090892
1245.091127
1245.091349
1245.091306
1245.089794
1245.089917
1245.090855
1245.090878
1245.091165
1245.090929
1245.091134
1245.091349
1245.091309
1245.089797
1245.089957
1245.090859
1245.090884
1245.09115
1245.090959
1245.09111
1245.091314
1245.091301
1245.089783
1245.089964
1245.090863
1245.090901
1245.091158
1245.090924
1245.091108
1245.091304
1245.09132
1245.089808
1245.089969
1245.090863
1245.090915
1245.091151
1245.090941
1245.091087
1245.091293
1245.091334
1245.089832
1245.089961
1245.090867
1245.090904
1245.091141
1245.09092
1245.091075
1245.091263
1245.091342
1245.089825
1245.08997
1245.090846
1245.090903
1245.091122
1245.090894
1245.091061
1245.091271
1245.09135
1245.089825
1245.089969
1245.090818
1245.090876
1245.091116
1245.09091
1245.091039
1245.091251
1245.091309
1245.089799
1245.089946
1245.090818
1245.090863
1245.090555
1245.091104
1245.090746
1245.091431
1245.090694
1245.091869
1245.09082
1245.09036
1245.09075
1245.09056
1245.091094
1245.090725
1245.091414
1245.090696
1245.091861
1245.090807
1245.090348
1245.090765
1245.09057
1245.091101
1245.090707
1245.091446
1245.090725
1245.091863
1245.090804
1245.090332
1245.090754
1245.090574
1245.091122
1245.090702
1245.091421
1245.090706
1245.091879
1245.090801
1245.090352
1245.090777
1245.090564
1245.091114
1245.090701
1245.091404
1245.090716
1245.091883
1245.090777
1245.090365
1245.090782
1245.090562
1245.091131
1245.090721
1245.091409
1245.090712
1245.0919
1245.090789
1245.090375
1245.090781
1245.090565
1245.091119
1245.09072
1245.091411
1245.090701
1245.091905
1245.090804
1245.090372
1245.090778
1245.090565
1245.091138
1245.090684
1245.091386
1245.090691
1245.091906
1245.09079
1245.090381
1245.090777
1245.090541
1245.091144
1245.09067
1245.091393
1245.090682
1245.091908
1245.090789
1245.09039
1245.090788
1245.090523
1245.091149
1245.090686
1245.091374
1245.090671
1245.091925
1245.090764
1245.090396
1245.090768
1245.090522
1245.091158
1245.090663
1245.091367
1245.090688
1245.091936
1245.090748
1245.090384
1245.09077
1245.090526
1245.091179
1245.090667
1245.091371
1245.09069
1245.091902
1245.090754
1245.090401
1245.090762
1245.090538
1245.091173
1245.090687
1245.091367
1245.09069
1245.091896
1245.090764
1245.090426
1245.090768
1245.090549
1245.091185
1245.090679
1245.091379
1245.090661
1245.091886
1245.090759
1245.090419
1245.090774
)
;
    }
    inlet
    {
        type            calculated;
        value           nonuniform List<scalar> 
81
(
1245.091171
1245.090933
1245.091116
1245.091271
1245.091291
1245.089794
1245.089941
1245.090832
1245.090891
1245.09064
1245.091563
1245.091429
1245.090598
1245.091041
1245.091729
1245.092251
1245.090102
1245.090956
1245.091058
1245.090487
1245.090476
1245.090687
1245.091608
1245.089837
1245.090557
1245.090996
1245.090357
1245.090476
1245.090429
1245.089637
1245.090836
1245.090794
1245.090885
1245.090697
1245.091104
1245.091284
1245.091007
1245.090683
1245.09267
1245.091083
1245.091231
1245.091035
1245.090745
1245.090363
1245.090326
1245.090437
1245.090154
1245.090579
1245.090495
1245.090471
1245.090221
1245.090783
1245.090445
1245.090452
1245.090171
1245.091297
1245.092338
1245.090839
1245.090125
1245.090806
1245.09078
1245.090276
1245.091306
1245.091242
1245.090897
1245.091064
1245.090864
1245.091245
1245.090636
1245.090679
1245.091068
1245.091466
1245.090555
1245.091104
1245.090746
1245.091431
1245.090694
1245.091869
1245.09082
1245.09036
1245.09075
)
;
    }
    outlet
    {
        type            calculated;
        value           nonuniform 0();
    }
    procBoundary0to1
    {
        type            processor;
        value           nonuniform List<scalar> 
97
(
1245.091113
1245.090682
1245.090921
1245.09102
1245.091226
1245.091227
1245.089744
1245.089921
1245.090802
1245.090857
1245.090682
1245.090682
1245.091499
1245.090327
1245.091299
1245.090374
1245.090548
1245.091419
1245.092158
1245.090005
1245.090945
1245.091038
1245.090327
1245.090327
1245.090053
1245.089203
1245.089872
1245.090209
1245.089081
1245.090179
1245.090876
1245.090315
1245.090453
1245.090446
1245.089203
1245.089203
1245.088354
1245.08574
1245.084842
1245.08833
1245.089889
1245.090827
1245.091097
1245.090969
1245.090345
1245.09178
1245.08574
1245.08574
1244.53892
1245.085147
1245.085228
1245.088559
1245.089257
1245.090021
1245.090263
1245.090448
1245.090061
1245.090129
1245.088801
1245.085147
1245.088559
1245.088559
1245.090022
1245.090535
1245.090281
1245.090273
1245.090153
1245.091278
1245.092068
1245.090339
1245.089158
1245.090343
1245.090535
1245.090535
1245.090156
1245.090994
1245.091289
1245.091185
1245.090869
1245.090943
1245.090813
1245.090983
1245.090469
1245.090616
1245.090994
1245.090994
1245.091453
1245.090751
1245.090549
1245.091165
1245.090634
1245.091358
1245.09061
1245.091837
1245.090744
1245.090404
1245.090751
)
;
    }
}


// ************************************************************************* //
