/*--------------------------------*- C++ -*----------------------------------*\
| =========                 |                                                 |
| \\      /  F ield         | OpenFOAM: The Open Source CFD Toolbox           |
|  \\    /   O peration     | Version:  4.x                                   |
|   \\  /    A nd           | Web:      www.OpenFOAM.org                      |
|    \\/     M anipulation  |                                                 |
\*---------------------------------------------------------------------------*/
FoamFile
{
    version     2.0;
    format      ascii;
    class       volScalarField;
    location    "9000";
    object      H2;
}
// * * * * * * * * * * * * * * * * * * * * * * * * * * * * * * * * * * * * * //

dimensions      [0 0 0 0 0 0 0];

internalField   nonuniform List<scalar> 
1175
(
0.002172513341
0.002172513341
0.002172513341
0.002172513341
0.00217251334
0.002172513339
0.002172513334
0.002172513318
0.002172513268
0.002172513118
0.002172512692
0.002172511562
0.002172508809
0.00217250274
0.002172490818
0.002172513341
0.002172513341
0.002172513341
0.002172513341
0.00217251334
0.002172513338
0.002172513332
0.00217251331
0.002172513237
0.002172513011
0.002172512341
0.002172510494
0.002172505838
0.002172495349
0.002172474743
0.002172513341
0.002172513341
0.002172513341
0.002172513341
0.00217251334
0.002172513337
0.002172513328
0.002172513294
0.00217251318
0.002172512805
0.002172511644
0.002172508291
0.002172499478
0.002172479041
0.002172438796
0.002172513341
0.002172513341
0.002172513341
0.002172513341
0.00217251334
0.002172513336
0.002172513324
0.002172513278
0.002172513116
0.002172512564
0.00217251078
0.002172505396
0.002172490624
0.002172455182
0.00217238489
0.002172513341
0.002172513341
0.002172513341
0.002172513341
0.00217251334
0.002172513336
0.002172513322
0.00217251327
0.002172513084
0.002172512437
0.002172510297
0.00217250365
0.00217248481
0.002172438177
0.002172344524
0.002172513341
0.002172513341
0.002172513341
0.002172513341
0.00217251334
0.002172513336
0.002172513324
0.002172513278
0.002172513116
0.002172512564
0.00217251078
0.002172505396
0.002172490625
0.002172455183
0.002172384891
0.002172513341
0.002172513341
0.002172513341
0.002172513341
0.00217251334
0.002172513337
0.002172513328
0.002172513294
0.00217251318
0.002172512805
0.002172511644
0.002172508291
0.002172499479
0.002172479041
0.002172438797
0.002172513341
0.002172513341
0.002172513341
0.002172513341
0.00217251334
0.002172513338
0.002172513332
0.00217251331
0.002172513237
0.002172513011
0.002172512341
0.002172510494
0.002172505838
0.002172495349
0.002172474743
0.002172513341
0.002172513341
0.002172513341
0.002172513341
0.00217251334
0.002172513339
0.002172513334
0.002172513318
0.002172513268
0.002172513118
0.002172512692
0.002172511562
0.002172508809
0.00217250274
0.002172490818
0.002172513341
0.002172513341
0.002172513341
0.002172513341
0.00217251334
0.002172513338
0.002172513332
0.00217251331
0.002172513237
0.002172513011
0.002172512341
0.002172510494
0.002172505838
0.002172495348
0.002172513341
0.002172513341
0.002172513341
0.002172513341
0.00217251334
0.002172513338
0.002172513328
0.002172513296
0.002172513184
0.002172512816
0.002172511666
0.002172508316
0.002172499436
0.002172478715
0.002172437876
0.002172513341
0.002172513341
0.002172513341
0.002172513341
0.00217251334
0.002172513336
0.002172513322
0.00217251327
0.002172513081
0.00217251242
0.00217251022
0.002172503384
0.002172484109
0.002172436921
0.002172342956
0.002172513341
0.002172513341
0.002172513341
0.002172513341
0.002172513339
0.002172513334
0.002172513315
0.00217251324
0.002172512956
0.002172511911
0.002172508218
0.002172495973
0.002172459012
0.002172362768
0.002172166376
0.002172513341
0.002172513341
0.002172513341
0.00217251334
0.002172513339
0.002172513334
0.002172513312
0.002172513225
0.00217251289
0.002172511614
0.002172506934
0.002172490633
0.002172438386
0.002172292936
0.002171982458
0.002172513341
0.002172513341
0.002172513341
0.002172513341
0.002172513339
0.002172513334
0.002172513315
0.00217251324
0.002172512956
0.002172511911
0.002172508218
0.002172495973
0.002172459012
0.002172362769
0.002172166378
0.002172513341
0.002172513341
0.002172513341
0.002172513341
0.00217251334
0.002172513336
0.002172513322
0.00217251327
0.002172513081
0.00217251242
0.00217251022
0.002172503384
0.002172484109
0.002172436921
0.002172342958
0.002172513341
0.002172513341
0.002172513341
0.002172513341
0.00217251334
0.002172513338
0.002172513328
0.002172513296
0.002172513184
0.002172512816
0.002172511666
0.002172508316
0.002172499437
0.002172478715
0.002172437878
0.002172513341
0.002172513341
0.002172513341
0.002172513341
0.00217251334
0.002172513338
0.002172513332
0.00217251331
0.002172513237
0.002172513011
0.002172512341
0.002172510494
0.002172505838
0.002172495349
0.002172474743
0.002172513341
0.002172513341
0.002172513341
0.002172513341
0.00217251334
0.002172513337
0.002172513328
0.002172513294
0.00217251318
0.002172512805
0.002172511644
0.002172508291
0.002172499478
0.00217247904
0.002172513341
0.002172513341
0.002172513341
0.002172513341
0.00217251334
0.002172513336
0.002172513322
0.00217251327
0.002172513081
0.00217251242
0.00217251022
0.002172503384
0.002172484109
0.00217243692
0.002172513341
0.002172513341
0.002172513341
0.00217251334
0.002172513339
0.002172513334
0.002172513311
0.002172513222
0.002172512877
0.002172511579
0.002172506895
0.002172491042
0.002172442314
0.002172313675
0.002172050079
0.002172513341
0.002172513341
0.002172513341
0.00217251334
0.002172513339
0.002172513331
0.002172513298
0.002172513164
0.002172512611
0.002172510386
0.002172501703
0.002172469533
0.002172360149
0.002172040044
0.002171340216
0.002172513341
0.002172513341
0.002172513341
0.00217251334
0.002172513338
0.00217251333
0.002172513292
0.002172513133
0.002172512455
0.002172509601
0.002172497796
0.002172450553
0.002172272826
0.00217168234
0.002170218032
0.002172513341
0.002172513341
0.002172513341
0.00217251334
0.002172513339
0.002172513331
0.002172513298
0.002172513164
0.002172512611
0.002172510386
0.002172501703
0.002172469533
0.002172360151
0.002172040049
0.00217134023
0.002172513341
0.002172513341
0.002172513341
0.00217251334
0.002172513339
0.002172513334
0.002172513311
0.002172513222
0.002172512877
0.002172511579
0.002172506895
0.002172491042
0.002172442315
0.002172313679
0.00217205009
0.002172513341
0.002172513341
0.002172513341
0.002172513341
0.00217251334
0.002172513336
0.002172513322
0.00217251327
0.002172513081
0.00217251242
0.00217251022
0.002172503384
0.00217248411
0.002172436922
0.002172342959
0.002172513341
0.002172513341
0.002172513341
0.002172513341
0.00217251334
0.002172513337
0.002172513328
0.002172513294
0.00217251318
0.002172512805
0.002172511644
0.002172508291
0.002172499479
0.002172479041
0.002172438797
0.002172513341
0.002172513341
0.002172513341
0.002172513341
0.00217251334
0.002172513336
0.002172513324
0.002172513278
0.002172513116
0.002172512564
0.002172510779
0.002172505396
0.002172490624
0.002172455181
0.002172513341
0.002172513341
0.002172513341
0.002172513341
0.002172513339
0.002172513334
0.002172513315
0.00217251324
0.002172512956
0.002172511911
0.002172508218
0.002172495973
0.002172459011
0.002172362765
0.002172513341
0.002172513341
0.002172513341
0.00217251334
0.002172513339
0.002172513331
0.002172513298
0.002172513164
0.002172512611
0.002172510386
0.002172501703
0.002172469532
0.002172360148
0.002172040035
0.002172513341
0.002172513341
0.002172513341
0.00217251334
0.002172513338
0.002172513327
0.002172513278
0.002172513066
0.002172512126
0.002172508004
0.002172490179
0.002172415466
0.002172121348
0.00217110355
0.002168510581
0.002172513341
0.002172513341
0.002172513341
0.00217251334
0.002172513337
0.002172513325
0.002172513268
0.002172513008
0.00217251181
0.002172506212
0.002172479835
0.002172355376
0.002171778062
0.002169269799
0.002160595255
0.002172513341
0.002172513341
0.002172513341
0.00217251334
0.002172513338
0.002172513327
0.002172513278
0.002172513066
0.002172512126
0.002172508004
0.002172490179
0.002172415467
0.002172121351
0.002171103568
0.002168510652
0.002172513341
0.002172513341
0.002172513341
0.00217251334
0.002172513339
0.002172513331
0.002172513298
0.002172513164
0.002172512611
0.002172510386
0.002172501703
0.002172469533
0.00217236015
0.002172040047
0.002171340228
0.002172513341
0.002172513341
0.002172513341
0.002172513341
0.002172513339
0.002172513334
0.002172513315
0.00217251324
0.002172512956
0.002172511911
0.002172508218
0.002172495973
0.002172459012
0.002172362769
0.002172166378
0.002172513341
0.002172513341
0.002172513341
0.002172513341
0.00217251334
0.002172513336
0.002172513324
0.002172513278
0.002172513116
0.002172512564
0.00217251078
0.002172505396
0.002172490624
0.002172455182
0.002172384891
0.002172513341
0.002172513341
0.002172513341
0.002172513341
0.00217251334
0.002172513336
0.002172513322
0.00217251327
0.002172513084
0.002172512437
0.002172510297
0.002172503649
0.002172484809
0.002172438175
0.002172513341
0.002172513341
0.002172513341
0.00217251334
0.002172513339
0.002172513334
0.002172513312
0.002172513225
0.00217251289
0.002172511614
0.002172506934
0.002172490632
0.002172438385
0.002172292931
0.002172513341
0.002172513341
0.002172513341
0.00217251334
0.002172513338
0.00217251333
0.002172513292
0.002172513133
0.002172512455
0.0021725096
0.002172497796
0.002172450551
0.00217227282
0.002171682316
0.002172513341
0.002172513341
0.002172513341
0.00217251334
0.002172513337
0.002172513325
0.002172513268
0.002172513008
0.00217251181
0.002172506212
0.002172479835
0.002172355374
0.00217177805
0.002169269722
0.002172513341
0.002172513341
0.002172513341
0.00217251334
0.002172513337
0.002172513322
0.002172513255
0.002172512932
0.002172511354
0.002172503341
0.002172460724
0.002172220725
0.002170775486
0.002161408118
0.002095757083
0.002172513341
0.002172513341
0.002172513341
0.00217251334
0.002172513337
0.002172513325
0.002172513268
0.002172513008
0.00217251181
0.002172506212
0.002172479835
0.002172355376
0.00217177806
0.002169269789
0.002160595231
0.002172513341
0.002172513341
0.002172513341
0.00217251334
0.002172513338
0.00217251333
0.002172513292
0.002172513133
0.002172512455
0.002172509601
0.002172497796
0.002172450553
0.002172272826
0.002171682339
0.002170218033
0.002172513341
0.002172513341
0.002172513341
0.00217251334
0.002172513339
0.002172513334
0.002172513312
0.002172513225
0.00217251289
0.002172511614
0.002172506934
0.002172490633
0.002172438387
0.002172292937
0.00217198246
0.002172513341
0.002172513341
0.002172513341
0.002172513341
0.00217251334
0.002172513336
0.002172513322
0.00217251327
0.002172513084
0.002172512437
0.002172510297
0.00217250365
0.00217248481
0.002172438177
0.002172344525
0.002172513341
0.002172513341
0.002172513341
0.002172513341
0.00217251334
0.002172513336
0.002172513324
0.002172513278
0.002172513116
0.002172512564
0.002172510779
0.002172505396
0.002172490624
0.002172455181
0.002172513341
0.002172513341
0.002172513341
0.002172513341
0.002172513339
0.002172513334
0.002172513315
0.00217251324
0.002172512956
0.002172511911
0.002172508218
0.002172495972
0.002172459011
0.002172362765
0.002172513341
0.002172513341
0.002172513341
0.00217251334
0.002172513339
0.002172513331
0.002172513298
0.002172513164
0.002172512611
0.002172510386
0.002172501703
0.002172469532
0.002172360147
0.002172040036
0.002172513341
0.002172513341
0.002172513341
0.00217251334
0.002172513338
0.002172513327
0.002172513278
0.002172513066
0.002172512126
0.002172508004
0.002172490179
0.002172415466
0.002172121345
0.002171103538
0.002172513341
0.002172513341
0.002172513341
0.00217251334
0.002172513337
0.002172513325
0.002172513268
0.002172513008
0.00217251181
0.002172506212
0.002172479835
0.002172355375
0.002171778052
0.002169269728
0.002172513341
0.002172513341
0.002172513341
0.00217251334
0.002172513338
0.002172513327
0.002172513278
0.002172513066
0.002172512126
0.002172508004
0.002172490179
0.002172415466
0.002172121347
0.002171103542
0.002172513341
0.002172513341
0.002172513341
0.00217251334
0.002172513339
0.002172513331
0.002172513298
0.002172513164
0.002172512611
0.002172510386
0.002172501703
0.002172469532
0.002172360149
0.002172040041
0.002171340209
0.002172513341
0.002172513341
0.002172513341
0.002172513341
0.002172513339
0.002172513334
0.002172513315
0.00217251324
0.002172512956
0.002172511911
0.002172508218
0.002172495973
0.002172459012
0.002172362768
0.002172166376
0.002172513341
0.002172513341
0.002172513341
0.002172513341
0.00217251334
0.002172513336
0.002172513324
0.002172513278
0.002172513116
0.002172512564
0.00217251078
0.002172505396
0.002172490624
0.002172455182
0.002172384891
0.002172513341
0.002172513341
0.002172513341
0.002172513341
0.00217251334
0.002172513337
0.002172513328
0.002172513294
0.00217251318
0.002172512805
0.002172511644
0.002172508291
0.002172499478
0.00217247904
0.002172513341
0.002172513341
0.002172513341
0.002172513341
0.00217251334
0.002172513336
0.002172513322
0.00217251327
0.002172513081
0.00217251242
0.00217251022
0.002172503384
0.002172484109
0.002172436919
0.002172513341
0.002172513341
0.002172513341
0.00217251334
0.002172513339
0.002172513334
0.002172513311
0.002172513222
0.002172512877
0.002172511579
0.002172506895
0.002172491042
0.002172442313
0.002172313673
0.002172513341
0.002172513341
0.002172513341
0.00217251334
0.002172513339
0.002172513331
0.002172513298
0.002172513164
0.002172512611
0.002172510386
0.002172501703
0.002172469532
0.002172360147
0.002172040038
0.002172513341
0.002172513341
0.002172513341
0.00217251334
0.002172513338
0.00217251333
0.002172513292
0.002172513133
0.002172512455
0.002172509601
0.002172497796
0.002172450552
0.002172272823
0.002171682326
0.002172513341
0.002172513341
0.002172513341
0.00217251334
0.002172513339
0.002172513331
0.002172513298
0.002172513164
0.002172512611
0.002172510386
0.002172501703
0.002172469532
0.002172360148
0.002172040039
0.002172513341
0.002172513341
0.002172513341
0.00217251334
0.002172513339
0.002172513333
0.002172513311
0.002172513222
0.002172512877
0.002172511579
0.002172506895
0.002172491042
0.002172442314
0.002172313674
0.002172513341
0.002172513341
0.002172513341
0.002172513341
0.00217251334
0.002172513336
0.002172513322
0.00217251327
0.002172513081
0.00217251242
0.00217251022
0.002172503384
0.002172484109
0.00217243692
0.002172342956
0.002172513341
0.002172513341
0.002172513341
0.002172513341
0.00217251334
0.002172513337
0.002172513328
0.002172513294
0.00217251318
0.002172512805
0.002172511644
0.002172508291
0.002172499478
0.002172479041
0.002172438796
0.002172513341
0.002172513341
0.002172513341
0.002172513341
0.00217251334
0.002172513338
0.002172513332
0.00217251331
0.002172513237
0.002172513011
0.002172512341
0.002172510494
0.002172505838
0.002172495348
0.002172513341
0.002172513341
0.002172513341
0.002172513341
0.00217251334
0.002172513338
0.002172513328
0.002172513296
0.002172513184
0.002172512816
0.002172511666
0.002172508316
0.002172499436
0.002172478714
0.002172513341
0.002172513341
0.002172513341
0.002172513341
0.00217251334
0.002172513336
0.002172513322
0.00217251327
0.002172513081
0.00217251242
0.00217251022
0.002172503384
0.002172484109
0.00217243692
0.002172513341
0.002172513341
0.002172513341
0.002172513341
0.002172513339
0.002172513334
0.002172513315
0.00217251324
0.002172512956
0.002172511911
0.002172508218
0.002172495972
0.002172459011
0.002172362766
0.002172513341
0.002172513341
0.002172513341
0.00217251334
0.002172513339
0.002172513334
0.002172513312
0.002172513225
0.00217251289
0.002172511614
0.002172506934
0.002172490632
0.002172438385
0.002172292933
0.002172513341
0.002172513341
0.002172513341
0.002172513341
0.002172513339
0.002172513334
0.002172513315
0.00217251324
0.002172512956
0.002172511911
0.002172508218
0.002172495973
0.002172459011
0.002172362766
0.002172513341
0.002172513341
0.002172513341
0.002172513341
0.00217251334
0.002172513336
0.002172513322
0.00217251327
0.002172513081
0.00217251242
0.00217251022
0.002172503384
0.002172484109
0.00217243692
0.002172513341
0.002172513341
0.002172513341
0.002172513341
0.00217251334
0.002172513338
0.002172513328
0.002172513296
0.002172513184
0.002172512816
0.002172511666
0.002172508316
0.002172499436
0.002172478714
0.002172513341
0.002172513341
0.002172513341
0.002172513341
0.00217251334
0.002172513338
0.002172513332
0.00217251331
0.002172513237
0.002172513011
0.002172512341
0.002172510494
0.002172505838
0.002172495348
0.002172474742
0.002172513341
0.002172513341
0.002172513341
0.002172513341
0.00217251334
0.002172513339
0.002172513334
0.002172513318
0.002172513268
0.002172513118
0.002172512692
0.002172511562
0.002172508809
0.00217250274
0.002172513341
0.002172513341
0.002172513341
0.002172513341
0.00217251334
0.002172513338
0.002172513332
0.00217251331
0.002172513237
0.002172513011
0.002172512341
0.002172510494
0.002172505838
0.002172495348
0.002172513341
0.002172513341
0.002172513341
0.002172513341
0.00217251334
0.002172513337
0.002172513328
0.002172513294
0.00217251318
0.002172512805
0.002172511644
0.002172508291
0.002172499478
0.00217247904
0.002172513341
0.002172513341
0.002172513341
0.002172513341
0.00217251334
0.002172513336
0.002172513324
0.002172513278
0.002172513116
0.002172512564
0.002172510779
0.002172505396
0.002172490624
0.002172455181
0.002172513341
0.002172513341
0.002172513341
0.002172513341
0.00217251334
0.002172513336
0.002172513322
0.00217251327
0.002172513084
0.002172512437
0.002172510297
0.002172503649
0.002172484809
0.002172438175
0.002172513341
0.002172513341
0.002172513341
0.002172513341
0.00217251334
0.002172513336
0.002172513324
0.002172513278
0.002172513116
0.002172512564
0.002172510779
0.002172505396
0.002172490624
0.002172455181
0.002172513341
0.002172513341
0.002172513341
0.002172513341
0.00217251334
0.002172513337
0.002172513328
0.002172513294
0.00217251318
0.002172512805
0.002172511644
0.002172508291
0.002172499478
0.00217247904
0.002172513341
0.002172513341
0.002172513341
0.002172513341
0.00217251334
0.002172513338
0.002172513332
0.00217251331
0.002172513237
0.002172513011
0.002172512341
0.002172510494
0.002172505838
0.002172495348
0.002172513341
0.002172513341
0.002172513341
0.002172513341
0.00217251334
0.002172513339
0.002172513334
0.002172513318
0.002172513268
0.002172513118
0.002172512692
0.002172511562
0.002172508809
0.00217250274
)
;

boundaryField
{
    top
    {
        type            zeroGradient;
    }
    bottom
    {
        type            zeroGradient;
    }
    side-walls
    {
        type            zeroGradient;
    }
    inlet
    {
        type            zeroGradient;
    }
    outlet
    {
        type            zeroGradient;
    }
    procBoundary0to1
    {
        type            processor;
        value           nonuniform List<scalar> 
97
(
0.002172470098
0.002172474742
0.002172439947
0.002172373423
0.0021722761
0.002172206737
0.002172276101
0.002172373425
0.002172439948
0.002172470099
0.002172474742
0.002172474742
0.002172372093
0.002172342954
0.002172201605
0.002171899113
0.002171614284
0.002171899116
0.002172201607
0.002172372096
0.002172439948
0.002172438795
0.002172342954
0.002172342954
0.002171698846
0.002171340201
0.002170582552
0.002169123387
0.002170582566
0.002171698857
0.002172201608
0.002172373425
0.00217238489
0.002172166373
0.002171340201
0.002171340201
0.002166761526
0.002160595166
0.00215927749
0.00216676157
0.002170582565
0.002171899117
0.002172276101
0.002172344522
0.002171982452
0.002170218005
0.002160595166
0.002160595166
0.002127113081
0.002160595188
0.002159277487
0.002168510627
0.002169123393
0.002171614288
0.002172206739
0.00217238489
0.002172166375
0.002171340216
0.002168510632
0.002160595188
0.002168510627
0.002168510627
0.002170582556
0.002172050082
0.002171899115
0.002172276101
0.002172438796
0.002172342956
0.002172050084
0.002171340221
0.002170218029
0.002171340223
0.002172050082
0.002172050082
0.002172201606
0.002172437877
0.002172373424
0.002172474743
0.002172437877
0.002172342957
0.002172166376
0.002171982458
0.002172166377
0.002172342957
0.002172437877
0.002172437877
0.002172439947
0.002172490818
0.002172490818
0.002172474743
0.002172438796
0.00217238489
0.002172344524
0.00217238489
0.002172438796
0.002172474743
0.002172490818
)
;
    }
}


// ************************************************************************* //
