/*--------------------------------*- C++ -*----------------------------------*\
| =========                 |                                                 |
| \\      /  F ield         | OpenFOAM: The Open Source CFD Toolbox           |
|  \\    /   O peration     | Version:  4.x                                   |
|   \\  /    A nd           | Web:      www.OpenFOAM.org                      |
|    \\/     M anipulation  |                                                 |
\*---------------------------------------------------------------------------*/
FoamFile
{
    version     2.0;
    format      ascii;
    class       surfaceScalarField;
    location    "9000";
    object      phi;
}
// * * * * * * * * * * * * * * * * * * * * * * * * * * * * * * * * * * * * * //

dimensions      [1 0 -1 0 0 0 0];

internalField   nonuniform List<scalar> 
3175
(
9.428229402e-06
-5.80578413e-13
-4.250450366e-13
9.428230657e-06
-3.88145008e-13
6.722683977e-13
9.428228254e-06
-6.890163129e-14
-4.416608863e-13
9.428229587e-06
-7.756699962e-13
6.602027831e-13
9.428232704e-06
-3.797229805e-13
4.801792634e-13
9.428233197e-06
-1.19606531e-12
-6.363109852e-13
9.428231446e-06
-1.934779161e-12
-2.826806235e-12
9.428236692e-06
-1.646897032e-12
-1.801844635e-12
9.428242932e-06
-1.059640632e-12
-3.172112161e-12
9.428253453e-06
-2.975773043e-12
-4.571342749e-12
9.428266443e-06
-7.60012141e-12
-6.838007428e-12
9.428284063e-06
-7.803319937e-12
-1.007440933e-11
9.428313155e-06
-1.18408799e-11
-1.356015061e-11
9.42834227e-06
-1.340331056e-11
-1.340348835e-11
-2.337647595e-11
9.428240817e-06
1.731529674e-12
6.100971785e-13
9.428243836e-06
2.691519867e-13
-2.365390542e-13
9.428241891e-06
-3.791798265e-13
1.370870611e-13
9.428241796e-06
5.826555443e-13
-1.272463389e-12
9.428242795e-06
1.407837263e-13
-9.686998635e-13
9.428244834e-06
-1.668855951e-14
-1.086340343e-12
9.428246655e-06
-1.501474126e-13
-7.495659575e-13
9.428248584e-06
-2.216859894e-12
-2.744961787e-12
9.428250268e-06
-3.738842807e-12
-4.651366564e-12
9.4282617e-06
-4.52926334e-12
-5.419639867e-12
9.428276376e-06
-7.742016022e-12
-5.895868809e-12
9.428293128e-06
-1.517346668e-11
-1.267849615e-11
9.428318347e-06
-2.278252133e-11
-1.706873719e-11
9.428353446e-06
-2.529852182e-11
-1.54640775e-11
-5.15340184e-11
-4.042838753e-11
9.428230426e-06
-4.100609487e-13
-9.936612447e-13
9.42823161e-06
5.198433043e-13
-2.250959405e-13
9.428231721e-06
-2.43285469e-13
1.005887726e-12
9.428231931e-06
-4.562129492e-13
5.57244671e-13
9.428233473e-06
-6.726295314e-13
-1.484921203e-12
9.428231098e-06
-2.594618577e-12
-1.652197025e-12
9.42823312e-06
-1.813490159e-12
-6.774579918e-13
9.42823625e-06
-1.895461407e-12
-3.200913819e-12
9.42823959e-06
-2.850145498e-12
-4.156159889e-12
9.428246765e-06
-6.756944326e-12
-6.969569579e-12
9.428256561e-06
-8.097284744e-12
-9.907008142e-12
9.428275817e-06
-1.423708236e-11
-1.927316201e-11
9.428299388e-06
-2.401954302e-11
-2.613789909e-11
9.428337293e-06
-2.638224382e-11
-3.36858386e-11
-6.07972436e-11
-8.516373442e-11
9.428225096e-06
-4.810447801e-13
5.774606336e-13
9.428222615e-06
-1.481147887e-12
1.63611647e-12
9.428222244e-06
-6.557732712e-13
4.15824544e-13
9.428221887e-06
-7.025423627e-13
2.906944917e-13
9.428220953e-06
-9.578338893e-13
-1.062119532e-12
9.4282205e-06
-1.246832221e-12
-1.305908334e-12
9.42822354e-06
-1.588823075e-12
-1.289597151e-12
9.428224315e-06
-2.77401555e-12
-3.354651932e-12
9.428226245e-06
-2.765325716e-12
-4.365987558e-12
9.428234411e-06
-3.795157521e-12
-7.594500214e-12
9.428243784e-06
-6.046803111e-12
-9.574060523e-12
9.428262204e-06
-1.505006679e-11
-2.36062405e-11
9.428288445e-06
-2.117573219e-11
-2.5163678e-11
9.428332395e-06
-3.306135764e-11
-4.092311522e-11
-5.632852521e-11
-1.197910504e-10
9.428223106e-06
-1.247842167e-13
-6.021898445e-14
9.428224449e-06
4.102349356e-13
2.127806334e-13
9.428223024e-06
1.093511265e-12
3.524811483e-13
9.428224401e-06
1.079428226e-13
-5.713420452e-13
9.428223068e-06
2.513675045e-13
5.724713646e-13
9.428222179e-06
8.978766729e-13
-6.956975551e-13
9.428224784e-06
-6.648853137e-13
-8.910188558e-13
9.428223701e-06
1.846713562e-12
-3.3798153e-12
9.42822268e-06
2.462722718e-12
-5.073647733e-12
9.428224738e-06
5.593176557e-12
-1.128973661e-11
9.428225006e-06
7.744164057e-12
-1.465274918e-11
9.428240496e-06
1.654665503e-11
-4.351749291e-11
9.42824768e-06
2.40812756e-11
-5.586325573e-11
9.428314309e-06
3.277566859e-11
-1.281931866e-10
5.664234672e-11
-3.184637954e-10
9.428295999e-06
2.902231882e-13
4.46971593e-13
9.428297403e-06
1.031736795e-12
8.576275573e-13
9.42829693e-06
3.958528979e-13
7.210027486e-14
9.428297958e-06
3.937473094e-13
2.608131595e-14
9.428296567e-06
1.352022883e-12
4.965305342e-13
9.42829524e-06
3.600567562e-13
-1.451454694e-12
9.428301385e-06
1.850684472e-12
-3.741615999e-13
9.428300192e-06
2.689364837e-12
-2.168670823e-12
9.428302532e-06
4.527111773e-12
-3.486239239e-12
9.428308819e-06
7.435677742e-12
-7.18894526e-12
9.428317596e-06
1.017282899e-11
-9.063861982e-12
9.428336112e-06
1.655285038e-11
-2.36119561e-11
9.428357368e-06
2.349572673e-11
-2.582676739e-11
9.428404303e-06
2.703305553e-11
-3.933254718e-11
6.224223474e-11
-1.203747242e-10
9.42829163e-06
-1.409879751e-12
1.575268523e-12
9.428289783e-06
-1.496508781e-12
3.220042341e-13
9.428289004e-06
-5.216511949e-13
3.586833546e-13
9.42829194e-06
6.185659656e-13
2.858259776e-13
9.428290084e-06
3.352528546e-13
1.061838313e-13
9.428292069e-06
1.050643282e-12
-1.29585516e-13
9.428295117e-06
3.178135697e-12
1.841260816e-12
9.428296432e-06
3.247047418e-12
-1.391723775e-12
9.428297444e-06
4.665671346e-12
-2.681117693e-12
9.428303849e-06
9.308484734e-12
-6.26665895e-12
9.42831332e-06
1.283201402e-11
-9.093064092e-12
9.428329933e-06
1.629114197e-11
-1.893487477e-11
9.428353626e-06
2.430822905e-11
-2.7338115e-11
9.428395373e-06
2.67360784e-11
-3.302656576e-11
4.85204105e-11
-8.65922866e-11
9.428246661e-06
-2.645051389e-13
1.059167148e-12
9.428246245e-06
-4.943420152e-13
8.145755065e-13
9.428246106e-06
5.205362675e-13
-5.100006175e-14
9.428246089e-06
7.80456628e-13
-6.713569939e-13
9.428245628e-06
8.062763189e-13
2.640663081e-13
9.428247923e-06
1.008116624e-12
7.235548853e-13
9.428249125e-06
9.752667398e-13
-5.464804609e-13
9.428253301e-06
3.638864828e-12
-5.154261453e-13
9.428257454e-06
3.774546182e-12
-2.658002597e-12
9.428265031e-06
4.474612004e-12
-4.764994752e-12
9.428276305e-06
5.765774934e-12
-7.600052777e-12
9.428296028e-06
8.54660244e-12
-1.071601514e-11
9.428323619e-06
1.388484227e-11
-1.688843692e-11
9.428352214e-06
1.271103763e-11
-1.67549538e-11
2.44617064e-11
-3.764013907e-11
9.428243319e-06
1.661732941e-12
9.428244504e-06
1.385200934e-12
9.42824365e-06
3.560165055e-13
9.428246673e-06
-4.439702426e-13
9.428245544e-06
7.613324768e-13
9.428247342e-06
1.27755402e-12
9.42825041e-06
9.16846148e-13
9.428253889e-06
-2.582449144e-12
9.428257083e-06
-3.295539168e-12
9.428264727e-06
-3.378057484e-12
9.428277872e-06
-5.473959191e-12
9.428298207e-06
-9.787544795e-12
9.428323856e-06
-1.443258651e-11
9.428351122e-06
-1.338128307e-11
-2.357452692e-11
9.428255827e-06
5.356762932e-13
1.146250181e-12
9.428255042e-06
8.983503835e-14
8.362043991e-15
9.428254131e-06
2.029865442e-12
3.994850378e-13
9.428253842e-06
-7.331631504e-13
9.81908824e-13
9.428254391e-06
-1.150498284e-12
3.524802613e-13
9.428255263e-06
-5.998412954e-13
-8.74167147e-13
9.42825927e-06
5.745149292e-13
-6.914554015e-13
9.428261449e-06
-1.453550341e-12
-1.943627048e-12
9.428264426e-06
-2.207455393e-12
-3.932172579e-12
9.428273851e-06
-4.478980914e-12
-7.009304501e-12
9.42828653e-06
-7.315180454e-12
-1.035706857e-11
9.428305545e-06
-9.952358145e-12
-1.610310359e-11
9.428332235e-06
-1.48758373e-11
-2.510072298e-11
-1.468530633e-11
-2.522212061e-11
9.42820952e-06
-2.679815114e-13
-2.570910974e-13
9.428210074e-06
-2.944580323e-13
7.528184771e-13
9.42820657e-06
-2.35424885e-13
2.1556428e-13
9.428207835e-06
1.652054471e-12
1.604413965e-12
9.428210533e-06
1.845725216e-13
5.712677495e-13
9.428211681e-06
6.874999843e-13
-8.526763549e-13
9.428211049e-06
3.940713229e-13
-2.482586734e-12
9.428215068e-06
-2.58628514e-12
-3.587476145e-12
9.428220223e-06
-2.60584773e-12
-4.276509816e-12
9.428227853e-06
-6.103112264e-12
-7.399133388e-12
9.42823939e-06
-1.05310228e-11
-1.1746755e-11
9.428258553e-06
-1.883139971e-11
-2.116147865e-11
9.428287331e-06
-2.690243399e-11
-2.939568168e-11
9.428321446e-06
-3.413490222e-11
-3.54772633e-11
-7.791842935e-11
9.428216449e-06
9.760396417e-13
4.461602866e-13
9.428218109e-06
8.580178859e-13
1.100111093e-12
9.428214345e-06
-1.995431707e-12
-8.701658047e-13
9.428214144e-06
-2.936514864e-13
-4.757673213e-13
9.428217228e-06
-1.808677386e-14
-9.572696303e-13
9.428215192e-06
-1.413353745e-12
-2.036732882e-12
9.428214233e-06
-2.550337644e-12
-2.310284957e-12
9.428218732e-06
-2.388747619e-12
-4.806174919e-12
9.428220181e-06
-4.202226026e-12
-8.568922811e-12
9.42822593e-06
-7.364142141e-12
-1.321739718e-11
9.428233948e-06
-9.514063617e-12
-1.657965911e-11
9.428252494e-06
-2.136362178e-11
-3.677112291e-11
9.42827146e-06
-3.005476048e-11
-4.891070709e-11
9.42832357e-06
-4.287660663e-11
-7.643572666e-11
-1.102898317e-10
-1.888466011e-10
9.428256603e-06
-6.578677343e-13
-1.467274051e-12
9.428255999e-06
-2.045250219e-12
-9.410502536e-13
9.428257245e-06
-9.221848945e-13
3.369166135e-13
9.428256518e-06
-1.480806098e-12
-1.83949224e-13
9.428258158e-06
2.612116383e-13
-1.252080193e-12
9.428255939e-06
-6.532162904e-13
-1.844921719e-12
9.428256713e-06
-1.022043815e-12
-1.960954848e-12
9.428258277e-06
-2.21341122e-12
-5.854350382e-12
9.428258962e-06
-3.309834478e-12
-7.891681575e-12
9.428264382e-06
-5.349568627e-12
-1.424635408e-11
9.428269219e-06
-8.108221365e-12
-1.71819644e-11
9.428292086e-06
-2.233235566e-11
-4.759683748e-11
9.428312047e-06
-3.277563906e-11
-4.272493567e-11
9.428385919e-06
-5.739342555e-11
-9.691306008e-11
-1.089498685e-10
-2.769253879e-10
9.428235647e-06
7.478569174e-13
-4.99606945e-13
9.428235709e-06
1.364042679e-12
-2.939823603e-13
9.428236005e-06
2.511558807e-13
7.873251826e-13
9.428239545e-06
1.412152225e-12
-1.991643536e-13
9.42823712e-06
5.708975648e-13
-1.632624881e-13
9.428235854e-06
-2.009387879e-13
-1.469261362e-12
9.428238017e-06
2.512949518e-13
-1.694419468e-12
9.428236124e-06
1.403805671e-12
-5.761033197e-12
9.428233436e-06
2.571893263e-12
-8.639019602e-12
9.428233287e-06
6.518970034e-12
-2.18232378e-11
9.428225467e-06
9.736654602e-12
-2.918926162e-11
9.428234764e-06
2.226130389e-11
-9.714444327e-11
9.428218182e-06
3.35963295e-11
-1.111744135e-10
9.428352549e-06
5.867480243e-11
-3.810936066e-10
1.089417396e-10
-8.780798654e-10
9.428201168e-06
1.66118107e-12
1.442105574e-12
9.428200945e-06
4.967277616e-13
3.379006636e-13
9.428202268e-06
1.691218085e-12
1.734833606e-12
9.428202078e-06
-3.625113619e-13
-5.516897235e-14
9.428200875e-06
1.423990444e-12
5.866193262e-13
9.428201242e-06
1.685918594e-12
7.560298376e-13
9.428202901e-06
3.801692773e-12
-1.206440348e-12
9.428204457e-06
3.342260942e-12
-4.475018809e-12
9.428204499e-06
5.094470524e-12
-5.950724196e-12
9.42820838e-06
8.528022225e-12
-1.412792496e-11
9.42821619e-06
1.076224372e-11
-1.665186206e-11
9.428240863e-06
2.242970101e-11
-4.786043873e-11
9.428261369e-06
2.816390671e-11
-4.334646766e-11
9.428334341e-06
4.275777107e-11
-9.797199583e-11
1.110291087e-10
-2.762144722e-10
9.428174365e-06
-1.909481467e-12
-1.224318154e-13
9.428174552e-06
-1.058443319e-12
3.690783101e-13
9.428174448e-06
-1.681165744e-12
9.864095609e-14
9.42817618e-06
-5.998386495e-13
7.484222571e-13
9.428171947e-06
9.514632788e-13
1.304551248e-13
9.428175651e-06
1.368196481e-12
-1.010716795e-12
9.428174681e-06
7.820232293e-13
-3.374151767e-12
9.428177936e-06
3.745315535e-12
-5.605812394e-12
9.428179085e-06
5.943553112e-12
-5.937292797e-12
9.428184848e-06
1.049400948e-11
-1.15976368e-11
9.428191139e-06
1.267521768e-11
-1.568476884e-11
9.42820848e-06
2.168302861e-11
-3.672155016e-11
9.428232017e-06
3.023770613e-11
-4.746344965e-11
9.4282819e-06
3.376439975e-11
-7.659688949e-11
8.004787469e-11
-1.886127627e-10
9.428281471e-06
4.888490362e-13
1.870486507e-12
9.42828164e-06
9.368177682e-13
1.953895001e-12
9.428284174e-06
2.120326579e-12
2.204202865e-12
9.428285739e-06
5.870925681e-13
1.173235219e-12
9.428284053e-06
-1.552499624e-14
-2.580159108e-13
9.428284999e-06
4.653831196e-13
1.898999806e-13
9.42828637e-06
1.808033492e-12
-9.818690863e-13
9.428289416e-06
8.867536702e-13
-3.230370402e-12
9.428294087e-06
2.683805953e-12
-6.720481584e-12
9.428300054e-06
4.77567781e-12
-1.087143573e-11
9.42831304e-06
6.759416987e-12
-1.227488016e-11
9.428330954e-06
9.655380358e-12
-2.162528693e-11
9.428358274e-06
1.618909932e-11
-3.070623893e-11
9.428396055e-06
1.712664839e-11
-3.389163549e-11
3.7505411e-11
-7.917094215e-11
9.428239896e-06
1.080872172e-12
9.428239771e-06
1.496197147e-12
9.428238761e-06
3.547821867e-13
9.428239823e-06
-1.713231843e-13
9.428239859e-06
6.870906278e-14
9.42824199e-06
1.079559761e-13
9.428242364e-06
-1.913718012e-12
9.42824857e-06
-1.187017921e-12
9.428250755e-06
-5.055782565e-12
9.42825942e-06
-7.616864749e-12
9.428270939e-06
-1.029551299e-11
9.428292022e-06
-1.531251873e-11
9.428317031e-06
-2.4730524e-11
9.428347763e-06
-2.400193106e-11
-4.933232291e-11
9.428233999e-06
-6.72119098e-13
2.956486697e-13
9.428235223e-06
-4.619407137e-13
1.174484041e-12
9.428234491e-06
2.580594344e-13
1.270761931e-12
9.42823407e-06
-4.274447795e-14
-6.560573404e-13
9.428234629e-06
-6.776174199e-13
2.018336428e-13
9.428235794e-06
-2.322238036e-13
-7.722042632e-13
9.428235563e-06
-2.124306594e-12
-2.007951426e-13
9.428237684e-06
-2.203900787e-12
-2.423588496e-12
9.428243661e-06
-1.857973254e-12
-3.457071084e-12
9.428249624e-06
-5.295065308e-12
-5.511188179e-12
9.428257692e-06
-8.623588486e-12
-8.141129262e-12
9.428274879e-06
-1.669347421e-11
-1.595227006e-11
9.428302775e-06
-2.40475124e-11
-2.280566245e-11
-3.355502084e-11
-2.731298198e-11
9.428263817e-06
9.362005044e-13
3.51017105e-13
9.428265286e-06
4.737196482e-13
-8.243319342e-14
9.428264615e-06
-5.565289478e-13
-6.634151508e-13
9.428262138e-06
-6.703747839e-13
-1.041994188e-12
9.428264674e-06
-1.666232561e-12
-4.469042569e-13
9.428265604e-06
-6.481189708e-14
3.595259784e-13
9.428267305e-06
7.45101126e-13
1.22395566e-12
9.428269466e-06
-3.735781947e-12
-2.596201327e-12
9.428272359e-06
-6.187283616e-12
-4.622319544e-12
9.428275178e-06
-1.151938864e-11
-8.458860605e-12
9.42828218e-06
-1.501932464e-11
-1.07810949e-11
9.42830297e-06
-3.361000369e-11
-2.250660709e-11
9.42832268e-06
-4.593018762e-11
-3.0258608e-11
-7.546288385e-11
-4.285288172e-11
9.428265312e-06
-8.842973472e-13
-7.721448016e-13
9.428264164e-06
-7.582854367e-13
-9.082492773e-13
9.428264391e-06
-1.534308057e-13
7.238957232e-17
9.428262889e-06
1.749184916e-13
3.917177118e-13
9.428265376e-06
-6.83023807e-13
-7.030503757e-13
9.428263403e-06
-1.12871416e-12
-1.700100798e-12
9.42826165e-06
-2.156510568e-12
-2.510802402e-12
9.428263287e-06
-2.883481707e-12
-3.346780119e-12
9.42826408e-06
-3.490872705e-12
-4.41708151e-12
9.428263427e-06
-1.04016338e-11
-1.266450277e-11
9.428261998e-06
-1.477912255e-11
-1.569734585e-11
9.428275875e-06
-4.2546489e-11
-4.473961859e-11
9.428278315e-06
-5.160651872e-11
-5.236328359e-11
9.428371719e-06
-1.213378631e-10
-1.227867667e-10
-3.185508915e-10
9.428254239e-06
5.691200913e-13
-1.060824301e-13
9.428253453e-06
-1.010023328e-12
-5.236191378e-13
9.428254251e-06
-5.643850762e-13
-1.69493964e-13
9.428251398e-06
-1.099416776e-12
-8.83149319e-13
9.428253213e-06
5.986658527e-13
-4.67048573e-13
9.428252325e-06
-1.146877223e-12
-7.937245731e-13
9.428249426e-06
-7.920837754e-13
-2.270632997e-12
9.428248982e-06
-1.07312117e-12
-4.14463598e-12
9.428248305e-06
-2.566718427e-12
-6.049260076e-12
9.428245551e-06
-8.818465405e-12
-1.842933723e-11
9.428247211e-06
-1.443282779e-11
-1.418436869e-11
9.428262516e-06
-4.555870566e-11
-6.185116549e-11
9.42826684e-06
-6.646459409e-11
-3.001636945e-11
9.428417704e-06
-1.679607961e-10
-2.028526404e-10
-3.310163552e-10
-5.638139365e-10
9.428207571e-06
1.675531603e-12
9.458805681e-14
9.428207524e-06
2.4750919e-12
5.655837715e-13
9.428205211e-06
2.106021771e-12
1.222231433e-12
9.428205534e-06
6.468923493e-13
9.036360671e-13
9.428204656e-06
9.038401438e-13
-1.492088102e-12
9.428204359e-06
1.147011722e-12
-1.648958454e-12
9.428199786e-06
7.360352841e-13
-2.232082192e-12
9.428195244e-06
2.544802847e-12
-6.29640871e-12
9.428186714e-06
4.404509819e-12
-8.153574645e-12
9.428168841e-06
1.139967667e-11
-2.819976844e-11
9.428138095e-06
1.57899047e-11
-3.120757466e-11
9.42810152e-06
4.63522546e-11
-1.536679755e-10
9.427991831e-06
6.717116832e-11
-1.375633068e-10
9.428314444e-06
1.692139512e-10
-1.041343922e-09
3.32818923e-10
-2.375937404e-09
9.428294119e-06
3.211019972e-14
4.364449851e-13
9.428293594e-06
9.030918312e-13
9.556253624e-13
9.428292229e-06
1.784908172e-13
-6.960088795e-13
9.42829342e-06
1.042418192e-12
1.325610604e-14
9.428291433e-06
1.216175051e-12
-6.05784945e-13
9.428287878e-06
2.667991986e-13
-7.578089958e-13
9.428287247e-06
1.679462984e-12
-5.219476285e-13
9.42828658e-06
2.801495159e-12
-3.728988906e-12
9.428285812e-06
4.677435066e-12
-6.008319203e-12
9.428280121e-06
1.235351112e-11
-1.768608548e-11
9.428281971e-06
1.550359485e-11
-1.400061586e-11
9.428298546e-06
4.294096043e-11
-6.01745086e-11
9.428304252e-06
5.103316103e-11
-3.151523333e-11
9.428456492e-06
1.219139524e-10
-2.028701849e-10
3.184971192e-10
-5.639727667e-10
9.428258455e-06
-9.991745204e-13
2.129619383e-13
9.428259163e-06
-4.009983085e-13
6.503267845e-13
9.428259616e-06
-6.466341077e-14
-7.045228318e-13
9.428261514e-06
9.79339225e-13
-1.181556378e-12
9.428258593e-06
6.253156248e-13
-1.055373335e-12
9.428260059e-06
3.145626347e-12
-1.752943959e-12
9.428257787e-06
2.721691785e-12
-5.584874105e-13
9.428258937e-06
5.177221357e-12
-2.380241008e-12
9.428257833e-06
5.01440646e-12
-4.38789971e-12
9.428258159e-06
1.145675985e-11
-1.237037734e-11
9.428257079e-06
1.619438611e-11
-1.481658121e-11
9.428269294e-06
3.637337753e-11
-4.384380454e-11
9.428276782e-06
4.792754683e-11
-5.21720411e-11
9.428367003e-06
7.639873704e-11
-1.239579476e-10
1.891254674e-10
-3.19631827e-10
9.428236445e-06
-3.470325402e-13
4.793418576e-13
9.428238093e-06
4.283493987e-13
2.266623866e-13
9.428237252e-06
5.870316964e-13
2.084328872e-13
9.428237403e-06
-2.714508442e-13
1.399504248e-12
9.428237882e-06
4.844496329e-13
1.335648379e-12
9.428238727e-06
5.588648645e-13
-1.594344422e-12
9.428239833e-06
1.399810506e-12
-5.515469482e-13
9.428238859e-06
2.397149714e-12
-3.511252143e-12
9.428241077e-06
4.031563641e-12
-2.918619814e-12
9.428245838e-06
7.993482116e-12
-8.05513425e-12
9.428252597e-06
1.023372984e-11
-1.083770349e-11
9.428270457e-06
1.874304379e-11
-2.340339846e-11
9.428293155e-06
2.623773865e-11
-2.802350644e-11
9.428344575e-06
3.508845935e-11
-4.326566909e-11
8.427669342e-11
-1.123301939e-10
9.428270335e-06
1.896547153e-13
9.428270091e-06
3.431621616e-13
9.428270498e-06
3.789068516e-13
9.428271737e-06
1.977926004e-12
9.428271015e-06
9.653953583e-13
9.428271697e-06
-5.654728129e-13
9.428273529e-06
-2.802856761e-12
9.428276155e-06
-2.7767893e-12
9.428280756e-06
-3.983006911e-12
9.428285068e-06
-7.940491919e-12
9.428294278e-06
-9.502868025e-12
9.428311284e-06
-1.642370281e-11
9.428337317e-06
-2.284102679e-11
9.428370928e-06
-2.823581185e-11
-5.986553949e-11
9.428264066e-06
1.686886013e-13
1.079350456e-12
9.428262673e-06
-1.780314724e-12
5.771747527e-13
9.428263607e-06
-1.423178015e-12
5.558166039e-13
9.428263261e-06
-7.502196374e-14
6.614557759e-13
9.428263508e-06
-8.90803056e-13
-6.787387358e-13
9.428264915e-06
3.683977726e-13
1.513474515e-13
9.42826198e-06
-8.595360548e-13
-2.421750735e-12
9.42826461e-06
-2.469668001e-12
-1.965454459e-12
9.428268714e-06
-4.340424691e-12
-2.192676293e-12
9.42827489e-06
-8.923185367e-12
-4.52323386e-12
9.428282471e-06
-9.507610929e-12
-7.390974941e-12
9.428301807e-06
-2.202823656e-11
-1.315445097e-11
9.428327945e-06
-2.348282456e-11
-2.068871745e-11
-3.977679771e-11
-3.044035771e-11
9.428265708e-06
-1.708297448e-12
5.528569142e-13
9.428265839e-06
-3.38796326e-13
1.445667154e-12
9.428263382e-06
-6.22767681e-13
6.554214793e-13
9.428261043e-06
8.281660505e-13
-4.334029635e-13
9.428261789e-06
-1.466947206e-12
-6.8992533e-13
9.428261374e-06
-1.630947491e-12
1.971120355e-15
9.428259825e-06
-2.504288402e-12
-1.852032901e-12
9.42826157e-06
-4.468681851e-12
-2.355787936e-12
9.428263573e-06
-5.808083508e-12
-2.720604571e-12
9.428268688e-06
-1.413531442e-11
-4.7970581e-12
9.428273805e-06
-1.619432032e-11
-8.976258078e-12
9.428296275e-06
-4.645170643e-11
-2.258740022e-11
9.428318885e-06
-4.105782911e-11
-3.208196189e-11
-9.743080371e-11
-5.910675677e-11
9.428306826e-06
-5.0617037e-13
1.095926777e-12
9.428304915e-06
-8.807606577e-13
1.006459619e-12
9.428305274e-06
-4.663869718e-13
6.169231626e-13
9.428302373e-06
-1.326957556e-12
2.859110569e-13
9.428304311e-06
1.871958728e-13
2.359760771e-12
9.428301814e-06
-1.231897697e-12
-5.680674874e-13
9.428300402e-06
-1.723551644e-12
-9.977874571e-13
9.428298315e-06
-3.899424185e-12
-3.720808156e-12
9.428297265e-06
-4.835111064e-12
-3.41235405e-12
9.42829591e-06
-1.663795374e-11
-1.055277049e-11
9.428293441e-06
-1.371566592e-11
-1.475275306e-11
9.428311047e-06
-5.902482918e-11
-4.511582447e-11
9.428314547e-06
-2.947292378e-11
-6.704911105e-11
-2.015843931e-10
-1.685467047e-10
9.42824553e-06
9.266173293e-13
2.753616377e-12
9.42824494e-06
-3.956482378e-13
1.649190803e-12
9.428243406e-06
9.135804804e-13
1.307487506e-12
9.428243062e-06
7.967679623e-13
2.343313517e-12
9.428242837e-06
-5.363010022e-13
8.837578441e-13
9.428240745e-06
-8.152493894e-13
-7.93513408e-13
9.428238945e-06
1.119992936e-13
-3.701619305e-13
9.428237997e-06
-2.325756237e-12
-3.494392552e-12
9.428235799e-06
-3.0623028e-12
-4.763511617e-12
9.42823549e-06
-1.276694037e-11
-1.51457534e-11
9.428247768e-06
-2.167827547e-11
-2.229101545e-11
9.428283591e-06
-7.676766398e-11
-7.823146863e-11
9.428396695e-06
-8.592852399e-11
-8.759460324e-11
9.428624975e-06
-3.168964904e-10
-3.172798168e-10
-5.436082725e-10
9.428248412e-06
2.046346948e-12
1.74301214e-12
9.428249802e-06
2.386269769e-12
1.831031769e-12
9.428246117e-06
-1.364506849e-14
-8.66851256e-14
9.428245696e-06
3.791472404e-13
2.651230713e-12
9.428244712e-06
1.630531338e-12
2.104860186e-12
9.428242867e-06
2.975207646e-12
6.310245653e-13
9.428236503e-06
2.177986985e-12
9.38189817e-14
9.428230346e-06
4.495838462e-12
-3.085997604e-12
9.428217461e-06
5.349594858e-12
-8.821199e-12
9.428185419e-06
1.5037466e-11
-2.649453686e-11
9.428159177e-06
2.266344104e-11
-4.275462274e-11
9.428054385e-06
7.774173975e-11
-2.034117342e-10
9.428077657e-06
8.524797308e-11
-3.384219941e-10
9.428673631e-06
3.171000287e-10
-2.266772321e-09
5.442604374e-10
-4.047503765e-09
9.428243607e-06
-3.065480935e-13
-9.802270955e-13
9.428243239e-06
-3.561615607e-13
-5.060783826e-13
9.42824402e-06
-2.532378574e-13
-9.941647622e-14
9.428242651e-06
3.438274675e-13
7.838564616e-13
9.428241786e-06
1.408059029e-12
1.271336912e-12
9.428240556e-06
-9.447222532e-13
1.304045312e-13
9.428238992e-06
8.025922768e-13
-1.116185128e-12
9.428235781e-06
4.255791021e-12
-3.038614627e-12
9.428237204e-06
6.599900041e-12
-5.183482567e-12
9.428233958e-06
1.64892959e-11
-1.509995809e-11
9.428251117e-06
1.4960719e-11
-2.199800005e-11
9.428282999e-06
6.007189853e-11
-7.832837618e-11
9.42839956e-06
3.054320411e-11
-8.540783087e-11
9.428627292e-06
2.009410941e-10
-3.158031854e-10
5.624891507e-10
-5.425047463e-10
9.428251999e-06
-1.869979544e-13
-1.440245001e-12
9.428252701e-06
-8.587870298e-14
7.960230007e-15
9.428252386e-06
6.692283016e-13
1.535749183e-12
9.428252514e-06
3.122599094e-12
2.499521951e-12
9.428249807e-06
2.597384519e-12
6.308372661e-13
9.428251723e-06
2.614939082e-12
9.731608561e-13
9.428248619e-06
1.848883181e-12
-9.248553044e-13
9.428248052e-06
3.661942558e-12
-3.107579627e-12
9.42824314e-06
5.602968607e-12
-5.085011808e-12
9.428241496e-06
1.435770562e-11
-1.048231679e-11
9.428242347e-06
1.657042885e-11
-1.606839619e-11
9.428259248e-06
4.696727023e-11
-4.524033817e-11
9.428265166e-06
4.490565976e-11
-6.63465872e-11
9.428417015e-06
9.890130638e-11
-1.678246133e-10
2.770233317e-10
-3.323486275e-10
9.428230921e-06
-8.129520948e-13
-3.533507993e-13
9.428233039e-06
8.07508594e-13
1.755845799e-13
9.428233069e-06
1.222215475e-12
8.412450255e-13
9.428231218e-06
-2.766055813e-13
-5.26688983e-13
9.428228796e-06
8.991221107e-14
-1.408434055e-12
9.428231966e-06
1.352298411e-12
-5.055043725e-13
9.428230337e-06
-8.775309406e-14
-1.060846093e-12
9.428232215e-06
3.232225375e-12
2.020512545e-13
9.428232103e-06
2.221682625e-12
-2.540817008e-12
9.428239858e-06
7.414754782e-12
-4.150616682e-12
9.428246106e-06
9.465181255e-12
-8.917534124e-12
9.428270125e-06
2.204716476e-11
-2.181664364e-11
9.428288563e-06
2.420935363e-11
-3.347267002e-11
9.428362974e-06
3.980242389e-11
-5.821592584e-11
1.210102965e-10
-1.090643715e-10
9.428223653e-06
1.13660915e-12
9.428224372e-06
1.222265866e-12
9.428224196e-06
1.568804069e-12
9.428223757e-06
1.231670048e-12
9.428222983e-06
-1.298925434e-13
9.428223749e-06
7.464393634e-13
9.428225975e-06
1.343673313e-12
9.428227966e-06
5.153550093e-13
9.428231813e-06
-1.01487371e-12
9.428240191e-06
-2.364478362e-12
9.428246717e-06
-6.099436262e-12
9.428267797e-06
-1.264699053e-11
9.428290757e-06
-2.178817731e-11
9.428335656e-06
-3.157931961e-11
-5.693673706e-11
9.428237792e-06
2.757385532e-13
6.137845487e-13
9.428235989e-06
-4.199868827e-13
-5.143191317e-14
9.428234365e-06
-1.474084297e-12
-4.107662583e-13
9.428233746e-06
-1.275759959e-12
-3.13393642e-13
9.428236299e-06
-7.514929509e-13
1.162819109e-12
9.428234671e-06
7.047411817e-13
3.048478671e-13
9.428236215e-06
-3.005258357e-13
1.183085572e-12
9.428236779e-06
-2.668215309e-12
2.395566205e-12
9.428235614e-06
-4.61791824e-12
6.533586472e-13
9.42823812e-06
-1.15817647e-11
5.089174771e-12
9.428238025e-06
-1.390749118e-11
7.950100993e-12
9.428253071e-06
-4.25153772e-11
1.448963198e-11
9.428264443e-06
-5.487106708e-11
2.375902349e-11
-1.297145616e-10
3.240538224e-11
9.428253844e-06
-2.477446511e-13
1.661630479e-12
9.428253716e-06
-7.999941032e-13
9.836833623e-13
9.42825378e-06
-4.141183771e-13
-5.000105948e-15
9.428253832e-06
1.798112992e-12
1.762249144e-12
9.428255177e-06
1.847771597e-12
1.171014458e-12
9.428251885e-06
-2.450351763e-12
-5.150659438e-13
9.428251777e-06
-2.261368632e-12
-1.993817882e-13
9.428252437e-06
-5.912150638e-12
1.501807234e-12
9.428251119e-06
-7.909404741e-12
2.643378655e-12
9.428250111e-06
-2.286437955e-11
6.040087385e-12
9.428241856e-06
-2.828519558e-11
9.878699971e-12
9.428252748e-06
-9.507140829e-11
2.400978965e-11
9.428235168e-06
-1.098262576e-10
3.484651899e-11
-3.793676819e-10
6.115438193e-11
9.428154969e-06
1.290338708e-12
1.691437821e-12
9.428153272e-06
6.137025765e-13
1.465103905e-12
9.428152715e-06
-2.645730231e-13
1.06118419e-12
9.428151058e-06
7.813349527e-13
9.476512607e-14
9.428146251e-06
-2.36663083e-12
-1.171964468e-12
9.428147337e-06
-2.225464089e-12
-7.144782525e-14
9.428143077e-06
-1.958255846e-12
6.092787019e-13
9.428140209e-06
-5.128423905e-12
1.917110147e-12
9.428129617e-06
-9.076618426e-12
2.541182087e-12
9.428114894e-06
-2.830383433e-11
1.122678382e-11
9.42808327e-06
-3.055755028e-11
1.691086254e-11
9.428047035e-06
-1.546976763e-10
4.721910412e-11
9.427938922e-06
-1.389515678e-10
6.945921144e-11
-1.038647026e-09
1.715885425e-10
9.428231497e-06
-1.990267609e-13
9.481445359e-13
9.428231227e-06
4.695325909e-13
1.715787161e-12
9.428233028e-06
4.511786674e-13
-3.018978555e-13
9.428228293e-06
1.264225465e-12
-4.326070053e-13
9.428228275e-06
1.145065765e-12
1.087869845e-12
9.42822869e-06
1.31246397e-12
2.103877713e-12
9.428222981e-06
8.367207037e-13
2.276658287e-12
9.428215484e-06
-2.69220561e-12
4.466722011e-12
9.428203294e-06
-6.807932402e-12
5.310206503e-12
9.428173839e-06
-2.481915981e-11
1.68988272e-11
9.428144564e-06
-4.259591138e-11
2.260096014e-11
9.428041329e-06
-2.026422709e-10
7.857424146e-11
9.428065368e-06
-3.370982667e-10
8.732142189e-11
-2.266661091e-09
3.169294163e-10
9.428225753e-06
-6.593159444e-13
8.986326622e-13
9.428226557e-06
-5.972197615e-13
7.277994726e-13
9.428228043e-06
2.28774041e-13
4.398251059e-13
9.428223708e-06
-1.277916292e-12
3.619984199e-13
9.42822419e-06
9.609006384e-13
1.644109468e-13
9.428222787e-06
2.08216945e-12
6.92131177e-13
9.428212802e-06
1.021117169e-12
4.304496324e-13
9.428196646e-06
4.500270265e-12
4.342958786e-12
9.428169557e-06
7.967786633e-12
7.954751159e-12
9.428064958e-06
2.710290001e-11
2.714065003e-11
9.427899148e-06
4.387690414e-11
4.418191377e-11
9.427082489e-06
2.038490578e-10
2.052168571e-10
9.425725052e-06
3.379227533e-10
3.388581853e-10
9.416655767e-06
2.268124537e-09
2.268654644e-09
4.049727951e-09
9.428237394e-06
-5.096328767e-13
8.484992625e-13
9.428235167e-06
-1.094572212e-13
1.377583624e-12
9.428235171e-06
9.642695269e-13
1.140831175e-12
9.428234905e-06
2.248432562e-12
2.16454759e-12
9.428233419e-06
1.059554561e-12
7.843896248e-13
9.428229085e-06
1.813328954e-13
1.353984172e-12
9.428224736e-06
1.626275159e-12
1.652437274e-12
9.428215936e-06
5.376203047e-12
4.105881329e-12
9.428205437e-06
7.809006387e-12
5.858300887e-12
9.428173076e-06
2.732557797e-11
1.588569933e-11
9.428145468e-06
2.954375892e-11
2.254226689e-11
9.428038674e-06
1.537898827e-10
7.838789858e-11
9.42806456e-06
1.382291514e-10
8.856717742e-11
9.428656654e-06
1.037951856e-09
3.185329839e-10
2.372642784e-09
9.428251022e-06
1.598783485e-12
1.737126937e-12
9.428250854e-06
8.866398219e-14
8.840464516e-13
9.428251075e-06
2.473282301e-13
2.230545599e-12
9.428250337e-06
1.061662148e-13
1.109810135e-12
9.428249417e-06
7.485172172e-13
-4.27785829e-14
9.428250064e-06
1.369989636e-12
2.3922893e-12
9.428246999e-06
1.602304037e-12
1.377468709e-12
9.428241255e-06
6.970006736e-12
3.163276541e-12
9.42823276e-06
9.203178431e-12
5.154365881e-12
9.428216217e-06
2.401270408e-11
1.146711459e-11
9.428185661e-06
2.927528979e-11
1.831834358e-11
9.428147906e-06
9.772719429e-11
4.677669662e-11
9.428040102e-06
1.111398281e-10
6.856654485e-11