/*--------------------------------*- C++ -*----------------------------------*\
| =========                 |                                                 |
| \\      /  F ield         | OpenFOAM: The Open Source CFD Toolbox           |
|  \\    /   O peration     | Version:  4.x                                   |
|   \\  /    A nd           | Web:      www.OpenFOAM.org                      |
|    \\/     M anipulation  |                                                 |
\*---------------------------------------------------------------------------*/
FoamFile
{
    version     2.0;
    format      ascii;
    class       volScalarField;
    location    "9000";
    object      rhoeps;
}
// * * * * * * * * * * * * * * * * * * * * * * * * * * * * * * * * * * * * * //

dimensions      [1 -3 0 0 0 0 0];

internalField   nonuniform List<scalar> 
1175
(
0.2777041903
0.2777041969
0.2777042027
0.2777042153
0.2777042329
0.2777042245
0.277704218
0.2777042015
0.2777042026
0.2777042075
0.2777042239
0.2777042209
0.2777042494
0.2777043158
0.2777043782
0.2777045493
0.2777045418
0.2777045539
0.2777045629
0.2777045713
0.2777045724
0.2777045757
0.2777045828
0.2777045458
0.277704499
0.2777045225
0.2777045357
0.2777046177
0.2777046928
0.2777047837
0.2777042817
0.2777042941
0.277704293
0.2777042953
0.2777043084
0.2777042938
0.27770427
0.2777042245
0.2777042608
0.2777042811
0.2777042727
0.2777043157
0.277704387
0.2777045183
0.2777047584
0.2777040411
0.2777040297
0.2777040168
0.2777039903
0.2777039771
0.2777039806
0.2777039686
0.277703908
0.2777039227
0.2777039582
0.2777040243
0.277704034
0.2777041467
0.2777043269
0.2777047078
0.2777040102
0.2777040237
0.277704004
0.2777039866
0.2777040072
0.277704058
0.2777040253
0.2777039985
0.2777040003
0.2777039976
0.2777039924
0.2777039913
0.2777040633
0.2777043185
0.2777048519
0.2777062114
0.2777061691
0.2777062128
0.277706218
0.2777062265
0.2777062224
0.2777061907
0.2777062092
0.2777062086
0.2777062383
0.2777062052
0.2777062136
0.277706281
0.2777064553
0.2777068482
0.2777059803
0.2777060092
0.2777060166
0.2777060046
0.2777060146
0.2777060079
0.2777060103
0.2777060252
0.2777059789
0.2777059536
0.2777059619
0.2777060075
0.2777060304
0.2777061123
0.2777063879
0.2777046922
0.2777046925
0.277704672
0.2777046519
0.2777046703
0.2777046593
0.2777046513
0.2777046495
0.2777046643
0.2777046643
0.2777046534
0.2777046439
0.2777047129
0.2777047889
0.2777049007
0.2777045929
0.2777046042
0.277704626
0.2777046491
0.277704626
0.2777046391
0.2777046191
0.2777046132
0.2777046076
0.2777045693
0.2777045718
0.2777045688
0.27770461
0.2777046712
0.2777047546
0.2777049411
0.2777049537
0.277704942
0.2777049272
0.2777049438
0.2777049404
0.2777049031
0.2777049391
0.2777049426
0.2777049294
0.2777049201
0.2777048974
0.2777049062
0.2777049545
0.277703626
0.2777035845
0.277703607
0.277703598
0.277703601
0.2777036169
0.2777036086
0.277703616
0.2777035962
0.2777035812
0.2777036511
0.2777036662
0.2777037142
0.2777038172
0.2777040652
0.2777037774
0.277703798
0.2777038419
0.2777038242
0.2777037963
0.2777037988
0.2777037783
0.2777037876
0.2777038518
0.2777038434
0.2777038645
0.2777038595
0.2777039736
0.2777042305
0.2777047507
0.2777050411
0.2777050379
0.277705035
0.2777050525
0.2777050288
0.2777050188
0.2777050282
0.2777050293
0.2777050013
0.277704994
0.2777050237
0.2777050484
0.277705259
0.2777057803
0.2777069314
0.2777043873
0.2777044246
0.277704438
0.2777044296
0.2777044676
0.2777044919
0.2777044979
0.2777044742
0.2777044958
0.2777044865
0.2777045322
0.2777046287
0.2777049777
0.2777058114
0.2777075832
0.2777033784
0.2777033823
0.2777033803
0.2777034051
0.2777034093
0.2777034117
0.2777034201
0.2777034068
0.2777034047
0.2777034338
0.2777034493
0.2777035047
0.2777037293
0.2777042647
0.2777053788
0.27770262
0.2777026156
0.2777026443
0.2777026056
0.2777026111
0.2777025979
0.2777026316
0.2777025944
0.2777026192
0.2777026315
0.2777026369
0.2777026647
0.2777027645
0.2777030237
0.2777035429
0.2777057452
0.2777057255
0.2777057258
0.2777057342
0.277705742
0.2777057538
0.2777057645
0.2777057878
0.2777057591
0.2777057759
0.2777058066
0.2777058451
0.2777059072
0.2777059776
0.2777061583
0.2777045003
0.2777044756
0.2777044814
0.2777044823
0.2777044943
0.2777045051
0.2777045
0.2777045007
0.277704514
0.2777045146
0.2777045039
0.2777045058
0.277704513
0.2777045847
0.2777047081
0.2777043663
0.2777043663
0.2777043524
0.2777043651
0.2777043519
0.2777043468
0.2777043554
0.2777043415
0.2777043764
0.2777043896
0.2777043744
0.2777043885
0.2777044299
0.2777045247
0.277705184
0.2777051934
0.2777051811
0.2777052104
0.277705231
0.277705262
0.2777052689
0.2777052909
0.2777053001
0.2777053236
0.2777053109
0.2777053325
0.2777054457
0.277705697
0.2777051913
0.2777052053
0.2777052316
0.2777052421
0.2777052398
0.2777052334
0.2777052657
0.2777052925
0.2777053099
0.2777053175
0.2777053253
0.2777054013
0.2777056646
0.2777064341
0.2777079698
0.2777048881
0.2777049381
0.277704903
0.277704911
0.277704902
0.2777049372
0.2777049541
0.2777049183
0.277704951
0.2777049441
0.2777049856
0.2777051537
0.2777058041
0.2777076459
0.2777116113
0.2777035221
0.2777035089
0.2777034922
0.2777034961
0.2777034854
0.27770348
0.2777035088
0.277703535
0.277703525
0.277703497
0.2777035686
0.2777037988
0.277704841
0.2777082349
0.2777166272
0.277706133
0.2777061332
0.2777061086
0.2777061037
0.2777060731
0.2777060471
0.2777060328
0.2777060126
0.2777059938
0.2777060395
0.2777060841
0.2777062688
0.2777068828
0.2777087198
0.2777127109
0.277705087
0.2777050679
0.2777050652
0.2777050825
0.2777050998
0.2777051227
0.2777051058
0.277705115
0.277705135
0.2777051183
0.27770515
0.2777052474
0.2777055237
0.2777062847
0.2777078141
0.2777044574
0.2777044575
0.27770445
0.2777044265
0.2777044385
0.2777044525
0.2777044409
0.2777044403
0.2777044168
0.2777044124
0.2777043891
0.2777044087
0.2777045058
0.2777048307
0.277705395
0.2777054047
0.2777054077
0.2777054203
0.2777054297
0.2777054225
0.2777054332
0.2777054465
0.2777054535
0.277705445
0.2777054354
0.2777054269
0.2777054127
0.2777054464
0.2777055761
0.2777057905
0.2777052223
0.2777052234
0.2777052445
0.2777052355
0.277705193
0.2777052178
0.2777052042
0.277705189
0.2777051718
0.2777051699
0.2777051591
0.2777052024
0.2777052954
0.2777055135
0.2777052636
0.2777052288
0.2777052226
0.2777052169
0.2777051963
0.2777051825
0.2777051663
0.2777051625
0.2777051515
0.2777051374
0.2777051606
0.277705231
0.2777054506
0.277705987
0.2777064475
0.2777064297
0.2777064254
0.277706392
0.2777064128
0.2777064156
0.2777063721
0.277706365
0.2777063757
0.2777063956
0.2777064452
0.277706632
0.2777072603
0.2777090442
0.2777046594
0.2777046719
0.2777046011
0.2777046071
0.277704597
0.2777045778
0.2777045977
0.2777046303
0.277704642
0.2777047031
0.2777048298
0.2777052124
0.2777068958
0.2777127259
0.2777275913
0.2777047383
0.2777047436
0.2777047165
0.2777046666
0.2777046838
0.277704674
0.2777047236
0.2777047027
0.2777047316
0.2777047592
0.277704911
0.2777056442
0.2777089299
0.2777232785
0.277773286
0.2777046432
0.2777046211
0.277704639
0.2777046395
0.2777046356
0.2777046324
0.2777046462
0.2777046667
0.2777046441
0.2777047098
0.2777048414
0.277705276
0.2777069697
0.2777128046
0.2777275849
0.2777048915
0.2777048687
0.2777048546
0.2777048648
0.2777048975
0.277704868
0.2777048783
0.277704834
0.2777048637
0.2777048611
0.2777048755
0.277705069
0.2777057269
0.2777075674
0.2777116082
0.2777042648
0.2777042748
0.2777042763
0.277704277
0.2777043081
0.2777043076
0.2777042947
0.277704287
0.2777042856
0.2777042647
0.2777043138
0.277704395
0.2777045941
0.2777051564
0.2777062655
0.2777040326
0.2777040487
0.27770403
0.2777040374
0.2777040199
0.2777040288
0.2777040585
0.2777040526
0.2777040444
0.2777041053
0.2777041146
0.277704164
0.2777042549
0.2777044828
0.2777048965
0.2777044317
0.2777044137
0.2777043803
0.2777043608
0.2777043731
0.277704388
0.277704367
0.2777043762
0.277704383
0.2777043641
0.2777043749
0.2777044308
0.2777045103
0.277704776
0.2777049135
0.2777048968
0.2777048929
0.2777049138
0.2777049388
0.2777049074
0.2777049331
0.2777049505
0.2777049713
0.2777049986
0.2777050346
0.2777051279
0.2777054816
0.2777063228
0.2777019969
0.2777019492
0.2777019422
0.2777018989
0.2777018599
0.2777018665
0.2777018356
0.2777018572
0.2777018534
0.2777018566
0.277701964
0.2777022337
0.2777032591
0.2777066404
0.2777043281
0.2777043009
0.2777042937
0.2777043036
0.277704278
0.2777042894
0.277704284
0.2777042682
0.2777042825
0.2777043156
0.2777044523
0.2777051683
0.277708504
0.2777228209
0.2777040833
0.2777041255
0.2777041256
0.2777041698
0.2777041724
0.2777041694
0.2777041715
0.2777041832
0.2777042191
0.2777042238
0.2777044579
0.2777058319
0.277714053
0.2777676454
0.2775671036
0.277704398
0.2777043732
0.2777043916
0.2777043839
0.2777043767
0.2777043587
0.2777043474
0.2777043249
0.2777043333
0.2777043649
0.277704483
0.2777052134
0.2777085011
0.2777227662
0.2777727225
0.2777048254
0.2777048631
0.2777048794
0.2777048813
0.2777048981
0.2777048804
0.2777049052
0.2777048944
0.2777048912
0.2777048719
0.277704952
0.2777052536
0.2777062605
0.2777096176
0.2777179862
0.2777053602
0.277705357
0.2777053479
0.2777053308
0.2777052948
0.2777052678
0.2777052494
0.277705248
0.277705227
0.277705243
0.2777052717
0.2777053931
0.2777057051
0.2777065482
0.2777083344
0.2777054159
0.2777053921
0.2777054036
0.2777053814
0.2777053897
0.2777053818
0.2777053973
0.2777053713
0.2777053423
0.2777053369
0.2777053499
0.2777053741
0.277705487
0.2777057536
0.2777062886
0.2777052706
0.277705253
0.2777052348
0.277705197
0.2777051733
0.2777052078
0.2777052015
0.2777051964
0.2777051988
0.2777052243
0.2777052415
0.2777052401
0.2777053408
0.277705516
0.277705702
0.277705695
0.2777056849
0.2777057047
0.2777056735
0.2777056523
0.277705663
0.2777056584
0.2777056378
0.2777056543
0.2777056809
0.2777057509
0.2777059296
0.2777064578
0.2777050615
0.277705076
0.2777050317
0.2777050342
0.2777050713
0.2777050644
0.2777050563
0.2777050376
0.2777050522
0.2777050485
0.2777050554
0.2777052462
0.2777058451
0.2777076907
0.2777051459
0.2777051512
0.2777051483
0.2777051527
0.277705148
0.2777051796
0.2777051695
0.2777051449
0.2777051564
0.2777051658
0.2777052384
0.2777056443
0.2777073422
0.2777131511
0.2777052302
0.277705208
0.277705201
0.2777052305
0.2777052225
0.2777051803
0.2777051566
0.2777051679
0.2777052301
0.2777052609
0.2777054082
0.2777061452
0.277709426
0.2777237574
0.2777055706
0.2777055609
0.2777055379
0.2777055237
0.277705531
0.2777055468
0.2777055311
0.2777055454
0.2777055166
0.2777055453
0.27770563
0.2777060421
0.2777077214
0.2777135213
0.2777047428
0.2777047834
0.2777047454
0.2777047476
0.2777047016
0.2777046821
0.2777046837
0.2777046667
0.2777046589
0.2777046709
0.2777046962
0.2777048749
0.277705508
0.2777073263
0.2777113592
0.2777052379
0.2777052304
0.2777051928
0.2777052019
0.2777052038
0.2777051886
0.2777052139
0.2777052137
0.2777052066
0.2777051975
0.2777052053
0.2777052941
0.2777054902
0.2777060255
0.2777071214
0.2777052431
0.2777052543
0.2777052356
0.2777052524
0.2777052853
0.2777052892
0.2777053108
0.2777053321
0.2777053289
0.2777053181
0.2777053042
0.2777053365
0.2777054332
0.2777056191
0.277706052
0.2777056387
0.2777056294
0.2777056277
0.2777056078
0.2777056044
0.2777056155
0.2777056215
0.2777056303
0.2777056589
0.277705681
0.2777056931
0.2777056988
0.2777057328
0.277705841
0.2777040148
0.2777039897
0.2777039801
0.2777039551
0.2777039758
0.2777039847
0.2777040019
0.2777039535
0.2777039316
0.2777039557
0.277703981
0.2777040197
0.2777041494
0.2777043733
0.2777024685
0.2777024754
0.2777024815
0.277702554
0.2777025545
0.2777025256
0.2777025382
0.277702555
0.2777025109
0.2777025443
0.2777025849
0.2777026546
0.2777029288
0.277703678
0.2777046899
0.277704681
0.2777046589
0.2777046547
0.2777046698
0.2777046783
0.2777046774
0.2777046872
0.2777047287
0.2777047258
0.2777047988
0.2777049423
0.2777055603
0.2777073802
0.27770574
0.277705729
0.2777057686
0.277705753
0.2777057571
0.277705767
0.2777057294
0.2777056828
0.2777056581
0.2777056674
0.2777057527
0.2777060328
0.2777070417
0.277710422
0.2777047228
0.2777047435
0.2777047322
0.2777047355
0.2777047394
0.2777048098
0.2777047951
0.2777047661
0.2777047721
0.2777047757
0.2777048045
0.277704974
0.2777056085
0.2777074402
0.2777047631
0.2777047663
0.2777047679
0.2777047729
0.2777047769
0.2777047931
0.2777047922
0.2777048113
0.277704826
0.2777048338
0.2777048624
0.2777049299
0.2777052008
0.2777059557
0.2777055273
0.2777055634
0.2777055546
0.2777055883
0.2777055582
0.2777055592
0.2777055294
0.2777055116
0.2777054891
0.2777054758
0.2777054907
0.2777054879
0.2777056343
0.2777059303
0.2777064773
0.2777040153
0.2777039903
0.2777039948
0.2777039842
0.2777039606
0.2777039604
0.2777039237
0.2777038992
0.2777039129
0.2777039036
0.2777039151
0.2777039531
0.2777039795
0.277704103
0.2777043231
0.277704066
0.2777041051
0.2777040569
0.2777040605
0.2777040561
0.2777040555
0.2777040721
0.2777040445
0.2777040817
0.2777040713
0.2777040803
0.2777040804
0.2777041321
0.2777041932
0.2777045938
0.2777045531
0.2777045804
0.2777045866
0.2777045785
0.2777045884
0.2777045407
0.2777045671
0.2777045474
0.2777045619
0.277704556
0.2777045628
0.2777046143
0.2777047377
0.2777043546
0.2777043601
0.277704322
0.2777042863
0.277704269
0.2777042767
0.2777043197
0.2777043773
0.2777043911
0.2777044066
0.2777043962
0.277704435
0.2777045701
0.2777048311
0.2777046084
0.2777046373
0.2777046209
0.2777045802
0.277704572
0.2777045708
0.2777045629
0.2777045757
0.277704588
0.2777045688
0.2777045632
0.2777046135
0.2777048426
0.2777053527
0.2777040845
0.2777040747
0.2777040938
0.2777041022
0.2777040599
0.2777040686
0.2777040699
0.2777040694
0.2777040707
0.277704064
0.2777041213
0.2777042211
0.2777045287
0.2777053819
0.2777049689
0.2777049783
0.2777049899
0.2777049197
0.2777048961
0.277704865
0.2777048752
0.277704909
0.2777048985
0.2777049425
0.2777049866
0.2777050501
0.2777052548
0.2777058411
0.2777048998
0.277704878
0.2777048756
0.2777049156
0.2777049099
0.2777048964
0.277704889
0.2777049018
0.2777049101
0.2777049648
0.2777050044
0.2777050072
0.277705099
0.2777053381
0.2777043124
0.2777043294
0.2777043027
0.2777043281
0.2777043232
0.2777043533
0.2777043038
0.2777043133
0.2777043617
0.2777043786
0.2777044006
0.2777044666
0.2777044978
0.2777046059
0.2777037453
0.2777037436
0.2777037758
0.2777037326
0.2777037137
0.2777037037
0.2777037119
0.2777037273
0.2777037472
0.2777037559
0.2777037651
0.277703767
0.2777038585
0.2777038828
0.2777039735
0.2777050949
0.2777050876
0.2777050681
0.2777050452
0.2777050796
0.2777050945
0.2777050693
0.2777050744
0.2777050828
0.2777051276
0.277705147
0.2777051372
0.2777051267
0.277705157
0.2777042985
0.2777042921
0.2777042643
0.2777042745
0.277704273
0.2777042412
0.2777042511
0.2777042252
0.2777042181
0.2777042241
0.27770423
0.277704215
0.2777041879
0.27770428
0.2777047996
0.2777048312
0.2777048631
0.2777048534
0.2777048581
0.2777048428
0.2777048677
0.2777048958
0.2777049314
0.2777048944
0.2777049255
0.2777049532
0.277704978
0.2777050901
0.2777038178
0.2777038194
0.2777037929
0.2777038345
0.2777038427
0.2777038241
0.2777038373
0.277703849
0.2777038863
0.2777038911
0.2777039048
0.2777039583
0.2777040109
0.2777041888
0.2777048942
0.2777048821
0.2777048554
0.2777048909
0.2777048597
0.2777048684
0.2777048908
0.277704876
0.2777049032
0.2777049227
0.2777049086
0.2777049285
0.2777050476
0.277705325
0.2777031775
0.2777031824
0.2777031729
0.2777031519
0.2777031584
0.2777031214
0.2777031156
0.2777031086
0.2777031115
0.2777031024
0.2777030992
0.2777031523
0.2777032375
0.2777034624
0.2777047069
0.27770472
0.2777047264
0.2777047358
0.2777047655
0.277704753
0.2777047308
0.2777047682
0.2777047681
0.2777047725
0.2777048236
0.2777048387
0.2777048521
0.2777049725
0.2777053723
0.277705417
0.277705445
0.277705391
0.2777053728
0.2777053659
0.2777053622
0.2777053484
0.2777053343
0.2777053387
0.2777053477
0.2777053414
0.2777053335
0.2777054156
0.2777048124
0.2777047871
0.277704793
0.2777047671
0.2777047705
0.2777047615
0.2777047726
0.277704752
0.2777047602
0.2777047789
0.2777047688
0.2777047901
0.2777048032
0.2777048415
)
;

boundaryField
{
    top
    {
        type            calculated;
        value           nonuniform List<scalar> 
134
(
0.2777045929
0.2777045003
0.2777054047
0.2777040326
0.2777054159
0.2777052431
0.2777040153
0.2777037453
0.2777048124
0.2777046042
0.2777044756
0.2777054077
0.2777040487
0.2777053921
0.2777052543
0.2777039903
0.2777037436
0.2777047871
0.277704626
0.2777044814
0.2777054203
0.27770403
0.2777054036
0.2777052356
0.2777039948
0.2777037758
0.277704793
0.2777046491
0.2777044823
0.2777054297
0.2777040374
0.2777053814
0.2777052524
0.2777039842
0.2777037326
0.2777047671
0.277704626
0.2777044943
0.2777054225
0.2777040199
0.2777053897
0.2777052853
0.2777039606
0.2777037137
0.2777047705
0.2777046391
0.2777045051
0.2777054332
0.2777040288
0.2777053818
0.2777052892
0.2777039604
0.2777037037
0.2777047615
0.2777046191
0.2777045
0.2777054465
0.2777040585
0.2777053973
0.2777053108
0.2777039237
0.2777037119
0.2777047726
0.2777046132
0.2777045007
0.2777054535
0.2777040526
0.2777053713
0.2777053321
0.2777038992
0.2777037273
0.277704752
0.2777046076
0.277704514
0.277705445
0.2777040444
0.2777053423
0.2777053289
0.2777039129
0.2777037472
0.2777047602
0.2777045693
0.2777045146
0.2777054354
0.2777041053
0.2777053369
0.2777053181
0.2777039036
0.2777037559
0.2777047789
0.2777045718
0.2777045039
0.2777054269
0.2777041146
0.2777053499
0.2777053042
0.2777039151
0.2777037651
0.2777047688
0.2777045688
0.2777045058
0.2777054127
0.277704164
0.2777053741
0.2777053365
0.2777039531
0.277703767
0.2777047901
0.27770461
0.277704513
0.2777054464
0.2777042549
0.277705487
0.2777054332
0.2777039795
0.2777038585
0.2777048032
0.2777046712
0.2777045847
0.2777055761
0.2777044828
0.2777057536
0.2777056191
0.277704103
0.2777038828
0.2777048415
0.2777047546
0.2777047081
0.2777057905
0.2777048965
0.2777062886
0.277706052
0.2777043231
0.2777039735
)
;
    }
    bottom
    {
        type            calculated;
        value           nonuniform List<scalar> 
127
(
0.2777041903
0.2777049411
0.2777043663
0.2777052223
0.2777044317
0.2777052706
0.2777056387
0.277704066
0.2777050949
0.2777041969
0.2777049537
0.2777043663
0.2777052234
0.2777044137
0.277705253
0.2777056294
0.2777041051
0.2777050876
0.2777042027
0.277704942
0.2777043524
0.2777052445
0.2777043803
0.2777052348
0.2777056277
0.2777040569
0.2777050681
0.2777042153
0.2777049272
0.2777043651
0.2777052355
0.2777043608
0.277705197
0.2777056078
0.2777040605
0.2777050452
0.2777042329
0.2777049438
0.2777043519
0.277705193
0.2777043731
0.2777051733
0.2777056044
0.2777040561
0.2777050796
0.2777042245
0.2777049404
0.2777043468
0.2777052178
0.277704388
0.2777052078
0.2777056155
0.2777040555
0.2777050945
0.277704218
0.2777049031
0.2777043554
0.2777052042
0.277704367
0.2777052015
0.2777056215
0.2777040721
0.2777050693
0.2777042015
0.2777049391
0.2777043415
0.277705189
0.2777043762
0.2777051964
0.2777056303
0.2777040445
0.2777050744
0.2777042026
0.2777049426
0.2777043764
0.2777051718
0.277704383
0.2777051988
0.2777056589
0.2777040817
0.2777050828
0.2777042075
0.2777049294
0.2777043896
0.2777051699
0.2777043641
0.2777052243
0.277705681
0.2777040713
0.2777051276
0.2777042239
0.2777049201
0.2777043744
0.2777051591
0.2777043749
0.2777052415
0.2777056931
0.2777040803
0.277705147
0.2777042209
0.2777048974
0.2777043885
0.2777052024
0.2777044308
0.2777052401
0.2777056988
0.2777040804
0.2777051372
0.2777042494
0.2777049062
0.2777044299
0.2777052954
0.2777045103
0.2777053408
0.2777057328
0.2777041321
0.2777051267
0.2777043158
0.2777049545
0.2777045247
0.2777055135
0.277704776
0.277705516
0.277705841
0.2777041932
0.277705157
0.2777043782
)
;
    }
    side-walls
    {
        type            calculated;
        value           nonuniform List<scalar> 
261
(
0.2777041903
0.2777045493
0.2777042817
0.2777040411
0.2777040102
0.2777062114
0.2777059803
0.2777046922
0.2777045929
0.2777041969
0.2777045418
0.2777042941
0.2777040297
0.2777040237
0.2777061691
0.2777060092
0.2777046925
0.2777046042
0.2777042027
0.2777045539
0.277704293
0.2777040168
0.277704004
0.2777062128
0.2777060166
0.277704672
0.277704626
0.2777042153
0.2777045629
0.2777042953
0.2777039903
0.2777039866
0.277706218
0.2777060046
0.2777046519
0.2777046491
0.2777042329
0.2777045713
0.2777043084
0.2777039771
0.2777040072
0.2777062265
0.2777060146
0.2777046703
0.277704626
0.2777042245
0.2777045724
0.2777042938
0.2777039806
0.277704058
0.2777062224
0.2777060079
0.2777046593
0.2777046391
0.277704218
0.2777045757
0.27770427
0.2777039686
0.2777040253
0.2777061907
0.2777060103
0.2777046513
0.2777046191
0.2777042015
0.2777045828
0.2777042245
0.277703908
0.2777039985
0.2777062092
0.2777060252
0.2777046495
0.2777046132
0.2777042026
0.2777045458
0.2777042608
0.2777039227
0.2777040003
0.2777062086
0.2777059789
0.2777046643
0.2777046076
0.2777042075
0.277704499
0.2777042811
0.2777039582
0.2777039976
0.2777062383
0.2777059536
0.2777046643
0.2777045693
0.2777042239
0.2777045225
0.2777042727
0.2777040243
0.2777039924
0.2777062052
0.2777059619
0.2777046534
0.2777045718
0.2777042209
0.2777045357
0.2777043157
0.277704034
0.2777039913
0.2777062136
0.2777060075
0.2777046439
0.2777045688
0.2777042494
0.2777046177
0.277704387
0.2777041467
0.2777040633
0.277706281
0.2777060304
0.2777047129
0.27770461
0.2777043158
0.2777046928
0.2777045183
0.2777043269
0.2777043185
0.2777064553
0.2777061123
0.2777047889
0.2777046712
0.2777043782
0.2777047837
0.2777047584
0.2777047078
0.2777048519
0.2777068482
0.2777063879
0.2777049007
0.2777047546
0.2777050949
0.2777042985
0.2777047996
0.2777038178
0.2777048942
0.2777031775
0.2777047069
0.2777053723
0.2777048124
0.2777050876
0.2777042921
0.2777048312
0.2777038194
0.2777048821
0.2777031824
0.27770472
0.277705417
0.2777047871
0.2777050681
0.2777042643
0.2777048631
0.2777037929
0.2777048554
0.2777031729
0.2777047264
0.277705445
0.277704793
0.2777050452
0.2777042745
0.2777048534
0.2777038345
0.2777048909
0.2777031519
0.2777047358
0.277705391
0.2777047671
0.2777050796
0.277704273
0.2777048581
0.2777038427
0.2777048597
0.2777031584
0.2777047655
0.2777053728
0.2777047705
0.2777050945
0.2777042412
0.2777048428
0.2777038241
0.2777048684
0.2777031214
0.277704753
0.2777053659
0.2777047615
0.2777050693
0.2777042511
0.2777048677
0.2777038373
0.2777048908
0.2777031156
0.2777047308
0.2777053622
0.2777047726
0.2777050744
0.2777042252
0.2777048958
0.277703849
0.277704876
0.2777031086
0.2777047682
0.2777053484
0.277704752
0.2777050828
0.2777042181
0.2777049314
0.2777038863
0.2777049032
0.2777031115
0.2777047681
0.2777053343
0.2777047602
0.2777051276
0.2777042241
0.2777048944
0.2777038911
0.2777049227
0.2777031024
0.2777047725
0.2777053387
0.2777047789
0.277705147
0.27770423
0.2777049255
0.2777039048
0.2777049086
0.2777030992
0.2777048236
0.2777053477
0.2777047688
0.2777051372
0.277704215
0.2777049532
0.2777039583
0.2777049285
0.2777031523
0.2777048387
0.2777053414
0.2777047901
0.2777051267
0.2777041879
0.277704978
0.2777040109
0.2777050476
0.2777032375
0.2777048521
0.2777053335
0.2777048032
0.277705157
0.27770428
0.2777050901
0.2777041888
0.277705325
0.2777034624
0.2777049725
0.2777054156
0.2777048415
)
;
    }
    inlet
    {
        type            calculated;
        value           nonuniform List<scalar> 
81
(
0.2777041903
0.2777045493
0.2777042817
0.2777040411
0.2777040102
0.2777062114
0.2777059803
0.2777046922
0.2777045929
0.2777049411
0.277703626
0.2777037774
0.2777050411
0.2777043873
0.2777033784
0.27770262
0.2777057452
0.2777045003
0.2777043663
0.277705184
0.2777051913
0.2777048881
0.2777035221
0.277706133
0.277705087
0.2777044574
0.2777054047
0.2777052223
0.2777052636
0.2777064475
0.2777046594
0.2777047383
0.2777046432
0.2777048915
0.2777042648
0.2777040326
0.2777044317
0.2777049135
0.2777019969
0.2777043281
0.2777040833
0.277704398
0.2777048254
0.2777053602
0.2777054159
0.2777052706
0.277705702
0.2777050615
0.2777051459
0.2777052302
0.2777055706
0.2777047428
0.2777052379
0.2777052431
0.2777056387
0.2777040148
0.2777024685
0.2777046899
0.27770574
0.2777047228
0.2777047631
0.2777055273
0.2777040153
0.277704066
0.2777045938
0.2777043546
0.2777046084
0.2777040845
0.2777049689
0.2777048998
0.2777043124
0.2777037453
0.2777050949
0.2777042985
0.2777047996
0.2777038178
0.2777048942
0.2777031775
0.2777047069
0.2777053723
0.2777048124
)
;
    }
    outlet
    {
        type            calculated;
        value           nonuniform 0();
    }
    procBoundary0to1
    {
        type            processor;
        value           nonuniform List<scalar> 
97
(
0.2777044916
0.2777051011
0.2777049196
0.2777051141
0.2777053423
0.277705662
0.2777074962
0.2777067226
0.2777051027
0.2777048761
0.2777051011
0.2777051011
0.2777044505
0.2777062851
0.2777055998
0.2777084801
0.2777096627
0.2777069706
0.2777043188
0.2777065971
0.2777048875
0.277704764
0.2777062851
0.2777062851
0.2777099807
0.2777130302
0.2777159087
0.2777228909
0.2777170674
0.2777098089
0.2777062109
0.2777061675
0.2777059062
0.2777070543
0.2777130302
0.2777130302
0.2777375786
0.2777727993
0.2777808197
0.2777376106
0.2777158858
0.2777078253
0.2777055092
0.2777053583
0.2777080765
0.2777149821
0.2777727993
0.2777727993
0.278744266
0.2777736663
0.2777802254
0.2777283691
0.2777242494
0.2777104405
0.2777070878
0.2777059163
0.2777075898
0.277711707
0.2777280404
0.2777736663
0.2777283691
0.2777283691
0.2777157129
0.277707464
0.2777086369
0.2777066878
0.2777060541
0.2777049247
0.2777052252
0.2777113812
0.2777188163
0.27771136
0.277707464
0.277707464
0.2777072586
0.2777048216
0.2777047161
0.277704344
0.2777050096
0.2777053679
0.277706502
0.2777071723
0.2777069767
0.2777058753
0.2777048216
0.2777048216
0.2777041516
0.2777049163
0.2777051966
0.2777044011
0.2777053493
0.2777045643
0.2777058592
0.2777038753
0.2777051912
0.277705512
0.2777049163
)
;
    }
}


// ************************************************************************* //
