/*--------------------------------*- C++ -*----------------------------------*\
| =========                 |                                                 |
| \\      /  F ield         | OpenFOAM: The Open Source CFD Toolbox           |
|  \\    /   O peration     | Version:  4.x                                   |
|   \\  /    A nd           | Web:      www.OpenFOAM.org                      |
|    \\/     M anipulation  |                                                 |
\*---------------------------------------------------------------------------*/
FoamFile
{
    version     2.0;
    format      ascii;
    class       volScalarField;
    location    "9000";
    object      T;
}
// * * * * * * * * * * * * * * * * * * * * * * * * * * * * * * * * * * * * * //

dimensions      [0 0 0 1 0 0 0];

internalField   nonuniform List<scalar> 
1175
(
1223.152682
1223.152653
1223.152627
1223.152572
1223.152494
1223.152531
1223.15256
1223.152633
1223.152629
1223.152612
1223.152553
1223.152599
1223.152552
1223.152436
1223.152506
1223.1511
1223.151134
1223.15108
1223.151041
1223.151004
1223.150999
1223.150984
1223.150954
1223.151119
1223.151332
1223.151247
1223.151243
1223.151016
1223.15099
1223.151185
1223.152279
1223.152225
1223.152229
1223.152219
1223.152162
1223.152226
1223.152331
1223.152532
1223.152376
1223.152297
1223.152368
1223.152276
1223.152216
1223.15223
1223.152338
1223.153339
1223.153389
1223.153446
1223.153563
1223.153621
1223.153606
1223.153659
1223.153927
1223.153867
1223.153727
1223.153487
1223.1536
1223.153531
1223.153764
1223.154121
1223.153475
1223.153415
1223.153502
1223.153579
1223.153488
1223.153264
1223.153409
1223.153529
1223.153526
1223.153557
1223.153641
1223.153839
1223.154067
1223.154293
1223.154655
1223.14378
1223.143966
1223.143774
1223.143751
1223.143714
1223.143732
1223.143872
1223.143791
1223.143799
1223.143684
1223.143881
1223.144
1223.144131
1223.144389
1223.144693
1223.144798
1223.14467
1223.144638
1223.144691
1223.144647
1223.144676
1223.144666
1223.144601
1223.144809
1223.144931
1223.144928
1223.144824
1223.144978
1223.145209
1223.145161
1223.150471
1223.15047
1223.15056
1223.150649
1223.150568
1223.150616
1223.150651
1223.15066
1223.150597
1223.150603
1223.150671
1223.150766
1223.150597
1223.150566
1223.15067
1223.150908
1223.150859
1223.150763
1223.150661
1223.150763
1223.150705
1223.150793
1223.15082
1223.150846
1223.151019
1223.15102
1223.151066
1223.150964
1223.15087
1223.150848
1223.149375
1223.149319
1223.149371
1223.149436
1223.149363
1223.149378
1223.149542
1223.149385
1223.149371
1223.149436
1223.149496
1223.14965
1223.149746
1223.149836
1223.155167
1223.15535
1223.155251
1223.15529
1223.155277
1223.155207
1223.155244
1223.155213
1223.155303
1223.155379
1223.155105
1223.155136
1223.155181
1223.155327
1223.155417
1223.1545
1223.15441
1223.154216
1223.154294
1223.154417
1223.154406
1223.154497
1223.154458
1223.15418
1223.154236
1223.154207
1223.154427
1223.154482
1223.154717
1223.155146
1223.148934
1223.148949
1223.148961
1223.148884
1223.148989
1223.149033
1223.148992
1223.148989
1223.149121
1223.149183
1223.149159
1223.149405
1223.149547
1223.150038
1223.150653
1223.151814
1223.15165
1223.151591
1223.151628
1223.15146
1223.151354
1223.151328
1223.151435
1223.151349
1223.151427
1223.151361
1223.151408
1223.151384
1223.151922
1223.153106
1223.156258
1223.15624
1223.156249
1223.15614
1223.156121
1223.156111
1223.156075
1223.156136
1223.156153
1223.156055
1223.156094
1223.156204
1223.156285
1223.156713
1223.157491
1223.159598
1223.159617
1223.159491
1223.159662
1223.159637
1223.159696
1223.159547
1223.159713
1223.159609
1223.159574
1223.159614
1223.15969
1223.159808
1223.160032
1223.160466
1223.145833
1223.14592
1223.145919
1223.145882
1223.145847
1223.145795
1223.145749
1223.145647
1223.145776
1223.145713
1223.145611
1223.145539
1223.145522
1223.145812
1223.146198
1223.151316
1223.151425
1223.151399
1223.151396
1223.151343
1223.151295
1223.151318
1223.151316
1223.151259
1223.151263
1223.151329
1223.151375
1223.151478
1223.151465
1223.151519
1223.151907
1223.151906
1223.151968
1223.151912
1223.15197
1223.151992
1223.151955
1223.152017
1223.151867
1223.151819
1223.15192
1223.151955
1223.152028
1223.152202
1223.148305
1223.148263
1223.148318
1223.148189
1223.148098
1223.147962
1223.147931
1223.147836
1223.147801
1223.147717
1223.147836
1223.147939
1223.147998
1223.148258
1223.148273
1223.148211
1223.148095
1223.148049
1223.148059
1223.148088
1223.147946
1223.14783
1223.147764
1223.147768
1223.147869
1223.147994
1223.148244
1223.148579
1223.149445
1223.149608
1223.149388
1223.149543
1223.149507
1223.149547
1223.149392
1223.149319
1223.14948
1223.149352
1223.149447
1223.149516
1223.149706
1223.150008
1223.151162
1223.153955
1223.155625
1223.155683
1223.155756
1223.155739
1223.155786
1223.155811
1223.155685
1223.155574
1223.155638
1223.155843
1223.15587
1223.156224
1223.156778
1223.158923
1223.164347
1223.144125
1223.144124
1223.144232
1223.144254
1223.144389
1223.144504
1223.144568
1223.144661
1223.144759
1223.144622
1223.144677
1223.144795
1223.145257
1223.146432
1223.149112
1223.148732
1223.148816
1223.148828
1223.148752
1223.148676
1223.148575
1223.14865
1223.148612
1223.148534
1223.148645
1223.148641
1223.148671
1223.148865
1223.149237
1223.150131
1223.151505
1223.151505
1223.151538
1223.151641
1223.151589
1223.151527
1223.151578
1223.151582
1223.151692
1223.15173
1223.151897
1223.152008
1223.152138
1223.152073
1223.152308
1223.147333
1223.14732
1223.147264
1223.147223
1223.147255
1223.147207
1223.147149
1223.147119
1223.14716
1223.147213
1223.147284
1223.147444
1223.147551
1223.147571
1223.147791
1223.148136
1223.148131
1223.148038
1223.148078
1223.148265
1223.148156
1223.148216
1223.148285
1223.148365
1223.14839
1223.148489
1223.148454
1223.148472
1223.148537
1223.147954
1223.148108
1223.148135
1223.14816
1223.148251
1223.148312
1223.148384
1223.148402
1223.148459
1223.148552
1223.148557
1223.148601
1223.148703
1223.149127
1223.14274
1223.142818
1223.142837
1223.142984
1223.142893
1223.142881
1223.143073
1223.143108
1223.143077
1223.143054
1223.143087
1223.143195
1223.143594
1223.145004
1223.150616
1223.150561
1223.150872
1223.150846
1223.150891
1223.150975
1223.150889
1223.150752
1223.150727
1223.150578
1223.150536
1223.151013
1223.152112
1223.155896
1223.165485
1223.150268
1223.150244
1223.150364
1223.150584
1223.150508
1223.150552
1223.150335
1223.150434
1223.150342
1223.150382
1223.150477
1223.150851
1223.15309
1223.162502
1223.193413
1223.150687
1223.150784
1223.150705
1223.150703
1223.15072
1223.150735
1223.150675
1223.150591
1223.150718
1223.150548
1223.150484
1223.150733
1223.151787
1223.155549
1223.165512
1223.149593
1223.149694
1223.149756
1223.149711
1223.149567
1223.149697
1223.149653
1223.149852
1223.149737
1223.149813
1223.150001
1223.150079
1223.150348
1223.151508
1223.153969
1223.152354
1223.152309
1223.152303
1223.1523
1223.152163
1223.152165
1223.152222
1223.152259
1223.152273
1223.152395
1223.152286
1223.152283
1223.152476
1223.152785
1223.153586
1223.153376
1223.153305
1223.153388
1223.153355
1223.153432
1223.153393
1223.153263
1223.15329
1223.153331
1223.153078
1223.153089
1223.153027
1223.153055
1223.153077
1223.15329
1223.151619
1223.151698
1223.151845
1223.151931
1223.151877
1223.151811
1223.151904
1223.151865
1223.15184
1223.151942
1223.151957
1223.151903
1223.152098
1223.152278
1223.149496
1223.14957
1223.149587
1223.149495
1223.149385
1223.149523
1223.149411
1223.149337
1223.149255
1223.149171
1223.149148
1223.14921
1223.149164
1223.149669
1223.162343
1223.162553
1223.162583
1223.162774
1223.162946
1223.162917
1223.163055
1223.162964
1223.163001
1223.163069
1223.162937
1223.163117
1223.163746
1223.165946
1223.152075
1223.152195
1223.152226
1223.152183
1223.152295
1223.152246
1223.152271
1223.152348
1223.15232
1223.152336
1223.152497
1223.152947
1223.154966
1223.164518
1223.153153
1223.152967
1223.152967
1223.152772
1223.152761
1223.152774
1223.152767
1223.152725
1223.152612
1223.152824
1223.153026
1223.153922
1223.159547
1223.194715
1220.01508
1223.151767
1223.151876
1223.151795
1223.151829
1223.151861
1223.15194
1223.151992
1223.152099
1223.152096
1223.152119
1223.152362
1223.152748
1223.154979
1223.164759
1223.195895
1223.149884
1223.149718
1223.149646
1223.149638
1223.149564
1223.149642
1223.149534
1223.149586
1223.14962
1223.149788
1223.149777
1223.149816
1223.150526
1223.152833
1223.158362
1223.147529
1223.147543
1223.147583
1223.147658
1223.147817
1223.147936
1223.148018
1223.148026
1223.148128
1223.148095
1223.148104
1223.148041
1223.148179
1223.148677
1223.149797
1223.147283
1223.147388
1223.147338
1223.147436
1223.147399
1223.147434
1223.147366
1223.147482
1223.147615
1223.147658
1223.147662
1223.147748
1223.147797
1223.147972
1223.148327
1223.147924
1223.148001
1223.148081
1223.148248
1223.148352
1223.1482
1223.148228
1223.148252
1223.148246
1223.14815
1223.148126
1223.148288
1223.148272
1223.148526
1223.146023
1223.146054
1223.146099
1223.146012
1223.146149
1223.146242
1223.146196
1223.146218
1223.146317
1223.146275
1223.146264
1223.146311
1223.146594
1223.147054
1223.148845
1223.148781
1223.148976
1223.148965
1223.148801
1223.148832
1223.148868
1223.148955
1223.148906
1223.148987
1223.149208
1223.149299
1223.149828
1223.150965
1223.148473
1223.148449
1223.148462
1223.148443
1223.148464
1223.148325
1223.148371
1223.148485
1223.148462
1223.14854
1223.148736
1223.149111
1223.150146
1223.154023
1223.148101
1223.148199
1223.14823
1223.1481
1223.148135
1223.148322
1223.148428
1223.148385
1223.148146
1223.148173
1223.148287
1223.148644
1223.150905
1223.160393
1223.146602
1223.146645
1223.146746
1223.146809
1223.146777
1223.146707
1223.146778
1223.146721
1223.146875
1223.146868
1223.147011
1223.147359
1223.148476
1223.152393
1223.150248
1223.150069
1223.150237
1223.150227
1223.15043
1223.150516
1223.15051
1223.150588
1223.150639
1223.15065
1223.15079
1223.150934
1223.151312
1223.15257
1223.155065
1223.148068
1223.1481
1223.148266
1223.148226
1223.148218
1223.148285
1223.148174
1223.148177
1223.148217
1223.148287
1223.148359
1223.148323
1223.148529
1223.148957
1223.149816
1223.148045
1223.147995
1223.148078
1223.148003
1223.147859
1223.147842
1223.147747
1223.147655
1223.147673
1223.147737
1223.14785
1223.147863
1223.147865
1223.148072
1223.1482
1223.146302
1223.146343
1223.146351
1223.146439
1223.146453
1223.146404
1223.146378
1223.146341
1223.146218
1223.146132
1223.146112
1223.146184
1223.146289
1223.146404
1223.153455
1223.153565
1223.153607
1223.153718
1223.153627
1223.153587
1223.153512
1223.153727
1223.153829
1223.153741
1223.153694
1223.153721
1223.153708
1223.154088
1223.160265
1223.160235
1223.160208
1223.159889
1223.159887
1223.160014
1223.159959
1223.159888
1223.160092
1223.159982
1223.159939
1223.160091
1223.160294
1223.160718
1223.150481
1223.15052
1223.150618
1223.150636
1223.15057
1223.150533
1223.150538
1223.150498
1223.150331
1223.150409
1223.150339
1223.150638
1223.151082
1223.152333
1223.145856
1223.145905
1223.14573
1223.145799
1223.145781
1223.145738
1223.145904
1223.146114
1223.146242
1223.146284
1223.14625
1223.146384
1223.147085
1223.149289
1223.150336
1223.150245
1223.150295
1223.15028
1223.150263
1223.149953
1223.150019
1223.15015
1223.15014
1223.150189
1223.150313
1223.150498
1223.15087
1223.152068
1223.150159
1223.150145
1223.150138
1223.150116
1223.150098
1223.150027
1223.150031
1223.14995
1223.149895
1223.149898
1223.149908
1223.150069
1223.150287
1223.150686
1223.146793
1223.146634
1223.146673
1223.146524
1223.146657
1223.146652
1223.146784
1223.146864
1223.146968
1223.147046
1223.147044
1223.147255
1223.147168
1223.14723
1223.147541
1223.153453
1223.153562
1223.153543
1223.15359
1223.153693
1223.153694
1223.153856
1223.153965
1223.153908
1223.15396
1223.153943
1223.153873
1223.154011
1223.154059
1223.154255
1223.153229
1223.153057
1223.153269
1223.153254
1223.153273
1223.153276
1223.153203
1223.153325
1223.153163
1223.153215
1223.153195
1223.153248
1223.153155
1223.15319
1223.150904
1223.151084
1223.150963
1223.150936
1223.150972
1223.150928
1223.151139
1223.151023
1223.151114
1223.15106
1223.151119
1223.151186
1223.151217
1223.151273
1223.151958
1223.151934
1223.152102
1223.152259
1223.152335
1223.152301
1223.152112
1223.15186
1223.151805
1223.151755
1223.151865
1223.151892
1223.151855
1223.152072
1223.15084
1223.150713
1223.150785
1223.150964
1223.151001
1223.151006
1223.151042
1223.150987
1223.150941
1223.151056
1223.151188
1223.15132
1223.151382
1223.151921
1223.153148
1223.153191
1223.153107
1223.15307
1223.153256
1223.153218
1223.153213
1223.153218
1223.153222
1223.153288
1223.153171
1223.153203
1223.153361
1223.153814
1223.149252
1223.149211
1223.14916
1223.149469
1223.149573
1223.14971
1223.149666
1223.149519
1223.149574
1223.14941
1223.149323
1223.149398
1223.149566
1223.14977
1223.149557
1223.149653
1223.149663
1223.149487
1223.149512
1223.149572
1223.149605
1223.14955
1223.149519
1223.149297
1223.149186
1223.149372
1223.149525
1223.149838
1223.152144
1223.152069
1223.152187
1223.152075
1223.152096
1223.151964
1223.152182
1223.152141
1223.151931
1223.151867
1223.151804
1223.15161
1223.15173
1223.151854
1223.154642
1223.154649
1223.154508
1223.154698
1223.154781
1223.154825
1223.154789
1223.154722
1223.154636
1223.154604
1223.154584
1223.154628
1223.15436
1223.154557
1223.154754
1223.148697
1223.14873
1223.148815
1223.148916
1223.148765
1223.148699
1223.14881
1223.148788
1223.148753
1223.14856
1223.148487
1223.148563
1223.148688
1223.148731
1223.152205
1223.152233
1223.152356
1223.152311
1223.152317
1223.152458
1223.152414
1223.152529
1223.152562
1223.152542
1223.152536
1223.152655
1223.15291
1223.152808
1223.149998
1223.149859
1223.149719
1223.149761
1223.14974
1223.149808
1223.149699
1223.149576
1223.149422
1223.149596
1223.149492
1223.149468
1223.149614
1223.149711
1223.154322
1223.154315
1223.154432
1223.154249
1223.154213
1223.154295
1223.154237
1223.154187
1223.154027
1223.154022
1223.154013
1223.153934
1223.154129
1223.154372
1223.149581
1223.149635
1223.149752
1223.149596
1223.149733
1223.149695
1223.149597
1223.149664
1223.149549
1223.149482
1223.149606
1223.149711
1223.149732
1223.14986
1223.157142
1223.157121
1223.157163
1223.157255
1223.157227
1223.15739
1223.157416
1223.157448
1223.15744
1223.157496
1223.157562
1223.157484
1223.157536
1223.157572
1223.150406
1223.150348
1223.150321
1223.150279
1223.150148
1223.150203
1223.150301
1223.150138
1223.150142
1223.150133
1223.149941
1223.149972
1223.150168
1223.15023
1223.147475
1223.147279
1223.147155
1223.147393
1223.147474
1223.147504
1223.14752
1223.147582
1223.147646
1223.147633
1223.147613
1223.147694
1223.147864
1223.147806
1223.149942
1223.150053
1223.150027
1223.150141
1223.150126
1223.150166
1223.150117
1223.150208
1223.150174
1223.150096
1223.150152
1223.150092
1223.150113
1223.150121
)
;

boundaryField
{
    top
    {
        type            zeroGradient;
    }
    bottom
    {
        type            zeroGradient;
    }
    side-walls
    {
        type            zeroGradient;
    }
    inlet
    {
        type            zeroGradient;
    }
    outlet
    {
        type            zeroGradient;
    }
    procBoundary0to1
    {
        type            processor;
        value           nonuniform List<scalar> 
97
(
1223.152607
1223.149787
1223.151594
1223.152663
1223.154476
1223.155075
1223.144989
1223.145579
1223.150788
1223.150913
1223.149787
1223.149787
1223.155625
1223.148387
1223.155498
1223.151568
1223.154604
1223.158217
1223.16114
1223.14617
1223.151735
1223.152313
1223.148387
1223.148387
1223.150756
1223.147705
1223.15696
1223.168448
1223.151857
1223.151512
1223.152806
1223.148024
1223.148843
1223.150111
1223.147705
1223.147705
1223.172136
1223.195552
1223.198394
1223.171994
1223.157061
1223.154452
1223.153741
1223.152424
1223.150933
1223.171593
1223.195552
1223.195552
1219.89936
1223.191734
1223.201011
1223.162058
1223.162465
1223.151178
1223.148796
1223.148798
1223.147753
1223.153533
1223.163506
1223.191734
1223.162058
1223.162058
1223.157823
1223.151673
1223.150877
1223.148549
1223.146631
1223.154379
1223.161534
1223.154968
1223.154705
1223.155061
1223.151673
1223.151673
1223.148192
1223.152086
1223.154416
1223.153122
1223.151258
1223.152427
1223.152543
1223.154915
1223.150453
1223.150193
1223.152086
1223.152086
1223.154977
1223.150136
1223.148901
1223.152871
1223.149735
1223.154753
1223.150218
1223.157788
1223.150431
1223.147978
1223.150136
)
;
    }
}


// ************************************************************************* //
