/*--------------------------------*- C++ -*----------------------------------*\
| =========                 |                                                 |
| \\      /  F ield         | OpenFOAM: The Open Source CFD Toolbox           |
|  \\    /   O peration     | Version:  4.x                                   |
|   \\  /    A nd           | Web:      www.OpenFOAM.org                      |
|    \\/     M anipulation  |                                                 |
\*---------------------------------------------------------------------------*/
FoamFile
{
    version     2.0;
    format      ascii;
    class       volVectorField;
    location    "9000";
    object      U;
}
// * * * * * * * * * * * * * * * * * * * * * * * * * * * * * * * * * * * * * //

dimensions      [0 1 -1 0 0 0 0];

internalField   nonuniform List<vector> 
1175
(
(0.01100000012 -5.374584313e-10 -7.700947257e-10)
(0.01100000185 -1.863565645e-10 6.321541604e-10)
(0.01100000075 -1.242739831e-09 -1.938050779e-09)
(0.01099999873 -1.9599639e-09 1.60718166e-09)
(0.01100000109 -3.220298198e-10 7.243921709e-10)
(0.0110000029 -1.60820736e-09 -1.134942599e-09)
(0.01100000378 -2.29568084e-09 -2.07672271e-09)
(0.01100000621 -1.214278939e-09 -2.345512663e-09)
(0.01100001094 9.375282737e-10 -3.83596544e-09)
(0.01100002082 4.05193609e-10 -4.744209823e-09)
(0.01100003532 -5.422084627e-09 -6.052309357e-09)
(0.0110000507 -4.568347928e-09 -6.951547516e-09)
(0.01100007887 -8.066623882e-09 -7.961614811e-09)
(0.01100010404 -6.731330658e-09 -6.841363332e-09)
(0.01100015367 -1.231176934e-08 -1.270849443e-08)
(0.01099999929 2.110614307e-10 -4.221108916e-10)
(0.01100000186 -7.864362325e-10 -1.20860699e-09)
(0.01100000145 -6.966262331e-11 1.08334473e-10)
(0.01099999965 -1.123785166e-09 -1.25070846e-09)
(0.01100000093 -8.108955642e-10 -9.690815845e-10)
(0.01100000147 -4.450601664e-10 -1.444957161e-09)
(0.0110000041 -1.427756568e-09 -7.785834965e-10)
(0.01100000547 -3.289845329e-09 -1.421684021e-09)
(0.01100000988 -4.332313726e-09 -3.709913348e-09)
(0.01100001746 -6.336966623e-09 -4.447302777e-09)
(0.01100003233 -1.155579552e-08 -3.993595978e-09)
(0.01100004736 -1.744948326e-08 -7.677249359e-09)
(0.01100007696 -2.446104331e-08 -1.029398366e-08)
(0.01100009596 -2.932152237e-08 -7.377277312e-09)
(0.01100015558 -5.308585323e-08 -2.081074567e-08)
(0.01099999948 1.242412884e-09 -9.493973467e-10)
(0.01099999893 1.265672427e-09 7.510083638e-10)
(0.010999999 2.590547822e-10 1.626947858e-09)
(0.01100000034 3.04641321e-10 2.957255185e-09)
(0.01100000065 -1.115695477e-09 8.230916077e-10)
(0.0110000004 -1.127141848e-09 -2.220524198e-09)
(0.01099999849 -1.423313634e-09 9.35535442e-10)
(0.01100000538 -2.852175743e-09 -3.185221788e-09)
(0.01100000859 -4.484480694e-09 -5.001656232e-09)
(0.01100001094 -7.13092129e-09 -5.531077346e-09)
(0.0110000223 -9.964088891e-09 -7.643432453e-09)
(0.01100003222 -1.77460378e-08 -1.303759985e-08)
(0.01100006571 -2.866503387e-08 -1.248509606e-08)
(0.01100007347 -2.763552414e-08 -1.635670631e-08)
(0.01100015874 -6.503298356e-08 -4.306460861e-08)
(0.01100000001 -2.940815878e-10 -1.076673178e-10)
(0.01100000139 -1.581387385e-10 2.69258622e-09)
(0.01099999947 -8.687930216e-10 1.624032759e-09)
(0.01100000023 -3.083148397e-10 -5.774553726e-10)
(0.01100000122 -5.700916945e-10 -4.145162693e-10)
(0.01099999891 -2.900894221e-09 -8.243952095e-10)
(0.01100000084 -1.786724873e-09 -1.118722303e-09)
(0.01100000527 -3.233400065e-09 -2.578248235e-09)
(0.01100000501 -5.328834917e-09 -3.380738759e-09)
(0.01100001091 -9.054712557e-09 -5.321009706e-09)
(0.01100001743 -1.186022517e-08 -5.884399253e-09)
(0.01100002755 -2.477415174e-08 -1.128934192e-08)
(0.01100006413 -3.912161907e-08 -1.330853854e-08)
(0.01100006131 -5.479971121e-08 -1.675921629e-08)
(0.01100017105 -1.072372659e-07 -5.342643838e-08)
(0.01100000036 -6.081629249e-10 -7.447424868e-10)
(0.01100000073 -1.348583005e-10 5.506256008e-10)
(0.01100000124 -7.747489107e-10 9.487514136e-10)
(0.01100000078 -1.257112275e-09 2.670970029e-10)
(0.01100000082 -6.907768076e-10 2.056459866e-09)
(0.01099999807 1.666627511e-10 -1.949170354e-09)
(0.01100000108 -1.609295793e-09 -6.81949431e-10)
(0.01100000211 -8.535930964e-10 -3.655088477e-09)
(0.01099999977 8.729588056e-10 -5.2318586e-09)
(0.01100000348 2.017805136e-09 -8.281483342e-09)
(0.01100000374 3.198143362e-10 -1.139601146e-08)
(0.01100000425 1.775771489e-10 -2.620054052e-08)
(0.01100003273 1.256623003e-09 -3.217993003e-08)
(0.01100000779 4.64439207e-10 -6.054161512e-08)
(0.01100019573 4.824202607e-10 -1.478089821e-07)
(0.01099999954 2.954208902e-10 2.90801737e-10)
(0.01100000167 2.32981981e-11 9.106574256e-10)
(0.010999999 1.235933461e-09 4.87061334e-10)
(0.01100000122 5.832540611e-10 -8.037282085e-10)
(0.01099999968 1.125433775e-09 6.70464533e-10)
(0.01099999778 9.439294949e-10 -1.354886695e-09)
(0.01100000273 1.473284102e-09 1.180097055e-10)
(0.01100000451 3.593145451e-09 -1.475602338e-09)
(0.01100000462 5.494565807e-09 -2.22179107e-09)
(0.01100000822 9.525341668e-09 -4.015755252e-09)
(0.01100002015 1.527918848e-08 -5.480209614e-09)
(0.01100002755 2.816963593e-08 -1.216050011e-08)
(0.01100006315 4.102470772e-08 -1.340715191e-08)
(0.01100006048 5.523852213e-08 -1.496163575e-08)
(0.01100017175 1.078071986e-07 -5.365946655e-08)
(0.01100000038 -1.011136002e-09 9.886091807e-10)
(0.01100000091 -8.566386798e-10 2.335565466e-10)
(0.01099999869 -2.438290639e-10 4.635268531e-10)
(0.01100000046 2.082470364e-10 -1.776241241e-09)
(0.01100000067 7.327068024e-10 6.021460727e-10)
(0.01099999879 9.028438771e-10 7.043225801e-10)
(0.01100000327 2.77433476e-09 1.331543515e-10)
(0.01100000449 4.286775206e-09 -2.822363187e-09)
(0.01100000918 6.991203602e-09 -6.712339156e-10)
(0.01100001255 1.213877722e-08 -3.682166267e-09)
(0.01100002236 1.418928938e-08 -6.141808971e-09)
(0.01100003119 1.956816484e-08 -1.108228948e-08)
(0.01100006369 2.867247469e-08 -1.519867099e-08)
(0.01100007661 2.938097286e-08 -1.398723118e-08)
(0.01100015904 6.332922218e-08 -4.247491685e-08)
(0.01099999985 -1.079289095e-09 1.445232307e-09)
(0.01100000075 5.251479869e-10 2.142008872e-09)
(0.01100000111 7.615183073e-11 4.707338783e-10)
(0.011000003 1.146711306e-09 -1.642865972e-09)
(0.01099999963 1.051907623e-09 1.121921214e-10)
(0.01100000233 1.535008977e-09 9.491509055e-10)
(0.01100000579 3.465185622e-09 -2.16579103e-10)
(0.01100000778 3.851147975e-09 -1.760500744e-09)
(0.01100001198 4.506818496e-09 -2.666078461e-09)
(0.01100001856 7.576174191e-09 -3.802869945e-09)
(0.01100003067 1.302148788e-08 -5.523248517e-09)
(0.01100004459 1.859148662e-08 -6.173594226e-09)
(0.01100007624 2.749592522e-08 -1.171068025e-08)
(0.0110000941 2.831336567e-08 -7.339867981e-09)
(0.0110001516 5.199053369e-08 -1.827538721e-08)
(0.0110000006 -4.199646183e-10 9.783701959e-10)
(0.01100000163 -4.431429078e-10 4.024225272e-10)
(0.01099999999 8.873228362e-11 -3.071113561e-09)
(0.01100000105 8.093158459e-10 -7.355550681e-10)
(0.0110000033 7.875905542e-10 2.960674513e-09)
(0.01100000117 9.91593117e-10 7.650509236e-10)
(0.01100000587 1.04711674e-10 2.320825477e-09)
(0.01100000914 2.626883405e-09 -8.83316462e-10)
(0.01100001361 2.297176101e-09 -2.758687935e-09)
(0.01100002211 3.457127241e-09 1.886955812e-09)
(0.01100003313 3.694383938e-09 -2.475363931e-09)
(0.01100005129 4.89853178e-09 -6.071944294e-09)
(0.01100008077 8.052149217e-09 -1.086724666e-08)
(0.01100010139 7.907312029e-09 -6.827721507e-09)
(0.01100014985 1.270777172e-08 -1.236437518e-08)
(0.01100000086 9.889189376e-10 5.411549541e-10)
(0.01100000223 1.130210279e-09 -2.682289147e-10)
(0.01100000056 2.494490634e-09 6.35800876e-10)
(0.01099999998 -1.571941992e-09 8.106053474e-10)
(0.01099999969 -8.992168564e-10 2.978223206e-10)
(0.01100000046 -6.693854893e-10 -4.598192764e-10)
(0.01100000447 1.996668388e-10 -2.170749541e-09)
(0.01100000682 -1.054580647e-09 -1.98913945e-09)
(0.01100001044 -2.005873734e-09 -3.932933754e-09)
(0.01100001479 -2.956222197e-09 -7.852477351e-09)
(0.01100003073 -4.890041188e-09 -1.090427189e-08)
(0.01100004588 -5.397055112e-09 -1.678125073e-08)
(0.01100007896 -8.612294316e-09 -2.90380253e-08)
(0.01100009922 -5.983363944e-09 -2.997504921e-08)
(0.01099999939 5.024449001e-11 4.973306571e-10)
(0.01100000169 2.346544192e-10 4.067675661e-10)
(0.01100000002 3.134479462e-10 2.622910142e-11)
(0.01099999949 8.604813888e-10 -8.12386516e-10)
(0.01099999988 -1.579894348e-09 -1.236880479e-10)
(0.01100000114 2.920610041e-10 -1.082368807e-09)
(0.01100000381 -5.128537858e-10 -2.03073396e-09)
(0.0110000035 -2.797415666e-09 -3.913861369e-09)
(0.01100000916 -3.944619997e-09 -6.208257603e-09)
(0.01100001559 -8.673638628e-09 -9.135759417e-09)
(0.01100002815 -1.365275894e-08 -1.192274315e-08)
(0.01100003827 -2.20209714e-08 -2.348508703e-08)
(0.0110000762 -3.114527711e-08 -3.322019658e-08)
(0.01100008729 -3.710649436e-08 -3.819075599e-08)
(0.01100016086 -8.151408282e-08 -8.423627281e-08)
(0.01100000224 1.037110635e-10 -4.01263392e-10)
(0.0110000031 1.097779481e-09 -1.75441818e-10)
(0.01099999914 -9.034854405e-10 4.897296058e-10)
(0.01099999812 -3.481587666e-10 -8.115989311e-10)
(0.0110000013 6.93750489e-10 -2.056253073e-09)
(0.01100000122 -1.057451998e-09 -1.515976403e-09)
(0.01100000008 -1.196961177e-09 -2.619746056e-09)
(0.01100000177 -4.102534253e-09 -4.237445514e-09)
(0.01100000256 -4.771115332e-09 -8.220582304e-09)
(0.01100000583 -9.528872522e-09 -1.267189168e-08)
(0.01100001411 -1.222812629e-08 -1.865691291e-08)
(0.0110000229 -2.238343875e-08 -3.858454377e-08)
(0.01100005687 -3.234757501e-08 -5.539750256e-08)
(0.01100004553 -3.653477416e-08 -7.665422126e-08)
(0.01100017253 -9.730117932e-08 -1.826859051e-07)
(0.01099999935 8.886532899e-10 1.118375679e-10)
(0.01099999857 -1.43580046e-09 7.290729611e-11)
(0.01099999988 -1.609144927e-09 -5.818639203e-10)
(0.01099999987 7.519047499e-10 -9.734187285e-10)
(0.01100000037 -1.738747304e-11 -2.052099068e-09)
(0.01100000022 -1.345066244e-09 -1.308835628e-09)
(0.01099999917 -2.706407278e-09 -1.918013129e-09)
(0.01100000207 -3.233023461e-09 -5.216029554e-09)
(0.01099999959 -5.248082872e-09 -7.143538852e-09)
(0.01100000772 -1.048533354e-08 -1.464347894e-08)
(0.01100000877 -1.545377098e-08 -1.99720785e-08)
(0.01100002074 -3.892835467e-08 -4.910836329e-08)
(0.01100005431 -5.623598247e-08 -5.709536685e-08)
(0.01100002857 -9.795461465e-08 -9.767316521e-08)
(0.01100018324 -2.147468473e-07 -2.685803567e-07)
(0.01100000063 -2.580121983e-10 -5.458991763e-10)
(0.01099999908 -2.709812011e-10 -2.126712099e-10)
(0.01099999812 -7.020892423e-10 -6.533997186e-11)
(0.01100000153 -1.044046327e-09 -7.683247631e-10)
(0.01100000048 4.630407474e-10 -8.170240418e-10)
(0.01099999781 -1.222766177e-09 -9.341482082e-10)
(0.01099999729 -5.767901368e-10 -2.886223709e-09)
(0.01099999989 -3.492591022e-11 -4.815618393e-09)
(0.01099999363 -5.587744176e-10 -8.219411783e-09)
(0.01099999721 1.636799499e-09 -2.053992279e-08)
(0.01099998553 1.970774369e-09 -2.979949581e-08)
(0.01099997938 -2.502243562e-10 -8.98199705e-08)
(0.01099998219 1.610944424e-12 -1.203663647e-07)
(0.01099990301 4.421445798e-10 -2.978105706e-07)
(0.01100024538 -5.809446829e-10 -7.023691598e-07)
(0.01099999984 -1.470950116e-10 2.11917297e-10)
(0.010999998 1.201189234e-09 6.391105497e-10)
(0.01100000035 9.135308584e-10 4.290149964e-10)
(0.01100000066 9.551127019e-10 -6.749587389e-10)
(0.01099999953 1.689475946e-09 1.696270468e-10)
(0.01099999843 1.858882692e-09 -2.124116336e-10)
(0.01100000009 2.346324412e-09 -5.293962854e-10)
(0.01100000069 3.553243648e-09 -3.959659787e-09)
(0.01100000352 6.073930043e-09 -6.515646743e-09)
(0.01100000374 1.22130464e-08 -1.40016496e-08)
(0.01100001019 1.652429679e-08 -1.816693415e-08)
(0.01100002075 3.925093897e-08 -4.940510243e-08)
(0.01100005467 5.694119897e-08 -5.731010101e-08)
(0.01100002994 9.851554628e-08 -9.909923226e-08)
(0.01100018485 2.145408234e-07 -2.68671503e-07)
(0.01099999965 -2.484161743e-10 1.202203637e-09)
(0.01099999901 4.374635406e-11 3.781436836e-10)
(0.01099999784 -9.403953503e-11 -1.642454572e-10)
(0.01100000062 -9.329604127e-10 9.348689622e-10)
(0.01099999974 3.216828912e-10 -5.313564306e-10)
(0.0110000002 1.739448952e-09 -1.224437744e-09)
(0.01099999997 3.135554216e-09 -6.770107384e-10)
(0.01100000122 4.614367365e-09 -4.084819518e-09)
(0.01100000588 7.624921556e-09 -5.29932008e-09)
(0.01100000638 1.216165546e-08 -1.202377937e-08)
(0.01100001384 1.458969419e-08 -1.738324367e-08)
(0.01100002166 2.617644192e-08 -3.762169068e-08)
(0.01100005517 3.353311712e-08 -5.509245894e-08)
(0.01100004731 3.567667967e-08 -7.75669639e-08)
(0.01100016985 9.987431738e-08 -1.851033948e-07)
(0.01100000009 -8.039677451e-10 1.731517511e-09)
(0.01100000102 -2.080356585e-10 8.439110725e-10)
(0.01100000217 6.484716961e-10 3.321508031e-10)
(0.01100000339 3.603061205e-10 6.819641356e-10)
(0.01100000129 5.051935073e-10 -9.807430194e-10)
(0.01100000272 1.062578937e-09 -8.751140063e-10)
(0.01100000334 6.858223419e-10 -2.488077167e-09)
(0.01100000468 3.423657925e-09 -2.424059342e-09)
(0.01100001048 4.782760329e-09 -6.470299941e-09)
(0.01100001478 1.030193686e-08 -1.02098235e-08)
(0.01100002667 1.334057699e-08 -1.405076628e-08)
(0.01100003761 2.205035643e-08 -2.16141369e-08)
(0.01100007147 3.385448855e-08 -3.342177565e-08)
(0.01100008684 3.910629804e-08 -3.784866703e-08)
(0.01100016122 8.251096569e-08 -8.287103832e-08)
(0.01099999978 9.001853695e-10 1.743270301e-09)
(0.0110000018 2.765153136e-10 4.132518755e-10)
(0.01100000047 1.995527099e-09 1.29329482e-09)
(0.01099999947 7.06760272e-10 -9.349593854e-10)
(0.0110000019 5.819302446e-10 -2.753420309e-10)
(0.01100000155 1.034493827e-09 7.252179118e-10)
(0.01100000377 2.510533311e-09 -7.761095707e-10)
(0.01100000658 1.273523169e-09 -3.309543865e-09)
(0.01100001202 1.943536279e-09 -5.305462744e-09)
(0.01100001667 2.793146947e-09 -8.059730199e-09)
(0.01100002998 4.530930333e-09 -1.218819294e-08)
(0.01100004377 6.49829451e-09 -1.71372403e-08)
(0.01100007865 9.51157002e-09 -2.702619942e-08)
(0.01100009511 7.209129471e-09 -2.67092561e-08)
(0.01100015251 1.922851795e-08 -5.220865604e-08)
(0.01099999959 -3.052119804e-10 1.724887135e-09)
(0.01100000045 -1.342949843e-09 1.982629444e-09)
(0.01100000098 -9.409535434e-10 9.191390794e-10)
(0.01100000054 -1.696503211e-09 -7.539136606e-11)
(0.01099999943 -8.724142687e-10 -7.494610403e-10)
(0.0110000021 -5.114705251e-10 -5.913558511e-10)
(0.0110000013 -3.02043788e-09 -7.019316109e-10)
(0.0110000042 1.870402076e-10 -2.882096105e-09)
(0.01100000607 -7.075074659e-10 -5.92211417e-09)
(0.01100001055 -3.510019769e-09 -8.770275223e-09)
(0.01100002327 -5.03774239e-09 -1.296913453e-08)
(0.01100002846 -7.616354668e-09 -2.015817099e-08)
(0.01100006499 -1.397479246e-08 -2.87260514e-08)
(0.01100007692 -1.379450421e-08 -2.753953862e-08)
(0.01099999872 -2.39577949e-10 5.095072291e-10)
(0.01100000237 1.852046244e-10 1.312651581e-10)
(0.01100000246 4.480005732e-10 9.600840072e-11)
(0.01099999992 -6.900559758e-10 1.71798537e-09)
(0.01099999962 -8.258702413e-10 -2.302359975e-12)
(0.01099999971 -7.054307042e-11 -1.239585519e-10)
(0.01100000079 -1.177592289e-09 -1.702834844e-09)
(0.01100000148 -4.766191489e-09 -4.868276729e-09)
(0.01100000483 -5.284089006e-09 -5.649509396e-09)
(0.0110000069 -1.223552192e-08 -1.054811431e-08)
(0.01100001337 -1.657517749e-08 -1.40985428e-08)
(0.01100002207 -3.513877178e-08 -2.571392374e-08)
(0.01100005707 -5.156125771e-08 -3.361474498e-08)
(0.01100004886 -7.813910822e-08 -3.704787215e-08)
(0.01100000029 3.065094808e-10 3.797400056e-10)
(0.01100000338 7.1354441e-11 2.351548248e-10)
(0.01099999986 -4.940814944e-10 -8.091801845e-10)
(0.0109999986 1.496387355e-10 -5.898088257e-10)
(0.01099999987 -2.210419944e-09 -1.482629343e-09)
(0.01099999974 -3.009016781e-10 -3.379591062e-09)
(0.01099999751 -7.921515518e-10 -2.752408415e-09)
(0.01099999812 -3.665923804e-09 -6.041329537e-09)
(0.01099999594 -5.872974758e-09 -9.000178219e-09)
(0.01099999779 -1.43555652e-08 -1.733886395e-08)
(0.0109999936 -1.785693546e-08 -1.978055157e-08)
(0.01099999231 -4.391053047e-08 -4.713346303e-08)
(0.01100000965 -5.245790774e-08 -5.318543142e-08)
(0.01099995672 -8.952436614e-08 -9.282079576e-08)
(0.01100018627 -2.517317886e-07 -2.576328437e-07)
(0.0110000016 7.076827936e-11 -2.021236247e-09)
(0.01100000011 -6.230892193e-10 -2.222411122e-09)
(0.01100000047 -8.211590957e-10 1.008243248e-09)
(0.01100000025 2.887518647e-10 -8.363292852e-10)
(0.01099999898 2.895788153e-10 -1.294945651e-09)
(0.01099999942 -1.597242117e-09 -3.315012503e-09)
(0.01099999575 -2.542199825e-09 -2.996643502e-09)
(0.01099999665 -3.769828404e-09 -7.480722589e-09)
(0.01099999208 -5.573490474e-09 -9.519574589e-09)
(0.01099999595 -1.627244168e-08 -2.022550366e-08)
(0.01099998126 -2.446386582e-08 -1.583403002e-08)
(0.01099999265 -7.937977202e-08 -5.773929389e-08)
(0.01099998071 -1.063793662e-07 -2.151100715e-08)
(0.0109999087 -2.788343533e-07 -8.961707438e-08)
(0.01100014861 -6.372815993e-07 -3.313758825e-07)
(0.01100000062 1.041468075e-09 1.193404033e-10)
(0.01100000243 1.621273411e-10 -5.241272459e-10)
(0.01100000034 3.373683324e-10 2.551270006e-09)
(0.01099999977 -1.904469123e-09 5.728357288e-10)
(0.01099999979 1.723520009e-09 -2.080605331e-09)
(0.01100000028 5.842791878e-10 -2.748214578e-09)
(0.01099999566 3.480239338e-10 -1.778465229e-09)
(0.01099999328 8.713026539e-10 -1.034476266e-08)
(0.0109999797 1.00204397e-09 -1.166551837e-08)
(0.0109999786 1.009387077e-09 -3.269184269e-08)
(0.0109999268 3.156623011e-10 -3.556783919e-08)
(0.01099991141 1.688540613e-09 -1.373308922e-07)
(0.01099975699 1.321763273e-10 -1.15638532e-07)
(0.01099954384 6.359831064e-10 -5.581220749e-07)
(0.01100017905 1.325201654e-09 -1.280578409e-06)
(0.01099999997 1.901333815e-09 1.320271912e-09)
(0.01099999933 2.203918651e-09 9.294476832e-10)
(0.01099999857 2.034399656e-09 1.012464695e-09)
(0.01099999956 1.065958996e-10 1.049366788e-09)
(0.01100000029 1.263429242e-09 -2.571411774e-10)
(0.0109999979 7.326892793e-10 -7.99238999e-10)
(0.0109999963 2.427363669e-09 -1.259875162e-09)
(0.01099999683 4.157890474e-09 -5.394480197e-09)
(0.01099999513 7.339318947e-09 -8.398402423e-09)
(0.01099999416 1.895604234e-08 -2.21282515e-08)
(0.01099998001 2.681560878e-08 -1.672865791e-08)
(0.01099998964 7.871293821e-08 -5.738155283e-08)
(0.01099998108 1.076764564e-07 -2.243616484e-08)
(0.01099990991 2.793533577e-07 -8.856569163e-08)
(0.01100015033 6.396590047e-07 -3.315735174e-07)
(0.01099999971 -9.952755268e-10 1.421317972e-10)
(0.01100000048 9.901569042e-10 3.378543514e-10)
(0.01099999946 -6.5635772e-10 -9.372628889e-10)
(0.01100000119 3.227663451e-09 -6.168624232e-10)
(0.01100000007 1.366592049e-09 -4.904176848e-10)
(0.01099999914 2.006391463e-09 -1.517697958e-09)
(0.01099999859 2.712495066e-09 -3.429643208e-09)
(0.01099999977 4.933775717e-09 -5.614974233e-09)
(0.0109999972 5.523219542e-09 -7.510684737e-09)
(0.01099999774 1.500607493e-08 -1.683396037e-08)
(0.01099999452 1.783350237e-08 -1.922950055e-08)
(0.01099999178 4.514771878e-08 -4.725056082e-08)
(0.01100001211 5.179388019e-08 -5.307366668e-08)
(0.01099995646 9.096088882e-08 -9.324304339e-08)
(0.01100018666 2.533580916e-07 -2.544212382e-07)
(0.01099999961 -5.507176195e-11 8.743043642e-10)
(0.01099999993 -8.55450002e-10 2.286307577e-09)
(0.01100000044 7.033063112e-10 2.076681625e-09)
(0.01100000081 -5.149585488e-11 2.353129976e-09)
(0.01100000082 9.223041654e-10 1.986490289e-09)
(0.01099999962 2.970901513e-09 -1.137384023e-09)
(0.01100000131 1.411316897e-09 -3.907541094e-10)
(0.01100000121 4.204514665e-09 -4.741374495e-09)
(0.01100000409 6.113476361e-09 -5.814091412e-09)
(0.01100000849 1.370752745e-08 -1.299061135e-08)
(0.01100001412 1.984735927e-08 -1.494648216e-08)
(0.01100002321 3.864268559e-08 -2.760749927e-08)
(0.01100005909 5.432492599e-08 -3.42091761e-08)
(0.011000046 7.956103301e-08 -3.704395031e-08)
(0.01100016987 1.842401984e-07 -9.980419214e-08)
(0.01100000021 -5.113015337e-10 1.498628986e-09)
(0.0110000003 5.939590806e-10 2.750613111e-09)
(0.0110000005 5.726181014e-10 1.496092477e-10)
(0.01099999823 -4.335008654e-10 2.199015814e-09)
(0.01100000316 4.871803326e-10 1.196599365e-09)
(0.01100000015 2.91168071e-10 -8.453085462e-10)
(0.01100000153 1.692628544e-09 -3.27109996e-09)
(0.01100000251 2.538736556e-09 -2.335513323e-09)
(0.01100000942 3.79533494e-09 -6.974966186e-09)
(0.01100001394 4.782159375e-09 -1.063942905e-08)
(0.0110000206 6.313708576e-09 -1.322434951e-08)
(0.0110000308 9.566629737e-09 -1.990481833e-08)
(0.01100006883 1.454311278e-08 -2.906094148e-08)
(0.01100007285 1.561628771e-08 -3.002658261e-08)
(0.01100015793 4.155234731e-08 -6.286670446e-08)
(0.01100000014 3.243116606e-10 -1.475779098e-10)
(0.01100000151 -2.494755226e-09 -7.647679885e-10)
(0.0109999989 -1.368031712e-09 1.484401412e-09)
(0.01099999764 1.220131422e-09 -7.074560834e-11)
(0.01100000154 -9.89924913e-10 -2.750650204e-10)
(0.01099999993 7.563503311e-10 -1.343986565e-09)
(0.01100000041 -4.925043423e-11 -1.136356512e-09)
(0.0110000006 -1.517958492e-09 -3.19204348e-09)
(0.01100000669 -3.301166041e-09 -4.077245959e-09)
(0.01100000896 -6.039546291e-09 -7.712276008e-09)
(0.01100001991 -6.189215778e-09 -1.218883022e-08)
(0.01100002681 -1.194504699e-08 -2.513025056e-08)
(0.01100006325 -1.089751303e-08 -3.715786128e-08)
(0.01100006391 -1.434833039e-08 -5.475338759e-08)
(0.01099999953 -7.271214826e-10 5.610475296e-11)
(0.01100000234 -1.367500703e-09 5.928393602e-10)
(0.01100000141 2.759389082e-10 1.02710285e-10)
(0.01099999936 -2.684429947e-10 -1.537379439e-09)
(0.01099999928 9.238650524e-11 -3.960603846e-10)
(0.01099999905 -2.30780574e-09 -5.3270984e-10)
(0.01099999947 -3.230997954e-09 2.519382896e-12)
(0.01099999898 -4.866987913e-09 -2.778176685e-09)
(0.01100000035 -7.577046054e-09 -5.004496801e-09)
(0.0110000061 -1.457117328e-08 -1.044293301e-08)
(0.01100001047 -1.837465813e-08 -1.634076444e-08)
(0.01100001837 -4.719514454e-08 -3.897501422e-08)
(0.01100005306 -5.517163163e-08 -5.620118811e-08)
(0.01100002988 -9.989469559e-08 -9.831248466e-08)
(0.01100000011 -1.786335404e-09 -3.550600466e-11)
(0.01100000257 -4.123104056e-10 2.806504789e-10)
(0.01100000059 -1.62773803e-09 -5.393583513e-10)
(0.01099999974 6.461238887e-11 9.445231474e-10)
(0.01099999956 -1.489498035e-09 2.303700028e-09)
(0.0109999973 -1.779756694e-09 -2.020998327e-09)
(0.01099999769 -1.696657929e-09 -3.122270638e-09)
(0.01099999772 -5.192933863e-09 -5.138641593e-09)
(0.01099999193 -6.048762373e-09 -6.210955668e-09)
(0.0109999957 -2.022841462e-08 -1.791532984e-08)
(0.01099998078 -1.651380013e-08 -2.514510167e-08)
(0.01099999012 -5.533881476e-08 -7.874653876e-08)
(0.01099997896 -2.009242759e-08 -1.082696535e-07)
(0.01099991018 -8.797088056e-08 -2.796805817e-07)
(0.01100000099 5.177503474e-10 2.580954754e-09)
(0.01100000044 -6.553869034e-10 9.100873416e-10)
(0.01100000142 4.588593796e-10 2.193580195e-10)
(0.01099999989 -1.110883358e-09 1.415041303e-09)
(0.01100000003 -5.297718792e-10 -2.936195187e-10)
(0.01100000035 -1.307687798e-09 -9.536943704e-10)
(0.01099999456 -2.623000263e-09 -1.554434791e-09)
(0.01099999543 -5.719719328e-09 -5.698918125e-09)
(0.01099998563 -7.417967088e-09 -8.433545496e-09)
(0.0109999992 -2.426260032e-08 -2.771023447e-08)
(0.01099996673 -3.091064843e-08 -3.21381651e-08)
(0.0110000297 -1.286252576e-07 -1.30193122e-07)
(0.01099994313 -1.194783394e-07 -1.210742896e-07)
(0.011000013 -5.633267862e-07 -5.646505822e-07)
(0.01099958028 -1.240906025e-06 -1.242587133e-06)
(0.01100000105 2.001925037e-09 6.291806138e-10)
(0.01100000413 1.52519747e-09 2.663317408e-09)
(0.01099999856 2.730739016e-10 -3.240777543e-10)
(0.01100000129 -3.113542561e-10 1.786569351e-09)
(0.01099999853 1.047070308e-09 1.133147337e-09)
(0.01099999922 2.265583757e-09 -1.384515098e-09)
(0.01099999097 2.276665787e-09 -3.094028933e-09)
(0.01099999052 1.752177854e-09 -6.157404042e-09)
(0.01099996765 1.813460173e-09 -1.228330575e-08)
(0.01099996959 1.383057323e-09 -4.417578405e-08)
(0.01099986638 6.040545871e-13 -6.042456707e-08)
(0.01099991595 4.87553377e-10 -3.17165399e-07)
(0.01099937981 -7.511959417e-10 -4.096656415e-07)
(0.01099946156 6.339071823e-10 -3.011255142e-06)
(0.01099807239 4.370565038e-10 -6.221598012e-06)
(0.01099999942 1.870241165e-09 2.850288764e-10)
(0.0110000009 4.092364579e-10 1.04757299e-09)
(0.01099999846 6.23432058e-10 -8.954372804e-10)
(0.01100000101 1.261595883e-09 6.36252027e-10)
(0.01099999853 2.621443241e-09 3.912871115e-10)
(0.01099999817 1.144881718e-09 3.433665669e-10)
(0.01099999405 2.345891299e-09 -2.024008205e-09)
(0.01099999458 6.400087378e-09 -5.50904207e-09)
(0.01099998614 8.687551025e-09 -8.521373906e-09)
(0.01099999581 2.686365096e-08 -2.571136705e-08)
(0.01099996668 3.254246818e-08 -3.234066373e-08)
(0.0110000267 1.290463547e-07 -1.29254933e-07)
(0.01099994143 1.194840854e-07 -1.214170823e-07)
(0.01100001306 5.632905956e-07 -5.646057171e-07)
(0.01099958301 1.242179063e-06 -1.241646431e-06)
(0.01099999994 -9.873545687e-10 -1.573695173e-09)
(0.01100000027 -1.621549538e-10 -5.66923136e-11)
(0.01100000149 -1.183967921e-10 1.241965528e-09)
(0.01100000105 2.601246858e-09 1.796413573e-09)
(0.01099999754 1.420200582e-09 -2.932119738e-10)
(0.01100000009 1.976961322e-09 -1.01422228e-09)
(0.01099999632 1.736031271e-09 -1.598220231e-09)
(0.01099999867 5.196730201e-09 -4.187681587e-09)
(0.010999991 8.366189207e-09 -6.905658354e-09)
(0.01099999313 1.911630838e-08 -1.78921952e-08)
(0.01099998254 1.758446902e-08 -2.597731356e-08)
(0.01099998943 5.619349776e-08 -7.79424691e-08)
(0.01099998169 2.400354711e-08 -1.07181003e-07)
(0.01099990966 8.939629896e-08 -2.787759245e-07)
(0.01100014747 3.305340995e-07 -6.391627528e-07)
(0.01100000066 -3.068974116e-10 5.243834531e-10)
(0.0109999998 1.559315566e-10 -6.58344502e-11)
(0.01100000191 1.586647666e-09 1.028808636e-09)
(0.01100000073 1.178619619e-09 -6.123559756e-10)
(0.01099999821 2.183058822e-09 -4.057557824e-10)
(0.01099999895 1.157610044e-09 -5.790287762e-10)
(0.01099999794 1.758036203e-09 -1.40958997e-09)
(0.01100000111 5.120766339e-09 -2.919028446e-09)
(0.01099999943 5.676308296e-09 -5.128896441e-09)
(0.01100000631 1.458840714e-08 -1.019879529e-08)
(0.01100001036 1.917746772e-08 -1.635648925e-08)
(0.01100001898 4.83547359e-08 -4.025993497e-08)
(0.01100005464 5.71619654e-08 -5.498217786e-08)
(0.011000026 1.001797936e-07 -9.862967383e-08)
(0.01100018403 2.705989672e-07 -2.165217259e-07)
(0.01100000042 2.66516831e-11 -1.869734567e-10)
(0.01100000013 1.672568486e-09 9.425928261e-10)
(0.01100000187 1.072204835e-09 1.35375851e-09)
(0.01100000029 1.985555767e-10 1.976861469e-09)
(0.01100000056 1.252423841e-09 6.369432006e-10)
(0.0110000001 2.036276919e-09 3.724747977e-10)
(0.01099999918 -6.429222221e-10 -1.47415089e-09)
(0.0110000021 2.575701096e-09 -1.790681045e-09)
(0.01100000565 2.961557455e-10 -3.00747155e-09)
(0.01100001039 5.13463906e-09 -7.73111864e-09)
(0.01100001971 6.406178097e-09 -1.248106508e-08)
(0.01100002681 1.175010106e-08 -2.409039176e-08)
(0.01100006377 1.2185334e-08 -3.88004043e-08)
(0.01100006117 1.484950995e-08 -5.457928224e-08)
(0.0110001695 5.311543269e-08 -1.070681652e-07)
(0.01099999986 1.136518692e-09 1.106236378e-09)
(0.01100000175 -5.70174275e-10 2.01599145e-09)
(0.01100000046 -7.550374644e-10 -4.820416044e-10)
(0.01099999952 -1.700525774e-09 1.981536445e-10)
(0.01099999841 -9.55147468e-10 4.627420813e-10)
(0.01100000074 2.202760349e-09 1.92931229e-10)
(0.01099999988 -4.662811831e-10 -3.743181651e-10)
(0.01100000177 -1.49813461e-09 3.502107938e-10)
(0.01100000138 -3.312771085e-09 -1.418163207e-09)
(0.01100000273 -8.101684972e-09 1.683809229e-09)
(0.01100000523 -7.650438348e-09 1.252496894e-09)
(0.01100000222 -2.27702491e-08 1.670206973e-09)
(0.01100003226 -2.992008285e-08 1.262654831e-09)
(0.01100000856 -5.807170533e-08 1.093336229e-09)
(0.01099999899 3.908891322e-10 1.52682965e-09)
(0.01100000118 -2.870925156e-10 1.2636295e-09)
(0.01100000043 -4.509605096e-10 -1.778960854e-11)
(0.01100000012 9.778969074e-10 1.172854725e-09)
(0.01100000153 1.128447358e-09 5.283373172e-10)
(0.01099999847 -1.966866364e-09 -8.110733258e-10)
(0.01099999739 -1.830968504e-09 -1.225048211e-09)
(0.01099999739 -5.18910218e-09 2.931099298e-10)
(0.01099999435 -8.065596052e-09 -6.743202934e-10)
(0.01099999589 -2.218694546e-08 6.99706602e-10)
(0.01099998466 -2.978841532e-08 4.732384437e-10)
(0.01099998127 -8.772369542e-08 8.795705266e-11)
(0.01099998139 -1.195992335e-07 1.496370239e-09)
(0.01099990305 -2.97449836e-07 1.064893766e-09)
(0.01100000024 9.535063037e-10 1.839808431e-09)
(0.01100000337 5.615351452e-10 1.614775444e-09)
(0.01099999929 -1.689039774e-10 2.59822883e-09)
(0.01100000062 1.04020628e-09 -6.459853961e-10)
(0.01099999911 -5.436389255e-10 -6.447330117e-10)
(0.01099999767 -2.616632162e-09 -3.334173306e-10)
(0.01099999526 -2.905931822e-09 -3.091340148e-10)
(0.01099999311 -7.348921757e-09 -1.698217072e-09)
(0.01099998036 -1.154852034e-08 -6.18218362e-11)
(0.01099997949 -3.251462501e-08 -1.365207248e-10)
(0.01099992935 -3.466195275e-08 1.125912819e-09)
(0.01099990991 -1.359989429e-07 8.16938219e-10)
(0.01099975449 -1.157247389e-07 5.580428576e-10)
(0.01099954495 -5.568571543e-07 2.085522605e-09)
(0.01099999791 5.124534213e-10 1.295842533e-09)
(0.01099999932 9.765696859e-10 2.387171035e-09)
(0.01100000001 -4.94184129e-10 5.691052831e-10)
(0.01099999863 5.000071361e-10 4.117336261e-10)
(0.01099999528 -1.037914011e-09 3.021231459e-09)
(0.01099999768 -4.725384416e-10 1.244375081e-09)
(0.01099999276 -1.280305179e-09 1.348406284e-09)
(0.01099999118 -6.644039236e-09 1.290912102e-09)
(0.01099996818 -1.078194875e-08 1.262821216e-09)
(0.01099997021 -4.389236921e-08 -8.61767465e-11)
(0.01099986965 -6.011961754e-08 -8.202475153e-10)
(0.01099991774 -3.180781342e-07 1.534928697e-10)
(0.01099938098 -4.098498418e-07 8.827431897e-11)
(0.01099946216 -3.009814554e-06 -1.073295402e-09)
(0.01100000048 -1.011267438e-09 2.482752865e-09)
(0.01100000007 -9.395145317e-10 1.089680154e-09)
(0.01100000039 2.762284656e-10 8.285163956e-10)
(0.01099999851 -7.506753063e-10 1.74263148e-09)
(0.01099999507 1.210293968e-09 1.235717732e-09)
(0.01099999707 1.786155524e-09 2.338996188e-09)