/*--------------------------------*- C++ -*----------------------------------*\
| =========                 |                                                 |
| \\      /  F ield         | OpenFOAM: The Open Source CFD Toolbox           |
|  \\    /   O peration     | Version:  4.x                                   |
|   \\  /    A nd           | Web:      www.OpenFOAM.org                      |
|    \\/     M anipulation  |                                                 |
\*---------------------------------------------------------------------------*/
FoamFile
{
    version     2.0;
    format      ascii;
    class       volScalarField;
    location    "9000";
    object      CO2;
}
// * * * * * * * * * * * * * * * * * * * * * * * * * * * * * * * * * * * * * //

dimensions      [0 0 0 0 0 0 0];

internalField   nonuniform List<scalar> 
1175
(
0.06498133903
0.06498133903
0.06498133903
0.06498133903
0.06498133905
0.06498133911
0.06498133929
0.06498133988
0.06498134171
0.06498134712
0.06498136225
0.06498140174
0.06498149666
0.06498170321
0.06498210413
0.06498133903
0.06498133903
0.06498133903
0.06498133904
0.06498133906
0.06498133913
0.06498133937
0.06498134018
0.0649813428
0.06498135085
0.06498137427
0.06498143787
0.06498159592
0.06498194724
0.06498262898
0.06498133903
0.06498133903
0.06498133903
0.06498133904
0.06498133906
0.06498133916
0.06498133951
0.06498134073
0.06498134481
0.06498135793
0.06498139795
0.06498151174
0.06498180641
0.06498248037
0.06498379095
0.06498133903
0.06498133903
0.06498133903
0.06498133904
0.06498133907
0.0649813392
0.06498133966
0.06498134131
0.06498134704
0.06498136618
0.06498142704
0.06498160772
0.06498209593
0.0649832506
0.06498551118
0.06498133903
0.06498133903
0.06498133903
0.06498133904
0.06498133908
0.06498133922
0.06498133973
0.06498134158
0.06498134813
0.06498137045
0.06498144309
0.0649816649
0.06498228351
0.06498379173
0.06498678031
0.06498133903
0.06498133903
0.06498133903
0.06498133904
0.06498133907
0.0649813392
0.06498133966
0.06498134131
0.06498134704
0.06498136618
0.06498142704
0.06498160772
0.06498209593
0.06498325059
0.06498551116
0.06498133903
0.06498133903
0.06498133903
0.06498133904
0.06498133906
0.06498133916
0.06498133951
0.06498134073
0.06498134481
0.06498135793
0.06498139795
0.06498151173
0.06498180641
0.06498248036
0.06498379092
0.06498133903
0.06498133903
0.06498133903
0.06498133904
0.06498133906
0.06498133913
0.06498133937
0.06498134018
0.0649813428
0.06498135085
0.06498137427
0.06498143787
0.06498159591
0.06498194723
0.06498262894
0.06498133903
0.06498133903
0.06498133903
0.06498133903
0.06498133905
0.06498133911
0.06498133929
0.06498133988
0.06498134171
0.06498134712
0.06498136225
0.06498140174
0.06498149665
0.0649817032
0.0649821041
0.06498133903
0.06498133903
0.06498133903
0.06498133904
0.06498133906
0.06498133913
0.06498133937
0.06498134018
0.0649813428
0.06498135085
0.06498137427
0.06498143787
0.06498159592
0.06498194725
0.06498133903
0.06498133903
0.06498133903
0.06498133904
0.06498133906
0.06498133916
0.0649813395
0.06498134067
0.06498134464
0.06498135751
0.06498139708
0.06498151053
0.06498180676
0.06498248845
0.0649838151
0.06498133903
0.06498133903
0.06498133903
0.06498133904
0.06498133908
0.06498133921
0.06498133972
0.06498134158
0.06498134821
0.06498137097
0.06498144549
0.06498167338
0.06498230609
0.06498383301
0.06498683402
0.06498133903
0.06498133903
0.06498133903
0.06498133904
0.06498133909
0.06498133927
0.06498133996
0.06498134261
0.06498135245
0.06498138809
0.06498151172
0.06498191494
0.06498311282
0.06498618578
0.06499237141
0.06498133903
0.06498133903
0.06498133903
0.06498133905
0.0649813391
0.0649813393
0.06498134008
0.06498134312
0.06498135471
0.06498139792
0.06498155364
0.06498208652
0.06498376588
0.06498836734
0.06499804832
0.06498133903
0.06498133903
0.06498133903
0.06498133904
0.06498133909
0.06498133927
0.06498133996
0.06498134261
0.06498135245
0.06498138809
0.06498151172
0.06498191494
0.0649831128
0.06498618574
0.0649923713
0.06498133903
0.06498133903
0.06498133903
0.06498133904
0.06498133908
0.06498133921
0.06498133972
0.06498134158
0.06498134821
0.06498137097
0.06498144549
0.06498167337
0.06498230607
0.06498383296
0.06498683389
0.06498133903
0.06498133903
0.06498133903
0.06498133904
0.06498133906
0.06498133916
0.0649813395
0.06498134067
0.06498134464
0.06498135751
0.06498139708
0.06498151052
0.06498180675
0.06498248842
0.06498381501
0.06498133903
0.06498133903
0.06498133903
0.06498133904
0.06498133906
0.06498133913
0.06498133937
0.06498134018
0.0649813428
0.06498135085
0.06498137427
0.06498143787
0.06498159591
0.06498194723
0.06498262895
0.06498133903
0.06498133903
0.06498133903
0.06498133904
0.06498133906
0.06498133916
0.06498133951
0.06498134073
0.06498134481
0.06498135793
0.06498139795
0.06498151174
0.06498180642
0.0649824804
0.06498133903
0.06498133903
0.06498133903
0.06498133904
0.06498133908
0.06498133921
0.06498133972
0.06498134158
0.06498134821
0.06498137097
0.06498144549
0.06498167338
0.0649823061
0.06498383307
0.06498133903
0.06498133903
0.06498133903
0.06498133905
0.0649813391
0.0649813393
0.06498134011
0.06498134324
0.06498135514
0.06498139918
0.06498155533
0.0649820753
0.0649836489
0.06498774257
0.0649960174
0.06498133903
0.06498133903
0.06498133903
0.06498133905
0.06498133912
0.0649813394
0.06498134055
0.06498134523
0.06498136409
0.06498143867
0.06498172459
0.0649827662
0.06498625168
0.06499629887
0.06501795351
0.06498133903
0.06498133903
0.06498133903
0.06498133905
0.06498133913
0.06498133944
0.06498134076
0.06498134629
0.06498136929
0.06498146431
0.06498185005
0.06498336659
0.06498897541
0.06500731303
0.06505210305
0.06498133903
0.06498133903
0.06498133903
0.06498133905
0.06498133912
0.0649813394
0.06498134055
0.06498134523
0.06498136409
0.06498143867
0.06498172458
0.06498276617
0.06498625159
0.06499629859
0.06501795285
0.06498133903
0.06498133903
0.06498133903
0.06498133905
0.0649813391
0.0649813393
0.06498134011
0.06498134324
0.06498135514
0.06498139918
0.06498155532
0.06498207528
0.06498364882
0.06498774235
0.06499601684
0.06498133903
0.06498133903
0.06498133903
0.06498133904
0.06498133908
0.06498133921
0.06498133972
0.06498134158
0.06498134821
0.06498137097
0.06498144549
0.06498167337
0.06498230607
0.06498383296
0.06498683389
0.06498133903
0.06498133903
0.06498133903
0.06498133904
0.06498133906
0.06498133916
0.06498133951
0.06498134073
0.06498134481
0.06498135793
0.06498139795
0.06498151173
0.06498180641
0.06498248036
0.06498379091
0.06498133903
0.06498133903
0.06498133903
0.06498133904
0.06498133907
0.0649813392
0.06498133966
0.06498134131
0.06498134704
0.06498136618
0.06498142704
0.06498160773
0.06498209595
0.06498325064
0.06498133903
0.06498133903
0.06498133903
0.06498133904
0.06498133909
0.06498133927
0.06498133996
0.06498134261
0.06498135246
0.06498138809
0.06498151172
0.06498191496
0.06498311287
0.06498618592
0.06498133903
0.06498133903
0.06498133903
0.06498133905
0.06498133912
0.0649813394
0.06498134055
0.06498134523
0.06498136409
0.06498143867
0.06498172459
0.06498276622
0.06498625177
0.06499629923
0.06498133903
0.06498133903
0.06498133904
0.06498133906
0.06498133915
0.06498133954
0.06498134123
0.06498134855
0.06498138022
0.06498151659
0.06498209569
0.06498448143
0.06499372185
0.0650252129
0.06510427523
0.06498133903
0.06498133903
0.06498133904
0.06498133906
0.06498133916
0.06498133961
0.06498134159
0.06498135046
0.06498139059
0.06498157432
0.06498242346
0.06498635735
0.06500429356
0.06508098834
0.06534231256
0.06498133903
0.06498133903
0.06498133904
0.06498133906
0.06498133915
0.06498133954
0.06498134123
0.06498134855
0.06498138022
0.06498151658
0.06498209567
0.06498448135
0.06499372155
0.06502521182
0.0651042719
0.06498133903
0.06498133903
0.06498133903
0.06498133905
0.06498133912
0.0649813394
0.06498134055
0.06498134523
0.06498136409
0.06498143867
0.06498172458
0.06498276618
0.06498625162
0.06499629866
0.06501795295
0.06498133903
0.06498133903
0.06498133903
0.06498133904
0.06498133909
0.06498133927
0.06498133996
0.06498134261
0.06498135245
0.06498138809
0.06498151172
0.06498191494
0.0649831128
0.06498618572
0.06499237126
0.06498133903
0.06498133903
0.06498133903
0.06498133904
0.06498133907
0.0649813392
0.06498133966
0.06498134131
0.06498134704
0.06498136618
0.06498142704
0.06498160772
0.06498209593
0.06498325058
0.06498551114
0.06498133903
0.06498133903
0.06498133903
0.06498133904
0.06498133908
0.06498133922
0.06498133973
0.06498134158
0.06498134813
0.06498137045
0.06498144309
0.0649816649
0.06498228353
0.06498379179
0.06498133903
0.06498133903
0.06498133903
0.06498133905
0.0649813391
0.0649813393
0.06498134008
0.06498134312
0.06498135471
0.06498139792
0.06498155364
0.06498208653
0.06498376593
0.06498836749
0.06498133903
0.06498133903
0.06498133903
0.06498133905
0.06498133913
0.06498133944
0.06498134076
0.06498134629
0.06498136929
0.06498146431
0.06498185006
0.06498336662
0.06498897556
0.06500731362
0.06498133903
0.06498133903
0.06498133904
0.06498133906
0.06498133916
0.06498133961
0.06498134159
0.06498135046
0.06498139059
0.06498157432
0.06498242347
0.0649863574
0.06500429388
0.06508099064
0.06498133903
0.06498133903
0.06498133904
0.06498133906
0.06498133918
0.06498133969
0.06498134204
0.06498135299
0.0649814054
0.06498166591
0.06498302292
0.06499051616
0.06503483506
0.06531755526
0.06727198065
0.06498133903
0.06498133903
0.06498133904
0.06498133906
0.06498133916
0.06498133961
0.06498134159
0.06498135046
0.06498139059
0.06498157432
0.06498242346
0.06498635735
0.06500429355
0.06508098834
0.06534231269
0.06498133903
0.06498133903
0.06498133903
0.06498133905
0.06498133913
0.06498133944
0.06498134076
0.06498134629
0.06498136929
0.06498146431
0.06498185005
0.06498336658
0.06498897539
0.06500731296
0.06505210287
0.06498133903
0.06498133903
0.06498133903
0.06498133905
0.0649813391
0.0649813393
0.06498134008
0.06498134312
0.06498135471
0.06498139792
0.06498155364
0.06498208651
0.06498376586
0.06498836727
0.06499804816
0.06498133903
0.06498133903
0.06498133903
0.06498133904
0.06498133908
0.06498133922
0.06498133973
0.06498134158
0.06498134813
0.06498137045
0.06498144309
0.06498166489
0.0649822835
0.06498379171
0.06498678026
0.06498133903
0.06498133903
0.06498133903
0.06498133904
0.06498133907
0.0649813392
0.06498133966
0.06498134131
0.06498134704
0.06498136618
0.06498142704
0.06498160773
0.06498209595
0.06498325064
0.06498133903
0.06498133903
0.06498133903
0.06498133904
0.06498133909
0.06498133927
0.06498133996
0.06498134261
0.06498135246
0.06498138809
0.06498151172
0.06498191495
0.06498311285
0.06498618585
0.06498133903
0.06498133903
0.06498133903
0.06498133905
0.06498133912
0.0649813394
0.06498134055
0.06498134523
0.06498136409
0.06498143867
0.06498172459
0.06498276621
0.06498625174
0.06499629903
0.06498133903
0.06498133903
0.06498133904
0.06498133906
0.06498133915
0.06498133954
0.06498134123
0.06498134855
0.06498138022
0.06498151659
0.06498209569
0.06498448142
0.06499372186
0.06502521299
0.06498133903
0.06498133903
0.06498133904
0.06498133906
0.06498133916
0.06498133961
0.06498134159
0.06498135046
0.06498139059
0.06498157432
0.06498242348
0.06498635742
0.06500429397
0.06508099085
0.06498133903
0.06498133903
0.06498133904
0.06498133906
0.06498133915
0.06498133954
0.06498134123
0.06498134855
0.06498138022
0.06498151659
0.06498209569
0.06498448143
0.06499372188
0.06502521314
0.06498133903
0.06498133903
0.06498133903
0.06498133905
0.06498133912
0.0649813394
0.06498134055
0.06498134523
0.06498136409
0.06498143867
0.06498172459
0.0649827662
0.06498625171
0.06499629895
0.06501795378
0.06498133903
0.06498133903
0.06498133903
0.06498133904
0.06498133909
0.06498133927
0.06498133996
0.06498134261
0.06498135245
0.06498138809
0.06498151172
0.06498191494
0.06498311282
0.06498618579
0.06499237141
0.06498133903
0.06498133903
0.06498133903
0.06498133904
0.06498133907
0.0649813392
0.06498133966
0.06498134131
0.06498134704
0.06498136618
0.06498142704
0.06498160772
0.06498209593
0.0649832506
0.06498551118
0.06498133903
0.06498133903
0.06498133903
0.06498133904
0.06498133907
0.06498133916
0.06498133951
0.06498134073
0.06498134481
0.06498135793
0.06498139795
0.06498151174
0.06498180642
0.06498248039
0.06498133903
0.06498133903
0.06498133903
0.06498133904
0.06498133908
0.06498133921
0.06498133972
0.06498134158
0.06498134821
0.06498137097
0.06498144549
0.06498167338
0.0649823061
0.06498383303
0.06498133903
0.06498133903
0.06498133903
0.06498133905
0.0649813391
0.0649813393
0.06498134011
0.06498134324
0.06498135514
0.06498139918
0.06498155533
0.0649820753
0.06498364889
0.06498774252
0.06498133903
0.06498133903
0.06498133903
0.06498133905
0.06498133912
0.0649813394
0.06498134055
0.06498134523
0.06498136409
0.06498143867
0.06498172459
0.06498276621
0.06498625173
0.06499629901
0.06498133903
0.06498133903
0.06498133903
0.06498133905
0.06498133913
0.06498133944
0.06498134076
0.06498134629
0.0649813693
0.06498146431
0.06498185006
0.06498336664
0.06498897562
0.06500731374
0.06498133903
0.06498133903
0.06498133903
0.06498133905
0.06498133912
0.0649813394
0.06498134055
0.06498134523
0.06498136409
0.06498143867
0.06498172459
0.06498276622
0.06498625176
0.06499629909
0.06498133903
0.06498133903
0.06498133903
0.06498133905
0.0649813391
0.0649813393
0.06498134011
0.06498134324
0.06498135514
0.06498139918
0.06498155533
0.0649820753
0.0649836489
0.0649877426
0.06498133903
0.06498133903
0.06498133903
0.06498133904
0.06498133908
0.06498133921
0.06498133972
0.06498134158
0.06498134821
0.06498137097
0.06498144549
0.06498167338
0.06498230609
0.06498383303
0.06498683406
0.06498133903
0.06498133903
0.06498133903
0.06498133904
0.06498133906
0.06498133916
0.06498133951
0.06498134073
0.06498134481
0.06498135793
0.06498139795
0.06498151174
0.06498180641
0.06498248038
0.06498379096
0.06498133903
0.06498133903
0.06498133903
0.06498133904
0.06498133906
0.06498133913
0.06498133937
0.06498134018
0.0649813428
0.06498135085
0.06498137427
0.06498143787
0.06498159592
0.06498194724
0.06498133903
0.06498133903
0.06498133903
0.06498133904
0.06498133906
0.06498133916
0.0649813395
0.06498134067
0.06498134464
0.06498135751
0.06498139708
0.06498151053
0.06498180676
0.06498248845
0.06498133903
0.06498133903
0.06498133903
0.06498133904
0.06498133908
0.06498133921
0.06498133972
0.06498134158
0.06498134821
0.06498137097
0.06498144549
0.06498167338
0.0649823061
0.06498383303
0.06498133903
0.06498133903
0.06498133903
0.06498133904
0.06498133909
0.06498133927
0.06498133996
0.06498134261
0.06498135246
0.06498138809
0.06498151172
0.06498191495
0.06498311285
0.06498618586
0.06498133903
0.06498133903
0.06498133903
0.06498133905
0.0649813391
0.0649813393
0.06498134008
0.06498134312
0.06498135471
0.06498139792
0.06498155364
0.06498208653
0.06498376594
0.06498836749
0.06498133903
0.06498133903
0.06498133903
0.06498133904
0.06498133909
0.06498133927
0.06498133996
0.06498134261
0.06498135246
0.06498138809
0.06498151172
0.06498191496
0.06498311286
0.06498618588
0.06498133903
0.06498133903
0.06498133903
0.06498133904
0.06498133908
0.06498133921
0.06498133972
0.06498134158
0.06498134821
0.06498137097
0.06498144549
0.06498167338
0.0649823061
0.06498383304
0.06498133903
0.06498133903
0.06498133903
0.06498133904
0.06498133906
0.06498133916
0.0649813395
0.06498134067
0.06498134464
0.06498135751
0.06498139708
0.06498151053
0.06498180676
0.06498248846
0.06498133903
0.06498133903
0.06498133903
0.06498133904
0.06498133906
0.06498133913
0.06498133937
0.06498134018
0.0649813428
0.06498135085
0.06498137427
0.06498143787
0.06498159592
0.06498194724
0.06498262899
0.06498133903
0.06498133903
0.06498133903
0.06498133903
0.06498133905
0.06498133911
0.06498133929
0.06498133988
0.06498134171
0.06498134712
0.06498136225
0.06498140174
0.06498149665
0.06498170321
0.06498133903
0.06498133903
0.06498133903
0.06498133904
0.06498133906
0.06498133913
0.06498133937
0.06498134018
0.0649813428
0.06498135085
0.06498137427
0.06498143787
0.06498159592
0.06498194724
0.06498133903
0.06498133903
0.06498133903
0.06498133904
0.06498133906
0.06498133916
0.06498133951
0.06498134073
0.06498134481
0.06498135793
0.06498139795
0.06498151174
0.06498180642
0.06498248039
0.06498133903
0.06498133903
0.06498133903
0.06498133904
0.06498133907
0.0649813392
0.06498133966
0.06498134131
0.06498134704
0.06498136618
0.06498142704
0.06498160773
0.06498209595
0.06498325063
0.06498133903
0.06498133903
0.06498133903
0.06498133904
0.06498133908
0.06498133922
0.06498133973
0.06498134158
0.06498134813
0.06498137045
0.06498144309
0.0649816649
0.06498228353
0.06498379178
0.06498133903
0.06498133903
0.06498133903
0.06498133904
0.06498133907
0.0649813392
0.06498133966
0.06498134131
0.06498134704
0.06498136618
0.06498142704
0.06498160773
0.06498209595
0.06498325063
0.06498133903
0.06498133903
0.06498133903
0.06498133904
0.06498133906
0.06498133916
0.06498133951
0.06498134073
0.06498134481
0.06498135793
0.06498139795
0.06498151174
0.06498180642
0.06498248039
0.06498133903
0.06498133903
0.06498133903
0.06498133904
0.06498133906
0.06498133913
0.06498133937
0.06498134018
0.0649813428
0.06498135085
0.06498137427
0.06498143787
0.06498159592
0.06498194725
0.06498133903
0.06498133903
0.06498133903
0.06498133903
0.06498133905
0.06498133911
0.06498133929
0.06498133988
0.06498134171
0.06498134712
0.06498136225
0.06498140174
0.06498149666
0.06498170322
)
;

boundaryField
{
    top
    {
        type            zeroGradient;
    }
    bottom
    {
        type            zeroGradient;
    }
    side-walls
    {
        type            zeroGradient;
    }
    inlet
    {
        type            zeroGradient;
    }
    outlet
    {
        type            zeroGradient;
    }
    procBoundary0to1
    {
        type            processor;
        value           nonuniform List<scalar> 
97
(
0.06498279332
0.064982629
0.0649837678
0.06498589677
0.06498897249
0.06499113319
0.06498897246
0.06498589671
0.06498376774
0.06498279328
0.064982629
0.064982629
0.06498592903
0.06498683411
0.06499129833
0.06500069381
0.06500940436
0.06500069367
0.06499129814
0.06498592891
0.06498376775
0.06498379098
0.06498683411
0.06498683411
0.06500691075
0.06501795416
0.06504108118
0.06508506351
0.06504108043
0.06500691009
0.06499129814
0.06498589671
0.06498551124
0.0649923716
0.06501795416
0.06501795416
0.06515656799
0.06534231366
0.06537940156
0.06515656548
0.06504108049
0.06500069358
0.06498897241
0.06498678036
0.06499804844
0.0650521035
0.06534231366
0.06534231366
0.06632682733
0.06534231396
0.06537940133
0.0651042735
0.06508506314
0.0650094041
0.0649911331
0.06498551121
0.06499237141
0.06501795335
0.06510427289
0.06534231396
0.0651042735
0.0651042735
0.06504108112
0.0649960173
0.06500069373
0.06498897246
0.06498379095
0.06498683396
0.06499601701
0.06501795327
0.06505210363
0.06501795343
0.0649960173
0.0649960173
0.06499129831
0.06498381508
0.06498589676
0.06498262896
0.06498381504
0.06498683396
0.0649923714
0.06499804841
0.06499237145
0.064986834
0.06498381508
0.06498381508
0.06498376779
0.06498210412
0.06498210411
0.06498262896
0.06498379094
0.06498551119
0.06498678034
0.0649855112
0.06498379094
0.06498262897
0.06498210412
)
;
    }
}


// ************************************************************************* //
