/*--------------------------------*- C++ -*----------------------------------*\
| =========                 |                                                 |
| \\      /  F ield         | OpenFOAM: The Open Source CFD Toolbox           |
|  \\    /   O peration     | Version:  4.x                                   |
|   \\  /    A nd           | Web:      www.OpenFOAM.org                      |
|    \\/     M anipulation  |                                                 |
\*---------------------------------------------------------------------------*/
FoamFile
{
    version     2.0;
    format      ascii;
    class       volScalarField;
    location    "9000";
    object      Cpv;
}
// * * * * * * * * * * * * * * * * * * * * * * * * * * * * * * * * * * * * * //

dimensions      [0 2 -2 -1 0 0 0];

internalField   nonuniform List<scalar> 
1175
(
1277.533046
1277.533041
1277.533041
1277.533042
1277.533043
1277.533046
1277.533042
1277.533037
1277.533026
1277.533013
1277.533023
1277.533014
1277.532991
1277.532969
1277.532906
1277.533497
1277.533505
1277.533523
1277.533556
1277.533558
1277.533536
1277.533527
1277.533531
1277.533535
1277.533535
1277.533542
1277.533546
1277.533535
1277.533477
1277.533426
1277.532587
1277.532582
1277.53258
1277.532588
1277.532586
1277.532576
1277.532606
1277.532621
1277.532612
1277.532604
1277.532612
1277.532618
1277.532577
1277.532505
1277.53236
1277.532794
1277.532796
1277.532798
1277.532781
1277.532786
1277.532766
1277.532775
1277.532784
1277.532788
1277.53277
1277.532781
1277.532752
1277.532703
1277.532589
1277.532343
1277.533166
1277.533142
1277.533143
1277.533136
1277.53318
1277.53318
1277.533171
1277.533157
1277.533143
1277.533146
1277.533137
1277.533123
1277.533054
1277.532869
1277.532517
1277.533242
1277.533242
1277.533262
1277.533272
1277.533275
1277.533306
1277.533303
1277.533293
1277.533304
1277.533313
1277.533312
1277.533297
1277.533204
1277.533049
1277.532769
1277.533136
1277.533137
1277.533127
1277.533125
1277.533145
1277.533131
1277.533115
1277.533133
1277.533109
1277.533105
1277.533147
1277.533141
1277.53309
1277.533026
1277.532865
1277.532703
1277.532704
1277.532707
1277.532688
1277.532707
1277.532718
1277.532724
1277.532718
1277.532736
1277.532723
1277.532708
1277.532703
1277.532692
1277.532651
1277.53258
1277.532974
1277.532981
1277.532977
1277.532965
1277.532958
1277.53296
1277.532947
1277.532963
1277.532962
1277.532968
1277.53299
1277.532981
1277.53299
1277.532955
1277.532915
1277.533726
1277.533716
1277.533737
1277.533764
1277.533779
1277.533775
1277.533777
1277.53377
1277.533771
1277.533779
1277.53378
1277.533795
1277.53377
1277.533746
1277.533099
1277.533069
1277.533053
1277.533071
1277.533076
1277.533076
1277.533071
1277.533103
1277.5331
1277.533115
1277.533121
1277.533087
1277.533045
1277.532947
1277.532784
1277.532894
1277.53289
1277.532872
1277.532898
1277.532901
1277.532907
1277.532896
1277.53288
1277.5329
1277.532885
1277.532875
1277.532854
1277.532781
1277.532635
1277.532299
1277.533195
1277.533216
1277.533227
1277.533215
1277.533192
1277.5332
1277.533194
1277.533186
1277.533215
1277.533198
1277.533161
1277.533105
1277.532983
1277.532607
1277.531882
1277.5347
1277.534732
1277.534726
1277.534734
1277.534749
1277.534752
1277.534738
1277.534734
1277.534755
1277.534765
1277.534726
1277.53465
1277.534413
1277.533894
1277.532743
1277.534142
1277.534164
1277.534171
1277.534173
1277.534149
1277.534142
1277.534154
1277.534126
1277.53412
1277.534119
1277.534096
1277.534041
1277.533903
1277.533548
1277.532839
1277.533123
1277.533099
1277.533091
1277.533093
1277.533092
1277.533105
1277.533098
1277.533097
1277.533112
1277.533113
1277.533102
1277.533094
1277.533027
1277.532845
1277.532466
1277.533066
1277.533091
1277.5331
1277.533107
1277.533081
1277.53312
1277.533128
1277.533122
1277.53312
1277.533129
1277.53311
1277.533129
1277.533113
1277.533011
1277.532847
1277.533832
1277.533847
1277.533862
1277.533864
1277.533835
1277.533822
1277.533809
1277.533816
1277.533812
1277.53382
1277.533803
1277.533784
1277.533786
1277.533744
1277.533676
1277.532822
1277.532828
1277.532818
1277.532791
1277.532796
1277.532813
1277.532792
1277.532777
1277.532776
1277.532774
1277.532764
1277.532745
1277.532689
1277.532613
1277.532683
1277.532681
1277.532674
1277.532656
1277.532672
1277.532699
1277.532701
1277.53267
1277.532686
1277.532681
1277.532668
1277.532674
1277.532574
1277.532402
1277.533792
1277.533809
1277.533788
1277.5338
1277.533786
1277.533766
1277.533769
1277.533751
1277.533785
1277.533785
1277.53378
1277.533714
1277.533521
1277.533064
1277.532083
1277.532539
1277.53251
1277.532519
1277.532497
1277.532509
1277.532515
1277.532511
1277.532532
1277.53252
1277.53251
1277.532495
1277.532408
1277.531957
1277.530783
1277.528289
1277.533621
1277.533626
1277.533632
1277.533641
1277.533629
1277.533631
1277.533622
1277.533623
1277.533639
1277.533626
1277.533593
1277.533405
1277.532778
1277.530656
1277.525509
1277.532231
1277.532228
1277.532237
1277.532221
1277.532213
1277.532223
1277.532243
1277.532246
1277.532252
1277.532257
1277.532273
1277.53216
1277.531744
1277.530597
1277.528113
1277.531954
1277.531954
1277.531955
1277.531955
1277.531954
1277.531947
1277.53194
1277.531955
1277.531961
1277.531937
1277.53192
1277.531851
1277.531669
1277.531211
1277.530275
1277.533909
1277.533889
1277.533888
1277.533889
1277.533915
1277.533892
1277.533917
1277.53391
1277.533932
1277.533925
1277.533959
1277.533932
1277.533834
1277.533697
1277.533351
1277.533192
1277.533186
1277.53318
1277.533175
1277.533176
1277.533173
1277.53319
1277.53317
1277.533165
1277.533151
1277.533166
1277.533148
1277.533067
1277.532986
1277.532823
1277.532363
1277.532336
1277.532362
1277.532369
1277.532357
1277.53236
1277.532351
1277.532341
1277.532313
1277.532311
1277.532292
1277.532297
1277.532222
1277.532104
1277.534354
1277.534351
1277.534381
1277.534341
1277.534348
1277.534372
1277.534369
1277.534368
1277.534353
1277.534364
1277.534354
1277.534304
1277.534196
1277.533821
1277.534067
1277.534097
1277.53411
1277.534098
1277.534096
1277.53409
1277.534117
1277.534122
1277.534144
1277.534153
1277.534085
1277.533992
1277.533582
1277.532417
1277.534994
1277.535011
1277.535004
1277.535037
1277.535025
1277.535029
1277.535048
1277.53501
1277.535037
1277.535033
1277.534976
1277.534674
1277.533633
1277.52999
1277.520861
1277.533426
1277.533418
1277.533431
1277.533398
1277.53342
1277.533417
1277.533443
1277.533441
1277.533419
1277.533409
1277.533298
1277.532835
1277.53078
1277.521882
1277.491435
1277.532139
1277.532146
1277.532121
1277.532106
1277.532109
1277.532144
1277.532149
1277.532132
1277.53213
1277.532134
1277.532047
1277.531784
1277.530721
1277.527073
1277.517905
1277.533867
1277.533866
1277.533861
1277.53387
1277.533881
1277.533882
1277.533892
1277.533886
1277.533895
1277.53389
1277.533877
1277.533759
1277.533354
1277.532192
1277.529695
1277.532776
1277.532765
1277.532753
1277.532745
1277.532743
1277.53273
1277.532721
1277.532732
1277.532737
1277.532732
1277.532716
1277.53267
1277.532533
1277.532189
1277.531491
1277.533425
1277.533416
1277.533407
1277.533423
1277.533439
1277.533448
1277.533442
1277.533445
1277.533466
1277.53345
1277.533413
1277.533376
1277.53332
1277.533175
1277.532918
1277.533055
1277.533048
1277.533063
1277.533059
1277.533076
1277.533068
1277.533038
1277.533027
1277.533019
1277.533009
1277.53301
1277.532966
1277.532877
1277.532716
1277.533995
1277.533994
1277.534
1277.534019
1277.534028
1277.534027
1277.534011
1277.534046
1277.534024
1277.534042
1277.53405
1277.533994
1277.533768
1277.533211
1277.533517
1277.533524
1277.533509
1277.533514
1277.533536
1277.533536
1277.533543
1277.533564
1277.533553
1277.533545
1277.533486
1277.53332
1277.53268
1277.530557
1277.533026
1277.533013
1277.533014
1277.532991
1277.53299
1277.532976
1277.532958
1277.532975
1277.53298
1277.532991
1277.532906
1277.532446
1277.530364
1277.521492
1277.533328
1277.533308
1277.53333
1277.533322
1277.533299
1277.53328
1277.533235
1277.533241
1277.533216
1277.533188
1277.533018
1277.532141
1277.527027
1277.494316
1276.712325
1277.533086
1277.533125
1277.533102
1277.533118
1277.533113
1277.533092
1277.533089
1277.533066
1277.533094
1277.533062
1277.532973
1277.532542
1277.530455
1277.521611
1277.491106
1277.532494
1277.532504
1277.532497
1277.53251
1277.532523
1277.532541
1277.532529
1277.532517
1277.532519
1277.532483
1277.532402
1277.532206
1277.5316
1277.529481
1277.524305
1277.532443
1277.532429
1277.532443
1277.53244
1277.532465
1277.53246
1277.532442
1277.532445
1277.532454
1277.532436
1277.532432
1277.532375
1277.532179
1277.531625
1277.530512
1277.533136
1277.533125
1277.533133
1277.533152
1277.533123
1277.533119
1277.533103
1277.533113
1277.533097
1277.533103
1277.533101
1277.533078
1277.533014
1277.532876
1277.532517
1277.534279
1277.534279
1277.534289
1277.534293
1277.534305
1277.53431
1277.53431
1277.534324
1277.53433
1277.534337
1277.534297
1277.534309
1277.534245
1277.53411
1277.533119
1277.533147
1277.533144
1277.533128
1277.533135
1277.533147
1277.533155
1277.533149
1277.53318
1277.533191
1277.533177
1277.533129
1277.532996
1277.532618
1277.533293
1277.533269
1277.533283
1277.533276
1277.533236
1277.533251
1277.533256
1277.533273
1277.53328
1277.533241
1277.533215
1277.53312
1277.532711
1277.531571
1277.532965
1277.532965
1277.532965
1277.532985
1277.532985
1277.532991
1277.532998
1277.533014
1277.533021
1277.533027
1277.532953
1277.532677
1277.531591
1277.527929
1277.533674
1277.533665
1277.533669
1277.53366
1277.533676
1277.533677
1277.533691
1277.533689
1277.533677
1277.533645
1277.53356
1277.533089
1277.531039
1277.522168
1277.534353
1277.534335
1277.534337
1277.534309
1277.534309
1277.534293
1277.534312
1277.534333
1277.534314
1277.534291
1277.534208
1277.533942
1277.532873
1277.5292
1277.533491
1277.533468
1277.533446
1277.533445
1277.533447
1277.533432
1277.533414
1277.533408
1277.533396
1277.5334
1277.533381
1277.533247
1277.532832
1277.531666
1277.529164
1277.532636
1277.532649
1277.532651
1277.532646
1277.532619
1277.532639
1277.532625
1277.532663
1277.532653
1277.532648
1277.532617
1277.532588
1277.532462
1277.532105
1277.531367
1277.533336
1277.533328
1277.533314
1277.533298
1277.533319
1277.533323
1277.533311
1277.5333
1277.533303
1277.533272
1277.533269
1277.533258
1277.533222
1277.533087
1277.532836
1277.532806
1277.532806
1277.532798
1277.532795
1277.532805
1277.532787
1277.532811
1277.532789
1277.532773
1277.532758
1277.532742
1277.532724
1277.532695
1277.532604
1277.53375
1277.533748
1277.53374
1277.533727
1277.533696
1277.533663
1277.533673
1277.533673
1277.533713
1277.533666
1277.533672
1277.533662
1277.533574
1277.533415
1277.53227
1277.532245
1277.532264
1277.532263
1277.532238
1277.532248
1277.532247
1277.532255
1277.532223
1277.532216
1277.532209
1277.53215
1277.531974
1277.531474
1277.532192
1277.532215
1277.532222
1277.532244
1277.532245
1277.532236
1277.532242
1277.532232
1277.532243
1277.532254
1277.5322
1277.532091
1277.531695
1277.530537
1277.534549
1277.534565
1277.534578
1277.534551
1277.534582
1277.534579
1277.534572
1277.534548
1277.534521
1277.534472
1277.534422
1277.534242
1277.533595
1277.531452
1277.533356
1277.53335
1277.533372
1277.533343
1277.533337
1277.533326
1277.533314
1277.533298
1277.533293
1277.533303
1277.53328
1277.533138
1277.53276
1277.531595
1277.533484
1277.533482
1277.533487
1277.533501
1277.533494
1277.533488
1277.533481
1277.533495
1277.533503
1277.533503
1277.533467
1277.533405
1277.533226
1277.532716
1277.533424
1277.533405
1277.533443
1277.53341
1277.533439
1277.533453
1277.53343
1277.53344
1277.533435
1277.533448
1277.533472
1277.533421
1277.533371
1277.533225
1277.532874
1277.532999
1277.53301
1277.532976
1277.532992
1277.532968
1277.53296
1277.532955
1277.532974
1277.532995
1277.533011
1277.532994
1277.532984
1277.53295
1277.532864
1277.532709
1277.532892
1277.53289
1277.532889
1277.532896
1277.532898
1277.532893
1277.532868
1277.532882
1277.532875
1277.532873
1277.532877
1277.532842
1277.532818
1277.532779
1277.53272
1277.53273
1277.532719
1277.532754
1277.532734
1277.532742
1277.532729
1277.532738
1277.532717
1277.532738
1277.532766
1277.532745
1277.532714
1277.53263
1277.533776
1277.533781
1277.533775
1277.533752
1277.533761
1277.533776
1277.533824
1277.533831
1277.533823
1277.533812
1277.533807
1277.533775
1277.533718
1277.53352
1277.533781
1277.533804
1277.533799
1277.5338
1277.533799
1277.533809
1277.533812
1277.533805
1277.533767
1277.533759
1277.533773
1277.533738
1277.533609
1277.533272
1277.533457
1277.533453
1277.533446
1277.533444
1277.533439
1277.533443
1277.53344
1277.533409
1277.53339
1277.533427
1277.533419
1277.533344
1277.533148
1277.53261
1277.534287
1277.534264
1277.534214
1277.534213
1277.534196
1277.534225
1277.53422
1277.534239
1277.534239
1277.534218
1277.534182
1277.534137
1277.533992
1277.533607
1277.532362
1277.532362
1277.532385
1277.532351
1277.532361
1277.532368
1277.532355
1277.532369
1277.532365
1277.532397
1277.532396
1277.532386
1277.532314
1277.532162
1277.533022
1277.53303
1277.533013
1277.533018
1277.533031
1277.533032
1277.533041
1277.533006
1277.533005
1277.533019
1277.532982
1277.532983
1277.532931
1277.532871
1277.533881
1277.53386
1277.533857
1277.533845
1277.533835
1277.533837
1277.53383
1277.533822
1277.533812
1277.533798
1277.533764
1277.533759
1277.533746
1277.533706
1277.533608
1277.532793
1277.532776
1277.532778
1277.532774
1277.532782
1277.532799
1277.532767
1277.532763
1277.532764
1277.532769
1277.532767
1277.532763
1277.532755
1277.532733
1277.53333
1277.533321
1277.533328
1277.533308
1277.533309
1277.533319
1277.533328
1277.533323
1277.533338
1277.533349
1277.533314
1277.533297
1277.533269
1277.533229
1277.533232
1277.533223
1277.533219
1277.533209
1277.533218
1277.533233
1277.533237
1277.53323
1277.533257
1277.53325
1277.533253
1277.533232
1277.533179
1277.533095
1277.533363
1277.533369
1277.533374
1277.533365
1277.533347
1277.533342
1277.533361
1277.533347
1277.533359
1277.533329
1277.533281
1277.533248
1277.533188
1277.533034
1277.533088
1277.533074
1277.533098
1277.53308
1277.533098
1277.533089
1277.533097
1277.533108
1277.533097
1277.533079
1277.533065
1277.533023
1277.532944
1277.532772
1277.532852
1277.532847
1277.532848
1277.532849
1277.532845
1277.532842
1277.532849
1277.532832
1277.532858
1277.532901
1277.532902
1277.532874
1277.5328
1277.532663
1277.53168
1277.531671
1277.531684
1277.531702
1277.531689
1277.531694
1277.531703
1277.531715
1277.531716
1277.531731
1277.531703
1277.53166
1277.531621
1277.531549
1277.533222
1277.533213
1277.533212
1277.533193
1277.533171
1277.533169
1277.533183
1277.533174
1277.533181
1277.533168
1277.533178
1277.533154
1277.533156
1277.533141
1277.533409
1277.533413
1277.533415
1277.533413
1277.533423
1277.533418
1277.53341
1277.533402
1277.533395
1277.533389
1277.533421
1277.533438
1277.533425
1277.533394
)
;

boundaryField
{
    top
    {
        type            calculated;
        value           nonuniform List<scalar> 
134
(
1277.532974
1277.533832
1277.533192
1277.533425
1277.533136
1277.533336
1277.532999
1277.533881
1277.533409
1277.532981
1277.533847
1277.533186
1277.533416
1277.533125
1277.533328
1277.53301
1277.53386
1277.533413
1277.532977
1277.533862
1277.53318
1277.533407
1277.533133
1277.533314
1277.532976
1277.533857
1277.533415
1277.532965
1277.533864
1277.533175
1277.533423
1277.533152
1277.533298
1277.532992
1277.533845
1277.533413
1277.532958
1277.533835
1277.533176
1277.533439
1277.533123
1277.533319
1277.532968
1277.533835
1277.533423
1277.53296
1277.533822
1277.533173
1277.533448
1277.533119
1277.533323
1277.53296
1277.533837
1277.533418
1277.532947
1277.533809
1277.53319
1277.533442
1277.533103
1277.533311
1277.532955
1277.53383
1277.53341
1277.532963
1277.533816
1277.53317
1277.533445
1277.533113
1277.5333
1277.532974
1277.533822
1277.533402
1277.532962
1277.533812
1277.533165
1277.533466
1277.533097
1277.533303
1277.532995
1277.533812
1277.533395
1277.532968
1277.53382
1277.533151
1277.53345
1277.533103
1277.533272
1277.533011
1277.533798
1277.533389
1277.53299
1277.533803
1277.533166
1277.533413
1277.533101
1277.533269
1277.532994
1277.533764
1277.533421
1277.532981
1277.533784
1277.533148
1277.533376
1277.533078
1277.533258
1277.532984
1277.533759
1277.533438
1277.53299
1277.533786
1277.533067
1277.53332
1277.533014
1277.533222
1277.53295
1277.533746
1277.533425
1277.532955
1277.533744
1277.532986
1277.533175
1277.532876
1277.533087
1277.532864
1277.533706
1277.533394
1277.532915
1277.533676
1277.532823
1277.532918
1277.532517
1277.532836
1277.532709
1277.533608
)
;
    }
    bottom
    {
        type            calculated;
        value           nonuniform List<scalar> 
127
(
1277.533046
1277.533726
1277.532822
1277.532363
1277.533055
1277.534279
1277.532806
1277.532892
1277.532793
1277.533041
1277.533716
1277.532828
1277.532336
1277.533048
1277.534279
1277.532806
1277.53289
1277.532776
1277.533041
1277.533737
1277.532818
1277.532362
1277.533063
1277.534289
1277.532798
1277.532889
1277.532778
1277.533042
1277.533764
1277.532791
1277.532369
1277.533059
1277.534293
1277.532795
1277.532896
1277.532774
1277.533043
1277.533779
1277.532796
1277.532357
1277.533076
1277.534305
1277.532805
1277.532898
1277.532782
1277.533046
1277.533775
1277.532813
1277.53236
1277.533068
1277.53431
1277.532787
1277.532893
1277.532799
1277.533042
1277.533777
1277.532792
1277.532351
1277.533038
1277.53431
1277.532811
1277.532868
1277.532767
1277.533037
1277.53377
1277.532777
1277.532341
1277.533027
1277.534324
1277.532789
1277.532882
1277.532763
1277.533026
1277.533771
1277.532776
1277.532313
1277.533019
1277.53433
1277.532773
1277.532875
1277.532764
1277.533013
1277.533779
1277.532774
1277.532311
1277.533009
1277.534337
1277.532758
1277.532873
1277.532769
1277.533023
1277.53378
1277.532764
1277.532292
1277.53301
1277.534297
1277.532742
1277.532877
1277.532767
1277.533014
1277.533795
1277.532745
1277.532297
1277.532966
1277.534309
1277.532724
1277.532842
1277.532763
1277.532991
1277.53377
1277.532689
1277.532222
1277.532877
1277.534245
1277.532695
1277.532818
1277.532755
1277.532969
1277.533746
1277.532613
1277.532104
1277.532716
1277.53411
1277.532604
1277.532779
1277.532733
1277.532906
)
;
    }
    side-walls
    {
        type            calculated;
        value           nonuniform List<scalar> 
261
(
1277.533046
1277.533497
1277.532587
1277.532794
1277.533166
1277.533242
1277.533136
1277.532703
1277.532974
1277.533041
1277.533505
1277.532582
1277.532796
1277.533142
1277.533242
1277.533137
1277.532704
1277.532981
1277.533041
1277.533523
1277.53258
1277.532798
1277.533143
1277.533262
1277.533127
1277.532707
1277.532977
1277.533042
1277.533556
1277.532588
1277.532781
1277.533136
1277.533272
1277.533125
1277.532688
1277.532965
1277.533043
1277.533558
1277.532586
1277.532786
1277.53318
1277.533275
1277.533145
1277.532707
1277.532958
1277.533046
1277.533536
1277.532576
1277.532766
1277.53318
1277.533306
1277.533131
1277.532718
1277.53296
1277.533042
1277.533527
1277.532606
1277.532775
1277.533171
1277.533303
1277.533115
1277.532724
1277.532947
1277.533037
1277.533531
1277.532621
1277.532784
1277.533157
1277.533293
1277.533133
1277.532718
1277.532963
1277.533026
1277.533535
1277.532612
1277.532788
1277.533143
1277.533304
1277.533109
1277.532736
1277.532962
1277.533013
1277.533535
1277.532604
1277.53277
1277.533146
1277.533313
1277.533105
1277.532723
1277.532968
1277.533023
1277.533542
1277.532612
1277.532781
1277.533137
1277.533312
1277.533147
1277.532708
1277.53299
1277.533014
1277.533546
1277.532618
1277.532752
1277.533123
1277.533297
1277.533141
1277.532703
1277.532981
1277.532991
1277.533535
1277.532577
1277.532703
1277.533054
1277.533204
1277.53309
1277.532692
1277.53299
1277.532969
1277.533477
1277.532505
1277.532589
1277.532869
1277.533049
1277.533026
1277.532651
1277.532955
1277.532906
1277.533426
1277.53236
1277.532343
1277.532517
1277.532769
1277.532865
1277.53258
1277.532915
1277.532793
1277.53333
1277.533232
1277.533363
1277.533088
1277.532852
1277.53168
1277.533222
1277.533409
1277.532776
1277.533321
1277.533223
1277.533369
1277.533074
1277.532847
1277.531671
1277.533213
1277.533413
1277.532778
1277.533328
1277.533219
1277.533374
1277.533098
1277.532848
1277.531684
1277.533212
1277.533415
1277.532774
1277.533308
1277.533209
1277.533365
1277.53308
1277.532849
1277.531702
1277.533193
1277.533413
1277.532782
1277.533309
1277.533218
1277.533347
1277.533098
1277.532845
1277.531689
1277.533171
1277.533423
1277.532799
1277.533319
1277.533233
1277.533342
1277.533089
1277.532842
1277.531694
1277.533169
1277.533418
1277.532767
1277.533328
1277.533237
1277.533361
1277.533097
1277.532849
1277.531703
1277.533183
1277.53341
1277.532763
1277.533323
1277.53323
1277.533347
1277.533108
1277.532832
1277.531715
1277.533174
1277.533402
1277.532764
1277.533338
1277.533257
1277.533359
1277.533097
1277.532858
1277.531716
1277.533181
1277.533395
1277.532769
1277.533349
1277.53325
1277.533329
1277.533079
1277.532901
1277.531731
1277.533168
1277.533389
1277.532767
1277.533314
1277.533253
1277.533281
1277.533065
1277.532902
1277.531703
1277.533178
1277.533421
1277.532763
1277.533297
1277.533232
1277.533248
1277.533023
1277.532874
1277.53166
1277.533154
1277.533438
1277.532755
1277.533269
1277.533179
1277.533188
1277.532944
1277.5328
1277.531621
1277.533156
1277.533425
1277.532733
1277.533229
1277.533095
1277.533034
1277.532772
1277.532663
1277.531549
1277.533141
1277.533394
)
;
    }
    inlet
    {
        type            calculated;
        value           nonuniform List<scalar> 
81
(
1277.533046
1277.533497
1277.532587
1277.532794
1277.533166
1277.533242
1277.533136
1277.532703
1277.532974
1277.533726
1277.533099
1277.532894
1277.533195
1277.5347
1277.534142
1277.533123
1277.533066
1277.533832
1277.532822
1277.532683
1277.533792
1277.532539
1277.533621
1277.532231
1277.531954
1277.533909
1277.533192
1277.532363
1277.534354
1277.534067
1277.534994
1277.533426
1277.532139
1277.533867
1277.532776
1277.533425
1277.533055
1277.533995
1277.533517
1277.533026
1277.533328
1277.533086
1277.532494
1277.532443
1277.533136
1277.534279
1277.533119
1277.533293
1277.532965
1277.533674
1277.534353
1277.533491
1277.532636
1277.533336
1277.532806
1277.53375
1277.53227
1277.532192
1277.534549
1277.533356
1277.533484
1277.533424
1277.532999
1277.532892
1277.53272
1277.533776
1277.533781
1277.533457
1277.534287
1277.532362
1277.533022
1277.533881
1277.532793
1277.53333
1277.533232
1277.533363
1277.533088
1277.532852
1277.53168
1277.533222
1277.533409
)
;
    }
    outlet
    {
        type            calculated;
        value           nonuniform 0();
    }
    procBoundary0to1
    {
        type            processor;
        value           nonuniform List<scalar> 
97
(
1277.532826
1277.533661
1277.533294
1277.532132
1277.531933
1277.532002
1277.532397
1277.532612
1277.532446
1277.532867
1277.533661
1277.533661
1277.532542
1277.53208
1277.5318
1277.530902
1277.531397
1277.531891
1277.531951
1277.532589
1277.533536
1277.532469
1277.53208
1277.53208
1277.53085
1277.529901
1277.525618
1277.521705
1277.525466
1277.529011
1277.532801
1277.53259
1277.531837
1277.533111
1277.529901
1277.529901
1277.514793
1277.491035
1277.487177
1277.511835
1277.527008
1277.530541
1277.532507
1277.532345
1277.532091
1277.525417
1277.491035
1277.491035
1276.822564
1277.491747
1277.486868
1277.520079
1277.520523
1277.529214
1277.532022
1277.53386
1277.531918
1277.529057
1277.518788
1277.491747
1277.520079
1277.520079
1277.526487
1277.531798
1277.530414
1277.532445
1277.532456
1277.533038
1277.530518
1277.528014
1277.526263
1277.52909
1277.531798
1277.531798
1277.532356
1277.532703
1277.532433
1277.532705
1277.532513
1277.533187
1277.532549
1277.531464
1277.532868
1277.53181
1277.532703
1277.532703
1277.533469
1277.533371
1277.532674
1277.533142
1277.53294
1277.532796
1277.532404
1277.532387
1277.531393
1277.533058
1277.533371
)
;
    }
}


// ************************************************************************* //
