/*--------------------------------*- C++ -*----------------------------------*\
| =========                 |                                                 |
| \\      /  F ield         | OpenFOAM: The Open Source CFD Toolbox           |
|  \\    /   O peration     | Version:  4.x                                   |
|   \\  /    A nd           | Web:      www.OpenFOAM.org                      |
|    \\/     M anipulation  |                                                 |
\*---------------------------------------------------------------------------*/
FoamFile
{
    version     2.0;
    format      ascii;
    class       volScalarField;
    location    "9000";
    object      H2;
}
// * * * * * * * * * * * * * * * * * * * * * * * * * * * * * * * * * * * * * //

dimensions      [0 0 0 0 0 0 0];

internalField   nonuniform List<scalar> 
1175
(
0.00446382317
0.00446382317
0.00446382317
0.00446382317
0.004463823169
0.004463823166
0.004463823156
0.004463823124
0.004463823024
0.004463822728
0.004463821901
0.004463819741
0.004463814552
0.004463803257
0.004463781335
0.00446382317
0.00446382317
0.00446382317
0.00446382317
0.004463823169
0.004463823165
0.004463823152
0.004463823107
0.004463822964
0.004463822524
0.004463821243
0.004463817766
0.004463809123
0.004463789912
0.004463752633
0.00446382317
0.00446382317
0.00446382317
0.00446382317
0.004463823168
0.004463823163
0.004463823144
0.004463823077
0.004463822854
0.004463822137
0.004463819948
0.004463813726
0.004463797612
0.004463760756
0.004463689086
0.00446382317
0.00446382317
0.00446382317
0.00446382317
0.004463823168
0.004463823161
0.004463823136
0.004463823046
0.004463822732
0.004463821686
0.004463818358
0.004463808477
0.004463781778
0.004463718633
0.004463595006
0.00446382317
0.00446382317
0.00446382317
0.00446382317
0.004463823168
0.00446382316
0.004463823132
0.004463823031
0.004463822673
0.004463821452
0.00446381748
0.00446380535
0.00446377152
0.004463689037
0.004463525593
0.00446382317
0.00446382317
0.00446382317
0.00446382317
0.004463823168
0.004463823161
0.004463823136
0.004463823046
0.004463822732
0.004463821686
0.004463818358
0.004463808477
0.004463781779
0.004463718633
0.004463595007
0.00446382317
0.00446382317
0.00446382317
0.00446382317
0.004463823168
0.004463823163
0.004463823144
0.004463823077
0.004463822854
0.004463822137
0.004463819948
0.004463813726
0.004463797612
0.004463760757
0.004463689088
0.00446382317
0.00446382317
0.00446382317
0.00446382317
0.004463823169
0.004463823165
0.004463823152
0.004463823107
0.004463822964
0.004463822524
0.004463821243
0.004463817766
0.004463809124
0.004463789913
0.004463752635
0.00446382317
0.00446382317
0.00446382317
0.00446382317
0.004463823169
0.004463823166
0.004463823156
0.004463823124
0.004463823024
0.004463822728
0.004463821901
0.004463819742
0.004463814552
0.004463803258
0.004463781336
0.00446382317
0.00446382317
0.00446382317
0.00446382317
0.004463823169
0.004463823165
0.004463823152
0.004463823107
0.004463822964
0.004463822524
0.004463821243
0.004463817765
0.004463809123
0.004463789911
0.00446382317
0.00446382317
0.00446382317
0.00446382317
0.004463823168
0.004463823163
0.004463823145
0.00446382308
0.004463822863
0.00446382216
0.004463819996
0.004463813792
0.004463797593
0.004463760314
0.004463687764
0.00446382317
0.00446382317
0.00446382317
0.00446382317
0.004463823168
0.00446382316
0.004463823132
0.004463823031
0.004463822669
0.004463821424
0.004463817348
0.004463804886
0.004463770285
0.004463686779
0.004463522656
0.00446382317
0.00446382317
0.00446382317
0.004463823169
0.004463823167
0.004463823157
0.004463823119
0.004463822975
0.004463822436
0.004463820488
0.004463813727
0.004463791675
0.004463726163
0.004463558099
0.004463219796
0.00446382317
0.00446382317
0.00446382317
0.004463823169
0.004463823167
0.004463823156
0.004463823113
0.004463822947
0.004463822313
0.00446381995
0.004463811434
0.004463782291
0.004463690445
0.004463438779
0.004462909291
0.00446382317
0.00446382317
0.00446382317
0.004463823169
0.004463823167
0.004463823157
0.004463823119
0.004463822975
0.004463822436
0.004463820488
0.004463813727
0.004463791675
0.004463726164
0.004463558102
0.004463219802
0.00446382317
0.00446382317
0.00446382317
0.00446382317
0.004463823168
0.00446382316
0.004463823132
0.004463823031
0.004463822669
0.004463821424
0.004463817349
0.004463804887
0.004463770286
0.004463686782
0.004463522663
0.00446382317
0.00446382317
0.00446382317
0.00446382317
0.004463823168
0.004463823163
0.004463823145
0.00446382308
0.004463822863
0.00446382216
0.004463819996
0.004463813793
0.004463797593
0.004463760316
0.00446368777
0.00446382317
0.00446382317
0.00446382317
0.00446382317
0.004463823169
0.004463823165
0.004463823152
0.004463823107
0.004463822964
0.004463822524
0.004463821243
0.004463817766
0.004463809124
0.004463789913
0.004463752634
0.00446382317
0.00446382317
0.00446382317
0.00446382317
0.004463823168
0.004463823163
0.004463823144
0.004463823077
0.004463822854
0.004463822137
0.004463819948
0.004463813726
0.004463797611
0.004463760754
0.00446382317
0.00446382317
0.00446382317
0.00446382317
0.004463823168
0.00446382316
0.004463823132
0.004463823031
0.004463822669
0.004463821424
0.004463817348
0.004463804886
0.004463770284
0.004463686776
0.00446382317
0.00446382317
0.00446382317
0.004463823169
0.004463823167
0.004463823155
0.004463823111
0.00446382294
0.004463822289
0.004463819881
0.004463811342
0.004463782905
0.004463696844
0.004463472953
0.00446302038
0.00446382317
0.00446382317
0.00446382317
0.004463823169
0.004463823165
0.00446382315
0.004463823087
0.004463822831
0.0044638218
0.004463817721
0.004463802085
0.004463745118
0.004463554487
0.004463004964
0.004461820561
0.00446382317
0.00446382317
0.00446382317
0.004463823169
0.004463823165
0.004463823148
0.004463823075
0.004463822773
0.004463821515
0.004463816319
0.004463795223
0.00446371228
0.00446340551
0.004462402517
0.00445995263
0.00446382317
0.00446382317
0.00446382317
0.004463823169
0.004463823165
0.00446382315
0.004463823087
0.004463822831
0.0044638218
0.004463817721
0.004463802085
0.004463745119
0.004463554492
0.00446300498
0.004461820599
0.00446382317
0.00446382317
0.00446382317
0.004463823169
0.004463823167
0.004463823155
0.004463823111
0.00446382294
0.004463822289
0.004463819881
0.004463811342
0.004463782906
0.004463696848
0.004463472966
0.004463020414
0.00446382317
0.00446382317
0.00446382317
0.00446382317
0.004463823168
0.00446382316
0.004463823132
0.004463823031
0.004463822669
0.004463821424
0.004463817349
0.004463804886
0.004463770286
0.004463686782
0.004463522663
0.00446382317
0.00446382317
0.00446382317
0.00446382317
0.004463823168
0.004463823163
0.004463823144
0.004463823077
0.004463822854
0.004463822137
0.004463819948
0.004463813726
0.004463797612
0.004463760757
0.004463689088
0.00446382317
0.00446382317
0.00446382317
0.00446382317
0.004463823168
0.004463823161
0.004463823136
0.004463823046
0.004463822732
0.004463821685
0.004463818358
0.004463808477
0.004463781777
0.004463718629
0.00446382317
0.00446382317
0.00446382317
0.00446382317
0.004463823167
0.004463823157
0.004463823119
0.004463822975
0.004463822436
0.004463820488
0.004463813726
0.004463791674
0.00446372616
0.00446355809
0.00446382317
0.00446382317
0.00446382317
0.004463823169
0.004463823165
0.00446382315
0.004463823087
0.004463822831
0.0044638218
0.004463817721
0.004463802084
0.004463745117
0.004463554482
0.004463004941
0.00446382317
0.00446382317
0.00446382317
0.004463823169
0.004463823164
0.004463823142
0.00446382305
0.004463822649
0.004463820918
0.00446381346
0.004463781788
0.004463651305
0.004463145899
0.004461423442
0.004457098889
0.00446382317
0.00446382317
0.00446382317
0.004463823169
0.004463823163
0.004463823139
0.00446382303
0.004463822545
0.00446382035
0.004463810303
0.004463763861
0.004463548698
0.004462567648
0.004458372567
0.004444078147
0.00446382317
0.00446382317
0.00446382317
0.004463823169
0.004463823164
0.004463823142
0.00446382305
0.004463822649
0.004463820918
0.00446381346
0.004463781789
0.004463651309
0.004463145916
0.004461423506
0.004457099094
0.00446382317
0.00446382317
0.00446382317
0.004463823169
0.004463823165
0.00446382315
0.004463823087
0.004463822831
0.0044638218
0.004463817721
0.004463802085
0.004463745119
0.004463554491
0.004463004976
0.004461820594
0.00446382317
0.00446382317
0.00446382317
0.004463823169
0.004463823167
0.004463823157
0.004463823119
0.004463822975
0.004463822436
0.004463820488
0.004463813727
0.004463791675
0.004463726164
0.004463558103
0.004463219805
0.00446382317
0.00446382317
0.00446382317
0.00446382317
0.004463823168
0.004463823161
0.004463823136
0.004463823046
0.004463822732
0.004463821686
0.004463818358
0.004463808477
0.004463781779
0.004463718634
0.004463595008
0.00446382317
0.00446382317
0.00446382317
0.00446382317
0.004463823168
0.00446382316
0.004463823132
0.004463823031
0.004463822673
0.004463821452
0.00446381748
0.00446380535
0.004463771518
0.004463689033
0.00446382317
0.00446382317
0.00446382317
0.004463823169
0.004463823167
0.004463823156
0.004463823113
0.004463822947
0.004463822313
0.00446381995
0.004463811434
0.00446378229
0.004463690441
0.004463438767
0.00446382317
0.00446382317
0.00446382317
0.004463823169
0.004463823165
0.004463823148
0.004463823075
0.004463822773
0.004463821515
0.004463816319
0.004463795222
0.004463712278
0.004463405499
0.004462402474
0.00446382317
0.00446382317
0.00446382317
0.004463823169
0.004463823163
0.004463823139
0.00446382303
0.004463822545
0.00446382035
0.004463810302
0.00446376386
0.004463548695
0.004462567626
0.004458372411
0.00446382317
0.00446382317
0.00446382317
0.004463823168
0.004463823162
0.004463823134
0.004463823005
0.004463822407
0.00446381954
0.004463805293
0.004463731073
0.00446332122
0.004460897044
0.004445432163
0.004338521472
0.00446382317
0.00446382317
0.00446382317
0.004463823169
0.004463823163
0.004463823139
0.00446382303
0.004463822545
0.00446382035
0.004463810303
0.004463763861
0.004463548698
0.004462567647
0.004458372559
0.004444078135
0.00446382317
0.00446382317
0.00446382317
0.004463823169
0.004463823165
0.004463823148
0.004463823075
0.004463822773
0.004463821515
0.004463816319
0.004463795223
0.00446371228
0.00446340551
0.004462402519
0.004459952638
0.00446382317
0.00446382317
0.00446382317
0.004463823169
0.004463823167
0.004463823156
0.004463823113
0.004463822947
0.004463822313
0.00446381995
0.004463811434
0.004463782292
0.004463690446
0.004463438782
0.004462909299
0.00446382317
0.00446382317
0.00446382317
0.00446382317
0.004463823168
0.00446382316
0.004463823132
0.004463823031
0.004463822673
0.004463821452
0.00446381748
0.00446380535
0.00446377152
0.004463689038
0.004463525596
0.00446382317
0.00446382317
0.00446382317
0.00446382317
0.004463823168
0.004463823161
0.004463823136
0.004463823046
0.004463822732
0.004463821685
0.004463818358
0.004463808477
0.004463781777
0.00446371863
0.00446382317
0.00446382317
0.00446382317
0.00446382317
0.004463823167
0.004463823157
0.004463823119
0.004463822975
0.004463822436
0.004463820488
0.004463813727
0.004463791674
0.004463726161
0.004463558093
0.00446382317
0.00446382317
0.00446382317
0.004463823169
0.004463823165
0.00446382315
0.004463823087
0.004463822831
0.0044638218
0.004463817721
0.004463802085
0.004463745117
0.004463554483
0.00446300495
0.00446382317
0.00446382317
0.00446382317
0.004463823169
0.004463823164
0.004463823142
0.00446382305
0.004463822649
0.004463820918
0.00446381346
0.004463781788
0.004463651304
0.004463145896
0.004461423424
0.00446382317
0.00446382317
0.00446382317
0.004463823169
0.004463823163
0.004463823139
0.00446382303
0.004463822545
0.00446382035
0.004463810302
0.00446376386
0.004463548693
0.00446256762
0.004458372393
0.00446382317
0.00446382317
0.00446382317
0.004463823169
0.004463823164
0.004463823142
0.00446382305
0.004463822649
0.004463820918
0.00446381346
0.004463781788
0.004463651304
0.004463145895
0.004461423421
0.00446382317
0.00446382317
0.00446382317
0.004463823169
0.004463823165
0.00446382315
0.004463823087
0.004463822831
0.0044638218
0.004463817721
0.004463802085
0.004463745117
0.004463554485
0.004463004957
0.00446182054
0.00446382317
0.00446382317
0.00446382317
0.00446382317
0.004463823167
0.004463823157
0.004463823119
0.004463822975
0.004463822436
0.004463820488
0.004463813727
0.004463791675
0.004463726163
0.004463558099
0.004463219795
0.00446382317
0.00446382317
0.00446382317
0.00446382317
0.004463823168
0.004463823161
0.004463823136
0.004463823046
0.004463822732
0.004463821686
0.004463818358
0.004463808477
0.004463781778
0.004463718633
0.004463595006
0.00446382317
0.00446382317
0.00446382317
0.00446382317
0.004463823168
0.004463823163
0.004463823144
0.004463823077
0.004463822854
0.004463822137
0.004463819948
0.004463813726
0.004463797612
0.004463760755
0.00446382317
0.00446382317
0.00446382317
0.00446382317
0.004463823168
0.00446382316
0.004463823132
0.004463823031
0.004463822669
0.004463821424
0.004463817348
0.004463804886
0.004463770284
0.004463686777
0.00446382317
0.00446382317
0.00446382317
0.004463823169
0.004463823167
0.004463823155
0.004463823111
0.00446382294
0.004463822289
0.004463819881
0.004463811342
0.004463782905
0.004463696844
0.004463472954
0.00446382317
0.00446382317
0.00446382317
0.004463823169
0.004463823165
0.00446382315
0.004463823087
0.004463822831
0.0044638218
0.004463817721
0.004463802085
0.004463745117
0.004463554483
0.004463004951
0.00446382317
0.00446382317
0.00446382317
0.004463823169
0.004463823165
0.004463823148
0.004463823075
0.004463822773
0.004463821515
0.004463816319
0.004463795222
0.004463712277
0.004463405496
0.004462402467
0.00446382317
0.00446382317
0.00446382317
0.004463823169
0.004463823165
0.00446382315
0.004463823087
0.004463822831
0.0044638218
0.004463817721
0.004463802084
0.004463745116
0.004463554481
0.004463004947
0.00446382317
0.00446382317
0.00446382317
0.004463823169
0.004463823167
0.004463823155
0.004463823111
0.00446382294
0.004463822289
0.004463819881
0.004463811342
0.004463782905
0.004463696843
0.00446347295
0.00446382317
0.00446382317
0.00446382317
0.00446382317
0.004463823168
0.00446382316
0.004463823132
0.004463823031
0.004463822669
0.004463821424
0.004463817348
0.004463804886
0.004463770284
0.004463686778
0.004463522653
0.00446382317
0.00446382317
0.00446382317
0.00446382317
0.004463823168
0.004463823163
0.004463823144
0.004463823077
0.004463822854
0.004463822137
0.004463819948
0.004463813726
0.004463797612
0.004463760756
0.004463689086
0.00446382317
0.00446382317
0.00446382317
0.00446382317
0.004463823169
0.004463823165
0.004463823152
0.004463823107
0.004463822964
0.004463822524
0.004463821243
0.004463817765
0.004463809123
0.004463789912
0.00446382317
0.00446382317
0.00446382317
0.00446382317
0.004463823168
0.004463823163
0.004463823145
0.00446382308
0.004463822863
0.00446382216
0.004463819996
0.004463813792
0.004463797593
0.004463760314
0.00446382317
0.00446382317
0.00446382317
0.00446382317
0.004463823168
0.00446382316
0.004463823132
0.004463823031
0.004463822669
0.004463821424
0.004463817348
0.004463804886
0.004463770284
0.004463686777
0.00446382317
0.00446382317
0.00446382317
0.00446382317
0.004463823167
0.004463823157
0.004463823119
0.004463822975
0.004463822436
0.004463820488
0.004463813726
0.004463791674
0.004463726161
0.004463558093
0.00446382317
0.00446382317
0.00446382317
0.004463823169
0.004463823167
0.004463823156
0.004463823113
0.004463822947
0.004463822313
0.00446381995
0.004463811434
0.00446378229
0.004463690441
0.004463438767
0.00446382317
0.00446382317
0.00446382317
0.00446382317
0.004463823167
0.004463823157
0.004463823119
0.004463822975
0.004463822436
0.004463820488
0.004463813726
0.004463791674
0.00446372616
0.004463558092
0.00446382317
0.00446382317
0.00446382317
0.00446382317
0.004463823168
0.00446382316
0.004463823132
0.004463823031
0.004463822669
0.004463821424
0.004463817348
0.004463804886
0.004463770284
0.004463686777
0.00446382317
0.00446382317
0.00446382317
0.00446382317
0.004463823168
0.004463823163
0.004463823145
0.00446382308
0.004463822863
0.00446382216
0.004463819996
0.004463813792
0.004463797592
0.004463760313
0.00446382317
0.00446382317
0.00446382317
0.00446382317
0.004463823169
0.004463823165
0.004463823152
0.004463823107
0.004463822964
0.004463822524
0.004463821243
0.004463817765
0.004463809123
0.004463789912
0.004463752632
0.00446382317
0.00446382317
0.00446382317
0.00446382317
0.004463823169
0.004463823166
0.004463823156
0.004463823124
0.004463823024
0.004463822728
0.004463821901
0.004463819741
0.004463814552
0.004463803257
0.00446382317
0.00446382317
0.00446382317
0.00446382317
0.004463823169
0.004463823165
0.004463823152
0.004463823107
0.004463822964
0.004463822524
0.004463821243
0.004463817765
0.004463809123
0.004463789912
0.00446382317
0.00446382317
0.00446382317
0.00446382317
0.004463823168
0.004463823163
0.004463823144
0.004463823077
0.004463822854
0.004463822137
0.004463819948
0.004463813726
0.004463797612
0.004463760755
0.00446382317
0.00446382317
0.00446382317
0.00446382317
0.004463823168
0.004463823161
0.004463823136
0.004463823046
0.004463822732
0.004463821685
0.004463818358
0.004463808477
0.004463781777
0.00446371863
0.00446382317
0.00446382317
0.00446382317
0.00446382317
0.004463823168
0.00446382316
0.004463823132
0.004463823031
0.004463822673
0.004463821452
0.00446381748
0.00446380535
0.004463771518
0.004463689033
0.00446382317
0.00446382317
0.00446382317
0.00446382317
0.004463823168
0.004463823161
0.004463823136
0.004463823046
0.004463822732
0.004463821685
0.004463818358
0.004463808477
0.004463781777
0.00446371863
0.00446382317
0.00446382317
0.00446382317
0.00446382317
0.004463823168
0.004463823163
0.004463823144
0.004463823077
0.004463822854
0.004463822137
0.004463819948
0.004463813726
0.004463797612
0.004463760755
0.00446382317
0.00446382317
0.00446382317
0.00446382317
0.004463823169
0.004463823165
0.004463823152
0.004463823107
0.004463822964
0.004463822524
0.004463821243
0.004463817765
0.004463809123
0.004463789912
0.00446382317
0.00446382317
0.00446382317
0.00446382317
0.004463823169
0.004463823166
0.004463823156
0.004463823124
0.004463823024
0.004463822728
0.004463821901
0.004463819741
0.004463814551
0.004463803257
)
;

boundaryField
{
    top
    {
        type            zeroGradient;
    }
    bottom
    {
        type            zeroGradient;
    }
    side-walls
    {
        type            zeroGradient;
    }
    inlet
    {
        type            zeroGradient;
    }
    outlet
    {
        type            zeroGradient;
    }
    procBoundary0to1
    {
        type            processor;
        value           nonuniform List<scalar> 
97
(
0.004463743651
0.004463752631
0.00446369036
0.00446357393
0.004463405718
0.004463287544
0.00446340572
0.004463573933
0.004463690363
0.004463743653
0.004463752631
0.004463752631
0.004463572164
0.00446352265
0.004463278512
0.004462764643
0.004462288214
0.004462764651
0.004463278522
0.004463572171
0.004463690362
0.004463689084
0.00446352265
0.00446352265
0.004462424617
0.004461820518
0.004460555644
0.004458149901
0.004460555687
0.004462424654
0.004463278523
0.004463573934
0.004463595003
0.004463219784
0.004461820518
0.004461820518
0.004454238789
0.004444077953
0.004442049838
0.004454238931
0.004460555683
0.004462764656
0.004463405722
0.00446352559
0.004462909281
0.004459952587
0.004444077953
0.004444077953
0.004390224445
0.004444077939
0.004442049849
0.004457098974
0.004458149919
0.004462288228
0.004463287549
0.004463595004
0.004463219794
0.004461820565
0.00445709901
0.004444077939
0.004457098974
0.004457098974
0.004460555647
0.004463020386
0.004462764647
0.00446340572
0.004463689086
0.004463522659
0.004463020402
0.004461820569
0.00445995258
0.004461820561
0.004463020386
0.004463020386
0.004463278513
0.004463687765
0.00446357393
0.004463752634
0.004463687768
0.004463522659
0.004463219795
0.004462909282
0.004463219793
0.004463522656
0.004463687765
0.004463687765
0.00446369036
0.004463781335
0.004463781336
0.004463752633
0.004463689086
0.004463595005
0.004463525591
0.004463595005
0.004463689087
0.004463752633
0.004463781335
)
;
    }
}


// ************************************************************************* //
