/*--------------------------------*- C++ -*----------------------------------*\
| =========                 |                                                 |
| \\      /  F ield         | OpenFOAM: The Open Source CFD Toolbox           |
|  \\    /   O peration     | Version:  4.x                                   |
|   \\  /    A nd           | Web:      www.OpenFOAM.org                      |
|    \\/     M anipulation  |                                                 |
\*---------------------------------------------------------------------------*/
FoamFile
{
    version     2.0;
    format      ascii;
    class       volScalarField;
    location    "9000";
    object      H2O;
}
// * * * * * * * * * * * * * * * * * * * * * * * * * * * * * * * * * * * * * //

dimensions      [0 0 0 0 0 0 0];

internalField   nonuniform List<scalar> 
1175
(
1.000041468e-05
1.000041422e-05
1.000041528e-05
1.000041758e-05
1.00004247e-05
1.000044997e-05
1.000053348e-05
1.000080304e-05
1.000163873e-05
1.000410877e-05
1.001101122e-05
1.002903751e-05
1.007236308e-05
1.016665846e-05
1.034970334e-05
1.000041584e-05
1.000041648e-05
1.000041655e-05
1.000041903e-05
1.000042774e-05
1.000045985e-05
1.00005713e-05
1.000094377e-05
1.000213645e-05
1.000580971e-05
1.001650095e-05
1.004552827e-05
1.011766713e-05
1.027804187e-05
1.058928425e-05
1.000041458e-05
1.000041545e-05
1.000041663e-05
1.00004199e-05
1.000043242e-05
1.000047703e-05
1.000063632e-05
1.000119187e-05
1.000305047e-05
1.000903973e-05
1.002730576e-05
1.007923853e-05
1.021373805e-05
1.052137797e-05
1.111968448e-05
1.00004148e-05
1.000041515e-05
1.000041594e-05
1.000042031e-05
1.000043615e-05
1.000049402e-05
1.000070473e-05
1.000145712e-05
1.000407004e-05
1.001280645e-05
1.004057864e-05
1.012304283e-05
1.034587264e-05
1.087291713e-05
1.190488286e-05
1.000041511e-05
1.000041553e-05
1.000041657e-05
1.000042128e-05
1.000043671e-05
1.000050028e-05
1.000073487e-05
1.000158103e-05
1.000456902e-05
1.001475393e-05
1.004790426e-05
1.014913577e-05
1.043147584e-05
1.111988641e-05
1.24841469e-05
1.000041608e-05
1.000041603e-05
1.000041675e-05
1.000042113e-05
1.000043564e-05
1.00004921e-05
1.000070386e-05
1.000145746e-05
1.000407091e-05
1.001280641e-05
1.004057822e-05
1.012304271e-05
1.034586947e-05
1.087290751e-05
1.19048597e-05
1.000041515e-05
1.000041649e-05
1.000041638e-05
1.000041949e-05
1.000043135e-05
1.000047665e-05
1.000063642e-05
1.000119075e-05
1.000305167e-05
1.000903955e-05
1.002730544e-05
1.007923643e-05
1.021373135e-05
1.052135997e-05
1.111964305e-05
1.000041598e-05
1.00004153e-05
1.000041605e-05
1.000041777e-05
1.000042713e-05
1.000046021e-05
1.000057211e-05
1.00009434e-05
1.000213636e-05
1.000581023e-05
1.001650018e-05
1.004552574e-05
1.011766064e-05
1.027802268e-05
1.05892411e-05
1.00004152e-05
1.000041526e-05
1.000041539e-05
1.000041756e-05
1.000042538e-05
1.000045008e-05
1.000053519e-05
1.000080414e-05
1.00016387e-05
1.000410838e-05
1.001101061e-05
1.002903594e-05
1.00723559e-05
1.016664088e-05
1.034966062e-05
1.000041546e-05
1.000041627e-05
1.000041668e-05
1.000041888e-05
1.00004271e-05
1.000046049e-05
1.000057018e-05
1.000094264e-05
1.00021365e-05
1.000581008e-05
1.001650088e-05
1.004553024e-05
1.011767593e-05
1.027807137e-05
1.000041531e-05
1.000041553e-05
1.000041629e-05
1.000041975e-05
1.000043137e-05
1.000047393e-05
1.000062891e-05
1.000116584e-05
1.000297817e-05
1.000885094e-05
1.002690839e-05
1.007868975e-05
1.021390897e-05
1.052510035e-05
1.113079563e-05
1.000041555e-05
1.000041556e-05
1.000041664e-05
1.000042128e-05
1.000043704e-05
1.000049926e-05
1.000073182e-05
1.000158118e-05
1.000460364e-05
1.001499259e-05
1.004900427e-05
1.015301498e-05
1.044180395e-05
1.113879249e-05
1.250881507e-05
1.000041654e-05
1.000041586e-05
1.00004165e-05
1.00004226e-05
1.000044304e-05
1.000052579e-05
1.00008424e-05
1.000204852e-05
1.000654123e-05
1.002280323e-05
1.00792273e-05
1.026325822e-05
1.080998594e-05
1.221261291e-05
1.503629621e-05
1.000041662e-05
1.000041646e-05
1.000041785e-05
1.000042296e-05
1.000044627e-05
1.000053773e-05
1.000089558e-05
1.000228137e-05
1.000757037e-05
1.002729033e-05
1.009835724e-05
1.034155565e-05
1.110802165e-05
1.320822744e-05
1.762726982e-05
1.000041632e-05
1.000041582e-05
1.000041639e-05
1.000042249e-05
1.000044348e-05
1.000052539e-05
1.000084239e-05
1.000204744e-05
1.000654223e-05
1.002280436e-05
1.007922638e-05
1.026325453e-05
1.080997172e-05
1.22125616e-05
1.503616214e-05
1.000041549e-05
1.00004169e-05
1.000041711e-05
1.000042114e-05
1.00004364e-05
1.000049927e-05
1.00007317e-05
1.000157963e-05
1.000460301e-05
1.00149921e-05
1.004900128e-05
1.015300678e-05
1.044178109e-05
1.113872388e-05
1.250864313e-05
1.00004155e-05
1.000041633e-05
1.000041672e-05
1.000041965e-05
1.000043072e-05
1.000047456e-05
1.00006287e-05
1.000116533e-05
1.000297892e-05
1.000885091e-05
1.002690742e-05
1.007868526e-05
1.021389211e-05
1.052504292e-05
1.113064608e-05
1.000041447e-05
1.00004155e-05
1.000041597e-05
1.000041787e-05
1.000042717e-05
1.000046031e-05
1.000057198e-05
1.000094311e-05
1.000213756e-05
1.000580889e-05
1.001649964e-05
1.004552712e-05
1.011766272e-05
1.027802424e-05
1.058924297e-05
1.000041508e-05
1.000041499e-05
1.000041651e-05
1.000041965e-05
1.000043145e-05
1.000047655e-05
1.000063658e-05
1.000119114e-05
1.000305163e-05
1.000903969e-05
1.002730777e-05
1.007924488e-05
1.021376124e-05
1.052145241e-05
1.000041558e-05
1.000041556e-05
1.000041602e-05
1.00004214e-05
1.000043772e-05
1.000049976e-05
1.000073231e-05
1.000158075e-05
1.000460274e-05
1.001499385e-05
1.004900602e-05
1.015302157e-05
1.044183389e-05
1.113891468e-05
1.000041557e-05
1.00004165e-05
1.000041677e-05
1.000042241e-05
1.000044575e-05
1.000053913e-05
1.000090684e-05
1.000233477e-05
1.000776891e-05
1.002786736e-05
1.009913115e-05
1.033645364e-05
1.10546997e-05
1.292334135e-05
1.670105632e-05
1.000041563e-05
1.000041659e-05
1.000041803e-05
1.000042532e-05
1.000045629e-05
1.000058412e-05
1.000110868e-05
1.000324351e-05
1.001185035e-05
1.004588927e-05
1.017637578e-05
1.065176341e-05
1.224257862e-05
1.682845421e-05
2.671331413e-05
1.000041767e-05
1.000041694e-05
1.000041838e-05
1.000042635e-05
1.000046027e-05
1.000060397e-05
1.000120716e-05
1.000372775e-05
1.001422667e-05
1.00575885e-05
1.023363235e-05
1.092575359e-05
1.348558202e-05
2.185497836e-05
4.229876336e-05
1.000041655e-05
1.000041589e-05
1.000041776e-05
1.000042552e-05
1.000045768e-05
1.00005839e-05
1.000110759e-05
1.000324326e-05
1.001185017e-05
1.004588856e-05
1.017637215e-05
1.065174644e-05
1.224250656e-05
1.682816512e-05
2.671246274e-05
1.000041573e-05
1.000041501e-05
1.000041705e-05
1.000042316e-05
1.000044641e-05
1.000054002e-05
1.000090694e-05
1.000233428e-05
1.000776804e-05
1.002786523e-05
1.009912587e-05
1.033643583e-05
1.105462288e-05
1.292304942e-05
1.670018554e-05
1.000041591e-05
1.000041657e-05
1.000041701e-05
1.000042161e-05
1.000043686e-05
1.00004998e-05
1.000073172e-05
1.000158137e-05
1.0004603e-05
1.001499324e-05
1.004900255e-05
1.015301039e-05
1.044178699e-05
1.113873159e-05
1.250864761e-05
1.000041466e-05
1.000041535e-05
1.000041675e-05
1.000042005e-05
1.000043198e-05
1.000047764e-05
1.000063627e-05
1.000119219e-05
1.000305229e-05
1.000904089e-05
1.002730639e-05
1.007923848e-05
1.02137351e-05
1.052136619e-05
1.11196458e-05
1.000041438e-05
1.000041535e-05
1.000041675e-05
1.000041976e-05
1.0000435e-05
1.000049299e-05
1.000070363e-05
1.000145689e-05
1.000407113e-05
1.001280904e-05
1.00405829e-05
1.012305709e-05
1.03459201e-05
1.087306222e-05
1.000041661e-05
1.000041609e-05
1.000041616e-05
1.000042232e-05
1.000044346e-05
1.000052523e-05
1.000084145e-05
1.000204793e-05
1.000654253e-05
1.002280561e-05
1.007923336e-05
1.026328319e-05
1.081008229e-05
1.221295698e-05
1.000041669e-05
1.000041668e-05
1.000041784e-05
1.000042462e-05
1.000045643e-05
1.000058329e-05
1.000110712e-05
1.00032435e-05
1.001185014e-05
1.004589092e-05
1.017638521e-05
1.065180039e-05
1.22427511e-05
1.682925429e-05
1.000041615e-05
1.000041594e-05
1.000041838e-05
1.000042756e-05
1.00004698e-05
1.000064886e-05
1.00014212e-05
1.000476214e-05
1.001921489e-05
1.008144814e-05
1.03457423e-05
1.143458928e-05
1.565202789e-05
3.002558726e-05
6.611551447e-05
1.000041643e-05
1.000041705e-05
1.000041839e-05
1.000042951e-05
1.000047577e-05
1.000068144e-05
1.000158632e-05
1.000563362e-05
1.002394719e-05
1.010779344e-05
1.049532303e-05
1.229067515e-05
2.047651125e-05
5.547944562e-05
0.0001747495464
1.000041517e-05
1.000041546e-05
1.00004181e-05
1.00004284e-05
1.000047019e-05
1.000064886e-05
1.000142118e-05
1.000476131e-05
1.00192144e-05
1.00814466e-05
1.034573149e-05
1.14345334e-05
1.565174601e-05
3.002420744e-05
6.610994603e-05
1.000041591e-05
1.000041624e-05
1.000041774e-05
1.00004253e-05
1.000045554e-05
1.000058315e-05
1.000110789e-05
1.000324242e-05
1.001184975e-05
1.004588893e-05
1.017637633e-05
1.065176022e-05
1.224254608e-05
1.682825286e-05
2.671254044e-05
1.000041586e-05
1.00004155e-05
1.000041671e-05
1.000042256e-05
1.000044241e-05
1.000052558e-05
1.000084182e-05
1.000204866e-05
1.000654195e-05
1.002280478e-05
1.007922915e-05
1.026326064e-05
1.080998616e-05
1.221258357e-05
1.503616157e-05
1.000041542e-05
1.000041627e-05
1.000041657e-05
1.000041968e-05
1.000043619e-05
1.000049249e-05
1.000070416e-05
1.000145719e-05
1.000407156e-05
1.001280684e-05
1.004058032e-05
1.012304605e-05
1.034587747e-05
1.087291749e-05
1.19048595e-05
1.000041582e-05
1.000041609e-05
1.000041616e-05
1.00004208e-05
1.000043615e-05
1.000049937e-05
1.000073394e-05
1.000158029e-05
1.000456993e-05
1.001475655e-05
1.004790964e-05
1.014915619e-05
1.043154354e-05
1.112008704e-05
1.000041598e-05
1.000041612e-05
1.000041788e-05
1.00004231e-05
1.000044554e-05
1.000053693e-05
1.000089486e-05
1.000228117e-05
1.000757157e-05
1.002729333e-05
1.009836779e-05
1.034159499e-05
1.110818009e-05
1.320879035e-05
1.000041625e-05
1.000041513e-05
1.000041794e-05
1.000042613e-05
1.000046132e-05
1.000060572e-05
1.000120819e-05
1.000372742e-05
1.001422755e-05
1.005759112e-05
1.023365096e-05
1.092584208e-05
1.348601223e-05
2.185693865e-05
1.000041522e-05
1.000041586e-05
1.000041941e-05
1.000042943e-05
1.000047488e-05
1.000068032e-05
1.000158629e-05
1.000563324e-05
1.002394813e-05
1.010779688e-05
1.04953446e-05
1.229081229e-05
2.047739104e-05
5.548543425e-05
1.00004159e-05
1.000041643e-05
1.00004184e-05
1.000043001e-05
1.000048305e-05
1.000071871e-05
1.000179254e-05
1.000678505e-05
1.00307057e-05
1.014959324e-05
1.076890727e-05
1.418869129e-05
3.441512278e-05
0.0001634444087
0.001055419268
1.00004152e-05
1.000041596e-05
1.000041841e-05
1.000042819e-05
1.000047527e-05
1.000068035e-05
1.000158571e-05
1.000563299e-05
1.002394748e-05
1.010779585e-05
1.049533593e-05
1.229073477e-05
2.047678317e-05
5.548044999e-05
0.0001747504497
1.000041535e-05
1.000041505e-05
1.000041827e-05
1.000042505e-05
1.000045979e-05
1.000060308e-05
1.000120676e-05
1.000372715e-05
1.001422693e-05
1.005758965e-05
1.023364091e-05
1.092578796e-05
1.348569458e-05
2.185526052e-05
4.229890183e-05
1.000041573e-05
1.000041552e-05
1.000041592e-05
1.00004224e-05
1.000044459e-05
1.000053674e-05
1.000089539e-05
1.000228186e-05
1.000757095e-05
1.002729239e-05
1.009836158e-05
1.034156835e-05
1.110805432e-05
1.320828696e-05
1.762726895e-05
1.000041506e-05
1.000041575e-05
1.000041589e-05
1.00004205e-05
1.000043809e-05
1.000050126e-05
1.000073477e-05
1.000158163e-05
1.000457009e-05
1.001475607e-05
1.004790718e-05
1.014914354e-05
1.04314909e-05
1.111990744e-05
1.2484151e-05
1.000041461e-05
1.000041489e-05
1.000041556e-05
1.000041973e-05
1.000043471e-05
1.00004923e-05
1.00007025e-05
1.000145619e-05
1.000407051e-05
1.001280833e-05
1.004058445e-05
1.012306028e-05
1.034592718e-05
1.087306838e-05
1.000041494e-05
1.000041456e-05
1.00004163e-05
1.000042207e-05
1.00004427e-05
1.000052565e-05
1.000084198e-05
1.000204856e-05
1.000654204e-05
1.002280544e-05
1.007923482e-05
1.026328861e-05
1.081009846e-05
1.221296074e-05
1.000041597e-05
1.000041568e-05
1.000041688e-05
1.000042462e-05
1.000045652e-05
1.000058376e-05
1.000110805e-05
1.000324287e-05
1.001184989e-05
1.004589211e-05
1.017639148e-05
1.065182771e-05
1.224283757e-05
1.682938157e-05
1.000041565e-05
1.000041666e-05
1.000041777e-05
1.000042732e-05
1.000046855e-05
1.000064885e-05
1.000142138e-05
1.000476146e-05
1.001921556e-05
1.008145142e-05
1.034575934e-05
1.143468021e-05
1.56524562e-05
3.002744421e-05
1.000041514e-05
1.000041591e-05
1.000041738e-05
1.0000429e-05
1.000047488e-05
1.000068017e-05
1.000158581e-05
1.000563229e-05
1.002394785e-05
1.010780151e-05
1.049536055e-05
1.229088101e-05
2.047767922e-05
5.548637017e-05
1.000041507e-05
1.000041568e-05
1.000041766e-05
1.000042826e-05
1.000047021e-05
1.000064862e-05
1.000142004e-05
1.000476142e-05
1.001921565e-05
1.008145259e-05
1.034575943e-05
1.143466193e-05
1.565234207e-05
3.002697365e-05
1.000041366e-05
1.000041492e-05
1.000041571e-05
1.00004247e-05
1.000045593e-05
1.000058309e-05
1.000110667e-05
1.000324232e-05
1.001185033e-05
1.004589114e-05
1.0176387e-05
1.065180387e-05
1.224271658e-05
1.682884867e-05
2.671439254e-05
1.000041419e-05
1.000041525e-05
1.000041635e-05
1.000042225e-05
1.000044194e-05
1.000052525e-05
1.000084318e-05
1.000204859e-05
1.000654297e-05
1.002280708e-05
1.007923324e-05
1.026327333e-05
1.081003129e-05
1.221271362e-05
1.503645409e-05
1.000041444e-05
1.000041511e-05
1.000041561e-05
1.000042065e-05
1.000043666e-05
1.000049338e-05
1.000070452e-05
1.000145794e-05
1.000407139e-05
1.001280915e-05
1.004058315e-05
1.0123052e-05
1.034589046e-05
1.087295164e-05
1.190492358e-05
1.000041293e-05
1.000041309e-05
1.000041414e-05
1.000041773e-05
1.000043001e-05
1.000047526e-05
1.000063511e-05
1.000118967e-05
1.000304993e-05
1.000903988e-05
1.002730821e-05
1.007924882e-05
1.021376676e-05
1.052145672e-05
1.000041405e-05
1.000041399e-05
1.000041408e-05
1.000041965e-05
1.000043632e-05
1.000049906e-05
1.000073034e-05
1.000157934e-05
1.000460301e-05
1.001499488e-05
1.004900796e-05
1.01530303e-05
1.044185592e-05
1.1138932e-05
1.00004144e-05
1.000041479e-05
1.00004154e-05
1.00004208e-05
1.000044519e-05
1.000053852e-05
1.000090597e-05
1.000233472e-05
1.000776899e-05
1.002786899e-05
1.009913814e-05
1.03364817e-05
1.105478591e-05
1.292357064e-05
1.000041465e-05
1.000041493e-05
1.000041714e-05
1.000042378e-05
1.000045485e-05
1.000058196e-05
1.000110618e-05
1.000324166e-05
1.001184979e-05
1.004589227e-05
1.017639319e-05
1.06518354e-05
1.2242855e-05
1.68293887e-05
1.000041498e-05
1.000041519e-05
1.000041679e-05
1.000042504e-05
1.000045867e-05
1.000060293e-05
1.000120586e-05
1.000372709e-05
1.001422861e-05
1.005759451e-05
1.023366091e-05
1.092588115e-05
1.348612367e-05
2.185710449e-05
1.000041417e-05
1.000041549e-05
1.000041658e-05
1.00004251e-05
1.000045544e-05
1.000058291e-05
1.000110685e-05
1.000324241e-05
1.001185034e-05
1.004589291e-05
1.017639425e-05
1.065183333e-05
1.224283677e-05
1.682931711e-05
1.000041396e-05
1.00004143e-05
1.000041548e-05
1.000042169e-05
1.000044552e-05
1.000053955e-05
1.000090744e-05
1.000233501e-05
1.00077698e-05
1.00278691e-05
1.009913772e-05
1.033647652e-05
1.105476615e-05
1.292354078e-05
1.000041415e-05
1.000041545e-05
1.000041551e-05
1.000041996e-05
1.000043601e-05
1.000049817e-05
1.000073208e-05
1.000158064e-05
1.000460396e-05
1.001499471e-05
1.004900766e-05
1.015302604e-05
1.044183277e-05
1.113886222e-05
1.250897217e-05
1.000041385e-05
1.000041359e-05
1.000041588e-05
1.000041909e-05
1.00004321e-05
1.000047699e-05
1.00006373e-05
1.000119163e-05
1.000305195e-05
1.000904074e-05
1.002730903e-05
1.007924575e-05
1.02137523e-05
1.052140612e-05
1.111972489e-05
1.000041321e-05
1.000041372e-05
1.000041446e-05
1.000041719e-05
1.000042624e-05
1.000045876e-05
1.000057106e-05
1.000094253e-05
1.000213499e-05
1.000580807e-05
1.001650099e-05
1.004553368e-05
1.011768099e-05
1.027807406e-05
1.000041308e-05
1.000041317e-05
1.000041378e-05
1.000041809e-05
1.000042995e-05
1.00004731e-05
1.000062739e-05
1.000116521e-05
1.000297754e-05
1.000885116e-05
1.002691027e-05
1.007869649e-05
1.021392679e-05
1.052513897e-05
1.000041407e-05
1.000041465e-05
1.000041517e-05
1.000041926e-05
1.000043599e-05
1.000049742e-05
1.000072939e-05
1.000157828e-05
1.000460231e-05
1.001499455e-05
1.004900884e-05
1.015303275e-05
1.044185782e-05
1.113893667e-05
1.000041375e-05
1.00004145e-05
1.000041554e-05
1.00004201e-05
1.000044052e-05
1.000052334e-05
1.000083981e-05
1.000204695e-05
1.000654215e-05
1.002280692e-05
1.007923761e-05
1.02632964e-05
1.081010953e-05
1.221296587e-05
1.000041406e-05
1.000041455e-05
1.000041644e-05
1.000042206e-05
1.000044444e-05
1.000053593e-05
1.000089391e-05
1.000228033e-05
1.000757145e-05
1.002729354e-05
1.009837155e-05
1.034160848e-05
1.110820858e-05
1.320880836e-05
1.00004129e-05
1.000041416e-05
1.000041625e-05
1.000042024e-05
1.000044244e-05
1.000052438e-05
1.000084103e-05
1.000204621e-05
1.000654125e-05
1.00228064e-05
1.007923683e-05
1.026329253e-05
1.081010455e-05
1.221294961e-05
1.000041383e-05
1.000041335e-05
1.000041471e-05
1.000041928e-05
1.000043575e-05
1.00004992e-05
1.000073227e-05
1.000158027e-05
1.000460327e-05
1.00149932e-05
1.004900745e-05
1.015302969e-05
1.044184945e-05
1.11389224e-05
1.000041357e-05
1.000041409e-05
1.00004146e-05
1.000041767e-05
1.000042941e-05
1.000047277e-05
1.000062761e-05
1.000116621e-05
1.00029796e-05
1.000885162e-05
1.002691087e-05
1.007869478e-05
1.021392142e-05
1.052513393e-05
1.000041289e-05
1.000041482e-05
1.000041517e-05
1.00004182e-05
1.000042738e-05
1.000045999e-05
1.000057078e-05
1.000094308e-05
1.000213724e-05
1.000581029e-05
1.001650316e-05
1.00455326e-05
1.011767571e-05
1.027805903e-05
1.058932027e-05
1.000041366e-05
1.000041328e-05
1.000041416e-05
1.000041601e-05
1.000042324e-05
1.000044897e-05
1.000053296e-05
1.000080355e-05
1.000163808e-05
1.00041074e-05
1.001101126e-05
1.002903938e-05
1.007236848e-05
1.016666921e-05
1.000041374e-05
1.000041419e-05
1.000041472e-05
1.000041795e-05
1.000042711e-05
1.000045825e-05
1.000056922e-05
1.000094215e-05
1.00021351e-05
1.000580893e-05
1.001650229e-05
1.004553318e-05
1.011768184e-05
1.027807484e-05
1.000041348e-05
1.000041359e-05
1.000041464e-05
1.000041898e-05
1.000043024e-05
1.000047429e-05
1.000063405e-05
1.000118955e-05
1.000304936e-05
1.000903938e-05
1.002730818e-05
1.007924885e-05
1.021376952e-05
1.052145899e-05
1.000041331e-05
1.000041447e-05
1.000041518e-05
1.000041841e-05
1.000043401e-05
1.000049196e-05
1.000070114e-05
1.000145443e-05
1.000406848e-05
1.001280771e-05
1.004058507e-05
1.012306266e-05
1.034593052e-05
1.087306972e-05
1.000041392e-05
1.000041453e-05
1.000041523e-05
1.000041901e-05
1.000043632e-05
1.00004993e-05
1.000073324e-05
1.000158019e-05
1.000456839e-05
1.001475625e-05
1.004791092e-05
1.01491605e-05
1.043155327e-05
1.112009168e-05
1.000041415e-05
1.000041412e-05
1.000041466e-05
1.000041871e-05
1.000043481e-05
1.000049247e-05
1.000070207e-05
1.000145582e-05
1.000406985e-05
1.001280747e-05
1.004058387e-05
1.012306189e-05
1.034592785e-05
1.087306027e-05
1.000041434e-05
1.000041482e-05
1.000041512e-05
1.000041914e-05
1.000043195e-05
1.000047734e-05
1.000063645e-05
1.000119088e-05
1.000305224e-05
1.000904015e-05
1.002730893e-05
1.007924912e-05
1.021376534e-05
1.052144917e-05
1.000041471e-05
1.000041494e-05
1.000041475e-05
1.000041723e-05
1.000042763e-05
1.000045995e-05
1.00005707e-05
1.000094259e-05
1.000213641e-05
1.000580948e-05
1.001650117e-05
1.004553233e-05
1.011767951e-05
1.027807125e-05
1.000041411e-05
1.000041504e-05
1.000041592e-05
1.000041746e-05
1.000042511e-05
1.000045e-05
1.000053363e-05
1.000080409e-05
1.000163947e-05
1.00041086e-05
1.001101179e-05
1.002903854e-05
1.007236721e-05
1.016667183e-05
)
;

boundaryField
{
    top
    {
        type            zeroGradient;
    }
    bottom
    {
        type            zeroGradient;
    }
    side-walls
    {
        type            zeroGradient;
    }
    inlet
    {
        type            zeroGradient;
    }
    outlet
    {
        type            zeroGradient;
    }
    procBoundary0to1
    {
        type            processor;
        value           nonuniform List<scalar> 
97
(
1.066430858e-05
1.058932175e-05
1.110915524e-05
1.208098978e-05
1.348495445e-05
1.447120774e-05
1.34849228e-05
1.208093596e-05
1.110910534e-05
1.066427313e-05
1.058932175e-05
1.058932175e-05
1.209575083e-05
1.250899968e-05
1.454674045e-05
1.883542452e-05
2.281127895e-05
1.883527903e-05
1.454656295e-05
1.209564363e-05
1.110911047e-05
1.111974166e-05
1.250899968e-05
1.250899968e-05
2.167347713e-05
2.671481503e-05
3.727091768e-05
5.734602632e-05
3.727019094e-05
2.167291014e-05
1.454656863e-05
1.20809424e-05
1.190499093e-05
1.503664476e-05
2.671481503e-05
2.671481503e-05
8.998590397e-05
0.0001747683957
0.0001916951368
8.998344815e-05
3.727027271e-05
1.88352679e-05
1.348492333e-05
1.248429837e-05
1.762781315e-05
4.230160994e-05
0.0001747683957
0.0001747683957
0.0006241404458
0.0001747680579
0.0001916951077
6.611537275e-05
5.734603336e-05
2.281123948e-05
1.44712054e-05
1.19049798e-05
1.503649873e-05
2.671375036e-05
6.611454494e-05
0.0001747680579
6.611537275e-05
6.611537275e-05
3.727090159e-05
1.670103415e-05
1.883548452e-05
1.348499068e-05
1.111971223e-05
1.250880898e-05
1.670064999e-05
2.671374005e-05
4.230167454e-05
2.671378169e-05
1.670103415e-05
1.670103415e-05
1.454673223e-05
1.113079118e-05
1.20810171e-05
1.058927565e-05
1.113071557e-05
1.250881249e-05
1.503650362e-05
1.762780973e-05
1.503649318e-05
1.250884606e-05
1.113079118e-05
1.113079118e-05
1.110915717e-05
1.034970506e-05
1.034968081e-05
1.058927875e-05
1.111971593e-05
1.190497894e-05
1.248429731e-05
1.190496623e-05
1.111970751e-05
1.058928727e-05
1.034970506e-05
)
;
    }
}


// ************************************************************************* //
