/*--------------------------------*- C++ -*----------------------------------*\
| =========                 |                                                 |
| \\      /  F ield         | OpenFOAM: The Open Source CFD Toolbox           |
|  \\    /   O peration     | Version:  4.x                                   |
|   \\  /    A nd           | Web:      www.OpenFOAM.org                      |
|    \\/     M anipulation  |                                                 |
\*---------------------------------------------------------------------------*/
FoamFile
{
    version     2.0;
    format      ascii;
    class       volScalarField;
    location    "9000";
    object      molarConc;
}
// * * * * * * * * * * * * * * * * * * * * * * * * * * * * * * * * * * * * * //

dimensions      [0 -3 0 0 1 0 0];

internalField   nonuniform List<scalar> 
1175
(
9.963284986
9.963285223
9.963285247
9.963285178
9.963285127
9.963284987
9.963285208
9.963285447
9.963285965
9.963286589
9.963285961
9.963286146
9.963286575
9.963286159
9.96328636
9.96326205
9.963261613
9.963260713
9.963259058
9.963258939
9.963260055
9.963260491
9.963260315
9.963260058
9.963260012
9.96325947
9.963258788
9.963258185
9.963258455
9.963255915
9.963308353
9.963308608
9.963308682
9.963308318
9.96330841
9.963308897
9.963307368
9.963306591
9.963307031
9.963307343
9.963306637
9.963305444
9.963305338
9.963303908
9.96330141
9.963297809
9.963297706
9.963297621
9.963298498
9.963298243
9.96329926
9.963298784
9.963298326
9.963298057
9.963298837
9.963297826
9.963297921
9.963296725
9.963293848
9.963289293
9.963278861
9.963280089
9.963280036
9.963280395
9.963278166
9.96327815
9.9632786
9.963279335
9.963279959
9.963279648
9.963279596
9.963278623
9.963277475
9.963275511
9.96327088
9.963275031
9.963275003
9.963273998
9.963273508
9.963273359
9.96327175
9.963271894
9.963272398
9.963271812
9.963271182
9.963270811
9.963270182
9.963271224
9.963270396
9.963267616
9.963280394
9.963280335
9.963280844
9.963280971
9.963279952
9.963280675
9.963281489
9.963280573
9.963281741
9.963281818
9.963279426
9.963278876
9.963279249
9.963277398
9.963275691
9.963302443
9.963302382
9.963302227
9.96330322
9.963302223
9.963301696
9.96330135
9.963301677
9.963300752
9.963301329
9.963301909
9.963301685
9.963301063
9.963300515
9.963298998
9.963288655
9.963288278
9.963288513
9.963289113
9.963289456
9.963289365
9.963290017
9.963289183
9.963289257
9.963288878
9.963287652
9.963287839
9.963286643
9.963286883
9.963285874
9.963250389
9.96325087
9.963249838
9.963248465
9.963247712
9.963247872
9.963247786
9.963248123
9.963248076
9.963247594
9.963247346
9.963246106
9.963246187
9.963244792
9.963282317
9.963283834
9.963284616
9.963283696
9.963283471
9.96328344
9.963283718
9.963282057
9.963282194
9.963281346
9.96328072
9.963281596
9.963281529
9.963281362
9.96327968
9.963292737
9.963292937
9.963293835
9.963292497
9.963292358
9.963292055
9.963292616
9.963293425
9.963292327
9.963292931
9.963292878
9.96329226
9.963291195
9.963287107
9.963281584
9.963277412
9.963276359
9.963275781
9.963276371
9.96327754
9.963277159
9.96327745
9.963277856
9.963276266
9.96327688
9.963277827
9.963277633
9.963274787
9.963270746
9.963261013
9.963200828
9.963199201
9.963199482
9.963199101
9.963198327
9.963198177
9.963198889
9.963199037
9.963197914
9.963197053
9.963197854
9.963197729
9.963197089
9.963188783
9.963174314
9.963229205
9.963228098
9.963227763
9.963227619
9.963228861
9.963229221
9.963228621
9.963230001
9.963230214
9.963229991
9.963230228
9.963229987
9.963227972
9.963222849
9.963212294
9.963281068
9.963282274
9.963282711
9.963282597
9.963282623
9.96328199
9.963282322
9.963282361
9.963281557
9.963281313
9.96328135
9.96328003
9.963278654
9.963276416
9.96327308
9.963283949
9.963282716
9.96328225
9.963281895
9.963283187
9.963281223
9.963280833
9.963281085
9.963281166
9.963280627
9.963281288
9.963279493
9.963278033
9.963278106
9.963276443
9.963244978
9.96324423
9.96324346
9.963243347
9.96324482
9.963245512
9.963246151
9.963245818
9.963245987
9.96324552
9.963246197
9.96324668
9.963245414
9.963244867
9.963243232
9.963296395
9.963296092
9.963296577
9.963297958
9.96329773
9.963296826
9.963297922
9.96329868
9.963298665
9.963298682
9.96329887
9.963299002
9.963299621
9.963298404
9.963303484
9.963303563
9.963303931
9.963304853
9.963304031
9.96330264
9.963302545
9.96330411
9.963303242
9.963303305
9.96330342
9.963301397
9.963301727
9.963298953
9.963247012
9.963246157
9.963247226
9.963246629
9.963247305
9.963248355
9.963248197
9.963249095
9.963247259
9.963246929
9.96324601
9.963245433
9.963243389
9.963235747
9.963223303
9.963310793
9.963312284
9.963311793
9.963312929
9.963312331
9.963312025
9.963312213
9.96331112
9.963311582
9.963311518
9.963310101
9.963306658
9.963303316
9.963287253
9.963250723
9.963255704
9.96325549
9.963255152
9.963254694
9.963255295
9.963255195
9.963255653
9.963255588
9.963254561
9.963254519
9.963253316
9.963251422
9.963240948
9.963210499
9.963134266
9.963326476
9.963326595
9.963326149
9.963326978
9.963327397
9.963326869
9.963325855
9.963325673
9.963325199
9.963324378
9.963321408
9.963319284
9.963314146
9.963296677
9.963259683
9.963340559
9.963340554
9.963340512
9.963340526
9.963340533
9.963340922
9.963341238
9.963340456
9.963340077
9.963340989
9.963340663
9.963340261
9.963337635
9.963330036
9.963315274
9.963241081
9.963242079
9.963242124
9.963242099
9.963240773
9.963241951
9.96324064
9.963240978
9.96323984
9.963240001
9.963237717
9.96323737
9.963237579
9.963233063
9.963228029
9.963277549
9.963277864
9.963278191
9.9632784
9.963278349
9.963278509
9.963277644
9.963278662
9.963278893
9.96327948
9.96327842
9.963278517
9.963280386
9.963279448
9.963277828
9.963319734
9.96332112
9.963319785
9.963319459
9.963320047
9.963319872
9.963320356
9.963320847
9.963322224
9.963322197
9.963322686
9.963321078
9.963321236
9.963318538
9.963218446
9.96321859
9.963217028
9.963219105
9.963218746
9.963217532
9.963217649
9.963217708
9.963218358
9.963217523
9.963217112
9.96321662
9.963213067
9.963208972
9.96323305
9.963231502
9.963230831
9.963231462
9.963231537
9.963231847
9.963230467
9.963230211
9.963228909
9.963227916
9.963229199
9.963226074
9.963220636
9.963204123
9.963185842
9.963184994
9.963185363
9.963183657
9.963184255
9.963184075
9.963183073
9.963184997
9.963183366
9.963182543
9.963181052
9.963178441
9.96316161
9.963109263
9.962977089
9.963265669
9.963266048
9.963265418
9.963267075
9.963265934
9.963266127
9.963264749
9.963264803
9.963265621
9.963264734
9.963263991
9.963257825
9.963226915
9.963100449
9.962676024
9.96333113
9.963330808
9.963332049
9.963332844
9.963332662
9.963330883
9.96333062
9.963331447
9.963331284
9.96333004
9.963330109
9.963325502
9.963309831
9.963257648
9.96312725
9.963243209
9.963243277
9.963243505
9.963243034
9.963242519
9.963242435
9.963241932
9.963242202
9.963241606
9.963241277
9.963239783
9.963237922
9.963232241
9.963215504
9.963179158
9.963298711
9.963299277
9.96329991
9.963300296
9.963300419
9.963301048
9.963301514
9.963300955
9.963300613
9.963300617
9.963300498
9.963299755
9.963297693
9.96329204
9.963280865
9.963265694
9.963266148
9.963266608
9.963265808
9.963264976
9.963264522
9.963264838
9.963264679
9.963263557
9.963264237
9.963265666
9.963266154
9.963265331
9.963264002
9.963260046
9.963284546
9.963284889
9.963284145
9.963284308
9.963283478
9.963283888
9.963285367
9.963285943
9.963286283
9.963286637
9.963286045
9.963286588
9.96328648
9.963283277
9.963236703
9.963236748
9.963236434
9.963235485
9.963234995
9.963235082
9.963235875
9.96323405
9.963235094
9.963233843
9.963232294
9.963231132
9.963229938
9.963223574
9.963261004
9.963260683
9.963261449
9.963261169
9.96326007
9.963260064
9.963259664
9.963258562
9.963258982
9.963258662
9.963258721
9.963255742
9.963245986
9.96321562
9.963286027
9.963286669
9.963286635
9.963287772
9.963287813
9.963288542
9.963289472
9.96328853
9.963287972
9.963285986
9.963283913
9.963277638
9.963248139
9.963120547
9.963270642
9.96327168
9.963270541
9.96327092
9.963272112
9.963273075
9.963275369
9.963274965
9.963275821
9.963275316
9.963273695
9.963261748
9.963187159
9.962715854
9.987709243
9.963282939
9.96328097
9.963282148
9.963281348
9.96328158
9.963282619
9.963282803
9.963283895
9.963282176
9.963282389
9.963280514
9.963272755
9.963243503
9.963114273
9.962692781
9.963313071
9.963312582
9.963312922
9.963312248
9.963311601
9.96331068
9.963311298
9.963311876
9.963311596
9.963312676
9.963313882
9.963312415
9.963300905
9.963270286
9.963195544
9.963315657
9.963316389
9.963315663
9.963315823
9.963314565
9.963314818
9.963315707
9.963315554
9.963314988
9.963315606
9.963314604
9.963313478
9.963310817
9.963304283
9.963287842
9.9632804
9.963280973
9.963280584
9.96327958
9.963281076
9.963281293
9.963282062
9.96328154
9.963282315
9.963281863
9.963281419
9.963280894
9.963279501
9.96327512
9.963270878
9.963222223
9.963222241
9.963221713
9.963221507
9.963220904
9.963220644
9.963220663
9.963219955
9.963219605
9.96321911
9.963220654
9.963218713
9.963218289
9.96321643
9.963281288
9.963279836
9.963279978
9.963280813
9.963280459
9.963279859
9.963279419
9.963279717
9.963278081
9.96327726
9.963277016
9.963276417
9.963274146
9.963270203
9.963272405
9.963273625
9.963272948
9.963273303
9.963275331
9.96327453
9.963274274
9.963273384
9.963272908
9.963274335
9.963273461
9.963270475
9.963264972
9.963247203
9.963289118
9.963289089
9.96328911
9.96328809
9.963288092
9.963287799
9.963287434
9.963286564
9.96328596
9.963284628
9.963284012
9.96328005
9.963265585
9.963214265
9.963253005
9.963253495
9.963253307
9.963253737
9.963252929
9.963252893
9.963252169
9.963252181
9.963252491
9.963252739
9.963250667
9.963244907
9.963213818
9.96308621
9.963218493
9.963219401
9.963219312
9.963220709
9.96322069
9.963221506
9.963220527
9.963219416
9.963220167
9.96322031
9.963220151
9.963215656
9.963200305
9.963149531
9.96326232
9.963263502
9.963264609
9.96326466
9.963264591
9.963265326
9.963266264
9.963266532
9.963266982
9.963266229
9.963265049
9.963263991
9.963258822
9.963242323
9.963206298
9.963305834
9.963305178
9.963305103
9.96330536
9.963306714
9.963305701
9.963306382
9.963304461
9.963304875
9.963304882
9.963305526
9.963303927
9.963301334
9.963296331
9.963287207
9.963270249
9.963270639
9.963271353
9.963272173
9.963271078
9.963270916
9.963271508
9.963272043
9.963271865
9.963273267
9.963272974
9.963272151
9.9632703
9.963268469
9.963264217
9.96329718
9.963297195
9.963297609
9.963297784
9.963297237
9.963298192
9.963296934
9.963298063
9.963298814
9.96329949
9.963300036
9.963300093
9.96329931
9.963298875
9.963249158
9.963249269
9.963249649
9.963250317
9.963251916
9.963253577
9.963253067
9.963253067
9.96325099
9.963253174
9.963252317
9.96325112
9.963250839
9.963247391
9.963324483
9.963325764
9.96332477
9.963324826
9.963326104
9.963325573
9.963325645
9.963325234
9.963326727
9.96332677
9.963325965
9.963325054
9.963322111
9.963316665
9.963328444
9.963327254
9.9633269
9.963325784
9.963325725
9.963326223
9.96332589
9.963326388
9.963325665
9.963324531
9.96332512
9.963322823
9.963316662
9.963299792
9.963208493
9.963207685
9.963207044
9.963208415
9.963206845
9.963206991
9.963207332
9.96320849
9.963209715
9.963211487
9.963211107
9.963208836
9.963199434
9.96317011
9.963269197
9.963269518
9.963268374
9.96326986
9.963270166
9.963270726
9.963271341
9.963272135
9.963272222
9.96327115
9.963270195
9.963269515
9.963262493
9.963245945
9.963262715
9.963262815
9.963262571
9.96326184
9.963262185
9.9632625
9.963262856
9.963262095
9.963261596
9.963261268
9.963261942
9.96326115
9.963258389
9.963253501
9.963265773
9.963266738
9.963264773
9.963266452
9.963265002
9.963264279
9.963265463
9.963264894
9.963265115
9.963264288
9.963262484
9.963263399
9.963261178
9.963257063
9.963252297
9.963287398
9.963286802
9.96328854
9.963287717
9.963288956
9.963289362
9.963289638
9.963288663
9.96328752
9.963286638
9.963287196
9.96328684
9.963286363
9.963285653
9.963283659
9.963292836
9.963292932
9.96329296
9.963292603
9.963292501
9.963292777
9.963294051
9.963293329
9.963293683
9.963293684
9.963293337
9.963294644
9.963294674
9.963294016
9.963301596
9.963301089
9.963301654
9.963299863
9.963300887
9.96330047
9.963301136
9.963300666
9.963301697
9.963300526
9.963298809
9.963299012
9.963298336
9.963297494
9.963247836
9.963247601
9.963247867
9.963249052
9.963248624
9.963247837
9.963245377
9.963245023
9.963245358
9.963245757
9.963245446
9.963245389
9.963243493
9.963242085
9.963247578
9.963246435
9.963246667
9.963246641
9.96324668
9.963246174
9.963245992
9.963246331
9.96324818
9.963248339
9.963246671
9.963245406
9.963242979
9.963236945
9.963264066
9.963264285
9.963264656
9.96326475
9.96326498
9.963264807
9.963264942
9.963266485
9.963267365
9.963265159
9.963264412
9.96326418
9.963261499
9.96325418
9.963221852
9.963223003
9.963225551
9.963225581
9.963226481
9.963224965
9.963225218
9.963224271
9.963224172
9.963224963
9.963225871
9.963225116
9.963223449
9.963219903
9.963319786
9.963319771
9.963318636
9.963320342
9.963319822
9.963319471
9.963320158
9.963319411
9.963319586
9.963317761
9.963317268
9.963316077
9.963314962
9.963311147
9.963286189
9.963285824
9.963286653
9.963286403
9.963285737
9.963285706
9.963285241
9.963286989
9.963287057
9.963286199
9.963287828
9.963286917
9.963287292
9.963285238
9.963242514
9.963243543
9.963243709
9.963244308
9.963244829
9.963244728
9.963245087
9.963245467
9.963245998
9.963246619
9.963248184
9.963247984
9.963247422
9.963246803
9.963246694
9.963297871
9.963298743
9.963298615
9.963298818
9.963298419
9.963297538
9.963299203
9.963299375
9.963299305
9.96329901
9.963299018
9.963298892
9.963298623
9.963298164
9.963270548
9.963270978
9.963270618
9.963271662
9.963271583
9.963271119
9.963270624
9.963270864
9.963270086
9.963269485
9.963271075
9.963271463
9.963271719
9.963271071
9.963275526
9.963275994
9.963276165
9.963276672
9.963276214
9.963275453
9.963275252
9.963275637
9.963274207
9.96327446
9.96327402
9.963274218
9.96327472
9.963273895
9.963268842
9.96326857
9.963268306
9.963268772
9.963269647
9.963269923
9.963268962
9.963269652
9.96326899
9.963270402
9.963272349
9.963272664
9.963272044
9.963271179
9.963282838
9.963283559
9.963282344
9.963283258
9.963282333
9.963282797
9.963282366
9.963281831
9.963282312
9.96328306
9.963283213
9.963283696
9.963283053
9.963280463
9.96329484
9.963295109
9.963295087
9.963295003
9.963295228
9.963295376
9.963295027
9.963295874
9.963294485
9.963292162
9.963291638
9.963291718
9.963291795
9.963290063
9.963354498
9.963354969
9.96335428
9.963353382
9.963354035
9.963353771
9.963353338
9.963352707
9.96335264
9.963351786
9.963352907
9.963354211
9.963353956
9.963352545
9.963276009
9.963276499
9.963276537
9.963277485
9.963278619
9.963278722
9.963278011
9.963278478
9.963278104
9.963278674
9.963278027
9.963278729
9.963277479
9.963275571
9.96326652
9.963266333
9.96326622
9.963266299
9.963265792
9.963266054
9.963266487
9.963266861
9.963267199
9.963267467
9.963265731
9.963264561
9.963264536
9.963264548
)
;

boundaryField
{
    top
    {
        type            calculated;
        value           nonuniform List<scalar> 
134
(
9.963288655
9.963244978
9.963277549
9.963265694
9.9632804
9.963270249
9.963287398
9.963242514
9.96326652
9.963288278
9.96324423
9.963277864
9.963266148
9.963280973
9.963270639
9.963286802
9.963243543
9.963266333
9.963288513
9.96324346
9.963278191
9.963266608
9.963280584
9.963271353
9.96328854
9.963243709
9.96326622
9.963289113
9.963243347
9.9632784
9.963265808
9.96327958
9.963272173
9.963287717
9.963244308
9.963266299
9.963289456
9.96324482
9.963278349
9.963264976
9.963281076
9.963271078
9.963288956
9.963244829
9.963265792
9.963289365
9.963245512
9.963278509
9.963264522
9.963281293
9.963270916
9.963289362
9.963244728
9.963266054
9.963290017
9.963246151
9.963277644
9.963264838
9.963282062
9.963271508
9.963289638
9.963245087
9.963266487
9.963289183
9.963245818
9.963278662
9.963264679
9.96328154
9.963272043
9.963288663
9.963245467
9.963266861
9.963289257
9.963245987
9.963278893
9.963263557
9.963282315
9.963271865
9.96328752
9.963245998
9.963267199
9.963288878
9.96324552
9.96327948
9.963264237
9.963281863
9.963273267
9.963286638
9.963246619
9.963267467
9.963287652
9.963246197
9.96327842
9.963265666
9.963281419
9.963272974
9.963287196
9.963248184
9.963265731
9.963287839
9.96324668
9.963278517
9.963266154
9.963280894
9.963272151
9.96328684
9.963247984
9.963264561
9.963286643
9.963245414
9.963280386
9.963265331
9.963279501
9.9632703
9.963286363
9.963247422
9.963264536
9.963286883
9.963244867
9.963279448
9.963264002
9.96327512
9.963268469
9.963285653
9.963246803
9.963264548
9.963285874
9.963243232
9.963277828
9.963260046
9.963270878
9.963264217
9.963283659
9.963246694
)
;
    }
    bottom
    {
        type            calculated;
        value           nonuniform List<scalar> 
127
(
9.963284986
9.963250389
9.963296395
9.963319734
9.963284546
9.963222223
9.96329718
9.963292836
9.963297871
9.963285223
9.96325087
9.963296092
9.96332112
9.963284889
9.963222241
9.963297195
9.963292932
9.963298743
9.963285247
9.963249838
9.963296577
9.963319785
9.963284145
9.963221713
9.963297609
9.96329296
9.963298615
9.963285178
9.963248465
9.963297958
9.963319459
9.963284308
9.963221507
9.963297784
9.963292603
9.963298818
9.963285127
9.963247712
9.96329773
9.963320047
9.963283478
9.963220904
9.963297237
9.963292501
9.963298419
9.963284987
9.963247872
9.963296826
9.963319872
9.963283888
9.963220644
9.963298192
9.963292777
9.963297538
9.963285208
9.963247786
9.963297922
9.963320356
9.963285367
9.963220663
9.963296934
9.963294051
9.963299203
9.963285447
9.963248123
9.96329868
9.963320847
9.963285943
9.963219955
9.963298063
9.963293329
9.963299375
9.963285965
9.963248076
9.963298665
9.963322224
9.963286283
9.963219605
9.963298814
9.963293683
9.963299305
9.963286589
9.963247594
9.963298682
9.963322197
9.963286637
9.96321911
9.96329949
9.963293684
9.96329901
9.963285961
9.963247346
9.96329887
9.963322686
9.963286045
9.963220654
9.963300036
9.963293337
9.963299018
9.963286146
9.963246106
9.963299002
9.963321078
9.963286588
9.963218713
9.963300093
9.963294644
9.963298892
9.963286575
9.963246187
9.963299621
9.963321236
9.96328648
9.963218289
9.96329931
9.963294674
9.963298623
9.963286159
9.963244792
9.963298404
9.963318538
9.963283277
9.96321643
9.963298875
9.963294016
9.963298164
9.96328636
)
;
    }
    side-walls
    {
        type            calculated;
        value           nonuniform List<scalar> 
261
(
9.963284986
9.96326205
9.963308353
9.963297809
9.963278861
9.963275031
9.963280394
9.963302443
9.963288655
9.963285223
9.963261613
9.963308608
9.963297706
9.963280089
9.963275003
9.963280335
9.963302382
9.963288278
9.963285247
9.963260713
9.963308682
9.963297621
9.963280036
9.963273998
9.963280844
9.963302227
9.963288513
9.963285178
9.963259058
9.963308318
9.963298498
9.963280395
9.963273508
9.963280971
9.96330322
9.963289113
9.963285127
9.963258939
9.96330841
9.963298243
9.963278166
9.963273359
9.963279952
9.963302223
9.963289456
9.963284987
9.963260055
9.963308897
9.96329926
9.96327815
9.96327175
9.963280675
9.963301696
9.963289365
9.963285208
9.963260491
9.963307368
9.963298784
9.9632786
9.963271894
9.963281489
9.96330135
9.963290017
9.963285447
9.963260315
9.963306591
9.963298326
9.963279335
9.963272398
9.963280573
9.963301677
9.963289183
9.963285965
9.963260058
9.963307031
9.963298057
9.963279959
9.963271812
9.963281741
9.963300752
9.963289257
9.963286589
9.963260012
9.963307343
9.963298837
9.963279648
9.963271182
9.963281818
9.963301329
9.963288878
9.963285961
9.96325947
9.963306637
9.963297826
9.963279596
9.963270811
9.963279426
9.963301909
9.963287652
9.963286146
9.963258788
9.963305444
9.963297921
9.963278623
9.963270182
9.963278876
9.963301685
9.963287839
9.963286575
9.963258185
9.963305338
9.963296725
9.963277475
9.963271224
9.963279249
9.963301063
9.963286643
9.963286159
9.963258455
9.963303908
9.963293848
9.963275511
9.963270396
9.963277398
9.963300515
9.963286883
9.96328636
9.963255915
9.96330141
9.963289293
9.96327088
9.963267616
9.963275691
9.963298998
9.963285874
9.963297871
9.963270548
9.963275526
9.963268842
9.963282838
9.96329484
9.963354498
9.963276009
9.96326652
9.963298743
9.963270978
9.963275994
9.96326857
9.963283559
9.963295109
9.963354969
9.963276499
9.963266333
9.963298615
9.963270618
9.963276165
9.963268306
9.963282344
9.963295087
9.96335428
9.963276537
9.96326622
9.963298818
9.963271662
9.963276672
9.963268772
9.963283258
9.963295003
9.963353382
9.963277485
9.963266299
9.963298419
9.963271583
9.963276214
9.963269647
9.963282333
9.963295228
9.963354035
9.963278619
9.963265792
9.963297538
9.963271119
9.963275453
9.963269923
9.963282797
9.963295376
9.963353771
9.963278722
9.963266054
9.963299203
9.963270624
9.963275252
9.963268962
9.963282366
9.963295027
9.963353338
9.963278011
9.963266487
9.963299375
9.963270864
9.963275637
9.963269652
9.963281831
9.963295874
9.963352707
9.963278478
9.963266861
9.963299305
9.963270086
9.963274207
9.96326899
9.963282312
9.963294485
9.96335264
9.963278104
9.963267199
9.96329901
9.963269485
9.96327446
9.963270402
9.96328306
9.963292162
9.963351786
9.963278674
9.963267467
9.963299018
9.963271075
9.96327402
9.963272349
9.963283213
9.963291638
9.963352907
9.963278027
9.963265731
9.963298892
9.963271463
9.963274218
9.963272664
9.963283696
9.963291718
9.963354211
9.963278729
9.963264561
9.963298623
9.963271719
9.96327472
9.963272044
9.963283053
9.963291795
9.963353956
9.963277479
9.963264536
9.963298164
9.963271071
9.963273895
9.963271179
9.963280463
9.963290063
9.963352545
9.963275571
9.963264548
)
;
    }
    inlet
    {
        type            calculated;
        value           nonuniform List<scalar> 
81
(
9.963284986
9.96326205
9.963308353
9.963297809
9.963278861
9.963275031
9.963280394
9.963302443
9.963288655
9.963250389
9.963282317
9.963292737
9.963277412
9.963200828
9.963229205
9.963281068
9.963283949
9.963244978
9.963296395
9.963303484
9.963247012
9.963310793
9.963255704
9.963326476
9.963340559
9.963241081
9.963277549
9.963319734
9.963218446
9.96323305
9.963185842
9.963265669
9.96333113
9.963243209
9.963298711
9.963265694
9.963284546
9.963236703
9.963261004
9.963286027
9.963270642
9.963282939
9.963313071
9.963315657
9.9632804
9.963222223
9.963281288
9.963272405
9.963289118
9.963253005
9.963218493
9.96326232
9.963305834
9.963270249
9.96329718
9.963249158
9.963324483
9.963328444
9.963208493
9.963269197
9.963262715
9.963265773
9.963287398
9.963292836
9.963301596
9.963247836
9.963247578
9.963264066
9.963221852
9.963319786
9.963286189
9.963242514
9.963297871
9.963270548
9.963275526
9.963268842
9.963282838
9.96329484
9.963354498
9.963276009
9.96326652
)
;
    }
    outlet
    {
        type            calculated;
        value           nonuniform 0();
    }
    procBoundary0to1
    {
        type            processor;
        value           nonuniform List<scalar> 
97
(
9.963285251
9.963243974
9.963254084
9.963297134
9.963284065
9.963264238
9.963260484
9.963272713
9.963297205
9.96328313
9.963243974
9.963243974
9.963276024
9.963292737
9.963273279
9.963248098
9.963157188
9.963197781
9.96326561
9.963273636
9.963241747
9.963295875
9.963292737
9.963292737
9.963203864
9.963168787
9.963212228
9.963079268
9.963219941
9.963297421
9.963222359
9.963273858
9.963315056
9.963198456
9.963168787
9.963168787
9.962891351
9.962697522
9.962614119
9.963041812
9.96314149
9.963266479
9.963254863
9.96327961
9.963207511
9.963139077
9.962697522
9.962697522
9.989272804
9.962661306
9.962629851
9.963016938
9.963139407
9.963268279
9.963263257
9.963212107
9.963259167
9.963211699
9.963082557
9.962661306
9.963016938
9.963016938
9.963168009
9.963237789
9.963272944
9.963257999
9.963296546
9.96324398
9.96330291
9.96326477
9.963096062
9.963210028
9.963237789
9.963237789
9.963245017
9.96328378
9.963281845
9.963292624
9.963293471
9.963236382
9.963227063
9.96323945
9.96321083
9.963306458
9.96328378
9.96328378
9.963245184
9.963262695
9.963298147
9.963270363
9.963271892
9.963266272
9.963276618
9.963287084
9.963350637
9.963274651
9.963262695
)
;
    }
}


// ************************************************************************* //
