/*--------------------------------*- C++ -*----------------------------------*\
| =========                 |                                                 |
| \\      /  F ield         | OpenFOAM: The Open Source CFD Toolbox           |
|  \\    /   O peration     | Version:  4.x                                   |
|   \\  /    A nd           | Web:      www.OpenFOAM.org                      |
|    \\/     M anipulation  |                                                 |
\*---------------------------------------------------------------------------*/
FoamFile
{
    version     2.0;
    format      ascii;
    class       surfaceScalarField;
    location    "9000";
    object      phi;
}
// * * * * * * * * * * * * * * * * * * * * * * * * * * * * * * * * * * * * * //

dimensions      [1 0 -1 0 0 0 0];

internalField   nonuniform List<scalar> 
3175
(
9.16542069e-06
-3.157214986e-13
1.072733735e-12
9.165422258e-06
4.611409122e-13
8.985781824e-13
9.165422559e-06
5.723363816e-13
5.535545498e-13
9.16542346e-06
-1.535976995e-12
7.290598957e-13
9.165423327e-06
-9.10704343e-13
-1.431060684e-12
9.165423371e-06
-1.751576066e-12
-1.83421644e-12
9.165427503e-06
-1.957474976e-12
-2.496217932e-12
9.165430132e-06
-2.056032494e-12
-3.39837268e-12
9.165437364e-06
-2.98343819e-12
-3.76586554e-12
9.165450124e-06
-4.311226216e-12
-4.961698798e-12
9.1654632e-06
-6.65999314e-12
-7.304871271e-12
9.165486268e-06
-9.887983426e-12
-9.712246254e-12
9.165517904e-06
-1.484544384e-11
-1.644964607e-11
9.165549154e-06
-1.724130107e-11
-1.654417796e-11
-2.683698659e-11
9.165398872e-06
5.111069333e-13
2.955454337e-13
9.165398377e-06
-4.506534284e-14
-4.170370452e-13
9.165397946e-06
-9.1894116e-13
-4.368968158e-13
9.165398836e-06
-1.60567933e-12
-2.158424927e-13
9.16539782e-06
-1.923716134e-12
-1.856512356e-12
9.165399177e-06
-3.214922104e-12
-1.297199784e-12
9.16540309e-06
-1.914075716e-12
-2.049819366e-12
9.165404777e-06
-4.163355179e-12
-3.29038334e-12
9.16541059e-06
-5.844165983e-12
-2.916404047e-12
9.165421921e-06
-8.962314497e-12
-4.649102826e-12
9.165435273e-06
-1.402011288e-11
-7.697525485e-12
9.165457127e-06
-1.939378468e-11
-1.319827202e-11
9.165488372e-06
-2.622799546e-11
-1.900749354e-11
9.165523046e-06
-3.002517276e-11
-2.021846635e-11
-5.380462962e-11
-4.23201853e-11
9.165443473e-06
1.765801469e-12
1.919102805e-13
9.165441926e-06
-3.049523544e-13
-2.79931759e-14
9.165442859e-06
1.175986651e-12
-4.139478178e-13
9.165443485e-06
-1.412731548e-13
1.532141167e-13
9.165440825e-06
-1.954782421e-12
-1.061375643e-12
9.165442724e-06
-2.052660877e-12
-1.618691753e-12
9.165444696e-06
-1.908265655e-12
-2.145404427e-12
9.16544413e-06
-3.438600317e-12
-4.529630919e-12
9.165450074e-06
-2.842514855e-12
-3.101607702e-12
9.165459275e-06
-6.877384444e-12
-7.031550616e-12
9.165469464e-06
-1.086393314e-11
-1.127463517e-11
9.165488751e-06
-1.787720231e-11
-2.249490483e-11
9.165517642e-06
-2.688087199e-11
-3.067448323e-11
9.165560582e-06
-3.204771984e-11
-4.055701747e-11
-6.3098874e-11
-8.892131727e-11
9.165432065e-06
-7.153456984e-13
-5.179414853e-13
9.165433061e-06
9.195528252e-13
3.426972227e-13
9.165433086e-06
5.929036651e-13
2.263996085e-13
9.165431762e-06
5.62774723e-13
-1.305932125e-12
9.165432038e-06
1.092001382e-12
-7.54225976e-13
9.165434914e-06
8.837296429e-13
-6.2963957e-13
9.165435046e-06
-1.542478797e-13
-9.527300696e-13
9.165435753e-06
-1.409238308e-12
-3.593655278e-12
9.165439583e-06
-1.743592142e-12
-4.649300745e-12
9.165446154e-06
-4.669843181e-12
-9.06993322e-12
9.165458249e-06
-6.807640007e-12
-1.090957049e-11
9.165480238e-06
-1.543423077e-11
-2.562590969e-11
9.165506833e-06
-2.418657365e-11
-3.186128221e-11
9.165556945e-06
-3.505889462e-11
-5.078780581e-11
-5.87288082e-11
-1.259440561e-10
9.165415429e-06
9.652546368e-13
-7.354079754e-13
9.165416619e-06
3.819464886e-13
-1.986710459e-12
9.165416835e-06
-4.038400645e-13
-9.090445865e-13
9.165415862e-06
8.435919012e-13
-7.099467769e-13
9.165413472e-06
1.147039164e-12
-5.478529935e-13
9.165414658e-06
1.221442071e-12
-1.564154076e-12
9.165415433e-06
1.914589342e-12
-1.129200512e-12
9.16541673e-06
1.486990199e-12
-4.607631265e-12
9.165415751e-06
3.816750545e-12
-6.463942752e-12
9.165420566e-06
6.97914617e-12
-1.301680968e-11
9.16542194e-06
8.2619997e-12
-1.791383993e-11
9.165439975e-06
1.646350802e-11
-4.833351549e-11
9.165452687e-06
2.274743097e-11
-6.531138038e-11
9.165527854e-06
3.347446735e-11
-1.433600345e-10
5.642243556e-11
-3.200222445e-10
9.16541106e-06
-9.316296548e-14
-4.620942922e-13
9.165410856e-06
6.822272142e-13
-3.419883739e-13
9.16541178e-06
2.043245302e-12
-9.305217867e-13
9.165410196e-06
2.448248582e-12
-3.82576294e-14
9.165409338e-06
7.058122345e-13
-1.152026439e-12
9.165410894e-06
1.177119952e-12
-9.797486404e-13
9.165409933e-06
1.715128353e-12
-1.825052849e-12
9.165412403e-06
4.630328537e-12
-4.126568405e-12
9.165414597e-06
6.382863722e-12
-4.436590215e-12
9.165422076e-06
9.067345137e-12
-9.917660678e-12
9.16543181e-06
1.354113332e-11
-1.106819529e-11
9.165454296e-06
1.952457146e-11
-2.664098553e-11
9.165483005e-06
2.765450835e-11
-3.130648772e-11
9.165533735e-06
3.404540787e-11
-4.997268763e-11
6.497970166e-11
-1.265450888e-10
9.165415874e-06
1.408948477e-12
-7.536696009e-14
9.16541676e-06
9.305100311e-13
1.068081928e-12
9.165417311e-06
1.260526267e-12
-1.069680393e-12
9.165415861e-06
5.313686766e-13
-9.354275915e-13
9.165415915e-06
1.346371332e-12
-2.207255699e-12
9.165419125e-06
3.647720664e-12
-1.681331293e-12
9.16542131e-06
5.264812187e-12
-2.176670368e-12
9.165423966e-06
6.247394406e-12
-3.706104535e-12
9.165425082e-06
6.347920339e-12
-4.481087831e-12
9.165432955e-06
9.854233314e-12
-8.278441376e-12
9.165442996e-06
1.304960208e-11
-1.074821197e-11
9.165464304e-06
1.930246683e-11
-2.267783273e-11
9.165492355e-06
2.74885313e-11
-3.08437918e-11
9.165535374e-06
3.002955505e-11
-4.062532991e-11
5.364355886e-11
-8.856857569e-11
9.165435575e-06
-6.601967822e-13
-1.856043832e-12
9.16543742e-06
-1.033745104e-12
4.142656168e-13
9.165437398e-06
-7.808194615e-13
-1.527232004e-13
9.165436496e-06
-2.39344544e-16
-3.158574016e-13
9.165438727e-06
2.108848195e-12
-7.628237863e-13
9.165439149e-06
1.758957514e-12
-2.121367617e-12
9.16544059e-06
2.511387948e-12
-2.140671408e-12
9.165443035e-06
2.687858638e-12
-3.0077618e-12
9.165448273e-06
2.917911654e-12
-3.720953554e-12
9.165457678e-06
4.994159015e-12
-5.599860623e-12
9.165472913e-06
8.14820076e-12
-7.63829568e-12
9.165495e-06
1.14353114e-11
-1.290390733e-11
9.165524445e-06
1.545624522e-11
-1.913894282e-11
9.165559774e-06
1.51381251e-11
-2.030325786e-11
2.607152655e-11
-4.143810959e-11
9.165423432e-06
-8.990322942e-13
9.16542456e-06
-5.181495752e-13
9.165424969e-06
-5.800594139e-13
9.165426408e-06
1.199964127e-12
9.165426345e-06
1.152819613e-13
9.165430233e-06
-1.409207946e-13
9.165430561e-06
-1.823848565e-12
9.165433023e-06
-2.768760163e-12
9.165440825e-06
-2.268044527e-12
9.165450628e-06
-3.548179971e-12
9.165464032e-06
-6.865927703e-12
9.165485027e-06
-1.008227258e-11
9.165515005e-06
-1.704964293e-11
9.165548461e-06
-1.605001461e-11
-2.78043618e-11
9.165388194e-06
-1.144532914e-12
-1.18284512e-12
9.165387966e-06
-1.484743025e-13
-2.265688562e-12
9.165389068e-06
-2.629022394e-13
-1.947614207e-12
9.16538684e-06
-5.320910414e-13
-2.559392904e-12
9.16538832e-06
-8.960045512e-13
-2.007748136e-12
9.165386968e-06
-1.553012563e-12
-1.374688484e-12
9.165393232e-06
-1.752103085e-12
-1.045975288e-12
9.165394855e-06
-2.18429814e-12
-2.94266416e-12
9.165401546e-06
-2.275656368e-12
-4.244023925e-12
9.165410056e-06
-5.709597528e-12
-8.884984542e-12
9.165424345e-06
-7.46189615e-12
-1.208166791e-11
9.165444058e-06
-1.298348906e-11
-1.922875879e-11
9.165475955e-06
-1.81487348e-11
-2.740307115e-11
-2.079889485e-11
-3.113354893e-11
9.165418991e-06
1.057795758e-13
-1.121352274e-12
9.165420181e-06
2.183106682e-14
-1.058349509e-12
9.165420554e-06
-1.02666684e-12
-2.223356702e-12
9.165418474e-06
-1.699184009e-12
-3.146875853e-12
9.165420482e-06
-1.609330174e-12
-2.737396782e-12
9.165419297e-06
-2.777079539e-12
-2.284035158e-12
9.165423732e-06
-1.599936171e-12
-4.684813698e-13
9.165423708e-06
-5.182969492e-12
-4.531915127e-12
9.165428596e-06
-5.325809395e-12
-5.45687478e-12
9.165437342e-06
-1.120727444e-11
-1.061682912e-11
9.165449609e-06
-1.625986858e-11
-1.470528677e-11
9.165472644e-06
-2.545689515e-11
-2.449699388e-11
9.165504164e-06
-3.467594667e-11
-3.571369951e-11
9.165546722e-06
-4.127214151e-11
-4.38965497e-11
-8.219293878e-11
9.165427809e-06
8.544339188e-13
-4.649631863e-13
9.16542716e-06
8.737841457e-13
-2.773146727e-13
9.165428853e-06
7.39013608e-13
-1.591169267e-12
9.165427853e-06
-1.756576584e-13
-1.741965487e-12
9.16542687e-06
-8.685739004e-13
-1.506265864e-12
9.165428384e-06
-1.078731465e-12
-1.327077385e-12
9.165428681e-06
-1.017298369e-13
-2.086473686e-12
9.165429803e-06
-3.125541746e-12
-5.597653155e-12
9.165432506e-06
-5.311619244e-12
-7.445843792e-12
9.165438814e-06
-1.03439788e-11
-1.280344667e-11
9.165447795e-06
-1.263154111e-11
-1.893247722e-11
9.165467429e-06
-2.514938914e-11
-4.16039519e-11
9.165493655e-06
-3.444265746e-11
-5.597436817e-11
9.165550919e-06
-5.158037044e-11
-8.845660944e-11
-1.146111729e-10
-1.949680307e-10
9.165412491e-06
-4.196048077e-13
-5.684250324e-13
9.165413545e-06
-6.621762029e-13
-9.197297477e-13
9.165413006e-06
2.208678808e-15
-5.651920188e-13
9.165411058e-06
9.952692251e-13
-1.755577668e-12
9.165412444e-06
2.072495396e-12
-1.213659592e-12
9.165414749e-06
9.95858155e-13
-1.79596257e-12
9.165412513e-06
6.006372663e-14
-3.473635211e-12
9.165413196e-06
-6.657999021e-13
-3.881820535e-12
9.165415358e-06
-2.768002418e-12
-7.308566157e-12
9.165421445e-06
-6.736542178e-12
-1.720256822e-11
9.165429788e-06
-1.153988714e-11
-2.191611646e-11
9.165454321e-06
-2.530640068e-11
-5.439212669e-11
9.165480472e-06
-3.704964537e-11
-5.659039752e-11
9.165560826e-06
-6.369177903e-11
-1.189583281e-10
-1.120956456e-10
-2.892084402e-10
9.165341735e-06
1.508182045e-12
1.173966029e-12
9.165343522e-06
2.01635601e-12
1.56151982e-12
9.165340954e-06
7.20031502e-13
-9.650779373e-13
9.165340688e-06
7.601148219e-13
-3.06280535e-12
9.165338455e-06
1.025156535e-14
-2.854271453e-12
9.165339662e-06
1.518453901e-12
-2.439339997e-12
9.165337249e-06
4.70072794e-13
-5.83755033e-12
9.165336825e-06
7.683175469e-13
-7.266626703e-12
9.165333754e-06
3.917880063e-12
-1.116703754e-11
9.165334242e-06
8.092864655e-12
-2.556516432e-11
9.165327043e-06
1.172404397e-11
-3.489337752e-11
9.165337454e-06
2.411395851e-11
-1.069051044e-10
9.165331303e-06
3.632738019e-11
-1.291811197e-10
9.165472901e-06
6.13948977e-11
-4.146762132e-10
1.079413796e-10
-8.809662758e-10
9.165367858e-06
-3.202843455e-14
-6.29095172e-14
9.165369169e-06
1.899442763e-12
8.558135864e-13
9.165369824e-06
1.458621246e-12
-3.879323602e-13
9.165367132e-06
1.340823471e-12
-1.820870326e-12
9.165368321e-06
-2.933749132e-13
-5.557602781e-13
9.165369081e-06
4.409583508e-14
-2.6328008e-12
9.165368459e-06
2.847990121e-12
-4.21168746e-12
9.165372534e-06
4.897408958e-12
-5.33856164e-12
9.165371211e-06
5.990823289e-12
-8.320145622e-12
9.165377373e-06
1.077509619e-11
-1.68026179e-11
9.165384408e-06
1.515774252e-11
-2.143522861e-11
9.165409409e-06
2.579752039e-11
-5.409202236e-11
9.165435859e-06
3.581532988e-11
-5.310715988e-11
9.165516287e-06
5.314286459e-11
-1.173277686e-10
1.161422132e-10
-2.877205804e-10
9.165417626e-06
3.063989541e-13
-4.039590138e-14
9.165416212e-06
3.849017523e-13
-8.107654397e-13
9.165419132e-06
2.513843221e-12
-1.59253553e-12
9.165416229e-06
8.811818742e-13
-2.036166996e-12
9.165418426e-06
2.150600328e-12
-6.674355393e-13
9.165420216e-06
3.363263362e-12
-1.009537793e-12
9.165419434e-06
4.264523916e-12
-3.984765626e-12
9.165421432e-06
6.662318922e-12
-6.595799442e-12
9.165421067e-06
7.892280551e-12
-8.861897496e-12
9.16542946e-06
1.225240361e-11
-1.389705056e-11
9.165435484e-06
1.525025976e-11
-2.119015363e-11
9.165459563e-06
2.696979672e-11
-4.123397165e-11
9.1654846e-06
3.608773743e-11
-5.550817341e-11
9.165540481e-06
4.093407001e-11
-8.933815225e-11
8.388482053e-11
-1.93039817e-10
9.165419361e-06
2.004947767e-13
9.519620697e-13
9.165418375e-06
-3.929091287e-13
1.870425995e-13
9.165417592e-06
3.876703104e-13
-1.08616633e-12
9.165417683e-06
9.058206453e-13
-1.71591515e-12
9.165418313e-06
1.977443522e-12
-5.422213776e-13
9.165419861e-06
2.329150451e-12
-2.293494205e-12
9.165420555e-06
2.012777481e-12
-4.464247474e-12
9.165423421e-06
2.907283203e-12
-5.510119471e-12
9.165427385e-06
4.632142875e-12
-7.425691974e-12
9.16543619e-06
6.156367941e-12
-9.929353275e-12
9.165447056e-06
8.184100638e-12
-1.488125732e-11
9.165468939e-06
1.403146483e-11
-2.556484316e-11
9.16549976e-06
1.77088542e-11
-3.620235354e-11
9.165542456e-06
2.012233678e-11
-4.230024621e-11
4.066114217e-11
-8.463461274e-11
9.165384244e-06
1.08845457e-12
9.165384174e-06
8.470314753e-14
9.165383522e-06
-6.709334262e-13
9.165383068e-06
-1.563627497e-12
9.165384598e-06
-3.955895854e-14
9.165387742e-06
-1.349595859e-12
9.165389449e-06
-2.839578417e-12
9.165393121e-06
-2.930530988e-12
9.165397181e-06
-5.853946155e-12
9.165407579e-06
-7.274292742e-12
9.165422306e-06
-1.179573296e-11
9.165443115e-06
-1.959000266e-11
9.16547403e-06
-2.76222253e-11
9.165508953e-06
-3.000574783e-11
-5.427674899e-11
9.165431155e-06
-2.659234355e-13
-2.525454999e-12
9.165431966e-06
2.54525576e-13
-1.879701005e-12
9.165431665e-06
-6.405355361e-13
-4.916951508e-13
9.165432385e-06
-9.124167773e-13
-2.276858378e-12
9.165435016e-06
-1.819936299e-12
-1.807782434e-12
9.16543294e-06
-1.694666329e-12
-2.490110322e-12
9.165435983e-06
-8.048482134e-13
-2.762405303e-12
9.165439413e-06
-3.352583721e-12
-3.559985603e-12
9.165442254e-06
-3.411965268e-12
-5.191185955e-12
9.165451465e-06
-6.818237832e-12
-7.613070163e-12
9.165461426e-06
-1.045932219e-11
-1.275318166e-11
9.165481463e-06
-1.977658989e-11
-1.920001958e-11
9.165513114e-06
-3.081983953e-11
-2.651276866e-11
-4.161775732e-11
-3.267823642e-11
9.165437047e-06
8.533862675e-13
-2.318487443e-13
9.165438018e-06
2.608428378e-13
-4.771841743e-13
9.165438681e-06
-9.344096132e-13
-8.356390218e-13
9.165438216e-06
-8.33517094e-13
-2.067209494e-12
9.165438281e-06
-1.070481783e-12
-1.453439969e-12
9.165437851e-06
-1.945120055e-12
-2.368191231e-12
9.165437043e-06
-4.359203075e-12
-3.842808653e-12
9.165440543e-06
-6.033482941e-12
-4.954997763e-12
9.165442803e-06
-7.358795864e-12
-6.045807442e-12
9.1654481e-06
-1.282384397e-11
-9.237466328e-12
9.165456824e-06
-1.963201881e-11
-1.2054536e-11
9.165475376e-06
-4.211291693e-11
-2.757900966e-11
9.165504246e-06
-5.542040222e-11
-3.495041762e-11
-8.669700852e-11
-5.13772143e-11
9.165385005e-06
5.988646217e-13
-1.012044913e-12
9.165383449e-06
-4.422872321e-13
2.583663418e-13
9.165385913e-06
9.595934058e-13
1.183688056e-12
9.165385311e-06
1.982459637e-13
-1.249690743e-12
9.165387331e-06
-1.829768353e-13
-1.519279913e-12
9.165386174e-06
-1.94902981e-12
-1.871508314e-12
9.165385216e-06
-9.523839569e-13
-1.703701683e-12
9.165386261e-06
-1.379169941e-12
-3.432733968e-12
9.165384397e-06
-6.222601554e-12
-6.245942149e-12
9.165382152e-06
-1.526336241e-11
-1.40821717e-11
9.165381485e-06
-1.971068895e-11
-1.837595006e-11
9.165397142e-06
-4.73668259e-11
-4.776658148e-11
9.165406606e-06
-6.030894363e-11
-5.988021179e-11
9.165505861e-06
-1.380296633e-10
-1.378823023e-10
-3.220340288e-10
9.165444648e-06
1.245640988e-12
-9.165548498e-13
9.165444252e-06
1.642754479e-12
-4.447692028e-13
9.165444294e-06
-1.613725404e-14
-9.369576021e-13
9.165445192e-06
-7.293025898e-13
-1.709227663e-12
9.165443959e-06
9.578835888e-14
-2.188189209e-12
9.165444879e-06
-6.48722981e-14
-1.684331647e-12
9.165441335e-06
-2.019369e-12
-3.181896109e-12
9.16543712e-06
-3.196843427e-12
-6.222545801e-12
9.165436376e-06
-4.915742091e-12
-9.075274119e-12
9.165434735e-06
-1.175417537e-11
-1.811884952e-11
9.165433186e-06
-1.799229481e-11
-1.716245897e-11
9.165448543e-06
-5.060744561e-11
-6.819661509e-11
9.165458902e-06
-7.242056313e-11
-4.862289587e-11
9.165614419e-06
-1.795592234e-10
-2.365979142e-10
-3.290210717e-10
-5.737712546e-10
9.165391944e-06
-2.801080106e-14
-2.26031974e-13
9.165391305e-06
3.261784653e-13
-1.425030752e-12
9.16539212e-06
1.107993696e-12
7.609315979e-13
9.165392792e-06
1.956851072e-12
-9.26199225e-13
9.165392166e-06
2.260140672e-12
-2.148632645e-12
9.165389916e-06
2.138633591e-12
-3.814787043e-12
9.165388919e-06
1.605365168e-12
-3.738098947e-12
9.165379703e-06
2.724663619e-12
-7.203409148e-12
9.165371059e-06
4.949375057e-12
-1.167100078e-11
9.16535279e-06
1.241063468e-11
-3.018151927e-11
9.165320439e-06
1.876120191e-11
-3.773450283e-11
9.165282827e-06
5.026340412e-11
-1.646042265e-10
9.165177658e-06
7.39466232e-11
-1.742973349e-10
9.165504251e-06
1.785940091e-10
-1.096947552e-09
3.284297279e-10
-2.341018203e-09
9.165457588e-06
-1.201821344e-13
-4.420061259e-13
9.165458978e-06
7.024907902e-13
-1.187351632e-12
9.165458134e-06
1.618638888e-13
-7.926690957e-13
9.165458077e-06
8.466725261e-13
-1.506496728e-12
9.165456186e-06
6.256197511e-13
-2.514278662e-12
9.165457154e-06
1.622847245e-12
-1.576339675e-12
9.165455226e-06
2.185824797e-12
-2.282588361e-12
9.165451358e-06
4.390518171e-12
-5.25182425e-12
9.165448373e-06
6.119083877e-12
-8.102548231e-12
9.165445457e-06
1.494755381e-11
-1.941247335e-11
9.165443065e-06
1.904861878e-11
-2.034868927e-11
9.165459761e-06
4.941461652e-11
-6.849212399e-11
9.165466148e-06
5.963800351e-11
-4.988786014e-11
9.165623443e-06
1.372249992e-10
-2.352109574e-10
3.235453782e-10
-5.741671204e-10
9.165472805e-06
1.405864499e-12
3.064251985e-13
9.165471616e-06
1.211063401e-12
-2.349498603e-13
9.165472001e-06
2.655968448e-12
3.053923791e-14
9.16547074e-06
2.586569294e-12
-1.693367924e-12
9.165470176e-06
1.750823285e-12
-2.614927934e-12
9.165471078e-06
2.336557193e-12
-2.954512968e-12
9.165472629e-06
3.637439547e-12
-1.739789248e-12
9.165471534e-06
6.923964688e-12
-4.026965881e-12
9.165470755e-06
9.867890788e-12
-6.261153557e-12
9.165469924e-06
1.605727497e-11
-1.5652341e-11
9.165469271e-06
2.071689521e-11
-1.894666958e-11
9.165482892e-06
4.135987369e-11
-4.787387733e-11
9.165492295e-06
5.506449153e-11
-6.025848503e-11
9.165593499e-06
8.891492745e-11
-1.378383215e-10
1.925151362e-10
-3.254391948e-10
9.165379737e-06
-1.358407113e-14
-7.187186869e-13
9.165380884e-06
1.835588637e-13
-8.118158317e-13
9.165381107e-06
1.26828284e-12
-9.33046175e-13
9.16538031e-06
9.610735e-13
-2.299146584e-12
9.165379805e-06
2.274427609e-12
-1.932937214e-12
9.165380914e-06
2.719349957e-12
-2.144499969e-12
9.165381574e-06
3.560414885e-12
-2.171569623e-12
9.165382593e-06
4.46939757e-12
-3.683921301e-12
9.165384888e-06
4.884985477e-12
-6.20961745e-12
9.165388705e-06
8.816360542e-12
-1.113528428e-11
9.165394182e-06
1.176489522e-11
-1.390497376e-11
9.165418113e-06
2.231545903e-11
-2.52475923e-11
9.165443777e-06
2.968663471e-11
-3.431886634e-11
9.165500694e-06
4.057035813e-11
-5.22123328e-11
8.820082319e-11
-1.151811796e-10
9.165413586e-06
2.528988462e-13
9.165415352e-06
-5.379617306e-13
9.165413579e-06
-2.18632413e-12
9.165415648e-06
-1.812653002e-12
9.165413729e-06
-9.157173481e-13
9.165415929e-06
-1.537010096e-12
9.16541857e-06
-2.27358351e-12
9.165420138e-06
-3.101060608e-12
9.16542419e-06
-4.666977132e-12
9.165429926e-06
-9.09701587e-12
9.165440094e-06
-1.192285848e-11
9.165462571e-06
-1.927326755e-11
9.165494059e-06
-2.531403681e-11
9.165536033e-06
-3.277460459e-11
-6.298076396e-11
9.165453838e-06
1.441922874e-12
2.410744023e-13
9.165455387e-06
1.245220886e-13
1.556195779e-14
9.165451117e-06
-9.763440776e-13
-2.429016546e-12
9.165454702e-06
3.88955707e-13
-1.450061002e-12
9.165454431e-06
-1.166805109e-12
-1.281191123e-12
9.165453424e-06
-2.059976729e-12
-8.480243401e-13
9.165455756e-06
-1.690334401e-12
-1.346585733e-12
9.165457182e-06
-3.551163221e-12
-2.302316166e-12
9.16546149e-06
-4.082622568e-12
-3.360362011e-12
9.165468317e-06
-8.236028534e-12
-5.641955911e-12
9.165479218e-06
-9.533614949e-12
-8.827164729e-12
9.165500453e-06
-2.680319657e-11
-1.63657219e-11
9.165529634e-06
-3.134880748e-11
-2.498988382e-11
-5.113676555e-11
-3.482000238e-11
9.165357666e-06
2.627380625e-13
-1.028791696e-12
9.165358891e-06
1.484151936e-12
2.996039102e-13
9.165358572e-06
-5.679025093e-14
9.204977425e-13
9.165358803e-06
1.610236419e-13
3.359875092e-13
9.165358203e-06
-1.152353167e-12
-5.034404368e-13
9.165359682e-06
-2.572070152e-12
-1.094889816e-12
9.165358729e-06
-3.161510339e-12
-1.312456227e-12
9.165360216e-06
-4.697782832e-12
-1.62930133e-12
9.165361838e-06
-7.206642717e-12
-3.814296838e-12
9.165366799e-06
-1.703629278e-11
-7.6859138e-12
9.165371226e-06
-2.195247409e-11
-1.21772838e-11
9.16539733e-06
-5.287059277e-11
-2.486837051e-11
9.165424294e-06
-5.505270169e-11
-3.67406029e-11
-1.181137425e-10
-6.266075708e-11
9.165372788e-06
5.431913458e-13
-3.187193099e-13
9.16536949e-06
-5.91732213e-13
-2.467043938e-12
9.165369472e-06
-4.904459846e-13
-6.892530167e-13
9.165370226e-06
1.31969403e-13
-4.746737e-13
9.165371058e-06
-8.295685512e-13
4.647747133e-13
9.165370525e-06
-8.506425237e-13
-1.142263079e-13
9.165366675e-06
-1.49594961e-12
-5.533961726e-13
9.165365054e-06
-4.45700948e-12
-1.764076994e-12
9.16536252e-06
-9.046649673e-12
-5.69620362e-12
9.165357833e-06
-2.008903309e-11
-1.248398169e-11
9.165357047e-06
-2.018240835e-11
-1.916705736e-11
9.165374202e-06
-6.848574022e-11
-4.881773235e-11
9.165383836e-06
-4.817622027e-11
-7.233353783e-11
-2.356652422e-10
-1.780080368e-10
9.165329316e-06
1.666436926e-12
-1.181094447e-12
9.165328283e-06
1.577028963e-12
-1.440147284e-13
9.165328063e-06
1.983135275e-12
5.797036374e-13
9.165325788e-06
-1.66535178e-13
1.054812892e-14
9.165327316e-06
7.199566643e-13
-1.365954343e-12
9.165324342e-06
-1.92967977e-12
-2.971868135e-12
9.165322896e-06
-2.767645914e-12
-3.444090115e-12
9.165316417e-06
-4.354743017e-12
-3.393521077e-12
9.165316215e-06
-5.816344868e-12
-4.990491287e-12
9.165310851e-06
-1.771170287e-11
-1.652215488e-11
9.165319783e-06
-2.626436929e-11
-2.514264289e-11
9.165350587e-06
-8.484012563e-11
-8.202231855e-11
9.165455597e-06
-1.007877876e-10
-1.002995014e-10
9.165669796e-06
-3.417789929e-10
-3.416808681e-10
-5.472463038e-10
9.165401897e-06
-5.146517226e-13
-1.446126501e-12
9.165402909e-06
1.40331455e-13
-5.426866401e-13
9.165400578e-06
-4.487133242e-13
-3.658107834e-13
9.165402535e-06
1.862110114e-12
-8.565848212e-15
9.165399022e-06
2.429847007e-12
-1.548360411e-12
9.1653968e-06
3.669516554e-12
-1.111800783e-12
9.16539343e-06
3.549095425e-12
-2.008393579e-12
9.165381661e-06
4.406845405e-12
-5.106727287e-12
9.165369657e-06
7.551506438e-12
-7.890846895e-12
9.165336257e-06
1.742201493e-11
-2.692283435e-11
9.165294834e-06
2.51628236e-11
-4.853777388e-11
9.165178174e-06
8.466516417e-11
-2.112654225e-10
9.165172378e-06
1.008372792e-10
-3.715231128e-10
9.165715219e-06
3.419963211e-10
-2.323474577e-09
5.461369303e-10
-3.98858084e-09
9.165461322e-06
1.17804677e-12
-1.217668528e-12
9.165463483e-06
1.085884781e-12
-3.258004024e-14
9.165463058e-06
1.63348449e-12
-7.680149382e-13
9.165462362e-06
3.891197042e-13
-1.445334335e-12
9.165460821e-06
9.435199939e-13
-1.638183379e-12
9.165458868e-06
1.312149274e-12
-2.196493034e-12
9.165458074e-06
2.712825575e-12
-2.938507558e-12
9.16545328e-06
5.896796271e-12
-3.769646385e-12
9.165450739e-06
8.427515171e-12
-4.237070106e-12
9.16544622e-06
1.886612072e-11
-1.765824019e-11
9.16545719e-06
2.061193071e-11
-2.521138314e-11
9.16548719e-06
6.873403276e-11
-8.37272298e-11
9.165591801e-06
4.884539718e-11
-1.024139753e-10
9.165804602e-06
2.340596765e-10
-3.417781038e-10
5.717450827e-10
-5.467440672e-10
9.165380269e-06
1.024162336e-12
-1.292603524e-12
9.16537967e-06
1.33983863e-12
-9.553474889e-13
9.165380264e-06
1.438071409e-12
-4.021981473e-13
9.165380792e-06
2.750129938e-12
3.95643937e-13
9.165379507e-06
1.42727707e-12
1.605068915e-14
9.16538015e-06
3.303504559e-12
-7.789069031e-13
9.165378008e-06
3.759771906e-12
-2.502226587e-12
9.165376432e-06
6.980700731e-12
-3.942841786e-12
9.1653724e-06
9.33888824e-12
-4.404221476e-12
9.165370291e-06
1.86571016e-11
-1.160906235e-11
9.165368243e-06
2.165910343e-11
-1.884153902e-11
9.165383291e-06
5.354775636e-11
-4.873276477e-11
9.165392024e-06
5.495902618e-11
-7.383537243e-11
9.165548473e-06
1.18195682e-10
-1.780013505e-10
2.886973147e-10
-3.284162195e-10
9.165432881e-06
1.131739926e-12
-4.59433762e-13
9.165432115e-06
4.597568902e-15
-8.450642783e-13
9.165433606e-06
1.181386083e-12
-4.417617117e-14
9.165433603e-06
7.048157063e-13
6.829273227e-14
9.165435085e-06
3.095917457e-12
-1.108491293e-12
9.165435234e-06
1.397853231e-12
-1.952649041e-12
9.165436081e-06
2.776095679e-12
-1.581287377e-12
9.165436589e-06
4.968147975e-12
-2.401907002e-12
9.16543641e-06
5.696131005e-12
-3.501271717e-12
9.165440397e-06
1.026841156e-11
-7.877208765e-12
9.165448349e-06
1.174246573e-11
-1.117088676e-11
9.165473064e-06
2.573797557e-11
-2.429837905e-11
9.165499011e-06
3.187195437e-11
-3.639590431e-11
9.165581005e-06
5.055334603e-11
-6.294409337e-11
1.257193918e-10
-1.095114235e-10
9.16540153e-06
-9.952255328e-13
9.165401991e-06
-1.685536453e-13
9.165403045e-06
-9.655364195e-13
9.165404029e-06
-1.810306329e-13
9.16540165e-06
-1.284955728e-12
9.165404134e-06
-2.617239722e-13
9.165405454e-06
-1.238096416e-12
9.165404185e-06
-1.412554282e-12
9.165407199e-06
-3.736192552e-12
9.165414695e-06
-5.400923206e-12
9.165425958e-06
-8.44597362e-12
9.165450507e-06
-1.438137828e-11
9.165476695e-06
-2.327552203e-11
9.165529946e-06
-3.395694135e-11
-5.721291869e-11
9.165419786e-06
4.28254079e-13
-4.34080995e-13
9.165418976e-06
6.181230021e-13
-6.139956887e-14
9.165419579e-06
1.316915053e-12
-1.754342253e-13
9.165419419e-06
7.448245423e-13
1.204762616e-13
9.165421893e-06
2.994868307e-13
1.090129653e-12
9.165420289e-06
-9.310119241e-13
-6.031701569e-13
9.165422996e-06
-9.905529326e-13
1.069843611e-12
9.165421821e-06
-3.00014081e-12
7.875359958e-13
9.165423559e-06
-5.367421845e-12
1.971576462e-12
9.165426097e-06
-1.309085214e-11
4.362273136e-12
9.1654287e-06
-1.693349252e-11
7.674076743e-12
9.165445147e-06
-4.668972093e-11
1.504135504e-11
9.165463387e-06
-6.381384913e-11
2.390733524e-11
-1.447141617e-10
3.38265972e-11
9.165376743e-06
1.322372298e-12
2.895297962e-13
9.165376532e-06
-7.28328387e-13
-8.160665458e-13
9.165374105e-06
-4.430188718e-13
-7.255960771e-13
9.165374123e-06
-7.787314927e-13
7.759927031e-13
9.165373569e-06
-8.115980138e-13
5.014442847e-13
9.16537347e-06
-1.024208595e-12
1.090790994e-12
9.165372903e-06
-1.963805449e-12
1.211070437e-12
9.165370169e-06
-5.564960106e-12
1.788602872e-12
9.165368442e-06
-9.677486758e-12
3.350304754e-12
9.16536511e-06
-2.469355565e-11
7.243795186e-12
9.165356967e-06
-3.523429245e-11
1.048888071e-11
9.165367572e-06
-1.036154166e-10
2.334974493e-11
9.165359902e-06
-1.289970883e-10
3.652397425e-11
-4.127899236e-10
6.262412176e-11
9.165397333e-06
-6.830208883e-13
-7.95373699e-13
9.165399723e-06
9.006267623e-13
-9.195969518e-13
9.165397701e-06
1.777491693e-12
1.649706272e-13
9.165397354e-06
-7.890317395e-14
1.334200315e-13
9.165395281e-06
-2.979552923e-12
-5.065433697e-13
9.165393164e-06
-3.573503753e-12
3.666858092e-13
9.165388936e-06
-4.330530845e-12
-1.015678401e-13
9.165383446e-06
-7.441810243e-12
2.342183424e-12
9.165376941e-06
-9.345117307e-12
3.596472662e-12
9.165357072e-06
-3.022756379e-11
1.098291228e-11
9.16532696e-06
-3.81640855e-11
1.940331851e-11
9.165284494e-06
-1.640308375e-10
4.886644583e-11
9.165183184e-06
-1.730714874e-10
7.331630638e-11
-1.096646073e-09
1.78972379e-10
9.165422006e-06
1.919560171e-12
-9.036534375e-14
9.165422918e-06
6.78307794e-13
7.621930618e-13
9.165418741e-06
1.182193437e-13
-1.198492172e-12
9.165420442e-06
1.926389889e-13
4.236254544e-13
9.165421543e-06
2.15879908e-13
1.19130855e-12
9.165419914e-06
-4.444088544e-13
1.82181929e-12
9.165416265e-06
-2.188155992e-12
1.786712051e-12
9.165404175e-06
-4.898783687e-12
3.090306964e-12
9.165389087e-06
-9.066703815e-12
6.073662418e-12
9.165355101e-06
-2.849020168e-11
1.72553612e-11
9.165316319e-06
-4.903580051e-11
2.495550127e-11
9.165193886e-06
-2.139574558e-10
8.206341883e-11
9.165190784e-06
-3.72601373e-10
1.006697971e-10
-2.323287684e-09
3.431224019e-10
9.165406306e-06
3.116793299e-14
-8.358721612e-13
9.165407658e-06
7.649274043e-13
2.008230026e-13
9.165405665e-06
-1.06831038e-12
-3.497441028e-13
9.165404902e-06
6.339601453e-13
7.028700289e-13
9.165406e-06
1.142677865e-12
1.705011207e-12
9.165402612e-06
2.046596852e-12
1.614681571e-12
9.165396792e-06
3.179528606e-12
2.714377325e-12
9.165378253e-06
5.865236076e-12
5.121751064e-12
9.165345178e-06
1.049523262e-11
9.718509416e-12
9.165237954e-06
2.693036235e-11
2.89568104e-11
9.165047225e-06
4.802579555e-11
4.915363e-11
9.164197502e-06
2.113068015e-10
2.123164703e-10
9.16270837e-06
3.703971767e-10
3.72710838e-10
9.153414221e-06
2.323424467e-09
2.324643765e-09
3.988835516e-09
9.165416743e-06
9.563936099e-13
1.8680409e-12
9.165415818e-06
1.047413342e-12
7.304714138e-13
9.165416545e-06
1.542177971e-12
6.692114589e-13
9.165415123e-06
2.048751786e-12
1.000473032e-12
9.165415493e-06
3.121203866e-12
1.353200813e-12
9.165413082e-06
2.747953594e-12
1.436260755e-12
9.16541094e-06
3.80245288e-12
1.4712813e-12
9.165400405e-06
6.419343346e-12
2.990236377e-12
9.165382743e-06
1.04717093e-11
4.560816211e-12
9.165351731e-06
3.040085401e-11
1.781946038e-11
9.16530976e-06
3.68639241e-11
2.592797935e-11
9.165191853e-06
1.661819466e-10
8.384192072e-11
9.165188102e-06
1.753831306e-10
1.027927983e-10
9.165729525e-06
1.097270895e-09
3.428277982e-10
2.339905159e-09
9.165445485e-06
1.377846188e-12
-1.528268292e-13
9.165443661e-06
1.52466091e-12
-3.773805276e-13
9.165443403e-06
1.685343933e-12
-6.044001206e-13
9.165443585e-06
2.513215683e-12
1.73939329e-13
9.165442574e-06
1.450067358e-12
7.891796821e-13
9.165441471e-06
2.036941856e-12
1.343318373e-12
9.165438908e-06
3.96963822e-12
2.82176835e-12
9.165435056e-06
7.750322142e-12
3.593272539e-12
9.165423352e-06
1.09405993e-11
5.045179903e-12
9.165407857e-06
2.634716293e-11
1.253282106e-11
9.165376874e-06
3.639394191e-11
1.915878504e-11
9.165336052e-06
1.066880077e-10