/*--------------------------------*- C++ -*----------------------------------*\
| =========                 |                                                 |
| \\      /  F ield         | OpenFOAM: The Open Source CFD Toolbox           |
|  \\    /   O peration     | Version:  4.x                                   |
|   \\  /    A nd           | Web:      www.OpenFOAM.org                      |
|    \\/     M anipulation  |                                                 |
\*---------------------------------------------------------------------------*/
FoamFile
{
    version     2.0;
    format      ascii;
    class       volScalarField;
    location    "9000";
    object      rho;
}
// * * * * * * * * * * * * * * * * * * * * * * * * * * * * * * * * * * * * * //

dimensions      [1 -3 0 0 0 0 0];

internalField   nonuniform List<scalar> 
1175
(
0.2699632912
0.2699632714
0.2699632944
0.2699633058
0.2699633085
0.2699633108
0.2699633056
0.2699633056
0.269963328
0.2699633446
0.2699633269
0.2699633508
0.2699633832
0.2699634115
0.2699634688
0.2699626717
0.2699626754
0.2699626366
0.2699626213
0.2699625995
0.2699626049
0.269962608
0.2699626437
0.2699626066
0.2699626262
0.2699626213
0.2699626184
0.2699626191
0.2699626925
0.2699627959
0.2699639123
0.2699639268
0.2699639419
0.2699639331
0.269963936
0.2699639325
0.2699639109
0.269963921
0.2699638727
0.2699639066
0.2699638928
0.2699639016
0.2699639745
0.2699640535
0.2699642478
0.269963637
0.2699636393
0.2699636337
0.2699636504
0.2699636693
0.2699636825
0.2699636907
0.269963675
0.2699636539
0.2699636523
0.269963661
0.2699636888
0.2699637902
0.2699639868
0.269964294
0.2699631307
0.269963143
0.2699631452
0.269963164
0.2699631134
0.2699631271
0.2699631503
0.2699631488
0.2699631604
0.2699631523
0.2699631758
0.269963206
0.2699632923
0.2699635671
0.2699640696
0.2699630191
0.2699630027
0.2699629954
0.2699629906
0.2699629674
0.2699629136
0.2699629333
0.2699629604
0.2699629557
0.2699629247
0.269962932
0.2699629767
0.2699630843
0.2699633192
0.2699637218
0.2699631577
0.2699631931
0.2699631623
0.2699631632
0.2699631469
0.2699631707
0.2699631787
0.2699631714
0.2699631982
0.2699632025
0.2699631876
0.2699631857
0.2699632428
0.2699633412
0.2699635655
0.2699637876
0.2699637655
0.2699637773
0.2699637552
0.2699637545
0.2699637616
0.269963761
0.2699637559
0.2699637241
0.2699637664
0.2699637512
0.2699637482
0.2699637759
0.269963851
0.2699639699
0.2699633854
0.2699633834
0.2699633801
0.2699633909
0.2699634117
0.2699633979
0.2699634278
0.2699634089
0.269963393
0.2699634001
0.2699633739
0.2699633972
0.2699633759
0.2699634353
0.2699634726
0.2699623549
0.2699623751
0.269962345
0.2699623168
0.269962275
0.2699623024
0.2699622479
0.2699622788
0.2699622794
0.2699623063
0.2699622691
0.2699622633
0.2699622945
0.2699623453
0.2699632273
0.2699632426
0.2699632663
0.269963269
0.2699632678
0.2699632417
0.2699632605
0.2699632213
0.2699632118
0.2699631968
0.2699631982
0.2699632551
0.2699633185
0.2699634612
0.2699636737
0.2699635114
0.2699635161
0.2699635158
0.2699635077
0.2699634842
0.2699634714
0.2699634923
0.2699635279
0.2699635249
0.2699634997
0.2699635454
0.2699635814
0.2699636649
0.2699638611
0.2699643618
0.2699630886
0.2699630629
0.2699630408
0.2699630733
0.2699630707
0.2699630926
0.2699630781
0.2699630867
0.2699630543
0.2699630622
0.269963134
0.2699632169
0.2699633914
0.2699639481
0.269964991
0.2699610165
0.2699609964
0.2699609924
0.2699609638
0.2699609595
0.269960963
0.269960972
0.2699609534
0.2699609324
0.2699609196
0.269960962
0.269961091
0.2699613953
0.2699621754
0.2699638397
0.2699617875
0.2699617594
0.2699617271
0.2699617518
0.2699617625
0.2699617732
0.2699617782
0.2699617665
0.2699618069
0.2699618355
0.2699618642
0.2699619421
0.2699621185
0.2699626349
0.2699636658
0.2699631965
0.2699632324
0.2699632295
0.2699632323
0.2699632073
0.2699632263
0.2699632286
0.2699632047
0.269963211
0.269963195
0.2699632012
0.2699632028
0.2699633065
0.2699635957
0.2699641275
0.2699632642
0.2699632637
0.2699632512
0.2699632336
0.2699632116
0.2699632113
0.2699631962
0.26996318
0.2699632223
0.2699631944
0.2699632065
0.2699632137
0.2699632552
0.2699633485
0.2699635928
0.2699621922
0.269962201
0.2699621943
0.2699621763
0.2699621948
0.2699622234
0.2699622458
0.2699622421
0.2699622559
0.2699622294
0.2699622281
0.2699622874
0.2699623128
0.2699623339
0.2699624393
0.2699636011
0.2699635941
0.269963625
0.2699636421
0.2699636463
0.269963637
0.2699636494
0.2699636638
0.2699636676
0.2699636645
0.2699636976
0.26996371
0.2699638049
0.2699638847
0.2699638071
0.2699638026
0.2699637928
0.2699638306
0.2699638211
0.2699638048
0.2699638133
0.2699638225
0.2699637866
0.2699638035
0.2699638178
0.2699638144
0.2699639379
0.2699641637
0.2699622632
0.2699622804
0.2699622608
0.2699622663
0.269962259
0.2699622749
0.26996228
0.2699622907
0.2699622816
0.2699622927
0.2699622965
0.2699623641
0.2699626373
0.2699633364
0.2699647547
0.2699639986
0.2699640295
0.2699640295
0.2699640377
0.269964046
0.2699640484
0.2699640642
0.2699640279
0.269964029
0.2699640442
0.2699640571
0.2699642232
0.2699648236
0.2699665649
0.2699701871
0.2699625234
0.2699624933
0.2699624794
0.2699624784
0.269962482
0.2699624634
0.2699624816
0.2699624876
0.2699624619
0.2699624931
0.269962547
0.2699627884
0.2699637224
0.2699667863
0.2699742681
0.2699644351
0.2699644182
0.2699644168
0.2699644313
0.2699644693
0.2699644321
0.2699644114
0.2699644066
0.2699643845
0.2699643798
0.2699643711
0.269964543
0.2699651674
0.2699668119
0.2699703997
0.2699647966
0.2699647645
0.2699647854
0.2699647988
0.2699647943
0.2699648051
0.2699647948
0.2699647871
0.2699647897
0.2699648213
0.2699648482
0.2699649632
0.2699652255
0.2699658664
0.2699672338
0.2699621277
0.2699621477
0.2699621311
0.2699621385
0.2699620929
0.2699621186
0.2699621085
0.2699621258
0.2699620723
0.2699620697
0.2699620394
0.2699620754
0.2699621933
0.2699624224
0.2699629156
0.2699630765
0.2699630876
0.2699631069
0.2699631157
0.2699631097
0.2699631322
0.2699630928
0.2699631351
0.2699631425
0.2699631675
0.2699631534
0.269963169
0.2699632545
0.2699634068
0.2699635981
0.2699642315
0.2699642635
0.269964264
0.2699642272
0.2699642285
0.2699642476
0.269964249
0.2699642681
0.2699642985
0.2699643192
0.2699643201
0.2699643401
0.2699644402
0.2699646164
0.269961513
0.2699614972
0.2699614596
0.2699614932
0.2699614906
0.2699614713
0.2699614395
0.2699614577
0.2699614789
0.2699614721
0.2699614907
0.2699615648
0.2699617125
0.2699622606
0.2699618919
0.2699618648
0.2699618482
0.2699618415
0.2699618644
0.2699618386
0.2699618179
0.2699618199
0.2699617765
0.2699617925
0.2699618557
0.2699619891
0.2699625844
0.269964285
0.2699606031
0.2699605831
0.2699605993
0.2699605636
0.2699605771
0.2699605634
0.2699605399
0.2699605556
0.2699605435
0.2699605416
0.2699606435
0.2699610674
0.2699625758
0.2699678531
0.2699810828
0.2699627777
0.2699627846
0.2699627558
0.2699627847
0.2699627586
0.2699627889
0.2699627701
0.2699627571
0.2699627593
0.2699627855
0.2699629356
0.2699636046
0.2699666042
0.2699794617
0.2700235472
0.2699645225
0.2699645294
0.2699645549
0.269964584
0.2699645892
0.2699645551
0.2699645478
0.2699645309
0.2699645507
0.2699645776
0.2699646731
0.2699650664
0.2699666139
0.2699718878
0.2699851491
0.269962177
0.2699621774
0.2699621651
0.2699621645
0.2699621355
0.2699621252
0.2699621388
0.2699621089
0.26996212
0.2699621344
0.2699621617
0.2699623211
0.269962906
0.2699645937
0.2699682178
0.2699636865
0.2699636723
0.2699636862
0.2699637155
0.2699636957
0.2699637377
0.2699637114
0.2699637291
0.2699637107
0.2699637225
0.2699637708
0.2699638285
0.2699640136
0.2699645106
0.2699655397
0.269962795
0.2699628077
0.2699627898
0.2699627513
0.2699627735
0.2699627297
0.2699627626
0.2699627659
0.269962774
0.2699627389
0.2699627773
0.2699628207
0.2699629317
0.2699631306
0.2699634964
0.2699632996
0.2699633029
0.2699632721
0.2699632819
0.2699632485
0.2699632521
0.2699632957
0.2699632935
0.269963344
0.2699633588
0.2699633405
0.2699634039
0.2699635329
0.2699637753
0.2699619962
0.2699620032
0.2699620007
0.2699619755
0.2699619549
0.2699619533
0.2699619653
0.2699619382
0.2699619567
0.2699619475
0.2699619523
0.2699619945
0.2699623054
0.2699631075
0.2699626626
0.2699626223
0.2699626495
0.2699626459
0.2699626531
0.2699626615
0.2699626465
0.2699625976
0.2699626046
0.2699625967
0.2699626985
0.2699628951
0.2699638592
0.2699669162
0.2699633225
0.2699633254
0.2699633736
0.269963374
0.2699633489
0.2699633738
0.2699634035
0.2699633925
0.2699634025
0.2699633826
0.2699634866
0.2699641862
0.2699671769
0.2699800028
0.2699629205
0.269962936
0.2699629096
0.2699629049
0.2699629349
0.2699629596
0.2699630263
0.2699630138
0.2699630312
0.2699631043
0.2699633197
0.2699646167
0.2699720237
0.2700193626
0.2711140332
0.2699632248
0.2699632207
0.2699632091
0.2699631758
0.269963194
0.2699632276
0.2699632463
0.2699632534
0.2699632489
0.2699632597
0.269963398
0.2699640182
0.2699670258
0.2699798583
0.2700240029
0.2699640665
0.2699640324
0.2699640734
0.2699640223
0.2699640153
0.2699639882
0.269964018
0.2699640282
0.2699640245
0.2699640576
0.2699641696
0.2699644636
0.269965353
0.2699684109
0.2699758959
0.2699641376
0.2699641376
0.2699641015
0.2699641112
0.2699640752
0.2699640965
0.2699641287
0.2699641279
0.2699641099
0.2699641259
0.2699641206
0.2699642282
0.2699645006
0.2699653139
0.2699669298
0.2699631679
0.2699631815
0.269963165
0.2699631647
0.2699631901
0.2699631987
0.2699631975
0.2699631938
0.2699632153
0.2699632149
0.269963221
0.2699632759
0.2699633583
0.2699635606
0.2699640623
0.269961587
0.2699615867
0.2699615826
0.2699615705
0.2699615578
0.269961544
0.2699615236
0.2699615273
0.2699615359
0.2699615329
0.2699615643
0.2699615643
0.2699616617
0.26996184
0.2699631883
0.2699631583
0.2699631717
0.2699631894
0.2699631619
0.269963172
0.2699631475
0.2699631619
0.2699631145
0.2699630852
0.269963101
0.269963151
0.2699633799
0.2699639304
0.2699629694
0.2699629814
0.2699629599
0.2699629809
0.2699630278
0.2699630093
0.2699630212
0.2699629868
0.2699629694
0.2699630186
0.269963061
0.2699632062
0.2699637759
0.2699654608
0.2699634193
0.2699634301
0.2699634031
0.2699633863
0.2699633642
0.2699633875
0.2699633828
0.2699633513
0.2699633505
0.2699633247
0.2699633939
0.2699638441
0.2699653815
0.2699706868
0.2699624291
0.2699624401
0.269962422
0.269962445
0.2699624095
0.269962416
0.2699624185
0.2699623919
0.2699624229
0.2699624891
0.2699625942
0.2699632639
0.2699662369
0.2699790792
0.2699615047
0.2699615222
0.2699615216
0.2699615619
0.2699615751
0.2699615665
0.2699615199
0.2699615209
0.2699615408
0.2699615823
0.2699616849
0.2699620814
0.269963633
0.2699689358
0.2699626536
0.2699626989
0.2699626925
0.2699627482
0.2699627676
0.2699627674
0.2699627731
0.2699627811
0.269962797
0.2699627961
0.2699628351
0.2699630172
0.2699636332
0.2699653078
0.2699689286
0.2699638337
0.2699638436
0.269963848
0.2699638668
0.2699638427
0.2699638701
0.2699638892
0.2699638361
0.2699638374
0.2699638687
0.2699639055
0.2699639215
0.269964146
0.2699646408
0.269965705
0.2699628971
0.2699629165
0.2699629005
0.2699629354
0.2699629471
0.2699629155
0.2699629327
0.2699629651
0.2699629562
0.2699629704
0.2699629828
0.2699630045
0.2699630401
0.2699632533
0.2699636253
0.2699636113
0.2699636078
0.2699636205
0.2699636357
0.2699636233
0.2699636288
0.269963635
0.2699636461
0.2699636449
0.2699636831
0.2699636878
0.269963734
0.2699637723
0.2699639143
0.2699623264
0.2699623218
0.2699623091
0.2699623617
0.2699624044
0.2699624469
0.2699624203
0.2699624156
0.2699624123
0.2699624593
0.2699624406
0.2699624454
0.2699625875
0.2699627899
0.2699643792
0.269964394
0.2699643762
0.2699643554
0.2699643865
0.269964382
0.2699643703
0.2699643928
0.2699644054
0.2699644382
0.2699644417
0.2699645446
0.2699647845
0.2699655079
0.2699644759
0.2699644464
0.2699644428
0.2699644097
0.2699644086
0.2699643955
0.2699644011
0.2699643901
0.2699643811
0.2699643879
0.2699644354
0.2699645999
0.2699651936
0.2699669052
0.2699612249
0.2699612096
0.2699611991
0.2699611941
0.2699611713
0.2699611749
0.2699611813
0.2699612163
0.2699612675
0.2699613104
0.2699613906
0.2699616498
0.2699626015
0.2699656722
0.2699628535
0.2699628833
0.2699628599
0.269962898
0.269962901
0.2699629043
0.2699629216
0.2699629227
0.2699629161
0.2699629295
0.269962987
0.2699631711
0.2699637525
0.2699654218
0.2699626734
0.2699626739
0.2699626729
0.2699626824
0.2699626921
0.269962708
0.2699626952
0.2699626788
0.2699626794
0.2699626923
0.2699627167
0.2699628094
0.2699630847
0.2699637947
0.2699627556
0.2699627984
0.2699627585
0.2699627721
0.2699627513
0.2699627367
0.2699627837
0.2699627622
0.2699627617
0.2699627567
0.2699627225
0.2699627694
0.2699628313
0.2699630926
0.2699635858
0.2699633506
0.2699633301
0.269963388
0.2699633717
0.2699633872
0.2699633971
0.2699634041
0.2699633871
0.2699633715
0.2699633599
0.2699633711
0.2699633972
0.2699634585
0.2699635575
0.269963772
0.2699635154
0.2699635209
0.2699635111
0.2699635059
0.2699635002
0.2699635038
0.2699635319
0.2699635396
0.269963508
0.2699635098
0.2699635204
0.2699635889
0.2699636097
0.2699636799
0.2699637263
0.2699637183
0.2699637171
0.2699637338
0.2699637196
0.2699637157
0.2699637216
0.2699637319
0.2699637314
0.2699637165
0.2699636949
0.2699637219
0.2699637611
0.2699638893
0.2699622949
0.2699623117
0.2699622906
0.2699623045
0.2699623249
0.2699622821
0.2699622473
0.2699622273
0.2699622389
0.2699622572
0.2699622498
0.2699622878
0.2699623745
0.2699626826
0.2699622612
0.2699622676
0.2699622643
0.2699622413
0.2699622282
0.2699622552
0.2699622375
0.269962261
0.269962289
0.2699623092
0.2699623067
0.2699623855
0.2699625378
0.2699630067
0.2699627218
0.2699627394
0.2699627513
0.269962753
0.2699627427
0.2699627536
0.2699627652
0.2699627786
0.2699628111
0.2699627716
0.2699627928
0.2699628974
0.2699632
0.2699639484
0.2699615962
0.2699616233
0.2699616793
0.2699616651
0.2699617087
0.2699616982
0.2699616796
0.2699616372
0.2699616427
0.2699616939
0.2699617227
0.2699617568
0.2699620206
0.2699625568
0.2699642456
0.2699642228
0.2699642123
0.2699642235
0.269964215
0.2699642278
0.269964257
0.2699642251
0.2699642322
0.2699641892
0.2699641904
0.2699642333
0.2699642994
0.2699645497
0.2699633301
0.2699633294
0.2699633375
0.269963319
0.2699633007
0.2699632937
0.2699633012
0.2699633495
0.2699633818
0.2699633478
0.2699633817
0.2699633964
0.2699634578
0.269963568
0.2699621305
0.2699621904
0.2699621749
0.2699621921
0.2699622078
0.2699622227
0.2699622064
0.2699622338
0.2699622523
0.2699622655
0.2699623014
0.2699623224
0.2699623213
0.2699623781
0.2699625241
0.2699636623
0.2699636544
0.2699636656
0.2699636548
0.2699636512
0.2699636596
0.2699636716
0.2699636905
0.26996368
0.2699636777
0.2699636729
0.2699636923
0.2699637113
0.2699637069
0.2699629091
0.2699629123
0.2699629152
0.2699629365
0.2699629435
0.269962909
0.2699628827
0.2699629192
0.2699628841
0.2699628887
0.2699629277
0.2699629453
0.2699629904
0.269963057
0.2699630432
0.2699630423
0.2699630509
0.269963079
0.2699630477
0.2699630188
0.2699630092
0.2699630349
0.2699629948
0.2699630189
0.2699630066
0.2699630222
0.2699631054
0.2699632382
0.2699628424
0.269962869
0.2699628621
0.2699628417
0.2699628651
0.2699628859
0.2699628529
0.2699628613
0.2699628579
0.2699629028
0.2699629599
0.2699629908
0.2699630834
0.2699633121
0.2699632409
0.2699632576
0.2699632436
0.269963227
0.2699632299
0.2699632285
0.2699632341
0.2699632257
0.2699632236
0.269963258
0.2699632529
0.2699632944
0.2699634443
0.2699637046
0.2699635735
0.2699635679
0.2699635485
0.2699635494
0.2699635612
0.2699635624
0.2699635342
0.2699635665
0.2699635516
0.2699635185
0.2699635047
0.2699635443
0.2699636369
0.2699638299
0.2699651705
0.2699651897
0.2699651765
0.2699651753
0.2699651819
0.2699651812
0.2699651469
0.269965136
0.2699651511
0.2699651225
0.2699651448
0.269965205
0.2699652514
0.2699653798
0.2699630694
0.2699630743
0.2699630558
0.269963072
0.2699631124
0.2699631107
0.2699630972
0.2699631133
0.2699631092
0.2699631209
0.2699630987
0.2699631307
0.2699631573
0.2699631683
0.269962791
0.2699628045
0.2699628123
0.2699627899
0.2699627888
0.2699627881
0.2699627866
0.2699628053
0.2699628106
0.2699628061
0.2699627754
0.2699627498
0.26996277
0.2699628275
)
;

boundaryField
{
    top
    {
        type            calculated;
        value           nonuniform List<scalar> 
134
(
0.2699633854
0.2699621922
0.2699630765
0.269962795
0.2699631679
0.2699628971
0.2699633506
0.2699621305
0.269962791
0.2699633834
0.269962201
0.2699630876
0.2699628077
0.2699631815
0.2699629165
0.2699633301
0.2699621904
0.2699628045
0.2699633801
0.2699621943
0.2699631069
0.2699627898
0.269963165
0.2699629005
0.269963388
0.2699621749
0.2699628123
0.2699633909
0.2699621763
0.2699631157
0.2699627513
0.2699631647
0.2699629354
0.2699633717
0.2699621921
0.2699627899
0.2699634117
0.2699621948
0.2699631097
0.2699627735
0.2699631901
0.2699629471
0.2699633872
0.2699622078
0.2699627888
0.2699633979
0.2699622234
0.2699631322
0.2699627297
0.2699631987
0.2699629155
0.2699633971
0.2699622227
0.2699627881
0.2699634278
0.2699622458
0.2699630928
0.2699627626
0.2699631975
0.2699629327
0.2699634041
0.2699622064
0.2699627866
0.2699634089
0.2699622421
0.2699631351
0.2699627659
0.2699631938
0.2699629651
0.2699633871
0.2699622338
0.2699628053
0.269963393
0.2699622559
0.2699631425
0.269962774
0.2699632153
0.2699629562
0.2699633715
0.2699622523
0.2699628106
0.2699634001
0.2699622294
0.2699631675
0.2699627389
0.2699632149
0.2699629704
0.2699633599
0.2699622655
0.2699628061
0.2699633739
0.2699622281
0.2699631534
0.2699627773
0.269963221
0.2699629828
0.2699633711
0.2699623014
0.2699627754
0.2699633972
0.2699622874
0.269963169
0.2699628207
0.2699632759
0.2699630045
0.2699633972
0.2699623224
0.2699627498
0.2699633759
0.2699623128
0.2699632545
0.2699629317
0.2699633583
0.2699630401
0.2699634585
0.2699623213
0.26996277
0.2699634353
0.2699623339
0.2699634068
0.2699631306
0.2699635606
0.2699632533
0.2699635575
0.2699623781
0.2699628275
0.2699634726
0.2699624393
0.2699635981
0.2699634964
0.2699640623
0.2699636253
0.269963772
0.2699625241
)
;
    }
    bottom
    {
        type            calculated;
        value           nonuniform List<scalar> 
127
(
0.2699632912
0.2699623549
0.2699636011
0.2699642315
0.2699632996
0.269961587
0.2699636113
0.2699635154
0.2699636623
0.2699632714
0.2699623751
0.2699635941
0.2699642635
0.2699633029
0.2699615867
0.2699636078
0.2699635209
0.2699636544
0.2699632944
0.269962345
0.269963625
0.269964264
0.2699632721
0.2699615826
0.2699636205
0.2699635111
0.2699636656
0.2699633058
0.2699623168
0.2699636421
0.2699642272
0.2699632819
0.2699615705
0.2699636357
0.2699635059
0.2699636548
0.2699633085
0.269962275
0.2699636463
0.2699642285
0.2699632485
0.2699615578
0.2699636233
0.2699635002
0.2699636512
0.2699633108
0.2699623024
0.269963637
0.2699642476
0.2699632521
0.269961544
0.2699636288
0.2699635038
0.2699636596
0.2699633056
0.2699622479
0.2699636494
0.269964249
0.2699632957
0.2699615236
0.269963635
0.2699635319
0.2699636716
0.2699633056
0.2699622788
0.2699636638
0.2699642681
0.2699632935
0.2699615273
0.2699636461
0.2699635396
0.2699636905
0.269963328
0.2699622794
0.2699636676
0.2699642985
0.269963344
0.2699615359
0.2699636449
0.269963508
0.26996368
0.2699633446
0.2699623063
0.2699636645
0.2699643192
0.2699633588
0.2699615329
0.2699636831
0.2699635098
0.2699636777
0.2699633269
0.2699622691
0.2699636976
0.2699643201
0.2699633405
0.2699615643
0.2699636878
0.2699635204
0.2699636729
0.2699633508
0.2699622633
0.26996371
0.2699643401
0.2699634039
0.2699615643
0.269963734
0.2699635889
0.2699636923
0.2699633832
0.2699622945
0.2699638049
0.2699644402
0.2699635329
0.2699616617
0.2699637723
0.2699636097
0.2699637113
0.2699634115
0.2699623453
0.2699638847
0.2699646164
0.2699637753
0.26996184
0.2699639143
0.2699636799
0.2699637069
0.2699634688
)
;
    }
    side-walls
    {
        type            calculated;
        value           nonuniform List<scalar> 
261
(
0.2699632912
0.2699626717
0.2699639123
0.269963637
0.2699631307
0.2699630191
0.2699631577
0.2699637876
0.2699633854
0.2699632714
0.2699626754
0.2699639268
0.2699636393
0.269963143
0.2699630027
0.2699631931
0.2699637655
0.2699633834
0.2699632944
0.2699626366
0.2699639419
0.2699636337
0.2699631452
0.2699629954
0.2699631623
0.2699637773
0.2699633801
0.2699633058
0.2699626213
0.2699639331
0.2699636504
0.269963164
0.2699629906
0.2699631632
0.2699637552
0.2699633909
0.2699633085
0.2699625995
0.269963936
0.2699636693
0.2699631134
0.2699629674
0.2699631469
0.2699637545
0.2699634117
0.2699633108
0.2699626049
0.2699639325
0.2699636825
0.2699631271
0.2699629136
0.2699631707
0.2699637616
0.2699633979
0.2699633056
0.269962608
0.2699639109
0.2699636907
0.2699631503
0.2699629333
0.2699631787
0.269963761
0.2699634278
0.2699633056
0.2699626437
0.269963921
0.269963675
0.2699631488
0.2699629604
0.2699631714
0.2699637559
0.2699634089
0.269963328
0.2699626066
0.2699638727
0.2699636539
0.2699631604
0.2699629557
0.2699631982
0.2699637241
0.269963393
0.2699633446
0.2699626262
0.2699639066
0.2699636523
0.2699631523
0.2699629247
0.2699632025
0.2699637664
0.2699634001
0.2699633269
0.2699626213
0.2699638928
0.269963661
0.2699631758
0.269962932
0.2699631876
0.2699637512
0.2699633739
0.2699633508
0.2699626184
0.2699639016
0.2699636888
0.269963206
0.2699629767
0.2699631857
0.2699637482
0.2699633972
0.2699633832
0.2699626191
0.2699639745
0.2699637902
0.2699632923
0.2699630843
0.2699632428
0.2699637759
0.2699633759
0.2699634115
0.2699626925
0.2699640535
0.2699639868
0.2699635671
0.2699633192
0.2699633412
0.269963851
0.2699634353
0.2699634688
0.2699627959
0.2699642478
0.269964294
0.2699640696
0.2699637218
0.2699635655
0.2699639699
0.2699634726
0.2699636623
0.2699629091
0.2699630432
0.2699628424
0.2699632409
0.2699635735
0.2699651705
0.2699630694
0.269962791
0.2699636544
0.2699629123
0.2699630423
0.269962869
0.2699632576
0.2699635679
0.2699651897
0.2699630743
0.2699628045
0.2699636656
0.2699629152
0.2699630509
0.2699628621
0.2699632436
0.2699635485
0.2699651765
0.2699630558
0.2699628123
0.2699636548
0.2699629365
0.269963079
0.2699628417
0.269963227
0.2699635494
0.2699651753
0.269963072
0.2699627899
0.2699636512
0.2699629435
0.2699630477
0.2699628651
0.2699632299
0.2699635612
0.2699651819
0.2699631124
0.2699627888
0.2699636596
0.269962909
0.2699630188
0.2699628859
0.2699632285
0.2699635624
0.2699651812
0.2699631107
0.2699627881
0.2699636716
0.2699628827
0.2699630092
0.2699628529
0.2699632341
0.2699635342
0.2699651469
0.2699630972
0.2699627866
0.2699636905
0.2699629192
0.2699630349
0.2699628613
0.2699632257
0.2699635665
0.269965136
0.2699631133
0.2699628053
0.26996368
0.2699628841
0.2699629948
0.2699628579
0.2699632236
0.2699635516
0.2699651511
0.2699631092
0.2699628106
0.2699636777
0.2699628887
0.2699630189
0.2699629028
0.269963258
0.2699635185
0.2699651225
0.2699631209
0.2699628061
0.2699636729
0.2699629277
0.2699630066
0.2699629599
0.2699632529
0.2699635047
0.2699651448
0.2699630987
0.2699627754
0.2699636923
0.2699629453
0.2699630222
0.2699629908
0.2699632944
0.2699635443
0.269965205
0.2699631307
0.2699627498
0.2699637113
0.2699629904
0.2699631054
0.2699630834
0.2699634443
0.2699636369
0.2699652514
0.2699631573
0.26996277
0.2699637069
0.269963057
0.2699632382
0.2699633121
0.2699637046
0.2699638299
0.2699653798
0.2699631683
0.2699628275
)
;
    }
    inlet
    {
        type            calculated;
        value           nonuniform List<scalar> 
81
(
0.2699632912
0.2699626717
0.2699639123
0.269963637
0.2699631307
0.2699630191
0.2699631577
0.2699637876
0.2699633854
0.2699623549
0.2699632273
0.2699635114
0.2699630886
0.2699610165
0.2699617875
0.2699631965
0.2699632642
0.2699621922
0.2699636011
0.2699638071
0.2699622632
0.2699639986
0.2699625234
0.2699644351
0.2699647966
0.2699621277
0.2699630765
0.2699642315
0.269961513
0.2699618919
0.2699606031
0.2699627777
0.2699645225
0.269962177
0.2699636865
0.269962795
0.2699632996
0.2699619962
0.2699626626
0.2699633225
0.2699629205
0.2699632248
0.2699640665
0.2699641376
0.2699631679
0.269961587
0.2699631883
0.2699629694
0.2699634193
0.2699624291
0.2699615047
0.2699626536
0.2699638337
0.2699628971
0.2699636113
0.2699623264
0.2699643792
0.2699644759
0.2699612249
0.2699628535
0.2699626734
0.2699627556
0.2699633506
0.2699635154
0.2699637263
0.2699622949
0.2699622612
0.2699627218
0.2699615962
0.2699642456
0.2699633301
0.2699621305
0.2699636623
0.2699629091
0.2699630432
0.2699628424
0.2699632409
0.2699635735
0.2699651705
0.2699630694
0.269962791
)
;
    }
    outlet
    {
        type            calculated;
        value           nonuniform 0();
    }
    procBoundary0to1
    {
        type            processor;
        value           nonuniform List<scalar> 
97
(
0.2699635967
0.2699624718
0.2699629584
0.2699646088
0.2699648899
0.2699648331
0.2699642431
0.2699639075
0.2699641406
0.2699635713
0.2699624718
0.2699624718
0.2699640315
0.269964687
0.2699651181
0.2699663783
0.2699657732
0.2699650425
0.2699648788
0.2699639482
0.2699626305
0.2699641075
0.269964687
0.269964687
0.2699665528
0.2699679146
0.2699740158
0.2699798058
0.2699742473
0.2699690852
0.2699637044
0.2699639639
0.2699649806
0.2699632991
0.2699679146
0.2699679146
0.2699898966
0.2700241277
0.2700297484
0.2699939444
0.2699720788
0.2699668914
0.2699640848
0.2699642905
0.2699647364
0.2699744051
0.2700241277
0.2700241277
0.2709544341
0.2700231495
0.2700302021
0.2699821812
0.2699814075
0.269968788
0.269964803
0.2699622162
0.2699649145
0.2699690811
0.2699839469
0.2700231495
0.2699821812
0.2699821812
0.2699728257
0.2699651744
0.2699670619
0.2699641871
0.2699641241
0.2699633217
0.2699669021
0.2699705334
0.2699732017
0.2699690483
0.2699651744
0.2699651744
0.2699643413
0.2699637848
0.2699641765
0.2699637819
0.2699640525
0.2699631503
0.2699640483
0.2699656088
0.2699636024
0.2699650401
0.2699637848
0.2699637848
0.2699627205
0.269962886
0.2699638251
0.269963197
0.2699634561
0.2699636972
0.2699642026
0.2699642338
0.2699655984
0.2699632964
0.269962886
)
;
    }
}


// ************************************************************************* //
