/*--------------------------------*- C++ -*----------------------------------*\
| =========                 |                                                 |
| \\      /  F ield         | OpenFOAM: The Open Source CFD Toolbox           |
|  \\    /   O peration     | Version:  4.x                                   |
|   \\  /    A nd           | Web:      www.OpenFOAM.org                      |
|    \\/     M anipulation  |                                                 |
\*---------------------------------------------------------------------------*/
FoamFile
{
    version     2.0;
    format      ascii;
    class       volVectorField;
    location    "9000";
    object      U;
}
// * * * * * * * * * * * * * * * * * * * * * * * * * * * * * * * * * * * * * //

dimensions      [0 1 -1 0 0 0 0];

internalField   nonuniform List<vector> 
1175
(
(0.01100000071 2.105842264e-10 4.410614933e-10)
(0.0110000007 1.237591692e-09 1.017862382e-09)
(0.01100000298 -9.800179762e-11 -9.849515692e-10)
(0.01100000125 -2.498239232e-09 1.971732283e-10)
(0.01100000407 -1.401236454e-09 -2.963693746e-10)
(0.01100000136 -2.20491819e-09 -2.008233648e-09)
(0.01100000552 -2.827571024e-09 -3.474093497e-09)
(0.01100000858 -1.515117769e-09 -3.844280017e-09)
(0.01100001436 -2.200326781e-09 -4.541689741e-09)
(0.01100002537 -1.333836299e-09 -4.68607432e-09)
(0.01100004097 -4.370618593e-09 -5.81362152e-09)
(0.01100005971 -5.686951774e-09 -6.29964679e-09)
(0.01100009405 -8.772466041e-09 -1.053462281e-08)
(0.01100012505 -1.025288418e-08 -9.321243548e-09)
(0.01100017714 -1.434285342e-08 -1.467151658e-08)
(0.01100000007 1.47842593e-10 -8.593477375e-11)
(0.01100000013 -2.422352023e-10 -1.8300205e-09)
(0.01100000036 2.076385325e-10 -1.00441339e-09)
(0.01100000191 -9.578626366e-11 6.910940052e-10)
(0.01100000105 -9.46678605e-10 -4.439470013e-10)
(0.01100000177 -3.081535437e-09 -1.238874757e-09)
(0.01100000285 -8.531321733e-10 -1.256542913e-09)
(0.0110000065 -4.749790924e-09 -3.567523616e-09)
(0.01100001197 -5.491373033e-09 -2.645838426e-09)
(0.01100001948 -8.608682142e-09 -3.908313664e-09)
(0.01100003756 -1.472809781e-08 -4.508314976e-09)
(0.0110000538 -2.192747913e-08 -8.26114681e-09)
(0.01100009337 -3.142943116e-08 -1.191965413e-08)
(0.01100011577 -3.496813198e-08 -1.132638551e-08)
(0.01100018275 -6.006909045e-08 -2.214632966e-08)
(0.01100000062 1.704467113e-09 3.45849007e-10)
(0.01100000045 -8.216302323e-11 -4.862748502e-11)
(0.01099999995 -2.31991656e-10 -1.172275499e-09)
(0.01100000179 -2.871457529e-09 1.359977154e-09)
(0.01100000053 -3.388261913e-09 -7.252769534e-10)
(0.01099999939 -3.201692911e-09 -2.426103317e-09)
(0.01100000405 -3.456953841e-09 -1.603141696e-09)
(0.01100000229 -5.359229854e-09 -4.727333718e-09)
(0.01100000764 -5.85023258e-09 -3.29654223e-09)
(0.01100001532 -1.098011989e-08 -5.86977509e-09)
(0.01100002797 -1.727571483e-08 -9.42172151e-09)
(0.01100004004 -2.413856637e-08 -1.624793867e-08)
(0.01100007602 -3.3428478e-08 -1.939883684e-08)
(0.01100009178 -3.637038886e-08 -2.239107481e-08)
(0.01100018924 -6.843397765e-08 -4.695833864e-08)
(0.01099999927 7.189189599e-10 -8.820765546e-10)
(0.01100000069 1.224321722e-09 1.472819176e-09)
(0.01100000054 7.108277205e-10 1.071682056e-11)
(0.01100000084 1.126631431e-09 -3.324478133e-09)
(0.01099999815 -6.258594799e-11 -6.980602523e-10)
(0.01100000066 -2.932842049e-10 2.081526096e-10)
(0.01100000079 -2.010545206e-09 -5.783480061e-10)
(0.01100000295 -3.089479509e-09 -2.595228832e-09)
(0.01100000445 -3.822911658e-09 -4.14069651e-09)
(0.01100001355 -1.00595974e-08 -7.645161257e-09)
(0.01100002146 -1.479778616e-08 -7.406269659e-09)
(0.01100003637 -2.83607986e-08 -1.602037994e-08)
(0.01100007448 -4.462823227e-08 -2.010519166e-08)
(0.01100007738 -6.141676947e-08 -2.266338316e-08)
(0.01100020146 -1.14643963e-07 -5.990095781e-08)
(0.01099999989 -5.372709996e-10 -2.169776424e-09)
(0.01100000107 7.299733814e-10 -3.15339416e-10)
(0.01100000145 4.013244652e-10 -1.058311041e-09)
(0.01100000028 8.720262568e-10 -5.478678977e-10)
(0.01100000047 1.080865617e-09 3.766098131e-10)
(0.01100000043 9.828268247e-10 -2.497870577e-09)
(0.01099999917 2.16063076e-09 -4.689769489e-12)
(0.01100000192 -5.437137691e-10 -5.477233163e-09)
(0.011 1.464293244e-09 -6.160297768e-09)
(0.01100000334 2.917960332e-09 -9.589321553e-09)
(0.0110000053 1.180456683e-09 -1.426348524e-08)
(0.01100000837 1.126241986e-09 -3.198614601e-08)
(0.01100004096 -4.813631308e-10 -4.020595291e-08)
(0.0110000239 -1.510962854e-09 -7.167550147e-08)
(0.01100022764 -6.843604249e-10 -1.558638004e-07)
(0.01099999958 3.621345704e-10 -1.213879927e-09)
(0.01099999788 4.651926727e-11 -6.509423964e-10)
(0.01100000241 1.450072014e-09 -1.066861954e-09)
(0.01100000028 1.850616717e-09 5.13486048e-10)
(0.01100000053 1.251705885e-09 -5.967421645e-10)
(0.01100000259 1.541565318e-09 -1.191402162e-09)
(0.01100000152 9.783870124e-10 -3.823304893e-10)
(0.01100000174 4.169155072e-09 -3.454887185e-09)
(0.01100000625 6.786961604e-09 -4.107497391e-09)
(0.01100001032 1.114156916e-08 -6.762460835e-09)
(0.01100002314 1.735883806e-08 -8.705006159e-09)
(0.01100003193 2.917843029e-08 -1.594650852e-08)
(0.0110000735 4.443378351e-08 -1.826397542e-08)
(0.01100007739 6.215102058e-08 -2.238838983e-08)
(0.01100019486 1.14000424e-07 -5.924940445e-08)
(0.01100000045 1.10468905e-09 -4.464460744e-10)
(0.01099999961 2.468318705e-09 6.123070046e-10)
(0.01100000086 1.812422502e-09 -2.858055068e-10)
(0.01100000049 2.456029315e-09 -1.939508559e-09)
(0.01100000106 2.496335586e-09 -8.38561632e-10)
(0.01100000094 3.421568692e-09 -1.753159945e-09)
(0.01100000437 6.335984512e-09 -2.326855661e-09)
(0.01100000507 7.899757737e-09 -3.637934996e-09)
(0.01100000849 8.627817266e-09 -1.32870112e-09)
(0.01100001495 1.333073418e-08 -5.934459231e-09)
(0.01100002486 1.864747824e-08 -7.981651085e-09)
(0.01100003828 2.577116395e-08 -1.468898476e-08)
(0.01100007627 3.4993015e-08 -2.01422505e-08)
(0.01100009109 3.685304881e-08 -2.13463922e-08)
(0.01100018541 7.020154258e-08 -4.578661593e-08)
(0.01099999945 7.175789513e-10 -1.038235272e-09)
(0.01100000047 -4.857719809e-10 1.475415344e-09)
(0.01100000072 1.985127055e-09 3.810229726e-10)
(0.01099999975 -3.301242564e-10 -1.899226645e-09)
(0.01100000318 1.730749126e-09 -1.248850289e-09)
(0.01100000216 3.013282995e-09 -1.580712388e-09)
(0.0110000049 4.815688248e-09 -1.419060216e-09)
(0.0110000066 5.785136637e-09 -2.805532167e-09)
(0.01100001287 5.732674412e-09 -3.037959626e-09)
(0.0110000185 9.653047975e-09 -3.534096846e-09)
(0.01100003557 1.374676879e-08 -4.611815086e-09)
(0.01100005123 2.17795765e-08 -8.34532409e-09)
(0.01100009024 3.152584651e-08 -1.172401726e-08)
(0.01100011417 3.428850752e-08 -1.101417736e-08)
(0.01100017807 5.809440387e-08 -2.169658802e-08)
(0.01100000036 -1.258746143e-09 -1.40660931e-09)
(0.01099999899 1.654393017e-10 -1.738810098e-09)
(0.01100000202 -1.668079316e-09 -2.140471773e-09)
(0.01100000026 7.312444322e-10 1.740621517e-09)
(0.01100000127 9.595975538e-10 1.480647007e-09)
(0.01100000495 9.115786689e-10 3.334366321e-11)
(0.01100000561 8.408186974e-10 2.919823082e-10)
(0.01100000736 2.879339786e-09 -4.248744747e-10)
(0.01100001573 2.7542489e-09 -1.574974935e-09)
(0.01100002297 4.957359519e-09 -3.879797e-10)
(0.01100004161 6.650361331e-09 -4.671751279e-09)
(0.01100005755 8.26452806e-09 -6.807988115e-09)
(0.01100009271 1.02506422e-08 -1.203428744e-08)
(0.0110001202 8.241947261e-09 -9.706589782e-09)
(0.01100017809 1.456674213e-08 -1.668477395e-08)
(0.01100000058 -4.200339608e-10 -8.717275471e-12)
(0.01099999897 9.037855956e-10 -1.031317629e-09)
(0.01099999942 -5.332923416e-10 -1.262315945e-10)
(0.01100000087 3.406618749e-10 -1.820068478e-09)
(0.01100000201 -7.134553169e-10 -1.804266578e-09)
(0.01100000071 -1.435303101e-09 -1.354696218e-09)
(0.01100000426 -1.334894254e-09 -1.595561988e-09)
(0.01100000795 -1.480033969e-09 -3.551253223e-09)
(0.01100001436 -3.323242015e-09 -4.973689206e-09)
(0.01100001988 -3.558317862e-09 -1.024243718e-08)
(0.01100003699 -4.056454165e-09 -1.398350645e-08)
(0.01100005359 -7.55878056e-09 -2.203413542e-08)
(0.01100008971 -1.157257201e-08 -3.222901653e-08)
(0.01100011795 -1.163753469e-08 -3.485851237e-08)
(0.01100000053 -7.093468137e-10 -3.245084735e-10)
(0.0110000001 -1.141713118e-10 -2.093404008e-10)
(0.01100000084 6.371061179e-11 -1.219650918e-10)
(0.01100000115 -1.267517e-09 -3.355629045e-09)
(0.0109999993 -1.388346324e-09 -2.51682626e-09)
(0.01100000188 -3.087806673e-09 -1.674789272e-09)
(0.01100000178 -1.579173214e-09 -1.475148219e-09)
(0.01100000626 -5.101299362e-09 -4.484829931e-09)
(0.01100001086 -4.888499626e-09 -6.253646012e-09)
(0.0110000155 -1.231991609e-08 -1.063069269e-08)
(0.01100003246 -1.823928589e-08 -1.649505179e-08)
(0.01100004401 -2.781420525e-08 -2.671564341e-08)
(0.01100008587 -3.85119557e-08 -4.088383347e-08)
(0.01100010216 -4.760995802e-08 -4.716638151e-08)
(0.01100019052 -8.910323769e-08 -9.076015352e-08)
(0.01100000101 9.820595546e-10 1.489193841e-10)
(0.0109999992 1.120379695e-09 1.846710719e-10)
(0.01100000042 -3.657950859e-10 -8.448575975e-10)
(0.01100000157 -1.495856617e-09 -9.507166033e-10)
(0.0109999987 -2.538240629e-09 -1.580398088e-09)
(0.01100000188 -3.181974133e-09 -1.538871126e-09)
(0.01099999986 -1.373269228e-09 -2.755583382e-09)
(0.01100000201 -5.471321232e-09 -6.311721633e-09)
(0.0110000028 -7.447247852e-09 -7.044581674e-09)
(0.01100001002 -1.473405681e-08 -1.363905049e-08)
(0.01100001716 -1.832372941e-08 -2.155980361e-08)
(0.011000026 -3.150998213e-08 -4.49075366e-08)
(0.0110000644 -4.033545239e-08 -6.378025552e-08)
(0.01100006663 -4.729328739e-08 -9.146090626e-08)
(0.01100020087 -1.070539995e-07 -1.958127175e-07)
(0.01099999981 5.606145746e-10 -1.343501781e-10)
(0.01100000013 -1.2124474e-09 3.74879636e-10)
(0.01100000101 8.761994553e-10 -3.76955314e-10)
(0.01099999882 8.205188178e-10 -7.983476156e-10)
(0.01099999875 1.47134511e-09 -1.246431056e-09)
(0.011000001 6.233391585e-10 -2.03966005e-09)
(0.01099999878 -5.06342231e-10 -3.48099673e-09)
(0.01100000043 -3.536650173e-09 -5.719750589e-09)
(0.01099999972 -6.024316455e-09 -7.637584284e-09)
(0.0110000082 -1.456135245e-08 -1.648000344e-08)
(0.01100001038 -2.178136469e-08 -2.495039418e-08)
(0.01100002227 -4.511235983e-08 -5.479612103e-08)
(0.01100006104 -6.705797605e-08 -7.030403814e-08)
(0.01100004484 -1.122673833e-07 -1.223597835e-07)
(0.01100021314 -2.250532895e-07 -2.869869514e-07)
(0.01099999938 1.214622932e-09 5.815031385e-10)
(0.01100000053 1.850078049e-09 9.114844665e-11)
(0.0110000004 1.029352139e-09 9.528958555e-11)
(0.01099999979 1.280714119e-10 -2.024191197e-09)
(0.01099999819 8.596074475e-10 -2.738990951e-09)
(0.01099999886 3.26770885e-10 -2.707141553e-09)
(0.01099999581 4.387260618e-10 -5.44533021e-09)
(0.01099999674 -5.24668416e-10 -8.524227197e-09)
(0.01099999194 1.010374116e-09 -1.12463844e-08)
(0.01099999422 2.328222959e-09 -2.638899734e-08)
(0.01099998557 9.042442502e-10 -3.720412189e-08)
(0.01099997896 -9.875462823e-10 -1.004011552e-07)
(0.01099998541 -8.882355013e-10 -1.393073405e-07)
(0.01099992129 -2.372397589e-09 -3.340523569e-07)
(0.01100028344 -2.875218031e-09 -7.224912561e-07)
(0.01099999882 -1.205911409e-12 3.414349957e-10)
(0.01099999964 1.508552265e-09 1.999414437e-10)
(0.01100000317 3.820443166e-10 -1.123935181e-09)
(0.01100000051 2.336591934e-09 -1.562050989e-09)
(0.01099999702 1.066680463e-09 -9.927240187e-10)
(0.01100000159 2.193141433e-09 -2.284453417e-09)
(0.01099999787 1.94559369e-09 -3.150511176e-09)
(0.01100000044 4.627831234e-09 -6.011575989e-09)
(0.01100000141 6.300724472e-09 -7.330646863e-09)
(0.01100000438 1.435170788e-08 -1.858417814e-08)
(0.01100000988 2.162016628e-08 -2.407500299e-08)
(0.01100002023 4.373086815e-08 -5.631489615e-08)
(0.01100006051 6.624519282e-08 -6.880118194e-08)
(0.01100004408 1.129308464e-07 -1.198064698e-07)
(0.011000213 2.233292761e-07 -2.870672515e-07)
(0.01100000116 7.609467846e-10 5.710328512e-10)
(0.01099999792 1.326176992e-09 -2.034485635e-10)
(0.01099999948 1.538657723e-09 -8.688850848e-10)
(0.01099999926 1.402743925e-09 -1.213855818e-09)
(0.01099999972 -6.50635768e-10 -2.076547593e-09)
(0.01100000179 2.387672883e-09 -9.927024842e-10)
(0.01100000036 4.951959704e-09 -4.234807296e-09)
(0.01100000384 8.280854555e-09 -6.644335528e-09)
(0.01100000403 1.059933084e-08 -9.76492218e-09)
(0.01100000824 1.561031269e-08 -1.592767135e-08)
(0.01100001673 1.964091622e-08 -2.257840533e-08)
(0.01100002871 3.389526399e-08 -4.362921948e-08)
(0.01100006797 4.189777448e-08 -6.326525377e-08)
(0.01100006385 4.881889631e-08 -9.268185804e-08)
(0.01100019913 1.099366658e-07 -1.939529951e-07)
(0.0110000006 -3.010937181e-10 8.920072959e-11)
(0.01100000092 3.936037281e-10 -4.073881163e-10)
(0.01099999927 2.880070994e-09 -1.724689608e-09)
(0.01099999928 1.37403949e-09 -8.29199768e-10)
(0.01099999997 3.182951566e-09 -7.17805244e-10)
(0.01100000248 3.04857339e-09 -1.33543538e-09)
(0.01100000353 3.980250107e-09 -4.619104858e-09)
(0.01100000742 6.610708965e-09 -5.468101123e-09)
(0.0110000081 7.463232756e-09 -7.296845378e-09)
(0.01100001729 1.229834325e-08 -1.068058929e-08)
(0.01100002836 1.739146667e-08 -1.698053951e-08)
(0.01100004492 2.866200888e-08 -2.756416335e-08)
(0.01100008227 4.204438496e-08 -4.141832618e-08)
(0.01100010294 4.616274962e-08 -4.673297788e-08)
(0.01100018601 9.013762968e-08 -9.1488732e-08)
(0.01100000072 4.991032077e-10 2.496938126e-10)
(0.01100000239 -2.341777287e-10 3.882633158e-10)
(0.01100000101 2.274616751e-10 -3.338702331e-10)
(0.01100000084 7.388143374e-10 -2.064050047e-10)
(0.01100000085 1.039526075e-09 -2.045629978e-10)
(0.01100000212 1.872437153e-09 -1.360841906e-09)
(0.01100000571 1.728194729e-09 -3.419975128e-09)
(0.01100000587 2.576287758e-09 -4.160350505e-09)
(0.01100001249 3.825884318e-09 -5.444752365e-09)
(0.01100002022 5.042751484e-09 -7.780840166e-09)
(0.01100003476 5.399856107e-09 -1.262779927e-08)
(0.01100005302 9.204588572e-09 -1.995613435e-08)
(0.01100008848 9.222363482e-09 -3.208269872e-08)
(0.01100011365 1.03905751e-08 -3.360088326e-08)
(0.01100018247 2.169785182e-08 -5.866181301e-08)
(0.0110000002 -9.787463137e-10 -1.765238032e-09)
(0.01100000051 6.488701974e-10 -2.804663497e-09)
(0.01099999977 -1.308936122e-10 -2.133743435e-09)
(0.01100000087 -2.46667674e-09 -1.808941113e-09)
(0.01100000119 -1.896258446e-09 -3.711504813e-09)
(0.01100000285 -3.129245143e-10 -2.945397394e-09)
(0.01100000183 -1.219200084e-09 -3.237678196e-09)
(0.01100000617 -1.322633366e-09 -4.791288025e-09)
(0.01100000701 -1.168901054e-09 -7.140354386e-09)
(0.01100001598 -4.050736603e-09 -1.12836023e-08)
(0.01100002574 -5.36960385e-09 -1.771236317e-08)
(0.01100003917 -9.52540612e-09 -2.457067756e-08)
(0.01100007551 -1.933574866e-08 -3.406961951e-08)
(0.01100009599 -2.105017738e-08 -3.754056629e-08)
(0.01099999817 1.454366575e-09 -1.57623179e-09)
(0.01099999978 7.328646272e-12 -1.851804917e-09)
(0.01100000085 -3.480913449e-10 -3.770317596e-09)
(0.01099999994 5.307794142e-10 -2.695134591e-09)
(0.01100000057 -1.415154615e-09 -3.650643044e-09)
(0.01100000226 -2.453056093e-09 -3.546327459e-09)
(0.01100000023 -2.769904576e-09 -3.2498423e-09)
(0.01100000019 -5.925876608e-09 -6.531604569e-09)
(0.01100000465 -7.613310714e-09 -7.592394169e-09)
(0.01100000815 -1.468566231e-08 -1.439603746e-08)
(0.01100001605 -2.253148862e-08 -1.884976808e-08)
(0.01100002734 -4.619645101e-08 -3.342848366e-08)
(0.01100006316 -6.423229236e-08 -4.092150243e-08)
(0.01100006887 -9.127753392e-08 -5.009578517e-08)
(0.01100000049 8.56037897e-11 -1.01757389e-09)
(0.01099999718 2.202129009e-10 -6.771538588e-10)
(0.01099999994 -8.885421967e-10 4.822836433e-10)
(0.01100000011 -3.349017444e-10 -2.872887752e-09)
(0.01100000126 -3.947591808e-10 -2.807938626e-09)
(0.01100000087 -3.289174269e-09 -2.832438287e-09)
(0.01099999805 -4.506557437e-09 -2.623620974e-09)
(0.01099999895 -5.889564439e-09 -6.502423648e-09)
(0.01099999995 -9.741291254e-09 -9.584522861e-09)
(0.01099999638 -1.888087696e-08 -1.819753768e-08)
(0.01099999354 -2.462526903e-08 -2.446088593e-08)
(0.01099999304 -5.311704559e-08 -5.353876974e-08)
(0.01100001436 -6.514487171e-08 -6.540783078e-08)
(0.01099997367 -1.119825525e-07 -1.131010813e-07)
(0.01100021752 -2.674565154e-07 -2.725733097e-07)
(0.01099999992 1.64049067e-09 -1.001037872e-09)
(0.01099999753 3.168918134e-10 -2.301113327e-09)
(0.01100000005 7.952270866e-10 -6.352387184e-10)
(0.01099999787 -1.498785815e-09 -3.282807436e-09)
(0.01099999943 -2.994519095e-10 -3.782382646e-09)
(0.01099999904 -1.513209937e-09 -2.590556391e-09)
(0.0109999971 -1.243542167e-09 -5.251999218e-09)
(0.01099999395 -3.750579413e-09 -7.80525628e-09)
(0.01099998928 -8.201239172e-09 -1.193226722e-08)
(0.01099999186 -2.148000802e-08 -2.390823815e-08)
(0.01099998016 -3.239595404e-08 -2.29003918e-08)
(0.01099998704 -8.866652824e-08 -6.908002737e-08)
(0.0109999779 -1.234060719e-07 -4.432315146e-08)
(0.01099991868 -3.103491191e-07 -1.266405432e-07)
(0.01100017903 -6.546557058e-07 -3.618211779e-07)
(0.01099999925 5.806808465e-10 1.454887102e-09)
(0.01099999736 1.128605532e-09 -9.774125823e-10)
(0.01099999861 8.405480362e-10 -1.410990702e-09)
(0.01099999897 1.518408097e-09 -2.859926431e-09)
(0.01099999759 1.273863355e-09 -3.952302992e-09)
(0.01099999909 1.123495895e-09 -5.259205932e-09)
(0.01099999397 -1.39538443e-09 -6.370003182e-09)
(0.01099999184 -9.740930895e-10 -9.542750631e-09)
(0.01099997802 4.399074417e-10 -1.548152675e-08)
(0.01099997182 2.729569084e-10 -3.656942966e-08)
(0.01099992036 1.190719346e-09 -4.539665574e-08)
(0.01099989999 -1.174375245e-09 -1.563719001e-07)
(0.01099974242 1.443902613e-09 -1.542375571e-07)
(0.0109995542 -4.802668752e-10 -6.353861696e-07)
(0.01100022816 3.709382726e-10 -1.328508679e-06)
(0.01099999936 1.894176553e-10 -5.036197919e-10)
(0.01099999917 1.612172923e-09 -1.288255233e-09)
(0.01100000087 1.348584233e-09 -1.048603326e-09)
(0.01099999891 1.686790912e-09 -3.637364113e-09)
(0.01099999527 2.713249907e-09 -2.339947527e-09)
(0.0109999998 2.995297173e-09 -2.885905314e-09)
(0.01099999587 3.189413268e-09 -5.140492361e-09)
(0.01099999549 5.876276896e-09 -7.751922153e-09)
(0.01099999052 8.58052211e-09 -1.345233233e-08)
(0.01099999113 2.145411058e-08 -2.406771798e-08)
(0.01099997899 3.177435784e-08 -2.488086454e-08)
(0.01099998673 9.035065595e-08 -6.913251148e-08)
(0.01099997677 1.24957491e-07 -4.103065896e-08)
(0.01099991703 3.099933573e-07 -1.256579211e-07)
(0.01100018233 6.535611125e-07 -3.606957717e-07)
(0.01100000005 1.185362209e-09 1.671367369e-10)
(0.01100000059 7.039168461e-10 -7.144078036e-10)
(0.01100000067 9.685657783e-10 -1.61952941e-09)
(0.01099999936 2.173406167e-09 -3.145747615e-09)
(0.0109999979 7.995171535e-10 -2.716422659e-09)
(0.01099999975 3.08843686e-09 -2.782397109e-09)
(0.01099999804 5.295663437e-09 -4.421068222e-09)
(0.01100000177 8.515223252e-09 -6.398313867e-09)
(0.01099999752 1.099487585e-08 -9.84745746e-09)
(0.01099999788 2.116462327e-08 -2.018311443e-08)
(0.01099999437 2.493457486e-08 -2.507805317e-08)
(0.01099999249 5.414451295e-08 -5.481270426e-08)
(0.01100001295 6.303535084e-08 -6.47203966e-08)
(0.01099997262 1.123848006e-07 -1.129795073e-07)
(0.01100022016 2.710496555e-07 -2.720267893e-07)
(0.01099999923 2.764882263e-10 -3.098001652e-10)
(0.01099999879 1.750952426e-09 6.671378627e-10)
(0.01100000083 3.816587974e-09 -1.580573683e-09)
(0.01099999835 2.43281852e-09 -2.927245288e-09)
(0.01099999974 3.046924033e-09 -1.630042544e-09)
(0.01100000043 2.268088549e-09 -4.132559594e-09)
(0.01100000103 4.364624729e-09 -3.878107e-09)
(0.01100000089 7.050875438e-09 -6.675439499e-09)
(0.01100000429 9.593777438e-09 -1.000777471e-08)
(0.01100000941 1.728088356e-08 -1.542361059e-08)
(0.01100001713 2.340171341e-08 -1.837313188e-08)
(0.01100002284 4.557211827e-08 -3.159356285e-08)
(0.01100006519 6.425163495e-08 -4.23745569e-08)
(0.01100006309 9.285324037e-08 -4.993125062e-08)
(0.01100019982 1.932957877e-07 -1.089017837e-07)
(0.0110000005 2.119116124e-10 1.599804822e-09)
(0.01100000114 -3.277826744e-10 -5.863175918e-10)
(0.01099999967 -4.179715008e-11 -2.568282339e-09)
(0.01099999969 1.736597282e-09 -3.408400528e-09)
(0.01100000131 9.912986776e-10 -8.616085599e-10)
(0.01099999933 2.931456449e-09 -5.297670751e-10)
(0.01100000493 1.816647602e-09 -4.24037491e-09)
(0.01100000427 2.423806787e-09 -5.115101936e-09)
(0.01100000848 4.469548237e-09 -9.022853688e-09)
(0.01100001198 6.695593537e-09 -1.172922379e-08)
(0.0110000245 9.140679503e-09 -1.61943441e-08)
(0.01100003586 1.276195123e-08 -2.640765708e-08)
(0.01100007538 1.658925103e-08 -3.381682903e-08)
(0.01100008964 2.029196012e-08 -3.727125821e-08)
(0.01100018791 4.614971554e-08 -6.967805836e-08)
(0.01100000011 1.886675251e-09 -1.125342256e-09)
(0.0110000024 -9.727078935e-10 -2.444036059e-10)
(0.0109999994 -1.688914922e-09 -8.54056778e-10)
(0.01099999982 7.838896787e-10 -2.055830855e-09)
(0.01100000214 -4.264023309e-10 -2.66932876e-09)
(0.01100000186 -6.675342916e-10 -1.677378584e-09)
(0.01100000181 -1.646346022e-09 -3.259500727e-09)
(0.01100000322 -2.485915192e-09 -4.93454295e-09)
(0.01100000529 -2.800081343e-09 -5.826730861e-09)
(0.01100000967 -6.705095687e-09 -1.027218244e-08)
(0.01100002215 -7.345256105e-09 -1.667882499e-08)
(0.01100003447 -1.609216354e-08 -3.071438207e-08)
(0.01100007375 -1.537225622e-08 -4.475813745e-08)
(0.0110000807 -2.267623224e-08 -6.166380058e-08)
(0.01099999922 8.629185418e-10 -3.760507034e-10)
(0.01099999895 1.071278627e-09 1.165821766e-10)
(0.0110000006 -6.200103587e-10 -6.144232731e-11)
(0.0109999998 2.188867599e-10 -1.96698919e-09)
(0.01099999992 -1.201167153e-09 -8.239657729e-10)
(0.01100000009 -3.040284014e-09 -1.891764423e-09)
(0.01100000059 -2.711565358e-09 -2.917760471e-09)
(0.01100000099 -6.238785157e-09 -4.403220193e-09)
(0.01100000299 -7.725484386e-09 -7.327089453e-09)
(0.01100000537 -1.687332471e-08 -1.249163611e-08)
(0.01100001053 -2.328969063e-08 -1.976782483e-08)
(0.01100001993 -5.680991013e-08 -4.622328776e-08)
(0.01100006047 -7.17877831e-08 -6.638647997e-08)
(0.01100004814 -1.211392132e-07 -1.127414345e-07)
(0.01099999971 3.26688048e-10 -9.314472475e-10)
(0.01099999999 9.15249388e-10 -5.565977801e-10)
(0.01099999984 2.511213039e-10 2.24625042e-10)
(0.01099999904 1.146183865e-09 -1.076443688e-09)
(0.01099999841 -5.973613089e-10 -1.613957165e-09)
(0.01099999938 -2.196004159e-09 -1.547622692e-09)
(0.01099999735 -3.09445507e-09 -1.768759852e-09)
(0.01099999626 -5.872775726e-09 -4.469974187e-09)
(0.01099999279 -1.158173108e-08 -8.418248108e-09)
(0.0109999919 -2.425893245e-08 -2.19079926e-08)
(0.0109999762 -2.487763775e-08 -3.213166416e-08)
(0.01099998805 -6.710655305e-08 -8.832617816e-08)
(0.01099997899 -4.166560147e-08 -1.218162774e-07)
(0.01099992076 -1.254030418e-07 -3.103080247e-07)
(0.01099999977 1.255882204e-09 -1.544112824e-09)
(0.01100000033 -5.409646945e-10 4.269958034e-10)
(0.011 3.842964934e-10 -3.85492817e-10)
(0.01099999909 -1.0284277e-09 -4.56380142e-10)
(0.01099999794 -1.541391607e-09 -1.191635359e-09)
(0.01099999765 -2.119413403e-09 -2.70180882e-09)
(0.01099999427 -2.884660151e-09 -3.456338863e-09)
(0.01099999241 -6.790462337e-09 -7.569899668e-09)
(0.01099998271 -1.085196977e-08 -9.62520612e-09)
(0.01099999233 -3.161581598e-08 -2.967664822e-08)
(0.01099995879 -4.17894995e-08 -3.804298814e-08)
(0.01100001437 -1.455394128e-07 -1.439923731e-07)
(0.0109999297 -1.523782193e-07 -1.525492315e-07)
(0.01100000341 -6.348551831e-07 -6.363035698e-07)
(0.01099961295 -1.282847209e-06 -1.284339183e-06)
(0.01100000092 1.38999722e-09 -1.195311862e-09)
(0.01099999791 1.817007416e-09 -3.517093363e-10)
(0.01099999954 5.438751943e-10 -1.444255428e-10)
(0.01099999678 1.326523487e-09 -2.553952072e-10)
(0.01099999807 2.952578136e-09 -3.042070135e-09)
(0.01099999471 8.840978025e-10 -2.513538509e-09)
(0.01099999061 6.613490174e-10 -3.549828923e-09)
(0.01099998704 -6.970271483e-10 -1.02610436e-08)
(0.01099996182 7.686440333e-10 -1.561784727e-08)
(0.01099996224 1.836717283e-10 -4.867955866e-08)
(0.01099985286 4.763142069e-10 -7.256382589e-08)
(0.01099988141 2.079306021e-10 -3.420505962e-07)
(0.01099933768 4.969069988e-10 -4.837324207e-07)
(0.01099941198 2.263128973e-10 -3.194333465e-06)
(0.01099816498 -1.164337512e-09 -6.282142206e-06)
(0.0110000007 -1.89891773e-10 -1.478235572e-09)
(0.01099999827 1.39455933e-09 5.719071748e-10)
(0.01100000051 2.321448697e-09 3.998696482e-10)
(0.01099999814 1.634419213e-09 -7.515469972e-10)
(0.01099999721 2.644458453e-09 -3.252281497e-09)
(0.01099999755 4.614236863e-09 -1.905537465e-09)
(0.01099999353 3.576601596e-09 -2.644134741e-09)
(0.01099999399 8.096270662e-09 -6.737818758e-09)
(0.01099998247 1.217065653e-08 -9.114364005e-09)
(0.01099998989 2.977373666e-08 -3.14569793e-08)
(0.01099995904 3.983618193e-08 -4.031430882e-08)
(0.01100001673 1.451153763e-07 -1.444771587e-07)
(0.01099992894 1.524597115e-07 -1.565334213e-07)
(0.0110000024 6.3450866e-07 -6.331961378e-07)
(0.01099961133 1.282741235e-06 -1.284342861e-06)
(0.01099999978 1.394488719e-09 -3.729947346e-11)
(0.01099999708 1.687501e-09 1.086813677e-10)
(0.01099999829 2.725348896e-10 7.483478184e-10)
(0.01099999783 2.218558972e-09 -3.300756422e-10)
(0.01099999942 7.379751129e-10 -1.235451218e-09)
(0.01099999948 2.790819175e-09 -2.267443693e-09)
(0.010999996 5.094795281e-09 -3.136569309e-09)
(0.01099999673 9.956210777e-09 -6.106032592e-09)
(0.01099998952 1.196138725e-08 -9.366834548e-09)
(0.01099999286 2.529252249e-08 -2.140304361e-08)
(0.01099997965 2.581539591e-08 -3.254068294e-08)
(0.01099998642 6.794612479e-08 -8.710579257e-08)
(0.01099997654 4.2862127e-08 -1.244281487e-07)
(0.01099991967 1.241680576e-07 -3.09142461e-07)
(0.01100018045 3.609683352e-07 -6.556317525e-07)
(0.0109999993 1.428083112e-09 -7.008365988e-10)
(0.0109999986 -7.303302013e-11 -1.810173581e-09)
(0.01099999955 1.817655664e-09 -3.799996626e-10)
(0.01099999792 1.859425101e-09 -1.160446878e-09)
(0.01100000116 3.44671083e-09 -1.513511103e-09)
(0.01099999818 2.713838652e-09 -1.901231787e-09)
(0.01100000125 3.930978293e-09 -2.67041498e-09)
(0.01100000029 7.373547815e-09 -4.499581835e-09)
(0.01100000118 1.078066893e-08 -6.506431046e-09)
(0.0110000042 1.890585998e-08 -1.451706247e-08)
(0.01100000826 2.422267342e-08 -2.127542636e-08)
(0.01100002006 5.609827487e-08 -4.293724525e-08)
(0.01100005882 7.012662849e-08 -6.425486052e-08)
(0.01100004429 1.214118938e-07 -1.115412516e-07)
(0.01100021387 2.88141555e-07 -2.251801835e-07)
(0.01099999861 8.407117539e-10 -4.131870854e-10)
(0.01099999738 8.488640786e-11 1.635652216e-10)
(0.01099999859 -1.667616104e-10 -1.479518783e-09)
(0.01100000221 6.993896902e-10 -6.402098714e-10)
(0.01100000058 2.27872085e-09 -2.046984351e-09)
(0.01100000132 1.409244999e-09 -2.052234714e-09)
(0.01100000328 1.831281952e-09 -9.965753689e-10)
(0.01100000404 3.609416588e-09 -2.463408434e-09)
(0.0110000028 4.409664587e-09 -4.729376822e-09)
(0.01100001059 7.864177379e-09 -1.089121834e-08)
(0.0110000197 8.692448088e-09 -1.60562877e-08)
(0.0110000329 1.500707543e-08 -2.810226911e-08)
(0.01100007148 1.817344015e-08 -4.233717564e-08)
(0.01100007929 2.205669848e-08 -6.197373937e-08)
(0.01100019829 5.742503497e-08 -1.128876531e-07)
(0.01099999952 1.474170704e-09 -5.979284465e-10)
(0.01099999936 1.420069087e-09 7.631057191e-11)
(0.0110000002 5.776767636e-10 -2.647034727e-09)
(0.01099999927 5.452319264e-11 -1.266178874e-09)
(0.01100000248 2.781501798e-10 7.468734562e-10)
(0.0110000013 2.185357809e-09 -1.264900262e-09)
(0.01100000019 -1.122153021e-10 -7.599143223e-10)
(0.01100000236 -9.524367491e-10 -1.54886018e-09)
(0.01100000065 -3.79381468e-09 -2.003835773e-09)
(0.01100000212 -9.822922871e-09 -1.304029777e-09)
(0.01100000618 -9.943204258e-09 -1.936841491e-09)
(0.01100000709 -2.523245239e-08 1.142085066e-10)
(0.01100003958 -3.641216959e-08 1.306183639e-10)
(0.01100002783 -6.865070804e-08 -2.028498871e-09)
(0.01099999966 4.83430225e-10 -1.103917109e-09)
(0.0110000016 -3.468350394e-11 -5.165635906e-10)
(0.01099999945 1.214420208e-09 8.98095964e-11)
(0.01099999868 4.70862063e-10 1.438332449e-09)
(0.0109999989 -6.784350761e-10 4.759523608e-10)
(0.01099999874 -2.018368539e-09 -7.085444277e-10)
(0.01099999673 -2.441569239e-09 -2.099275029e-11)
(0.01099999754 -5.609942639e-09 4.251186961e-10)
(0.01099999309 -1.099406535e-08 -6.668912742e-10)
(0.0109999941 -2.561873419e-08 -1.744246008e-09)
(0.01099998237 -3.634099297e-08 -1.135368093e-09)
(0.01099997964 -1.002465208e-07 8.001787225e-11)
(0.01099998321 -1.398787338e-07 4.090278729e-10)
(0.01099992183 -3.349133432e-07 5.366219905e-10)
(0.01099999928 5.810249156e-10 -1.574885831e-09)
(0.01100000059 2.792817286e-10 -3.741482564e-09)
(0.01100000016 7.156733408e-10 -8.29211466e-10)
(0.01099999861 -3.562095431e-10 -1.473321284e-10)
(0.01099999961 -2.363902606e-09 -4.825212438e-10)
(0.0109999958 -2.522037288e-09 -6.467252827e-10)
(0.01099999183 -4.743718749e-09 3.420247322e-10)
(0.01099999095 -8.737290082e-09 1.444056871e-10)
(0.01099997754 -1.256095384e-08 -2.082738537e-09)
(0.01099997326 -3.648733416e-08 -9.582932913e-10)
(0.01099992056 -4.546118254e-08 2.422883217e-10)
(0.01099990252 -1.526744598e-07 5.314457778e-10)
(0.01099974162 -1.526862194e-07 2.999816652e-10)
(0.01099955515 -6.336228154e-07 1.353006468e-09)
(0.01099999904 5.15086083e-10 -5.106595836e-10)
(0.0110000013 4.253095577e-10 3.741169757e-10)
(0.01099999742 1.077192006e-09 -1.637151434e-09)
(0.01099999717 -1.019610524e-09 4.835736169e-10)
(0.01099999612 -2.528034505e-09 -9.351097563e-10)
(0.01099999745 -3.678709764e-09 -7.754667991e-10)
(0.01099999198 -3.63121795e-09 -1.460864458e-09)
(0.01099998889 -1.000372812e-08 4.382381534e-10)
(0.01099996285 -1.438176171e-08 2.761763382e-10)
(0.01099996066 -4.865777892e-08 -3.060128296e-10)
(0.01099985517 -7.338419031e-08 -1.045630959e-09)
(0.0109998812 -3.435416069e-07 7.910352306e-10)
(0.01099933494 -4.849120994e-07 -1.95528211e-10)
(0.01099941357 -3.194586061e-06 1.200184219e-09)
(0.01099999972 1.610975303e-09 -1.542741741e-09)
(0.0109999989 1.828439262e-09 -6.024639329e-10)
(0.010999999 -9.948804348e-10 -5.762108178e-10)
(0.01099999742 1.293788819e-09 1.183237722e-09)
(0.01099999543 2.862132668e-09 6.675346036e-10)