/*--------------------------------*- C++ -*----------------------------------*\
| =========                 |                                                 |
| \\      /  F ield         | OpenFOAM: The Open Source CFD Toolbox           |
|  \\    /   O peration     | Version:  4.x                                   |
|   \\  /    A nd           | Web:      www.OpenFOAM.org                      |
|    \\/     M anipulation  |                                                 |
\*---------------------------------------------------------------------------*/
FoamFile
{
    version     2.0;
    format      ascii;
    class       volScalarField;
    location    "9000";
    object      X_H2O;
}
// * * * * * * * * * * * * * * * * * * * * * * * * * * * * * * * * * * * * * //

dimensions      [0 0 0 0 0 0 0];

internalField   nonuniform List<scalar> 
1175
(
1.504131859e-05
1.504131893e-05
1.504132098e-05
1.504132251e-05
1.504133336e-05
1.50413712e-05
1.504149709e-05
1.504190308e-05
1.504315984e-05
1.504687576e-05
1.505725916e-05
1.508437591e-05
1.514955124e-05
1.529140093e-05
1.556676073e-05
1.504132076e-05
1.504132076e-05
1.504132095e-05
1.50413239e-05
1.504133768e-05
1.504138702e-05
1.504155426e-05
1.50421135e-05
1.504390887e-05
1.504943406e-05
1.50655165e-05
1.510918235e-05
1.5217704e-05
1.545895931e-05
1.59271657e-05
1.504131935e-05
1.504131946e-05
1.50413218e-05
1.504132572e-05
1.504134545e-05
1.504141199e-05
1.504165143e-05
1.504248578e-05
1.504528414e-05
1.505429455e-05
1.508177192e-05
1.515989467e-05
1.536222413e-05
1.582501311e-05
1.67250602e-05
1.504131905e-05
1.504131816e-05
1.504132044e-05
1.504132712e-05
1.504135049e-05
1.504143841e-05
1.504175516e-05
1.504288593e-05
1.504681673e-05
1.505996054e-05
1.510173723e-05
1.52257896e-05
1.556099716e-05
1.635384065e-05
1.790625357e-05
1.504131973e-05
1.504132052e-05
1.504132189e-05
1.504132831e-05
1.504135125e-05
1.504144708e-05
1.504179916e-05
1.504307406e-05
1.504756907e-05
1.506288974e-05
1.511275697e-05
1.526504212e-05
1.568977104e-05
1.672536316e-05
1.877765626e-05
1.504132077e-05
1.504132003e-05
1.504132222e-05
1.504132783e-05
1.504135033e-05
1.504143511e-05
1.504175418e-05
1.504288717e-05
1.504681825e-05
1.505996031e-05
1.510173858e-05
1.522578953e-05
1.556099316e-05
1.635382824e-05
1.790621812e-05
1.504131902e-05
1.504132016e-05
1.504132096e-05
1.504132628e-05
1.504134313e-05
1.504141207e-05
1.504165271e-05
1.50424852e-05
1.50452852e-05
1.505429405e-05
1.508176923e-05
1.515989142e-05
1.536221497e-05
1.58249851e-05
1.672499657e-05
1.504131992e-05
1.504131942e-05
1.504132066e-05
1.504132444e-05
1.504133757e-05
1.504138721e-05
1.504155457e-05
1.504211309e-05
1.504390816e-05
1.504943328e-05
1.506551661e-05
1.510917993e-05
1.521769286e-05
1.54589284e-05
1.592710017e-05
1.504131993e-05
1.504131892e-05
1.504132019e-05
1.504132398e-05
1.504133497e-05
1.504137176e-05
1.504149936e-05
1.504190449e-05
1.50431603e-05
1.504687503e-05
1.505725839e-05
1.508437373e-05
1.514954112e-05
1.529137552e-05
1.556669642e-05
1.504131937e-05
1.504132065e-05
1.504132114e-05
1.504132365e-05
1.504133722e-05
1.504138706e-05
1.504155308e-05
1.504211266e-05
1.504390953e-05
1.504943462e-05
1.506551807e-05
1.510918676e-05
1.521771666e-05
1.545900247e-05
1.504131868e-05
1.504132069e-05
1.504132144e-05
1.504132534e-05
1.504134351e-05
1.504140754e-05
1.504164118e-05
1.504244742e-05
1.504517435e-05
1.505400919e-05
1.508117227e-05
1.515906881e-05
1.536248063e-05
1.583061292e-05
1.674177397e-05
1.504131999e-05
1.504131966e-05
1.504132167e-05
1.50413283e-05
1.504135273e-05
1.504144606e-05
1.504179652e-05
1.504307315e-05
1.504761993e-05
1.506324891e-05
1.511441314e-05
1.527087798e-05
1.570530842e-05
1.675380541e-05
1.881476638e-05
1.504132031e-05
1.504132003e-05
1.504132167e-05
1.504133058e-05
1.504136193e-05
1.504148554e-05
1.504196205e-05
1.504377651e-05
1.505053467e-05
1.507499814e-05
1.515987661e-05
1.543671828e-05
1.625917275e-05
1.836918014e-05
2.261695266e-05
1.504132204e-05
1.504132165e-05
1.504132288e-05
1.504133076e-05
1.504136511e-05
1.504150301e-05
1.504204098e-05
1.504412675e-05
1.50520824e-05
1.508174804e-05
1.518865539e-05
1.555450277e-05
1.670751415e-05
1.986691511e-05
2.651468599e-05
1.504132168e-05
1.504132069e-05
1.504132126e-05
1.504133033e-05
1.504136208e-05
1.504148446e-05
1.504196238e-05
1.504377555e-05
1.505053537e-05
1.507499944e-05
1.515987655e-05
1.543671424e-05
1.6259151e-05
1.836910429e-05
2.261675077e-05
1.504131983e-05
1.504132165e-05
1.504132276e-05
1.504132732e-05
1.504135283e-05
1.504144767e-05
1.504179526e-05
1.504307132e-05
1.504761902e-05
1.506324833e-05
1.51144081e-05
1.527086654e-05
1.570527445e-05
1.675370078e-05
1.881450761e-05
1.504132062e-05
1.50413193e-05
1.504132045e-05
1.504132488e-05
1.504134273e-05
1.504140847e-05
1.504163953e-05
1.504244776e-05
1.504517499e-05
1.505400856e-05
1.508117222e-05
1.5159061e-05
1.536245374e-05
1.583052592e-05
1.674154888e-05
1.504131905e-05
1.504131864e-05
1.504132067e-05
1.504132236e-05
1.50413379e-05
1.50413864e-05
1.504155537e-05
1.504211354e-05
1.504390888e-05
1.504943328e-05
1.506551606e-05
1.510918249e-05
1.521769637e-05
1.545893187e-05
1.592710407e-05
1.504131935e-05
1.504131925e-05
1.504132072e-05
1.504132589e-05
1.504134415e-05
1.50414093e-05
1.504165128e-05
1.504248699e-05
1.504528503e-05
1.505429296e-05
1.508177394e-05
1.515990401e-05
1.536225985e-05
1.582512638e-05
1.504131946e-05
1.504132053e-05
1.504132085e-05
1.504132973e-05
1.504135321e-05
1.504144584e-05
1.504179575e-05
1.504307314e-05
1.504761816e-05
1.506324943e-05
1.511441513e-05
1.527088805e-05
1.570535514e-05
1.675398908e-05
1.50413194e-05
1.504132047e-05
1.504132207e-05
1.504133213e-05
1.504136511e-05
1.504150611e-05
1.504205986e-05
1.504420781e-05
1.505238135e-05
1.508261506e-05
1.518981916e-05
1.554682838e-05
1.662730105e-05
1.943835181e-05
2.512132835e-05
1.504131969e-05
1.504132046e-05
1.504132257e-05
1.504133421e-05
1.504138079e-05
1.504157322e-05
1.50423618e-05
1.504557318e-05
1.505852115e-05
1.510972651e-05
1.530602033e-05
1.602115466e-05
1.841426016e-05
2.531298119e-05
4.01835554e-05
1.504132247e-05
1.504132194e-05
1.504132468e-05
1.504133644e-05
1.504138748e-05
1.504160282e-05
1.50425108e-05
1.504630214e-05
1.506209706e-05
1.512732625e-05
1.539215299e-05
1.643332559e-05
2.028414948e-05
3.287471722e-05
6.363100993e-05
1.504132149e-05
1.504131966e-05
1.504132203e-05
1.504133538e-05
1.50413826e-05
1.504157352e-05
1.504236069e-05
1.504557366e-05
1.50585222e-05
1.510972582e-05
1.530601457e-05
1.602112914e-05
1.841414877e-05
2.531254457e-05
4.018227866e-05
1.504132102e-05
1.504132021e-05
1.504132262e-05
1.504133144e-05
1.504136575e-05
1.504150748e-05
1.504205879e-05
1.5044207e-05
1.50523806e-05
1.508261326e-05
1.518981093e-05
1.5546801e-05
1.66271858e-05
1.943791323e-05
2.512001945e-05
1.504132012e-05
1.504132085e-05
1.504132194e-05
1.504132836e-05
1.504135214e-05
1.504144718e-05
1.50417954e-05
1.504307295e-05
1.504761851e-05
1.506324933e-05
1.511440991e-05
1.527087182e-05
1.5705284e-05
1.675371062e-05
1.881451428e-05
1.50413186e-05
1.504131934e-05
1.504132165e-05
1.504132669e-05
1.504134419e-05
1.504141273e-05
1.504165078e-05
1.504248667e-05
1.504528614e-05
1.505429432e-05
1.508177152e-05
1.515989402e-05
1.536222057e-05
1.5824996e-05
1.672500362e-05
1.504131838e-05
1.504131997e-05
1.504132013e-05
1.504132699e-05
1.504134907e-05
1.504143549e-05
1.504175315e-05
1.504288615e-05
1.50468198e-05
1.505996336e-05
1.510174444e-05
1.522581059e-05
1.556106933e-05
1.63540606e-05
1.504132057e-05
1.504132004e-05
1.504132087e-05
1.504133141e-05
1.504136164e-05
1.504148459e-05
1.504196079e-05
1.50437759e-05
1.505053658e-05
1.507500057e-05
1.51598861e-05
1.543675689e-05
1.625931789e-05
1.836969888e-05
1.504132135e-05
1.504132016e-05
1.50413234e-05
1.504133434e-05
1.504138178e-05
1.504157267e-05
1.504236003e-05
1.504557414e-05
1.50585205e-05
1.510972856e-05
1.53060332e-05
1.602121185e-05
1.84145187e-05
2.531418594e-05
1.504132101e-05
1.504132003e-05
1.504132476e-05
1.504133767e-05
1.50414011e-05
1.504167035e-05
1.504283204e-05
1.504785878e-05
1.506960077e-05
1.516321961e-05
1.556080139e-05
1.719877912e-05
2.354322512e-05
4.516658633e-05
9.946444622e-05
1.504132064e-05
1.504132119e-05
1.504132348e-05
1.504134211e-05
1.50414094e-05
1.504171974e-05
1.504308156e-05
1.504916964e-05
1.507671944e-05
1.520285065e-05
1.578581871e-05
1.848661236e-05
3.080098123e-05
8.346160631e-05
0.0002629468765
1.50413187e-05
1.504132015e-05
1.50413244e-05
1.504133985e-05
1.504140192e-05
1.504167061e-05
1.504283146e-05
1.504785704e-05
1.506959908e-05
1.516321575e-05
1.556078569e-05
1.719869386e-05
2.354280047e-05
4.516450784e-05
9.945606518e-05
1.504132037e-05
1.504132065e-05
1.504132307e-05
1.504133425e-05
1.504138091e-05
1.504157345e-05
1.504236033e-05
1.504557325e-05
1.505852156e-05
1.510972674e-05
1.530602197e-05
1.602115096e-05
1.84142104e-05
2.531267995e-05
4.018239654e-05
1.504131859e-05
1.504132049e-05
1.50413219e-05
1.504133013e-05
1.504136051e-05
1.504148547e-05
1.504196172e-05
1.504377629e-05
1.505053528e-05
1.507499901e-05
1.515987973e-05
1.543672251e-05
1.625917273e-05
1.836913718e-05
2.261674947e-05
1.504131928e-05
1.50413203e-05
1.504132167e-05
1.504132611e-05
1.504134998e-05
1.504143692e-05
1.50417541e-05
1.504288621e-05
1.504681806e-05
1.5059961e-05
1.510174088e-05
1.522579575e-05
1.556100403e-05
1.635384209e-05
1.790621881e-05
1.50413195e-05
1.504132052e-05
1.504132078e-05
1.504132691e-05
1.504134991e-05
1.504144515e-05
1.504179853e-05
1.504307198e-05
1.504756901e-05
1.506289305e-05
1.511276558e-05
1.526507348e-05
1.568987391e-05
1.672566433e-05
1.504131954e-05
1.504132056e-05
1.504132182e-05
1.504133009e-05
1.504136446e-05
1.50415024e-05
1.504204127e-05
1.504412555e-05
1.505208508e-05
1.508175213e-05
1.518867004e-05
1.555456263e-05
1.670775442e-05
1.986776395e-05
1.504132045e-05
1.504132034e-05
1.504132366e-05
1.504133634e-05
1.504138801e-05
1.504160553e-05
1.504251065e-05
1.504630069e-05
1.506209736e-05
1.512732995e-05
1.539217958e-05
1.643345858e-05
2.028479732e-05
3.287766701e-05
1.504132109e-05
1.504132058e-05
1.504132487e-05
1.504134007e-05
1.504141043e-05
1.504171926e-05
1.504308157e-05
1.504916856e-05
1.507671961e-05
1.520285512e-05
1.578585036e-05
1.848681669e-05
3.08023064e-05
8.34706176e-05
1.504131933e-05
1.504132121e-05
1.504132358e-05
1.504134236e-05
1.504142168e-05
1.504177629e-05
1.504339116e-05
1.505090149e-05
1.508688652e-05
1.52657311e-05
1.619737892e-05
2.134186218e-05
5.177034168e-05
0.0002459309741
0.001590526051
1.504131885e-05
1.504132051e-05
1.50413245e-05
1.504133982e-05
1.504140993e-05
1.504171782e-05
1.504308071e-05
1.504916934e-05
1.507671842e-05
1.520285432e-05
1.578583759e-05
1.848670172e-05
3.080139181e-05
8.346310999e-05
0.0002629482052
1.504132013e-05
1.504131945e-05
1.504132358e-05
1.50413346e-05
1.504138536e-05
1.504160208e-05
1.504250949e-05
1.504630132e-05
1.506209551e-05
1.512732766e-05
1.539216592e-05
1.643337733e-05
2.028431934e-05
3.287514282e-05
6.363122847e-05
1.504131905e-05
1.504131933e-05
1.504132059e-05
1.50413303e-05
1.504136434e-05
1.504150244e-05
1.504204113e-05
1.50441271e-05
1.505208483e-05
1.508175178e-05
1.51886618e-05
1.555452231e-05
1.670756387e-05
1.986700532e-05
2.651468203e-05
1.504131911e-05
1.504132018e-05
1.504132119e-05
1.504132751e-05
1.504135394e-05
1.504144839e-05
1.504180098e-05
1.504307349e-05
1.504757036e-05
1.50628923e-05
1.511276269e-05
1.526505352e-05
1.568979359e-05
1.672539448e-05
1.877766507e-05
1.50413188e-05
1.504131885e-05
1.504132069e-05
1.504132575e-05
1.504135e-05
1.504143588e-05
1.504175225e-05
1.504288511e-05
1.504681824e-05
1.505996182e-05
1.510174696e-05
1.522581628e-05
1.556107902e-05
1.635406884e-05
1.504131867e-05
1.504131815e-05
1.504132035e-05
1.504132885e-05
1.504136076e-05
1.504148474e-05
1.504196148e-05
1.504377595e-05
1.505053582e-05
1.507500089e-05
1.515988935e-05
1.543676621e-05
1.625934307e-05
1.836970403e-05
1.504132059e-05
1.504132161e-05
1.504132185e-05
1.504133369e-05
1.504138178e-05
1.50415728e-05
1.50423609e-05
1.504557292e-05
1.505852104e-05
1.51097314e-05
1.530604318e-05
1.602125297e-05
1.841464997e-05
2.531437615e-05
1.504131945e-05
1.504131928e-05
1.504132249e-05
1.504133687e-05
1.50413995e-05
1.504167053e-05
1.504283196e-05
1.504785724e-05
1.506959988e-05
1.516322248e-05
1.556082836e-05
1.719891417e-05
2.354386948e-05
4.516937957e-05
1.504131947e-05
1.50413207e-05
1.504132277e-05
1.504133951e-05
1.504140912e-05
1.5041719e-05
1.504308012e-05
1.504916766e-05
1.507672005e-05
1.520286155e-05
1.578587576e-05
1.848692089e-05
3.080274109e-05
8.347201859e-05
1.50413185e-05
1.504132016e-05
1.504132179e-05
1.504133952e-05
1.504140269e-05
1.504167112e-05
1.504283097e-05
1.504785699e-05
1.506960106e-05
1.516322559e-05
1.556082741e-05
1.719888797e-05
2.354369593e-05
4.516867058e-05
1.504131683e-05
1.504131808e-05
1.504132193e-05
1.504133278e-05
1.504137958e-05
1.504157198e-05
1.504235992e-05
1.504557246e-05
1.505852164e-05
1.510972956e-05
1.530603723e-05
1.602121698e-05
1.841446608e-05
2.531357554e-05
4.018518046e-05
1.504131767e-05
1.504131814e-05
1.504132131e-05
1.504132978e-05
1.504136037e-05
1.504148462e-05
1.504196299e-05
1.504377481e-05
1.505053735e-05
1.507500262e-05
1.515988706e-05
1.543674228e-05
1.625924019e-05
1.836933073e-05
2.261718933e-05
1.504131738e-05
1.504131818e-05
1.504132047e-05
1.504132764e-05
1.504135163e-05
1.504143683e-05
1.504175449e-05
1.504288755e-05
1.504681935e-05
1.505996386e-05
1.510174578e-05
1.522580479e-05
1.556102525e-05
1.635389381e-05
1.79063165e-05
1.504131621e-05
1.504131625e-05
1.50413183e-05
1.504132314e-05
1.50413417e-05
1.504140961e-05
1.504165043e-05
1.504248385e-05
1.504528228e-05
1.505429361e-05
1.508177585e-05
1.515991068e-05
1.536226871e-05
1.582513273e-05
1.504131694e-05
1.504131712e-05
1.504131905e-05
1.504132522e-05
1.504135049e-05
1.504144606e-05
1.504179273e-05
1.504307071e-05
1.504761897e-05
1.506325219e-05
1.511441832e-05
1.527090071e-05
1.570538575e-05
1.675401408e-05
1.504131808e-05
1.504131864e-05
1.504131964e-05
1.504132812e-05
1.504136536e-05
1.504150492e-05
1.504205838e-05
1.504420678e-05
1.505238269e-05
1.508261762e-05
1.518983043e-05
1.554687025e-05
1.662743061e-05
1.943869727e-05
1.504131931e-05
1.504131794e-05
1.504132164e-05
1.50413323e-05
1.504137868e-05
1.504157119e-05
1.504235873e-05
1.504557201e-05
1.505852053e-05
1.510973092e-05
1.530604794e-05
1.602126479e-05
1.841467501e-05
2.531438637e-05
1.504131896e-05
1.504131916e-05
1.504132115e-05
1.504133427e-05
1.504138605e-05
1.50416012e-05
1.504250874e-05
1.504630116e-05
1.506209835e-05
1.51273353e-05
1.539219592e-05
1.643351569e-05
2.028496415e-05
3.287791256e-05
1.504131822e-05
1.504131935e-05
1.504132165e-05
1.504133424e-05
1.504138065e-05
1.504157124e-05
1.504235925e-05
1.504557275e-05
1.505852161e-05
1.510973264e-05
1.530604797e-05
1.602126092e-05
1.841464639e-05
2.53142781e-05
1.504131737e-05
1.504131783e-05
1.504132005e-05
1.504132854e-05
1.504136426e-05
1.504150614e-05
1.504206005e-05
1.504420693e-05
1.505238222e-05
1.508261781e-05
1.518982933e-05
1.554686228e-05
1.662740007e-05
1.9438651e-05
1.504131878e-05
1.504131991e-05
1.504131922e-05
1.504132624e-05
1.504134978e-05
1.504144393e-05
1.504179608e-05
1.504307238e-05
1.50476209e-05
1.506325181e-05
1.511441713e-05
1.527089501e-05
1.570535298e-05
1.675390885e-05
1.88150034e-05
1.504131798e-05
1.504131736e-05
1.504132132e-05
1.50413247e-05
1.504134458e-05
1.504141297e-05
1.504165364e-05
1.504248638e-05
1.504528466e-05
1.505429463e-05
1.508177586e-05
1.515990454e-05
1.53622466e-05
1.582505533e-05
1.6725121e-05
1.504131637e-05
1.504131623e-05
1.504131772e-05
1.504132187e-05
1.504133603e-05
1.504138436e-05
1.504155368e-05
1.504211246e-05
1.504390766e-05
1.504943268e-05
1.506551835e-05
1.510919117e-05
1.521772458e-05
1.545900614e-05
1.504131691e-05
1.504131679e-05
1.504131791e-05
1.504132359e-05
1.504134165e-05
1.5041406e-05
1.504163893e-05
1.504244764e-05
1.504517453e-05
1.505401006e-05
1.50811748e-05
1.515907885e-05
1.536250961e-05
1.583067207e-05
1.504131678e-05
1.504131824e-05
1.504131901e-05
1.504132669e-05
1.504135122e-05
1.504144329e-05
1.504179137e-05
1.504306892e-05
1.504761877e-05
1.506325153e-05
1.51144211e-05
1.52709049e-05
1.570538986e-05
1.67540202e-05
1.504131743e-05
1.504131787e-05
1.504131907e-05
1.504132626e-05
1.504135794e-05
1.504148137e-05
1.504195794e-05
1.504377418e-05
1.505053641e-05
1.507500376e-05
1.515989273e-05
1.543677601e-05
1.625935822e-05
1.836971226e-05
1.50413177e-05
1.504131868e-05
1.50413203e-05
1.504132954e-05
1.504136402e-05
1.50415004e-05
1.504203793e-05
1.504412564e-05
1.505208438e-05
1.508175322e-05
1.518867616e-05
1.555458282e-05
1.670779459e-05
1.986778928e-05
1.504131645e-05
1.504131764e-05
1.504132016e-05
1.504132806e-05
1.504136044e-05
1.504148242e-05
1.50419599e-05
1.504377296e-05
1.505053551e-05
1.507500202e-05
1.515989084e-05
1.543677169e-05
1.625935106e-05
1.836968677e-05
1.50413175e-05
1.504131705e-05
1.504131803e-05
1.504132706e-05
1.504135055e-05
1.504144478e-05
1.504179631e-05
1.504307133e-05
1.504761951e-05
1.506324917e-05
1.511441816e-05
1.527089988e-05
1.570537723e-05
1.675399877e-05
1.504131642e-05
1.504131713e-05
1.504131911e-05
1.504132276e-05
1.504134107e-05
1.504140596e-05
1.504163844e-05
1.504244838e-05
1.50451755e-05
1.505401009e-05
1.508117589e-05
1.515907584e-05
1.536250036e-05
1.583066192e-05
1.504131598e-05
1.504131878e-05
1.504131931e-05
1.50413233e-05
1.50413375e-05
1.504138608e-05
1.504155318e-05
1.504211226e-05
1.504391028e-05
1.504943518e-05
1.506551987e-05
1.510918917e-05
1.521771624e-05
1.545898418e-05
1.592722102e-05
1.504131687e-05
1.504131622e-05
1.504131797e-05
1.504132029e-05
1.504133213e-05
1.504136974e-05
1.504149697e-05
1.504190344e-05
1.504315862e-05
1.504687298e-05
1.505725817e-05
1.508437832e-05
1.514955927e-05
1.529141835e-05
1.504131661e-05
1.504131687e-05
1.504131864e-05
1.504132379e-05
1.50413371e-05
1.504138438e-05
1.504155156e-05
1.504211183e-05
1.50439065e-05
1.504943196e-05
1.506551916e-05
1.510919166e-05
1.521772538e-05
1.545900789e-05
1.504131659e-05
1.504131662e-05
1.504131946e-05
1.504132442e-05
1.504134224e-05
1.504140941e-05
1.504164897e-05
1.504248418e-05
1.504528107e-05
1.505429249e-05
1.508177538e-05
1.515991209e-05
1.536227253e-05
1.582513584e-05
1.504131697e-05
1.504131831e-05
1.504131861e-05
1.5041324e-05
1.50413476e-05
1.504143524e-05
1.504175045e-05
1.504288282e-05
1.504681509e-05
1.505996225e-05
1.510174783e-05
1.522582036e-05
1.556108448e-05
1.635407071e-05
1.504131666e-05
1.504131843e-05
1.504131906e-05
1.504132498e-05
1.504135116e-05
1.504144597e-05
1.504179731e-05
1.504307162e-05
1.504756644e-05
1.506289277e-05
1.511276859e-05
1.526507962e-05
1.568988848e-05
1.672567291e-05
1.504131741e-05
1.504131775e-05
1.504131917e-05
1.504132559e-05
1.504134826e-05
1.504143566e-05
1.504175212e-05
1.504288571e-05
1.504681654e-05
1.505996104e-05
1.510174569e-05
1.522581929e-05
1.556108081e-05
1.635405789e-05
1.504131848e-05
1.504132005e-05
1.504132013e-05
1.504132392e-05
1.504134428e-05
1.504141249e-05
1.504165216e-05
1.504248614e-05
1.504528573e-05
1.50542935e-05
1.508177585e-05
1.515991143e-05
1.536226563e-05
1.582512006e-05
1.504131832e-05
1.504131919e-05
1.504131908e-05
1.504132343e-05
1.504133798e-05
1.504138592e-05
1.504155396e-05
1.504211308e-05
1.504390849e-05
1.504943437e-05
1.506551828e-05
1.510919022e-05
1.521772189e-05
1.545900219e-05
1.50413181e-05
1.504131946e-05
1.504132034e-05
1.504132296e-05
1.504133413e-05
1.504137196e-05
1.504149793e-05
1.504190404e-05
1.504316047e-05
1.504687608e-05
1.505726048e-05
1.508437825e-05
1.514955868e-05
1.529142229e-05
)
;

boundaryField
{
    top
    {
        type            calculated;
        value           nonuniform List<scalar> 
134
(
1.504131993e-05
1.504131905e-05
1.50413186e-05
1.504131928e-05
1.504131911e-05
1.504131738e-05
1.504131798e-05
1.504131598e-05
1.50413181e-05
1.504131892e-05
1.504131864e-05
1.504131934e-05
1.50413203e-05
1.504132018e-05
1.504131818e-05
1.504131736e-05
1.504131878e-05
1.504131946e-05
1.504132019e-05
1.504132067e-05
1.504132165e-05
1.504132167e-05
1.504132119e-05
1.504132047e-05
1.504132132e-05
1.504131931e-05
1.504132034e-05
1.504132398e-05
1.504132236e-05
1.504132669e-05
1.504132611e-05
1.504132751e-05
1.504132764e-05
1.50413247e-05
1.50413233e-05
1.504132296e-05
1.504133497e-05
1.50413379e-05
1.504134419e-05
1.504134998e-05
1.504135394e-05
1.504135163e-05
1.504134458e-05
1.50413375e-05
1.504133413e-05
1.504137176e-05
1.50413864e-05
1.504141273e-05
1.504143692e-05
1.504144839e-05
1.504143683e-05
1.504141297e-05
1.504138608e-05
1.504137196e-05
1.504149936e-05
1.504155537e-05
1.504165078e-05
1.50417541e-05
1.504180098e-05
1.504175449e-05
1.504165364e-05
1.504155318e-05
1.504149793e-05
1.504190449e-05
1.504211354e-05
1.504248667e-05
1.504288621e-05
1.504307349e-05
1.504288755e-05
1.504248638e-05
1.504211226e-05
1.504190404e-05
1.50431603e-05
1.504390888e-05
1.504528614e-05
1.504681806e-05
1.504757036e-05
1.504681935e-05
1.504528466e-05
1.504391028e-05
1.504316047e-05
1.504687503e-05
1.504943328e-05
1.505429432e-05
1.5059961e-05
1.50628923e-05
1.505996386e-05
1.505429463e-05
1.504943518e-05
1.504687608e-05
1.505725839e-05
1.506551606e-05
1.508177152e-05
1.510174088e-05
1.511276269e-05
1.510174578e-05
1.508177586e-05
1.506551987e-05
1.505726048e-05
1.508437373e-05
1.510918249e-05
1.515989402e-05
1.522579575e-05
1.526505352e-05
1.522580479e-05
1.515990454e-05
1.510918917e-05
1.508437825e-05
1.514954112e-05
1.521769637e-05
1.536222057e-05
1.556100403e-05
1.568979359e-05
1.556102525e-05
1.53622466e-05
1.521771624e-05
1.514955868e-05
1.529137552e-05
1.545893187e-05
1.5824996e-05
1.635384209e-05
1.672539448e-05
1.635389381e-05
1.582505533e-05
1.545898418e-05
1.529142229e-05
1.556669642e-05
1.592710407e-05
1.672500362e-05
1.790621881e-05
1.877766507e-05
1.79063165e-05
1.6725121e-05
1.592722102e-05
)
;
    }
    bottom
    {
        type            calculated;
        value           nonuniform List<scalar> 
127
(
1.504131859e-05
1.504131937e-05
1.504131935e-05
1.504131838e-05
1.50413195e-05
1.50413188e-05
1.504131621e-05
1.504131637e-05
1.504131687e-05
1.504131893e-05
1.504132065e-05
1.504131925e-05
1.504131997e-05
1.504132052e-05
1.504131885e-05
1.504131625e-05
1.504131623e-05
1.504131622e-05
1.504132098e-05
1.504132114e-05
1.504132072e-05
1.504132013e-05
1.504132078e-05
1.504132069e-05
1.50413183e-05
1.504131772e-05
1.504131797e-05
1.504132251e-05
1.504132365e-05
1.504132589e-05
1.504132699e-05
1.504132691e-05
1.504132575e-05
1.504132314e-05
1.504132187e-05
1.504132029e-05
1.504133336e-05
1.504133722e-05
1.504134415e-05
1.504134907e-05
1.504134991e-05
1.504135e-05
1.50413417e-05
1.504133603e-05
1.504133213e-05
1.50413712e-05
1.504138706e-05
1.50414093e-05
1.504143549e-05
1.504144515e-05
1.504143588e-05
1.504140961e-05
1.504138436e-05
1.504136974e-05
1.504149709e-05
1.504155308e-05
1.504165128e-05
1.504175315e-05
1.504179853e-05
1.504175225e-05
1.504165043e-05
1.504155368e-05
1.504149697e-05
1.504190308e-05
1.504211266e-05
1.504248699e-05
1.504288615e-05
1.504307198e-05
1.504288511e-05
1.504248385e-05
1.504211246e-05
1.504190344e-05
1.504315984e-05
1.504390953e-05
1.504528503e-05
1.50468198e-05
1.504756901e-05
1.504681824e-05
1.504528228e-05
1.504390766e-05
1.504315862e-05
1.504687576e-05
1.504943462e-05
1.505429296e-05
1.505996336e-05
1.506289305e-05
1.505996182e-05
1.505429361e-05
1.504943268e-05
1.504687298e-05
1.505725916e-05
1.506551807e-05
1.508177394e-05
1.510174444e-05
1.511276558e-05
1.510174696e-05
1.508177585e-05
1.506551835e-05
1.505725817e-05
1.508437591e-05
1.510918676e-05
1.515990401e-05
1.522581059e-05
1.526507348e-05
1.522581628e-05
1.515991068e-05
1.510919117e-05
1.508437832e-05
1.514955124e-05
1.521771666e-05
1.536225985e-05
1.556106933e-05
1.568987391e-05
1.556107902e-05
1.536226871e-05
1.521772458e-05
1.514955927e-05
1.529140093e-05
1.545900247e-05
1.582512638e-05
1.63540606e-05
1.672566433e-05
1.635406884e-05
1.582513273e-05
1.545900614e-05
1.529141835e-05
1.556676073e-05
)
;
    }
    side-walls
    {
        type            calculated;
        value           nonuniform List<scalar> 
261
(
1.504131859e-05
1.504132076e-05
1.504131935e-05
1.504131905e-05
1.504131973e-05
1.504132077e-05
1.504131902e-05
1.504131992e-05
1.504131993e-05
1.504131893e-05
1.504132076e-05
1.504131946e-05
1.504131816e-05
1.504132052e-05
1.504132003e-05
1.504132016e-05
1.504131942e-05
1.504131892e-05
1.504132098e-05
1.504132095e-05
1.50413218e-05
1.504132044e-05
1.504132189e-05
1.504132222e-05
1.504132096e-05
1.504132066e-05
1.504132019e-05
1.504132251e-05
1.50413239e-05
1.504132572e-05
1.504132712e-05
1.504132831e-05
1.504132783e-05
1.504132628e-05
1.504132444e-05
1.504132398e-05
1.504133336e-05
1.504133768e-05
1.504134545e-05
1.504135049e-05
1.504135125e-05
1.504135033e-05
1.504134313e-05
1.504133757e-05
1.504133497e-05
1.50413712e-05
1.504138702e-05
1.504141199e-05
1.504143841e-05
1.504144708e-05
1.504143511e-05
1.504141207e-05
1.504138721e-05
1.504137176e-05
1.504149709e-05
1.504155426e-05
1.504165143e-05
1.504175516e-05
1.504179916e-05
1.504175418e-05
1.504165271e-05
1.504155457e-05
1.504149936e-05
1.504190308e-05
1.50421135e-05
1.504248578e-05
1.504288593e-05
1.504307406e-05
1.504288717e-05
1.50424852e-05
1.504211309e-05
1.504190449e-05
1.504315984e-05
1.504390887e-05
1.504528414e-05
1.504681673e-05
1.504756907e-05
1.504681825e-05
1.50452852e-05
1.504390816e-05
1.50431603e-05
1.504687576e-05
1.504943406e-05
1.505429455e-05
1.505996054e-05
1.506288974e-05
1.505996031e-05
1.505429405e-05
1.504943328e-05
1.504687503e-05
1.505725916e-05
1.50655165e-05
1.508177192e-05
1.510173723e-05
1.511275697e-05
1.510173858e-05
1.508176923e-05
1.506551661e-05
1.505725839e-05
1.508437591e-05
1.510918235e-05
1.515989467e-05
1.52257896e-05
1.526504212e-05
1.522578953e-05
1.515989142e-05
1.510917993e-05
1.508437373e-05
1.514955124e-05
1.5217704e-05
1.536222413e-05
1.556099716e-05
1.568977104e-05
1.556099316e-05
1.536221497e-05
1.521769286e-05
1.514954112e-05
1.529140093e-05
1.545895931e-05
1.582501311e-05
1.635384065e-05
1.672536316e-05
1.635382824e-05
1.58249851e-05
1.54589284e-05
1.529137552e-05
1.556676073e-05
1.59271657e-05
1.67250602e-05
1.790625357e-05
1.877765626e-05
1.790621812e-05
1.672499657e-05
1.592710017e-05
1.556669642e-05
1.504131687e-05
1.504131661e-05
1.504131659e-05
1.504131697e-05
1.504131666e-05
1.504131741e-05
1.504131848e-05
1.504131832e-05
1.50413181e-05
1.504131622e-05
1.504131687e-05
1.504131662e-05
1.504131831e-05
1.504131843e-05
1.504131775e-05
1.504132005e-05
1.504131919e-05
1.504131946e-05
1.504131797e-05
1.504131864e-05
1.504131946e-05
1.504131861e-05
1.504131906e-05
1.504131917e-05
1.504132013e-05
1.504131908e-05
1.504132034e-05
1.504132029e-05
1.504132379e-05
1.504132442e-05
1.5041324e-05
1.504132498e-05
1.504132559e-05
1.504132392e-05
1.504132343e-05
1.504132296e-05
1.504133213e-05
1.50413371e-05
1.504134224e-05
1.50413476e-05
1.504135116e-05
1.504134826e-05
1.504134428e-05
1.504133798e-05
1.504133413e-05
1.504136974e-05
1.504138438e-05
1.504140941e-05
1.504143524e-05
1.504144597e-05
1.504143566e-05
1.504141249e-05
1.504138592e-05
1.504137196e-05
1.504149697e-05
1.504155156e-05
1.504164897e-05
1.504175045e-05
1.504179731e-05
1.504175212e-05
1.504165216e-05
1.504155396e-05
1.504149793e-05
1.504190344e-05
1.504211183e-05
1.504248418e-05
1.504288282e-05
1.504307162e-05
1.504288571e-05
1.504248614e-05
1.504211308e-05
1.504190404e-05
1.504315862e-05
1.50439065e-05
1.504528107e-05
1.504681509e-05
1.504756644e-05
1.504681654e-05
1.504528573e-05
1.504390849e-05
1.504316047e-05
1.504687298e-05
1.504943196e-05
1.505429249e-05
1.505996225e-05
1.506289277e-05
1.505996104e-05
1.50542935e-05
1.504943437e-05
1.504687608e-05
1.505725817e-05
1.506551916e-05
1.508177538e-05
1.510174783e-05
1.511276859e-05
1.510174569e-05
1.508177585e-05
1.506551828e-05
1.505726048e-05
1.508437832e-05
1.510919166e-05
1.515991209e-05
1.522582036e-05
1.526507962e-05
1.522581929e-05
1.515991143e-05
1.510919022e-05
1.508437825e-05
1.514955927e-05
1.521772538e-05
1.536227253e-05
1.556108448e-05
1.568988848e-05
1.556108081e-05
1.536226563e-05
1.521772189e-05
1.514955868e-05
1.529141835e-05
1.545900789e-05
1.582513584e-05
1.635407071e-05
1.672567291e-05
1.635405789e-05
1.582512006e-05
1.545900219e-05
1.529142229e-05
)
;
    }
    inlet
    {
        type            calculated;
        value           nonuniform List<scalar> 
81
(
1.504131859e-05
1.504132076e-05
1.504131935e-05
1.504131905e-05
1.504131973e-05
1.504132077e-05
1.504131902e-05
1.504131992e-05
1.504131993e-05
1.504131937e-05
1.504131868e-05
1.504131999e-05
1.504132031e-05
1.504132204e-05
1.504132168e-05
1.504131983e-05
1.504132062e-05
1.504131905e-05
1.504131935e-05
1.504131946e-05
1.50413194e-05
1.504131969e-05
1.504132247e-05
1.504132149e-05
1.504132102e-05
1.504132012e-05
1.50413186e-05
1.504131838e-05
1.504132057e-05
1.504132135e-05
1.504132101e-05
1.504132064e-05
1.50413187e-05
1.504132037e-05
1.504131859e-05
1.504131928e-05
1.50413195e-05
1.504131954e-05
1.504132045e-05
1.504132109e-05
1.504131933e-05
1.504131885e-05
1.504132013e-05
1.504131905e-05
1.504131911e-05
1.50413188e-05
1.504131867e-05
1.504132059e-05
1.504131945e-05
1.504131947e-05
1.50413185e-05
1.504131683e-05
1.504131767e-05
1.504131738e-05
1.504131621e-05
1.504131694e-05
1.504131808e-05
1.504131931e-05
1.504131896e-05
1.504131822e-05
1.504131737e-05
1.504131878e-05
1.504131798e-05
1.504131637e-05
1.504131691e-05
1.504131678e-05
1.504131743e-05
1.50413177e-05
1.504131645e-05
1.50413175e-05
1.504131642e-05
1.504131598e-05
1.504131687e-05
1.504131661e-05
1.504131659e-05
1.504131697e-05
1.504131666e-05
1.504131741e-05
1.504131848e-05
1.504131832e-05
1.50413181e-05
)
;
    }
    outlet
    {
        type            calculated;
        value           nonuniform 0();
    }
    procBoundary0to1
    {
        type            processor;
        value           nonuniform List<scalar> 
97
(
1.60400274e-05
1.592722246e-05
1.670922008e-05
1.817117601e-05
2.02832061e-05
2.176686475e-05
2.028315951e-05
1.817109653e-05
1.670914489e-05
1.603997337e-05