/*--------------------------------*- C++ -*----------------------------------*\
| =========                 |                                                 |
| \\      /  F ield         | OpenFOAM: The Open Source CFD Toolbox           |
|  \\    /   O peration     | Version:  4.x                                   |
|   \\  /    A nd           | Web:      www.OpenFOAM.org                      |
|    \\/     M anipulation  |                                                 |
\*---------------------------------------------------------------------------*/
FoamFile
{
    version     2.0;
    format      ascii;
    class       volScalarField;
    location    "10000";
    object      Cpv;
}
// * * * * * * * * * * * * * * * * * * * * * * * * * * * * * * * * * * * * * //

dimensions      [0 2 -2 -1 0 0 0];

internalField   nonuniform List<scalar> 
1175
(
1210.518964
1210.51895
1210.518941
1210.518953
1210.518952
1210.51897
1210.518962
1210.518975
1210.518995
1210.518982
1210.519
1210.519021
1210.519004
1210.519045
1210.519079
1210.518035
1210.518056
1210.518054
1210.518071
1210.518085
1210.518088
1210.518067
1210.518068
1210.51807
1210.518056
1210.518051
1210.518057
1210.518092
1210.518141
1210.518206
1210.518653
1210.518665
1210.518653
1210.518628
1210.518631
1210.518644
1210.518642
1210.518672
1210.518676
1210.518681
1210.518701
1210.518697
1210.518742
1210.518801
1210.518931
1210.518735
1210.51874
1210.518727
1210.51874
1210.518742
1210.518751
1210.51875
1210.518746
1210.518742
1210.518748
1210.518753
1210.518768
1210.51882
1210.518925
1210.519184
1210.519329
1210.51932
1210.519318
1210.519321
1210.519308
1210.519322
1210.519335
1210.51933
1210.51934
1210.51932
1210.519325
1210.51936
1210.519447
1210.519627
1210.519962
1210.519144
1210.519141
1210.519128
1210.519142
1210.519159
1210.519151
1210.519129
1210.519118
1210.519126
1210.519121
1210.519109
1210.519145
1210.5192
1210.519315
1210.519583
1210.51888
1210.51888
1210.518866
1210.518857
1210.518875
1210.518868
1210.518866
1210.518873
1210.518874
1210.518854
1210.51886
1210.518882
1210.518918
1210.518976
1210.519103
1210.519388
1210.519382
1210.519371
1210.519383
1210.519391
1210.51939
1210.519402
1210.519399
1210.519397
1210.519412
1210.519423
1210.519407
1210.519426
1210.519462
1210.519538
1210.519438
1210.519452
1210.519452
1210.519451
1210.519428
1210.519429
1210.519418
1210.519407
1210.519431
1210.519445
1210.519434
1210.519444
1210.519442
1210.519454
1210.519482
1210.518619
1210.518604
1210.51858
1210.51859
1210.518619
1210.518605
1210.518615
1210.518601
1210.518599
1210.518591
1210.518599
1210.518582
1210.518572
1210.518599
1210.519035
1210.519017
1210.519023
1210.519039
1210.519038
1210.519037
1210.519091
1210.519086
1210.519086
1210.519092
1210.519129
1210.519152
1210.519179
1210.519283
1210.519426
1210.520309
1210.520311
1210.52032
1210.520321
1210.520322
1210.520301
1210.520297
1210.520291
1210.520285
1210.520268
1210.520289
1210.520315
1210.520394
1210.520546
1210.52089
1210.518755
1210.518757
1210.518761
1210.518749
1210.518761
1210.51875
1210.518733
1210.518736
1210.518711
1210.51873
1210.51877
1210.518821
1210.518948
1210.519288
1210.519996
1210.519491
1210.519492
1210.519508
1210.519527
1210.519514
1210.519502
1210.519493
1210.519479
1210.519466
1210.519437
1210.519449
1210.519502
1210.519699
1210.520217
1210.521322
1210.517995
1210.518011
1210.518018
1210.518003
1210.517984
1210.518016
1210.518035
1210.518015
1210.518026
1210.517999
1210.518027
1210.518077
1210.518199
1210.518536
1210.519241
1210.520126
1210.520149
1210.520142
1210.520159
1210.520178
1210.52019
1210.520181
1210.520155
1210.520167
1210.520173
1210.520185
1210.5202
1210.520249
1210.520411
1210.520739
1210.518066
1210.518069
1210.518052
1210.518025
1210.518049
1210.518046
1210.518051
1210.518047
1210.518044
1210.518023
1210.518028
1210.518056
1210.518084
1210.518165
1210.518324
1210.519837
1210.519835
1210.519847
1210.519852
1210.519861
1210.519867
1210.51988
1210.519889
1210.519886
1210.519895
1210.519906
1210.519921
1210.519916
1210.519943
1210.520026
1210.518943
1210.518938
1210.518952
1210.518965
1210.518962
1210.518949
1210.518949
1210.518943
1210.518969
1210.51895
1210.518962
1210.51898
1210.518998
1210.519067
1210.517812
1210.517826
1210.517839
1210.51783
1210.517843
1210.517843
1210.517839
1210.517832
1210.517829
1210.517835
1210.517852
1210.517859
1210.517918
1210.518117
1210.518437
1210.518427
1210.518428
1210.518459
1210.518455
1210.518473
1210.518446
1210.518453
1210.518434
1210.518446
1210.518458
1210.518504
1210.518672
1210.519132
1210.520077
1210.519162
1210.519138
1210.519157
1210.519138
1210.519145
1210.519136
1210.519145
1210.519122
1210.519105
1210.5191
1210.519142
1210.519274
1210.519668
1210.520774
1210.523249
1210.518036
1210.518043
1210.518071
1210.518064
1210.51808
1210.518096
1210.518094
1210.518111
1210.51811
1210.518147
1210.518153
1210.518319
1210.518948
1210.521045
1210.526226
1210.51839
1210.518386
1210.518389
1210.518394
1210.518394
1210.518419
1210.518426
1210.518415
1210.518447
1210.518473
1210.518463
1210.518564
1210.51894
1210.520082
1210.522552
1210.51881
1210.518821
1210.518821
1210.518814
1210.518823
1210.518816
1210.518835
1210.518857
1210.518848
1210.51885
1210.51888
1210.518916
1210.519076
1210.519524
1210.520451
1210.519815
1210.519797
1210.51979
1210.519776
1210.519764
1210.51977
1210.519796
1210.51976
1210.519766
1210.519752
1210.51977
1210.519822
1210.519886
1210.520056
1210.52037
1210.517837
1210.517816
1210.517813
1210.517817
1210.517814
1210.517814
1210.517808
1210.517818
1210.51784
1210.517865
1210.517889
1210.517915
1210.517954
1210.51802
1210.518167
1210.519197
1210.519189
1210.519174
1210.519185
1210.519176
1210.519193
1210.519203
1210.519216
1210.519212
1210.519199
1210.519215
1210.519202
1210.519262
1210.519395
1210.519885
1210.519909
1210.519902
1210.519934
1210.519921
1210.519926
1210.519918
1210.519909
1210.51992
1210.51991
1210.519907
1210.519951
1210.520094
1210.520417
1210.518546
1210.518556
1210.518547
1210.518536
1210.518516
1210.518478
1210.518489
1210.518489
1210.518514
1210.518539
1210.518595
1210.518694
1210.519081
1210.520211
1210.51944
1210.519451
1210.519455
1210.519436
1210.519419
1210.519418
1210.519376
1210.519367
1210.519348
1210.519367
1210.519444
1210.519702
1210.520747
1210.524355
1210.533563
1210.519833
1210.519819
1210.519824
1210.519825
1210.519814
1210.519812
1210.519817
1210.519848
1210.519864
1210.519885
1210.519985
1210.520435
1210.522475
1210.531386
1210.562177
1210.518379
1210.518373
1210.518395
1210.518416
1210.51839
1210.518391
1210.518376
1210.518357
1210.518363
1210.518371
1210.518432
1210.518677
1210.519728
1210.523327
1210.532542
1210.519028
1210.519021
1210.519051
1210.519024
1210.519049
1210.519025
1210.519014
1210.519013
1210.519001
1210.519005
1210.51904
1210.519148
1210.51952
1210.520648
1210.523121
1210.51771
1210.517704
1210.517706
1210.517711
1210.51771
1210.517704
1210.517692
1210.517689
1210.517669
1210.517656
1210.517656
1210.517701
1210.517833
1210.518162
1210.518854
1210.51844
1210.518445
1210.518435
1210.51842
1210.518425
1210.518436
1210.518449
1210.518454
1210.518457
1210.518473
1210.518475
1210.518521
1210.518568
1210.518708
1210.518964
1210.519187
1210.519173
1210.519176
1210.51918
1210.519222
1210.519238
1210.519238
1210.519215
1210.519215
1210.519237
1210.519246
1210.519255
1210.519326
1210.519496
1210.518431
1210.518434
1210.518463
1210.51846
1210.518436
1210.518436
1210.518459
1210.518449
1210.518457
1210.518459
1210.518474
1210.518521
1210.518716
1210.519215
1210.518733
1210.51873
1210.518721
1210.518709
1210.518721
1210.518726
1210.518739
1210.518732
1210.518748
1210.518755
1210.518812
1210.518977
1210.519608
1210.521707
1210.519376
1210.519383
1210.51935
1210.519328
1210.51933
1210.519323
1210.519324
1210.519325
1210.519313
1210.519345
1210.519431
1210.519855
1210.521912
1210.53081
1210.518428
1210.518431
1210.518447
1210.518467
1210.518476
1210.51846
1210.518473
1210.518485
1210.518464
1210.518474
1210.518644
1210.519479
1210.524617
1210.55798
1210.349973
1210.519447
1210.519436
1210.519448
1210.519455
1210.519472
1210.519447
1210.519429
1210.519445
1210.519437
1210.519445
1210.519535
1210.519978
1210.52201
1210.530931
1210.561693
1210.51924
1210.519259
1210.519244
1210.519256
1210.519252
1210.519243
1210.519245
1210.519243
1210.519249
1210.519308
1210.519334
1210.519472
1210.52008
1210.522165
1210.52738
1210.519091
1210.51909
1210.519083
1210.519087
1210.5191
1210.519123
1210.519107
1210.519124
1210.519117
1210.519133
1210.519136
1210.519183
1210.519401
1210.519931
1210.52103
1210.51986
1210.519863
1210.51985
1210.519868
1210.519851
1210.519859
1210.519872
1210.51987
1210.519877
1210.519867
1210.519885
1210.519926
1210.519977
1210.52014
1210.520456
1210.519123
1210.519111
1210.519115
1210.51911
1210.51913
1210.519108
1210.51912
1210.51912
1210.519116
1210.519116
1210.519099
1210.519131
1210.51919
1210.5193
1210.518908
1210.518919
1210.518905
1210.518873
1210.518893
1210.518888
1210.51889
1210.518871
1210.518862
1210.518832
1210.518836
1210.518875
1210.519039
1210.519388
1210.519268
1210.519289
1210.519309
1210.519342
1210.519302
1210.519294
1210.519296
1210.519305
1210.519292
1210.519273
1210.519328
1210.519456
1210.519829
1210.520981
1210.518289
1210.518288
1210.518293
1210.518271
1210.518277
1210.518289
1210.518294
1210.518299
1210.518329
1210.518341
1210.518404
1210.518645
1210.519688
1210.523298
1210.519392
1210.519406
1210.519394
1210.519409
1210.519405
1210.519418
1210.519416
1210.519418
1210.519433
1210.519469
1210.519555
1210.520012
1210.52207
1210.530957
1210.519096
1210.51909
1210.51907
1210.519078
1210.51909
1210.519101
1210.519101
1210.519109
1210.519113
1210.519147
1210.519222
1210.519501
1210.520555
1210.524151
1210.51853
1210.518569
1210.518583
1210.518581
1210.518565
1210.518601
1210.518618
1210.518618
1210.518594
1210.518596
1210.518629
1210.518721
1210.519089
1210.520198
1210.522675
1210.519409
1210.519394
1210.519384
1210.519392
1210.519429
1210.519397
1210.519396
1210.519388
1210.519386
1210.519415
1210.519413
1210.519467
1210.519596
1210.519927
1210.520618
1210.519068
1210.519067
1210.519049
1210.519052
1210.519038
1210.519026
1210.519024
1210.519045
1210.51906
1210.519046
1210.519058
1210.519091
1210.519137
1210.519266
1210.519505
1210.51867
1210.51868
1210.518671
1210.518668
1210.51868
1210.518684
1210.518666
1210.518663
1210.51866
1210.518667
1210.518637
1210.518646
1210.51869
1210.518765
1210.519935
1210.519943
1210.519923
1210.519908
1210.519914
1210.519906
1210.519901
1210.519907
1210.519922
1210.519959
1210.519971
1210.520004
1210.520049
1210.520241
1210.519047
1210.519056
1210.519059
1210.519051
1210.519068
1210.519046
1210.519041
1210.51904
1210.519041
1210.519069
1210.519078
1210.519146
1210.519301
1210.519758
1210.519074
1210.51906
1210.519056
1210.519048
1210.519023
1210.519017
1210.519038
1210.519056
1210.519047
1210.519055
1210.519059
1210.519172
1210.519547
1210.520689
1210.518962
1210.518944
1210.518937
1210.518929
1210.518952
1210.51894
1210.518927
1210.518914
1210.518943
1210.518965
1210.51898
1210.519141
1210.519757
1210.521862
1210.519456
1210.519446
1210.519467
1210.519457
1210.519473
1210.519474
1210.519505
1210.519499
1210.519512
1210.519545
1210.519591
1210.519697
1210.52006
1210.521187
1210.51949
1210.5195
1210.519505
1210.519514
1210.519516
1210.519489
1210.519475
1210.519455
1210.519444
1210.519453
1210.519472
1210.519535
1210.519694
1210.520125
1210.518339
1210.518341
1210.518351
1210.51832
1210.518326
1210.518301
1210.518315
1210.518299
1210.518311
1210.518308
1210.518341
1210.518356
1210.51843
1210.518598
1210.518941
1210.518309
1210.518315
1210.518313
1210.5183
1210.518311
1210.518325
1210.51831
1210.518311
1210.518307
1210.51833
1210.518315
1210.518318
1210.518351
1210.518411
1210.518554
1210.518936
1210.518953
1210.518946
1210.518959
1210.518955
1210.518958
1210.518963
1210.518947
1210.51895
1210.518928
1210.518932
1210.518939
1210.518953
1210.518985
1210.518376
1210.518402
1210.518423
1210.518424
1210.518441
1210.51842
1210.518418
1210.518422
1210.518439
1210.518442
1210.518446
1210.518467
1210.518502
1210.518573
1210.519378
1210.519383
1210.519394
1210.519386
1210.519372
1210.519372
1210.519374
1210.519359
1210.519355
1210.519339
1210.519338
1210.51936
1210.519411
1210.519563
1210.518679
1210.518704
1210.518698
1210.518698
1210.518705
1210.51872
1210.518726
1210.518716
1210.518742
1210.518765
1210.51877
1210.518816
1210.518934
1210.519295
1210.519148
1210.51913
1210.519121
1210.519119
1210.519122
1210.51911
1210.519126
1210.519134
1210.519131
1210.519128
1210.519143
1210.5192
1210.519388
1210.519897
1210.518555
1210.518564
1210.518541
1210.518527
1210.518505
1210.518478
1210.518485
1210.518479
1210.51849
1210.518468
1210.518482
1210.518548
1210.518658
1210.519003
1210.518744
1210.518745
1210.518735
1210.518728
1210.51874
1210.518747
1210.51877
1210.518779
1210.518775
1210.518761
1210.518774
1210.518812
1210.518881
1210.519074
1210.518584
1210.51857
1210.518565
1210.518556
1210.518558
1210.518581
1210.5186
1210.518583
1210.518621
1210.518613
1210.518591
1210.518597
1210.518644
1210.5187
1210.519363
1210.519352
1210.519351
1210.519354
1210.51932
1210.519323
1210.519317
1210.519307
1210.519318
1210.519325
1210.519328
1210.519335
1210.519331
1210.519379
1210.519443
1210.519234
1210.519229
1210.519227
1210.519225
1210.519199
1210.5192
1210.519199
1210.519186
1210.519191
1210.519187
1210.519185
1210.519175
1210.519189
1210.519191
1210.518701
1210.518712
1210.518709
1210.518698
1210.5187
1210.518692
1210.518683
1210.518676
1210.518699
1210.51867
1210.518704
1210.518696
1210.518712
1210.51877
1210.51952
1210.519485
1210.519479
1210.519473
1210.519477
1210.519487
1210.519491
1210.519495
1210.51949
1210.519496
1210.519483
1210.519463
1210.519483
1210.519545
1210.517682
1210.51769
1210.517656
1210.517664
1210.517656
1210.517644
1210.517654
1210.517642
1210.517644
1210.517643
1210.517641
1210.517665
1210.517688
1210.517795
1210.51842
1210.518419
1210.518425
1210.518441
1210.518423
1210.518431
1210.518426
1210.518418
1210.518405
1210.51843
1210.518439
1210.518482
1210.518546
1210.518724
1210.518967
1210.518971
1210.518946
1210.518934
1210.518957
1210.518945
1210.518961
1210.518969
1210.518948
1210.518926
1210.518935
1210.518944
1210.519007
1210.51914
1210.518907
1210.518907
1210.518903
1210.518925
1210.518928
1210.518928
1210.518943
1210.518968
1210.518984
1210.518972
1210.518985
1210.519032
1210.519054
1210.519122
1210.518704
1210.518701
1210.518737
1210.518711
1210.518745
1210.518739
1210.518714
1210.518706
1210.518695
1210.5187
1210.518701
1210.518707
1210.518741
1210.518765
1210.51868
1210.518689
1210.518689
1210.518709
1210.518705
1210.518709
1210.518695
1210.518701
1210.518701
1210.518718
1210.518712
1210.51872
1210.518728
1210.518739
)
;

boundaryField
{
    top
    {
        type            calculated;
        value           nonuniform List<scalar> 
134
(
1210.519438
1210.519837
1210.517837
1210.51844
1210.51986
1210.519068
1210.518309
1210.519363
1210.51868
1210.519452
1210.519835
1210.517816
1210.518445
1210.519863
1210.519067
1210.518315
1210.519352
1210.518689
1210.519452
1210.519847
1210.517813
1210.518435
1210.51985
1210.519049
1210.518313
1210.519351
1210.518689
1210.519451
1210.519852
1210.517817
1210.51842
1210.519868
1210.519052
1210.5183
1210.519354
1210.518709
1210.519428
1210.519861
1210.517814
1210.518425
1210.519851
1210.519038
1210.518311
1210.51932
1210.518705
1210.519429
1210.519867
1210.517814
1210.518436
1210.519859
1210.519026
1210.518325
1210.519323
1210.518709
1210.519418
1210.51988
1210.517808
1210.518449
1210.519872
1210.519024
1210.51831
1210.519317
1210.518695
1210.519407
1210.519889
1210.517818
1210.518454
1210.51987
1210.519045
1210.518311
1210.519307
1210.518701
1210.519431
1210.519886
1210.51784
1210.518457
1210.519877
1210.51906
1210.518307
1210.519318
1210.518701
1210.519445
1210.519895
1210.517865
1210.518473
1210.519867
1210.519046
1210.51833
1210.519325
1210.518718
1210.519434
1210.519906
1210.517889
1210.518475
1210.519885
1210.519058
1210.518315
1210.519328
1210.518712
1210.519444
1210.519921
1210.517915
1210.518521
1210.519926
1210.519091
1210.518318
1210.519335
1210.51872
1210.519442
1210.519916
1210.517954
1210.518568
1210.519977
1210.519137
1210.518351
1210.519331
1210.518728
1210.519454
1210.519943
1210.51802
1210.518708
1210.52014
1210.519266
1210.518411
1210.519379
1210.518739
1210.519482
1210.520026
1210.518167
1210.518964
1210.520456
1210.519505
1210.518554
1210.519443
)
;
    }
    bottom
    {
        type            calculated;
        value           nonuniform List<scalar> 
127
(
1210.518964
1210.518619
1210.518943
1210.519197
1210.519187
1210.519123
1210.51867
1210.518936
1210.519234
1210.51895
1210.518604
1210.518938
1210.519189
1210.519173
1210.519111
1210.51868
1210.518953
1210.519229
1210.518941
1210.51858
1210.518952
1210.519174
1210.519176
1210.519115
1210.518671
1210.518946
1210.519227
1210.518953
1210.51859
1210.518965
1210.519185
1210.51918
1210.51911
1210.518668
1210.518959
1210.519225
1210.518952
1210.518619
1210.518962
1210.519176
1210.519222
1210.51913
1210.51868
1210.518955
1210.519199
1210.51897
1210.518605
1210.518949
1210.519193
1210.519238
1210.519108
1210.518684
1210.518958
1210.5192
1210.518962
1210.518615
1210.518949
1210.519203
1210.519238
1210.51912
1210.518666
1210.518963
1210.519199
1210.518975
1210.518601
1210.518943
1210.519216
1210.519215
1210.51912
1210.518663
1210.518947
1210.519186
1210.518995
1210.518599
1210.518969
1210.519212
1210.519215
1210.519116
1210.51866
1210.51895
1210.519191
1210.518982
1210.518591
1210.51895
1210.519199
1210.519237
1210.519116
1210.518667
1210.518928
1210.519187
1210.519
1210.518599
1210.518962
1210.519215
1210.519246
1210.519099
1210.518637
1210.518932
1210.519185
1210.519021
1210.518582
1210.51898
1210.519202
1210.519255
1210.519131
1210.518646
1210.518939
1210.519175
1210.519004
1210.518572
1210.518998
1210.519262
1210.519326
1210.51919
1210.51869
1210.518953
1210.519189
1210.519045
1210.518599
1210.519067
1210.519395
1210.519496
1210.5193
1210.518765
1210.518985
1210.519191
1210.519079
)
;
    }
    side-walls
    {
        type            calculated;
        value           nonuniform List<scalar> 
261
(
1210.518964
1210.518035
1210.518653
1210.518735
1210.519329
1210.519144
1210.51888
1210.519388
1210.519438
1210.51895
1210.518056
1210.518665
1210.51874
1210.51932
1210.519141
1210.51888
1210.519382
1210.519452
1210.518941
1210.518054
1210.518653
1210.518727
1210.519318
1210.519128
1210.518866
1210.519371
1210.519452
1210.518953
1210.518071
1210.518628
1210.51874
1210.519321
1210.519142
1210.518857
1210.519383
1210.519451
1210.518952
1210.518085
1210.518631
1210.518742
1210.519308
1210.519159
1210.518875
1210.519391
1210.519428
1210.51897
1210.518088
1210.518644
1210.518751
1210.519322
1210.519151
1210.518868
1210.51939
1210.519429
1210.518962
1210.518067
1210.518642
1210.51875
1210.519335
1210.519129
1210.518866
1210.519402
1210.519418
1210.518975
1210.518068
1210.518672
1210.518746
1210.51933
1210.519118
1210.518873
1210.519399
1210.519407
1210.518995
1210.51807
1210.518676
1210.518742
1210.51934
1210.519126
1210.518874
1210.519397
1210.519431
1210.518982
1210.518056
1210.518681
1210.518748
1210.51932
1210.519121
1210.518854
1210.519412
1210.519445
1210.519
1210.518051
1210.518701
1210.518753
1210.519325
1210.519109
1210.51886
1210.519423
1210.519434
1210.519021
1210.518057
1210.518697
1210.518768
1210.51936
1210.519145
1210.518882
1210.519407
1210.519444
1210.519004
1210.518092
1210.518742
1210.51882
1210.519447
1210.5192
1210.518918
1210.519426
1210.519442
1210.519045
1210.518141
1210.518801
1210.518925
1210.519627
1210.519315
1210.518976
1210.519462
1210.519454
1210.519079
1210.518206
1210.518931
1210.519184
1210.519962
1210.519583
1210.519103
1210.519538
1210.519482
1210.519234
1210.518701
1210.51952
1210.517682
1210.51842
1210.518967
1210.518907
1210.518704
1210.51868
1210.519229
1210.518712
1210.519485
1210.51769
1210.518419
1210.518971
1210.518907
1210.518701
1210.518689
1210.519227
1210.518709
1210.519479
1210.517656
1210.518425
1210.518946
1210.518903
1210.518737
1210.518689
1210.519225
1210.518698
1210.519473
1210.517664
1210.518441
1210.518934
1210.518925
1210.518711
1210.518709
1210.519199
1210.5187
1210.519477
1210.517656
1210.518423
1210.518957
1210.518928
1210.518745
1210.518705
1210.5192
1210.518692
1210.519487
1210.517644
1210.518431
1210.518945
1210.518928
1210.518739
1210.518709
1210.519199
1210.518683
1210.519491
1210.517654
1210.518426
1210.518961
1210.518943
1210.518714
1210.518695
1210.519186
1210.518676
1210.519495
1210.517642
1210.518418
1210.518969
1210.518968
1210.518706
1210.518701
1210.519191
1210.518699
1210.51949
1210.517644
1210.518405
1210.518948
1210.518984
1210.518695
1210.518701
1210.519187
1210.51867
1210.519496
1210.517643
1210.51843
1210.518926
1210.518972
1210.5187
1210.518718
1210.519185
1210.518704
1210.519483
1210.517641
1210.518439
1210.518935
1210.518985
1210.518701
1210.518712
1210.519175
1210.518696
1210.519463
1210.517665
1210.518482
1210.518944
1210.519032
1210.518707
1210.51872
1210.519189
1210.518712
1210.519483
1210.517688
1210.518546
1210.519007
1210.519054
1210.518741
1210.518728
1210.519191
1210.51877
1210.519545
1210.517795
1210.518724
1210.51914
1210.519122
1210.518765
1210.518739
)
;
    }
    inlet
    {
        type            calculated;
        value           nonuniform List<scalar> 
81
(
1210.518964
1210.518035
1210.518653
1210.518735
1210.519329
1210.519144
1210.51888
1210.519388
1210.519438
1210.518619
1210.519035
1210.520309
1210.518755
1210.519491
1210.517995
1210.520126
1210.518066
1210.519837
1210.518943
1210.517812
1210.518437
1210.519162
1210.518036
1210.51839
1210.51881
1210.519815
1210.517837
1210.519197
1210.519885
1210.518546
1210.51944
1210.519833
1210.518379
1210.519028
1210.51771
1210.51844
1210.519187
1210.518431
1210.518733
1210.519376
1210.518428
1210.519447
1210.51924
1210.519091
1210.51986
1210.519123
1210.518908
1210.519268
1210.518289
1210.519392
1210.519096
1210.51853
1210.519409
1210.519068
1210.51867
1210.519935
1210.519047
1210.519074
1210.518962
1210.519456
1210.51949
1210.518339
1210.518309
1210.518936
1210.518376
1210.519378
1210.518679
1210.519148
1210.518555
1210.518744
1210.518584
1210.519363
1210.519234
1210.518701
1210.51952
1210.517682
1210.51842
1210.518967
1210.518907
1210.518704
1210.51868
)
;
    }
    outlet
    {
        type            calculated;
        value           nonuniform 0();
    }
    procBoundary0to1
    {
        type            processor;
        value           nonuniform List<scalar> 
97
(
1210.519162
1210.518671
1210.518326
1210.519187
1210.519548
1210.520435
1210.519939
1210.519339
1210.51966
1210.519588
1210.518671
1210.518671
1210.519666
1210.51845
1210.521379
1210.520938
1210.522627
1210.520172
1210.521236
1210.518584
1210.520135
1210.519203
1210.51845
1210.51845
1210.521323
1210.522676
1210.52593
1210.530115
1210.525286
1210.521684
1210.520921
1210.518384
1210.519668
1210.521096
1210.522676
1210.522676
1210.539805
1210.561599
1210.566976
1210.538759
1210.525826
1210.519797
1210.519347
1210.519822
1210.520318
1210.526906
1210.561599
1210.561599
1210.238671
1210.561741
1210.56649
1210.533365
1210.531256
1210.522325
1210.520965
1210.519527
1210.520081
1210.523442
1210.532503
1210.561741
1210.533365
1210.533365
1210.525373
1210.521077
1210.521575
1210.519873
1210.518911
1210.520547
1210.520665
1210.523175
1210.527074
1210.523678
1210.521077
1210.521077
1210.519423
1210.51884
1210.51878
1210.519028
1210.518714
1210.51988
1210.520009
1210.520993
1210.519681
1210.519436
1210.51884
1210.51884
1210.519561
1210.518772
1210.519224
1210.518827
1210.519709
1210.518045
1210.519032
1210.519376
1210.519299
1210.51885
1210.518772
)
;
    }
}


// ************************************************************************* //
