/*--------------------------------*- C++ -*----------------------------------*\
| =========                 |                                                 |
| \\      /  F ield         | OpenFOAM: The Open Source CFD Toolbox           |
|  \\    /   O peration     | Version:  4.x                                   |
|   \\  /    A nd           | Web:      www.OpenFOAM.org                      |
|    \\/     M anipulation  |                                                 |
\*---------------------------------------------------------------------------*/
FoamFile
{
    version     2.0;
    format      ascii;
    class       volScalarField;
    location    "10000";
    object      molarConc;
}
// * * * * * * * * * * * * * * * * * * * * * * * * * * * * * * * * * * * * * //

dimensions      [0 -3 0 0 1 0 0];

internalField   nonuniform List<scalar> 
1175
(
9.963276176
9.963276965
9.963277426
9.96327678
9.963276853
9.963275834
9.963276262
9.963275563
9.963274486
9.963275219
9.963274305
9.963273375
9.963274824
9.963273758
9.963274112
9.963327055
9.963325895
9.963326017
9.963325108
9.963324327
9.963324163
9.963325307
9.963325246
9.963325163
9.963325955
9.963326341
9.963326382
9.963325321
9.963324664
9.963325021
9.963293214
9.963292574
9.963293188
9.963294577
9.96329439
9.96329369
9.963293809
9.963292173
9.963291993
9.963291789
9.963290888
9.963291733
9.96329096
9.96329164
9.963292214
9.96328874
9.963288423
9.963289128
9.963288464
9.963288306
9.963287815
9.9632879
9.963288104
9.963288373
9.963288148
9.963288193
9.96328839
9.963288399
9.96328938
9.963288711
9.963256205
9.963256659
9.963256805
9.963256615
9.963257342
9.963256558
9.963255878
9.96325613
9.963255627
9.963256865
9.963256974
9.963256337
9.963255159
9.963254197
9.963253856
9.963266334
9.963266468
9.963267171
9.963266402
9.963265503
9.963265933
9.963267149
9.963267722
9.963267349
9.963267718
9.96326869
9.963267748
9.963267546
9.963268054
9.963266868
9.963280776
9.963280776
9.963281569
9.963282007
9.963281041
9.963281455
9.963281525
9.96328118
9.963281136
9.963282279
9.963282187
9.963281603
9.963281308
9.963282034
9.963282759
9.963252966
9.963253267
9.963253881
9.963253247
9.963252769
9.963252858
9.963252211
9.963252351
9.963252498
9.963251683
9.963251202
9.963252469
9.963252259
9.963252315
9.963252052
9.9632502
9.963249466
9.963249435
9.963249489
9.96325075
9.96325071
9.963251288
9.963251929
9.963250626
9.963249847
9.963250542
9.963250191
9.96325087
9.963251326
9.963252051
9.963295048
9.96329589
9.963297196
9.963296653
9.963295046
9.963295855
9.963295284
9.963296058
9.963296173
9.963296645
9.963296374
9.963297629
9.963299083
9.963299548
9.96327229
9.963273297
9.963272921
9.963272084
9.963272125
9.963272159
9.963269228
9.963269528
9.963269502
9.963269244
9.963267461
9.963266817
9.963267047
9.963265295
9.96326529
9.963202488
9.963202418
9.96320191
9.963201835
9.96320182
9.963202961
9.963203157
9.963203502
9.963203883
9.963204909
9.96320422
9.963204083
9.963203399
9.963204143
9.963203355
9.963287635
9.963287501
9.963287303
9.963287925
9.963287276
9.963287909
9.963288811
9.96328867
9.963290103
9.963289234
9.963287796
9.963287316
9.963287411
9.963287319
9.963286377
9.963247298
9.963247249
9.963246392
9.963245356
9.963246038
9.963246727
9.963247179
9.96324799
9.96324875
9.963250598
9.963250812
9.963251037
9.96325025
9.96324993
9.96324942
9.963329223
9.963328393
9.963327963
9.963328819
9.963329825
9.963328107
9.963327067
9.963328167
9.963327639
9.963329272
9.963328486
9.963328064
9.963328447
9.963328463
9.963327759
9.963212539
9.963211297
9.963211682
9.963210711
9.96320969
9.963209019
9.963209533
9.963210971
9.96321035
9.96321012
9.963209897
9.963210341
9.963211362
9.963211512
9.963211601
9.963325342
9.963325168
9.963326143
9.96332761
9.963326265
9.963326451
9.963326176
9.963326378
9.963326613
9.963327798
9.963327749
9.963326868
9.963327015
9.963326499
9.963325636
9.963228349
9.963228468
9.963227823
9.963227566
9.963227045
9.963226716
9.963226012
9.963225542
9.963225708
9.963225262
9.963224747
9.963224297
9.963225429
9.963225943
9.96322535
9.963277345
9.963277582
9.963276848
9.963276127
9.963276296
9.963277002
9.963277001
9.96327735
9.963275951
9.96327703
9.963276624
9.963276271
9.963276948
9.963277029
9.963339249
9.963338479
9.963337781
9.963338259
9.963337542
9.963337551
9.963337765
9.963338187
9.963338411
9.963338194
9.963337648
9.963338567
9.963339053
9.963337174
9.963305049
9.963305594
9.963305553
9.963303835
9.963304041
9.963303048
9.963304552
9.963304188
9.963305273
9.963304871
9.963305121
9.963305602
9.963305726
9.963305286
9.963304426
9.963265353
9.963266667
9.963265609
9.96326666
9.963266251
9.963266737
9.963266275
9.963267527
9.963268583
9.963269262
9.963268618
9.963267586
9.963267011
9.963268226
9.963268234
9.963326973
9.96332661
9.963325079
9.963325486
9.963324601
9.963323697
9.963323834
9.963322952
9.963323091
9.963321614
9.96332354
9.963323526
9.963323339
9.963322744
9.963323492
9.963307599
9.963307846
9.963307652
9.963307392
9.963307387
9.963306029
9.963305653
9.963306299
9.963304629
9.963303605
9.963305836
9.963306465
9.963306896
9.963306092
9.96330642
9.96328461
9.963283989
9.963283979
9.963284392
9.963283922
9.963284294
9.963283228
9.96328204
9.963282607
9.96328277
9.963281971
9.963283048
9.96328362
9.96328385
9.963283947
9.963229549
9.963230537
9.963230922
9.963231682
9.963232332
9.963232043
9.96323061
9.9632326
9.963232301
9.963233179
9.963232627
9.963231068
9.963231249
9.963230964
9.963231836
9.963337871
9.96333907
9.963339242
9.96333898
9.963339159
9.963339164
9.963339498
9.963338969
9.963337767
9.963336475
9.963335364
9.963334556
9.963334091
9.963334411
9.963334059
9.963263438
9.963263834
9.963264671
9.963264042
9.963264586
9.963263628
9.96326308
9.963262381
9.963262607
9.963263458
9.963262901
9.963264618
9.963264152
9.963263671
9.963225757
9.963224407
9.963224811
9.963223061
9.963223785
9.963223502
9.96322393
9.963224432
9.963223888
9.963224607
9.963225478
9.96322542
9.963224669
9.96322549
9.963299059
9.963298513
9.963299037
9.963299587
9.963300733
9.963302818
9.963302184
9.96330223
9.963300941
9.963300036
9.96329857
9.963299322
9.963299177
9.963299086
9.963250105
9.963249509
9.963249263
9.963250333
9.963251236
9.963251305
9.9632536
9.963254131
9.963255382
9.963255113
9.963254321
9.963254534
9.963254077
9.963253621
9.963253569
9.963228586
9.963229346
9.963229054
9.963229011
9.963229605
9.963229734
9.963229481
9.963227832
9.963227163
9.963227076
9.963226655
9.963225981
9.963226013
9.96322534
9.963230934
9.963308195
9.963308535
9.963307328
9.963306176
9.963307629
9.963307562
9.96330837
9.963309474
9.963309302
9.963309687
9.963309729
9.963310673
9.963309867
9.96330991
9.963309396
9.963272696
9.963273039
9.963271394
9.963272897
9.963271525
9.963272838
9.963273466
9.963273518
9.963274263
9.963274489
9.963274234
9.963274468
9.963275119
9.963275139
9.963275274
9.963344842
9.96334516
9.963345093
9.963344822
9.963344847
9.963345167
9.963345838
9.963345994
9.963347163
9.963348074
9.963348808
9.963348671
9.9633485
9.963348967
9.963348959
9.963304894
9.963304624
9.963305135
9.963305956
9.963305692
9.96330511
9.963304363
9.963304103
9.963303958
9.963303237
9.963303458
9.963301963
9.963302164
9.963301277
9.963300741
9.963263974
9.963264729
9.963264578
9.963264357
9.96326205
9.963261165
9.963261142
9.963262449
9.96326246
9.963261415
9.963261299
9.963262077
9.963261799
9.963261398
9.963305389
9.963305206
9.963303585
9.963303776
9.963305075
9.963305065
9.963303809
9.963304397
9.963304015
9.963304152
9.963304236
9.96330474
9.963304107
9.963304767
9.963288839
9.963289012
9.963289475
9.963290163
9.963289477
9.96328923
9.963288483
9.963288908
9.963288183
9.963288352
9.963287436
9.963287506
9.963287177
9.963286518
9.963253624
9.963253214
9.963255012
9.963256238
9.963256131
9.963256487
9.963256492
9.963256451
9.963257335
9.963256689
9.963257009
9.963257774
9.963256832
9.963256968
9.963305521
9.963305339
9.963304491
9.963303394
9.963302924
9.963303761
9.963303083
9.963302489
9.963303917
9.963304932
9.9633038
9.963304452
9.963303712
9.963302984
9.987540982
9.963249729
9.963250307
9.963249689
9.96324927
9.963248331
9.963249724
9.963250739
9.963249906
9.96325055
9.963251199
9.963251299
9.96325104
9.963251479
9.963250259
9.963257454
9.963261065
9.963260009
9.963260833
9.963260181
9.96326041
9.963260869
9.963260768
9.963260917
9.963260728
9.963258048
9.963258862
9.963260367
9.963261331
9.963261424
9.963260272
9.963269238
9.963269265
9.963269673
9.963269463
9.963268698
9.96326749
9.963268327
9.963267449
9.963267899
9.963267263
9.963267943
9.963268512
9.963266596
9.963265601
9.9632654
9.963227085
9.96322696
9.963227663
9.963226654
9.963227572
9.96322713
9.963226466
9.963226591
9.963226241
9.963226858
9.963226281
9.963225302
9.963226134
9.963226115
9.96322684
9.963267441
9.963268131
9.963267891
9.963268149
9.963267078
9.963268299
9.963267637
9.963267613
9.963267914
9.963268011
9.963269241
9.963268518
9.963268123
9.963268876
9.963279258
9.963278609
9.963279417
9.963281154
9.963280081
9.963280333
9.963280218
9.963281292
9.96328183
9.963283661
9.963284169
9.963284328
9.963282454
9.963281842
9.963259535
9.963258369
9.963257261
9.96325549
9.963257678
9.963258092
9.963258023
9.963257555
9.963258348
9.963259819
9.963258431
9.963257588
9.963258192
9.963256887
9.963313114
9.963313189
9.963312896
9.963314138
9.963313803
9.963313128
9.96331289
9.963312635
9.963311183
9.963311311
9.963311267
9.963312451
9.963312032
9.963311545
9.963252708
9.963251944
9.963252618
9.963251806
9.963252013
9.963251333
9.963251412
9.963251378
9.963250798
9.963249885
9.963250226
9.963249176
9.963248157
9.963248927
9.963268926
9.963269252
9.963270393
9.96326991
9.963269253
9.963268681
9.96326866
9.963268304
9.963268262
9.96326718
9.963266461
9.963265516
9.963264587
9.963264821
9.963299917
9.963297821
9.963297042
9.963297143
9.963298035
9.963296068
9.963295128
9.963295146
9.963296583
9.963296912
9.963296708
9.963297866
9.963298742
9.963299767
9.963299709
9.963251791
9.963252637
9.963253161
9.963252712
9.963250704
9.963252431
9.963252535
9.963252965
9.963253112
9.963251739
9.96325254
9.963251905
9.963251943
9.963252304
9.963252308
9.963270466
9.963270523
9.963271495
9.963271348
9.963272137
9.96327277
9.963272898
9.963271739
9.96327095
9.963271838
9.963271479
9.963270703
9.963270988
9.963270742
9.963271116
9.96329227
9.963291734
9.963292223
9.963292391
9.963291735
9.963291498
9.963292508
9.963292689
9.963292832
9.963292524
9.963294392
9.963294554
9.963293809
9.9632936
9.963222993
9.963222543
9.963223672
9.963224466
9.96322416
9.963224576
9.963224856
9.963224532
9.963223739
9.963221866
9.963221624
9.963221075
9.963222318
9.96322083
9.963271603
9.963271143
9.963270977
9.963271432
9.96327048
9.963271665
9.963271969
9.963272054
9.963272045
9.963270756
9.96327114
9.963270476
9.963271313
9.963271035
9.963270163
9.96327093
9.963271114
9.96327158
9.963272952
9.963273248
9.963272121
9.963271167
9.963271747
9.963271753
9.963273163
9.963273132
9.963273628
9.963272903
9.963276277
9.963277258
9.963277667
9.963278107
9.963276853
9.963277463
9.963278202
9.963278973
9.96327749
9.963276817
9.963278253
9.963278491
9.96327902
9.96327801
9.963249232
9.963249761
9.963248623
9.963249161
9.963248304
9.963248251
9.963246566
9.96324692
9.963246322
9.963244891
9.963244024
9.963244409
9.963245561
9.963245614
9.963247352
9.963246807
9.963246564
9.96324606
9.963245952
9.963247425
9.963248216
9.963249292
9.963249944
9.963249717
9.963249591
9.963249168
9.963249798
9.963250888
9.963310423
9.963310274
9.963309764
9.963311425
9.963311137
9.963312466
9.963311719
9.963312578
9.963311994
9.963312296
9.963310902
9.963311347
9.963310968
9.963310796
9.963310112
9.963312042
9.963311697
9.963311839
9.963312559
9.963311916
9.963311186
9.963311972
9.963311937
9.963312183
9.963310992
9.96331206
9.963312528
9.963312346
9.963312966
9.963312818
9.963277721
9.963276779
9.963277162
9.963276467
9.963276651
9.963276493
9.96327624
9.963277129
9.96327693
9.963278193
9.96327813
9.963278094
9.963278185
9.963278449
9.963308362
9.963306968
9.963305816
9.96330574
9.963304811
9.963305962
9.963306103
9.963305874
9.963304956
9.963304852
9.963304839
9.963304346
9.963304085
9.963304175
9.96325351
9.96325323
9.963252622
9.963253039
9.963253839
9.963253819
9.963253708
9.963254553
9.963254822
9.963255781
9.963256282
9.963256369
9.963257242
9.963257945
9.963291793
9.96329042
9.963290723
9.963290761
9.963290362
9.963289549
9.963289221
9.963289774
9.963288381
9.963287334
9.963287754
9.963287599
9.963288192
9.963286915
9.963266093
9.963267074
9.963267571
9.963267679
9.963267542
9.963268189
9.963267319
9.963266896
9.963267134
9.963267517
9.963267568
9.963267555
9.963267286
9.963267435
9.963298542
9.963298088
9.96329936
9.963300114
9.963301307
9.96330278
9.963302392
9.963302728
9.963302182
9.963303598
9.963303548
9.963302278
9.963303303
9.963302896
9.963288206
9.96328817
9.963288717
9.963289117
9.963288423
9.963288082
9.963286771
9.963286309
9.963286588
9.96328744
9.96328715
9.96328638
9.963286277
9.963284737
9.963296983
9.963297742
9.96329803
9.963298497
9.96329843
9.963297152
9.963296101
9.963297049
9.963295001
9.963295501
9.963296931
9.96329722
9.963296348
9.963297204
9.963254328
9.963254931
9.963254983
9.963254808
9.963256698
9.963256516
9.963256815
9.963257389
9.963256801
9.963256452
9.963256447
9.963256365
9.963257459
9.96325685
9.963257283
9.963261393
9.963261636
9.963261743
9.963261857
9.963263274
9.96326326
9.9632633
9.963264006
9.96326374
9.963264012
9.963264197
9.963264929
9.963264702
9.963265728
9.963290575
9.963289948
9.96329011
9.963290759
9.963290615
9.963291067
9.963291544
9.963291959
9.963290704
9.963292326
9.963290602
9.963291358
9.963291364
9.963290205
9.963245721
9.963247634
9.963247961
9.963248299
9.963248097
9.963247515
9.963247333
9.963247092
9.963247392
9.963247115
9.963248038
9.963249798
9.963250352
9.96325088
9.963346386
9.96334593
9.963347814
9.963347393
9.963347806
9.963348471
9.963347898
9.963348563
9.963348522
9.963348664
9.963349134
9.963348832
9.963350389
9.963351292
9.96330599
9.963306023
9.96330567
9.963304833
9.96330579
9.963305336
9.963305614
9.963306064
9.963306849
9.963305586
9.963305495
9.963304389
9.963304513
9.963303664
9.96327602
9.963275797
9.96327713
9.963277801
9.96327657
9.963277187
9.963276341
9.963275883
9.963277115
9.96327841
9.963278229
9.963278761
9.963278133
9.963277625
9.963279278
9.963279315
9.963279509
9.963278332
9.963278143
9.963278139
9.963277305
9.963275943
9.963275123
9.963275836
9.96327536
9.96327338
9.963273845
9.963274013
9.963290391
9.963290595
9.963288598
9.963290018
9.963288184
9.963288508
9.963289841
9.963290307
9.963290949
9.963290698
9.96329075
9.963290798
9.9632898
9.963290479
9.963291747
9.963291252
9.963291206
9.963290158
9.963290334
9.963290158
9.963290897
9.963290593
9.963290579
9.963289702
9.963290105
9.963289876
9.963289961
9.9632905
)
;

boundaryField
{
    top
    {
        type            calculated;
        value           nonuniform List<scalar> 
134
(
9.9632502
9.963228349
9.963337871
9.963304894
9.963227085
9.963270466
9.963312042
9.963254328
9.963291747
9.963249466
9.963228468
9.96333907
9.963304624
9.96322696
9.963270523
9.963311697
9.963254931
9.963291252
9.963249435
9.963227823
9.963339242
9.963305135
9.963227663
9.963271495
9.963311839
9.963254983
9.963291206
9.963249489
9.963227566
9.96333898
9.963305956
9.963226654
9.963271348
9.963312559
9.963254808
9.963290158
9.96325075
9.963227045
9.963339159
9.963305692
9.963227572
9.963272137
9.963311916
9.963256698
9.963290334
9.96325071
9.963226716
9.963339164
9.96330511
9.96322713
9.96327277
9.963311186
9.963256516
9.963290158
9.963251288
9.963226012
9.963339498
9.963304363
9.963226466
9.963272898
9.963311972
9.963256815
9.963290897
9.963251929
9.963225542
9.963338969
9.963304103
9.963226591
9.963271739
9.963311937
9.963257389
9.963290593
9.963250626
9.963225708
9.963337767
9.963303958
9.963226241
9.96327095
9.963312183
9.963256801
9.963290579
9.963249847
9.963225262
9.963336475
9.963303237
9.963226858
9.963271838
9.963310992
9.963256452
9.963289702
9.963250542
9.963224747
9.963335364
9.963303458
9.963226281
9.963271479
9.96331206
9.963256447
9.963290105
9.963250191
9.963224297
9.963334556
9.963301963
9.963225302
9.963270703
9.963312528
9.963256365
9.963289876
9.96325087
9.963225429
9.963334091
9.963302164
9.963226134
9.963270988
9.963312346
9.963257459
9.963289961
9.963251326
9.963225943
9.963334411
9.963301277
9.963226115
9.963270742
9.963312966
9.96325685
9.9632905
9.963252051
9.96322535
9.963334059
9.963300741
9.96322684
9.963271116
9.963312818
9.963257283
)
;
    }
    bottom
    {
        type            calculated;
        value           nonuniform List<scalar> 
127
(
9.963276176
9.963295048
9.963277345
9.963263438
9.963263974
9.963267441
9.96329227
9.963277721
9.963261393
9.963276965
9.96329589
9.963277582
9.963263834
9.963264729
9.963268131
9.963291734
9.963276779
9.963261636
9.963277426
9.963297196
9.963276848
9.963264671
9.963264578
9.963267891
9.963292223
9.963277162
9.963261743
9.96327678
9.963296653
9.963276127
9.963264042
9.963264357
9.963268149
9.963292391
9.963276467
9.963261857
9.963276853
9.963295046
9.963276296
9.963264586
9.96326205
9.963267078
9.963291735
9.963276651
9.963263274
9.963275834
9.963295855
9.963277002
9.963263628
9.963261165
9.963268299
9.963291498
9.963276493
9.96326326
9.963276262
9.963295284
9.963277001
9.96326308
9.963261142
9.963267637
9.963292508
9.96327624
9.9632633
9.963275563
9.963296058
9.96327735
9.963262381
9.963262449
9.963267613
9.963292689
9.963277129
9.963264006
9.963274486
9.963296173
9.963275951
9.963262607
9.96326246
9.963267914
9.963292832
9.96327693
9.96326374
9.963275219
9.963296645
9.96327703
9.963263458
9.963261415
9.963268011
9.963292524
9.963278193
9.963264012
9.963274305
9.963296374
9.963276624
9.963262901
9.963261299
9.963269241
9.963294392
9.96327813
9.963264197
9.963273375
9.963297629
9.963276271
9.963264618
9.963262077
9.963268518
9.963294554
9.963278094
9.963264929
9.963274824
9.963299083
9.963276948
9.963264152
9.963261799
9.963268123
9.963293809
9.963278185
9.963264702
9.963273758
9.963299548
9.963277029
9.963263671
9.963261398
9.963268876
9.9632936
9.963278449
9.963265728
9.963274112
)
;
    }
    side-walls
    {
        type            calculated;
        value           nonuniform List<scalar> 
261
(
9.963276176
9.963327055
9.963293214
9.96328874
9.963256205
9.963266334
9.963280776
9.963252966
9.9632502
9.963276965
9.963325895
9.963292574
9.963288423
9.963256659
9.963266468
9.963280776
9.963253267
9.963249466
9.963277426
9.963326017
9.963293188
9.963289128
9.963256805
9.963267171
9.963281569
9.963253881
9.963249435
9.96327678
9.963325108
9.963294577
9.963288464
9.963256615
9.963266402
9.963282007
9.963253247
9.963249489
9.963276853
9.963324327
9.96329439
9.963288306
9.963257342
9.963265503
9.963281041
9.963252769
9.96325075
9.963275834
9.963324163
9.96329369
9.963287815
9.963256558
9.963265933
9.963281455
9.963252858
9.96325071
9.963276262
9.963325307
9.963293809
9.9632879
9.963255878
9.963267149
9.963281525
9.963252211
9.963251288
9.963275563
9.963325246
9.963292173
9.963288104
9.96325613
9.963267722
9.96328118
9.963252351
9.963251929
9.963274486
9.963325163
9.963291993
9.963288373
9.963255627
9.963267349
9.963281136
9.963252498
9.963250626
9.963275219
9.963325955
9.963291789
9.963288148
9.963256865
9.963267718
9.963282279
9.963251683
9.963249847
9.963274305
9.963326341
9.963290888
9.963288193
9.963256974
9.96326869
9.963282187
9.963251202
9.963250542
9.963273375
9.963326382
9.963291733
9.96328839
9.963256337
9.963267748
9.963281603
9.963252469
9.963250191
9.963274824
9.963325321
9.96329096
9.963288399
9.963255159
9.963267546
9.963281308
9.963252259
9.96325087
9.963273758
9.963324664
9.96329164
9.96328938
9.963254197
9.963268054
9.963282034
9.963252315
9.963251326
9.963274112
9.963325021
9.963292214
9.963288711
9.963253856
9.963266868
9.963282759
9.963252052
9.963252051
9.963261393
9.963290575
9.963245721
9.963346386
9.96330599
9.96327602
9.963279278
9.963290391
9.963291747
9.963261636
9.963289948
9.963247634
9.96334593
9.963306023
9.963275797
9.963279315
9.963290595
9.963291252
9.963261743
9.96329011
9.963247961
9.963347814
9.96330567
9.96327713
9.963279509
9.963288598
9.963291206
9.963261857
9.963290759
9.963248299
9.963347393
9.963304833
9.963277801
9.963278332
9.963290018
9.963290158
9.963263274
9.963290615
9.963248097
9.963347806
9.96330579
9.96327657
9.963278143
9.963288184
9.963290334
9.96326326
9.963291067
9.963247515
9.963348471
9.963305336
9.963277187
9.963278139
9.963288508
9.963290158
9.9632633
9.963291544
9.963247333
9.963347898
9.963305614
9.963276341
9.963277305
9.963289841
9.963290897
9.963264006
9.963291959
9.963247092
9.963348563
9.963306064
9.963275883
9.963275943
9.963290307
9.963290593
9.96326374
9.963290704
9.963247392
9.963348522
9.963306849
9.963277115
9.963275123
9.963290949
9.963290579
9.963264012
9.963292326
9.963247115
9.963348664
9.963305586
9.96327841
9.963275836
9.963290698
9.963289702
9.963264197
9.963290602
9.963248038
9.963349134
9.963305495
9.963278229
9.96327536
9.96329075
9.963290105
9.963264929
9.963291358
9.963249798
9.963348832
9.963304389
9.963278761
9.96327338
9.963290798
9.963289876
9.963264702
9.963291364
9.963250352
9.963350389
9.963304513
9.963278133
9.963273845
9.9632898
9.963289961
9.963265728
9.963290205
9.96325088
9.963351292
9.963303664
9.963277625
9.963274013
9.963290479
9.9632905
)
;
    }
    inlet
    {
        type            calculated;
        value           nonuniform List<scalar> 
81
(
9.963276176
9.963327055
9.963293214
9.96328874
9.963256205
9.963266334
9.963280776
9.963252966
9.9632502
9.963295048
9.96327229
9.963202488
9.963287635
9.963247298
9.963329223
9.963212539
9.963325342
9.963228349
9.963277345
9.963339249
9.963305049
9.963265353
9.963326973
9.963307599
9.96328461
9.963229549
9.963337871
9.963263438
9.963225757
9.963299059
9.963250105
9.963228586
9.963308195
9.963272696
9.963344842
9.963304894
9.963263974
9.963305389
9.963288839
9.963253624
9.963305521
9.963249729
9.963261065
9.963269238
9.963227085
9.963267441
9.963279258
9.963259535
9.963313114
9.963252708
9.963268926
9.963299917
9.963251791
9.963270466
9.96329227
9.963222993
9.963271603
9.963270163
9.963276277
9.963249232
9.963247352
9.963310423
9.963312042
9.963277721
9.963308362
9.96325351
9.963291793
9.963266093
9.963298542
9.963288206
9.963296983
9.963254328
9.963261393
9.963290575
9.963245721
9.963346386
9.96330599
9.96327602
9.963279278
9.963290391
9.963291747
)
;
    }
    outlet
    {
        type            calculated;
        value           nonuniform 0();
    }
    procBoundary0to1
    {
        type            processor;
        value           nonuniform List<scalar> 
97
(
9.963273519
9.963299534
9.963325069
9.963290714
9.963289675
9.963254547
9.963268288
9.963282389
9.963252028
9.963250218
9.963299534
9.963299534
9.963264743
9.963336989
9.963203805
9.963286521
9.963249338
9.963328471
9.963211614
9.963324
9.963226008
9.96327729
9.963336989
9.963336989
9.963304189
9.963299655
9.963268729
9.963324127
9.963303962
9.9632844
9.963228867
9.963334666
9.963262197
9.963226129
9.963299655
9.963299655
9.963253599
9.963262833
9.963229954
9.963310852
9.963274413
9.963348991
9.963300689
9.963261541
9.963304428
9.963286252
9.963262833
9.963262833
9.987531584
9.963255047
9.963256549
9.963264407
9.963261614
9.963265897
9.963225512
9.963269916
9.963281726
9.963257695
9.963311583
9.963255047
9.963264407
9.963264407
9.963299223
9.963249648
9.963251612
9.963271864
9.963293311
9.963222134
9.963272188
9.963272313
9.963277068
9.963244729
9.963249648
9.963249648
9.963310954
9.963297361
9.963313025
9.963280012
9.963304242
9.963258643
9.963285704
9.96326745
9.963303668
9.96328295
9.963297361
9.963297361
9.96325743
9.963290941
9.963266191
9.963291006
9.963249589
9.963351072
9.963304792
9.963278157
9.963272012
9.963289743
9.963290941
)
;
    }
}


// ************************************************************************* //
