/*--------------------------------*- C++ -*----------------------------------*\
| =========                 |                                                 |
| \\      /  F ield         | OpenFOAM: The Open Source CFD Toolbox           |
|  \\    /   O peration     | Version:  4.x                                   |
|   \\  /    A nd           | Web:      www.OpenFOAM.org                      |
|    \\/     M anipulation  |                                                 |
\*---------------------------------------------------------------------------*/
FoamFile
{
    version     2.0;
    format      ascii;
    class       volScalarField;
    location    "10000";
    object      N2;
}
// * * * * * * * * * * * * * * * * * * * * * * * * * * * * * * * * * * * * * //

dimensions      [0 0 0 0 0 0 0];

internalField   nonuniform List<scalar> 
1175
(
0.6215293958
0.6215293956
0.6215293953
0.6215293954
0.6215293956
0.6215293961
0.6215293955
0.6215293957
0.6215293952
0.6215293934
0.621529388
0.6215293742
0.6215293405
0.6215292657
0.6215291176
0.6215293955
0.6215293954
0.6215293957
0.621529396
0.6215293958
0.621529396
0.6215293957
0.6215293954
0.6215293945
0.6215293919
0.6215293833
0.6215293608
0.6215293036
0.6215291736
0.6215289169
0.6215293957
0.6215293961
0.621529396
0.6215293956
0.621529396
0.6215293958
0.6215293957
0.6215293959
0.6215293941
0.6215293895
0.6215293752
0.6215293337
0.6215292246
0.6215289703
0.621528467
0.6215293959
0.6215293961
0.6215293961
0.6215293959
0.621529396
0.6215293963
0.6215293961
0.6215293955
0.6215293935
0.6215293866
0.6215293647
0.6215292979
0.6215291143
0.6215286716
0.6215277904
0.6215293963
0.6215293963
0.6215293962
0.6215293963
0.6215293959
0.6215293964
0.6215293963
0.6215293951
0.6215293927
0.6215293847
0.621529358
0.6215292755
0.6215290412
0.6215284579
0.6215272821
0.621529396
0.621529396
0.6215293958
0.6215293962
0.6215293962
0.6215293963
0.6215293957
0.6215293955
0.6215293931
0.6215293864
0.6215293642
0.621529298
0.6215291143
0.6215286718
0.6215277908
0.6215293961
0.621529396
0.6215293956
0.6215293957
0.6215293961
0.6215293965
0.6215293959
0.6215293953
0.6215293945
0.6215293895
0.6215293754
0.6215293338
0.6215292251
0.6215289703
0.6215284673
0.6215293959
0.6215293956
0.6215293959
0.6215293956
0.6215293958
0.6215293963
0.6215293959
0.6215293957
0.6215293948
0.6215293918
0.6215293841
0.6215293612
0.6215293036
0.6215291734
0.6215289172
0.6215293959
0.6215293963
0.6215293963
0.6215293963
0.6215293959
0.6215293963
0.621529396
0.6215293957
0.621529395
0.6215293935
0.621529388
0.6215293744
0.6215293401
0.6215292653
0.6215291174
0.6215293959
0.6215293957
0.6215293955
0.6215293954
0.6215293958
0.6215293959
0.6215293958
0.6215293954
0.6215293947
0.6215293919
0.621529384
0.6215293611
0.6215293035
0.6215291736
0.6215293958
0.6215293956
0.6215293957
0.6215293959
0.6215293959
0.6215293959
0.6215293959
0.6215293955
0.6215293937
0.6215293893
0.6215293755
0.6215293339
0.621529224
0.6215289658
0.6215284554
0.6215293963
0.6215293962
0.6215293963
0.6215293964
0.6215293961
0.6215293962
0.6215293959
0.6215293951
0.6215293924
0.621529384
0.6215293566
0.6215292722
0.6215290322
0.621528442
0.6215272623
0.6215293966
0.6215293963
0.621529396
0.621529396
0.6215293961
0.6215293961
0.6215293955
0.6215293949
0.621529391
0.6215293781
0.6215293326
0.6215291799
0.6215287175
0.6215275099
0.6215250357
0.6215293956
0.6215293959
0.6215293964
0.6215293963
0.6215293964
0.6215293962
0.6215293959
0.6215293949
0.6215293908
0.621529375
0.6215293171
0.6215291132
0.6215284587
0.6215266289
0.6215227077
0.6215293959
0.6215293961
0.6215293966
0.6215293965
0.6215293961
0.6215293963
0.6215293961
0.6215293951
0.6215293915
0.6215293784
0.6215293327
0.6215291798
0.621528718
0.6215275102
0.6215250359
0.6215293955
0.6215293957
0.6215293958
0.6215293959
0.6215293959
0.621529396
0.6215293959
0.6215293951
0.6215293929
0.6215293849
0.6215293575
0.6215292729
0.6215290325
0.621528442
0.6215272626
0.6215293959
0.6215293961
0.6215293961
0.6215293958
0.6215293958
0.621529396
0.621529396
0.6215293956
0.6215293946
0.62152939
0.6215293753
0.6215293341
0.6215292238
0.6215289655
0.6215284549
0.6215293957
0.6215293958
0.6215293957
0.6215293957
0.6215293958
0.6215293959
0.6215293961
0.6215293955
0.6215293949
0.621529392
0.6215293835
0.6215293613
0.621529304
0.6215291734
0.6215289171
0.621529396
0.6215293958
0.6215293959
0.6215293962
0.6215293961
0.6215293961
0.6215293957
0.6215293952
0.6215293938
0.6215293891
0.621529375
0.6215293337
0.6215292243
0.62152897
0.6215293957
0.6215293959
0.6215293961
0.621529396
0.6215293963
0.6215293959
0.6215293958
0.6215293948
0.6215293923
0.6215293843
0.6215293576
0.6215292724
0.6215290322
0.6215284422
0.621529396
0.6215293958
0.621529396
0.6215293962
0.6215293966
0.6215293964
0.6215293958
0.6215293948
0.6215293902
0.6215293741
0.6215293159
0.6215291177
0.6215285084
0.6215268925
0.6215235678
0.6215293964
0.6215293963
0.6215293965
0.6215293964
0.6215293962
0.6215293965
0.6215293958
0.6215293943
0.621529387
0.6215293591
0.6215292512
0.6215288489
0.6215274755
0.6215234399
0.6215145837
0.6215293961
0.6215293961
0.6215293964
0.621529396
0.6215293964
0.6215293968
0.6215293959
0.621529394
0.6215293856
0.6215293499
0.6215292027
0.6215286103
0.6215263734
0.6215189101
0.6215003285
0.6215293958
0.621529396
0.621529396
0.6215293964
0.6215293959
0.6215293961
0.6215293956
0.6215293936
0.621529387
0.6215293598
0.6215292511
0.6215288492
0.6215274759
0.6215234409
0.6215145854
0.6215293956
0.6215293958
0.6215293962
0.6215293957
0.6215293961
0.6215293958
0.6215293956
0.6215293947
0.6215293904
0.6215293744
0.6215293162
0.6215291186
0.6215285088
0.6215268927
0.621523569
0.6215293963
0.6215293958
0.6215293956
0.6215293958
0.6215293959
0.6215293959
0.6215293957
0.6215293952
0.621529393
0.6215293846
0.6215293577
0.6215292728
0.6215290329
0.6215284422
0.6215272623
0.6215293961
0.6215293957
0.6215293957
0.6215293957
0.6215293959
0.6215293959
0.6215293956
0.6215293954
0.6215293938
0.6215293894
0.6215293753
0.6215293342
0.621529225
0.6215289701
0.6215284675
0.621529396
0.6215293959
0.6215293963
0.6215293964
0.6215293964
0.6215293957
0.6215293962
0.6215293955
0.6215293937
0.6215293869
0.6215293643
0.6215292974
0.6215291138
0.6215286714
0.621529396
0.6215293963
0.621529396
0.6215293964
0.6215293964
0.6215293962
0.6215293959
0.6215293947
0.6215293916
0.6215293782
0.6215293328
0.62152918
0.6215287177
0.6215275094
0.6215293965
0.6215293965
0.6215293962
0.6215293961
0.6215293963
0.6215293957
0.6215293955
0.621529394
0.621529387
0.6215293596
0.6215292517
0.621528849
0.6215274751
0.6215234388
0.6215293965
0.6215293966
0.6215293968
0.6215293963
0.6215293961
0.6215293961
0.6215293956
0.6215293929
0.6215293811
0.6215293298
0.6215291072
0.6215281694
0.6215244629
0.6215115843
0.6214786461
0.6215293964
0.6215293962
0.6215293964
0.6215293967
0.6215293962
0.6215293958
0.6215293954
0.6215293923
0.6215293772
0.6215293071
0.6215289772
0.6215274113
0.6215201154
0.6214882862
0.6213777892
0.6215293958
0.6215293962
0.6215293963
0.6215293965
0.6215293965
0.6215293963
0.6215293957
0.6215293929
0.6215293811
0.6215293301
0.6215291073
0.6215281695
0.6215244632
0.6215115869
0.6214786557
0.621529396
0.6215293961
0.6215293961
0.6215293962
0.6215293964
0.6215293967
0.6215293957
0.6215293944
0.6215293869
0.6215293594
0.6215292518
0.6215288494
0.6215274755
0.6215234406
0.6215145843
0.6215293961
0.6215293957
0.6215293959
0.621529396
0.6215293962
0.6215293961
0.6215293961
0.6215293952
0.6215293916
0.6215293786
0.6215293326
0.6215291804
0.6215287183
0.6215275103
0.6215250358
0.6215293961
0.6215293961
0.6215293959
0.6215293961
0.6215293962
0.6215293958
0.6215293957
0.6215293951
0.6215293933
0.6215293867
0.6215293643
0.6215292981
0.6215291144
0.6215286721
0.6215277912
0.621529396
0.6215293957
0.621529396
0.6215293958
0.6215293962
0.6215293965
0.621529396
0.6215293953
0.6215293929
0.6215293852
0.6215293588
0.6215292763
0.6215290415
0.6215284578
0.6215293962
0.6215293963
0.6215293968
0.6215293962
0.6215293965
0.6215293965
0.6215293961
0.621529395
0.6215293907
0.621529375
0.6215293166
0.6215291135
0.6215284588
0.6215266282
0.6215293964
0.6215293966
0.6215293961
0.6215293964
0.6215293961
0.621529396
0.6215293959
0.6215293936
0.6215293853
0.6215293503
0.6215292027
0.6215286106
0.621526373
0.6215189069
0.6215293964
0.6215293969
0.6215293968
0.6215293959
0.6215293959
0.6215293959
0.6215293955
0.6215293923
0.6215293772
0.6215293074
0.6215289773
0.621527411
0.6215201138
0.6214882757
0.6215293961
0.621529396
0.6215293963
0.6215293964
0.6215293967
0.6215293959
0.6215293951
0.6215293913
0.6215293715
0.6215292712
0.6215287364
0.6215257071
0.62150738
0.6213881062
0.6205492312
0.6215293962
0.6215293961
0.6215293962
0.6215293961
0.6215293961
0.6215293958
0.6215293951
0.6215293922
0.6215293773
0.6215293078
0.6215289776
0.621527411
0.6215201143
0.6214882843
0.6213777874
0.6215293961
0.6215293965
0.6215293964
0.6215293967
0.6215293965
0.6215293962
0.6215293957
0.6215293934
0.621529385
0.6215293502
0.6215292029
0.6215286109
0.6215263729
0.6215189094
0.6215003278
0.6215293969
0.6215293967
0.6215293967
0.6215293961
0.6215293963
0.6215293961
0.6215293959
0.6215293948
0.6215293908
0.6215293751
0.6215293167
0.6215291134
0.6215284591
0.6215266291
0.6215227077
0.6215293963
0.621529396
0.6215293963
0.621529396
0.6215293961
0.6215293961
0.621529396
0.6215293952
0.6215293931
0.6215293853
0.6215293587
0.6215292762
0.6215290415
0.6215284582
0.6215272824
0.6215293966
0.6215293966
0.6215293966
0.6215293964
0.6215293964
0.6215293967
0.6215293964
0.6215293954
0.6215293936
0.6215293869
0.6215293647
0.6215292977
0.6215291139
0.6215286716
0.6215293967
0.6215293966
0.6215293968
0.6215293962
0.6215293962
0.6215293964
0.6215293959
0.6215293955
0.6215293915
0.6215293786
0.6215293325
0.6215291801
0.6215287182
0.6215275098
0.6215293965
0.6215293968
0.621529397
0.6215293969
0.6215293966
0.621529396
0.6215293956
0.6215293939
0.6215293872
0.6215293597
0.6215292517
0.6215288491
0.6215274751
0.6215234387
0.6215293966
0.6215293966
0.6215293968
0.6215293965
0.6215293957
0.6215293958
0.6215293956
0.6215293931
0.6215293811
0.6215293302
0.6215291075
0.6215281693
0.6215244619
0.6215115809
0.6215293966
0.6215293961
0.621529396
0.6215293961
0.6215293963
0.6215293963
0.6215293955
0.6215293924
0.6215293775
0.6215293079
0.6215289774
0.6215274112
0.6215201139
0.621488274
0.6215293962
0.621529396
0.6215293959
0.6215293959
0.6215293963
0.6215293961
0.6215293955
0.6215293931
0.6215293814
0.6215293301
0.6215291076
0.6215281698
0.6215244626
0.6215115821
0.6215293959
0.6215293965
0.6215293963
0.6215293965
0.6215293961
0.6215293964
0.621529396
0.6215293944
0.6215293874
0.6215293599
0.621529252
0.6215288496
0.6215274752
0.6215234395
0.6215145819
0.6215293966
0.6215293966
0.6215293962
0.6215293961
0.6215293966
0.6215293962
0.6215293961
0.6215293958
0.6215293917
0.6215293791
0.6215293331
0.621529181
0.6215287185
0.6215275101
0.6215250357
0.6215293963
0.6215293966
0.6215293963
0.6215293961
0.6215293964
0.6215293964
0.621529396
0.6215293955
0.6215293936
0.6215293865
0.6215293647
0.6215292984
0.6215291143
0.6215286719
0.6215277906
0.6215293968
0.6215293971
0.6215293966
0.6215293967
0.6215293969
0.6215293967
0.6215293963
0.6215293956
0.6215293946
0.6215293899
0.6215293751
0.6215293332
0.6215292249
0.6215289704
0.6215293965
0.6215293963
0.6215293964
0.6215293967
0.6215293966
0.6215293963
0.6215293963
0.6215293954
0.6215293931
0.6215293851
0.6215293578
0.6215292726
0.6215290327
0.6215284426
0.6215293964
0.6215293972
0.621529397
0.6215293964
0.6215293961
0.6215293964
0.621529396
0.6215293946
0.6215293904
0.6215293747
0.6215293166
0.6215291189
0.6215285089
0.6215268925
0.621529397
0.6215293969
0.6215293965
0.6215293965
0.6215293962
0.6215293963
0.6215293958
0.621529394
0.6215293876
0.6215293603
0.6215292521
0.6215288492
0.621527475
0.6215234389
0.6215293964
0.6215293963
0.6215293964
0.6215293961
0.6215293964
0.6215293961
0.6215293956
0.6215293935
0.6215293858
0.6215293501
0.6215292029
0.6215286107
0.6215263727
0.6215189063
0.6215293962
0.6215293966
0.6215293964
0.6215293965
0.6215293967
0.6215293965
0.6215293957
0.6215293942
0.6215293873
0.6215293601
0.621529252
0.6215288492
0.6215274753
0.6215234388
0.6215293962
0.6215293966
0.6215293963
0.6215293965
0.6215293966
0.621529396
0.6215293959
0.6215293952
0.6215293907
0.6215293745
0.6215293169
0.6215291189
0.6215285088
0.6215268922
0.6215293963
0.6215293965
0.6215293967
0.6215293965
0.6215293967
0.6215293964
0.6215293966
0.621529396
0.6215293935
0.6215293849
0.621529358
0.6215292729
0.6215290329
0.6215284425
0.6215272625
0.6215293962
0.6215293965
0.6215293966
0.6215293964
0.6215293966
0.6215293969
0.6215293967
0.6215293958
0.6215293944
0.6215293903
0.6215293759
0.621529334
0.621529225
0.6215289705
0.6215284672
0.6215293969
0.6215293967
0.6215293971
0.6215293971
0.6215293969
0.6215293968
0.6215293965
0.6215293966
0.6215293953
0.621529392
0.6215293843
0.6215293615
0.6215293043
0.6215291735
0.6215293959
0.6215293966
0.6215293964
0.6215293964
0.6215293967
0.6215293968
0.6215293965
0.6215293955
0.621529394
0.6215293904
0.621529376
0.6215293342
0.6215292242
0.6215289662
0.621529396
0.6215293966
0.6215293966
0.6215293966
0.6215293968
0.6215293968
0.6215293965
0.6215293959
0.6215293934
0.6215293854
0.6215293583
0.6215292734
0.6215290327
0.6215284422
0.6215293963
0.6215293969
0.6215293965
0.6215293967
0.6215293963
0.6215293963
0.6215293963
0.6215293953
0.6215293917
0.6215293788
0.6215293333
0.6215291809
0.6215287183
0.6215275095
0.6215293967
0.6215293968
0.6215293966
0.6215293967
0.6215293963
0.6215293962
0.6215293965
0.6215293953
0.6215293911
0.6215293751
0.6215293169
0.6215291136
0.6215284586
0.6215266286
0.621529397
0.6215293969
0.6215293966
0.6215293965
0.6215293963
0.6215293959
0.6215293959
0.6215293948
0.6215293916
0.6215293786
0.6215293328
0.6215291806
0.6215287185
0.62152751
0.6215293962
0.6215293962
0.6215293966
0.6215293965
0.6215293963
0.6215293964
0.6215293964
0.6215293959
0.6215293932
0.6215293854
0.6215293578
0.6215292733
0.6215290325
0.6215284427
0.621529397
0.6215293963
0.6215293963
0.6215293963
0.6215293969
0.6215293968
0.6215293968
0.6215293961
0.6215293952
0.6215293904
0.6215293762
0.6215293345
0.6215292246
0.6215289661
0.6215293963
0.6215293964
0.6215293961
0.6215293966
0.6215293964
0.6215293966
0.6215293965
0.6215293962
0.6215293951
0.6215293924
0.6215293842
0.6215293615
0.6215293041
0.6215291739
0.6215289173
0.6215293968
0.6215293969
0.621529397
0.6215293968
0.6215293965
0.6215293966
0.6215293967
0.6215293966
0.6215293957
0.6215293939
0.6215293884
0.6215293748
0.6215293407
0.6215292658
0.621529397
0.621529397
0.6215293968
0.6215293967
0.6215293966
0.6215293966
0.6215293965
0.6215293958
0.6215293957
0.6215293927
0.6215293844
0.6215293617
0.6215293041
0.6215291739
0.6215293968
0.6215293968
0.6215293968
0.6215293967
0.6215293968
0.6215293969
0.6215293965
0.6215293963
0.6215293948
0.6215293904
0.6215293757
0.6215293344
0.6215292245
0.6215289703
0.6215293966
0.6215293968
0.6215293964
0.6215293965
0.6215293964
0.6215293966
0.6215293967
0.6215293958
0.621529394
0.6215293873
0.6215293652
0.6215292988
0.6215291143
0.621528671
0.6215293968
0.6215293965
0.6215293965
0.6215293962
0.6215293962
0.6215293966
0.6215293963
0.6215293955
0.621529393
0.6215293854
0.6215293588
0.6215292765
0.6215290413
0.6215284576
0.6215293965
0.6215293969
0.6215293966
0.6215293965
0.6215293965
0.6215293959
0.6215293963
0.6215293958
0.6215293937
0.6215293864
0.6215293651
0.6215292983
0.6215291145
0.6215286718
0.621529396
0.6215293961
0.6215293962
0.6215293963
0.6215293964
0.6215293959
0.6215293963
0.621529396
0.6215293949
0.6215293899
0.6215293753
0.6215293342
0.6215292248
0.6215289707
0.6215293965
0.6215293966
0.6215293969
0.6215293964
0.6215293969
0.6215293964
0.6215293963
0.6215293958
0.6215293953
0.6215293925
0.6215293844
0.6215293618
0.6215293041
0.621529174
0.6215293963
0.6215293962
0.6215293967
0.6215293965
0.6215293966
0.6215293967
0.6215293963
0.6215293961
0.6215293955
0.6215293937
0.6215293888
0.6215293748
0.6215293408
0.6215292659
)
;

boundaryField
{
    top
    {
        type            zeroGradient;
    }
    bottom
    {
        type            zeroGradient;
    }
    side-walls
    {
        type            zeroGradient;
    }
    inlet
    {
        type            zeroGradient;
    }
    outlet
    {
        type            zeroGradient;
    }
    procBoundary0to1
    {
        type            processor;
        value           nonuniform List<scalar> 
97
(
0.6215288597
0.621528917
0.6215284826
0.6215276483
0.6215264233
0.621525547
0.6215264228
0.6215276482
0.6215284831
0.6215288602
0.621528917
0.621528917
0.6215276304
0.6215272621
0.6215254821
0.6215216577
0.6215180428
0.6215216577
0.6215254822
0.6215276304
0.6215284825
0.6215284671
0.6215272621
0.6215272621
0.6215191249
0.6215145812
0.6215049584
0.6214863705
0.6215049599
0.6215191252
0.6215254828
0.6215276483
0.6215277904
0.6215250352
0.6215145812
0.6215145812
0.6214563091
0.6213777523
0.6213606632
0.6214563124
0.6215049592
0.6215216581
0.6215264232
0.6215272815
0.6215227071
0.6215003236
0.6213777523
0.6213777523
0.6209484565
0.6213777532
0.6213606628
0.6214786454
0.6214863698
0.6215180426
0.6215255467
0.6215277904
0.6215250353
0.6215145824
0.6214786469
0.6213777532
0.6214786454
0.6214786454
0.621504959
0.621523568
0.6215216579
0.6215264231
0.6215284675
0.6215272628
0.6215235688
0.6215145824
0.6215003236
0.6215145829
0.621523568
0.621523568
0.6215254822
0.6215284555
0.6215276479
0.621528917
0.6215284555
0.6215272624
0.621525036
0.621522707
0.6215250358
0.6215272626
0.6215284555
0.6215284555
0.621528483
0.621529118
0.621529118
0.6215289173
0.6215284674
0.6215277908
0.621527282
0.621527791
0.621528468
0.6215289176
0.621529118
)
;
    }
}


// ************************************************************************* //
