/*--------------------------------*- C++ -*----------------------------------*\
| =========                 |                                                 |
| \\      /  F ield         | OpenFOAM: The Open Source CFD Toolbox           |
|  \\    /   O peration     | Version:  4.x                                   |
|   \\  /    A nd           | Web:      www.OpenFOAM.org                      |
|    \\/     M anipulation  |                                                 |
\*---------------------------------------------------------------------------*/
FoamFile
{
    version     2.0;
    format      ascii;
    class       surfaceScalarField;
    location    "10000";
    object      phi;
}
// * * * * * * * * * * * * * * * * * * * * * * * * * * * * * * * * * * * * * //

dimensions      [1 0 -1 0 0 0 0];

internalField   nonuniform List<scalar> 
3175
(
9.497829155e-06
-9.877840274e-13
-2.153387481e-13
9.49782803e-06
5.529652246e-13
6.262865929e-14
9.497831989e-06
3.456331081e-13
1.67138879e-13
9.49782998e-06
-2.018700358e-12
2.512839512e-13
9.497831616e-06
-1.484683306e-12
-3.414348826e-13
9.497831489e-06
-2.742558963e-12
-4.241923736e-13
9.497832649e-06
-3.022450896e-12
-1.992218536e-13
9.497836275e-06
-2.708890072e-12
-4.785129447e-13
9.49784103e-06
-3.442710511e-12
-4.271532309e-13
9.49784773e-06
-3.5527752e-12
-3.242368152e-12
9.49785456e-06
-4.766932719e-12
-4.180777172e-12
9.497867343e-06
-7.036833272e-12
-8.496488414e-12
9.497886774e-06
-9.358031772e-12
-9.624219404e-12
9.497903165e-06
-1.079852908e-11
-9.577827881e-12
-1.794147977e-11
9.497878482e-06
5.005425694e-13
2.316309761e-14
9.497874929e-06
-3.693057308e-13
-7.509228749e-13
9.497877753e-06
-1.027688556e-12
-6.264532544e-13
9.497877433e-06
-1.340291007e-12
-1.070430168e-12
9.497875921e-06
-3.387729182e-12
-9.064663974e-13
9.497877269e-06
-1.86493637e-12
-2.028489193e-13
9.49787885e-06
-3.321014138e-12
1.784635336e-13
9.497882842e-06
-3.225790769e-12
-1.31026453e-12
9.497888089e-06
-3.337154669e-12
-1.330540707e-12
9.497894784e-06
-6.54304385e-12
-3.525134962e-12
9.497900538e-06
-9.229506888e-12
-5.859899288e-12
9.497914835e-06
-1.409316524e-11
-8.506602647e-12
9.497932071e-06
-1.77980309e-11
-1.190647102e-11
9.497954183e-06
-1.916655875e-11
-9.351552467e-12
-3.725271669e-11
-2.880539701e-11
9.497844957e-06
1.767922225e-13
1.044187312e-13
9.497843923e-06
-4.302425783e-13
-4.06878811e-13
9.497845521e-06
1.3021565e-13
-5.441308683e-13
9.497845622e-06
1.043262397e-12
7.818871783e-13
9.49784841e-06
9.534096221e-13
7.10390692e-13
9.497845757e-06
-1.982065581e-12
-1.221104899e-12
9.497848271e-06
-1.716635016e-12
6.983211204e-13
9.497851335e-06
-2.20692675e-12
-1.750898076e-12
9.49785227e-06
-4.894271012e-12
-2.100660109e-12
9.497857649e-06
-5.637757965e-12
-3.570691821e-12
9.497860263e-06
-7.593481311e-12
-6.716522447e-12
9.497875717e-06
-1.2373882e-11
-1.516881696e-11
9.497891473e-06
-1.698600175e-11
-1.768778202e-11
9.497922821e-06
-1.885156834e-11
-2.238758166e-11
-4.693142584e-11
-6.823634298e-11
9.497840084e-06
1.455287883e-13
-4.083286807e-13
9.497840494e-06
3.705140027e-13
-7.290654677e-13
9.497841616e-06
6.7474954e-13
6.3015805e-13
9.49784075e-06
-8.01201404e-13
-7.641433974e-13
9.497838697e-06
-1.643641194e-12
-4.470153136e-13
9.497842343e-06
-4.772520489e-13
-9.524671055e-13
9.497844312e-06
-6.313519686e-14
1.514584169e-13
9.497844216e-06
-1.641950287e-12
-2.22204005e-12
9.497847065e-06
-1.780820464e-12
-2.588516682e-12
9.497853712e-06
-4.991742462e-12
-5.781319583e-12
9.497857916e-06
-7.075187528e-12
-6.443527758e-12
9.497874558e-06
-1.170642336e-11
-1.803406497e-11
9.497891468e-06
-1.674510562e-11
-1.596103607e-11
9.497925507e-06
-2.706588443e-11
-2.672436002e-11
-4.665100815e-11
-9.353575861e-11
9.49781006e-06
3.599303169e-13
-5.795777678e-13
9.497810364e-06
5.556641279e-13
-8.322048223e-13
9.497811703e-06
6.628258246e-13
-9.303612879e-13
9.497810864e-06
-1.250421461e-12
-1.281984091e-12
9.497810789e-06
3.204150131e-13
-2.874419145e-13
9.497811588e-06
5.218000705e-13
6.008170798e-13
9.497811365e-06
1.158873675e-12
-1.939693072e-13
9.497811489e-06
8.997929075e-13
-5.249238289e-12
9.49780937e-06
2.670719342e-12
-5.132921606e-12
9.497814009e-06
4.49949329e-12
-9.084056498e-12
9.497811986e-06
7.517061862e-12
-1.206049132e-11
9.497823479e-06
1.260488202e-11
-3.747308815e-11
9.497825407e-06
1.763729027e-11
-4.335756061e-11
9.497883959e-06
2.622671478e-11
-1.120481253e-10
4.469793222e-11
-2.640751119e-10
9.497819262e-06
4.048008872e-14
-4.386348596e-13
9.497820506e-06
7.423239791e-13
1.828200118e-13
9.497817847e-06
-3.804148751e-13
-6.227285985e-13
9.497820223e-06
9.237193757e-13
-1.662448884e-12
9.497820248e-06
6.85656641e-14
-1.014435861e-12
9.497821833e-06
7.124413722e-13
1.826134662e-15
9.497822266e-06
1.469036547e-12
-9.983223637e-13
9.49782565e-06
2.150404427e-12
-2.490257778e-12
9.497824717e-06
1.680750737e-12
-2.828975125e-12
9.49783211e-06
4.754365842e-12
-6.044474413e-12
9.497838126e-06
5.688646719e-12
-5.352731811e-12
9.49785492e-06
1.129540006e-11
-1.637487436e-11
9.497871065e-06
1.539148597e-11
-1.498166711e-11
9.497904405e-06
1.93144452e-11
-2.766427457e-11
4.70744391e-11
-9.18404937e-11
9.497833653e-06
-2.565547443e-13
-5.538613731e-14
9.497832749e-06
2.315134465e-14
-7.603643452e-13
9.497833001e-06
-5.528288029e-13
-1.101888101e-12
9.497833022e-06
1.761956961e-13
-1.521666426e-12
9.497835311e-06
2.010866086e-12
6.872752262e-13
9.497837273e-06
2.540297481e-12
9.250700137e-13
9.497838489e-06
1.417377777e-12
7.502550511e-14
9.497838378e-06
1.896715991e-12
-1.988008686e-12
9.497840627e-06
3.768833292e-12
-1.908757202e-12
9.497847669e-06
7.022846222e-12
-4.093180178e-12
9.497852962e-06
8.796812015e-12
-5.924483968e-12
9.497865393e-06
1.129018352e-11
-1.459255519e-11
9.497884872e-06
1.520678312e-11
-1.803504734e-11
9.497910714e-06
1.648626783e-11
-2.559616495e-11
3.650554096e-11
-6.685457465e-11
9.497806975e-06
3.68943292e-13
7.253089453e-13
9.497805619e-06
-1.14587025e-13
8.196477546e-13
9.49780773e-06
9.26244055e-14
6.948322365e-13
9.497807385e-06
-3.922893676e-13
-5.714571662e-13
9.497809439e-06
1.829505335e-14
-3.342466717e-13
9.497808149e-06
6.044777339e-14
-5.183026936e-13
9.497810082e-06
1.03914058e-12
-2.106965054e-14
9.497815065e-06
2.400065521e-12
-1.804592335e-12
9.497816427e-06
3.380525331e-12
-3.519856048e-12
9.497822697e-06
4.340068507e-12
-5.197314097e-12
9.49782982e-06
4.843185944e-12
-5.099798017e-12
9.497842023e-06
7.364383649e-12
-6.467154752e-12
9.497864566e-06
9.872221273e-12
-1.023138778e-11
9.497884065e-06
7.746782389e-12
-1.023771584e-11
1.821341682e-11
-2.686792652e-11
9.497802992e-06
8.627213802e-13
9.497803113e-06
1.710991282e-13
9.497804064e-06
7.855912448e-13
9.497806733e-06
1.33147126e-12
9.497806652e-06
2.000927524e-13
9.497808563e-06
-5.56227097e-14
9.497810542e-06
2.952138116e-13
9.49781546e-06
-8.306605563e-13
9.497817706e-06
-3.657944545e-12
9.497822431e-06
-2.894246237e-12
9.497830051e-06
-3.903122907e-12
9.497841865e-06
-6.349593531e-12
9.497862312e-06
-9.699157518e-12
9.497883254e-06
-7.926098853e-12
-1.70900119e-11
9.497848055e-06
-9.677172466e-13
-3.790431844e-13
9.49784707e-06
4.376016219e-13
2.173830827e-13
9.497849118e-06
5.268157032e-13
1.681013336e-13
9.497848534e-06
-1.908542083e-12
-1.075096875e-12
9.497849569e-06
-1.3916601e-12
-1.244006228e-13
9.4978501e-06
-2.2499567e-12
-6.903133596e-14
9.497851835e-06
-1.763047516e-12
-7.627285623e-13
9.497855821e-06
-3.202724091e-12
-1.644983003e-12
9.497858509e-06
-4.174507739e-12
-4.311382513e-12
9.497866063e-06
-5.501609593e-12
-6.008585264e-12
9.49787308e-06
-6.238228701e-12
-8.707030593e-12
9.497889157e-06
-7.073511223e-12
-1.400136628e-11
9.49790962e-06
-1.166235978e-11
-1.716747168e-11
-1.146315492e-11
-1.821377741e-11
9.497826434e-06
2.183022981e-13
-5.032924319e-13
9.497824094e-06
2.338635587e-13
-2.336646644e-14
9.497824721e-06
-3.963800428e-13
3.309158351e-13
9.497826586e-06
-4.259210048e-13
2.741221483e-13
9.497826437e-06
-2.012719726e-12
-4.237866148e-13
9.497826279e-06
-1.162676817e-12
1.065790977e-13
9.497824041e-06
-2.859798571e-12
1.908872743e-13
9.497829538e-06
-2.954786955e-12
-1.737188963e-12
9.49783175e-06
-3.830722582e-12
-2.742259757e-12
9.497836317e-06
-6.96320365e-12
-6.874636734e-12
9.497843593e-06
-9.333154958e-12
-1.019998022e-11
9.497857303e-06
-1.685358179e-11
-1.906500427e-11
9.497877967e-06
-2.02094359e-11
-2.156459632e-11
9.497901745e-06
-2.277148994e-11
-2.610877649e-11
-5.953125395e-11
9.497759945e-06
-3.433328281e-13
-8.029783365e-13
9.497756795e-06
-1.01676728e-12
6.594289123e-14
9.497759242e-06
3.921877152e-13
5.686473751e-13
9.497757862e-06
5.377299372e-14
-1.001809684e-14
9.49775991e-06
5.763723149e-13
8.742245654e-14
9.497760764e-06
-1.589986961e-12
-1.067152415e-12
9.497760827e-06
-1.70352947e-12
-3.729227771e-13
9.497764188e-06
-2.602272863e-12
-4.076169098e-12
9.497764875e-06
-4.953389368e-12
-6.131321546e-12
9.49776778e-06
-7.783431691e-12
-1.223370479e-11
9.497771611e-06
-9.057714725e-12
-1.383279877e-11
9.497788383e-06
-1.87706376e-11
-3.071410522e-11
9.497804745e-06
-2.071696535e-11
-3.641410885e-11
9.497842441e-06
-3.273514639e-11
-6.172041196e-11
-8.620722773e-11
-1.520532807e-10
9.497839564e-06
1.275196043e-13
-8.183383472e-13
9.497840362e-06
6.562972956e-13
4.099072049e-13
9.497839561e-06
-1.19814694e-13
-3.072412763e-13
9.49783926e-06
-1.230959348e-12
-5.998947151e-13
9.497838422e-06
-6.546179713e-13
-1.525369079e-12
9.497842768e-06
9.150825934e-13
-5.986870072e-13
9.497841075e-06
-1.197011427e-12
-1.629866217e-12
9.497842905e-06
-3.548517404e-12
-5.255224842e-12
9.49784507e-06
-3.176233332e-12
-5.244778364e-12
9.497848406e-06
-6.848384665e-12
-1.199316909e-11
9.497851785e-06
-8.885696542e-12
-1.146523119e-11
9.497874298e-06
-1.947002875e-11
-3.574590966e-11
9.497888673e-06
-2.800400823e-11
-2.484053787e-11
9.497950001e-06
-5.075484796e-11
-7.11450299e-11
-9.006278829e-11
-2.16309405e-10
9.497800185e-06
6.804053099e-13
-3.353206254e-13
9.497801203e-06
6.666724527e-13
-1.567750487e-12
9.497800147e-06
2.257249702e-14
-1.62694316e-12
9.497801185e-06
-1.335062621e-12
-2.119197827e-12
9.497801401e-06
-8.674642929e-13
-1.771115706e-12
9.497800355e-06
-1.432120125e-12
-2.604940049e-12
9.497799404e-06
4.608105265e-13
-1.928457186e-12
9.497802717e-06
1.788937604e-12
-4.932526569e-12
9.497801227e-06
4.111655894e-12
-6.45528029e-12
9.49780038e-06
5.642704111e-12
-1.85102828e-11
9.497795408e-06
9.373573011e-12
-2.067021696e-11
9.497801784e-06
2.027208674e-11
-8.447369882e-11
9.497784825e-06
2.707290576e-11
-8.427304664e-11
9.497912858e-06
4.890456062e-11
-3.406330914e-10
8.904122819e-11
-7.382183444e-10
9.497878444e-06
1.770476405e-13
-3.860441445e-14
9.497879597e-06
1.86323745e-13
-1.272114839e-12
9.497877914e-06
-3.312437177e-13
-6.288389626e-13
9.497882482e-06
1.051154239e-12
-1.120370449e-13
9.497881473e-06
1.462887573e-12
-9.040298563e-13
9.49787856e-06
2.049055509e-12
-1.18492625e-12
9.497878539e-06
3.334234471e-12
-5.936690127e-13
9.497883675e-06
4.522473684e-12
-2.581761179e-12
9.497881828e-06
2.568662651e-12
-5.611769223e-12
9.497887896e-06
6.265639913e-12
-1.193713591e-11
9.497891802e-06
6.932922753e-12
-1.018794784e-11
9.497912391e-06
1.58929942e-11
-3.810598031e-11
9.497926716e-06
1.920311666e-11
-2.475111367e-11
9.497991944e-06
3.192936825e-11
-6.979659278e-11
8.62369465e-11
-2.167882535e-10
9.497767321e-06
2.141897403e-13
-1.351569539e-12
9.497765141e-06
1.842285139e-13
-7.438019799e-13
9.497766555e-06
8.88479788e-13
3.001487692e-13
9.497766077e-06
1.260813434e-12
-6.820173011e-13
9.497766882e-06
8.025712265e-13
-1.336649007e-12
9.497766743e-06
1.098281097e-12
-1.231665154e-12
9.497767815e-06
1.350793752e-12
-1.474868052e-12
9.497770167e-06
1.619756146e-12
-4.157556433e-12
9.497770987e-06
2.650884474e-12
-5.116502718e-12
9.497775623e-06
6.263151855e-12
-1.116436546e-11
9.497779767e-06
9.378050485e-12
-1.190026263e-11
9.497795092e-06
1.672197549e-11
-2.905854418e-11
9.497810837e-06
2.035314817e-11
-3.500617201e-11
9.497852057e-06
2.290451854e-11
-5.930038262e-11
6.008066408e-11
-1.514220535e-10
9.497875891e-06
4.689631653e-13
-1.898040056e-12
9.497874993e-06
8.69997361e-14
-6.540373991e-13
9.497877612e-06
5.253424876e-13
7.724457851e-13
9.497878363e-06
5.935467732e-13
7.315886494e-14
9.497877969e-06
-9.193139402e-13
-1.093516228e-12
9.49787828e-06
-1.335127991e-14
-1.206018381e-12
9.497879e-06
8.589492785e-13
-1.30995198e-12
9.497883526e-06
3.280100004e-12
-1.204855198e-12
9.497886769e-06
3.832106265e-12
-2.80321097e-12
9.497894737e-06
4.933142311e-12
-6.059926337e-12
9.497900864e-06
5.629108671e-12
-1.02533939e-11
9.497912566e-06
7.437383607e-12
-1.642666382e-11
9.497933661e-06
1.056719354e-11
-1.970508736e-11
9.497959338e-06
1.002806398e-11
-2.35509551e-11
2.812368402e-11
-6.025643446e-11
9.497782526e-06
-1.693477252e-12
9.497782297e-06
-2.585473345e-13
9.497781724e-06
-2.933501794e-13
9.497782327e-06
-8.534166347e-13
9.497784415e-06
-2.275063098e-13
9.497785345e-06
-8.616230376e-13
9.497785715e-06
-1.308571549e-12
9.497787918e-06
-1.476974673e-12
9.497791871e-06
-3.951519382e-12
9.497797532e-06
-5.630737353e-12
9.497802508e-06
-7.88638499e-12
9.497818068e-06
-1.185087304e-11
9.497839145e-06
-1.659712332e-11
9.497860656e-06
-1.714875147e-11
-3.800896527e-11
9.497831172e-06
-1.041751742e-12
1.411506459e-13
9.497829046e-06
-2.588655516e-13
3.61022288e-13
9.497829586e-06
-9.018006274e-13
-1.278209375e-12
9.497831172e-06
-1.489439949e-12
-1.778788142e-12
9.497832284e-06
-1.259799056e-12
-2.61079434e-12
9.497831443e-06
-1.426313088e-12
-1.042055959e-12
9.497832703e-06
-1.520001943e-12
-1.726381433e-12
9.497834474e-06
-3.122619282e-12
-3.000752904e-12
9.497834923e-06
-3.07958859e-12
-4.745459426e-12
9.497840154e-06
-5.994775641e-12
-6.220247467e-12
9.497846209e-06
-7.007780583e-12
-6.998461446e-12
9.497862293e-06
-1.349226068e-11
-1.25157667e-11
9.497879474e-06
-1.986787932e-11
-1.834039916e-11
-2.714017299e-11
-2.010386493e-11
9.497889771e-06
1.010577512e-13
4.34114625e-13
9.497887442e-06
-5.398961015e-13
-1.117214952e-12
9.497887539e-06
-3.678696933e-13
-3.862036791e-13
9.497888724e-06
-5.282126697e-13
-4.077728107e-13
9.497888314e-06
-2.482747171e-12
-7.428956025e-13
9.497890216e-06
-2.640530679e-12
-7.531966819e-13
9.497886574e-06
-3.048238314e-12
-1.881169307e-12
9.497891836e-06
-4.918200687e-12
-2.270852728e-12
9.497890882e-06
-6.546271364e-12
-4.207548891e-12
9.497896601e-06
-9.99570232e-12
-6.303567106e-12
9.497899888e-06
-1.273440204e-11
-8.126318811e-12
9.497917476e-06
-2.880540263e-11
-1.865522552e-11
9.497930287e-06
-3.495918524e-11
-2.086253634e-11
-5.891938112e-11
-3.172647552e-11
9.497858041e-06
-1.08273026e-13
-9.583897706e-13
9.497855621e-06
-8.718383768e-13
-5.230352954e-13
9.497856213e-06
-6.376616588e-13
6.901698814e-14
9.497854567e-06
-1.786733816e-13
5.012800028e-13
9.497856597e-06
-7.916151523e-13
6.419141482e-13
9.497857697e-06
-2.039772057e-12
8.912218277e-13
9.497854287e-06
-2.214210597e-12
-1.069057744e-12
9.497856261e-06
-4.270800347e-12
-1.429579636e-12
9.497855549e-06
-5.401303039e-12
-4.857139277e-12
9.497854643e-06
-1.027551716e-11
-1.126403593e-11
9.497851077e-06
-1.187668604e-11
-1.211945846e-11
9.497865244e-06
-3.457615318e-11
-3.602222498e-11
9.497866072e-06
-3.552782559e-11
-3.581518708e-11
9.497950002e-06
-1.025226702e-10
-1.016934567e-10
-2.630573339e-10
9.497818829e-06
8.797794792e-13
-7.319167426e-13
9.497818558e-06
-6.273265359e-13
-4.106719832e-13
9.497820106e-06
-5.805550576e-13
9.641554163e-15
9.497818247e-06
-1.834477672e-12
-6.061337681e-14
9.49781969e-06
-1.267528307e-12
1.200846042e-12
9.497820876e-06
-3.676430778e-13
9.403579951e-13
9.497819072e-06
-1.711064535e-12
-1.034529397e-12
9.497819587e-06
-3.009937693e-12
-1.591483423e-12
9.497819045e-06
-4.543262429e-12
-3.701789477e-12
9.497816342e-06
-1.027336674e-11
-1.361501103e-11
9.497817509e-06
-1.316014964e-11
-8.111511285e-12
9.497835408e-06
-4.281925723e-11
-5.03461112e-11
9.497838407e-06
-5.754307227e-11
-9.939794797e-12
9.497986009e-06
-1.541807953e-10
-1.658692154e-10
-2.820225221e-10
-4.550775217e-10
9.497875519e-06
1.129969377e-13
-6.254880947e-13
9.497876203e-06
6.757862626e-13
-2.213656735e-13
9.497875172e-06
2.992376424e-13
1.185143201e-12
9.497875201e-06
-2.774902123e-13
-1.9850798e-13
9.497875102e-06
-6.06365175e-14
-4.977370881e-13
9.497874145e-06
1.124429048e-12
-3.223590741e-13
9.49787018e-06
1.48077541e-12
-5.110396607e-13
9.49786674e-06
2.970397963e-12
-3.418605263e-12
9.497860434e-06
3.989757271e-12
-5.755525507e-12
9.497844704e-06
9.248834865e-12
-2.233390554e-11
9.497818828e-06
1.438036862e-11
-2.202465613e-11
9.4977897e-06
4.039244562e-11
-1.417873066e-10
9.497693286e-06
5.628480993e-11
-1.013114109e-10
9.498036353e-06
1.540841955e-10
-9.960419909e-10
2.817530706e-10
-2.04381928e-09
9.497857684e-06
-7.846046553e-13
-4.433725254e-13
9.497858483e-06
4.208301462e-13
-1.067620273e-13
9.497856903e-06
1.223744817e-12
-1.627792094e-13
9.497858294e-06
5.310401585e-13
6.516530486e-13
9.497859405e-06
1.151603524e-12
-7.059755262e-13
9.497857386e-06
1.623526874e-12
-1.498047512e-12
9.497854996e-06
2.309546858e-12
-4.49491064e-13
9.49785389e-06
3.240930579e-12
-1.190988939e-12
9.497854463e-06
4.186520366e-12
-2.089341043e-12
9.49785384e-06
8.806981731e-12
-1.321017496e-11
9.497850685e-06
9.761304101e-12
-8.944162187e-12
9.497874279e-06
3.630415024e-11
-4.88525013e-11
9.497877628e-06
3.533717526e-11
-8.396201647e-12
9.49802266e-06
1.019924806e-10
-1.661255241e-10
2.630935254e-10
-4.535703837e-10
9.497835973e-06
4.204757056e-13
-2.086596607e-13
9.497836526e-06
4.854144265e-13
1.929950229e-13
9.497835947e-06
1.4593364e-12
9.062829876e-13
9.497837174e-06
1.846562399e-12
4.443204417e-13
9.497837833e-06
1.597909174e-12
-2.66321576e-13
9.497836315e-06
4.655305881e-13
-1.981154515e-12
9.49783379e-06
8.761178195e-13
-1.871834067e-12
9.497834039e-06
3.68965055e-12
-3.456855869e-12
9.497833512e-06
5.078936077e-12
-3.252524167e-12
9.497835849e-06
1.144988019e-11
-8.568581567e-12
9.497831322e-06
1.107860468e-11
-1.004984493e-11
9.497843702e-06
2.820342182e-11
-3.577345527e-11
9.497845401e-06
3.448821595e-11
-3.604982902e-11
9.497928833e-06
5.827908927e-11
-1.04010874e-10
1.512906004e-10
-2.629618123e-10
9.497785223e-06
2.171240747e-14
1.075503115e-12
9.497784416e-06
7.514234492e-13
5.261917882e-13
9.497784465e-06
-1.046831617e-13
-2.762509399e-13
9.497785838e-06
-1.548188376e-13
-8.150719723e-15
9.497788136e-06
4.306690408e-13
7.318431237e-13
9.49778805e-06
2.694837448e-13
3.809365173e-13
9.497787629e-06
8.51410448e-13
-2.13442494e-12
9.49779209e-06
3.031177623e-12
-1.76312646e-12
9.49779315e-06
2.718481225e-12
-3.309011168e-12
9.49779487e-06
5.667632002e-12
-6.394105482e-12
9.497800608e-06
8.207820422e-12
-5.989462419e-12
9.497815733e-06
1.441186595e-11
-1.79993805e-11
9.497828972e-06
1.775045693e-11
-2.008331356e-11
9.497871126e-06
2.485515018e-11
-3.185698798e-11
6.668199608e-11
-8.68721258e-11
9.497889677e-06
9.170811133e-13
9.497887977e-06
-7.426959831e-13
9.497886638e-06
-1.381848555e-12
9.497888539e-06
9.852202449e-13
9.497890184e-06
8.186346979e-13
9.49789066e-06
7.610581745e-13
9.497891662e-06
-1.015254163e-12
9.497892656e-06
-2.102640159e-12
9.497894988e-06
-2.090577448e-12
9.497898329e-06
-5.420649191e-12
9.49790162e-06
-6.985287197e-12
9.497917076e-06
-1.14670595e-11
9.497934488e-06
-1.533753149e-11
9.497961058e-06
-1.944501716e-11
-4.661455925e-11
9.497817315e-06
-5.172580851e-13
4.264267771e-13
9.497815005e-06
-1.561186977e-12
1.699906255e-13
9.497818977e-06
1.247453227e-13
1.67582982e-12
9.497819563e-06
1.964778642e-13
2.512158039e-12
9.497819345e-06
-1.183950363e-13
2.274399477e-12
9.497818232e-06
-2.288522984e-12
-2.723750451e-13
9.497818207e-06
-1.843190673e-12
-1.177698618e-12
9.497820182e-06
-2.739925816e-12
-9.433024458e-13
9.497823867e-06
-2.582362699e-12
-2.459304888e-12
9.497828273e-06
-6.753102534e-12
-3.16940227e-12
9.497831279e-06
-7.722844183e-12
-5.745022343e-12
9.497849237e-06
-1.851062142e-11
-1.195491901e-11
9.497867896e-06
-1.549846381e-11
-1.953903188e-11
-2.754541733e-11
-2.940617515e-11
9.497780653e-06
-1.030563181e-12
-5.417091411e-13
9.497780477e-06
-4.445321222e-13
4.645445224e-13
9.497778034e-06
-1.543520075e-12
-6.876587924e-13
9.497779781e-06
6.229314043e-13
1.43032765e-12
9.497779643e-06
-1.095797426e-12
2.581728258e-12
9.497781125e-06
-1.360783761e-12
9.736607858e-13
9.497780512e-06
-1.859035468e-12
-6.385030084e-13
9.497781121e-06
-4.232653987e-12
-7.964884748e-13
9.497782718e-06
-6.455841651e-12
-1.830537016e-12
9.497787532e-06
-1.320040618e-11
-5.245515379e-12
9.497791384e-06
-1.296648757e-11
-7.27278488e-12
9.497814267e-06
-3.584130071e-11
-1.8952264e-11
9.497830797e-06
-2.393645743e-11
-2.832747061e-11
-7.006625881e-11
-5.202866891e-11
9.497851837e-06
2.611621091e-14
9.223764823e-13
9.49785078e-06
1.025715771e-13
-6.681761362e-13
9.497851188e-06
4.952387469e-13
-4.763782141e-13
9.497850659e-06
-6.733707421e-13
1.663305756e-13
9.497852564e-06
-1.152609261e-13
1.90581114e-12
9.497852487e-06
-1.822512906e-12
8.318795725e-13
9.497851948e-06
-2.931150799e-12
-1.18513343e-14
9.497849353e-06
-3.573383721e-12
-5.249767273e-13
9.497849021e-06
-4.364000718e-12
-1.53920874e-12
9.497847234e-06
-1.239374307e-11
-8.159956076e-12
9.497848301e-06
-7.089215179e-12
-1.309232545e-11
9.497865554e-06
-4.939930859e-11
-4.25355807e-11
9.497868497e-06
-9.653896176e-12
-5.905715979e-11
-1.653149421e-10
-1.559216547e-10
9.497804392e-06
1.418871097e-12
5.720570462e-13
9.497803683e-06
-1.130925031e-12
2.653589249e-13
9.497803932e-06
2.074942148e-13
-5.453348745e-13
9.497803715e-06
-8.036644434e-13
6.420997962e-13
9.497803269e-06
-1.96085145e-12
1.669316258e-12
9.497804288e-06
-2.020059007e-13
1.000502379e-12
9.497806986e-06
-4.125382504e-13
7.009900344e-13
9.497802999e-06
-2.919409524e-12
-1.726343966e-12
9.497804072e-06
-4.666953578e-12
-2.85287212e-12
9.497804302e-06
-1.283429943e-11
-1.206182886e-11
9.497824288e-06
-1.738940242e-11
-1.773574669e-11
9.497866125e-06
-7.192075449e-11
-7.22735708e-11
9.497985095e-06
-7.026532134e-11
-6.90006923e-11
9.498213471e-06
-2.802649942e-10
-2.801701158e-10
-4.368798556e-10
9.497783265e-06
-4.450655002e-14
-1.311884135e-13
9.497786043e-06
1.019170784e-12
9.728050203e-13
9.497784102e-06
-6.487779008e-13
5.00599416e-13
9.497782942e-06
-5.261940131e-13
8.736000879e-13
9.497784093e-06
-2.052554834e-13
3.277773054e-13
9.49778195e-06
-1.914904912e-13
5.67467519e-13
9.497778708e-06
1.578136274e-12
-5.45618175e-13
9.497768899e-06
3.611793386e-12
-3.492751692e-12
9.49776311e-06
5.482759957e-12
-5.370544826e-12
9.497732569e-06
1.301216242e-11
-2.395883081e-11
9.497712696e-06
1.80648741e-11
-3.651619828e-11
9.497630193e-06
7.077148985e-11
-1.979742483e-10
9.497702358e-06
6.963819477e-11
-3.112016072e-10
9.498427749e-06
2.785630931e-10
-2.276398193e-09
4.369268862e-10
-3.453595989e-09
9.497859023e-06
-4.516306029e-13
-1.509632334e-12
9.497858643e-06
-3.473490663e-14
-3.780072173e-13
9.497859147e-06
1.235398197e-12
1.431461089e-12
9.497857682e-06
9.40197458e-13
9.650581138e-13
9.497859602e-06
2.338206368e-12
1.015216576e-12
9.497860433e-06
8.91582344e-13
3.368438157e-13
9.497858595e-06
8.547716905e-13
-3.549595432e-13
9.497854724e-06
1.160037639e-12
-1.988102719e-12
9.497856966e-06
3.224523489e-12
-4.013226853e-12
9.497858098e-06
1.293589739e-11
-1.413016638e-11
9.497875286e-06
8.402719992e-12
-1.721456527e-11
9.497919696e-06
4.859845211e-11
-7.069294425e-11
9.498037917e-06
7.924626689e-12
-7.049398195e-11
9.498269661e-06
1.631744794e-10
-2.792335034e-10
4.545256607e-10
-4.371561025e-10
9.497825994e-06
1.54799592e-12
1.286679866e-13
9.497825495e-06
7.02043993e-13
5.866246505e-13
9.497823659e-06
5.899934443e-13
9.655398787e-13
9.497824652e-06
1.062105354e-12
1.097556217e-12
9.497824489e-06
1.444440333e-12
9.306000121e-13
9.497827541e-06
2.499451277e-12
1.281054473e-12
9.497824936e-06
9.285629931e-13
7.988950107e-13
9.497825964e-06
5.496919384e-12
2.738629835e-13
9.497824013e-06
4.477490216e-12
-1.873868761e-12
9.497824096e-06
1.131738345e-11
-6.859050608e-12
9.497822369e-06
1.057515937e-11
-1.323907904e-11
9.497841834e-06
3.600492453e-11
-4.199772661e-11
9.497846934e-06
2.495223114e-11
-5.711925183e-11
9.497994338e-06
7.056383607e-11
-1.532894302e-10
2.142229844e-10
-2.816449746e-10
9.497892527e-06
-5.587297624e-13
-2.147752143e-12
9.497894702e-06
1.784934878e-13
-1.042070225e-12
9.497892804e-06
-3.483444874e-13
-9.385442346e-14
9.497894744e-06
2.41549105e-13
3.754514771e-13
9.497894666e-06
-1.004595346e-12
3.072912889e-13
9.497894752e-06
1.056286905e-12
1.050201477e-12
9.497898208e-06
2.045160753e-12
5.991579943e-13
9.497897683e-06
2.785691375e-12
-1.266940262e-12
9.497899814e-06
3.055408075e-12
-2.092742143e-12
9.497906098e-06
6.203161113e-12
-4.114156884e-12
9.497911353e-06
5.17264443e-12
-8.210944696e-12
9.497934431e-06
1.759800394e-11
-2.05966364e-11
9.497948506e-06
1.553284137e-11
-2.834337238e-11
9.498010424e-06
2.760345254e-11
-5.156540617e-11
9.285279296e-11
-9.12844047e-11
9.497855952e-06
-1.067655865e-12
9.497855916e-06
2.622157569e-13
9.497856058e-06
1.716630798e-12
9.497856907e-06
6.784940184e-13
9.497858139e-06
-3.414074806e-13
9.497857218e-06
-5.352647832e-13
9.497858101e-06
-5.752297999e-13
9.497859168e-06
-7.257260449e-13
9.497860592e-06
-2.36913537e-13
9.497865825e-06
-3.75160598e-12
9.497870655e-06
-6.57767656e-12
9.497886829e-06
-1.215944599e-11
9.497903487e-06
-1.842269211e-11
9.497939841e-06
-2.725615874e-11
-4.723027256e-11
9.497818248e-06
-1.038805498e-12
6.243998813e-13
9.497816753e-06
-1.665169812e-12
3.610910537e-13
9.497817855e-06
-1.633161242e-12
3.520793969e-13
9.497815669e-06
-5.280652325e-13
1.117965238e-12
9.49781534e-06
-1.178654299e-13
1.120065954e-12
9.49781437e-06
-1.06727256e-12
-1.394537244e-14
9.497816807e-06
-2.273577143e-12
1.885231877e-12
9.497816628e-06
-2.897755124e-12
2.974094946e-12
9.497819015e-06
-3.245145341e-12
3.213750527e-12
9.497816853e-06
-1.020165033e-11
3.635051697e-12
9.497815774e-06
-9.754701871e-12
5.519299316e-12
9.497827106e-06
-3.574997951e-11
1.280442559e-11
9.497833713e-06
-4.272283766e-11
2.019267413e-11
-1.11361757e-10
2.74576096e-11
9.49785736e-06
3.259486562e-13
1.49658757e-12
9.497855253e-06
-1.667821575e-12
8.619762883e-13
9.497857011e-06
-8.954911439e-13
1.227216518e-12
9.497856879e-06
-9.039072972e-13
3.743025202e-14
9.497855834e-06
-1.860125151e-12
4.273601487e-13
9.497854862e-06
-9.554833657e-13
1.206349692e-12
9.497856289e-06
-1.602557285e-12
3.005319152e-12
9.497854592e-06
-4.59961552e-12
3.023529785e-12
9.497853806e-06
-7.364906891e-12
3.209737013e-12
9.497851294e-06
-2.177046734e-11
4.183193616e-12
9.497841169e-06
-2.444286585e-11
7.58828519e-12
9.49785168e-06
-8.509661642e-11
1.956420415e-11
9.497837093e-06
-8.432287217e-11
2.807637104e-11
-3.413709023e-10
5.063838083e-11
9.497841381e-06
-4.191737101e-13
3.997592853e-14
9.497840753e-06
3.839589924e-13
4.597689656e-13
9.497842574e-06
1.331074443e-14
1.844953807e-14
9.497842023e-06
1.750130955e-13
5.103997489e-13
9.497839733e-06
-5.601508367e-13
-1.090638086e-12
9.497837449e-06
-1.956031163e-12
-1.338727732e-13
9.497837263e-06
-2.103458901e-12
1.19131601e-12
9.497832715e-06
-5.576828613e-12
2.328883626e-12
9.497825258e-06
-7.441221235e-12
2.687600593e-12
9.497810833e-06
-2.369388957e-11
8.286377626e-12
9.49778567e-06
-2.162519196e-11
1.429003577e-11
9.497753976e-06
-1.413382735e-10
4.063431485e-11
9.497659135e-06
-1.001505463e-10
5.707487604e-11
-9.938802103e-10
1.54257584e-10
9.497807401e-06
-6.629399091e-14
1.07611663e-12
9.497807747e-06
-1.585711256e-13
6.436930411e-13
9.49781074e-06
5.554485051e-13
8.245076259e-13
9.497808212e-06
-4.02388303e-13
-9.878483842e-15
9.497806406e-06
-2.152952695e-12
-1.33371606e-13
9.497805743e-06
-1.039176667e-12
9.252419305e-13
9.497804214e-06
-2.499834231e-13
8.139059496e-13
9.497798677e-06
-3.072823943e-12
2.232102661e-12
9.49778965e-06
-6.187014135e-12
4.302104749e-12
9.497762037e-06
-2.427798394e-11
1.228064216e-11
9.497743506e-06
-3.670986935e-11
1.666804727e-11
9.497659906e-06
-1.974327496e-10
7.025567764e-11
9.497731604e-06
-3.110710414e-10
6.873224053e-11
-2.278096922e-09
2.790215538e-10
9.49785648e-06
-8.85930997e-13
-3.954161905e-13
9.497855611e-06
-5.070871745e-13
2.160230436e-13
9.497855617e-06
-3.034133522e-13
-1.816648256e-13
9.497852044e-06
-9.693866042e-13
9.802876657e-13
9.497854181e-06
4.278315774e-13
1.970313947e-12
9.497849797e-06
2.020785421e-13
1.051813278e-12
9.497843163e-06
1.309414479e-12
5.586935546e-13
9.497829774e-06
4.742310598e-12
3.649550608e-12
9.497805808e-06
6.629889136e-12
5.898608021e-12
9.497708629e-06
2.337742152e-11
2.392889742e-11
9.497558104e-06
3.783639629e-11
3.623057606e-11
9.496768552e-06
1.976931667e-10
1.979442675e-10
9.49552319e-06
3.098267093e-10
3.10162126e-10
9.486418145e-06
2.276472565e-09
2.278050903e-09
3.453319198e-09
9.497804667e-06
1.537026861e-12
4.546845556e-13
9.497804807e-06
3.486327163e-13
8.683122258e-13
9.497802587e-06
5.73547818e-13
8.688420751e-13
9.497801281e-06
1.329107631e-12
1.47406656e-12
9.497801876e-06
2.525712654e-12
2.106180752e-12
9.497801955e-06
2.830799443e-12
8.944972442e-13
9.497797951e-06
1.694942812e-12
1.192673145e-12
9.497790039e-06
4.598891237e-12
3.237744591e-12
9.497782994e-06
6.360064197e-12
3.521390911e-12
9.497759266e-06
2.600369934e-11
1.449463194e-11
9.497737394e-06
2.113039358e-11
1.687227053e-11
9.497652999e-06
1.392764616e-10
6.951478715e-11
9.497723887e-06
1.005087216e-10
6.858810164e-11
9.498450443e-06
9.950786841e-10
2.790274088e-10
2.042892579e-09
9.497814136e-06
-7.628603508e-13
-2.613021584e-13
9.497815096e-06
-5.50141106e-13
1.036481936e-12
9.497813883e-06
-1.584038324e-13
-3.19514366e-13
9.497814409e-06
2.231360762e-13
1.698495294e-12
9.497813252e-06
6.062178757e-13
1.285696103e-12
9.49781215e-06
2.494270622e-12
2.184829874e-12
9.497810242e-06
1.540695042e-12
2.395429957e-12
9.497805692e-06
3.358046299e-12
1.977885092e-12
9.497798984e-06
4.981175834e-12
2.587346005e-12
9.497781691e-06
1.721087177e-11
7.401037047e-12
9.49775699e-06
2.104548803e-11
1.290142612e-11
9.497730432e-06
8.446742813e-11