/*--------------------------------*- C++ -*----------------------------------*\
| =========                 |                                                 |
| \\      /  F ield         | OpenFOAM: The Open Source CFD Toolbox           |
|  \\    /   O peration     | Version:  4.x                                   |
|   \\  /    A nd           | Web:      www.OpenFOAM.org                      |
|    \\/     M anipulation  |                                                 |
\*---------------------------------------------------------------------------*/
FoamFile
{
    version     2.0;
    format      ascii;
    class       volScalarField;
    location    "10000";
    object      T;
}
// * * * * * * * * * * * * * * * * * * * * * * * * * * * * * * * * * * * * * //

dimensions      [0 0 0 1 0 0 0];

internalField   nonuniform List<scalar> 
1175
(
1223.150405
1223.150355
1223.150286
1223.1503
1223.15033
1223.150502
1223.150326
1223.150482
1223.150564
1223.150614
1223.150615
1223.150662
1223.150692
1223.150769
1223.15071
1223.144195
1223.144256
1223.14435
1223.144491
1223.144459
1223.144557
1223.144485
1223.144415
1223.144394
1223.144382
1223.144176
1223.144188
1223.144348
1223.144444
1223.144428
1223.148278
1223.148402
1223.148373
1223.148188
1223.148263
1223.148217
1223.148261
1223.148554
1223.148473
1223.148531
1223.148603
1223.148583
1223.148639
1223.14863
1223.148494
1223.148811
1223.14889
1223.148911
1223.148879
1223.148888
1223.149043
1223.149023
1223.148982
1223.148977
1223.148952
1223.149001
1223.148919
1223.148928
1223.14883
1223.148781
1223.152891
1223.152873
1223.15279
1223.152827
1223.152685
1223.152881
1223.152963
1223.15283
1223.152889
1223.152837
1223.152739
1223.152768
1223.152939
1223.153048
1223.153137
1223.151634
1223.151604
1223.151546
1223.151657
1223.151677
1223.151672
1223.151479
1223.151552
1223.151393
1223.151388
1223.151264
1223.151423
1223.151446
1223.15151
1223.151558
1223.149852
1223.149836
1223.14969
1223.149684
1223.149779
1223.149861
1223.149717
1223.149664
1223.149785
1223.149648
1223.149722
1223.149631
1223.149809
1223.149682
1223.149589
1223.153268
1223.15319
1223.153254
1223.153167
1223.153234
1223.153377
1223.153331
1223.153407
1223.153385
1223.153339
1223.153483
1223.153415
1223.153406
1223.153372
1223.153385
1223.153578
1223.153708
1223.153712
1223.153713
1223.153536
1223.153619
1223.153524
1223.153476
1223.153468
1223.153596
1223.153521
1223.153574
1223.15343
1223.153488
1223.153448
1223.148078
1223.14804
1223.147917
1223.147836
1223.147996
1223.148048
1223.148024
1223.147957
1223.147916
1223.147867
1223.147903
1223.147749
1223.147638
1223.147655
1223.150902
1223.150764
1223.150788
1223.150875
1223.150937
1223.151031
1223.151232
1223.151301
1223.15124
1223.151281
1223.151499
1223.151504
1223.15158
1223.151675
1223.151835
1223.159501
1223.159519
1223.159545
1223.159606
1223.159488
1223.159487
1223.15941
1223.159357
1223.159184
1223.159091
1223.158962
1223.159135
1223.159204
1223.159273
1223.159322
1223.149157
1223.149032
1223.14892
1223.148912
1223.148985
1223.148967
1223.148813
1223.14885
1223.14877
1223.148824
1223.148953
1223.14892
1223.148883
1223.148981
1223.149161
1223.15389
1223.153932
1223.154112
1223.154169
1223.154184
1223.154071
1223.153991
1223.1539
1223.153835
1223.153702
1223.153734
1223.153546
1223.153587
1223.153625
1223.153715
1223.143841
1223.143954
1223.144099
1223.144015
1223.143875
1223.144046
1223.144142
1223.144108
1223.144058
1223.14393
1223.144043
1223.143959
1223.14401
1223.144018
1223.144064
1223.158242
1223.158292
1223.158345
1223.15843
1223.158556
1223.158647
1223.15863
1223.1585
1223.158548
1223.15859
1223.158493
1223.158582
1223.158446
1223.158345
1223.158484
1223.144332
1223.144382
1223.144308
1223.144192
1223.144171
1223.144239
1223.144233
1223.144268
1223.144299
1223.144243
1223.144079
1223.144169
1223.144121
1223.144181
1223.144298
1223.15624
1223.15629
1223.156289
1223.15637
1223.156445
1223.156478
1223.156619
1223.156531
1223.156627
1223.156626
1223.156561
1223.15672
1223.156791
1223.156635
1223.156678
1223.150275
1223.150212
1223.150262
1223.150417
1223.150373
1223.15037
1223.150224
1223.150247
1223.150283
1223.150287
1223.150381
1223.150449
1223.150403
1223.150374
1223.142659
1223.142723
1223.142877
1223.142784
1223.142908
1223.142821
1223.142912
1223.14279
1223.142731
1223.142746
1223.142855
1223.142714
1223.142682
1223.142955
1223.14686
1223.146797
1223.146845
1223.14695
1223.147059
1223.147088
1223.146975
1223.146998
1223.146877
1223.146842
1223.146799
1223.146578
1223.146718
1223.146878
1223.146883
1223.151703
1223.151646
1223.1517
1223.151621
1223.15155
1223.151643
1223.151583
1223.15157
1223.15136
1223.15123
1223.151344
1223.151373
1223.1515
1223.151391
1223.151505
1223.144244
1223.144289
1223.144435
1223.144315
1223.144519
1223.144715
1223.144591
1223.144738
1223.144745
1223.14474
1223.14471
1223.144623
1223.144629
1223.144716
1223.144581
1223.14652
1223.146537
1223.146519
1223.146684
1223.14659
1223.146742
1223.146744
1223.146654
1223.146798
1223.146974
1223.146734
1223.146781
1223.146755
1223.146809
1223.146869
1223.149364
1223.149428
1223.149556
1223.149359
1223.149453
1223.149375
1223.149489
1223.149627
1223.149623
1223.149679
1223.14963
1223.149549
1223.149491
1223.149502
1223.149479
1223.156123
1223.155952
1223.155843
1223.155896
1223.155872
1223.155839
1223.15586
1223.155833
1223.155865
1223.155705
1223.155815
1223.155846
1223.156019
1223.155939
1223.155833
1223.142787
1223.14263
1223.142655
1223.142636
1223.142686
1223.142695
1223.142684
1223.142816
1223.142822
1223.142952
1223.143107
1223.14328
1223.143365
1223.143239
1223.143281
1223.151965
1223.151944
1223.152027
1223.152006
1223.151971
1223.151812
1223.152064
1223.152051
1223.152114
1223.152121
1223.15196
1223.151857
1223.151895
1223.152024
1223.156672
1223.156792
1223.156672
1223.156877
1223.15694
1223.156907
1223.156882
1223.156753
1223.156904
1223.156704
1223.156759
1223.156673
1223.156683
1223.156675
1223.147632
1223.147699
1223.147588
1223.147457
1223.147434
1223.147182
1223.147228
1223.147349
1223.147382
1223.147554
1223.147705
1223.147607
1223.147539
1223.147599
1223.1536
1223.153683
1223.153802
1223.153589
1223.153478
1223.153396
1223.153265
1223.153153
1223.153038
1223.153008
1223.153021
1223.153011
1223.153092
1223.15307
1223.153091
1223.156327
1223.156195
1223.156186
1223.156315
1223.156169
1223.156094
1223.15619
1223.156342
1223.156364
1223.156324
1223.156538
1223.156613
1223.156644
1223.15673
1223.155986
1223.146408
1223.146538
1223.146584
1223.146724
1223.146695
1223.146564
1223.146528
1223.146367
1223.146282
1223.146364
1223.146297
1223.146142
1223.146235
1223.146355
1223.146375
1223.150828
1223.150839
1223.150879
1223.15083
1223.150883
1223.150973
1223.150724
1223.15077
1223.150562
1223.15054
1223.150711
1223.150735
1223.150542
1223.150631
1223.150409
1223.141985
1223.141873
1223.141931
1223.141957
1223.142009
1223.142023
1223.142033
1223.141972
1223.1418
1223.141693
1223.141559
1223.141551
1223.141537
1223.141529
1223.14145
1223.146876
1223.146872
1223.146805
1223.146839
1223.146883
1223.146866
1223.146916
1223.146922
1223.147016
1223.147107
1223.147014
1223.147197
1223.147205
1223.147362
1223.1475
1223.151893
1223.151763
1223.151825
1223.151844
1223.15208
1223.152235
1223.152169
1223.152093
1223.152008
1223.152135
1223.152229
1223.152217
1223.152277
1223.152241
1223.146861
1223.14685
1223.147107
1223.146939
1223.146914
1223.14693
1223.146936
1223.146977
1223.146957
1223.146984
1223.146885
1223.146916
1223.146943
1223.146909
1223.148864
1223.14887
1223.148661
1223.148746
1223.1487
1223.148772
1223.148956
1223.148835
1223.148885
1223.149012
1223.148948
1223.149088
1223.149116
1223.149182
1223.153063
1223.153231
1223.153167
1223.152831
1223.152831
1223.152834
1223.152893
1223.152867
1223.152809
1223.152758
1223.152787
1223.152713
1223.152778
1223.152879
1223.146824
1223.146802
1223.146949
1223.147056
1223.147218
1223.147083
1223.147065
1223.147147
1223.147017
1223.146854
1223.147024
1223.147031
1223.146916
1223.147199
1220.179238
1223.153644
1223.153641
1223.153701
1223.153703
1223.153716
1223.153603
1223.153528
1223.153592
1223.153597
1223.153623
1223.153624
1223.153491
1223.153343
1223.153565
1223.152761
1223.152307
1223.152415
1223.152396
1223.152444
1223.152369
1223.152269
1223.152279
1223.152188
1223.152237
1223.152541
1223.152538
1223.152542
1223.152217
1223.152285
1223.152266
1223.151417
1223.151348
1223.151378
1223.151267
1223.15134
1223.15138
1223.151411
1223.151408
1223.151446
1223.151474
1223.151393
1223.151389
1223.151648
1223.151695
1223.151769
1223.156467
1223.156393
1223.156498
1223.156445
1223.156493
1223.156503
1223.15651
1223.156474
1223.156536
1223.156554
1223.156505
1223.156521
1223.156541
1223.156577
1223.15663
1223.15145
1223.151421
1223.15146
1223.15144
1223.151435
1223.151481
1223.151462
1223.151331
1223.151369
1223.151371
1223.151268
1223.151244
1223.151205
1223.151356
1223.150118
1223.150122
1223.150127
1223.149832
1223.149842
1223.149923
1223.149781
1223.149929
1223.149726
1223.149621
1223.14946
1223.14942
1223.1496
1223.149666
1223.152523
1223.152676
1223.152788
1223.152911
1223.15282
1223.152619
1223.152619
1223.15265
1223.152645
1223.152559
1223.152677
1223.152647
1223.152608
1223.152796
1223.145866
1223.145856
1223.145945
1223.145881
1223.145711
1223.145805
1223.14594
1223.146022
1223.145999
1223.146094
1223.14611
1223.145953
1223.145957
1223.146045
1223.153422
1223.153367
1223.153289
1223.153365
1223.153402
1223.153496
1223.153505
1223.153514
1223.153536
1223.153618
1223.153613
1223.153731
1223.153934
1223.153768
1223.15135
1223.151236
1223.151127
1223.15113
1223.151294
1223.151286
1223.151285
1223.151377
1223.151384
1223.151461
1223.15164
1223.151723
1223.151827
1223.151867
1223.147478
1223.147761
1223.147795
1223.147899
1223.147768
1223.148034
1223.148082
1223.148094
1223.147957
1223.147828
1223.14781
1223.147718
1223.147484
1223.147536
1223.147565
1223.153434
1223.153404
1223.153269
1223.153252
1223.15352
1223.153381
1223.153364
1223.153482
1223.153288
1223.153472
1223.153344
1223.15347
1223.153389
1223.153349
1223.153437
1223.151073
1223.151158
1223.151031
1223.150975
1223.15099
1223.150978
1223.15089
1223.150957
1223.151078
1223.150927
1223.15101
1223.15114
1223.15102
1223.151061
1223.15097
1223.148448
1223.148555
1223.148411
1223.148438
1223.148528
1223.148509
1223.14844
1223.148336
1223.148428
1223.148441
1223.14823
1223.14805
1223.14834
1223.148384
1223.156926
1223.156838
1223.156786
1223.15683
1223.156796
1223.156724
1223.156764
1223.156737
1223.156825
1223.157018
1223.157079
1223.157054
1223.157071
1223.157215
1223.150915
1223.151171
1223.151154
1223.150975
1223.150941
1223.151007
1223.150977
1223.150873
1223.150892
1223.151072
1223.151087
1223.151093
1223.151054
1223.151086
1223.151157
1223.151132
1223.151003
1223.151
1223.150854
1223.150872
1223.150869
1223.150856
1223.150965
1223.151073
1223.151002
1223.150816
1223.150687
1223.1509
1223.150387
1223.15031
1223.150298
1223.150177
1223.150256
1223.150216
1223.150191
1223.150086
1223.1503
1223.150244
1223.15025
1223.150222
1223.150141
1223.150114
1223.153654
1223.153786
1223.153848
1223.153865
1223.154007
1223.154025
1223.154002
1223.154008
1223.154065
1223.154277
1223.154312
1223.154128
1223.154131
1223.154132
1223.153894
1223.154038
1223.15396
1223.154074
1223.1541
1223.153852
1223.153754
1223.153832
1223.153704
1223.153677
1223.153836
1223.153744
1223.153651
1223.153566
1223.146111
1223.146171
1223.146286
1223.146154
1223.14615
1223.146001
1223.146069
1223.146015
1223.146005
1223.145861
1223.14607
1223.146076
1223.146223
1223.14625
1223.14628
1223.145943
1223.146039
1223.14605
1223.145938
1223.146034
1223.146131
1223.146131
1223.146018
1223.146024
1223.146225
1223.146156
1223.145968
1223.146027
1223.146004
1223.145895
1223.15029
1223.15025
1223.150392
1223.150428
1223.150358
1223.150372
1223.150384
1223.150474
1223.150316
1223.150017
1223.150172
1223.150103
1223.150175
1223.149955
1223.146341
1223.146631
1223.146672
1223.146735
1223.146897
1223.146881
1223.146877
1223.146636
1223.146631
1223.146877
1223.146862
1223.146837
1223.146899
1223.147038
1223.15308
1223.153256
1223.153307
1223.153268
1223.153266
1223.15326
1223.153165
1223.15314
1223.153018
1223.15297
1223.152919
1223.152909
1223.152767
1223.152711
1223.148512
1223.148745
1223.148623
1223.148718
1223.148619
1223.148734
1223.14886
1223.148839
1223.148906
1223.148953
1223.149052
1223.149102
1223.149035
1223.149051
1223.151683
1223.151653
1223.151543
1223.151534
1223.15145
1223.151402
1223.151618
1223.151611
1223.151607
1223.151524
1223.15151
1223.15152
1223.151459
1223.151627
1223.147777
1223.147726
1223.147574
1223.147509
1223.147406
1223.147197
1223.147197
1223.147065
1223.147153
1223.147043
1223.147015
1223.147151
1223.147112
1223.147094
1223.148871
1223.148833
1223.148912
1223.148891
1223.148855
1223.148958
1223.14909
1223.149189
1223.149059
1223.14913
1223.149029
1223.149201
1223.149121
1223.149433
1223.147999
1223.147765
1223.147738
1223.1477
1223.147845
1223.147892
1223.14798
1223.147882
1223.14808
1223.148017
1223.14793
1223.147753
1223.147923
1223.147849
1223.153043
1223.153058
1223.152909
1223.153048
1223.15286
1223.152863
1223.152867
1223.152823
1223.152769
1223.152808
1223.152799
1223.152814
1223.152826
1223.152789
1223.152787
1223.1522
1223.152207
1223.152211
1223.152164
1223.152
1223.152002
1223.152033
1223.152028
1223.151922
1223.151921
1223.151797
1223.151828
1223.151754
1223.151724
1223.148705
1223.148712
1223.14866
1223.148572
1223.148581
1223.148579
1223.148536
1223.148388
1223.148666
1223.148535
1223.148581
1223.148617
1223.148621
1223.148647
1223.154067
1223.153962
1223.15393
1223.153906
1223.153921
1223.153967
1223.153879
1223.153981
1223.153914
1223.154023
1223.153849
1223.153768
1223.153595
1223.153664
1223.141722
1223.141806
1223.141631
1223.141634
1223.141608
1223.141567
1223.141618
1223.141496
1223.141536
1223.141471
1223.14145
1223.141564
1223.141361
1223.141084
1223.146799
1223.146748
1223.146775
1223.146771
1223.146768
1223.146895
1223.14682
1223.146745
1223.146642
1223.146839
1223.146813
1223.146924
1223.146855
1223.146921
1223.15044
1223.150557
1223.150408
1223.150319
1223.150331
1223.150171
1223.150383
1223.15046
1223.150322
1223.150067
1223.150249
1223.150145
1223.150144
1223.150174
1223.149963
1223.150012
1223.150028
1223.150124
1223.150198
1223.150078
1223.150283
1223.150416
1223.150605
1223.150527
1223.150493
1223.150674
1223.15068
1223.150779
1223.148742
1223.148809
1223.14894
1223.148766
1223.148979
1223.148852
1223.148762
1223.148653
1223.148629
1223.148617
1223.148644
1223.148716
1223.148703
1223.148731
1223.148567
1223.148506
1223.148664
1223.148683
1223.148693
1223.148772
1223.148667
1223.148697
1223.148691
1223.148706
1223.148783
1223.148745
1223.148675
1223.148677
)
;

boundaryField
{
    top
    {
        type            zeroGradient;
    }
    bottom
    {
        type            zeroGradient;
    }
    side-walls
    {
        type            zeroGradient;
    }
    inlet
    {
        type            zeroGradient;
    }
    outlet
    {
        type            zeroGradient;
    }
    procBoundary0to1
    {
        type            processor;
        value           nonuniform List<scalar> 
97
(
1223.150641
1223.147533
1223.14441
1223.148616
1223.148782
1223.153142
1223.151373
1223.149602
1223.153406
1223.153564
1223.147533
1223.147533
1223.151751
1223.14298
1223.159236
1223.149179
1223.153698
1223.143936
1223.158301
1223.14453
1223.156498
1223.150286
1223.14298
1223.14298
1223.14703
1223.147641
1223.151266
1223.144643
1223.146955
1223.149445
1223.15617
1223.143228
1223.152128
1223.156635
1223.147641
1223.147641
1223.153273
1223.151986
1223.156105
1223.146149
1223.150602
1223.141586
1223.147242
1223.152119
1223.147002
1223.149297
1223.151986
1223.151986
1220.180109
1223.152992
1223.152817
1223.151757
1223.152193
1223.151679
1223.156555
1223.151259
1223.14962
1223.152681
1223.146044
1223.152992
1223.151757
1223.151757
1223.147665
1223.153623
1223.153432
1223.150983
1223.14838
1223.157116
1223.150977
1223.150856
1223.150339
1223.154236
1223.153623
1223.153623
1223.146151
1223.147805
1223.145863
1223.149862
1223.146936
1223.152606
1223.149368
1223.151481
1223.147028
1223.149472
1223.147805
1223.147805
1223.152758
1223.148599
1223.151745
1223.148614
1223.153626
1223.141294
1223.146987
1223.1502
1223.150934
1223.148721
1223.148599
)
;
    }
}


// ************************************************************************* //
