/*--------------------------------*- C++ -*----------------------------------*\
| =========                 |                                                 |
| \\      /  F ield         | OpenFOAM: The Open Source CFD Toolbox           |
|  \\    /   O peration     | Version:  4.x                                   |
|   \\  /    A nd           | Web:      www.OpenFOAM.org                      |
|    \\/     M anipulation  |                                                 |
\*---------------------------------------------------------------------------*/
FoamFile
{
    version     2.0;
    format      ascii;
    class       volScalarField;
    location    "10000";
    object      X_CO;
}
// * * * * * * * * * * * * * * * * * * * * * * * * * * * * * * * * * * * * * //

dimensions      [0 0 0 0 0 0 0];

internalField   nonuniform List<scalar> 
1175
(
0.3728740609
0.3728740609
0.3728740607
0.3728740608
0.3728740609
0.3728740609
0.3728740606
0.3728740603
0.3728740586
0.3728740535
0.3728740387
0.3728739996
0.372873904
0.3728736927
0.3728732758
0.3728740608
0.3728740608
0.3728740609
0.372874061
0.3728740609
0.372874061
0.3728740606
0.3728740598
0.3728740573
0.3728740495
0.3728740263
0.3728739622
0.3728738001
0.3728734331
0.3728727098
0.372874061
0.3728740611
0.372874061
0.3728740608
0.3728740609
0.3728740609
0.3728740605
0.3728740595
0.3728740555
0.3728740426
0.3728740023
0.3728738852
0.3728735769
0.3728728589
0.3728714407
0.372874061
0.372874061
0.3728740611
0.372874061
0.372874061
0.372874061
0.3728740605
0.3728740589
0.3728740533
0.3728740342
0.3728739722
0.3728737837
0.3728732653
0.3728720164
0.3728695312
0.3728740612
0.3728740611
0.3728740611
0.3728740611
0.3728740609
0.372874061
0.3728740606
0.3728740585
0.3728740522
0.3728740295
0.3728739549
0.3728737222
0.3728730598
0.3728714136
0.3728680957
0.3728740611
0.372874061
0.3728740609
0.372874061
0.3728740611
0.372874061
0.3728740604
0.3728740589
0.3728740533
0.3728740341
0.372873972
0.3728737839
0.3728732653
0.3728720165
0.3728695312
0.3728740611
0.372874061
0.3728740609
0.372874061
0.3728740611
0.372874061
0.3728740606
0.3728740594
0.3728740556
0.3728740425
0.3728740023
0.3728738854
0.3728735771
0.3728728592
0.3728714409
0.372874061
0.3728740609
0.3728740609
0.3728740609
0.3728740609
0.372874061
0.3728740607
0.37287406
0.3728740576
0.3728740497
0.3728740265
0.3728739624
0.3728738
0.3728734331
0.3728727099
0.372874061
0.3728740611
0.3728740611
0.372874061
0.3728740609
0.372874061
0.3728740608
0.3728740602
0.3728740585
0.3728740535
0.3728740387
0.3728739996
0.372873904
0.3728736925
0.3728732758
0.3728740609
0.3728740608
0.3728740608
0.3728740609
0.372874061
0.3728740609
0.3728740606
0.3728740599
0.3728740575
0.3728740497
0.3728740266
0.3728739623
0.3728738
0.3728734331
0.3728740609
0.3728740608
0.3728740608
0.3728740609
0.372874061
0.3728740608
0.3728740606
0.3728740594
0.3728740555
0.3728740428
0.372874003
0.3728738861
0.3728735751
0.3728728469
0.3728714067
0.372874061
0.3728740611
0.3728740611
0.3728740611
0.372874061
0.372874061
0.3728740604
0.3728740587
0.3728740519
0.372874029
0.3728739522
0.3728737128
0.372873035
0.3728713694
0.3728680411
0.3728740613
0.372874061
0.3728740611
0.3728740609
0.3728740611
0.3728740608
0.3728740602
0.3728740575
0.3728740477
0.3728740112
0.372873882
0.3728734516
0.3728721475
0.3728687383
0.372861757
0.372874061
0.372874061
0.3728740611
0.3728740611
0.372874061
0.3728740609
0.3728740601
0.372874057
0.3728740455
0.3728740008
0.3728738369
0.3728732629
0.3728714156
0.372866251
0.3728551853
0.372874061
0.372874061
0.3728740612
0.372874061
0.3728740609
0.3728740609
0.3728740603
0.3728740576
0.3728740478
0.3728740112
0.3728738821
0.3728734517
0.3728721475
0.3728687385
0.3728617573
0.3728740609
0.3728740609
0.3728740608
0.3728740609
0.3728740609
0.3728740609
0.3728740604
0.3728740586
0.3728740521
0.3728740292
0.3728739524
0.3728737131
0.3728730351
0.3728713694
0.3728680412
0.3728740611
0.3728740611
0.372874061
0.3728740609
0.3728740609
0.372874061
0.3728740606
0.3728740595
0.3728740557
0.3728740429
0.3728740029
0.3728738861
0.372873575
0.3728728467
0.3728714066
0.3728740609
0.372874061
0.3728740609
0.3728740609
0.3728740609
0.3728740609
0.3728740608
0.3728740599
0.3728740574
0.3728740497
0.3728740265
0.3728739624
0.3728738
0.372873433
0.3728727099
0.3728740611
0.372874061
0.372874061
0.3728740612
0.3728740611
0.3728740609
0.3728740606
0.3728740594
0.3728740554
0.3728740424
0.3728740021
0.3728738853
0.3728735768
0.3728728589
0.3728740608
0.372874061
0.3728740611
0.3728740609
0.372874061
0.3728740608
0.3728740604
0.3728740584
0.3728740519
0.372874029
0.3728739524
0.3728737127
0.3728730349
0.3728713692
0.372874061
0.3728740609
0.372874061
0.3728740611
0.372874061
0.3728740609
0.37287406
0.3728740569
0.3728740448
0.3728739996
0.3728738355
0.3728732777
0.3728715568
0.3728669964
0.3728576175
0.3728740611
0.3728740611
0.3728740612
0.3728740611
0.3728740611
0.3728740608
0.3728740597
0.372874055
0.3728740356
0.3728739577
0.3728736526
0.3728725172
0.3728686406
0.3728572508
0.3728322576
0.372874061
0.3728740611
0.3728740612
0.3728740609
0.3728740611
0.3728740609
0.3728740593
0.3728740538
0.3728740303
0.3728739303
0.3728735146
0.3728718433
0.3728655285
0.3728444601
0.3727920083
0.372874061
0.3728740609
0.372874061
0.372874061
0.3728740609
0.3728740608
0.3728740596
0.3728740549
0.3728740358
0.372873958
0.3728736527
0.3728725173
0.3728686407
0.3728572513
0.3728322584
0.3728740608
0.3728740609
0.372874061
0.3728740609
0.3728740609
0.3728740607
0.37287406
0.3728740569
0.3728740449
0.3728739996
0.3728738356
0.372873278
0.372871557
0.3728669965
0.3728576181
0.372874061
0.372874061
0.3728740609
0.3728740609
0.3728740609
0.3728740608
0.3728740604
0.3728740585
0.3728740521
0.372874029
0.3728739524
0.372873713
0.3728730352
0.3728713694
0.3728680411
0.372874061
0.372874061
0.3728740609
0.3728740609
0.3728740608
0.3728740608
0.3728740605
0.3728740594
0.3728740554
0.3728740425
0.3728740023
0.3728738856
0.3728735771
0.3728728591
0.3728714408
0.3728740611
0.372874061
0.372874061
0.372874061
0.3728740611
0.3728740609
0.3728740606
0.372874059
0.3728740534
0.3728740343
0.372873972
0.3728737836
0.3728732651
0.3728720162
0.3728740609
0.3728740611
0.3728740609
0.3728740612
0.3728740611
0.3728740608
0.3728740602
0.3728740575
0.3728740478
0.3728740113
0.3728738821
0.3728734517
0.3728721476
0.3728687382
0.372874061
0.3728740612
0.3728740611
0.3728740611
0.372874061
0.3728740606
0.3728740595
0.3728740549
0.3728740356
0.3728739579
0.3728736528
0.3728725173
0.3728686403
0.3728572501
0.3728740611
0.3728740612
0.3728740613
0.3728740611
0.372874061
0.3728740606
0.3728740588
0.3728740515
0.3728740187
0.3728738739
0.3728732454
0.3728705988
0.3728601358
0.3728237838
0.372730815
0.3728740612
0.3728740611
0.3728740611
0.3728740613
0.372874061
0.3728740605
0.3728740586
0.3728740496
0.3728740075
0.3728738106
0.3728728783
0.3728684576
0.3728478597
0.372757991
0.3724459347
0.3728740609
0.3728740609
0.372874061
0.3728740612
0.3728740611
0.3728740606
0.372874059
0.3728740515
0.3728740188
0.3728738741
0.3728732455
0.3728705988
0.3728601363
0.3728237854
0.3727308209
0.372874061
0.372874061
0.3728740611
0.3728740611
0.3728740611
0.3728740609
0.3728740596
0.3728740549
0.3728740356
0.3728739579
0.3728736528
0.3728725174
0.3728686406
0.3728572511
0.3728322582
0.372874061
0.3728740609
0.372874061
0.372874061
0.372874061
0.3728740609
0.3728740601
0.3728740577
0.3728740478
0.3728740113
0.3728738821
0.3728734518
0.3728721477
0.3728687385
0.372861757
0.3728740611
0.3728740611
0.372874061
0.372874061
0.372874061
0.3728740609
0.3728740604
0.3728740588
0.3728740533
0.3728740342
0.372873972
0.372873784
0.3728732654
0.3728720166
0.3728695315
0.3728740609
0.3728740609
0.3728740609
0.372874061
0.3728740612
0.3728740611
0.3728740606
0.3728740587
0.3728740522
0.3728740299
0.3728739552
0.3728737224
0.3728730598
0.3728714134
0.372874061
0.3728740611
0.3728740612
0.3728740611
0.3728740611
0.372874061
0.3728740601
0.3728740572
0.3728740455
0.372874001
0.372873837
0.372873263
0.3728714154
0.3728662506
0.3728740613
0.3728740612
0.372874061
0.3728740611
0.372874061
0.3728740606
0.3728740595
0.3728740539
0.3728740303
0.3728739303
0.3728735146
0.3728718434
0.3728655282
0.3728444581
0.3728740612
0.3728740614
0.3728740611
0.3728740609
0.372874061
0.3728740605
0.3728740586
0.3728740495
0.3728740076
0.3728738108
0.3728728783
0.3728684574
0.3728478588
0.3727579851
0.372874061
0.372874061
0.3728740611
0.3728740612
0.372874061
0.3728740605
0.372874058
0.3728740469
0.3728739914
0.3728737088
0.3728721981
0.3728636457
0.3728119009
0.3724750385
0.3701020615
0.3728740611
0.372874061
0.3728740611
0.3728740611
0.3728740609
0.3728740604
0.3728740584
0.3728740495
0.3728740077
0.3728738108
0.3728728784
0.3728684575
0.3728478593
0.3727579902
0.3724459344
0.3728740611
0.3728740611
0.3728740612
0.3728740612
0.3728740611
0.3728740607
0.3728740595
0.3728740539
0.3728740302
0.3728739304
0.3728735147
0.3728718435
0.3728655282
0.3728444596
0.3727920081
0.3728740612
0.3728740612
0.3728740611
0.372874061
0.3728740611
0.3728740609
0.3728740599
0.3728740571
0.3728740455
0.3728740011
0.3728738369
0.3728732629
0.3728714155
0.3728662509
0.3728551852
0.3728740611
0.372874061
0.3728740611
0.372874061
0.3728740609
0.3728740609
0.3728740603
0.3728740586
0.3728740523
0.3728740298
0.3728739551
0.3728737225
0.3728730599
0.3728714135
0.3728680956
0.3728740613
0.3728740613
0.3728740612
0.3728740611
0.3728740612
0.3728740611
0.3728740606
0.372874059
0.3728740534
0.3728740343
0.3728739721
0.3728737839
0.3728732653
0.3728720164
0.3728740612
0.3728740613
0.3728740613
0.3728740611
0.3728740612
0.372874061
0.3728740603
0.3728740578
0.3728740478
0.3728740113
0.3728738822
0.3728734517
0.3728721477
0.3728687384
0.3728740611
0.3728740614
0.3728740613
0.3728740614
0.3728740611
0.3728740607
0.3728740595
0.3728740549
0.3728740357
0.3728739577
0.3728736528
0.3728725172
0.3728686403
0.3728572502
0.3728740612
0.3728740612
0.3728740613
0.3728740611
0.3728740609
0.3728740606
0.372874059
0.3728740516
0.3728740189
0.3728738742
0.3728732455
0.3728705987
0.3728601355
0.3728237825
0.3728740611
0.3728740611
0.3728740609
0.3728740611
0.372874061
0.3728740607
0.3728740586
0.3728740495
0.3728740076
0.3728738108
0.3728728783
0.3728684575
0.3728478587
0.3727579844
0.3728740611
0.372874061
0.372874061
0.372874061
0.372874061
0.3728740605
0.372874059
0.3728740516
0.3728740188
0.3728738742
0.3728732455
0.3728705988
0.3728601357
0.3728237827
0.372874061
0.3728740612
0.3728740611
0.3728740612
0.3728740609
0.372874061
0.3728740598
0.3728740552
0.3728740358
0.3728739579
0.3728736529
0.3728725174
0.3728686404
0.3728572505
0.3728322566
0.3728740612
0.3728740612
0.3728740612
0.372874061
0.3728740612
0.3728740609
0.3728740603
0.3728740577
0.3728740478
0.3728740116
0.3728738822
0.3728734521
0.3728721479
0.3728687386
0.3728617569
0.3728740612
0.3728740612
0.372874061
0.3728740611
0.3728740611
0.372874061
0.3728740605
0.3728740589
0.3728740534
0.3728740342
0.3728739721
0.372873784
0.3728732653
0.3728720165
0.3728695311
0.3728740613
0.3728740614
0.3728740613
0.3728740613
0.3728740614
0.3728740612
0.3728740608
0.3728740595
0.3728740556
0.3728740427
0.3728740021
0.3728738852
0.3728735769
0.3728728592
0.3728740612
0.3728740611
0.3728740611
0.3728740611
0.3728740612
0.372874061
0.3728740605
0.3728740587
0.3728740522
0.3728740294
0.3728739525
0.372873713
0.3728730352
0.3728713696
0.3728740612
0.3728740613
0.3728740612
0.3728740611
0.3728740612
0.3728740609
0.3728740601
0.3728740569
0.372874045
0.3728739999
0.3728738357
0.3728732782
0.3728715571
0.3728669963
0.3728740613
0.3728740613
0.3728740612
0.3728740611
0.372874061
0.3728740608
0.3728740597
0.372874055
0.3728740359
0.372873958
0.3728736527
0.3728725173
0.3728686402
0.3728572501
0.3728740612
0.3728740612
0.3728740611
0.3728740611
0.3728740611
0.3728740606
0.3728740594
0.3728740538
0.3728740303
0.3728739304
0.3728735147
0.3728718433
0.372865528
0.372844458
0.3728740611
0.3728740611
0.3728740611
0.3728740611
0.3728740612
0.3728740608
0.3728740597
0.3728740549
0.3728740358
0.372873958
0.3728736529
0.3728725174
0.3728686405
0.3728572502
0.372874061
0.3728740612
0.3728740612
0.3728740613
0.3728740612
0.3728740609
0.3728740601
0.3728740572
0.372874045
0.3728739997
0.3728738358
0.3728732781
0.372871557
0.3728669961
0.3728740612
0.3728740612
0.3728740613
0.3728740611
0.3728740612
0.372874061
0.3728740606
0.3728740588
0.3728740524
0.3728740293
0.3728739527
0.3728737131
0.3728730353
0.3728713694
0.372868041
0.3728740611
0.3728740612
0.3728740612
0.3728740612
0.3728740612
0.3728740611
0.3728740608
0.3728740595
0.3728740556
0.3728740428
0.3728740024
0.3728738853
0.3728735771
0.3728728591
0.3728714406
0.3728740613
0.3728740613
0.3728740614
0.3728740614
0.3728740612
0.3728740612
0.3728740611
0.3728740602
0.3728740576
0.3728740497
0.3728740268
0.3728739625
0.3728738002
0.3728734331
0.372874061
0.3728740612
0.3728740612
0.3728740612
0.3728740612
0.372874061
0.3728740608
0.3728740595
0.3728740558
0.3728740431
0.3728740031
0.3728738863
0.3728735752
0.3728728471
0.372874061
0.3728740612
0.3728740613
0.3728740612
0.3728740612
0.3728740612
0.3728740606
0.3728740588
0.3728740522
0.3728740293
0.3728739526
0.3728737132
0.372873035
0.3728713693
0.372874061
0.3728740613
0.3728740611
0.3728740612
0.3728740611
0.372874061
0.3728740603
0.3728740577
0.3728740479
0.3728740115
0.3728738823
0.372873452
0.3728721475
0.3728687382
0.3728740612
0.3728740613
0.3728740612
0.3728740611
0.3728740611
0.372874061
0.3728740603
0.3728740573
0.3728740456
0.372874001
0.3728738371
0.372873263
0.3728714154
0.3728662507
0.3728740615
0.3728740614
0.3728740612
0.3728740611
0.3728740611
0.3728740607
0.3728740602
0.3728740576
0.3728740479
0.3728740113
0.3728738823
0.372873452
0.3728721477
0.3728687384
0.3728740612
0.3728740612
0.3728740612
0.3728740612
0.3728740611
0.3728740609
0.3728740606
0.3728740587
0.3728740523
0.3728740293
0.3728739524
0.3728737131
0.3728730352
0.3728713694
0.3728740613
0.3728740612
0.3728740612
0.372874061
0.3728740611
0.3728740612
0.372874061
0.3728740597
0.372874056
0.3728740432
0.3728740032
0.3728738862
0.3728735754
0.3728728469
0.3728740612
0.3728740612
0.3728740611
0.3728740613
0.3728740611
0.3728740612
0.372874061
0.3728740601
0.3728740576
0.3728740499
0.3728740267
0.3728739626
0.3728738002
0.3728734332
0.3728727099
0.3728740613
0.3728740613
0.3728740615
0.3728740614
0.3728740612
0.3728740611
0.372874061
0.3728740605
0.3728740588
0.3728740536
0.3728740389
0.3728739998
0.3728739042
0.3728736927
0.3728740614
0.3728740614
0.3728740614
0.3728740612
0.3728740612
0.3728740611
0.3728740609
0.3728740601
0.3728740578
0.3728740498
0.3728740268
0.3728739626
0.3728738003
0.3728734333
0.3728740614
0.3728740612
0.3728740613
0.3728740612
0.3728740612
0.3728740613
0.3728740608
0.3728740598
0.3728740558
0.3728740429
0.3728740024
0.3728738855
0.3728735769
0.3728728589
0.3728740612
0.3728740614
0.3728740611
0.3728740612
0.3728740612
0.3728740611
0.3728740608
0.3728740591
0.3728740536
0.3728740343
0.3728739723
0.3728737841
0.3728732653
0.3728720162
0.3728740613
0.3728740613
0.3728740611
0.3728740612
0.3728740611
0.3728740611
0.3728740605
0.3728740586
0.3728740522
0.3728740298
0.3728739553
0.3728737225
0.3728730599
0.3728714135
0.3728740612
0.3728740613
0.3728740612
0.3728740612
0.3728740612
0.3728740609
0.3728740606
0.3728740591
0.3728740534
0.3728740342
0.3728739722
0.3728737839
0.3728732654
0.3728720164
0.3728740611
0.372874061
0.3728740611
0.3728740611
0.372874061
0.3728740609
0.3728740608
0.3728740597
0.3728740558
0.3728740427
0.3728740023
0.3728738855
0.3728735769
0.3728728591
0.3728740611
0.3728740612
0.3728740613
0.3728740611
0.3728740613
0.3728740611
0.3728740608
0.3728740601
0.3728740575
0.3728740499
0.3728740267
0.3728739626
0.3728738002
0.3728734333
0.3728740611
0.3728740611
0.3728740612
0.3728740612
0.3728740612
0.3728740611
0.3728740609
0.3728740604
0.3728740586
0.3728740535
0.3728740388
0.3728739998
0.3728739042
0.3728736928
)
;

boundaryField
{
    top
    {
        type            calculated;
        value           nonuniform List<scalar> 
134
(
0.372874061
0.3728740609
0.372874061
0.3728740611
0.3728740611
0.3728740612
0.3728740611
0.3728740612
0.3728740611
0.3728740611
0.372874061
0.372874061
0.3728740611
0.372874061
0.3728740612
0.3728740612
0.3728740612
0.3728740611
0.3728740611
0.3728740609
0.3728740609
0.372874061
0.3728740611
0.372874061
0.3728740612
0.3728740611
0.3728740612
0.372874061
0.3728740609
0.3728740609
0.372874061
0.372874061
0.3728740611
0.3728740612
0.3728740613
0.3728740612
0.3728740609
0.3728740609
0.3728740608
0.372874061
0.3728740609
0.3728740611
0.3728740612
0.3728740611
0.3728740612
0.372874061
0.3728740609
0.3728740608
0.3728740609
0.3728740609
0.372874061
0.3728740611
0.3728740612
0.3728740611
0.3728740608
0.3728740608
0.3728740605
0.3728740604
0.3728740603
0.3728740605
0.3728740608
0.372874061
0.3728740609
0.3728740602
0.3728740599
0.3728740594
0.3728740588
0.3728740586
0.3728740589
0.3728740595
0.3728740601
0.3728740604
0.3728740585
0.3728740574
0.3728740554
0.3728740533
0.3728740523
0.3728740534
0.3728740556
0.3728740576
0.3728740586
0.3728740535
0.3728740497
0.3728740425
0.3728740342
0.3728740298
0.3728740342
0.3728740428
0.3728740499
0.3728740535
0.3728740387
0.3728740265
0.3728740023
0.372873972
0.3728739551
0.3728739721
0.3728740024
0.3728740267
0.3728740388
0.3728739996
0.3728739624
0.3728738856
0.372873784
0.3728737225
0.372873784
0.3728738853
0.3728739626
0.3728739998
0.372873904
0.3728738
0.3728735771
0.3728732654
0.3728730599
0.3728732653
0.3728735771
0.3728738002
0.3728739042
0.3728736925
0.372873433
0.3728728591
0.3728720166
0.3728714135
0.3728720165
0.3728728591
0.3728734332
0.3728736928
0.3728732758
0.3728727099
0.3728714408
0.3728695315
0.3728680956
0.3728695311
0.3728714406
0.3728727099
)
;
    }
    bottom
    {
        type            calculated;
        value           nonuniform List<scalar> 
127
(
0.3728740609
0.3728740609
0.3728740611
0.3728740611
0.3728740609
0.3728740613
0.3728740613
0.3728740613
0.3728740613
0.3728740609
0.3728740608
0.372874061
0.372874061
0.3728740609
0.3728740613
0.3728740614
0.3728740613
0.3728740613
0.3728740607
0.3728740608
0.372874061
0.372874061
0.3728740609
0.3728740612
0.3728740613
0.3728740614
0.3728740615
0.3728740608
0.3728740609
0.3728740612
0.372874061
0.372874061
0.3728740611
0.3728740613
0.3728740614
0.3728740614
0.3728740609
0.372874061
0.3728740611
0.3728740611
0.3728740612
0.3728740612
0.3728740614
0.3728740612
0.3728740612
0.3728740609
0.3728740609
0.3728740609
0.3728740609
0.3728740611
0.3728740611
0.3728740612
0.3728740612
0.3728740611
0.3728740606
0.3728740606
0.3728740606
0.3728740606
0.3728740606
0.3728740606
0.3728740608
0.3728740611
0.372874061
0.3728740603
0.3728740599
0.3728740594
0.372874059
0.3728740587
0.372874059
0.3728740595
0.3728740602
0.3728740605
0.3728740586
0.3728740575
0.3728740554
0.3728740534
0.3728740522
0.3728740534
0.3728740556
0.3728740576
0.3728740588
0.3728740535
0.3728740497
0.3728740424
0.3728740343
0.3728740299
0.3728740343
0.3728740427
0.3728740497
0.3728740536
0.3728740387
0.3728740266
0.3728740021
0.372873972
0.3728739552
0.3728739721
0.3728740021
0.3728740268
0.3728740389
0.3728739996
0.3728739623
0.3728738853
0.3728737836
0.3728737224
0.3728737839
0.3728738852
0.3728739625
0.3728739998
0.372873904
0.3728738
0.3728735768
0.3728732651
0.3728730598
0.3728732653
0.3728735769
0.3728738002
0.3728739042
0.3728736927
0.3728734331
0.3728728589
0.3728720162
0.3728714134
0.3728720164
0.3728728592
0.3728734331
0.3728736927
0.3728732758
)
;
    }
    side-walls
    {
        type            calculated;
        value           nonuniform List<scalar> 
261
(
0.3728740609
0.3728740608
0.372874061
0.372874061
0.3728740612
0.3728740611
0.3728740611
0.372874061
0.372874061
0.3728740609
0.3728740608
0.3728740611
0.372874061
0.3728740611
0.372874061
0.372874061
0.3728740609
0.3728740611
0.3728740607
0.3728740609
0.372874061
0.3728740611
0.3728740611
0.3728740609
0.3728740609
0.3728740609
0.3728740611
0.3728740608
0.372874061
0.3728740608
0.372874061
0.3728740611
0.372874061
0.372874061
0.3728740609
0.372874061
0.3728740609
0.3728740609
0.3728740609
0.372874061
0.3728740609
0.3728740611
0.3728740611
0.3728740609
0.3728740609
0.3728740609
0.372874061
0.3728740609
0.372874061
0.372874061
0.372874061
0.372874061
0.372874061
0.372874061
0.3728740606
0.3728740606
0.3728740605
0.3728740605
0.3728740606
0.3728740604
0.3728740606
0.3728740607
0.3728740608
0.3728740603
0.3728740598
0.3728740595
0.3728740589
0.3728740585
0.3728740589
0.3728740594
0.37287406
0.3728740602
0.3728740586
0.3728740573
0.3728740555
0.3728740533
0.3728740522
0.3728740533
0.3728740556
0.3728740576
0.3728740585
0.3728740535
0.3728740495
0.3728740426
0.3728740342
0.3728740295
0.3728740341
0.3728740425
0.3728740497
0.3728740535
0.3728740387
0.3728740263
0.3728740023
0.3728739722
0.3728739549
0.372873972
0.3728740023
0.3728740265
0.3728740387
0.3728739996
0.3728739622
0.3728738852
0.3728737837
0.3728737222
0.3728737839
0.3728738854
0.3728739624
0.3728739996
0.372873904
0.3728738001
0.3728735769
0.3728732653
0.3728730598
0.3728732653
0.3728735771
0.3728738
0.372873904
0.3728736927
0.3728734331
0.3728728589
0.3728720164
0.3728714136
0.3728720165
0.3728728592
0.3728734331
0.3728736925
0.3728732758
0.3728727098
0.3728714407
0.3728695312
0.3728680957
0.3728695312
0.3728714409
0.3728727099
0.3728732758
0.3728740613
0.3728740614
0.3728740614
0.3728740612
0.3728740613
0.3728740612
0.3728740611
0.3728740611
0.3728740611
0.3728740613
0.3728740614
0.3728740612
0.3728740614
0.3728740613
0.3728740613
0.372874061
0.3728740612
0.3728740611
0.3728740615
0.3728740614
0.3728740613
0.3728740611
0.3728740611
0.3728740612
0.3728740611
0.3728740613
0.3728740612
0.3728740614
0.3728740612
0.3728740612
0.3728740612
0.3728740612
0.3728740612
0.3728740611
0.3728740611
0.3728740612
0.3728740612
0.3728740612
0.3728740612
0.3728740612
0.3728740611
0.3728740612
0.372874061
0.3728740613
0.3728740612
0.3728740611
0.3728740611
0.3728740613
0.3728740611
0.3728740611
0.3728740609
0.3728740609
0.3728740611
0.3728740611
0.372874061
0.3728740609
0.3728740608
0.3728740608
0.3728740605
0.3728740606
0.3728740608
0.3728740608
0.3728740609
0.3728740605
0.3728740601
0.3728740598
0.3728740591
0.3728740586
0.3728740591
0.3728740597
0.3728740601
0.3728740604
0.3728740588
0.3728740578
0.3728740558
0.3728740536
0.3728740522
0.3728740534
0.3728740558
0.3728740575
0.3728740586
0.3728740536
0.3728740498
0.3728740429
0.3728740343
0.3728740298
0.3728740342
0.3728740427
0.3728740499
0.3728740535
0.3728740389
0.3728740268
0.3728740024
0.3728739723
0.3728739553
0.3728739722
0.3728740023
0.3728740267
0.3728740388
0.3728739998
0.3728739626
0.3728738855
0.3728737841
0.3728737225
0.3728737839
0.3728738855
0.3728739626
0.3728739998
0.3728739042
0.3728738003
0.3728735769
0.3728732653
0.3728730599
0.3728732654
0.3728735769
0.3728738002
0.3728739042
0.3728736927
0.3728734333
0.3728728589
0.3728720162
0.3728714135
0.3728720164
0.3728728591
0.3728734333
0.3728736928
)
;
    }
    inlet
    {
        type            calculated;
        value           nonuniform List<scalar> 
81
(
0.3728740609
0.3728740608
0.372874061
0.372874061
0.3728740612
0.3728740611
0.3728740611
0.372874061
0.372874061
0.3728740609
0.3728740609
0.372874061
0.3728740613
0.372874061
0.372874061
0.3728740609
0.3728740611
0.3728740609
0.3728740611
0.3728740608
0.372874061
0.3728740611
0.372874061
0.372874061
0.3728740608
0.372874061
0.372874061
0.3728740611
0.3728740609
0.372874061
0.3728740611
0.3728740612
0.3728740609
0.372874061
0.372874061
0.3728740611
0.3728740609
0.372874061
0.3728740613
0.3728740612
0.372874061
0.3728740611
0.3728740611
0.3728740612
0.3728740611
0.3728740613
0.3728740612
0.3728740611
0.3728740612
0.3728740611
0.3728740611
0.372874061
0.3728740612
0.3728740612
0.3728740613
0.3728740612
0.3728740612
0.3728740613
0.3728740612
0.3728740611
0.372874061
0.3728740612
0.3728740611
0.3728740613
0.372874061
0.372874061
0.372874061
0.3728740612
0.3728740615
0.3728740612
0.3728740613
0.3728740612
0.3728740613
0.3728740614
0.3728740614
0.3728740612
0.3728740613
0.3728740612
0.3728740611
0.3728740611
0.3728740611
)
;
    }
    outlet
    {
        type            calculated;
        value           nonuniform 0();
    }
    procBoundary0to1
    {
        type            processor;
        value           nonuniform List<scalar> 
97
(
0.3728725496
0.3728727099
0.3728714851
0.3728691303
0.3728656737
0.3728632008
0.3728656737
0.3728691303
0.3728714853
0.3728725498
0.3728727099
0.3728727099
0.3728690802
0.3728680408
0.3728630194
0.372852227
0.3728420236
0.372852227
0.3728630194
0.3728690802
0.372871485
0.3728714407
0.3728680408
0.3728680408
0.3728450804
0.3728322562
0.372805099
0.3727526248
0.3728051002
0.3728450809
0.3728630197
0.3728691304
0.372869531
0.3728617565
0.3728322562
0.3728322562
0.3726677711
0.3724459195
0.3723976713
0.3726677739
0.3728050998
0.3728522273
0.3728656737
0.3728680955
0.3728551849
0.3727920059
0.3724459195
0.3724459195
0.3712326371
0.3724459199
0.3723976717
0.3727308161
0.3727526247
0.3728420235
0.3728632007
0.372869531
0.3728617569
0.3728322571
0.3727308171
0.3724459199
0.3727308161
0.3727308161
0.3728050993
0.3728576175
0.3728522269
0.3728656737
0.3728714407
0.3728680413
0.372857618
0.3728322573
0.3727920062
0.3728322573
0.3728576175
0.3728576175
0.3728630194
0.3728714067
0.3728691302
0.37287271
0.3728714066
0.3728680411
0.3728617571
0.3728551849
0.372861757
0.3728680413
0.3728714067
0.3728714067
0.3728714852
0.372873276
0.3728732761
0.37287271
0.3728714408
0.3728695311
0.3728680955
0.3728695313
0.3728714411
0.3728727101
0.372873276
)
;
    }
}


// ************************************************************************* //
