/*--------------------------------*- C++ -*----------------------------------*\
| =========                 |                                                 |
| \\      /  F ield         | OpenFOAM: The Open Source CFD Toolbox           |
|  \\    /   O peration     | Version:  4.x                                   |
|   \\  /    A nd           | Web:      www.OpenFOAM.org                      |
|    \\/     M anipulation  |                                                 |
\*---------------------------------------------------------------------------*/
FoamFile
{
    version     2.0;
    format      ascii;
    class       volScalarField;
    location    "10000";
    object      X_CO2;
}
// * * * * * * * * * * * * * * * * * * * * * * * * * * * * * * * * * * * * * //

dimensions      [0 0 0 0 0 0 0];

internalField   nonuniform List<scalar> 
1175
(
0.004151311243
0.004151311325
0.004151311921
0.004151311585
0.004151311418
0.004151311231
0.004151311634
0.004151311713
0.004151313301
0.004151318473
0.004151333227
0.004151372466
0.004151468052
0.004151679246
0.004152096634
0.004151311594
0.004151311552
0.004151311334
0.004151311116
0.00415131118
0.004151311056
0.004151311741
0.004151312605
0.004151315139
0.004151322696
0.004151346064
0.004151410084
0.004151571804
0.004151938993
0.004152662807
0.00415131118
0.004151310812
0.004151310986
0.004151311569
0.004151311393
0.004151311259
0.004151311588
0.004151312403
0.004151316609
0.004151329437
0.004151369684
0.004151487085
0.004151795129
0.004152513447
0.004153931967
0.004151311009
0.004151310956
0.004151310901
0.004151311189
0.004151310928
0.00415131079
0.004151311353
0.004151313046
0.004151318665
0.004151337762
0.004151399547
0.004151588402
0.004152106725
0.004153356078
0.00415584159
0.00415131061
0.004151310852
0.004151310784
0.004151310805
0.00415131128
0.004151310731
0.004151311111
0.004151313757
0.004151319829
0.00415134284
0.0041514175
0.004151650066
0.004152312298
0.004153958755
0.004157277394
0.00415131093
0.004151311168
0.0041513113
0.004151310934
0.004151310646
0.004151310916
0.004151311655
0.004151312941
0.004151318693
0.004151338071
0.004151400198
0.004151588088
0.004152106848
0.004153355617
0.004155841756
0.004151310914
0.00415131098
0.004151311311
0.004151311116
0.004151310788
0.00415131089
0.004151311444
0.004151312631
0.004151316281
0.004151329701
0.004151369692
0.00415148667
0.004151794675
0.004152512873
0.004153931492
0.004151311193
0.004151311384
0.004151311412
0.004151311468
0.004151311255
0.004151311011
0.004151311336
0.004151311849
0.004151314363
0.00415132232
0.004151345577
0.004151409519
0.004151572143
0.004151939107
0.004152662558
0.004151311074
0.004151310905
0.004151310896
0.004151310997
0.004151311292
0.004151311035
0.004151311223
0.004151311828
0.004151313517
0.004151318351
0.004151333359
0.004151372468
0.004151468228
0.004151679855
0.004152096749
0.004151311324
0.004151311519
0.004151311668
0.004151311409
0.00415131114
0.004151311111
0.004151311554
0.004151312252
0.004151314468
0.00415132229
0.004151345241
0.004151409871
0.004151572302
0.004151939065
0.004151311275
0.004151311527
0.00415131148
0.004151311248
0.004151311035
0.004151311333
0.004151311347
0.004151312816
0.004151316721
0.004151329557
0.004151368939
0.004151485847
0.00415179716
0.004152525237
0.004153965938
0.004151310952
0.004151310682
0.004151310823
0.004151310732
0.004151311142
0.004151310884
0.004151311698
0.004151313209
0.004151320418
0.004151343222
0.00415142019
0.004151659522
0.004152337199
0.004154002928
0.004157332181
0.004151310402
0.004151311131
0.004151310923
0.004151311207
0.0041513108
0.004151311228
0.00415131187
0.004151314525
0.004151324491
0.004151360957
0.004151490209
0.004151920742
0.004153224927
0.004156634912
0.004163617417
0.004151311167
0.004151311121
0.004151310757
0.004151310734
0.004151310945
0.004151310969
0.004151311863
0.004151314992
0.004151326376
0.004151371351
0.004151535082
0.004152109248
0.004153956677
0.004159121916
0.004170189473
0.004151311072
0.004151310959
0.004151310448
0.004151310992
0.004151311369
0.004151310847
0.004151311468
0.004151314507
0.004151324094
0.004151361011
0.004151489963
0.004151920552
0.004153224979
0.00415663453
0.004163616816
0.004151311427
0.004151311284
0.004151311514
0.004151311319
0.004151311182
0.00415131096
0.00415131157
0.004151313515
0.004151319785
0.004151342712
0.004151419613
0.004151658636
0.004152337064
0.004154003195
0.004157332166
0.004151310814
0.004151310935
0.004151311209
0.004151311334
0.004151311185
0.004151310886
0.004151311501
0.004151312432
0.004151316264
0.004151329283
0.004151369148
0.004151485976
0.004151797435
0.004152525773
0.004153966171
0.004151311225
0.004151311124
0.004151311418
0.004151311377
0.004151311348
0.004151311251
0.004151311169
0.004151312144
0.004151314675
0.004151322271
0.004151345494
0.004151409495
0.004151572187
0.004151939318
0.004152662552
0.00415131093
0.00415131111
0.004151311134
0.00415131058
0.004151310725
0.00415131104
0.00415131139
0.004151312801
0.004151316739
0.004151329895
0.004151370094
0.004151486899
0.004151795455
0.004152513601
0.004151311582
0.004151311152
0.004151310875
0.004151311322
0.0041513109
0.004151311388
0.00415131156
0.004151313844
0.004151320325
0.004151343134
0.004151419706
0.004151659641
0.004152337503
0.0041540034
0.004151311162
0.004151311452
0.004151311097
0.004151310835
0.0041513109
0.004151311022
0.004151311956
0.004151315146
0.004151327463
0.004151372495
0.00415153677
0.004152095054
0.004153815832
0.004158376816
0.00416775825
0.004151310706
0.004151310839
0.004151310538
0.004151310697
0.004151310656
0.00415131101
0.004151312126
0.004151316922
0.00415133666
0.004151414444
0.004151719617
0.00415285523
0.004156731894
0.004168123665
0.004193121067
0.004151310988
0.004151310823
0.004151310526
0.004151311195
0.004151310682
0.004151310825
0.004151312867
0.004151318234
0.00415134164
0.004151441589
0.004151857404
0.004153528967
0.004159844305
0.004180914375
0.004233372721
0.004151311047
0.004151311287
0.004151311048
0.00415131101
0.004151311094
0.004151311013
0.00415131238
0.004151317224
0.004151336095
0.004151413761
0.004151719385
0.00415285498
0.004156731975
0.004168122611
0.004193119719
0.00415131174
0.004151311426
0.00415131108
0.004151311291
0.004151311219
0.004151311353
0.004151311973
0.004151315094
0.004151327309
0.004151372454
0.004151536404
0.004152094035
0.004153815449
0.004158376699
0.004167757204
0.004151310984
0.004151311211
0.004151311438
0.004151311319
0.004151311271
0.00415131129
0.004151311602
0.004151313654
0.004151319823
0.004151343187
0.004151419613
0.004151658977
0.004152336765
0.004154003099
0.004157332358
0.004151310976
0.004151311145
0.00415131141
0.004151311219
0.004151311466
0.004151311313
0.004151311761
0.00415131266
0.004151316728
0.004151329731
0.004151369533
0.004151486063
0.004151794733
0.004152513155
0.004153931765
0.004151310856
0.004151311014
0.004151311038
0.004151310983
0.004151310861
0.004151311147
0.004151311148
0.004151312888
0.004151318428
0.004151337524
0.004151400142
0.004151588741
0.004152107172
0.0041533563
0.004151311244
0.004151310945
0.004151311245
0.004151310642
0.004151310782
0.004151311275
0.004151311718
0.004151314663
0.004151324176
0.004151360823
0.004151489875
0.00415192065
0.004153224639
0.004156634987
0.004151311027
0.004151310662
0.004151310792
0.004151310896
0.004151311072
0.004151311452
0.004151312718
0.004151317131
0.004151336627
0.004151414024
0.004151719121
0.004152854934
0.004156732614
0.004168124928
0.00415131074
0.004151310586
0.004151310184
0.004151310787
0.00415131087
0.004151311284
0.004151313348
0.004151320397
0.00415135341
0.00415149818
0.00415212664
0.004154773437
0.00416523777
0.004201594157
0.004294577127
0.004151310519
0.004151310922
0.004151310819
0.004151310276
0.004151310827
0.004151311463
0.004151313385
0.004151322143
0.004151364619
0.00415156144
0.004152493693
0.004156914892
0.004177513995
0.00426738783
0.00457946235
0.004151311252
0.004151311263
0.004151310945
0.004151310396
0.004151310663
0.004151311238
0.004151312843
0.004151320543
0.004151353053
0.004151497633
0.004152126529
0.004154773645
0.00416523677
0.004201591138
0.00429456576
0.004151311108
0.004151311046
0.004151310702
0.004151310866
0.004151310593
0.004151310852
0.004151312266
0.004151317196
0.004151336511
0.004151414128
0.004151719095
0.004152854476
0.004156732082
0.004168122997
0.004193120312
0.004151311143
0.004151311254
0.004151311125
0.004151311088
0.004151310903
0.004151310981
0.004151311914
0.004151314013
0.004151324123
0.004151360612
0.004151489868
0.004151920228
0.004153224547
0.004156634315
0.004163617537
0.004151310877
0.004151310877
0.004151311139
0.004151311152
0.004151311033
0.004151311158
0.004151311573
0.004151313309
0.00415131874
0.004151337717
0.004151400039
0.004151587811
0.004152106539
0.004153355418
0.004155841008
0.00415131124
0.004151311256
0.004151311241
0.004151311046
0.004151310606
0.004151310629
0.004151311139
0.004151313267
0.004151319771
0.004151341782
0.004151416625
0.004151649623
0.004152312313
0.004153959277
0.004151311161
0.004151310684
0.004151310411
0.004151310881
0.004151310763
0.004151310673
0.004151311708
0.004151314553
0.004151326377
0.004151370847
0.004151534926
0.004152109035
0.004153956935
0.004159122767
0.004151310285
0.004151310518
0.004151311013
0.004151310788
0.004151310884
0.004151311366
0.004151312316
0.004151318039
0.004151341474
0.004151441478
0.004151857291
0.004153528702
0.004159844911
0.004180918762
0.004151310636
0.004151310131
0.00415131071
0.004151311312
0.004151310998
0.004151311586
0.004151313231
0.004151322617
0.00415136424
0.004151561014
0.004152493677
0.004156915241
0.004177515865
0.004267400208
0.004151311052
0.004151311103
0.004151310789
0.004151310484
0.004151310828
0.004151311343
0.004151313987
0.004151324984
0.004151380631
0.004151663373
0.004153173888
0.004161726903
0.004213474027
0.004550347087
0.006923369274
0.004151310893
0.004151310999
0.004151310852
0.004151310884
0.00415131108
0.004151311786
0.004151313722
0.004151322368
0.004151364127
0.004151561059
0.004152493391
0.004156915032
0.004177515174
0.004267389978
0.004579463891
0.004151310782
0.004151310689
0.004151310611
0.00415131058
0.004151310599
0.004151311154
0.004151312214
0.004151317963
0.004151341693
0.004151441235
0.004151857085
0.004153528493
0.004159844858
0.004180915531
0.004233372977
0.004151310501
0.004151310611
0.004151310758
0.004151310997
0.004151310703
0.004151311024
0.004151312291
0.004151314836
0.004151326355
0.004151370586
0.004151535176
0.00415210942
0.004153956725
0.004159122079
0.004170189803
0.004151310857
0.004151311015
0.004151310911
0.004151311146
0.004151311244
0.004151311041
0.004151311741
0.004151313428
0.004151319568
0.004151342141
0.004151416879
0.004151649198
0.004152312023
0.004153958828
0.004157277619
0.004151310396
0.004151310282
0.004151310564
0.004151310666
0.004151310569
0.00415131052
0.004151311059
0.004151312886
0.004151318497
0.004151337411
0.004151399853
0.004151587969
0.004152106838
0.004153355922
0.004151310467
0.004151310338
0.004151310263
0.004151310871
0.004151310497
0.0041513108
0.004151311433
0.004151313836
0.004151323986
0.004151360653
0.00415148975
0.004151920534
0.004153224378
0.004156634582
0.004151310731
0.004151310104
0.004151310159
0.004151310087
0.004151310791
0.0041513113
0.004151312551
0.004151317171
0.004151336411
0.004151414572
0.00415171906
0.004152855059
0.00415673262
0.004168124997
0.004151310435
0.004151310458
0.004151310327
0.004151310641
0.004151311189
0.004151311431
0.004151312951
0.004151320333
0.00415135276
0.004151497497
0.004152126443
0.004154773767
0.004165238447
0.004201597312
0.004151310918
0.004151310882
0.004151311236
0.004151310854
0.004151310885
0.004151310976
0.004151313315
0.004151322398
0.004151364201
0.004151561121
0.004152493624
0.004156914893
0.004177516038
0.004267401802
0.004151310872
0.004151311151
0.004151311135
0.004151311039
0.004151311021
0.004151311497
0.004151312835
0.004151320177
0.004151353111
0.004151497511
0.004152126348
0.004154773437
0.00416523793
0.004201596534
0.004151311185
0.004151310656
0.004151310714
0.004151310458
0.004151311101
0.004151310577
0.004151311724
0.004151316459
0.004151335955
0.004151413943
0.004151718693
0.004152854566
0.004156732479
0.004168124225
0.004193123283
0.004151310503
0.004151310512
0.004151310607
0.004151311077
0.00415131053
0.004151310986
0.004151311352
0.004151314041
0.004151324056
0.004151360063
0.004151489665
0.004151919458
0.004153223976
0.00415663413
0.004163617455
0.004151310662
0.00415131056
0.004151311047
0.004151310804
0.004151310837
0.004151310899
0.004151311547
0.004151313015
0.004151318343
0.004151337825
0.004151399668
0.004151587787
0.004152106752
0.004153355623
0.00415584198
0.004151310177
0.004151310058
0.00415131038
0.004151310267
0.004151310046
0.004151310379
0.004151310929
0.004151312409
0.004151316133
0.004151329027
0.00415137026
0.004151487175
0.004151795224
0.004152512847
0.00415131055
0.004151310736
0.004151310836
0.004151310729
0.004151310555
0.004151310883
0.004151311366
0.004151313226
0.00415131955
0.004151342211
0.004151419289
0.00415165899
0.004152336886
0.004154002526
0.004151310596
0.004151310306
0.004151310453
0.004151310871
0.004151310416
0.004151311021
0.004151311792
0.004151315075
0.004151327059
0.004151371846
0.004151536186
0.004152093716
0.004153815095
0.004158376879
0.004151310345
0.004151310203
0.004151310606
0.004151310853
0.004151311036
0.004151311035
0.004151312101
0.004151316848
0.004151335833
0.004151413673
0.004151719291
0.004152854898
0.004156732884
0.004168125084
0.004151310491
0.004151310662
0.004151310779
0.004151310793
0.004151310622
0.004151311376
0.004151312417
0.004151318181
0.004151341493
0.004151441348
0.004151857008
0.004153528853
0.004159845191
0.004180918875
0.004151310725
0.004151310743
0.00415131078
0.004151310861
0.004151310482
0.004151311132
0.00415131215
0.004151317186
0.004151336048
0.004151413713
0.004151718741
0.004152854627
0.004156732129
0.004168124945
0.004151310986
0.004151310511
0.004151310572
0.004151310367
0.004151310438
0.00415131095
0.004151311649
0.004151314506
0.004151326978
0.004151372414
0.004151535872
0.004152093945
0.004153815487
0.004158377399
0.004151310606
0.004151310621
0.004151310193
0.004151310671
0.00415131041
0.004151310775
0.004151310957
0.004151312771
0.004151319036
0.004151342508
0.004151418934
0.004151658782
0.004152336517
0.004154003132
0.004157332498
0.004151310692
0.004151310512
0.004151310543
0.00415131061
0.004151310538
0.004151310488
0.004151310909
0.004151312455
0.004151316301
0.004151328854
0.004151369307
0.004151486713
0.004151794806
0.004152512892
0.004153932166
0.004151310333
0.004151310183
0.004151309932
0.004151310113
0.004151310389
0.00415131036
0.004151310374
0.004151311352
0.004151314097
0.004151322163
0.004151344859
0.004151409337
0.004151571681
0.004151938989
0.004151310983
0.004151310565
0.004151310575
0.004151310464
0.004151310467
0.004151310967
0.004151310809
0.004151312428
0.004151315844
0.004151328664
0.00415136861
0.004151485487
0.004151796671
0.004152524721
0.004151310977
0.004151310529
0.004151310266
0.00415131053
0.004151310432
0.004151310194
0.004151310961
0.004151312851
0.004151319629
0.004151342342
0.004151418966
0.004151658528
0.004152337204
0.004154003359
0.004151310976
0.004151310277
0.004151310787
0.004151310517
0.004151310841
0.004151310661
0.004151311346
0.004151314126
0.004151323786
0.004151360108
0.004151489489
0.004151919912
0.004153224961
0.004156634969
0.00415131047
0.004151310327
0.004151310627
0.004151310736
0.00415131062
0.004151310686
0.004151311267
0.004151314344
0.004151326028
0.004151370895
0.004151534626
0.004152109166
0.004153956872
0.004159122615
0.004151309834
0.004151309973
0.004151310539
0.004151310768
0.004151310755
0.004151311458
0.004151311623
0.004151314441
0.00415132387
0.004151360618
0.004151489368
0.004151919773
0.004153224538
0.004156634558
0.004151310678
0.004151310534
0.004151310653
0.004151310484
0.004151310801
0.004151310965
0.004151310987
0.004151313027
0.004151319364
0.004151342425
0.004151419614
0.004151658771
0.004152336844
0.00415400301
0.00415131025
0.00415131051
0.004151310671
0.004151311016
0.004151310695
0.004151310301
0.004151310488
0.00415131205
0.004151315378
0.004151328357
0.004151368409
0.0041514857
0.004151796243
0.004152525192
0.00415131051
0.004151310659
0.004151310718
0.004151310373
0.004151310874
0.004151310425
0.004151310519
0.004151311742
0.004151314299
0.004151321884
0.004151345101
0.004151409006
0.004151571544
0.004151938819
0.004152662429
0.004151310202
0.004151310156
0.004151309833
0.004151310136
0.004151310647
0.004151310577
0.004151310646
0.004151311116
0.00415131287
0.004151318133
0.00415133287
0.004151371974
0.004151467558
0.004151679312
0.004151310143
0.004151310009
0.004151310117
0.004151310583
0.004151310405
0.004151310667
0.004151310846
0.004151311647
0.00415131367
0.004151321899
0.004151344815
0.004151409019
0.004151571457
0.004151938637
0.004151310093
0.00415131053
0.004151310177
0.004151310505
0.004151310418
0.00415130998
0.004151310803
0.004151311623
0.004151315853
0.004151328582
0.004151369354
0.004151486397
0.004151795086
0.004152513449
0.004151310495
0.004151310038
0.004151310708
0.004151310488
0.004151310442
0.004151310631
0.004151310742
0.004151312625
0.004151317953
0.004151337358
0.004151399318
0.004151587309
0.004152106622
0.004153356414
0.004151310395
0.004151310239
0.0041513107
0.004151310646
0.004151310703
0.004151310598
0.004151311201
0.004151313295
0.004151319881
0.00415134199
0.004151416453
0.004151649298
0.004152312129
0.004153958882
0.004151310508
0.004151310178
0.004151310467
0.004151310661
0.004151310475
0.00415131121
0.004151311163
0.004151312648
0.004151318415
0.004151337711
0.004151399405
0.004151587952
0.004152106422
0.004153355872
0.004151310884
0.00415131095
0.004151310721
0.004151310728
0.004151310909
0.004151311194
0.004151310894
0.004151311786
0.00415131561
0.004151329112
0.004151369626
0.00415148626
0.004151795221
0.004152513115
0.004151310806
0.004151310509
0.004151310324
0.004151310678
0.004151310369
0.004151310745
0.004151311027
0.004151311733
0.004151314373
0.004151321764
0.004151345007
0.004151409112
0.004151571587
0.004151938627
0.00415131073
0.004151310771
0.004151310484
0.004151310531
0.004151310562
0.004151310573
0.004151311073
0.00415131143
0.004151313211
0.004151318403
0.004151332987
0.00415137191
0.004151467603
0.004151679043
)
;

boundaryField
{
    top
    {
        type            calculated;
        value           nonuniform List<scalar> 
134
(
0.004151311074
0.004151311225
0.004151310976
0.004151310877
0.004151310857
0.004151310662
0.004151310692
0.00415131051
0.00415131073
0.004151310905
0.004151311124
0.004151311145
0.004151310877
0.004151311015
0.00415131056
0.004151310512
0.004151310659
0.004151310771
0.004151310896
0.004151311418
0.00415131141
0.004151311139
0.004151310911
0.004151311047
0.004151310543
0.004151310718
0.004151310484
0.004151310997
0.004151311377
0.004151311219
0.004151311152
0.004151311146
0.004151310804
0.00415131061
0.004151310373
0.004151310531
0.004151311292
0.004151311348
0.004151311466
0.004151311033
0.004151311244
0.004151310837
0.004151310538
0.004151310874
0.004151310562
0.004151311035
0.004151311251
0.004151311313
0.004151311158
0.004151311041
0.004151310899
0.004151310488
0.004151310425
0.004151310573
0.004151311223
0.004151311169
0.004151311761
0.004151311573
0.004151311741
0.004151311547
0.004151310909
0.004151310519
0.004151311073
0.004151311828
0.004151312144
0.00415131266
0.004151313309
0.004151313428
0.004151313015
0.004151312455
0.004151311742
0.00415131143
0.004151313517
0.004151314675
0.004151316728
0.00415131874
0.004151319568
0.004151318343
0.004151316301
0.004151314299
0.004151313211
0.004151318351
0.004151322271
0.004151329731
0.004151337717
0.004151342141
0.004151337825
0.004151328854
0.004151321884
0.004151318403
0.004151333359
0.004151345494
0.004151369533
0.004151400039
0.004151416879
0.004151399668
0.004151369307
0.004151345101
0.004151332987
0.004151372468
0.004151409495
0.004151486063
0.004151587811
0.004151649198
0.004151587787
0.004151486713
0.004151409006
0.00415137191
0.004151468228
0.004151572187
0.004151794733
0.004152106539
0.004152312023
0.004152106752
0.004151794806
0.004151571544
0.004151467603
0.004151679855
0.004151939318
0.004152513155
0.004153355418
0.004153958828
0.004153355623
0.004152512892
0.004151938819
0.004151679043
0.004152096749
0.004152662552
0.004153931765
0.004155841008
0.004157277619
0.00415584198
0.004153932166
0.004152662429
)
;
    }
    bottom
    {
        type            calculated;
        value           nonuniform List<scalar> 
127
(
0.004151311243
0.004151311324
0.00415131093
0.004151310856
0.00415131124
0.004151310396
0.004151310177
0.004151310333
0.004151310202
0.004151311325
0.004151311519
0.00415131111
0.004151311014
0.004151311256
0.004151310282
0.004151310058
0.004151310183
0.004151310156
0.004151311921
0.004151311668
0.004151311134
0.004151311038
0.004151311241
0.004151310564
0.00415131038
0.004151309932
0.004151309833
0.004151311585
0.004151311409
0.00415131058
0.004151310983
0.004151311046
0.004151310666
0.004151310267
0.004151310113
0.004151310136
0.004151311418
0.00415131114
0.004151310725
0.004151310861
0.004151310606
0.004151310569
0.004151310046
0.004151310389
0.004151310647
0.004151311231
0.004151311111
0.00415131104
0.004151311147
0.004151310629
0.00415131052
0.004151310379
0.00415131036
0.004151310577
0.004151311634
0.004151311554
0.00415131139
0.004151311148
0.004151311139
0.004151311059
0.004151310929
0.004151310374
0.004151310646
0.004151311713
0.004151312252
0.004151312801
0.004151312888
0.004151313267
0.004151312886
0.004151312409
0.004151311352
0.004151311116
0.004151313301
0.004151314468
0.004151316739
0.004151318428
0.004151319771
0.004151318497
0.004151316133
0.004151314097
0.00415131287
0.004151318473
0.00415132229
0.004151329895
0.004151337524
0.004151341782
0.004151337411
0.004151329027
0.004151322163
0.004151318133
0.004151333227
0.004151345241
0.004151370094
0.004151400142
0.004151416625
0.004151399853
0.00415137026
0.004151344859
0.00415133287
0.004151372466
0.004151409871
0.004151486899
0.004151588741
0.004151649623
0.004151587969
0.004151487175
0.004151409337
0.004151371974
0.004151468052
0.004151572302
0.004151795455
0.004152107172
0.004152312313
0.004152106838
0.004151795224
0.004151571681
0.004151467558
0.004151679246
0.004151939065
0.004152513601
0.0041533563
0.004153959277
0.004153355922
0.004152512847
0.004151938989
0.004151679312
0.004152096634
)
;
    }
    side-walls
    {
        type            calculated;
        value           nonuniform List<scalar> 
261
(
0.004151311243
0.004151311594
0.00415131118
0.004151311009
0.00415131061
0.00415131093
0.004151310914
0.004151311193
0.004151311074
0.004151311325
0.004151311552
0.004151310812
0.004151310956
0.004151310852
0.004151311168
0.00415131098
0.004151311384
0.004151310905
0.004151311921
0.004151311334
0.004151310986
0.004151310901
0.004151310784
0.0041513113
0.004151311311
0.004151311412
0.004151310896
0.004151311585
0.004151311116
0.004151311569
0.004151311189
0.004151310805
0.004151310934
0.004151311116
0.004151311468
0.004151310997
0.004151311418
0.00415131118
0.004151311393
0.004151310928
0.00415131128
0.004151310646
0.004151310788
0.004151311255
0.004151311292
0.004151311231
0.004151311056
0.004151311259
0.00415131079
0.004151310731
0.004151310916
0.00415131089
0.004151311011
0.004151311035
0.004151311634
0.004151311741
0.004151311588
0.004151311353
0.004151311111
0.004151311655
0.004151311444
0.004151311336
0.004151311223
0.004151311713
0.004151312605
0.004151312403
0.004151313046
0.004151313757
0.004151312941
0.004151312631
0.004151311849
0.004151311828
0.004151313301
0.004151315139
0.004151316609
0.004151318665
0.004151319829
0.004151318693
0.004151316281
0.004151314363
0.004151313517
0.004151318473
0.004151322696
0.004151329437
0.004151337762
0.00415134284
0.004151338071
0.004151329701
0.00415132232
0.004151318351
0.004151333227
0.004151346064
0.004151369684
0.004151399547
0.0041514175
0.004151400198
0.004151369692
0.004151345577
0.004151333359
0.004151372466
0.004151410084
0.004151487085
0.004151588402
0.004151650066
0.004151588088
0.00415148667
0.004151409519
0.004151372468
0.004151468052
0.004151571804
0.004151795129
0.004152106725
0.004152312298
0.004152106848
0.004151794675
0.004151572143
0.004151468228
0.004151679246
0.004151938993
0.004152513447
0.004153356078
0.004153958755
0.004153355617
0.004152512873
0.004151939107
0.004151679855
0.004152096634
0.004152662807
0.004153931967
0.00415584159
0.004157277394
0.004155841756
0.004153931492
0.004152662558
0.004152096749
0.004151310202
0.004151310143
0.004151310093
0.004151310495
0.004151310395
0.004151310508
0.004151310884
0.004151310806
0.00415131073
0.004151310156
0.004151310009
0.00415131053
0.004151310038
0.004151310239
0.004151310178
0.00415131095
0.004151310509
0.004151310771
0.004151309833
0.004151310117
0.004151310177
0.004151310708
0.0041513107
0.004151310467
0.004151310721
0.004151310324
0.004151310484
0.004151310136
0.004151310583
0.004151310505
0.004151310488
0.004151310646
0.004151310661
0.004151310728
0.004151310678
0.004151310531
0.004151310647
0.004151310405
0.004151310418
0.004151310442
0.004151310703
0.004151310475
0.004151310909
0.004151310369
0.004151310562
0.004151310577
0.004151310667
0.00415130998
0.004151310631
0.004151310598
0.00415131121
0.004151311194
0.004151310745
0.004151310573
0.004151310646
0.004151310846
0.004151310803
0.004151310742
0.004151311201
0.004151311163
0.004151310894
0.004151311027
0.004151311073
0.004151311116
0.004151311647
0.004151311623
0.004151312625
0.004151313295
0.004151312648
0.004151311786
0.004151311733
0.00415131143
0.00415131287
0.00415131367
0.004151315853
0.004151317953
0.004151319881
0.004151318415
0.00415131561
0.004151314373
0.004151313211
0.004151318133
0.004151321899
0.004151328582
0.004151337358
0.00415134199
0.004151337711
0.004151329112
0.004151321764
0.004151318403
0.00415133287
0.004151344815
0.004151369354
0.004151399318
0.004151416453
0.004151399405
0.004151369626
0.004151345007
0.004151332987
0.004151371974
0.004151409019
0.004151486397
0.004151587309
0.004151649298
0.004151587952
0.00415148626
0.004151409112
0.00415137191
0.004151467558
0.004151571457
0.004151795086
0.004152106622
0.004152312129
0.004152106422
0.004151795221
0.004151571587
0.004151467603
0.004151679312
0.004151938637
0.004152513449
0.004153356414
0.004153958882
0.004153355872
0.004152513115
0.004151938627
0.004151679043
)
;
    }
    inlet
    {
        type            calculated;
        value           nonuniform List<scalar> 
81
(
0.004151311243
0.004151311594
0.00415131118
0.004151311009
0.00415131061
0.00415131093
0.004151310914
0.004151311193
0.004151311074
0.004151311324
0.004151311275
0.004151310952
0.004151310402
0.004151311167
0.004151311072
0.004151311427
0.004151310814
0.004151311225
0.00415131093
0.004151311582
0.004151311162
0.004151310706
0.004151310988
0.004151311047
0.00415131174
0.004151310984
0.004151310976
0.004151310856
0.004151311244
0.004151311027
0.00415131074
0.004151310519
0.004151311252
0.004151311108
0.004151311143
0.004151310877
0.00415131124
0.004151311161
0.004151310285
0.004151310636
0.004151311052
0.004151310893
0.004151310782
0.004151310501
0.004151310857
0.004151310396
0.004151310467
0.004151310731
0.004151310435
0.004151310918
0.004151310872
0.004151311185
0.004151310503
0.004151310662
0.004151310177
0.00415131055
0.004151310596
0.004151310345
0.004151310491
0.004151310725
0.004151310986
0.004151310606
0.004151310692
0.004151310333
0.004151310983
0.004151310977
0.004151310976
0.00415131047
0.004151309834
0.004151310678
0.00415131025
0.00415131051
0.004151310202
0.004151310143
0.004151310093
0.004151310495
0.004151310395
0.004151310508
0.004151310884
0.004151310806
0.00415131073
)
;
    }
    outlet
    {
        type            calculated;
        value           nonuniform 0();
    }
    procBoundary0to1
    {
        type            processor;
        value           nonuniform List<scalar> 
97
(
0.004152823243
0.004152662571
0.004153887983
0.004156243015
0.004159700239
0.004162173602
0.004159700461
0.004156243017
0.004153887453
0.004152822729
0.004152662571
0.004152662571
0.004156293289
0.004157332817
0.004162355417
0.004173149799
0.004183354611
0.004173150002
0.004162355652
0.004156293206
0.004153888066
0.004153932056
0.004157332817
0.004157332817
0.004180298015
0.004193124202
0.004220285931
0.004272765828
0.004220283889
0.004180297348
0.004162354662
0.004156242838
0.004155842083
0.00416361846
0.004193124202
0.004193124202
0.00435763291
0.004579500764
0.004627757845
0.004357628555
0.004220284664
0.004173149199
0.004159700416
0.004157277869
0.004170190486
0.00423337837
0.004579500764
0.004579500764
0.005792893612
0.00457949994
0.004627757721
0.004294576644
0.004272766138
0.004183354878
0.004162173852
0.00415584206
0.004163617616
0.004193122511
0.004294574846
0.00457949994
0.004294576644
0.004294576644
0.004220285422
0.00416775812
0.004173149876
0.004159700308
0.004153931892
0.004157331704
0.004167757289
0.004193122189
0.004233377536
0.004193122023
0.00416775812
0.00416775812
0.004162355396
0.004153965926
0.004156243284
0.004152662349
0.004153966163
0.004157332351
0.004163617179
0.004170190409
0.004163617383
0.004157331778
0.004153965926
0.004153965926
0.004153887521
0.004152096118
0.004152096044
0.004152662187
0.004153931811
0.004155841822
0.004157277748
0.004155841299
0.004153931042
0.004152662058
0.004152096118
)
;
    }
}


// ************************************************************************* //
