/*--------------------------------*- C++ -*----------------------------------*\
| =========                 |                                                 |
| \\      /  F ield         | OpenFOAM: The Open Source CFD Toolbox           |
|  \\    /   O peration     | Version:  4.x                                   |
|   \\  /    A nd           | Web:      www.OpenFOAM.org                      |
|    \\/     M anipulation  |                                                 |
\*---------------------------------------------------------------------------*/
FoamFile
{
    version     2.0;
    format      ascii;
    class       volScalarField;
    location    "1";
    object      C;
}
// * * * * * * * * * * * * * * * * * * * * * * * * * * * * * * * * * * * * * //

dimensions      [1 -3 0 0 0 0 0];

internalField   uniform 0; // see setFieldsDict

boundaryField
{
  atmosphere
    {
        type            zeroGradient;
    }
  walls
    {
        type            zeroGradient;
    }
  outlet
    {
        type            zeroGradient;
    }
  inlet
    {
	type		fixedValue;
	value 		uniform 135;
    }
}


// ************************************************************************* //
