/*--------------------------------*- C++ -*----------------------------------*\
| =========                 |                                                 |
| \\      /  F ield         | OpenFOAM: The Open Source CFD Toolbox           |
|  \\    /   O peration     | Version:  4.x                                   |
|   \\  /    A nd           | Web:      www.OpenFOAM.org                      |
|    \\/     M anipulation  |                                                 |
\*---------------------------------------------------------------------------*/
FoamFile
{
    version     2.0;
    format      ascii;
    class       volScalarField;
    location    "1000";
    object      CO;
}
// * * * * * * * * * * * * * * * * * * * * * * * * * * * * * * * * * * * * * //

dimensions      [0 0 0 0 0 0 0];

internalField   nonuniform List<scalar> 
1174
(
0.3999898966
0.3999823468
0.3999716758
0.3999577423
0.3999406857
0.3999208736
0.3998988247
0.399875132
0.3998503981
0.3998251928
0.3998000452
0.3997755224
0.3997526359
0.3997346245
0.3999828269
0.3999707299
0.3999546046
0.3999348133
0.3999120268
0.3998870625
0.3998607526
0.3998338573
0.3998070193
0.3997807528
0.3997554662
0.3997315586
0.3997098032
0.399692978
0.399967214
0.3999458385
0.3999193607
0.3998892567
0.3998571294
0.3998244225
0.3997922824
0.3997615288
0.3997326858
0.3997060417
0.3996817237
0.3996598147
0.3996406823
0.3996263157
0.3999443431
0.3999111419
0.3998729767
0.3998326184
0.3997923828
0.399753939
0.3997183361
0.3996861197
0.3996574687
0.3996323188
0.3996104667
0.3995916831
0.3995759635
0.3995645338
0.3999280105
0.3998883158
0.3998449511
0.3998009514
0.3997585201
0.3997190714
0.3996833817
0.3996517576
0.3996241851
0.3996004491
0.3995802287
0.3995631928
0.3995492102
0.3995392009
0.3999443437
0.3999111427
0.3998729778
0.3998326197
0.3997923842
0.3997539405
0.3997183377
0.3996861215
0.3996574706
0.3996323207
0.3996104687
0.3995916851
0.3995759656
0.3995645359
0.3999672148
0.3999458396
0.3999193621
0.3998892583
0.3998571313
0.3998244246
0.3997922847
0.3997615314
0.3997326886
0.3997060447
0.3996817268
0.399659818
0.3996406857
0.3996263192
0.3999828275
0.3999707308
0.3999546057
0.3999348146
0.3999120283
0.3998870643
0.3998607548
0.3998338598
0.3998070221
0.3997807559
0.3997554696
0.3997315623
0.3997098072
0.3996929821
0.3999898972
0.3999823474
0.3999716765
0.3999577432
0.399940687
0.3999208751
0.3998988266
0.3998751342
0.3998504006
0.3998251958
0.3998000485
0.399775526
0.3997526399
0.3997346288
0.3999909873
0.399982827
0.3999707301
0.3999546047
0.3999348135
0.399912027
0.3998870627
0.3998607528
0.3998338575
0.3998070195
0.399780753
0.3997554664
0.3997315589
0.3997098035
0.3996929782
0.3999668953
0.3999456631
0.3999197427
0.3998906756
0.3998600148
0.3998290718
0.3997988261
0.3997699351
0.3997427901
0.399717587
0.3996944024
0.3996733063
0.3996546871
0.3996405827
0.3999268243
0.3998855845
0.3998406961
0.3997959359
0.3997539
0.3997160117
0.3996827968
0.3996541995
0.3996298427
0.3996092112
0.3995917706
0.3995770622
0.3995648899
0.3995560825
0.399855632
0.3997870657
0.3997217414
0.3996645329
0.3996171611
0.3995794284
0.3995502005
0.3995280297
0.3995114896
0.3994993244
0.3994904956
0.3994841803
0.3994797718
0.3994770172
0.399788451
0.3997059398
0.399635848
0.3995800415
0.3995374658
0.3995060225
0.3994834646
0.3994677692
0.3994572534
0.3994505753
0.3994466905
0.3994447902
0.39944422
0.399444344
0.3998556339
0.3997870681
0.3997217441
0.3996645357
0.3996171639
0.3995794312
0.3995502033
0.3995280325
0.3995114923
0.3994993271
0.3994904983
0.3994841829
0.3994797744
0.3994770198
0.3999268264
0.399885587
0.3998406987
0.3997959388
0.3997539031
0.399716015
0.3996828003
0.3996542032
0.3996298465
0.3996092151
0.3995917747
0.3995770663
0.399564894
0.3995560867
0.3999668968
0.3999456646
0.3999197444
0.3998906776
0.399860017
0.3998290743
0.399798829
0.3997699384
0.3997427937
0.3997175909
0.3996944066
0.3996733107
0.3996546918
0.3996405875
0.3999828275
0.3999707308
0.3999546057
0.3999348147
0.3999120285
0.3998870646
0.3998607552
0.3998338603
0.3998070227
0.3997807567
0.3997554705
0.3997315633
0.3997098083
0.3996929833
0.3999825689
0.3999672142
0.3999458389
0.3999193612
0.3998892572
0.3998571301
0.3998244232
0.3997922831
0.3997615295
0.3997326865
0.3997060424
0.3996817244
0.3996598155
0.399640683
0.3996263164
0.3999600877
0.3999268245
0.3998855849
0.3998406965
0.3997959364
0.3997539005
0.3997160122
0.3996827973
0.3996542
0.3996298432
0.3996092117
0.3995917711
0.3995770627
0.3995648903
0.3995560829
0.3998085121
0.399721531
0.3996426028
0.3995776935
0.3995280671
0.3994923483
0.3994680738
0.3994526126
0.3994436127
0.3994391572
0.3994377692
0.3994383402
0.3994399957
0.3994417895
0.3995454934
0.3993985137
0.3992967201
0.3992361609
0.3992071808
0.3991999969
0.3992066907
0.3992215087
0.3992405381
0.3992612416
0.3992820303
0.3993018845
0.3993198481
0.3993336016
0.3992010072
0.3990544246
0.3989906635
0.3989784121
0.3989952239
0.3990269112
0.3990650338
0.3991047695
0.3991434751
0.3991797871
0.3992130654
0.3992429916
0.3992690045
0.3992884465
0.3995455018
0.3993985221
0.3992967279
0.399236168
0.3992071872
0.3992000027
0.399206696
0.3992215135
0.3992405425
0.3992612457
0.3992820342
0.3993018881
0.3993198515
0.3993336049
0.3998085192
0.3997215371
0.3996426087
0.3995776994
0.399528073
0.3994923542
0.3994680797
0.3994526185
0.3994436185
0.3994391629
0.3994377749
0.3994383458
0.3994400012
0.3994417949
0.3999268264
0.3998855872
0.3998406992
0.3997959396
0.3997539041
0.3997160163
0.3996828018
0.3996542049
0.3996298484
0.3996092171
0.3995917768
0.3995770685
0.3995648963
0.399556089
0.3999672147
0.3999458397
0.3999193624
0.3998892589
0.3998571322
0.3998244258
0.3997922863
0.3997615333
0.3997326908
0.3997060472
0.3996817296
0.399659821
0.399640689
0.3996263226
0.3999699279
0.3999443436
0.3999111428
0.3998729778
0.3998326197
0.3997923841
0.3997539403
0.3997183375
0.3996861211
0.3996574702
0.3996323202
0.3996104681
0.3995916845
0.3995759649
0.3995645352
0.3999186135
0.3998556325
0.3997870671
0.3997217431
0.3996645346
0.3996171628
0.39957943
0.3995502021
0.3995280313
0.3995114911
0.3994993259
0.399490497
0.3994841816
0.399479773
0.3994770184
0.3997243875
0.3995454943
0.3993985158
0.3992967223
0.399236163
0.3992071827
0.3991999986
0.3992066922
0.3992215101
0.3992405393
0.3992612427
0.3992820313
0.3993018854
0.3993198489
0.3993336024
0.3986443716
0.3984582052
0.3984255162
0.3984763914
0.3985648684
0.3986648966
0.3987631974
0.3988537978
0.3989345983
0.3990054065
0.3990668552
0.3991197365
0.3991641487
0.3991965779
0.3968767392
0.3971021471
0.3974528929
0.3977906869
0.3980784886
0.398313696
0.39850366
0.3986572255
0.3987821614
0.3988846498
0.398969401
0.3990397933
0.3990974226
0.3991388299
0.3986444045
0.3984582279
0.3984255334
0.398476405
0.3985648795
0.3986649058
0.3987632052
0.3988538045
0.3989346042
0.3990054117
0.39906686
0.3991197409
0.3991641528
0.3991965819
0.3995455019
0.3993985244
0.3992967315
0.3992361724
0.399207192
0.3992000077
0.399206701
0.3992215184
0.3992405473
0.3992612503
0.3992820386
0.3993018924
0.3993198556
0.3993336089
0.3998556339
0.3997870692
0.3997217462
0.3996645386
0.3996171676
0.3995794355
0.3995502081
0.3995280376
0.3995114977
0.3994993327
0.3994905039
0.3994841886
0.3994797801
0.3994770255
0.3999443437
0.3999111432
0.3998729788
0.3998326214
0.3997923865
0.3997539436
0.3997183414
0.3996861258
0.3996574754
0.3996323259
0.3996104743
0.3995916911
0.3995759718
0.3995645424
0.3999604403
0.3999280113
0.3998883172
0.3998449528
0.3998009534
0.3997585222
0.3997190736
0.3996833839
0.3996517598
0.3996241873
0.3996004513
0.3995802308
0.3995631949
0.3995492123
0.3995392029
0.3998752971
0.3997884526
0.399705943
0.3996358516
0.3995800449
0.3995374691
0.3995060257
0.3994834676
0.399467772
0.399457256
0.3994505777
0.3994466928
0.3994447924
0.399444222
0.399444346
0.3994598103
0.3992010087
0.3990544311
0.3989906699
0.3989784176
0.3989952286
0.3990269152
0.3990650373
0.3991047726
0.3991434778
0.3991797895
0.3992130676
0.3992429936
0.3992690063
0.3992884482
0.3971940363
0.3968767567
0.3971021601
0.3974529021
0.3977906935
0.3980784934
0.3983136997
0.3985036629
0.3986572279
0.3987821634
0.3988846515
0.3989694025
0.3990397946
0.3990974238
0.399138831
0.3892473632
0.3931009519
0.3952447369
0.3965042827
0.3972864319
0.3977989098
0.3981517697
0.398405616
0.3985951743
0.3987411481
0.3988563376
0.3989487531
0.3990225565
0.3990748049
0.3968767429
0.3971021804
0.3974529219
0.3977907093
0.398078506
0.39831371
0.3985036716
0.3986572353
0.3987821698
0.3988846573
0.3989694077
0.3990397993
0.3990974282
0.3991388352
0.3992010086
0.3990544361
0.3989906778
0.3989784269
0.3989952383
0.3990269248
0.3990650466
0.3991047815
0.3991434863
0.3991797976
0.3992130752
0.3992430009
0.3992690134
0.399288455
0.3997884517
0.3997059434
0.3996358536
0.3995800484
0.3995374738
0.3995060312
0.3994834737
0.3994677786
0.3994572629
0.3994505849
0.3994467001
0.3994447997
0.3994442295
0.3994443535
0.3999280108
0.399888317
0.3998449533
0.3998009548
0.3997585246
0.3997190768
0.399683388
0.3996517647
0.3996241928
0.3996004574
0.3995802374
0.3995632018
0.3995492196
0.3995392105
0.3999699283
0.3999443445
0.399911144
0.3998729794
0.3998326216
0.3997923863
0.3997539428
0.3997183401
0.3996861239
0.3996574731
0.3996323231
0.3996104711
0.3995916875
0.399575968
0.3995645383
0.3999186154
0.3998556357
0.3997870711
0.3997217475
0.3996645391
0.3996171674
0.3995794346
0.3995502066
0.3995280357
0.3995114954
0.3994993301
0.3994905011
0.3994841856
0.3994797769
0.3994770222
0.3997243992
0.3995455067
0.3993985294
0.3992967351
0.3992361746
0.3992071931
0.399200008
0.3992067007
0.3992215178
0.3992405463
0.3992612492
0.3992820373
0.399301891
0.3993198542
0.3993336075
0.3990586557
0.3986444175
0.3984582426
0.3984255456
0.3984764148
0.3985648874
0.3986649122
0.3987632105
0.398853809
0.398934608
0.399005415
0.3990668629
0.3991197435
0.3991641551
0.399196584
0.3971940408
0.3968767675
0.3971021974
0.3974529338
0.3977907179
0.3980785124
0.3983137149
0.3985036754
0.3986572384
0.3987821724
0.3988846594
0.3989694096
0.3990398009
0.3990974297
0.3991388364
0.3990586506
0.3986444232
0.3984582511
0.3984255544
0.398476423
0.3985648949
0.3986649191
0.3987632167
0.3988538147
0.3989346132
0.3990054198
0.3990668673
0.3991197477
0.399164159
0.3991965878
0.3995454941
0.3993985252
0.3992967359
0.3992361784
0.3992071986
0.3992000143
0.3992067074
0.3992215246
0.3992405531
0.3992612558
0.3992820439
0.3993018974
0.3993198605
0.3993336136
0.3998556319
0.3997870686
0.3997217469
0.3996645403
0.39961717
0.3995794383
0.3995502112
0.3995280409
0.3995115012
0.3994993362
0.3994905075
0.3994841922
0.3994797837
0.3994770291
0.3999443432
0.3999111429
0.3998729788
0.3998326218
0.3997923874
0.3997539449
0.3997183431
0.3996861277
0.3996574776
0.3996323283
0.3996104768
0.3995916937
0.3995759746
0.3995645452
0.3999825694
0.3999672153
0.3999458405
0.3999193632
0.3998892597
0.399857133
0.3998244265
0.3997922868
0.3997615335
0.3997326908
0.399706047
0.3996817292
0.3996598204
0.3996406881
0.3996263216
0.3999600898
0.3999268276
0.3998855889
0.399840701
0.3997959414
0.3997539058
0.3997160179
0.3996828032
0.3996542061
0.3996298494
0.399609218
0.3995917775
0.3995770691
0.3995648967
0.3995560893
0.3998913179
0.3998085223
0.3997215416
0.3996426136
0.3995777043
0.3995280779
0.3994923589
0.3994680841
0.3994526226
0.3994436223
0.3994391665
0.3994377783
0.399438349
0.3994400042
0.3994417978
0.3997243998
0.3995455092
0.3993985335
0.3992967403
0.3992361804
0.3992071991
0.399200014
0.3992067065
0.3992215233
0.3992405516
0.3992612542
0.3992820421
0.3993018955
0.3993198586
0.3993336117
0.3994598129
0.399201021
0.3990544482
0.3989906881
0.3989784353
0.3989952452
0.3990269306
0.3990650515
0.3991047856
0.3991434898
0.3991798007
0.399213078
0.3992430033
0.3992690156
0.3992884571
0.3997244009
0.3995455113
0.3993985363
0.3992967435
0.3992361839
0.3992072027
0.3992000176
0.39920671
0.3992215268
0.399240555
0.3992612574
0.3992820453
0.3993018987
0.3993198616
0.3993336147
0.3998913146
0.3998085196
0.3997215404
0.399642614
0.3995777061
0.3995280807
0.3994923624
0.3994680882
0.3994526271
0.399443627
0.3994391713
0.3994377832
0.3994383539
0.3994400092
0.3994418028
0.3999268243
0.3998855866
0.3998406999
0.3997959413
0.3997539068
0.3997160197
0.3996828058
0.3996542094
0.3996298532
0.3996092223
0.3995917822
0.3995770741
0.3995649021
0.3995560949
0.399967214
0.3999458393
0.3999193623
0.3998892594
0.3998571333
0.3998244275
0.3997922885
0.399761536
0.399732694
0.3997060508
0.3996817336
0.3996598253
0.3996406935
0.3996263274
0.3999909879
0.3999828278
0.3999707313
0.3999546064
0.3999348155
0.3999120295
0.3998870657
0.3998607563
0.3998338615
0.399807024
0.3997807579
0.3997554717
0.3997315645
0.3997098094
0.3996929844
0.3999823512
0.3999668974
0.3999456656
0.3999197457
0.3998906792
0.3998600189
0.3998290764
0.3997988312
0.3997699407
0.3997427961
0.3997175934
0.3996944092
0.3996733133
0.3996546943
0.3996405901
0.3999600899
0.3999268278
0.3998855893
0.3998407018
0.3997959425
0.3997539073
0.3997160196
0.3996828052
0.3996542082
0.3996298517
0.3996092203
0.3995917799
0.3995770716
0.3995648993
0.399556092
0.3999186156
0.3998556369
0.3997870733
0.3997217508
0.3996645434
0.3996171724
0.3995794402
0.3995502125
0.3995280419
0.3995115017
0.3994993364
0.3994905075
0.399484192
0.3994797833
0.3994770286
0.3998752982
0.3997884563
0.399705949
0.3996358593
0.399580054
0.3995374791
0.3995060361
0.3994834782
0.3994677828
0.3994572667
0.3994505884
0.3994467033
0.3994448027
0.3994442323
0.3994443561
0.3999186161
0.3998556376
0.3997870743
0.399721752
0.3996645449
0.3996171741
0.399579442
0.3995502145
0.3995280439
0.3995115039
0.3994993386
0.3994905097
0.3994841943
0.3994797856
0.3994770309
0.3999600896
0.3999268274
0.3998855892
0.3998407021
0.3997959433
0.3997539086
0.3997160214
0.3996828074
0.3996542108
0.3996298545
0.3996092235
0.3995917833
0.3995770751
0.399564903
0.3995560958
0.3999823505
0.3999668966
0.3999456649
0.3999197453
0.3998906793
0.3998600195
0.3998290775
0.3997988329
0.3997699428
0.3997427987
0.3997175965
0.3996944126
0.3996733171
0.3996546985
0.3996405946
0.399982827
0.3999707306
0.3999546058
0.3999348153
0.3999120296
0.3998870663
0.3998607574
0.3998338632
0.3998070261
0.3997807606
0.399755475
0.3997315683
0.3997098137
0.3996929891
0.3999947489
0.3999898974
0.3999823478
0.3999716771
0.399957744
0.3999406879
0.3999208762
0.3998988279
0.3998751357
0.3998504023
0.3998251976
0.3998000505
0.3997755282
0.3997526422
0.3997346311
0.3999909879
0.3999828279
0.3999707314
0.3999546066
0.3999348158
0.3999120299
0.3998870662
0.399860757
0.3998338623
0.3998070248
0.3997807589
0.3997554728
0.3997315657
0.3997098107
0.3996929858
0.3999825695
0.3999672155
0.3999458409
0.399919364
0.3998892608
0.3998571345
0.3998244284
0.3997922891
0.3997615361
0.3997326938
0.3997060502
0.3996817326
0.399659824
0.3996406919
0.3996263256
0.3999699285
0.3999443451
0.3999111453
0.3998729814
0.3998326244
0.3997923899
0.3997539471
0.3997183451
0.3996861294
0.399657479
0.3996323295
0.3996104778
0.3995916944
0.3995759751
0.3995645455
0.3999604408
0.3999280127
0.3998883197
0.3998449566
0.3998009583
0.3997585283
0.3997190806
0.3996833917
0.3996517683
0.3996241964
0.3996004608
0.3995802406
0.399563205
0.3995492225
0.3995392133
0.3999699286
0.3999443453
0.3999111456
0.3998729818
0.399832625
0.3997923906
0.399753948
0.3997183461
0.3996861306
0.3996574803
0.3996323309
0.3996104793
0.3995916961
0.3995759768
0.3995645473
0.3999825695
0.3999672154
0.399945841
0.3999193641
0.3998892612
0.3998571351
0.3998244293
0.3997922903
0.3997615377
0.3997326956
0.3997060523
0.399681735
0.3996598267
0.3996406948
0.3996263286
0.3999909877
0.3999828277
0.3999707312
0.3999546064
0.3999348159
0.3999120302
0.3998870669
0.399860758
0.3998338637
0.3998070267
0.3997807612
0.3997554754
0.3997315687
0.3997098141
0.3996929895
0.3999947487
0.399989897
0.3999823474
0.3999716768
0.3999577438
0.3999406879
0.3999208765
0.3998988285
0.3998751368
0.3998504038
0.3998251996
0.399800053
0.3997755311
0.3997526456
0.3997346349
)
;

boundaryField
{
    top
    {
        type            zeroGradient;
    }
    bottom
    {
        type            zeroGradient;
    }
    side-walls
    {
        type            zeroGradient;
    }
    inlet
    {
        type            zeroGradient;
    }
    outlet
    {
        type            zeroGradient;
    }
    procBoundary1to0
    {
        type            processor;
        value           nonuniform List<scalar> 
97
(
0.3999947486
0.3999947486
0.3999909877
0.3999825694
0.3999699287
0.3999604413
0.3999699291
0.3999825699
0.3999909881
0.399994749
0.3999958084
0.3999823504
0.3999823504
0.3999823504
0.3999600893
0.399918616
0.3998753001
0.3999186175
0.3999600909
0.3999823517
0.3999909881
0.3999919983
0.3999821441
0.3998913133
0.3998913133
0.3998913133
0.3997243982
0.3994598223
0.3997244065
0.3998913206
0.3999600908
0.3999825698
0.3999864178
0.399964778
0.3998891494
0.3990586211
0.3990586211
0.3990586211
0.3971940837
0.3990586733
0.3997244058
0.3999186173
0.3999699289
0.3999824342
0.3999484
0.3998052197
0.3992394856
0.3819361789
0.3819361789
0.3819361789
0.3971940778
0.3971940778
0.3994598206
0.3998752997
0.3999604412
0.3999864179
0.3999647784
0.3998891508
0.3996695644
0.3992394849
0.399669566
0.3997243921
0.3997243921
0.3997243921
0.399918615
0.3999699284
0.3999919984
0.3999821444
0.3999532858
0.3998891507
0.3998052198
0.3998891513
0.3999532855
0.3999600882
0.3999600882
0.3999600882
0.3999825692
0.3999958085
0.399991921
0.3999821444
0.3999647784
0.3999484001
0.3999647786
0.3999821444
0.3999919209
0.3999909875
0.3999909875
0.3999909875
0.3999975339
0.3999958085
0.3999919984
0.3999864179
0.3999824343
0.399986418
0.3999919984
0.3999958084
0.3999975338
)
;
    }
}


// ************************************************************************* //
