/*--------------------------------*- C++ -*----------------------------------*\
| =========                 |                                                 |
| \\      /  F ield         | OpenFOAM: The Open Source CFD Toolbox           |
|  \\    /   O peration     | Version:  4.x                                   |
|   \\  /    A nd           | Web:      www.OpenFOAM.org                      |
|    \\/     M anipulation  |                                                 |
\*---------------------------------------------------------------------------*/
FoamFile
{
    version     2.0;
    format      ascii;
    class       volScalarField;
    location    "1000";
    object      CO2;
}
// * * * * * * * * * * * * * * * * * * * * * * * * * * * * * * * * * * * * * //

dimensions      [0 0 0 0 0 0 0];

internalField   nonuniform List<scalar> 
1174
(
1.292257081e-05
2.257875394e-05
3.622684891e-05
5.404763365e-05
7.58627462e-05
0.0001012022462
0.0001294024955
0.0001597052233
0.0001913396344
0.0002235768434
0.00025574036
0.000287104789
0.0003163763109
0.0003394127445
2.196467694e-05
3.743654595e-05
5.806069275e-05
8.337355366e-05
0.0001125172334
0.0001444462988
0.0001780963012
0.0002124951089
0.0002468206302
0.0002804151731
0.000312756472
0.0003433339867
0.0003711588672
0.0003926781873
4.193336663e-05
6.927236119e-05
0.0001031372019
0.0001416399176
0.0001827302842
0.0002245621072
0.0002656689529
0.0003050024812
0.0003418923301
0.0003759698264
0.0004070722774
0.0004350935817
0.0004595637328
0.0004779385095
7.118495953e-05
0.0001136489867
0.0001624618383
0.0002140795795
0.0002655405684
0.0003147097432
0.0003602454594
0.0004014498245
0.0004380940607
0.0004702606023
0.0004982091597
0.0005222331543
0.0005423382921
0.0005569567759
9.207419536e-05
0.000142843306
0.0001983063046
0.0002545813796
0.0003088505296
0.0003593049944
0.0004049517365
0.0004453985684
0.0004806634795
0.0005110214917
0.0005368832195
0.0005586719007
0.0005765554521
0.0005893572563
7.118422583e-05
0.0001136478914
0.0001624604587
0.0002140779504
0.0002655387253
0.000314707728
0.0003602432987
0.0004014475401
0.0004380916753
0.0004702581295
0.0004982066186
0.0005222305593
0.0005423356506
0.000556954088
4.193241081e-05
6.927099653e-05
0.0001031354874
0.0001416378671
0.0001827279095
0.0002245593989
0.0002656659319
0.0003049991629
0.0003418887428
0.0003759659953
0.0004070682288
0.0004350893431
0.000459559327
0.0004779339664
2.196383679e-05
3.743543325e-05
5.805931435e-05
8.33718737e-05
0.0001125152171
0.0001444439118
0.0001780935245
0.0002124919322
0.0002468170516
0.0002804111954
0.0003127521121
0.0003433292649
0.0003711538061
0.0003926728463
1.292188711e-05
2.257793482e-05
3.6225838e-05
5.404637392e-05
7.586117935e-05
0.0001012003165
0.0001294001548
0.0001597024409
0.0001913363869
0.0002235731179
0.0002557361538
0.0002871001081
0.0003163711687
0.0003394071852
1.152755056e-05
2.196457589e-05
3.743637443e-05
5.806048843e-05
8.337331999e-05
0.0001125169756
0.0001444460188
0.0001780960037
0.0002124948005
0.0002468203174
0.0002804148457
0.0003127561409
0.000343333654
0.0003711585339
0.0003926778595
4.234103873e-05
6.949675596e-05
0.0001026486696
0.0001398250736
0.0001790399364
0.0002186157396
0.0002572995873
0.000294250856
0.0003289690421
0.0003612034477
0.000390856272
0.0004178380642
0.0004416517869
0.0004596911818
9.359139031e-05
0.000146336569
0.0002037483902
0.0002609960868
0.0003147595642
0.0003632182755
0.0004056997209
0.0004422753791
0.0004734274641
0.0004998149282
0.0005221212076
0.0005409331068
0.0005565014145
0.0005677659718
0.0001846455532
0.0002723410764
0.0003558900108
0.0004290591397
0.0004896470985
0.0005379067976
0.0005752889501
0.0006036451182
0.000624799759
0.0006403588753
0.0006516508069
0.0006597280185
0.000665366487
0.0006688895962
0.0002705692956
0.0003761001892
0.000465746717
0.0005371226773
0.000591576471
0.0006317920589
0.0006606433888
0.0006807176003
0.0006941672427
0.0007027084552
0.0007076770841
0.0007101075532
0.0007108368143
0.0007106782091
0.0001846430771
0.000272337939
0.0003558865844
0.0004290555668
0.000489643485
0.000537903197
0.0005752853762
0.0006036415614
0.0006247962324
0.0006403554038
0.0006516473875
0.0006597246373
0.0006653631514
0.000668886275
9.358867631e-05
0.0001463334433
0.0002037449787
0.0002609923909
0.0003147555775
0.0003632140266
0.0004056952273
0.0004422706679
0.0004734225775
0.0004998098927
0.0005221160484
0.0005409278566
0.0005564960757
0.0005677605473
4.233910528e-05
6.949481631e-05
0.0001026465273
0.0001398226096
0.00017903708
0.0002186124526
0.0002572958575
0.0002942466916
0.0003289644564
0.0003611984607
0.0003908509177
0.0004178323748
0.0004416457889
0.0004596849205
2.196386932e-05
3.743542849e-05
5.805925262e-05
8.33717324e-05
0.0001125149667
0.0001444435331
0.0001780929949
0.0002124912461
0.0002468162124
0.0002804102054
0.0003127509803
0.0003433279956
0.0003711524048
0.0003926713024
2.229463011e-05
4.193311089e-05
6.927184193e-05
0.0001031365647
0.0001416391938
0.0001827294922
0.0002245612553
0.0002656680445
0.0003050015296
0.000341891355
0.0003759688477
0.0004070712988
0.0004350926151
0.0004595627859
0.0004779375804
5.104785677e-05
9.359114465e-05
0.0001463360887
0.0002037478451
0.0002609954942
0.0003147589643
0.0003632176648
0.0004056990987
0.0004422747395
0.0004734268167
0.0004998142803
0.0005221205584
0.0005409324742
0.0005565007942
0.0005677653542
0.0002449113783
0.0003561591415
0.0004571073832
0.0005401256765
0.0006035972536
0.0006492812337
0.0006803280668
0.0007001027139
0.0007116135671
0.0007173120709
0.0007190872373
0.0007183569494
0.0007162395845
0.0007139453697
0.0005813092871
0.0007692946262
0.0008994874937
0.0009769419776
0.001014007234
0.001023195339
0.001014634088
0.0009956819843
0.0009713436538
0.0009448641311
0.0009182755715
0.0008928823073
0.0008699070529
0.0008523164889
0.001021903154
0.001209380641
0.001290930393
0.001306599852
0.001285097755
0.001244570055
0.00119581164
0.001144990128
0.001095486146
0.001049043476
0.001006480933
0.0009682056788
0.0009349354234
0.0009100693528
0.000581298456
0.0007692838272
0.0008994775291
0.0009769329433
0.001013999058
0.001023187922
0.00101462734
0.000995675842
0.000971337993
0.0009448588599
0.0009182706392
0.0008928776749
0.0008699026326
0.0008523121938
0.0002449021827
0.000356151297
0.0004570999286
0.0005401182002
0.0006035897157
0.0006492736578
0.0006803205114
0.0007000952036
0.0007116061498
0.0007173047621
0.0007190800519
0.0007183498773
0.0007162326189
0.0007139384675
9.358870657e-05
0.0001463332023
0.0002037444257
0.0002609914636
0.0003147543069
0.0003632124165
0.0004056933255
0.000442268511
0.0004734202033
0.0004998073351
0.0005221133474
0.0005409250377
0.0005564931601
0.0005677575556
4.193247079e-05
6.927086797e-05
0.0001031350997
0.0001416371388
0.0001827267706
0.0002245578325
0.000265663916
0.0003049967159
0.0003418858902
0.0003759627768
0.0004070646832
0.0004350855087
0.0004595552212
0.0004779296049
3.846238091e-05
7.118437603e-05
0.0001136478575
0.0001624604613
0.0002140780328
0.0002655388899
0.0003147079784
0.0003602436372
0.0004014479713
0.0004380921957
0.0004702587444
0.0004982073264
0.0005222313564
0.0005423365371
0.0005569550613
0.0001040929155
0.0001846448602
0.0002723392259
0.0003558878833
0.0004290569469
0.0004896449295
0.0005379046877
0.0005752869063
0.0006036431236
0.0006247978082
0.0006403570143
0.0006516490306
0.0006597263152
0.0006653648589
0.0006688880185
0.0003525056841
0.0005813081269
0.0007692919036
0.0008994846703
0.000976939342
0.00101400482
0.00102319314
0.001014632142
0.0009956802475
0.0009713420817
0.0009448626887
0.000918274262
0.0008928811361
0.0008699059782
0.0008523154774
0.001733833885
0.001971938543
0.002013747393
0.001948678638
0.001835517494
0.001707582539
0.001581856941
0.001465980053
0.001362637167
0.001272074326
0.001193482102
0.001125847453
0.001069044821
0.001027568179
0.003994615675
0.003706321507
0.003257721543
0.002825686822
0.002457591827
0.002156764115
0.001913802323
0.001717393771
0.001557602295
0.001426520722
0.001318124872
0.001228093989
0.001154386673
0.001101427281
0.001733791702
0.001971909457
0.002013725448
0.00194866126
0.001835503343
0.001707570813
0.001581846996
0.001465971468
0.00136262965
0.001272067624
0.001193476013
0.00112584182
0.001069039545
0.001027563122
0.0005812983759
0.0007692809081
0.0008994729231
0.0009769272894
0.001013992857
0.001023181509
0.001014620938
0.0009956695524
0.0009713318975
0.0009448529844
0.0009182649802
0.0008928722354
0.0008698973914
0.0008523070881
0.0001846430162
0.0002723365238
0.0003558839355
0.000429051757
0.0004896387049
0.0005378976425
0.0005752792482
0.0006036350063
0.0006247893588
0.0006403483266
0.0006516401791
0.0006597173422
0.0006653557948
0.0006688788613
7.118427129e-05
0.0001136473442
0.0001624591996
0.0002140758571
0.0002655357287
0.0003147038417
0.0003602385768
0.0004014420597
0.0004380855361
0.0004702514228
0.0004981994296
0.0005222229658
0.0005423277102
0.0005569458335
5.059683373e-05
9.207314992e-05
0.0001428414441
0.0001983040403
0.0002545788362
0.0003088478134
0.0003593021806
0.000404948875
0.0004453957003
0.0004806606356
0.0005110186925
0.0005368804778
0.0005586692233
0.0005765528436
0.0005893547101
0.0001594941162
0.0002705671757
0.0003760960766
0.0004657422004
0.0005371182265
0.0005915722091
0.0006317880354
0.0006606396067
0.0006807140417
0.0006941638946
0.0007027053158
0.0007076741274
0.0007101047552
0.0007108341794
0.0007106756875
0.0006908969657
0.001021901337
0.001209372383
0.001290922282
0.001306592819
0.001285091761
0.001244564899
0.001195807139
0.001144986161
0.001095482642
0.001049040343
0.001006478108
0.0009682031257
0.0009349330806
0.0009100671617
0.003588796217
0.003994593237
0.003706304865
0.003257709834
0.00282567846
0.002457585613
0.002156759391
0.001913798602
0.001717390714
0.001557599711
0.001426518493
0.001318122952
0.001228092301
0.001154385173
0.001101425911
0.01375250104
0.008823804846
0.006081928113
0.004470983306
0.00347062332
0.002815169828
0.002363866116
0.002039199526
0.001796756571
0.001610057727
0.001462731667
0.001344533294
0.00125013959
0.001183314475
0.003994610874
0.003706278843
0.003257684432
0.002825658197
0.002457569509
0.002156746231
0.001913787566
0.001717381257
0.001557591456
0.001426511184
0.001318116346
0.001228086232
0.001154379513
0.001101420535
0.001021901383
0.001209365932
0.001290912101
0.001306580914
0.001285079341
0.001244552591
0.001195795255
0.001144974806
0.001095471836
0.00104903006
0.00100646832
0.0009681937645
0.0009349241001
0.0009100584249
0.0002705684038
0.0003760955874
0.000465739608
0.0005371137406
0.0005915662335
0.0006317809421
0.0006606317131
0.000680705581
0.000694155046
0.0007026961968
0.0007076648177
0.0007100953288
0.0007108246574
0.0007106660831
9.207386314e-05
0.0001428416988
0.0001983033767
0.0002545770511
0.0003088448262
0.0003592980278
0.0004049436501
0.0004453895176
0.000480653619
0.0005110109594
0.0005368721354
0.0005586603686
0.0005765435493
0.0005893450166
3.846185107e-05
7.118327391e-05
0.000113646221
0.0001624583389
0.0002140755031
0.0002655360218
0.000314704836
0.0003602402816
0.0004014444469
0.0004380885495
0.0004702550003
0.0004982035044
0.0005222274742
0.0005423326065
0.0005569510862
0.0001040905032
0.0001846407328
0.0002723341228
0.0003558822768
0.0004290511005
0.0004896390013
0.0005378987901
0.0005752810974
0.0006036374541
0.0006247922904
0.0006403516359
0.0006516437881
0.0006597211959
0.0006653598514
0.0006688830866
0.0003524907456
0.0005812922093
0.0007692745531
0.0008994683463
0.0009769245026
0.001013991513
0.001023181188
0.001014621329
0.0009956704266
0.000971333107
0.0009448544268
0.0009182665901
0.0008928739467
0.000869899181
0.0008523089415
0.001203969163
0.001733775129
0.001971890661
0.002013709769
0.001948648698
0.001835493242
0.001707562594
0.001581840213
0.001465965742
0.001362624747
0.001272063375
0.001193472295
0.001125838551
0.001069036621
0.001027560439
0.003588790522
0.003994579424
0.003706257088
0.003257669311
0.002825647267
0.00245756133
0.00215674
0.001913782651
0.001717377288
0.001557588159
0.001426508394
0.001318113947
0.001228084171
0.001154377713
0.001101418908
0.001203975645
0.001733767773
0.001971879801
0.002013698533
0.001948638169
0.001835483626
0.001707553851
0.001581832247
0.001465958499
0.001362618132
0.001272057276
0.00119346662
0.001125833231
0.001069031571
0.001027555579
0.0005813083032
0.0007692799631
0.0008994672684
0.0009769196342
0.001013984497
0.001023173095
0.001014612746
0.0009956617022
0.0009713244179
0.0009448458822
0.0009182582293
0.0008928657913
0.0008698912182
0.0008523011026
0.0001846455952
0.0002723372495
0.000355883048
0.0004290496581
0.0004896357237
0.0005378940558
0.0005752752494
0.0006036307608
0.0006247849581
0.0006403438352
0.0006516356386
0.0006597127791
0.00066535122
0.0006688742765
7.118494124e-05
0.0001136477066
0.0001624591106
0.0002140752398
0.0002655345791
0.0003147021992
0.0003602365036
0.0004014396256
0.0004380827882
0.0004702484174
0.0004981962112
0.0005222195767
0.000542324173
0.0005569421924
2.229395327e-05
4.193175934e-05
6.926984998e-05
0.0001031339619
0.0001416360035
0.0001827257499
0.0002245569964
0.000265663325
0.0003049964052
0.0003418858726
0.0003759630416
0.0004070652208
0.000435086307
0.0004595562677
0.0004779308905
5.104511993e-05
9.358718978e-05
0.0001463310299
0.0002037420521
0.0002609891241
0.0003147521068
0.0003632104073
0.0004056915402
0.0004422669592
0.0004734188878
0.0004998062479
0.0005221124585
0.00054092434
0.0005564926328
0.00056775716
0.0001390036823
0.0002448982758
0.0003561455779
0.0004570936508
0.0005401118645
0.0006035835165
0.0006492677337
0.0006803149049
0.0007000899283
0.000711601207
0.0007173001214
0.0007190756853
0.0007183457647
0.0007162287166
0.0007139347296
0.0003524900152
0.0005812890468
0.0007692693352
0.0008994616634
0.0009769170351
0.001013983799
0.001023173542
0.001014613909
0.0009956633305
0.0009713263606
0.0009448480122
0.000918260497
0.0008928681553
0.0008698936469
0.0008523035902
0.0006908936616
0.001021885587
0.001209350514
0.001290898993
0.001306570125
0.001285070429
0.00124454516
0.001195789026
0.001144969513
0.001095467262
0.001049026076
0.001006464802
0.0009681906222
0.0009349212453
0.0009100557793
0.0003524885779
0.0005812863529
0.0007692657521
0.0008994575712
0.0009769126461
0.001013979217
0.001023168924
0.001014609354
0.0009956588831
0.0009713220368
0.0009448438292
0.0009182564211
0.0008928641797
0.0008698897615
0.0008522997434
0.0001390078048
0.0002449017641
0.0003561471888
0.0004570931667
0.0005401096277
0.0006035799373
0.0006492631757
0.0006803096693
0.0007000842522
0.0007115952471
0.0007172939826
0.0007190694294
0.0007183394441
0.0007162223701
0.0007139283446
9.359133459e-05
0.0001463338751
0.0002037435179
0.0002609892073
0.000314750898
0.0003632080591
0.000405688198
0.0004422627629
0.0004734139742
0.0004998007268
0.0005221064289
0.0005409178695
0.0005564857917
0.0005677500285
4.193340082e-05
6.927143544e-05
0.0001031351214
0.0001416364768
0.0001827253732
0.0002245557022
0.0002656610953
0.0003049932501
0.0003418818417
0.0003759582001
0.0004070596401
0.000435080055
0.0004595494193
0.0004779235373
1.152688535e-05
2.196346147e-05
3.743475591e-05
5.805836142e-05
8.337064353e-05
0.0001125137081
0.0001444421442
0.0001780915183
0.0002124897111
0.0002468146434
0.0002804086287
0.0003127494133
0.0003433264582
0.0003711509119
0.0003926698853
2.257302215e-05
4.233832e-05
6.949350636e-05
0.0001026448071
0.0001398205429
0.0001790347093
0.0002186098356
0.0002572930305
0.0002942437046
0.0003289613569
0.0003611952825
0.0003908476831
0.0004178291081
0.0004416425041
0.0004596816286
5.104504977e-05
9.358689225e-05
0.0001463304071
0.0002037410507
0.0002609876942
0.000314750282
0.00036320823
0.0004056890724
0.0004422642579
0.0004734160007
0.0004998032156
0.0005221093154
0.0005409211082
0.00055648933
0.0005677537989
0.000104090136
0.00018463923
0.0002723312451
0.0003558780242
0.0004290456517
0.000489632608
0.0005378917067
0.000575273546
0.0006036295842
0.0006247842428
0.0006403434873
0.000651635607
0.0006597130386
0.0006653517208
0.0006688749634
0.0001594926899
0.0002705624526
0.0003760884072
0.0004657322528
0.000537106593
0.0005915594995
0.0006317746887
0.0006606259342
0.000680700257
0.0006941501518
0.000702691695
0.0007076606701
0.0007100914978
0.0007108210896
0.0007106627096
0.0001040895772
0.0001846383436
0.0002723300485
0.0003558764845
0.0004290437673
0.0004896304714
0.0005378893556
0.0005752710204
0.0006036269334
0.0006247814925
0.0006403406784
0.0006516327477
0.0006597101206
0.0006653487619
0.0006688719717
5.10454716e-05
9.358738092e-05
0.0001463305925
0.0002037406495
0.000260986615
0.0003147485411
0.0003632059062
0.0004056862214
0.0004422609522
0.0004734123159
0.0004997992068
0.000522105039
0.0005409165912
0.0005564846102
0.0005677489212
2.257391992e-05
4.233938716e-05
6.949441631e-05
0.0001026453034
0.0001398204588
0.0001790339712
0.0002186084132
0.0002572909357
0.0002942409598
0.0003289580002
0.0003611913554
0.0003908432368
0.0004178241827
0.0004416371525
0.000459675942
2.196459752e-05
3.743575232e-05
5.805910956e-05
8.337100855e-05
0.0001125135679
0.0001444414009
0.0001780901102
0.0002124876078
0.0002468118352
0.0002804051195
0.000312745226
0.0003433216246
0.0003711454731
0.0003926639354
6.716601221e-06
1.292163309e-05
2.257747434e-05
3.622515546e-05
5.40454443e-05
7.58599853e-05
0.0001011988588
0.0001293984393
0.0001597004777
0.000191334195
0.0002235707228
0.0002557335775
0.0002870973829
0.0003163683208
0.0003394042514
1.152687807e-05
2.196341393e-05
3.743464395e-05
5.805815209e-05
8.337030683e-05
0.0001125132271
0.0001444414973
0.0001780906982
0.0002124887266
0.0002468135023
0.0002804073377
0.0003127479873
0.0003433249087
0.0003711492419
0.0003926680869
2.22938828e-05
4.193150417e-05
6.926930645e-05
0.0001031330199
0.0001416345905
0.0001827238227
0.0002245545612
0.0002656604094
0.000304993046
0.0003418821184
0.0003759589518
0.0004070608405
0.0004350816715
0.0004595514175
0.0004779258384
3.84616062e-05
7.118247914e-05
0.0001136446488
0.000162455803
0.0002140719216
0.0002655314319
0.0003146993073
0.0003602339192
0.0004014373753
0.000438080893
0.0004702468696
0.0004981949981
0.0005222186803
0.0005423235701
0.0005569418185
5.059621489e-05
9.20713917e-05
0.0001428382611
0.0001982992787
0.0002545725339
0.0003088400829
0.0003592931975
0.0004049388372
0.0004453848001
0.0004806490498
0.0005110065679
0.0005368679432
0.000558656379
0.0005765397518
0.0005893413763
3.846146156e-05
7.11822362e-05
0.0001136442951
0.0001624553155
0.000214071256
0.0002655305584
0.0003146982305
0.0003602326417
0.0004014359049
0.0004380792397
0.000470245047
0.0004981930218
0.000522216565
0.0005423213336
0.0005569394824
2.22939063e-05
4.193153761e-05
6.926927424e-05
0.0001031328131
0.0001416341099
0.0001827230026
0.0002245533602
0.0002656588183
0.0003049910547
0.0003418797453
0.0003759562133
0.0004070577647
0.0004350782874
0.0004595477507
0.0004779219427
1.152704198e-05
2.196367904e-05
3.74349158e-05
5.805830651e-05
8.337022329e-05
0.0001125127963
0.0001444406432
0.0001780893682
0.0002124868862
0.0002468111394
0.0002804044554
0.0003127445958
0.0003433210286
0.0003711449068
0.0003926633892
6.716875733e-06
1.292203573e-05
2.257793074e-05
3.622556958e-05
5.404570726e-05
7.585998494e-05
0.0001011984845
0.0001293976039
0.0001596991156
0.0001913322652
0.0002235681915
0.0002557304319
0.0002870936191
0.0003163639562
0.000339399367
)
;

boundaryField
{
    top
    {
        type            zeroGradient;
    }
    bottom
    {
        type            zeroGradient;
    }
    side-walls
    {
        type            zeroGradient;
    }
    inlet
    {
        type            zeroGradient;
    }
    outlet
    {
        type            zeroGradient;
    }
    procBoundary1to0
    {
        type            processor;
        value           nonuniform List<scalar> 
97
(
6.716938988e-06
6.716938988e-06
1.152712367e-05
2.229394815e-05
3.8461277e-05
5.059554055e-05
3.846080208e-05
2.22933526e-05
1.152658237e-05
6.716439491e-06
5.361512772e-06
2.257414203e-05
2.257414203e-05
2.257414203e-05
5.104577045e-05
0.0001040896308
0.0001594902598
0.000104087715
5.104378555e-05
2.257246576e-05
1.152661386e-05
1.023455493e-05
2.283791409e-05
0.0001390095529
0.0001390095529
0.0001390095529
0.0003524920859
0.0006908816642
0.000352481395
0.0001390002264
5.104388399e-05
2.229344778e-05
1.737191606e-05
4.504898908e-05
0.0001417771657
0.001204013442
0.001204013442
0.001204013442
0.00358873566
0.001203946689
0.0003524822665
0.0001040880767
3.84610071e-05
2.24669525e-05
6.599628802e-05
0.0002491222809
0.0009726897068
0.02310342288
0.02310342288
0.02310342288
0.003588743104
0.003588743104
0.0006908837893
0.000159490715
5.059568378e-05
1.737179234e-05
4.504848501e-05
0.0001417753862
0.000422623887
0.0009726907117
0.0004226218078
0.0003524998361
0.0003524998361
0.0003524998361
0.0001040909904
3.846165534e-05
1.023440068e-05
2.283751535e-05
5.974741644e-05
0.0001417754468
0.000249122158
0.0001417747214
5.974776249e-05
5.104718825e-05
5.104718825e-05
5.104718825e-05
2.229428975e-05
5.361390888e-06
1.033338222e-05
2.283751996e-05
4.504850087e-05
6.599610703e-05
4.50482261e-05
2.283754143e-05
1.033351825e-05
1.15273974e-05
1.15273974e-05
1.15273974e-05
3.154631637e-06
5.36139444e-06
1.023439676e-05
1.737176231e-05
2.246683242e-05
1.737169369e-05
1.02343812e-05
5.361428773e-06
3.154697262e-06
)
;
    }
}


// ************************************************************************* //
