/*--------------------------------*- C++ -*----------------------------------*\
| =========                 |                                                 |
| \\      /  F ield         | OpenFOAM: The Open Source CFD Toolbox           |
|  \\    /   O peration     | Version:  4.x                                   |
|   \\  /    A nd           | Web:      www.OpenFOAM.org                      |
|    \\/     M anipulation  |                                                 |
\*---------------------------------------------------------------------------*/
FoamFile
{
    version     2.0;
    format      ascii;
    class       volScalarField;
    location    "1000";
    object      molarConc;
}
// * * * * * * * * * * * * * * * * * * * * * * * * * * * * * * * * * * * * * //

dimensions      [0 -3 0 0 1 0 0];

internalField   nonuniform List<scalar> 
1174
(
9.963268352
9.963268561
9.963268018
9.963268642
9.963269107
9.963269563
9.963268683
9.963268007
9.963268442
9.963268992
9.963268737
9.963269837
9.963269485
9.963269685
9.963260902
9.96325837
9.963259273
9.963260679
9.963260223
9.963260783
9.963261476
9.963261067
9.963260774
9.963261505
9.963260265
9.96326012
9.963260929
9.963261264
9.963260761
9.963259712
9.963260933
9.963258663
9.963257061
9.963256752
9.963256581
9.963256178
9.963255524
9.963255706
9.963256201
9.963255961
9.963256463
9.963257319
9.963279284
9.963279014
9.963278535
9.963279317
9.96327935
9.963277924
9.963278881
9.963277099
9.96327635
9.963275414
9.963275529
9.963274705
9.963276155
9.963277017
9.963274226
9.963273589
9.963273835
9.963273825
9.963272986
9.963272474
9.963272573
9.963273549
9.963272194
9.963272213
9.963273005
9.963272049
9.96327236
9.96327145
9.963290297
9.963289918
9.963289108
9.963289196
9.963288901
9.963288454
9.963286919
9.963287656
9.963287321
9.963285981
9.963285645
9.963285835
9.963284455
9.963284467
9.96327915
9.963278087
9.963279026
9.963277957
9.963277157
9.963277159
9.963276461
9.963277516
9.963277742
9.963279412
9.96328048
9.963280601
9.963281793
9.963281774
9.963282414
9.96328247
9.963282517
9.963281736
9.96328195
9.963280205
9.963279583
9.963279396
9.963278374
9.963279204
9.963277755
9.96327771
9.963276864
9.963276762
9.963276995
9.963276529
9.963276644
9.96327779
9.96327751
9.963277429
9.96327764
9.96327651
9.963276126
9.963275786
9.963275549
9.963274755
9.963276438
9.963275984
9.963262423
9.963262065
9.963262258
9.963263448
9.963261945
9.963261224
9.9632593
9.963259023
9.963258726
9.963258666
9.963258708
9.96325858
9.963259107
9.963259357
9.963259973
9.96328599
9.963285993
9.963285565
9.963286405
9.963287205
9.963287245
9.963288164
9.963286978
9.963286975
9.96328659
9.963286451
9.963285831
9.96328585
9.963283796
9.963284811
9.96328601
9.963284808
9.963285001
9.963284616
9.963283315
9.963283937
9.963282398
9.96328324
9.963282443
9.963282109
9.963280447
9.963281979
9.963283484
9.963287292
9.963286279
9.963285624
9.963285153
9.963285109
9.9632843
9.963285241
9.963284632
9.963287065
9.96328658
9.963287234
9.963286976
9.963285514
9.963285791
9.963250862
9.963250658
9.963249001
9.963247906
9.963248434
9.963250356
9.963250971
9.963252131
9.963252727
9.963252478
9.963252625
9.96325401
9.963253719
9.963253772
9.963287655
9.963286595
9.9632865
9.963284881
9.96328572
9.963285394
9.963284329
9.963283873
9.963285349
9.963284035
9.963284108
9.963284093
9.96328368
9.963285045
9.963284975
9.963284905
9.963285912
9.963286335
9.963285936
9.963285406
9.963286109
9.963285219
9.963285181
9.963284178
9.963282537
9.96328272
9.963282452
9.963282396
9.963269559
9.963268898
9.963268182
9.963268593
9.96326819
9.963268595
9.963269113
9.963269018
9.96326939
9.963268972
9.963268444
9.963268475
9.963268683
9.963269245
9.963273803
9.963273598
9.9632731
9.963273261
9.96327306
9.963271838
9.963273031
9.963273013
9.963274499
9.963274355
9.963274877
9.963274835
9.963275051
9.963275637
9.963267899
9.96326785
9.963267962
9.963267013
9.963267069
9.963267226
9.963267399
9.963267702
9.963265871
9.963266311
9.963265936
9.963265825
9.963267169
9.963265617
9.963265648
9.963273379
9.963273974
9.963272802
9.963273164
9.96327372
9.963271378
9.963271413
9.963271153
9.96327246
9.963272461
9.963272742
9.963271654
9.963271179
9.963270957
9.963270173
9.96329653
9.963296383
9.963295135
9.963295229
9.963293595
9.963293967
9.963293765
9.963292772
9.963293585
9.963294058
9.963295971
9.96329651
9.963296794
9.963295868
9.963267291
9.963265889
9.963264566
9.963263667
9.963263378
9.963264324
9.963264036
9.963266039
9.96326638
9.963266106
9.96326368
9.963264181
9.963264513
9.963265838
9.963272886
9.963272732
9.963272028
9.963271722
9.963272416
9.963272397
9.963272848
9.963273484
9.963273842
9.963275386
9.963273993
9.963272854
9.963273361
9.96327469
9.963275406
9.963275016
9.963275009
9.963274719
9.963274145
9.963274321
9.963276543
9.9632755
9.963275923
9.963275188
9.963274322
9.963275419
9.963276348
9.963276829
9.963272081
9.963272926
9.963273321
9.96327248
9.963273569
9.963273821
9.963274541
9.9632759
9.963274043
9.963273994
9.963275843
9.963272796
9.963272938
9.963272948
9.963279262
9.963280709
9.963280346
9.963281148
9.963281396
9.963281763
9.963281255
9.963282364
9.963282904
9.96328275
9.963282652
9.963283236
9.963283679
9.963283315
9.963272361
9.963271856
9.963271384
9.963271048
9.963270523
9.963269503
9.963270767
9.963271534
9.963271584
9.963272015
9.963272019
9.963270828
9.963270764
9.963270135
9.963282917
9.963282495
9.963281852
9.963282611
9.963280888
9.963280362
9.963281017
9.963281083
9.96328159
9.963281855
9.963281989
9.963282122
9.963281929
9.963281666
9.963282481
9.963268767
9.963268148
9.963267294
9.963266808
9.963265895
9.963263832
9.96326374
9.963262863
9.963262626
9.963261209
9.963259964
9.963260612
9.963261992
9.963260984
9.963263137
9.963274551
9.963274371
9.963272585
9.963272679
9.963273745
9.963273994
9.963274755
9.963274532
9.963274684
9.963274301
9.963275512
9.96327524
9.963278443
9.963278892
9.963278518
9.963251576
9.963251948
9.963252851
9.963251856
9.963252595
9.963251774
9.963253751
9.963254663
9.963256415
9.963256807
9.9632566
9.963257183
9.963257567
9.963258182
9.963524584
9.963528166
9.96353149
9.963534561
9.963536443
9.963538665
9.963540801
9.963541759
9.963541975
9.963544029
9.963546
9.963546751
9.963548935
9.963548376
9.963286688
9.963285082
9.963285085
9.963285818
9.963286401
9.963287258
9.963288166
9.963287583
9.963288188
9.963287586
9.963287925
9.963287202
9.963286935
9.963287375
9.96325352
9.963252473
9.963251765
9.963250603
9.963248819
9.963248493
9.963249075
9.963249178
9.963249754
9.96325048
9.963251368
9.963252689
9.96325388
9.963253912
9.963270366
9.963268805
9.96326573
9.963265525
9.963264912
9.963265811
9.963264896
9.963265017
9.96326528
9.963264891
9.963265385
9.963265726
9.963265293
9.963264517
9.963264687
9.963263737
9.963264625
9.96326448
9.963264205
9.963263749
9.963265498
9.963264835
9.96326439
9.96326394
9.963264059
9.963263773
9.963264057
9.963263386
9.963269155
9.963269048
9.963268421
9.963267061
9.963268052
9.96326772
9.963268312
9.963267968
9.963266773
9.963266602
9.96326698
9.963266779
9.963267651
9.963265954
9.963266151
9.963285391
9.963284297
9.963282519
9.963284622
9.963283146
9.963283166
9.963282934
9.963282655
9.963283143
9.963283753
9.963283795
9.963283543
9.963282659
9.963282582
9.963283057
9.963278151
9.963274864
9.963273305
9.963273485
9.963271756
9.963271738
9.963271191
9.963270163
9.963270633
9.963272305
9.963271957
9.963271464
9.963271685
9.963270926
9.963270613
9.963529835
9.963529223
9.963532141
9.963536029
9.963538057
9.963539386
9.963540005
9.963540729
9.963542847
9.963544204
9.963545905
9.963547915
9.963546649
9.963549991
9.963550918
10.09263757
10.0929255
10.09318838
10.09344258
10.09369002
10.09393469
10.09417715
10.09441935
10.09466284
10.09490518
10.09514779
10.09539212
10.09563572
10.09588171
9.963530768
9.963535392
9.963537491
9.963540842
9.963543113
9.963544595
9.963546233
9.963548865
9.963550372
9.963552308
9.963554508
9.963554719
9.963554841
9.963556848
9.963263343
9.963262487
9.963263312
9.963263775
9.963263403
9.963263332
9.963263671
9.963263211
9.963263608
9.963263591
9.963264221
9.96326295
9.963264051
9.963265833
9.963283606
9.963282717
9.963283835
9.963283525
9.963282931
9.963282516
9.963281602
9.963282525
9.963281649
9.963280879
9.963281129
9.963279488
9.963279778
9.963279409
9.963293152
9.963293153
9.963292581
9.963292339
9.96329164
9.963291399
9.963290264
9.963288507
9.96328785
9.963287935
9.963286444
9.963286873
9.963286634
9.96328732
9.963276323
9.963276874
9.96327773
9.963279225
9.963278838
9.963278183
9.963279054
9.963279112
9.963279322
9.963279635
9.96327996
9.963279017
9.963278317
9.96327721
9.963276886
9.963280763
9.963279042
9.963277515
9.963277164
9.963276746
9.963277702
9.963276461
9.963276507
9.963274535
9.963274277
9.963275094
9.963275508
9.963276073
9.963277269
9.963276977
9.963276103
9.963274955
9.963274146
9.963273991
9.963274799
9.963273088
9.963274111
9.963273767
9.963272368
9.963272927
9.963272332
9.963272305
9.963272241
9.96327193
9.963271293
9.963282245
9.96328179
9.963280692
9.963280923
9.963280686
9.96327963
9.963281279
9.963282402
9.963283248
9.963283775
9.963284615
9.963286099
9.963287438
9.963288077
9.963288881
9.963518388
9.963517946
9.963520529
9.963524372
9.963525607
9.963527707
9.963530324
9.963532283
9.963534106
9.963535523
9.963536836
9.963537706
9.963539438
9.963540561
9.96354112
9.96328029
9.963279363
9.963278032
9.963277963
9.96327738
9.963279119
9.963279853
9.963280294
9.963283497
9.963284092
9.96328334
9.963284988
9.963285183
9.963284389
9.963286592
9.963285988
9.963285546
9.963285823
9.963285589
9.963285498
9.96328508
9.963284091
9.963283566
9.963283064
9.963283836
9.963285305
9.963286224
9.963284871
9.963284838
9.96327606
9.963275639
9.96327621
9.963276916
9.963276503
9.963276406
9.963275893
9.963275096
9.963275239
9.963275644
9.963275851
9.96327494
9.963275124
9.963274773
9.963279215
9.963280456
9.963280533
9.963279552
9.963280475
9.963280821
9.963279834
9.963280708
9.963279866
9.963280048
9.963279513
9.963279746
9.963279157
9.963279221
9.96327341
9.963272219
9.963272916
9.963271201
9.963271535
9.963270017
9.963270664
9.96327156
9.963270953
9.963269727
9.963269611
9.963268705
9.963268005
9.963267333
9.96326728
9.963274359
9.963274398
9.963275154
9.963274853
9.963274907
9.963274241
9.963274873
9.963274004
9.963273114
9.963272585
9.963273321
9.963274548
9.963273357
9.963274408
9.963273451
9.963259134
9.963259846
9.963259479
9.96325905
9.963258801
9.963259184
9.963259757
9.963260458
9.963261226
9.96326129
9.963259763
9.963261506
9.963262311
9.963261603
9.96326218
9.963275429
9.963276271
9.963275887
9.963276496
9.963276456
9.963276026
9.963275994
9.963276256
9.963275416
9.963276482
9.963276683
9.963276494
9.963276992
9.963277544
9.963276295
9.963275718
9.963273992
9.963272507
9.963271013
9.963271841
9.963271559
9.963272858
9.963272536
9.963273086
9.96327395
9.963274805
9.963274643
9.963276828
9.963276498
9.96327654
9.963290864
9.963289976
9.963290388
9.963290367
9.963289918
9.963290566
9.963290051
9.963289923
9.963290556
9.963291036
9.963291277
9.963290563
9.963291308
9.963292086
9.963292343
9.963281533
9.963280692
9.963280449
9.963280262
9.963280215
9.963279578
9.963278543
9.963276599
9.963276569
9.963276122
9.963275275
9.963274227
9.963273613
9.963274616
9.963276519
9.963247707
9.963247893
9.96324737
9.963246013
9.96324501
9.963244148
9.963244314
9.963243675
9.963244088
9.963244121
9.963244613
9.963243189
9.963245013
9.963244262
9.963283873
9.963283041
9.963283742
9.963282762
9.963282853
9.963282069
9.963281127
9.963279578
9.963279936
9.963281436
9.963281085
9.963281544
9.963280662
9.963279191
9.963269476
9.963269117
9.963268749
9.963267791
9.963268205
9.963268008
9.963267465
9.963267147
9.9632668
9.963266821
9.963266918
9.963268522
9.963267402
9.963266802
9.963267039
9.963263973
9.963263053
9.963262134
9.963261976
9.963261889
9.963260806
9.96326064
9.963260738
9.963260137
9.963259281
9.963259063
9.963257873
9.963257338
9.963257158
9.963256993
9.963272116
9.96327101
9.963270133
9.963269819
9.963269852
9.963270734
9.963269875
9.96326904
9.963270488
9.963269972
9.963270703
9.963269879
9.963269195
9.96326973
9.963269842
9.96326376
9.963264914
9.963263979
9.963261988
9.963260817
9.963260129
9.963260067
9.963259846
9.963258615
9.963257504
9.963256263
9.963256806
9.963257955
9.96325827
9.963259527
9.9632892
9.963288502
9.963289839
9.96328832
9.963286846
9.963288058
9.963288416
9.963288007
9.963287382
9.963287072
9.963286566
9.963286414
9.963287114
9.963287409
9.963287588
9.963279107
9.963278744
9.963279359
9.963278924
9.96327884
9.963279302
9.96327812
9.963276782
9.963276847
9.963276697
9.963278055
9.963278865
9.963277678
9.963276419
9.963277626
9.963277013
9.96327781
9.963277732
9.963278183
9.963278594
9.963278058
9.963276394
9.963275643
9.963276401
9.963274932
9.963273109
9.963273568
9.96327395
9.963274284
9.963273361
9.963302988
9.963302276
9.963303794
9.963302118
9.963302394
9.963303471
9.963301344
9.963301636
9.963300483
9.963300868
9.963302329
9.963301156
9.963301173
9.96329938
9.963299305
9.963284416
9.963283712
9.963283368
9.963283994
9.963284165
9.963284917
9.963284389
9.963285414
9.963285594
9.963284637
9.96328424
9.9632835
9.96328281
9.963282476
9.963284808
9.963285659
9.963285904
9.963285337
9.963285901
9.963285611
9.963286239
9.963284662
9.963284955
9.963285794
9.96328562
9.963285061
9.963285041
9.963285779
9.963285137
9.963263013
9.963263669
9.963263758
9.96326325
9.963262075
9.96326145
9.963262133
9.963262435
9.963261326
9.963260307
9.96326128
9.963260729
9.963260072
9.963260712
9.963260564
9.963276429
9.963277199
9.963277759
9.963278156
9.963279656
9.963279679
9.963279235
9.963279728
9.963279188
9.963278167
9.963277073
9.963278613
9.963278788
9.963278308
9.963278779
9.963289012
9.963289204
9.963288652
9.963288164
9.963286666
9.963286266
9.963286665
9.963286915
9.963287444
9.963287292
9.963287773
9.963288594
9.963288285
9.963287942
9.963288136
9.963292107
9.963291906
9.963291852
9.963291287
9.963290517
9.963290731
9.963290362
9.963291119
9.963290324
9.963290992
9.963290211
9.963289783
9.963290388
9.963290522
9.963290276
9.963269199
9.963270244
9.963270663
9.963269877
9.963270172
9.963270306
9.963269685
9.963269984
9.96327018
9.96326915
9.963268679
9.96326879
9.96326934
9.963269572
9.963269833
9.963274168
9.963273601
9.963273851
9.963274223
9.963274561
9.963275227
9.963274394
9.963274242
9.963272833
9.963273855
9.963273728
9.963273902
9.963274827
9.963273982
9.963274625
9.963277891
9.96327751
9.963277197
9.96327778
9.963277876
9.963276927
9.963278407
9.963278442
9.963278815
9.963278433
9.963277552
9.963276769
9.963277036
9.96327638
9.963277496
9.963271976
9.963271488
9.963272032
9.963270749
9.963271103
9.96327145
9.963271828
9.963271723
9.963271076
9.963271374
9.963270241
9.963270932
9.963270451
9.963269839
9.963270137
)
;

boundaryField
{
    top
    {
        type            calculated;
        value           nonuniform List<scalar> 
127
(
9.963271976
9.963276995
9.963273803
9.963272361
9.963264687
9.963293152
9.963279215
9.963283873
9.963284416
9.963271488
9.963276529
9.963273598
9.963271856
9.963263737
9.963293153
9.963280456
9.963283041
9.963283712
9.963272032
9.963276644
9.9632731
9.963271384
9.963264625
9.963292581
9.963280533
9.963283742
9.963283368
9.963270749
9.96327779
9.963273261
9.963271048
9.96326448
9.963292339
9.963279552
9.963282762
9.963283994
9.963271103
9.96327751
9.96327306
9.963270523
9.963264205
9.96329164
9.963280475
9.963282853
9.963284165
9.96327145
9.963277429
9.963271838
9.963269503
9.963263749
9.963291399
9.963280821
9.963282069
9.963284917
9.963271828
9.96327764
9.963273031
9.963270767
9.963265498
9.963290264
9.963279834
9.963281127
9.963284389
9.963271723
9.96327651
9.963273013
9.963271534
9.963264835
9.963288507
9.963280708
9.963279578
9.963285414
9.963271076
9.963276126
9.963274499
9.963271584
9.96326439
9.96328785
9.963279866
9.963279936
9.963285594
9.963271374
9.963275786
9.963274355
9.963272015
9.96326394
9.963287935
9.963280048
9.963281436
9.963284637
9.963270241
9.963275549
9.963274877
9.963272019
9.963264059
9.963286444
9.963279513
9.963281085
9.96328424
9.963270932
9.963274755
9.963274835
9.963270828
9.963263773
9.963286873
9.963279746
9.963281544
9.9632835
9.963270451
9.963276438
9.963275051
9.963270764
9.963264057
9.963286634
9.963279157
9.963280662
9.96328281
9.963269839
9.963275984
9.963275637
9.963270135
9.963263386
9.96328732
9.963279221
9.963279191
9.963282476
9.963270137
)
;
    }
    bottom
    {
        type            calculated;
        value           nonuniform List<scalar> 
134
(
9.963262423
9.963267899
9.963282917
9.963269155
9.963276323
9.96327341
9.963269476
9.963284808
9.963268352
9.963262065
9.96326785
9.963282495
9.963269048
9.963276874
9.963272219
9.963269117
9.963285659
9.963268561
9.963262258
9.963267962
9.963281852
9.963268421
9.96327773
9.963272916
9.963268749
9.963285904
9.963268018
9.963263448
9.963267013
9.963282611
9.963267061
9.963279225
9.963271201
9.963267791
9.963285337
9.963268642
9.963261945
9.963267069
9.963280888
9.963268052
9.963278838
9.963271535
9.963268205
9.963285901
9.963269107
9.963261224
9.963267226
9.963280362
9.96326772
9.963278183
9.963270017
9.963268008
9.963285611
9.963269563
9.9632593
9.963267399
9.963281017
9.963268312
9.963279054
9.963270664
9.963267465
9.963286239
9.963268683
9.963259023
9.963267702
9.963281083
9.963267968
9.963279112
9.96327156
9.963267147
9.963284662
9.963268007
9.963258726
9.963265871
9.96328159
9.963266773
9.963279322
9.963270953
9.9632668
9.963284955
9.963268442
9.963258666
9.963266311
9.963281855
9.963266602
9.963279635
9.963269727
9.963266821
9.963285794
9.963268992
9.963258708
9.963265936
9.963281989
9.96326698
9.96327996
9.963269611
9.963266918
9.96328562
9.963268737
9.96325858
9.963265825
9.963282122
9.963266779
9.963279017
9.963268705
9.963268522
9.963285061
9.963269837
9.963259107
9.963267169
9.963281929
9.963267651
9.963278317
9.963268005
9.963267402
9.963285041
9.963269485
9.963259357
9.963265617
9.963281666
9.963265954
9.96327721
9.963267333
9.963266802
9.963285779
9.963269685
9.963259973
9.963265648
9.963282481
9.963266151
9.963276886
9.96326728
9.963267039
9.963285137
)
;
    }
    side-walls
    {
        type            calculated;
        value           nonuniform List<scalar> 
261
(
9.963268352
9.963260902
9.963260761
9.963279284
9.963274226
9.963290297
9.96327915
9.963282414
9.963276995
9.963268561
9.96325837
9.963259712
9.963279014
9.963273589
9.963289918
9.963278087
9.96328247
9.963276529
9.963268018
9.963259273
9.963260933
9.963278535
9.963273835
9.963289108
9.963279026
9.963282517
9.963276644
9.963268642
9.963260679
9.963258663
9.963279317
9.963273825
9.963289196
9.963277957
9.963281736
9.96327779
9.963269107
9.963260223
9.963257061
9.96327935
9.963272986
9.963288901
9.963277157
9.96328195
9.96327751
9.963269563
9.963260783
9.963256752
9.963277924
9.963272474
9.963288454
9.963277159
9.963280205
9.963277429
9.963268683
9.963261476
9.963256581
9.963278881
9.963272573
9.963286919
9.963276461
9.963279583
9.96327764
9.963268007
9.963261067
9.963256178
9.963277099
9.963273549
9.963287656
9.963277516
9.963279396
9.96327651
9.963268442
9.963260774
9.963255524
9.96327635
9.963272194
9.963287321
9.963277742
9.963278374
9.963276126
9.963268992
9.963261505
9.963255706
9.963275414
9.963272213
9.963285981
9.963279412
9.963279204
9.963275786
9.963268737
9.963260265
9.963256201
9.963275529
9.963273005
9.963285645
9.96328048
9.963277755
9.963275549
9.963269837
9.96326012
9.963255961
9.963274705
9.963272049
9.963285835
9.963280601
9.96327771
9.963274755
9.963269485
9.963260929
9.963256463
9.963276155
9.96327236
9.963284455
9.963281793
9.963276864
9.963276438
9.963269685
9.963261264
9.963257319
9.963277017
9.96327145
9.963284467
9.963281774
9.963276762
9.963275984
9.963284808
9.963263013
9.963276429
9.963289012
9.963292107
9.963269199
9.963274168
9.963277891
9.963271976
9.963285659
9.963263669
9.963277199
9.963289204
9.963291906
9.963270244
9.963273601
9.96327751
9.963271488
9.963285904
9.963263758
9.963277759
9.963288652
9.963291852
9.963270663
9.963273851
9.963277197
9.963272032
9.963285337
9.96326325
9.963278156
9.963288164
9.963291287
9.963269877
9.963274223
9.96327778
9.963270749
9.963285901
9.963262075
9.963279656
9.963286666
9.963290517
9.963270172
9.963274561
9.963277876
9.963271103
9.963285611
9.96326145
9.963279679
9.963286266
9.963290731
9.963270306
9.963275227
9.963276927
9.96327145
9.963286239
9.963262133
9.963279235
9.963286665
9.963290362
9.963269685
9.963274394
9.963278407
9.963271828
9.963284662
9.963262435
9.963279728
9.963286915
9.963291119
9.963269984
9.963274242
9.963278442
9.963271723
9.963284955
9.963261326
9.963279188
9.963287444
9.963290324
9.96327018
9.963272833
9.963278815
9.963271076
9.963285794
9.963260307
9.963278167
9.963287292
9.963290992
9.96326915
9.963273855
9.963278433
9.963271374
9.96328562
9.96326128
9.963277073
9.963287773
9.963290211
9.963268679
9.963273728
9.963277552
9.963270241
9.963285061
9.963260729
9.963278613
9.963288594
9.963289783
9.96326879
9.963273902
9.963276769
9.963270932
9.963285041
9.963260072
9.963278788
9.963288285
9.963290388
9.96326934
9.963274827
9.963277036
9.963270451
9.963285779
9.963260712
9.963278308
9.963287942
9.963290522
9.963269572
9.963273982
9.96327638
9.963269839
9.963285137
9.963260564
9.963278779
9.963288136
9.963290276
9.963269833
9.963274625
9.963277496
9.963270137
)
;
    }
    inlet
    {
        type            calculated;
        value           nonuniform 0();
    }
    outlet
    {
        type            calculated;
        value           nonuniform List<scalar> 
81
(
9.963269685
9.963261264
9.963257319
9.963277017
9.96327145
9.963284467
9.963281774
9.963276762
9.963275984
9.963259973
9.963283796
9.963283484
9.963285791
9.963253772
9.963285045
9.963282396
9.963269245
9.963275637
9.963265648
9.963270173
9.963295868
9.963265838
9.96327469
9.963276829
9.963272948
9.963283315
9.963270135
9.963282481
9.963263137
9.963278518
9.963258182
9.963548376
9.963287375
9.963253912
9.963264517
9.963263386
9.963266151
9.963283057
9.963270613
9.963550918
10.09588171
9.963556848
9.963265833
9.963279409
9.96328732
9.963276886
9.963276977
9.963271293
9.963288881
9.96354112
9.963286592
9.963284838
9.963274773
9.963279221
9.96326728
9.963273451
9.96326218
9.963276295
9.96327654
9.963292343
9.963276519
9.963244262
9.963279191
9.963267039
9.963256993
9.963269842
9.963259527
9.963287588
9.963277626
9.963273361
9.963299305
9.963282476
9.963285137
9.963260564
9.963278779
9.963288136
9.963290276
9.963269833
9.963274625
9.963277496
9.963270137
)
;
    }
    procBoundary1to0
    {
        type            processor;
        value           nonuniform List<scalar> 
97
(
9.963268308
9.963268308
9.963259651
9.963261113
9.963279113
9.963272983
9.963289981
9.963279483
9.963282471
9.96327654
9.963264336
9.963286728
9.963286728
9.963286728
9.963285265
9.963287914
9.963251291
9.963289243
9.963285893
9.963268625
9.96327516
9.963267978
9.963274161
9.963295419
9.963295419
9.963295419
9.963267181
9.963271569
9.9632775
9.963272075
9.963279629
9.963271587
9.96328336
9.963268566
9.963276389
9.963253829
9.963253829
9.963253829
9.963522362
9.963287136
9.96325335
9.963270421
9.963264751
9.963270415
9.96328358
9.963279872
9.963282332
10.09239914
10.09239914
10.09239914
9.963529374
9.963529374
9.963263959
9.963284211
9.963292485
9.963275964
9.96328036
9.963277571
9.963284329
9.963271076
9.963282334
9.963286436
9.963286436
9.963286436
9.963275995
9.963280612
9.963273661
9.963273647
9.963259907
9.963275121
9.96327652
9.963292194
9.963280937
9.963248206
9.963248206
9.963248206
9.96328486
9.963269347
9.963265014
9.963272413
9.963263739
9.963289381
9.963277728
9.96327803
9.963302803
9.963284369
9.963284369
9.963284369
9.9632845
9.963264369
9.963276117
9.963289114
9.963292348
9.963269986
9.963275534
9.963276839
9.963271186
)
;
    }
}


// ************************************************************************* //
