/*--------------------------------*- C++ -*----------------------------------*\
| =========                 |                                                 |
| \\      /  F ield         | OpenFOAM: The Open Source CFD Toolbox           |
|  \\    /   O peration     | Version:  4.x                                   |
|   \\  /    A nd           | Web:      www.OpenFOAM.org                      |
|    \\/     M anipulation  |                                                 |
\*---------------------------------------------------------------------------*/
FoamFile
{
    version     2.0;
    format      ascii;
    class       volScalarField;
    location    "1000";
    object      N2;
}
// * * * * * * * * * * * * * * * * * * * * * * * * * * * * * * * * * * * * * //

dimensions      [0 0 0 0 0 0 0];

internalField   nonuniform List<scalar> 
1174
(
0.5999971808
0.5999950745
0.5999920974
0.5999882101
0.5999834515
0.5999779242
0.5999717728
0.5999651628
0.5999582623
0.5999512303
0.5999442144
0.5999373728
0.5999309878
0.5999259628
0.5999952084
0.5999918335
0.5999873347
0.5999818132
0.599975456
0.5999684912
0.5999611511
0.5999536476
0.5999461601
0.599938832
0.5999317774
0.5999251074
0.5999190379
0.5999143439
0.5999908526
0.5999848891
0.5999775021
0.5999691034
0.5999601403
0.5999510154
0.5999420487
0.5999334688
0.5999254219
0.5999179885
0.599911204
0.5999050917
0.599899754
0.5998957458
0.5999844719
0.5999752091
0.5999645615
0.599953302
0.5999420767
0.5999313513
0.5999214185
0.5999124305
0.5999044372
0.5998974206
0.5998913242
0.5998860837
0.5998816982
0.5998785094
0.5999799153
0.5999688409
0.5999567426
0.5999444672
0.5999326294
0.5999216236
0.5999116666
0.5999028438
0.5998951514
0.5998885294
0.5998828881
0.5998781353
0.5998742343
0.5998714418
0.5999844721
0.5999752094
0.5999645618
0.5999533023
0.5999420771
0.5999313517
0.599921419
0.599912431
0.5999044377
0.5998974212
0.5998913247
0.5998860843
0.5998816987
0.59987851
0.5999908528
0.5999848894
0.5999775025
0.5999691038
0.5999601408
0.599951016
0.5999420493
0.5999334695
0.5999254227
0.5999179893
0.5999112049
0.5999050926
0.5998997549
0.5998957468
0.5999952086
0.5999918338
0.599987335
0.5999818135
0.5999754564
0.5999684918
0.5999611517
0.5999536483
0.5999461609
0.5999388329
0.5999317783
0.5999251085
0.599919039
0.599914345
0.599997181
0.5999950747
0.5999920976
0.5999882104
0.5999834519
0.5999779246
0.5999717733
0.5999651634
0.599958263
0.5999512311
0.5999442153
0.5999373738
0.5999309889
0.599925964
0.5999974851
0.5999952085
0.5999918336
0.5999873348
0.5999818132
0.5999754561
0.5999684913
0.5999611512
0.5999536477
0.5999461602
0.5999388321
0.5999317774
0.5999251075
0.599919038
0.5999143439
0.5999907637
0.5999848402
0.5999776087
0.5999694993
0.5999609453
0.5999523125
0.5999438743
0.599935814
0.5999282409
0.5999212095
0.5999147413
0.5999088557
0.5999036611
0.5998997262
0.5999795843
0.5999680789
0.5999555555
0.599943068
0.5999313404
0.59992077
0.5999115034
0.5999035251
0.5998967298
0.5998909739
0.5998861082
0.5998820047
0.5998786087
0.5998761516
0.5999597225
0.5999405933
0.5999223685
0.599906408
0.5998931918
0.5998826648
0.5998745106
0.5998683252
0.5998637107
0.5998603167
0.5998578536
0.5998560917
0.5998548618
0.5998540932
0.5999409797
0.5999179601
0.5998984053
0.5998828359
0.5998709577
0.5998621854
0.599855892
0.5998515132
0.5998485794
0.5998467163
0.5998456324
0.5998451023
0.5998449432
0.5998449778
0.599959723
0.599940594
0.5999223693
0.5999064088
0.5998931926
0.5998826656
0.5998745113
0.5998683259
0.5998637114
0.5998603175
0.5998578543
0.5998560924
0.5998548625
0.599854094
0.5999795849
0.5999680796
0.5999555563
0.5999430688
0.5999313413
0.5999207709
0.5999115044
0.5999035261
0.5998967309
0.599890975
0.5998861093
0.5998820058
0.5998786099
0.5998761528
0.5999907641
0.5999848406
0.5999776091
0.5999694998
0.5999609459
0.5999523132
0.5999438751
0.5999358149
0.5999282419
0.5999212106
0.5999147424
0.5999088569
0.5999036624
0.5998997275
0.5999952086
0.5999918338
0.599987335
0.5999818136
0.5999754565
0.5999684918
0.5999611518
0.5999536484
0.5999461611
0.5999388331
0.5999317786
0.5999251087
0.5999190393
0.5999143454
0.5999951365
0.5999908527
0.5999848892
0.5999775022
0.5999691036
0.5999601404
0.5999510156
0.5999420489
0.599933469
0.5999254221
0.5999179887
0.5999112043
0.5999050919
0.5998997542
0.599895746
0.5999888645
0.5999795844
0.599968079
0.5999555557
0.5999430681
0.5999313406
0.5999207702
0.5999115036
0.5999035253
0.59989673
0.599890974
0.5998861083
0.5998820048
0.5998786089
0.5998761517
0.5999465766
0.5999223098
0.5999002898
0.5998821808
0.5998683356
0.5998583705
0.5998515981
0.5998472847
0.5998447738
0.5998435307
0.5998431435
0.5998433028
0.5998437647
0.5998442651
0.5998731973
0.5998321917
0.5998037924
0.5997868971
0.599778812
0.5997768077
0.5997786752
0.5997828093
0.5997881183
0.5997938943
0.5997996941
0.5998052332
0.5998102449
0.5998140819
0.5997770896
0.5997361947
0.5997184061
0.5997149881
0.5997196784
0.5997285188
0.5997391546
0.5997502404
0.5997610388
0.5997711694
0.5997804537
0.5997888028
0.5997960601
0.5998014842
0.5998731997
0.599832194
0.5998037946
0.5997868991
0.5997788137
0.5997768094
0.5997786767
0.5997828106
0.5997881195
0.5997938955
0.5997996952
0.5998052342
0.5998102458
0.5998140829
0.5999465786
0.5999223116
0.5999002914
0.5998821824
0.5998683373
0.5998583721
0.5998515998
0.5998472863
0.5998447754
0.5998435323
0.5998431451
0.5998433044
0.5998437662
0.5998442666
0.5999795849
0.5999680796
0.5999555564
0.599943069
0.5999313416
0.5999207713
0.5999115048
0.5999035266
0.5998967314
0.5998909755
0.5998861099
0.5998820064
0.5998786105
0.5998761534
0.5999908528
0.5999848894
0.5999775025
0.599969104
0.599960141
0.5999510163
0.5999420498
0.59993347
0.5999254233
0.59991799
0.5999112057
0.5999050935
0.5998997558
0.5998957478
0.5999916098
0.599984472
0.5999752094
0.5999645618
0.5999533023
0.599942077
0.5999313517
0.5999214189
0.5999124309
0.5999044376
0.599897421
0.5998913246
0.5998860841
0.5998816986
0.5998785098
0.5999772936
0.5999597226
0.5999405937
0.599922369
0.5999064085
0.5998931923
0.5998826653
0.599874511
0.5998683256
0.5998637111
0.5998603171
0.599857854
0.5998560921
0.5998548621
0.5998540936
0.5999231068
0.5998731976
0.5998321923
0.599803793
0.5997868977
0.5997788125
0.5997768082
0.5997786757
0.5997828097
0.5997881186
0.5997938946
0.5997996944
0.5998052335
0.5998102451
0.5998140821
0.5996217946
0.5995698563
0.5995607364
0.59957493
0.5995996141
0.5996275208
0.5996549456
0.5996802221
0.5997027645
0.5997225192
0.5997396627
0.599754416
0.5997668065
0.5997758539
0.5991286452
0.5991915314
0.5992893855
0.5993836262
0.5994639196
0.5995295398
0.5995825376
0.5996253807
0.5996602364
0.5996888295
0.5997124741
0.5997321127
0.5997481907
0.5997597428
0.5996218038
0.5995698626
0.5995607412
0.5995749338
0.5995996172
0.5996275234
0.5996549478
0.599680224
0.5997027662
0.5997225207
0.599739664
0.5997544172
0.5997668076
0.599775855
0.5998731997
0.5998321947
0.5998037956
0.5997869003
0.5997788151
0.5997768108
0.5997786781
0.599782812
0.5997881208
0.5997938967
0.5997996964
0.5998052354
0.599810247
0.599814084
0.599959723
0.5999405943
0.5999223699
0.5999064096
0.5998931936
0.5998826668
0.5998745127
0.5998683274
0.5998637129
0.599860319
0.5998578559
0.599856094
0.5998548641
0.5998540956
0.5999844721
0.5999752095
0.599964562
0.5999533028
0.5999420777
0.5999313526
0.59992142
0.5999124322
0.5999044391
0.5998974226
0.5998913263
0.599886086
0.5998817005
0.5998785118
0.5999889628
0.5999799155
0.5999688413
0.5999567431
0.5999444678
0.59993263
0.5999216242
0.5999116672
0.5999028445
0.5998951521
0.59988853
0.5998828887
0.5998781359
0.5998742349
0.5998714424
0.5999652088
0.5999409802
0.599917961
0.5998984062
0.5998828368
0.5998709587
0.5998621863
0.5998558928
0.599851514
0.5998485801
0.5998467169
0.5998456331
0.5998451029
0.5998449438
0.5998449784
0.5998492927
0.59977709
0.5997361965
0.5997184079
0.5997149896
0.5997196797
0.5997285199
0.5997391555
0.5997502412
0.5997610396
0.5997711701
0.5997804543
0.5997888033
0.5997960606
0.5998014846
0.5992171675
0.5991286501
0.599191535
0.5992893881
0.5993836281
0.599463921
0.5995295409
0.5995825385
0.5996253813
0.5996602369
0.59968883
0.5997124745
0.5997321131
0.599748191
0.5997597431
0.5970001357
0.5980752433
0.598673335
0.599024734
0.5992429448
0.5993859203
0.5994843642
0.5995551845
0.5996080691
0.5996487941
0.5996809307
0.5997067136
0.5997273039
0.5997418806
0.5991286462
0.5991915407
0.5992893936
0.5993836325
0.5994639245
0.5995295437
0.5995825409
0.5996253834
0.5996602387
0.5996888316
0.599712476
0.5997321144
0.5997481922
0.5997597443
0.59977709
0.5997361979
0.5997184101
0.5997149922
0.5997196824
0.5997285226
0.5997391581
0.5997502437
0.5997610419
0.5997711724
0.5997804564
0.5997888054
0.5997960625
0.5998014866
0.5999409799
0.5999179611
0.5998984068
0.5998828378
0.59987096
0.5998621878
0.5998558946
0.5998515158
0.599848582
0.5998467189
0.5998456351
0.5998451049
0.5998449459
0.5998449804
0.5999799154
0.5999688413
0.5999567433
0.5999444682
0.5999326306
0.5999216252
0.5999116684
0.5999028458
0.5998951536
0.5998885317
0.5998828905
0.5998781378
0.5998742369
0.5998714445
0.5999916099
0.5999844723
0.5999752097
0.5999645622
0.5999533029
0.5999420777
0.5999313524
0.5999214196
0.5999124317
0.5999044384
0.5998974219
0.5998913254
0.599886085
0.5998816994
0.5998785106
0.5999772941
0.5999597235
0.5999405948
0.5999223702
0.5999064098
0.5998931936
0.5998826666
0.5998745123
0.5998683268
0.5998637123
0.5998603183
0.5998578551
0.5998560932
0.5998548632
0.5998540947
0.59992311
0.5998732011
0.5998321961
0.5998037966
0.5997869009
0.5997788154
0.5997768108
0.599778678
0.5997828118
0.5997881206
0.5997938964
0.5997996961
0.599805235
0.5998102466
0.5998140836
0.5997373751
0.5996218074
0.5995698667
0.5995607446
0.5995749365
0.5995996194
0.5996275252
0.5996549493
0.5996802252
0.5997027672
0.5997225216
0.5997396648
0.5997544179
0.5997668083
0.5997758556
0.5992171687
0.5991286531
0.5991915455
0.5992893969
0.5993836349
0.5994639263
0.5995295451
0.5995825419
0.5996253843
0.5996602394
0.5996888322
0.5997124765
0.5997321149
0.5997481926
0.5997597447
0.5997373737
0.599621809
0.5995698691
0.5995607471
0.5995749388
0.5995996215
0.5996275271
0.599654951
0.5996802268
0.5997027687
0.5997225229
0.5997396661
0.5997544191
0.5997668094
0.5997758566
0.5998731976
0.5998321949
0.5998037968
0.599786902
0.5997788169
0.5997768126
0.5997786799
0.5997828137
0.5997881225
0.5997938983
0.5997996979
0.5998052368
0.5998102483
0.5998140853
0.5999597225
0.5999405941
0.5999223701
0.5999064101
0.5998931943
0.5998826676
0.5998745136
0.5998683283
0.5998637139
0.59986032
0.5998578569
0.599856095
0.5998548651
0.5998540966
0.5999844719
0.5999752094
0.5999645621
0.5999533029
0.599942078
0.5999313529
0.5999214204
0.5999124327
0.5999044397
0.5998974233
0.599891327
0.5998860867
0.5998817012
0.5998785126
0.5999951366
0.599990853
0.5999848896
0.5999775028
0.5999691043
0.5999601413
0.5999510165
0.5999420499
0.5999334701
0.5999254233
0.59991799
0.5999112056
0.5999050933
0.5998997556
0.5998957475
0.599988865
0.5999795853
0.5999680801
0.5999555569
0.5999430695
0.5999313421
0.5999207717
0.5999115052
0.599903527
0.5998967317
0.5998909758
0.5998861101
0.5998820066
0.5998786106
0.5998761535
0.5999696785
0.5999465794
0.5999223128
0.5999002928
0.5998821838
0.5998683386
0.5998583734
0.599851601
0.5998472874
0.5998447765
0.5998435334
0.599843146
0.5998433053
0.5998437671
0.5998442675
0.5999231102
0.5998732018
0.5998321972
0.599803798
0.5997869025
0.5997788171
0.5997768125
0.5997786796
0.5997828134
0.599788122
0.5997938978
0.5997996974
0.5998052363
0.5998102478
0.5998140847
0.5998492935
0.5997770934
0.5997362013
0.5997184129
0.5997149946
0.5997196843
0.5997285242
0.5997391595
0.5997502449
0.5997610429
0.5997711732
0.5997804572
0.599788806
0.5997960632
0.5998014871
0.5999231105
0.5998732023
0.599832198
0.5998037989
0.5997869035
0.5997788181
0.5997768135
0.5997786806
0.5997828143
0.599788123
0.5997938987
0.5997996983
0.5998052372
0.5998102486
0.5998140856
0.5999696776
0.5999465787
0.5999223125
0.5999002929
0.5998821843
0.5998683394
0.5998583744
0.5998516022
0.5998472887
0.5998447778
0.5998435347
0.5998431474
0.5998433066
0.5998437684
0.5998442688
0.5999795843
0.5999680795
0.5999555566
0.5999430695
0.5999313423
0.5999207722
0.599911506
0.5999035279
0.5998967328
0.599890977
0.5998861114
0.599882008
0.5998786121
0.599876155
0.5999908526
0.5999848893
0.5999775025
0.5999691042
0.5999601413
0.5999510168
0.5999420504
0.5999334708
0.5999254242
0.599917991
0.5999112068
0.5999050946
0.5998997571
0.5998957491
0.5999974853
0.5999952087
0.5999918339
0.5999873352
0.5999818138
0.5999754568
0.5999684921
0.5999611521
0.5999536488
0.5999461614
0.5999388335
0.5999317789
0.5999251091
0.5999190397
0.5999143457
0.5999950757
0.5999907643
0.5999848409
0.5999776095
0.5999695003
0.5999609464
0.5999523138
0.5999438757
0.5999358156
0.5999282426
0.5999212113
0.5999147432
0.5999088576
0.5999036632
0.5998997283
0.5999888651
0.5999795853
0.5999680803
0.5999555571
0.5999430698
0.5999313425
0.5999207722
0.5999115058
0.5999035275
0.5998967323
0.5998909764
0.5998861108
0.5998820073
0.5998786114
0.5998761542
0.5999772942
0.5999597239
0.5999405954
0.5999223712
0.5999064109
0.599893195
0.5998826681
0.5998745139
0.5998683286
0.599863714
0.5998603201
0.5998578569
0.599856095
0.599854865
0.5998540964
0.5999652091
0.5999409812
0.5999179626
0.5998984084
0.5998828394
0.5998709614
0.5998621892
0.5998558958
0.599851517
0.5998485831
0.5998467199
0.599845636
0.5998451058
0.5998449466
0.5998449812
0.5999772943
0.5999597241
0.5999405957
0.5999223715
0.5999064114
0.5998931954
0.5998826686
0.5998745145
0.5998683291
0.5998637146
0.5998603207
0.5998578575
0.5998560956
0.5998548656
0.5998540971
0.599988865
0.5999795852
0.5999680802
0.5999555572
0.59994307
0.5999313428
0.5999207727
0.5999115064
0.5999035283
0.5998967331
0.5998909773
0.5998861117
0.5998820083
0.5998786124
0.5998761553
0.5999950755
0.5999907641
0.5999848407
0.5999776094
0.5999695003
0.5999609466
0.5999523141
0.5999438762
0.5999358162
0.5999282433
0.5999212122
0.5999147441
0.5999088587
0.5999036643
0.5998997295
0.5999952084
0.5999918337
0.5999873351
0.5999818137
0.5999754568
0.5999684923
0.5999611524
0.5999536492
0.599946162
0.5999388342
0.5999317798
0.5999251101
0.5999190408
0.599914347
0.5999985345
0.599997181
0.5999950748
0.5999920978
0.5999882106
0.5999834521
0.5999779249
0.5999717737
0.5999651638
0.5999582635
0.5999512317
0.5999442159
0.5999373744
0.5999309895
0.5999259646
0.5999974853
0.5999952087
0.5999918339
0.5999873353
0.5999818139
0.5999754569
0.5999684923
0.5999611523
0.599953649
0.5999461617
0.5999388338
0.5999317792
0.5999251094
0.59991904
0.5999143461
0.5999951366
0.599990853
0.5999848898
0.599977503
0.5999691046
0.5999601417
0.599951017
0.5999420505
0.5999334708
0.5999254241
0.5999179909
0.5999112065
0.5999050943
0.5998997567
0.5998957486
0.5999916099
0.5999844724
0.5999752101
0.5999645628
0.5999533036
0.5999420787
0.5999313536
0.599921421
0.5999124332
0.5999044401
0.5998974236
0.5998913272
0.5998860869
0.5998817014
0.5998785127
0.599988963
0.5999799159
0.599968842
0.5999567442
0.5999444692
0.5999326317
0.5999216262
0.5999116694
0.5999028469
0.5998951546
0.5998885326
0.5998828914
0.5998781387
0.5998742377
0.5998714453
0.59999161
0.5999844725
0.5999752102
0.5999645629
0.5999533038
0.5999420789
0.5999313538
0.5999214213
0.5999124335
0.5999044404
0.599897424
0.5998913277
0.5998860874
0.5998817019
0.5998785132
0.5999951366
0.599990853
0.5999848898
0.599977503
0.5999691047
0.5999601419
0.5999510173
0.5999420509
0.5999334713
0.5999254246
0.5999179915
0.5999112072
0.599905095
0.5998997575
0.5998957495
0.5999974852
0.5999952086
0.5999918339
0.5999873352
0.5999818139
0.599975457
0.5999684925
0.5999611526
0.5999536494
0.5999461622
0.5999388344
0.59993178
0.5999251102
0.599919041
0.5999143471
0.5999985345
0.5999971809
0.5999950747
0.5999920977
0.5999882105
0.5999834521
0.599977925
0.5999717738
0.5999651641
0.5999582639
0.5999512322
0.5999442166
0.5999373753
0.5999309905
0.5999259657
)
;

boundaryField
{
    top
    {
        type            zeroGradient;
    }
    bottom
    {
        type            zeroGradient;
    }
    side-walls
    {
        type            zeroGradient;
    }
    inlet
    {
        type            zeroGradient;
    }
    outlet
    {
        type            zeroGradient;
    }
    procBoundary1to0
    {
        type            processor;
        value           nonuniform List<scalar> 
97
(
0.5999985345
0.5999985345
0.5999974852
0.5999951366
0.59999161
0.5999889631
0.5999916101
0.5999951367
0.5999974853
0.5999985346
0.5999988301
0.5999950755
0.5999950755
0.5999950755
0.5999888649
0.5999772943
0.5999652097
0.5999772947
0.5999888653
0.5999950759
0.5999974853
0.5999977671
0.599995018
0.5999696772
0.5999696772
0.5999696772
0.5999231097
0.5998492961
0.5999231121
0.5999696792
0.5999888653
0.5999951367
0.5999962103
0.599990173
0.5999690735
0.5997373655
0.5997373655
0.5997373655
0.5992171807
0.59973738
0.5999231119
0.5999772947
0.59999161
0.5999950989
0.5999856037
0.599945658
0.5997878246
0.5949603982
0.5949603982
0.5949603982
0.5992171791
0.5992171791
0.5998492956
0.5999652096
0.5999889631
0.5999962103
0.5999901731
0.5999690739
0.5999078117
0.5997878244
0.5999078122
0.5999231081
0.5999231081
0.5999231081
0.599977294
0.5999916099
0.5999977672
0.599995018
0.5999869668
0.5999690738
0.5999456581
0.599969074
0.5999869667
0.5999888646
0.5999888646
0.5999888646
0.5999951365
0.5999988301
0.5999977456
0.599995018
0.5999901731
0.5999856038
0.5999901732
0.599995018
0.5999977456
0.5999974851
0.5999974851
0.5999974851
0.5999993115
0.5999988301
0.5999977672
0.5999962103
0.5999950989
0.5999962103
0.5999977672
0.5999988301
0.5999993115
)
;
    }
}


// ************************************************************************* //
