/*--------------------------------*- C++ -*----------------------------------*\
| =========                 |                                                 |
| \\      /  F ield         | OpenFOAM: The Open Source CFD Toolbox           |
|  \\    /   O peration     | Version:  4.x                                   |
|   \\  /    A nd           | Web:      www.OpenFOAM.org                      |
|    \\/     M anipulation  |                                                 |
\*---------------------------------------------------------------------------*/
FoamFile
{
    version     2.0;
    format      ascii;
    class       volScalarField;
    location    "1000";
    object      rho;
}
// * * * * * * * * * * * * * * * * * * * * * * * * * * * * * * * * * * * * * //

dimensions      [1 -3 0 0 0 0 0];

internalField   nonuniform List<scalar> 
1174
(
0.2790927858
0.2790937736
0.2790951344
0.2790969551
0.279099179
0.2791017543
0.2791046045
0.2791076656
0.2791108961
0.2791141657
0.2791174475
0.2791206296
0.2791235956
0.279125928
0.2790934606
0.2790950016
0.2790971066
0.2790996772
0.2791026412
0.2791059072
0.2791093428
0.2791128312
0.2791162736
0.2791197018
0.2791229874
0.2791260723
0.2791289151
0.279131097
0.2790955164
0.2790982648
0.2791017023
0.279105576
0.279109729
0.2791139286
0.2791181041
0.2791220867
0.2791258119
0.2791292542
0.2791324381
0.2791352482
0.2791377447
0.2791396331
0.279099004
0.2791032993
0.2791082293
0.2791134676
0.2791187258
0.2791237005
0.2791282987
0.2791324513
0.2791361248
0.2791393894
0.2791422201
0.2791446208
0.2791467094
0.2791481956
0.2791009642
0.2791061117
0.2791117469
0.2791174709
0.2791229426
0.2791280334
0.2791326886
0.2791368045
0.2791403502
0.2791434313
0.2791460569
0.2791482871
0.2791500712
0.2791513666
0.2790992867
0.2791035817
0.2791085137
0.2791137806
0.2791189877
0.2791239589
0.2791285517
0.2791327195
0.2791364379
0.2791396763
0.2791424902
0.2791449307
0.2791469666
0.2791484204
0.2790960257
0.2790987834
0.2791022174
0.2791061053
0.2791102476
0.2791145081
0.2791186548
0.2791226842
0.2791264226
0.279129921
0.279133107
0.2791359461
0.2791384448
0.2791403397
0.2790941015
0.2790956514
0.2790977331
0.2791003145
0.2791032584
0.2791064711
0.2791098573
0.2791133218
0.2791167952
0.279120209
0.2791234853
0.2791265668
0.2791293726
0.2791315732
0.2790930387
0.2790939968
0.2790953704
0.2790972182
0.2790994183
0.2791020008
0.2791048512
0.2791078959
0.2791111011
0.2791143373
0.2791175983
0.2791207784
0.2791237696
0.2791261201
0.2790925103
0.2790935446
0.2790951155
0.2790972144
0.2790997723
0.2791026867
0.2791059083
0.2791092864
0.2791127641
0.2791162689
0.2791196228
0.2791229257
0.279126028
0.2791288576
0.2791310728
0.279096268
0.2790990425
0.2791023618
0.2791061488
0.279110145
0.2791141793
0.2791181359
0.2791218508
0.279125352
0.2791286139
0.2791316325
0.2791343631
0.2791367559
0.2791385576
0.279101404
0.2791067904
0.2791126184
0.2791184096
0.2791238535
0.2791287585
0.279133054
0.2791367589
0.2791399114
0.2791425656
0.27914486
0.2791467049
0.2791483219
0.279149512
0.2791107287
0.2791195962
0.2791280554
0.2791354754
0.2791416117
0.2791464858
0.2791502913
0.2791532086
0.2791554318
0.2791569518
0.279158101
0.2791589415
0.2791594846
0.2791598467
0.279118424
0.279129114
0.2791381831
0.2791453986
0.2791509299
0.2791550463
0.2791579796
0.2791600619
0.279161442
0.2791622938
0.2791628482
0.2791631288
0.2791631742
0.2791631398
0.279110754
0.2791196159
0.2791280724
0.2791354701
0.2791416372
0.279146517
0.2791503118
0.2791531449
0.2791553597
0.2791569039
0.2791580261
0.2791588245
0.279159411
0.2791597812
0.2791014502
0.2791067889
0.2791126449
0.2791184517
0.2791239419
0.2791288018
0.2791331092
0.2791368074
0.279139968
0.2791426422
0.2791448805
0.2791467705
0.2791483078
0.2791494151
0.2790957836
0.2790985419
0.2791018621
0.2791056615
0.2791096457
0.2791136465
0.2791176061
0.2791213442
0.2791248852
0.2791281287
0.2791311355
0.2791338795
0.279136298
0.2791381084
0.2790938662
0.2790954009
0.2790975182
0.2791000925
0.2791030111
0.279106233
0.2791096664
0.2791131633
0.2791166816
0.2791200841
0.2791233881
0.2791264711
0.279129315
0.279131487
0.2790936949
0.2790956905
0.2790984855
0.2791019237
0.2791057924
0.2791099819
0.2791142071
0.2791183711
0.2791223606
0.2791260988
0.2791295831
0.2791327324
0.2791355652
0.2791380372
0.2791398908
0.2790967997
0.2791011068
0.2791064357
0.279112269
0.2791181079
0.2791235158
0.2791284212
0.279132717
0.2791364528
0.2791396221
0.279142304
0.2791445399
0.2791464091
0.2791480103
0.2791491583
0.2791170925
0.2791283726
0.2791385973
0.2791470149
0.2791534228
0.2791580536
0.2791611705
0.2791632025
0.2791643789
0.2791649614
0.2791651717
0.2791651328
0.2791649383
0.2791646765
0.279150404
0.2791694661
0.2791826523
0.279190505
0.2791942197
0.279195198
0.2791943035
0.2791924086
0.2791899569
0.2791872774
0.2791845631
0.2791819332
0.2791796372
0.2791778677
0.2791953132
0.2792143135
0.2792225582
0.2792241557
0.2792219675
0.2792179047
0.2792129592
0.2792078245
0.2792027915
0.2791981069
0.2791937428
0.2791898447
0.2791864633
0.2791839794
0.279150638
0.2791697058
0.2791829173
0.2791907493
0.2791945184
0.2791954432
0.2791945972
0.2791926853
0.2791902324
0.2791875158
0.2791848105
0.2791822784
0.2791799695
0.2791781987
0.279116431
0.2791277179
0.2791379639
0.2791464178
0.2791528557
0.2791574998
0.2791606824
0.2791627108
0.2791638546
0.2791643799
0.2791646148
0.2791644854
0.2791642602
0.279164068
0.2791012852
0.2791066416
0.2791124664
0.2791183396
0.2791237568
0.2791286954
0.2791329966
0.2791367274
0.2791399067
0.2791425536
0.2791448331
0.2791467455
0.2791483414
0.2791494901
0.2790958207
0.2790985903
0.2791020273
0.2791059233
0.279110075
0.2791142868
0.2791184779
0.2791225117
0.2791262447
0.2791297152
0.279132865
0.2791357053
0.2791381526
0.2791399998
0.279095781
0.2790991201
0.2791033884
0.2791083438
0.2791135482
0.2791187486
0.2791237395
0.2791283605
0.2791325678
0.2791362726
0.2791395602
0.2791424225
0.2791448398
0.2791468826
0.2791483749
0.2791020289
0.2791102059
0.2791190791
0.2791275378
0.2791349481
0.279141024
0.2791459157
0.2791496983
0.2791525659
0.2791546575
0.2791562295
0.2791573817
0.2791582166
0.2791587816
0.2791591345
0.2791274019
0.2791506112
0.2791696489
0.2791828557
0.2791907167
0.2791945063
0.2791954327
0.2791946109
0.2791926944
0.27919021
0.2791875442
0.279184838
0.2791823429
0.2791800465
0.2791782621
0.2792670036
0.2792911675
0.2792954013
0.2792888372
0.2792773374
0.2792643366
0.2792516058
0.2792399105
0.2792294216
0.2792202161
0.2792122564
0.2792053843
0.2791996451
0.2791954446
0.279504446
0.2794752114
0.2794296758
0.2793858466
0.2793485116
0.2793179741
0.2792933225
0.279273433
0.2792572377
0.2792439717
0.2792329844
0.2792238949
0.2792164361
0.2792110951
0.2792679674
0.2792921208
0.2792963852
0.2792897661
0.2792782844
0.2792653099
0.2792525639
0.2792407921
0.2792303133
0.2792211014
0.2792131085
0.2792062234
0.2792004771
0.2791962637
0.2791500329
0.2791690877
0.2791822898
0.2791901123
0.2791938345
0.2791947276
0.27919389
0.2791919803
0.2791895323
0.2791868756
0.2791841533
0.2791816511
0.279179329
0.2791774962
0.2791102657
0.2791190969
0.2791274925
0.279134939
0.2791410756
0.2791459363
0.2791497661
0.279152641
0.2791547786
0.2791563578
0.2791575256
0.2791583426
0.2791588991
0.2791592418
0.2790985815
0.2791028673
0.2791078158
0.2791130592
0.2791182989
0.2791232876
0.2791279249
0.2791320803
0.2791358108
0.2791390624
0.2791418797
0.2791443109
0.279146387
0.2791478595
0.2790966324
0.2791008498
0.2791059387
0.2791115376
0.279117284
0.2791227969
0.2791279061
0.2791325378
0.2791366296
0.27914019
0.2791432742
0.2791458937
0.2791481283
0.2791498837
0.2791511924
0.2791081249
0.2791193849
0.2791300442
0.2791391788
0.2791463764
0.2791519023
0.2791559763
0.2791589005
0.2791609562
0.2791623321
0.2791631797
0.2791637051
0.2791639083
0.2791640133
0.2791639868
0.2791618368
0.2791953569
0.2792143732
0.2792225983
0.2792241801
0.2792219723
0.2792178678
0.2792128793
0.2792077042
0.2792027344
0.2791980256
0.2791936794
0.2791898105
0.2791864044
0.2791838956
0.2794632757
0.2795045406
0.2794753213
0.2794298085
0.2793859375
0.2793485706
0.2793180512
0.2792933995
0.2792734719
0.2792573005
0.2792439978
0.2792330589
0.2792239137
0.2792164965
0.2792111524
0.284134733
0.2836320857
0.2833561695
0.2831970862
0.2831009599
0.2830402932
0.2830006163
0.2829739822
0.2829558815
0.282943466
0.2829351006
0.2829297496
0.2829268622
0.282926888
0.279504635
0.2794754112
0.2794298466
0.2793860192
0.2793486727
0.2793181664
0.2792935364
0.279273661
0.2792574617
0.2792442204
0.2792332333
0.2792241169
0.2792166181
0.2792113094
0.2791950092
0.2792140292
0.2792223237
0.2792239158
0.2792217449
0.2792176589
0.2792127175
0.2792075069
0.2792025083
0.2791977689
0.2791934527
0.2791895568
0.2791862071
0.2791837143
0.2791193547
0.2791300606
0.2791391592
0.2791463786
0.2791519054
0.2791559654
0.2791588788
0.279160913
0.2791622927
0.279163144
0.2791636212
0.2791638228
0.2791639076
0.2791638929
0.2791014848
0.2791066635
0.2791122765
0.279117963
0.2791234689
0.2791285731
0.2791331591
0.2791372225
0.2791407792
0.2791438672
0.2791464523
0.2791486545
0.2791504965
0.279151802
0.2790956025
0.2790989259
0.2791032832
0.2791082547
0.2791134839
0.2791186851
0.2791237077
0.2791283262
0.2791324869
0.2791362235
0.2791395096
0.279142317
0.2791447413
0.279146765
0.2791482232
0.279102353
0.2791104917
0.279119375
0.2791278105
0.2791352426
0.2791414014
0.2791462892
0.2791500511
0.2791529081
0.2791550513
0.2791566312
0.2791577771
0.279158612
0.2791592045
0.2791595859
0.2791274588
0.2791506438
0.2791696823
0.2791828876
0.2791907451
0.2791945199
0.2791954522
0.2791945563
0.2791926223
0.2791901566
0.2791874651
0.279184766
0.2791821792
0.279179823
0.2791780192
0.2792140609
0.2792678151
0.2792919901
0.2792962464
0.2792896464
0.279278117
0.2792651427
0.2792524146
0.2792406468
0.2792301699
0.279220999
0.2792130515
0.2792062578
0.2792004871
0.2791963094
0.2794629545
0.2795042283
0.2794749946
0.279429481
0.2793855801
0.2793482326
0.27931775
0.2792931293
0.2792732496
0.2792570348
0.2792437744
0.2792327655
0.2792236852
0.2792162516
0.279210905
0.2792139966
0.279267742
0.2792919032
0.2792961483
0.279289571
0.2792780957
0.2792650994
0.2792523365
0.2792406501
0.2792302087
0.2792210075
0.2792130219
0.2792061942
0.2792003896
0.2791962169
0.279150947
0.2791699707
0.2791831827
0.2791910886
0.2791948232
0.279195754
0.2791948487
0.2791929419
0.279190444
0.2791877746
0.2791850934
0.2791825337
0.2791802005
0.2791784532
0.2791104174
0.279119298
0.2791277962
0.2791352574
0.2791413787
0.2791462437
0.2791500439
0.2791529241
0.2791550305
0.2791566382
0.2791578149
0.2791586079
0.2791591482
0.2791595113
0.2790990043
0.2791033315
0.2791083049
0.279113514
0.2791187587
0.2791237398
0.2791283594
0.2791325472
0.2791362309
0.2791395091
0.2791423234
0.2791447973
0.2791467834
0.2791482597
0.2790938717
0.279095838
0.2790986309
0.2791020198
0.2791059324
0.279110053
0.2791143175
0.2791185107
0.2791225119
0.2791261958
0.2791296242
0.279132755
0.2791356173
0.2791380797
0.2791399208
0.2790968001
0.279101123
0.2791065066
0.2791123422
0.2791181414
0.2791235629
0.2791285099
0.2791327978
0.279136471
0.2791396152
0.279142317
0.2791445866
0.2791465043
0.2791481032
0.2791492353
0.2791053129
0.279116086
0.2791273451
0.2791375936
0.2791460084
0.2791524589
0.2791571013
0.2791602673
0.2791623051
0.2791634886
0.2791640387
0.2791642428
0.2791641953
0.2791639492
0.2791637677
0.2791274083
0.2791506597
0.2791696946
0.2791829421
0.2791908163
0.2791945957
0.2791955101
0.2791946262
0.2791927137
0.2791902571
0.2791875359
0.2791848449
0.2791823057
0.2791799983
0.2791782242
0.2791617791
0.2791953238
0.2792143359
0.2792225723
0.2792241409
0.2792219708
0.2792178644
0.2792129592
0.2792077924
0.279202779
0.2791981024
0.2791937747
0.2791899109
0.2791865509
0.279184052
0.2791278655
0.2791510669
0.2791701367
0.2791833452
0.2791911807
0.2791949716
0.2791958972
0.279195021
0.2791931078
0.2791906596
0.2791880112
0.2791852729
0.2791827182
0.2791804215
0.279178609
0.2791059607
0.2791166575
0.2791279483
0.2791381916
0.2791465794
0.2791530188
0.2791576168
0.279160732
0.2791627053
0.2791638899
0.2791644449
0.2791645964
0.2791644991
0.2791643061
0.2791641132
0.279100407
0.2791057318
0.2791115351
0.2791173164
0.2791227483
0.2791276352
0.2791319722
0.2791356684
0.2791388351
0.2791415057
0.2791437739
0.2791456515
0.2791472367
0.2791483895
0.2790961496
0.2790989107
0.2791023351
0.2791062496
0.279110416
0.2791146421
0.2791187848
0.2791227425
0.2791264701
0.279129954
0.2791331098
0.2791359559
0.2791384324
0.2791402654
0.2790926884
0.2790936954
0.279095288
0.2790973529
0.2790999064
0.2791028516
0.2791061091
0.2791094891
0.2791129885
0.279116464
0.2791198762
0.2791231766
0.2791262626
0.2791290885
0.2791312457
0.2790936331
0.2790956149
0.2790983371
0.2791017204
0.2791054485
0.2791094342
0.2791134213
0.2791173223
0.2791210826
0.2791245855
0.2791278691
0.2791308538
0.2791335836
0.27913599
0.2791378261
0.27909673
0.2791010615
0.2791063812
0.2791121624
0.2791179907
0.2791234532
0.2791283683
0.27913264
0.2791363728
0.2791395183
0.2791422352
0.279144476
0.2791463724
0.2791479495
0.2791490751
0.2791018805
0.2791100993
0.2791189812
0.2791274011
0.2791347684
0.2791409193
0.2791458089
0.2791496078
0.2791524533
0.2791545857
0.2791561083
0.2791572535
0.2791580995
0.2791586822
0.2791590949
0.2791082371
0.2791194902
0.2791302253
0.2791392523
0.279146466
0.2791520324
0.279156129
0.2791590384
0.2791610551
0.2791624192
0.2791632781
0.2791637919
0.2791640397
0.2791641334
0.2791641288
0.2791023263
0.279110494
0.2791193788
0.2791278597
0.2791353
0.2791414533
0.2791463034
0.2791500737
0.2791529486
0.2791550869
0.2791566997
0.279157868
0.27915866
0.2791592074
0.2791595798
0.2790969211
0.2791012017
0.279106555
0.2791123963
0.27911823
0.2791236752
0.2791285427
0.2791328419
0.2791365388
0.2791396749
0.2791423137
0.2791445994
0.2791465111
0.2791481023
0.2791492031
0.279094739
0.2790967191
0.2790995083
0.2791028508
0.2791066337
0.2791106105
0.2791145937
0.2791184786
0.2791222184
0.2791257542
0.2791290317
0.2791320432
0.2791347815
0.2791371553
0.2791389662
0.2790941662
0.2790957023
0.2790977801
0.2791003685
0.2791033362
0.2791065972
0.2791100037
0.2791134892
0.2791169998
0.2791203777
0.2791236532
0.2791267261
0.2791295321
0.2791316933
0.2790926115
0.2790932559
0.279094257
0.279095625
0.2790974483
0.2790996629
0.2791022135
0.2791050516
0.2791081329
0.2791113602
0.2791146502
0.2791178684
0.279121061
0.2791240553
0.2791263882
0.2790924736
0.2790935544
0.2790951483
0.2790972038
0.2790997632
0.2791026896
0.279105952
0.2791093749
0.2791128348
0.2791162844
0.279119687
0.2791229691
0.2791260571
0.2791289123
0.2791310832
0.2790939561
0.2790959657
0.2790987636
0.27910223
0.2791061377
0.2791103333
0.2791145589
0.2791187193
0.279122743
0.2791264312
0.2791298804
0.2791330639
0.2791358836
0.2791383764
0.2791402342
0.2790959399
0.2790992642
0.2791035454
0.2791085297
0.2791137348
0.2791189258
0.2791239142
0.279128534
0.2791327153
0.2791364365
0.2791397199
0.2791425718
0.2791450118
0.2791470433
0.2791485188
0.2790972721
0.2791014705
0.2791066083
0.2791122458
0.2791179062
0.2791234194
0.2791285208
0.2791331859
0.279137277
0.2791408687
0.2791439144
0.2791465509
0.2791487636
0.2791505824
0.2791518824
0.2790954059
0.2790987503
0.2791030598
0.2791080005
0.2791132577
0.2791184572
0.2791234444
0.2791280777
0.2791322394
0.279135946
0.2791392115
0.2791420107
0.2791444718
0.2791465489
0.2791480264
0.2790939025
0.2790958774
0.2790986407
0.2791020988
0.2791059906
0.2791101856
0.279114437
0.2791185989
0.2791225423
0.2791262944
0.2791297561
0.2791329155
0.279135786
0.2791382726
0.2791401015
0.2790928951
0.2790939445
0.2790954999
0.2790976202
0.2791001848
0.2791031371
0.2791063993
0.2791098193
0.2791133037
0.2791167968
0.2791201768
0.2791234467
0.2791265594
0.2791293813
0.2791315536
0.2790922685
0.2790928653
0.2790938624
0.2790952318
0.279097034
0.2790992382
0.2791018312
0.2791046763
0.2791077511
0.2791109659
0.279114219
0.2791174786
0.2791206418
0.2791236097
0.2791259515
)
;

boundaryField
{
    top
    {
        type            calculated;
        value           nonuniform List<scalar> 
127
(
0.2790922685
0.2790930387
0.2790938662
0.2790958207
0.2790985815
0.2791014848
0.2790990043
0.2790961496
0.2790941662
0.2790928653
0.2790939968
0.2790954009
0.2790985903
0.2791028673
0.2791066635
0.2791033315
0.2790989107
0.2790957023
0.2790938624
0.2790953704
0.2790975182
0.2791020273
0.2791078158
0.2791122765
0.2791083049
0.2791023351
0.2790977801
0.2790952318
0.2790972182
0.2791000925
0.2791059233
0.2791130592
0.279117963
0.279113514
0.2791062496
0.2791003685
0.279097034
0.2790994183
0.2791030111
0.279110075
0.2791182989
0.2791234689
0.2791187587
0.279110416
0.2791033362
0.2790992382
0.2791020008
0.279106233
0.2791142868
0.2791232876
0.2791285731
0.2791237398
0.2791146421
0.2791065972
0.2791018312
0.2791048512
0.2791096664
0.2791184779
0.2791279249
0.2791331591
0.2791283594
0.2791187848
0.2791100037
0.2791046763
0.2791078959
0.2791131633
0.2791225117
0.2791320803
0.2791372225
0.2791325472
0.2791227425
0.2791134892
0.2791077511
0.2791111011
0.2791166816
0.2791262447
0.2791358108
0.2791407792
0.2791362309
0.2791264701
0.2791169998
0.2791109659
0.2791143373
0.2791200841
0.2791297152
0.2791390624
0.2791438672
0.2791395091
0.279129954
0.2791203777
0.279114219
0.2791175983
0.2791233881
0.279132865
0.2791418797
0.2791464523
0.2791423234
0.2791331098
0.2791236532
0.2791174786
0.2791207784
0.2791264711
0.2791357053
0.2791443109
0.2791486545
0.2791447973
0.2791359559
0.2791267261
0.2791206418
0.2791237696
0.279129315
0.2791381526
0.279146387
0.2791504965
0.2791467834
0.2791384324
0.2791295321
0.2791236097
0.2791261201
0.279131487
0.2791399998
0.2791478595
0.279151802
0.2791482597
0.2791402654
0.2791316933
0.2791259515
)
;
    }
    bottom
    {
        type            calculated;
        value           nonuniform List<scalar> 
134
(
0.2790925103
0.2790936949
0.279095781
0.2790966324
0.2790956025
0.2790938717
0.2790926884
0.2790926115
0.2790927858
0.2790935446
0.2790956905
0.2790991201
0.2791008498
0.2790989259
0.279095838
0.2790936954
0.2790932559
0.2790937736
0.2790951155
0.2790984855
0.2791033884
0.2791059387
0.2791032832
0.2790986309
0.279095288
0.279094257
0.2790951344
0.2790972144
0.2791019237
0.2791083438
0.2791115376
0.2791082547
0.2791020198
0.2790973529
0.279095625
0.2790969551
0.2790997723
0.2791057924
0.2791135482
0.279117284
0.2791134839
0.2791059324
0.2790999064
0.2790974483
0.279099179
0.2791026867
0.2791099819
0.2791187486
0.2791227969
0.2791186851
0.279110053
0.2791028516
0.2790996629
0.2791017543
0.2791059083
0.2791142071
0.2791237395
0.2791279061
0.2791237077
0.2791143175
0.2791061091
0.2791022135
0.2791046045
0.2791092864
0.2791183711
0.2791283605
0.2791325378
0.2791283262
0.2791185107
0.2791094891
0.2791050516
0.2791076656
0.2791127641
0.2791223606
0.2791325678
0.2791366296
0.2791324869
0.2791225119
0.2791129885
0.2791081329
0.2791108961
0.2791162689
0.2791260988
0.2791362726
0.27914019
0.2791362235
0.2791261958
0.279116464
0.2791113602
0.2791141657
0.2791196228
0.2791295831
0.2791395602
0.2791432742
0.2791395096
0.2791296242
0.2791198762
0.2791146502
0.2791174475
0.2791229257
0.2791327324
0.2791424225
0.2791458937
0.279142317
0.279132755
0.2791231766
0.2791178684
0.2791206296
0.279126028
0.2791355652
0.2791448398
0.2791481283
0.2791447413
0.2791356173
0.2791262626
0.279121061
0.2791235956
0.2791288576
0.2791380372
0.2791468826
0.2791498837
0.279146765
0.2791380797
0.2791290885
0.2791240553
0.279125928
0.2791310728
0.2791398908
0.2791483749
0.2791511924
0.2791482232
0.2791399208
0.2791312457
0.2791263882
)
;
    }
    side-walls
    {
        type            calculated;
        value           nonuniform List<scalar> 
261
(
0.2790927858
0.2790934606
0.2790955164
0.279099004
0.2791009642
0.2790992867
0.2790960257
0.2790941015
0.2790930387
0.2790937736
0.2790950016
0.2790982648
0.2791032993
0.2791061117
0.2791035817
0.2790987834
0.2790956514
0.2790939968
0.2790951344
0.2790971066
0.2791017023
0.2791082293
0.2791117469
0.2791085137
0.2791022174
0.2790977331
0.2790953704
0.2790969551
0.2790996772
0.279105576
0.2791134676
0.2791174709
0.2791137806
0.2791061053
0.2791003145
0.2790972182
0.279099179
0.2791026412
0.279109729
0.2791187258
0.2791229426
0.2791189877
0.2791102476
0.2791032584
0.2790994183
0.2791017543
0.2791059072
0.2791139286
0.2791237005
0.2791280334
0.2791239589
0.2791145081
0.2791064711
0.2791020008
0.2791046045
0.2791093428
0.2791181041
0.2791282987
0.2791326886
0.2791285517
0.2791186548
0.2791098573
0.2791048512
0.2791076656
0.2791128312
0.2791220867
0.2791324513
0.2791368045
0.2791327195
0.2791226842
0.2791133218
0.2791078959
0.2791108961
0.2791162736
0.2791258119
0.2791361248
0.2791403502
0.2791364379
0.2791264226
0.2791167952
0.2791111011
0.2791141657
0.2791197018
0.2791292542
0.2791393894
0.2791434313
0.2791396763
0.279129921
0.279120209
0.2791143373
0.2791174475
0.2791229874
0.2791324381
0.2791422201
0.2791460569
0.2791424902
0.279133107
0.2791234853
0.2791175983
0.2791206296
0.2791260723
0.2791352482
0.2791446208
0.2791482871
0.2791449307
0.2791359461
0.2791265668
0.2791207784
0.2791235956
0.2791289151
0.2791377447
0.2791467094
0.2791500712
0.2791469666
0.2791384448
0.2791293726
0.2791237696
0.279125928
0.279131097
0.2791396331
0.2791481956
0.2791513666
0.2791484204
0.2791403397
0.2791315732
0.2791261201
0.2790926115
0.2790924736
0.2790939561
0.2790959399
0.2790972721
0.2790954059
0.2790939025
0.2790928951
0.2790922685
0.2790932559
0.2790935544
0.2790959657
0.2790992642
0.2791014705
0.2790987503
0.2790958774
0.2790939445
0.2790928653
0.279094257
0.2790951483
0.2790987636
0.2791035454
0.2791066083
0.2791030598
0.2790986407
0.2790954999
0.2790938624
0.279095625
0.2790972038
0.27910223
0.2791085297
0.2791122458
0.2791080005
0.2791020988
0.2790976202
0.2790952318
0.2790974483
0.2790997632
0.2791061377
0.2791137348
0.2791179062
0.2791132577
0.2791059906
0.2791001848
0.279097034
0.2790996629
0.2791026896
0.2791103333
0.2791189258
0.2791234194
0.2791184572
0.2791101856
0.2791031371
0.2790992382
0.2791022135
0.279105952
0.2791145589
0.2791239142
0.2791285208
0.2791234444
0.279114437
0.2791063993
0.2791018312
0.2791050516
0.2791093749
0.2791187193
0.279128534
0.2791331859
0.2791280777
0.2791185989
0.2791098193
0.2791046763
0.2791081329
0.2791128348
0.279122743
0.2791327153
0.279137277
0.2791322394
0.2791225423
0.2791133037
0.2791077511
0.2791113602
0.2791162844
0.2791264312
0.2791364365
0.2791408687
0.279135946
0.2791262944
0.2791167968
0.2791109659
0.2791146502
0.279119687
0.2791298804
0.2791397199
0.2791439144
0.2791392115
0.2791297561
0.2791201768
0.279114219
0.2791178684
0.2791229691
0.2791330639
0.2791425718
0.2791465509
0.2791420107
0.2791329155
0.2791234467
0.2791174786
0.279121061
0.2791260571
0.2791358836
0.2791450118
0.2791487636
0.2791444718
0.279135786
0.2791265594
0.2791206418
0.2791240553
0.2791289123
0.2791383764
0.2791470433
0.2791505824
0.2791465489
0.2791382726
0.2791293813
0.2791236097
0.2791263882
0.2791310832
0.2791402342
0.2791485188
0.2791518824
0.2791480264
0.2791401015
0.2791315536
0.2791259515
)
;
    }
    inlet
    {
        type            calculated;
        value           nonuniform 0();
    }
    outlet
    {
        type            calculated;
        value           nonuniform List<scalar> 
81
(
0.279125928
0.279131097
0.2791396331
0.2791481956
0.2791513666
0.2791484204
0.2791403397
0.2791315732
0.2791261201
0.2791310728
0.2791385576
0.279149512
0.2791598467
0.2791631398
0.2791597812
0.2791494151
0.2791381084
0.279131487
0.2791398908
0.2791491583
0.2791646765
0.2791778677
0.2791839794
0.2791781987
0.279164068
0.2791494901
0.2791399998
0.2791483749
0.2791591345
0.2791782621
0.2791954446
0.2792110951
0.2791962637
0.2791774962
0.2791592418
0.2791478595
0.2791511924
0.2791639868
0.2791838956
0.2792111524
0.282926888
0.2792113094
0.2791837143
0.2791638929
0.279151802
0.2791482232
0.2791595859
0.2791780192
0.2791963094
0.279210905
0.2791962169
0.2791784532
0.2791595113
0.2791482597
0.2791399208
0.2791492353
0.2791637677
0.2791782242
0.279184052
0.279178609
0.2791641132
0.2791483895
0.2791402654
0.2791312457
0.2791378261
0.2791490751
0.2791590949
0.2791641288
0.2791595798
0.2791492031
0.2791389662
0.2791316933
0.2791263882
0.2791310832
0.2791402342
0.2791485188
0.2791518824
0.2791480264
0.2791401015
0.2791315536
0.2791259515
)
;
    }
    procBoundary1to0
    {
        type            processor;
        value           nonuniform List<scalar> 
97
(
0.2790921507
0.2790921507
0.2790924131
0.279093522
0.279095657
0.2790967174
0.2790959951
0.2790940541
0.2790930474
0.2790923877
0.2790919073
0.2790942752
0.2790942752
0.2790942752
0.2790971247
0.2791025539
0.2791072048
0.2791025927
0.2790971266
0.2790937648
0.2790928372
0.2790925178
0.2790939537
0.2791063385
0.2791063385
0.2791063385
0.2791271917
0.2791616658
0.2791275097
0.2791056646
0.2790969567
0.2790938431
0.2790936593
0.2790960373
0.2791060647
0.2792132456
0.2792132456
0.2792132456
0.2794631013
0.2792141865
0.2791267973
0.2791021062
0.2790952788
0.279093788
0.2790985858
0.2791170763
0.2791905765
0.2851017482
0.2851017482
0.2851017482
0.2794632707
0.2794632707
0.2791614456
0.2791081161
0.2790972749
0.2790934529
0.2790963759
0.2791060765
0.2791347746
0.2791902552
0.2791347152
0.2791277273
0.2791277273
0.2791277273
0.2791022608
0.2790956903
0.2790926669
0.2790939556
0.2790972804
0.2791060564
0.2791169857
0.2791065153
0.2790978884
0.2790960628
0.2790960628
0.2790960628
0.2790941904
0.2790920516
0.2790924134
0.2790938928
0.279095897
0.2790987649
0.2790962965
0.2790940605
0.2790934818
0.2790930748
0.2790930748
0.2790930748
0.2790922517
0.2790919199
0.2790927221
0.2790938145
0.2790944336
0.2790932773
0.2790927071
0.2790922672
0.2790918681
)
;
    }
}


// ************************************************************************* //
