/*--------------------------------*- C++ -*----------------------------------*\
| =========                 |                                                 |
| \\      /  F ield         | OpenFOAM: The Open Source CFD Toolbox           |
|  \\    /   O peration     | Version:  4.x                                   |
|   \\  /    A nd           | Web:      www.OpenFOAM.org                      |
|    \\/     M anipulation  |                                                 |
\*---------------------------------------------------------------------------*/
FoamFile
{
    version     2.0;
    format      ascii;
    class       volScalarField;
    location    "1000";
    object      T;
}
// * * * * * * * * * * * * * * * * * * * * * * * * * * * * * * * * * * * * * //

dimensions      [0 0 0 1 0 0 0];

internalField   nonuniform List<scalar> 
1174
(
1223.151365
1223.15133
1223.151435
1223.15138
1223.151335
1223.151317
1223.151367
1223.151428
1223.151339
1223.151347
1223.151269
1223.151273
1223.151294
1223.151318
1223.152428
1223.152555
1223.152501
1223.152492
1223.152462
1223.152348
1223.152257
1223.152267
1223.152447
1223.152364
1223.152349
1223.152429
1223.152347
1223.152356
1223.152298
1223.152411
1223.152405
1223.152552
1223.152625
1223.152824
1223.152807
1223.152848
1223.15293
1223.153001
1223.152882
1223.15303
1223.152974
1223.152871
1223.150022
1223.150082
1223.150184
1223.150183
1223.150026
1223.150093
1223.150194
1223.150323
1223.150523
1223.150525
1223.150551
1223.150717
1223.150507
1223.150497
1223.150721
1223.150739
1223.150709
1223.150651
1223.150808
1223.150939
1223.150841
1223.150794
1223.150941
1223.150942
1223.15094
1223.150859
1223.150996
1223.151013
1223.148783
1223.148843
1223.148937
1223.14881
1223.148877
1223.148959
1223.149085
1223.149147
1223.14915
1223.149266
1223.149367
1223.149358
1223.149379
1223.149511
1223.150066
1223.150137
1223.150147
1223.150231
1223.150351
1223.150284
1223.150393
1223.150228
1223.150252
1223.150077
1223.149949
1223.14997
1223.149904
1223.149773
1223.149619
1223.149707
1223.149755
1223.149698
1223.149757
1223.149876
1223.150001
1223.150115
1223.150159
1223.150139
1223.150165
1223.150261
1223.15034
1223.150268
1223.150256
1223.150351
1223.1504
1223.150227
1223.150286
1223.150236
1223.150285
1223.150418
1223.150439
1223.150594
1223.150606
1223.150619
1223.150529
1223.150474
1223.151952
1223.15206
1223.152056
1223.152028
1223.152075
1223.152263
1223.152343
1223.152504
1223.152561
1223.152467
1223.15271
1223.152619
1223.152623
1223.152599
1223.152462
1223.149186
1223.149102
1223.149298
1223.149234
1223.149161
1223.149081
1223.148946
1223.1491
1223.149197
1223.149239
1223.1492
1223.149234
1223.14934
1223.149469
1223.149468
1223.149318
1223.14931
1223.149391
1223.149445
1223.149502
1223.149572
1223.149604
1223.149646
1223.149752
1223.149619
1223.149902
1223.149741
1223.149537
1223.149096
1223.149236
1223.149324
1223.149351
1223.149409
1223.149516
1223.149468
1223.149297
1223.148966
1223.149226
1223.149213
1223.149123
1223.149251
1223.149232
1223.153585
1223.153673
1223.153803
1223.153931
1223.153914
1223.153764
1223.153745
1223.15355
1223.153485
1223.153552
1223.153333
1223.153185
1223.15331
1223.15339
1223.148984
1223.149148
1223.149247
1223.149372
1223.149296
1223.149378
1223.149376
1223.149575
1223.14928
1223.149434
1223.14954
1223.149634
1223.149572
1223.149517
1223.149264
1223.149324
1223.149192
1223.149204
1223.149055
1223.14931
1223.149328
1223.14939
1223.149396
1223.149414
1223.149527
1223.149612
1223.1498
1223.149959
1223.151308
1223.151295
1223.151487
1223.151369
1223.151348
1223.151414
1223.151266
1223.151318
1223.151241
1223.151363
1223.151375
1223.151351
1223.151344
1223.151434
1223.150651
1223.150804
1223.150697
1223.150671
1223.15084
1223.150919
1223.150837
1223.15081
1223.150657
1223.150686
1223.150591
1223.150679
1223.150592
1223.150644
1223.151548
1223.151536
1223.151443
1223.151435
1223.151603
1223.151516
1223.151604
1223.151637
1223.151647
1223.151672
1223.151559
1223.151592
1223.151641
1223.151692
1223.151742
1223.150727
1223.15077
1223.150872
1223.150841
1223.150712
1223.150924
1223.150979
1223.151049
1223.150945
1223.150913
1223.150898
1223.151021
1223.151198
1223.151106
1223.151086
1223.148009
1223.148053
1223.148146
1223.148184
1223.148337
1223.148366
1223.148519
1223.148412
1223.148377
1223.14836
1223.148228
1223.148073
1223.147984
1223.14811
1223.151652
1223.151745
1223.151884
1223.151935
1223.152148
1223.15195
1223.15206
1223.151931
1223.151845
1223.151805
1223.15187
1223.152096
1223.151935
1223.151864
1223.15087
1223.151035
1223.151198
1223.151171
1223.15119
1223.150958
1223.150931
1223.150816
1223.150842
1223.150705
1223.15089
1223.150941
1223.150956
1223.150776
1223.150622
1223.15069
1223.150718
1223.15086
1223.150836
1223.150872
1223.15077
1223.150716
1223.150636
1223.150759
1223.150784
1223.150582
1223.150478
1223.150411
1223.150904
1223.150919
1223.150918
1223.150798
1223.150819
1223.15079
1223.150654
1223.150562
1223.150671
1223.150904
1223.150665
1223.150907
1223.150952
1223.150773
1223.149987
1223.149969
1223.149974
1223.149695
1223.149866
1223.149775
1223.149821
1223.14974
1223.149663
1223.149801
1223.149733
1223.149721
1223.149652
1223.149629
1223.150965
1223.150984
1223.150981
1223.151029
1223.151107
1223.151253
1223.151167
1223.150983
1223.15103
1223.150977
1223.151008
1223.151024
1223.151183
1223.151261
1223.149595
1223.149513
1223.14969
1223.149681
1223.149829
1223.149925
1223.149921
1223.149923
1223.149812
1223.149875
1223.149775
1223.149664
1223.149757
1223.149748
1223.149711
1223.1514
1223.151386
1223.151501
1223.151591
1223.15166
1223.151983
1223.152013
1223.152065
1223.152112
1223.152357
1223.15239
1223.152364
1223.152298
1223.152331
1223.152352
1223.150682
1223.150743
1223.150942
1223.150991
1223.151006
1223.150892
1223.150921
1223.150713
1223.150678
1223.150736
1223.150636
1223.150665
1223.1503
1223.150142
1223.150135
1223.153577
1223.153699
1223.153762
1223.153553
1223.153563
1223.153577
1223.153397
1223.153068
1223.153035
1223.153068
1223.152973
1223.15299
1223.152863
1223.152815
1223.120429
1223.119992
1223.119562
1223.119101
1223.118722
1223.118556
1223.118391
1223.118102
1223.117937
1223.117723
1223.117625
1223.117388
1223.117271
1223.117109
1223.149337
1223.149511
1223.149443
1223.149478
1223.149409
1223.149309
1223.149196
1223.149202
1223.149125
1223.149187
1223.149238
1223.149312
1223.149216
1223.149224
1223.153273
1223.153396
1223.153465
1223.153648
1223.15383
1223.154005
1223.153866
1223.153802
1223.1537
1223.153561
1223.153661
1223.153328
1223.153281
1223.153487
1223.151124
1223.151422
1223.151788
1223.151698
1223.151755
1223.15192
1223.151765
1223.15178
1223.151823
1223.151824
1223.151729
1223.151742
1223.151812
1223.151877
1223.151873
1223.151974
1223.151994
1223.151971
1223.151894
1223.1519
1223.151829
1223.151945
1223.151896
1223.151953
1223.152039
1223.15207
1223.151915
1223.151965
1223.15126
1223.151222
1223.151496
1223.151625
1223.151469
1223.151446
1223.151495
1223.1515
1223.151559
1223.151642
1223.15163
1223.151654
1223.151553
1223.151816
1223.151776
1223.149321
1223.149373
1223.149595
1223.149438
1223.149645
1223.149651
1223.149688
1223.149708
1223.14963
1223.149584
1223.149669
1223.149577
1223.149768
1223.149632
1223.149678
1223.150301
1223.150678
1223.150769
1223.151019
1223.151061
1223.151167
1223.151117
1223.151279
1223.151341
1223.15109
1223.151059
1223.151166
1223.15109
1223.151213
1223.151143
1223.1199
1223.120005
1223.119503
1223.118976
1223.118699
1223.118461
1223.118216
1223.118052
1223.117931
1223.117661
1223.117607
1223.117298
1223.117305
1223.117006
1223.116857
1207.478118
1207.443563
1207.411858
1207.381422
1207.351576
1207.322299
1207.29328
1207.264292
1207.235035
1207.206015
1207.177013
1207.147944
1207.118818
1207.089369
1223.1196
1223.119098
1223.118798
1223.118333
1223.118007
1223.117706
1223.117448
1223.117098
1223.116951
1223.116629
1223.116531
1223.116412
1223.116471
1223.116167
1223.152201
1223.152274
1223.152217
1223.152214
1223.152157
1223.152027
1223.151982
1223.1522
1223.152076
1223.152179
1223.152155
1223.152197
1223.152073
1223.151933
1223.149506
1223.149523
1223.149523
1223.149633
1223.149635
1223.149732
1223.149799
1223.149815
1223.149752
1223.149821
1223.149941
1223.150138
1223.150091
1223.150085
1223.148439
1223.14832
1223.148386
1223.148493
1223.148499
1223.148571
1223.148776
1223.148958
1223.149057
1223.149028
1223.149202
1223.149244
1223.149127
1223.1491
1223.150377
1223.150363
1223.150151
1223.150071
1223.150109
1223.150202
1223.150059
1223.150072
1223.150165
1223.150088
1223.149996
1223.150124
1223.150186
1223.150261
1223.150374
1223.149978
1223.150132
1223.150202
1223.150393
1223.150367
1223.150327
1223.150374
1223.150517
1223.150611
1223.150629
1223.150627
1223.150629
1223.150564
1223.150475
1223.150372
1223.150426
1223.150594
1223.150788
1223.150845
1223.150875
1223.150826
1223.15083
1223.150947
1223.15099
1223.150966
1223.150979
1223.150977
1223.151015
1223.151118
1223.151196
1223.149733
1223.149996
1223.150075
1223.150044
1223.149997
1223.150138
1223.150037
1223.149847
1223.149836
1223.149751
1223.149634
1223.149486
1223.149159
1223.149171
1223.149023
1223.121303
1223.121365
1223.120912
1223.120392
1223.12025
1223.11993
1223.119526
1223.119228
1223.118898
1223.11882
1223.118582
1223.118579
1223.118302
1223.118076
1223.117938
1223.150018
1223.150313
1223.15045
1223.150469
1223.150322
1223.150227
1223.150223
1223.150185
1223.149818
1223.149578
1223.149594
1223.149613
1223.149435
1223.149596
1223.149426
1223.149272
1223.149527
1223.149551
1223.149367
1223.149494
1223.149504
1223.149662
1223.149586
1223.149703
1223.149619
1223.149539
1223.149458
1223.149461
1223.149292
1223.15046
1223.150541
1223.150457
1223.150302
1223.150425
1223.150571
1223.150546
1223.150538
1223.150717
1223.150593
1223.15046
1223.150578
1223.150718
1223.150695
1223.15002
1223.14994
1223.149851
1223.149977
1223.149879
1223.149917
1223.149925
1223.149898
1223.150054
1223.149995
1223.150093
1223.149937
1223.150177
1223.15021
1223.150773
1223.150888
1223.150805
1223.151013
1223.150988
1223.151203
1223.151118
1223.151023
1223.150982
1223.151244
1223.151377
1223.15149
1223.15141
1223.151503
1223.151607
1223.150725
1223.150697
1223.15056
1223.150517
1223.150562
1223.150715
1223.150588
1223.150691
1223.150862
1223.15094
1223.150837
1223.150813
1223.150777
1223.150695
1223.150745
1223.152532
1223.152414
1223.15255
1223.152538
1223.152589
1223.152555
1223.152533
1223.15247
1223.152338
1223.152272
1223.152397
1223.152292
1223.152176
1223.152312
1223.152087
1223.150647
1223.150523
1223.150732
1223.150602
1223.150559
1223.150491
1223.150573
1223.150637
1223.150586
1223.150522
1223.150666
1223.150628
1223.150458
1223.150348
1223.150296
1223.150552
1223.150816
1223.150923
1223.151122
1223.151222
1223.151164
1223.151123
1223.150921
1223.150947
1223.150888
1223.150716
1223.150743
1223.150644
1223.150566
1223.150452
1223.148643
1223.148737
1223.148793
1223.148835
1223.148961
1223.148842
1223.148875
1223.148906
1223.148857
1223.148757
1223.148582
1223.148752
1223.148649
1223.148491
1223.148608
1223.149695
1223.149911
1223.149907
1223.149917
1223.150085
1223.1501
1223.150272
1223.150432
1223.150582
1223.150512
1223.150614
1223.15074
1223.150842
1223.150746
1223.150571
1223.153837
1223.153956
1223.154055
1223.154178
1223.154284
1223.15442
1223.154307
1223.154378
1223.154356
1223.154389
1223.154371
1223.154511
1223.154489
1223.154448
1223.149524
1223.14958
1223.149632
1223.149598
1223.149612
1223.149695
1223.149821
1223.14997
1223.15004
1223.149929
1223.149933
1223.149923
1223.149954
1223.150094
1223.151171
1223.151399
1223.151299
1223.151421
1223.151486
1223.151539
1223.151462
1223.151613
1223.151575
1223.15161
1223.151597
1223.151517
1223.151592
1223.151584
1223.151701
1223.151943
1223.152047
1223.152193
1223.152107
1223.152302
1223.152273
1223.1524
1223.152508
1223.152463
1223.152553
1223.152499
1223.152608
1223.152646
1223.152692
1223.15267
1223.151032
1223.150967
1223.151109
1223.151305
1223.151223
1223.151194
1223.151207
1223.151382
1223.151292
1223.151363
1223.151194
1223.151296
1223.151354
1223.151367
1223.151445
1223.152048
1223.151851
1223.151927
1223.152186
1223.152443
1223.152437
1223.152475
1223.152456
1223.1526
1223.152666
1223.152915
1223.15292
1223.152806
1223.15276
1223.152519
1223.148829
1223.148909
1223.148798
1223.149111
1223.149247
1223.149076
1223.149013
1223.149098
1223.14919
1223.149196
1223.149232
1223.149191
1223.149186
1223.1491
1223.14905
1223.150095
1223.150121
1223.150184
1223.150175
1223.150112
1223.150096
1223.150307
1223.150413
1223.150429
1223.150468
1223.150322
1223.150226
1223.150348
1223.150458
1223.150393
1223.150194
1223.150353
1223.150347
1223.150279
1223.150173
1223.150221
1223.150442
1223.150496
1223.150563
1223.150675
1223.150848
1223.150754
1223.150744
1223.150696
1223.150882
1223.147097
1223.147208
1223.14706
1223.147154
1223.147108
1223.147118
1223.147262
1223.14744
1223.147484
1223.14743
1223.147403
1223.147394
1223.147395
1223.147584
1223.147671
1223.149336
1223.149484
1223.149549
1223.149461
1223.149415
1223.149322
1223.149358
1223.14938
1223.14926
1223.149398
1223.149426
1223.149559
1223.149637
1223.149737
1223.149369
1223.149304
1223.14921
1223.149284
1223.149218
1223.149213
1223.149303
1223.149406
1223.149378
1223.149303
1223.149221
1223.149422
1223.149379
1223.149276
1223.149297
1223.152113
1223.152017
1223.151911
1223.152074
1223.152113
1223.152249
1223.15215
1223.152114
1223.152248
1223.152396
1223.152425
1223.152425
1223.152492
1223.152355
1223.152413
1223.150403
1223.150329
1223.150224
1223.150091
1223.150088
1223.149974
1223.150059
1223.150108
1223.149968
1223.150211
1223.150252
1223.150134
1223.150241
1223.1502
1223.150232
1223.148899
1223.14888
1223.149001
1223.148864
1223.149008
1223.149145
1223.149152
1223.149158
1223.149161
1223.149152
1223.14907
1223.149004
1223.148997
1223.149038
1223.149074
1223.148456
1223.1485
1223.148561
1223.148519
1223.14874
1223.148714
1223.148798
1223.148656
1223.148717
1223.148663
1223.148819
1223.148769
1223.148764
1223.148749
1223.148747
1223.151239
1223.151133
1223.151129
1223.151183
1223.151099
1223.151198
1223.15121
1223.151157
1223.151245
1223.1513
1223.151297
1223.151462
1223.151363
1223.151203
1223.151231
1223.150638
1223.150716
1223.150762
1223.150666
1223.150732
1223.150621
1223.150592
1223.150634
1223.150846
1223.15081
1223.150795
1223.150783
1223.150667
1223.150654
1223.150812
1223.150265
1223.150307
1223.15037
1223.150249
1223.150266
1223.150287
1223.150189
1223.150166
1223.150193
1223.15015
1223.150278
1223.150331
1223.150289
1223.150298
1223.150349
1223.150872
1223.151016
1223.15094
1223.151008
1223.151034
1223.151075
1223.150979
1223.15105
1223.15105
1223.15103
1223.15111
1223.151128
1223.151215
1223.151226
1223.151209
)
;

boundaryField
{
    top
    {
        type            zeroGradient;
    }
    bottom
    {
        type            zeroGradient;
    }
    side-walls
    {
        type            zeroGradient;
    }
    inlet
    {
        type            zeroGradient;
    }
    outlet
    {
        type            zeroGradient;
    }
    procBoundary1to0
    {
        type            processor;
        value           nonuniform List<scalar> 
97
(
1223.151389
1223.151389
1223.152378
1223.152306
1223.150138
1223.150887
1223.148656
1223.149973
1223.149598
1223.15035
1223.151853
1223.149129
1223.149129
1223.149129
1223.149302
1223.149097
1223.153352
1223.148926
1223.149293
1223.151366
1223.150519
1223.151344
1223.150656
1223.14804
1223.14804
1223.14804
1223.151597
1223.151043
1223.150199
1223.15099
1223.150038
1223.150898
1223.149515
1223.151401
1223.150471
1223.153325
1223.153325
1223.153325
1223.120636
1223.149173
1223.153321
1223.151058
1223.151796
1223.151217
1223.149547
1223.149952
1223.14973
1207.508191
1207.508191
1207.508191
1223.119898
1223.119898
1223.152009
1223.149358
1223.148444
1223.15042
1223.149917
1223.150418
1223.149559
1223.151138
1223.149819
1223.149254
1223.149254
1223.149254
1223.150382
1223.149993
1223.150691
1223.150647
1223.152489
1223.150507
1223.15035
1223.148495
1223.149825
1223.153957
1223.153957
1223.153957
1223.149377
1223.15122
1223.151845
1223.150922
1223.152016
1223.148762
1223.150265
1223.150187
1223.147163
1223.149478
1223.149478
1223.149478
1223.149362
1223.151797
1223.150449
1223.148835
1223.148387
1223.151189
1223.150514
1223.150275
1223.151043
)
;
    }
}


// ************************************************************************* //
