/*--------------------------------*- C++ -*----------------------------------*\
| =========                 |                                                 |
| \\      /  F ield         | OpenFOAM: The Open Source CFD Toolbox           |
|  \\    /   O peration     | Version:  4.x                                   |
|   \\  /    A nd           | Web:      www.OpenFOAM.org                      |
|    \\/     M anipulation  |                                                 |
\*---------------------------------------------------------------------------*/
FoamFile
{
    version     2.0;
    format      ascii;
    class       volScalarField;
    location    "3000";
    object      CO;
}
// * * * * * * * * * * * * * * * * * * * * * * * * * * * * * * * * * * * * * //

dimensions      [0 0 0 0 0 0 0];

internalField   nonuniform List<scalar> 
1175
(
0.3999999998
0.3999999998
0.3999999998
0.3999999998
0.3999999997
0.3999999995
0.3999999989
0.3999999968
0.3999999902
0.3999999705
0.3999999142
0.3999997648
0.3999993997
0.3999985928
0.3999970038
0.3999999998
0.3999999998
0.3999999998
0.3999999998
0.3999999997
0.3999999994
0.3999999986
0.3999999957
0.3999999862
0.3999999563
0.3999998677
0.3999996229
0.3999990041
0.3999976063
0.3999948538
0.3999999998
0.3999999998
0.3999999998
0.3999999998
0.3999999997
0.3999999993
0.3999999981
0.3999999937
0.3999999786
0.3999999291
0.3999997753
0.3999993299
0.3999981561
0.3999954269
0.3999900388
0.3999999998
0.3999999998
0.3999999998
0.3999999997
0.3999999996
0.3999999992
0.3999999975
0.3999999915
0.3999999701
0.3999998971
0.3999996604
0.3999989442
0.3999969736
0.3999922328
0.3999828047
0.3999999998
0.3999999998
0.3999999998
0.3999999997
0.3999999996
0.3999999991
0.3999999973
0.3999999905
0.3999999659
0.3999998803
0.3999995961
0.3999987111
0.3999961956
0.3999899513
0.3999773739
0.3999999998
0.3999999998
0.3999999998
0.3999999997
0.3999999996
0.3999999992
0.3999999975
0.3999999915
0.3999999701
0.3999998971
0.3999996604
0.3999989442
0.3999969737
0.3999922329
0.3999828049
0.3999999998
0.3999999998
0.3999999998
0.3999999998
0.3999999997
0.3999999993
0.3999999981
0.3999999937
0.3999999786
0.3999999291
0.3999997753
0.3999993299
0.3999981562
0.3999954271
0.3999900391
0.3999999998
0.3999999998
0.3999999998
0.3999999998
0.3999999997
0.3999999994
0.3999999986
0.3999999957
0.3999999862
0.3999999563
0.3999998677
0.3999996229
0.3999990041
0.3999976065
0.3999948541
0.3999999998
0.3999999998
0.3999999998
0.3999999998
0.3999999997
0.3999999995
0.3999999989
0.3999999968
0.3999999902
0.3999999705
0.3999999142
0.3999997648
0.3999993997
0.3999985929
0.3999970042
0.3999999998
0.3999999998
0.3999999998
0.3999999998
0.3999999997
0.3999999994
0.3999999986
0.3999999957
0.3999999862
0.3999999563
0.3999998677
0.3999996229
0.399999004
0.3999976061
0.3999999998
0.3999999998
0.3999999998
0.3999999998
0.3999999997
0.3999999993
0.3999999981
0.3999999939
0.3999999792
0.3999999305
0.3999997781
0.399999333
0.3999981499
0.3999953817
0.3999899118
0.3999999998
0.3999999998
0.3999999998
0.3999999997
0.3999999996
0.3999999991
0.3999999973
0.3999999904
0.3999999655
0.399999878
0.3999995859
0.3999986755
0.3999961019
0.3999897838
0.399977168
0.3999999998
0.3999999998
0.3999999998
0.3999999997
0.3999999996
0.3999999989
0.3999999964
0.3999999865
0.399999949
0.3999998103
0.3999993192
0.3999976859
0.3999927423
0.3999798331
0.3999534112
0.3999999998
0.3999999998
0.3999999998
0.3999999997
0.3999999995
0.3999999988
0.399999996
0.3999999846
0.3999999401
0.3999997709
0.3999991478
0.3999969715
0.3999899761
0.3999704424
0.3999285977
0.3999999998
0.3999999998
0.3999999998
0.3999999997
0.3999999996
0.3999999989
0.3999999964
0.3999999865
0.399999949
0.3999998103
0.3999993192
0.3999976859
0.3999927424
0.3999798335
0.3999534123
0.3999999998
0.3999999998
0.3999999998
0.3999999997
0.3999999996
0.3999999991
0.3999999973
0.3999999904
0.3999999655
0.399999878
0.3999995859
0.3999986755
0.399996102
0.3999897843
0.3999771693
0.3999999998
0.3999999998
0.3999999998
0.3999999998
0.3999999997
0.3999999993
0.3999999981
0.3999999939
0.3999999792
0.3999999305
0.3999997781
0.399999333
0.39999815
0.3999953821
0.3999899129
0.3999999998
0.3999999998
0.3999999998
0.3999999998
0.3999999997
0.3999999994
0.3999999986
0.3999999957
0.3999999862
0.3999999563
0.3999998677
0.3999996229
0.3999990041
0.3999976065
0.3999948541
0.3999999998
0.3999999998
0.3999999998
0.3999999998
0.3999999997
0.3999999993
0.3999999981
0.3999999937
0.3999999786
0.3999999291
0.3999997753
0.3999993298
0.3999981559
0.3999954264
0.3999999998
0.3999999998
0.3999999998
0.3999999997
0.3999999996
0.3999999991
0.3999999973
0.3999999904
0.3999999655
0.399999878
0.3999995859
0.3999986754
0.3999961016
0.3999897829
0.3999999998
0.3999999998
0.3999999998
0.3999999997
0.3999999995
0.3999999988
0.3999999958
0.3999999841
0.3999999385
0.3999997662
0.3999991429
0.3999970273
0.3999905066
0.3999732441
0.3999377633
0.3999999998
0.3999999998
0.3999999998
0.3999999997
0.3999999995
0.3999999985
0.3999999942
0.3999999764
0.3999999032
0.3999996073
0.3999984499
0.3999941496
0.3999794874
0.3999364561
0.3998420655
0.3999999998
0.3999999998
0.3999999998
0.3999999997
0.3999999994
0.3999999983
0.3999999934
0.3999999722
0.3999998823
0.3999995026
0.3999979276
0.3999916056
0.3999677548
0.3998882756
0.399690371
0.3999999998
0.3999999998
0.3999999998
0.3999999997
0.3999999995
0.3999999985
0.3999999942
0.3999999764
0.3999999032
0.3999996073
0.3999984499
0.3999941497
0.399979488
0.3999364584
0.3998420724
0.3999999998
0.3999999998
0.3999999998
0.3999999997
0.3999999995
0.3999999988
0.3999999958
0.3999999841
0.3999999385
0.3999997662
0.3999991429
0.3999970274
0.3999905071
0.3999732462
0.3999377699
0.3999999998
0.3999999998
0.3999999998
0.3999999997
0.3999999996
0.3999999991
0.3999999973
0.3999999904
0.3999999655
0.399999878
0.3999995859
0.3999986755
0.399996102
0.3999897843
0.3999771692
0.3999999998
0.3999999998
0.3999999998
0.3999999998
0.3999999997
0.3999999993
0.3999999981
0.3999999937
0.3999999786
0.3999999291
0.3999997753
0.3999993299
0.3999981561
0.399995427
0.3999900391
0.3999999998
0.3999999998
0.3999999998
0.3999999997
0.3999999996
0.3999999992
0.3999999975
0.3999999915
0.3999999701
0.399999897
0.3999996603
0.3999989441
0.3999969733
0.3999922317
0.3999999998
0.3999999998
0.3999999998
0.3999999997
0.3999999996
0.3999999989
0.3999999964
0.3999999865
0.399999949
0.3999998103
0.3999993191
0.3999976857
0.3999927416
0.3999798306
0.3999999998
0.3999999998
0.3999999998
0.3999999997
0.3999999995
0.3999999985
0.3999999942
0.3999999764
0.3999999032
0.3999996073
0.3999984498
0.3999941494
0.3999794862
0.39993645
0.3999999998
0.3999999998
0.3999999998
0.3999999997
0.3999999994
0.3999999979
0.3999999915
0.3999999634
0.3999998387
0.3999992898
0.3999969094
0.3999869048
0.3999474113
0.3998103537
0.3994599562
0.3999999998
0.3999999998
0.3999999998
0.3999999997
0.3999999993
0.3999999977
0.3999999901
0.3999999558
0.3999997965
0.3999990504
0.3999955241
0.3999788379
0.3999012236
0.3995630757
0.3983890817
0.3999999998
0.3999999998
0.3999999998
0.3999999997
0.3999999994
0.3999999979
0.3999999915
0.3999999634
0.3999998387
0.3999992898
0.3999969095
0.3999869051
0.3999474133
0.3998103645
0.3994600022
0.3999999998
0.3999999998
0.3999999998
0.3999999997
0.3999999995
0.3999999985
0.3999999942
0.3999999764
0.3999999032
0.3999996073
0.3999984499
0.3999941496
0.3999794877
0.3999364578
0.3998420719
0.3999999998
0.3999999998
0.3999999998
0.3999999997
0.3999999996
0.3999999989
0.3999999964
0.3999999865
0.399999949
0.3999998103
0.3999993192
0.3999976859
0.3999927423
0.3999798333
0.3999534121
0.3999999998
0.3999999998
0.3999999998
0.3999999997
0.3999999996
0.3999999992
0.3999999975
0.3999999915
0.3999999701
0.399999897
0.3999996603
0.3999989441
0.3999969736
0.3999922328
0.3999828048
0.3999999998
0.3999999998
0.3999999998
0.3999999997
0.3999999996
0.3999999991
0.3999999973
0.3999999905
0.3999999659
0.3999998803
0.3999995961
0.399998711
0.3999961951
0.3999899498
0.3999999998
0.3999999998
0.3999999998
0.3999999997
0.3999999995
0.3999999988
0.399999996
0.3999999846
0.3999999401
0.3999997708
0.3999991477
0.3999969712
0.3999899749
0.3999704381
0.3999999998
0.3999999998
0.3999999998
0.3999999997
0.3999999994
0.3999999983
0.3999999934
0.3999999722
0.3999998823
0.3999995026
0.3999979274
0.3999916049
0.3999677514
0.3998882598
0.3999999998
0.3999999998
0.3999999998
0.3999999997
0.3999999993
0.3999999977
0.3999999901
0.3999999558
0.3999997965
0.3999990503
0.399995524
0.3999788367
0.3999012159
0.3995630237
0.3999999998
0.3999999998
0.3999999998
0.3999999997
0.3999999992
0.3999999973
0.3999999884
0.3999999456
0.3999997357
0.3999986664
0.3999929611
0.3999607384
0.3997661792
0.3985020943
0.3896112507
0.3999999998
0.3999999998
0.3999999998
0.3999999997
0.3999999993
0.3999999977
0.3999999901
0.3999999558
0.3999997965
0.3999990503
0.399995524
0.3999788374
0.3999012214
0.3995630676
0.3983890735
0.3999999998
0.3999999998
0.3999999998
0.3999999997
0.3999999994
0.3999999983
0.3999999934
0.3999999722
0.3999998823
0.3999995026
0.3999979275
0.3999916054
0.3999677538
0.399888273
0.3996903689
0.3999999998
0.3999999998
0.3999999998
0.3999999997
0.3999999995
0.3999999988
0.399999996
0.3999999846
0.3999999401
0.3999997708
0.3999991478
0.3999969714
0.3999899758
0.3999704418
0.3999285974
0.3999999998
0.3999999998
0.3999999998
0.3999999997
0.3999999996
0.3999999991
0.3999999973
0.3999999905
0.3999999659
0.3999998803
0.3999995961
0.399998711
0.3999961955
0.3999899511
0.3999773737
0.3999999998
0.3999999998
0.3999999998
0.3999999997
0.3999999996
0.3999999992
0.3999999975
0.3999999915
0.3999999701
0.399999897
0.3999996603
0.399998944
0.3999969732
0.3999922317
0.3999999998
0.3999999998
0.3999999998
0.3999999997
0.3999999996
0.3999999989
0.3999999964
0.3999999865
0.399999949
0.3999998103
0.3999993191
0.3999976857
0.3999927415
0.3999798305
0.3999999998
0.3999999998
0.3999999998
0.3999999997
0.3999999995
0.3999999985
0.3999999942
0.3999999764
0.3999999032
0.3999996073
0.3999984497
0.3999941491
0.3999794854
0.3999364489
0.3999999998
0.3999999998
0.3999999998
0.3999999997
0.3999999994
0.3999999979
0.3999999915
0.3999999634
0.3999998386
0.3999992898
0.3999969093
0.399986904
0.3999474077
0.3998103385
0.3999999998
0.3999999998
0.3999999998
0.3999999997
0.3999999993
0.3999999976
0.3999999901
0.3999999558
0.3999997965
0.3999990503
0.3999955239
0.3999788363
0.399901214
0.3995630177
0.3999999998
0.3999999998
0.3999999998
0.3999999997
0.3999999994
0.3999999979
0.3999999915
0.3999999634
0.3999998387
0.3999992898
0.3999969093
0.3999869043
0.399947409
0.399810343
0.3999999998
0.3999999998
0.3999999998
0.3999999997
0.3999999995
0.3999999985
0.3999999942
0.3999999764
0.3999999032
0.3999996073
0.3999984498
0.3999941493
0.3999794865
0.3999364533
0.3998420573
0.3999999998
0.3999999998
0.3999999998
0.3999999997
0.3999999996
0.3999999989
0.3999999964
0.3999999865
0.399999949
0.3999998103
0.3999993191
0.3999976858
0.399992742
0.3999798323
0.3999534099
0.3999999998
0.3999999998
0.3999999998
0.3999999997
0.3999999996
0.3999999992
0.3999999975
0.3999999915
0.3999999701
0.399999897
0.3999996603
0.3999989441
0.3999969735
0.3999922325
0.3999828044
0.3999999998
0.3999999998
0.3999999998
0.3999999998
0.3999999997
0.3999999993
0.3999999981
0.3999999937
0.3999999786
0.3999999291
0.3999997753
0.3999993298
0.3999981559
0.3999954264
0.3999999998
0.3999999998
0.3999999998
0.3999999997
0.3999999996
0.3999999991
0.3999999973
0.3999999904
0.3999999655
0.399999878
0.3999995858
0.3999986754
0.3999961015
0.3999897828
0.3999999998
0.3999999998
0.3999999998
0.3999999997
0.3999999995
0.3999999988
0.3999999958
0.3999999841
0.3999999385
0.3999997661
0.3999991428
0.399997027
0.3999905058
0.3999732422
0.3999999998
0.3999999998
0.3999999998
0.3999999997
0.3999999995
0.3999999985
0.3999999942
0.3999999764
0.3999999032
0.3999996073
0.3999984497
0.399994149
0.3999794853
0.3999364489
0.3999999998
0.3999999998
0.3999999998
0.3999999997
0.3999999994
0.3999999983
0.3999999934
0.3999999722
0.3999998823
0.3999995026
0.3999979274
0.3999916047
0.3999677506
0.3998882588
0.3999999998
0.3999999998
0.3999999998
0.3999999997
0.3999999995
0.3999999985
0.3999999942
0.3999999764
0.3999999032
0.3999996073
0.3999984497
0.3999941491
0.3999794856
0.3999364498
0.3999999998
0.3999999998
0.3999999998
0.3999999997
0.3999999995
0.3999999988
0.3999999958
0.3999999841
0.3999999385
0.3999997661
0.3999991428
0.3999970271
0.3999905061
0.3999732426
0.3999999998
0.3999999998
0.3999999998
0.3999999997
0.3999999996
0.3999999991
0.3999999973
0.3999999904
0.3999999655
0.399999878
0.3999995858
0.3999986754
0.3999961017
0.3999897833
0.3999771668
0.3999999998
0.3999999998
0.3999999998
0.3999999998
0.3999999997
0.3999999993
0.3999999981
0.3999999937
0.3999999786
0.3999999291
0.3999997753
0.3999993299
0.399998156
0.3999954267
0.3999900386
0.3999999998
0.3999999998
0.3999999998
0.3999999998
0.3999999997
0.3999999994
0.3999999986
0.3999999957
0.3999999862
0.3999999563
0.3999998677
0.3999996229
0.399999004
0.3999976061
0.3999999998
0.3999999998
0.3999999998
0.3999999998
0.3999999997
0.3999999993
0.3999999981
0.3999999939
0.3999999792
0.3999999305
0.3999997781
0.3999993329
0.3999981497
0.3999953814
0.3999999998
0.3999999998
0.3999999998
0.3999999997
0.3999999996
0.3999999991
0.3999999973
0.3999999904
0.3999999655
0.399999878
0.3999995858
0.3999986754
0.3999961015
0.3999897828
0.3999999998
0.3999999998
0.3999999998
0.3999999997
0.3999999996
0.3999999989
0.3999999964
0.3999999865
0.399999949
0.3999998103
0.3999993191
0.3999976856
0.3999927414
0.3999798304
0.3999999998
0.3999999998
0.3999999998
0.3999999997
0.3999999995
0.3999999988
0.399999996
0.3999999846
0.3999999401
0.3999997708
0.3999991477
0.3999969711
0.3999899747
0.399970438
0.3999999998
0.3999999998
0.3999999998
0.3999999997
0.3999999996
0.3999999989
0.3999999964
0.3999999865
0.399999949
0.3999998103
0.3999993191
0.3999976856
0.3999927415
0.3999798307
0.3999999998
0.3999999998
0.3999999998
0.3999999997
0.3999999996
0.3999999991
0.3999999973
0.3999999904
0.3999999655
0.399999878
0.3999995858
0.3999986754
0.3999961015
0.3999897829
0.3999999998
0.3999999998
0.3999999998
0.3999999998
0.3999999997
0.3999999993
0.3999999981
0.3999999939
0.3999999792
0.3999999305
0.3999997781
0.3999993329
0.3999981498
0.3999953814
0.3999999998
0.3999999998
0.3999999998
0.3999999998
0.3999999997
0.3999999994
0.3999999986
0.3999999957
0.3999999862
0.3999999563
0.3999998677
0.3999996229
0.399999004
0.3999976062
0.3999948535
0.3999999998
0.3999999998
0.3999999998
0.3999999998
0.3999999997
0.3999999995
0.3999999989
0.3999999968
0.3999999902
0.3999999705
0.3999999142
0.3999997648
0.3999993996
0.3999985927
0.3999999998
0.3999999998
0.3999999998
0.3999999998
0.3999999997
0.3999999994
0.3999999986
0.3999999957
0.3999999862
0.3999999563
0.3999998677
0.3999996229
0.399999004
0.3999976061
0.3999999998
0.3999999998
0.3999999998
0.3999999998
0.3999999997
0.3999999993
0.3999999981
0.3999999937
0.3999999786
0.3999999291
0.3999997753
0.3999993298
0.3999981559
0.3999954263
0.3999999998
0.3999999998
0.3999999998
0.3999999997
0.3999999996
0.3999999992
0.3999999975
0.3999999915
0.3999999701
0.399999897
0.3999996603
0.399998944
0.3999969732
0.3999922317
0.3999999998
0.3999999998
0.3999999998
0.3999999997
0.3999999996
0.3999999991
0.3999999973
0.3999999905
0.3999999659
0.3999998803
0.399999596
0.3999987109
0.3999961951
0.3999899498
0.3999999998
0.3999999998
0.3999999998
0.3999999997
0.3999999996
0.3999999992
0.3999999975
0.3999999915
0.3999999701
0.399999897
0.3999996603
0.399998944
0.3999969732
0.3999922318
0.3999999998
0.3999999998
0.3999999998
0.3999999998
0.3999999997
0.3999999993
0.3999999981
0.3999999937
0.3999999786
0.3999999291
0.3999997753
0.3999993298
0.3999981559
0.3999954264
0.3999999998
0.3999999998
0.3999999998
0.3999999998
0.3999999997
0.3999999994
0.3999999986
0.3999999957
0.3999999862
0.3999999563
0.3999998677
0.3999996229
0.399999004
0.3999976061
0.3999999998
0.3999999998
0.3999999998
0.3999999998
0.3999999997
0.3999999995
0.3999999989
0.3999999968
0.3999999902
0.3999999705
0.3999999142
0.3999997648
0.3999993997
0.3999985927
)
;

boundaryField
{
    top
    {
        type            zeroGradient;
    }
    bottom
    {
        type            zeroGradient;
    }
    side-walls
    {
        type            zeroGradient;
    }
    inlet
    {
        type            zeroGradient;
    }
    outlet
    {
        type            zeroGradient;
    }
    procBoundary0to1
    {
        type            processor;
        value           nonuniform List<scalar> 
97
(
0.399994237
0.3999948535
0.3999901961
0.3999812678
0.3999681816
0.3999588332
0.3999681819
0.3999812682
0.3999901965
0.3999942373
0.3999948535
0.3999948535
0.399981083
0.3999771665
0.3999581482
0.3999173743
0.3998788852
0.3999173756
0.3999581495
0.3999810838
0.3999901965
0.3999900384
0.3999771665
0.3999771665
0.3998903792
0.3998420539
0.3997396054
0.399542045
0.3997396114
0.3998903834
0.3999581494
0.3999812682
0.3999828039
0.3999534086
0.3998420539
0.3998420539
0.3992226093
0.3983889346
0.3982077748
0.3992226304
0.399739611
0.3999173754
0.3999681818
0.3999773727
0.3999285936
0.3996903486
0.3983889346
0.3983889346
0.3938326871
0.3983889393
0.3982077748
0.3994599621
0.3995420442
0.3998788852
0.3999588331
0.399982804
0.3999534097
0.3998420624
0.3994599667
0.3983889393
0.3994599621
0.3994599621
0.399739606
0.3999377636
0.3999173739
0.3999681814
0.3999900387
0.3999771681
0.3999377663
0.3998420625
0.3996903489
0.3998420633
0.3999377636
0.3999377636
0.3999581483
0.3999899118
0.3999812677
0.3999948539
0.3999899124
0.3999771681
0.3999534097
0.3999285938
0.39995341
0.3999771679
0.3999899118
0.3999899118
0.3999901961
0.3999970039
0.399997004
0.3999948538
0.3999900386
0.399982804
0.3999773728
0.3999828042
0.3999900387
0.3999948538
0.3999970039
)
;
    }
}


// ************************************************************************* //
