/*--------------------------------*- C++ -*----------------------------------*\
| =========                 |                                                 |
| \\      /  F ield         | OpenFOAM: The Open Source CFD Toolbox           |
|  \\    /   O peration     | Version:  4.x                                   |
|   \\  /    A nd           | Web:      www.OpenFOAM.org                      |
|    \\/     M anipulation  |                                                 |
\*---------------------------------------------------------------------------*/
FoamFile
{
    version     2.0;
    format      ascii;
    class       volScalarField;
    location    "3000";
    object      CO2;
}
// * * * * * * * * * * * * * * * * * * * * * * * * * * * * * * * * * * * * * //

dimensions      [0 0 0 0 0 0 0];

internalField   nonuniform List<scalar> 
1175
(
7.387109751e-10
7.397190691e-10
7.445991268e-10
7.634944575e-10
8.319489773e-10
1.071282499e-09
1.882862077e-09
4.545145015e-09
1.294539458e-08
3.824141454e-08
1.102245874e-07
3.014301677e-07
7.685829244e-07
1.801174729e-06
3.834655386e-06
7.394371411e-10
7.406487238e-10
7.465686058e-10
7.699406599e-10
8.567419088e-10
1.169098514e-09
2.263071764e-09
5.981270028e-09
1.8170863e-08
5.639060244e-08
1.697248198e-07
4.82950807e-07
1.274716637e-06
3.06323799e-06
6.585603672e-06
7.405822347e-10
7.4212262e-10
7.497471989e-10
7.805593169e-10
8.983659516e-10
1.336636791e-09
2.929219096e-09
8.563879716e-09
2.785189902e-08
9.115886626e-08
2.879614131e-07
8.577914293e-07
2.359547682e-06
5.851476746e-06
1.274599503e-05
7.416110338e-10
7.434621452e-10
7.527159355e-10
7.907599079e-10
9.393653522e-10
1.506065457e-09
3.623571767e-09
1.13527339e-08
3.874482929e-08
1.321670609e-07
4.349792772e-07
1.351231322e-06
3.87222995e-06
9.937690005e-06
2.200103185e-05
7.42021405e-10
7.440017431e-10
7.539403162e-10
7.950679317e-10
9.57062813e-10
1.580996743e-09
3.939875078e-09
1.26707148e-08
4.413240637e-08
1.536112719e-07
5.171721186e-07
1.649373552e-06
4.867476024e-06
1.285612101e-05
2.894845228e-05
7.416045126e-10
7.434557106e-10
7.527097282e-10
7.907544256e-10
9.393623324e-10
1.506069913e-09
3.623598756e-09
1.135282373e-08
3.874504978e-08
1.321673873e-07
4.349786359e-07
1.351223035e-06
3.872186567e-06
9.937529208e-06
2.20006024e-05
7.405690476e-10
7.42109673e-10
7.497349189e-10
7.805483901e-10
8.983586921e-10
1.336639455e-09
2.929248032e-09
8.563967571e-09
2.785205815e-08
9.115874947e-08
2.879584545e-07
8.57773806e-07
2.359471843e-06
5.851224227e-06
1.274537605e-05
7.394162649e-10
7.406289178e-10
7.465504986e-10
7.699249495e-10
8.567301929e-10
1.169094169e-09
2.263079934e-09
5.981281186e-09
1.817074909e-08
5.638957718e-08
1.697192303e-07
4.829264555e-07
1.274626636e-06
3.062962084e-06
6.584961615e-06
7.386786183e-10
7.396935861e-10
7.445784698e-10
7.634785559e-10
8.319392875e-10
1.071282836e-09
1.882879449e-09
4.545174205e-09
1.294531344e-08
3.824048368e-08
1.102194185e-07
3.014078565e-07
7.685009593e-07
1.800916818e-06
3.834014602e-06
7.394371711e-10
7.406487864e-10
7.465687591e-10
7.699412035e-10
8.567439318e-10
1.169106734e-09
2.26310583e-09
5.981407465e-09
1.817141083e-08
5.639273583e-08
1.69732959e-07
4.829814424e-07
1.274832103e-06
3.063693287e-06
7.402576325e-10
7.417363561e-10
7.490532546e-10
7.786311153e-10
8.91829416e-10
1.313771804e-09
2.851781585e-09
8.317398762e-09
2.713524576e-08
8.933980048e-08
2.843120075e-07
8.538527471e-07
2.367611418e-06
5.909605497e-06
1.290919178e-05
7.415533428e-10
7.434690585e-10
7.531073382e-10
7.931722604e-10
9.519415126e-10
1.568030941e-09
3.917341088e-09
1.26935928e-08
4.461007759e-08
1.565591062e-07
5.302773491e-07
1.694950727e-06
4.987561539e-06
1.307095597e-05
2.921316344e-05
7.427221329e-10
7.450565933e-10
7.569514853e-10
8.074364459e-10
1.012776117e-09
1.834253013e-09
5.078436892e-09
1.769294852e-08
6.57154518e-08
2.431646135e-07
8.714219495e-07
2.96085545e-06
9.28511636e-06
2.580018524e-05
5.960482418e-05
7.431901868e-10
7.457009094e-10
7.585585215e-10
8.135760081e-10
1.039716066e-09
1.95613188e-09
5.632549591e-09
2.020722918e-08
7.705030806e-08
2.9360888e-07
1.09066697e-06
3.87463595e-06
1.282352145e-05
3.781209747e-05
9.134531625e-05
7.427159966e-10
7.450504577e-10
7.569455827e-10
8.074314199e-10
1.012773977e-09
1.834259261e-09
5.078467885e-09
1.769303578e-08
6.571556567e-08
2.431639527e-07
8.714149592e-07
2.960813017e-06
9.284910516e-06
2.579939651e-05
5.960265938e-05
7.415407679e-10
7.434566754e-10
7.530956142e-10
7.931622096e-10
9.51935922e-10
1.568038178e-09
3.917381929e-09
1.269369718e-08
4.461015853e-08
1.565579052e-07
5.302669007e-07
1.6948917e-06
4.987295456e-06
1.306998693e-05
2.921060828e-05
7.402383077e-10
7.417180029e-10
7.490366723e-10
7.786173297e-10
8.918206689e-10
1.313774019e-09
2.851805385e-09
8.317436907e-09
2.713507954e-08
8.933790935e-08
2.843004831e-07
8.537964672e-07
2.367377168e-06
5.908774641e-06
1.290687152e-05
7.39408921e-10
7.406269379e-10
7.465515401e-10
7.699288354e-10
8.567382208e-10
1.169112252e-09
2.263128979e-09
5.981427631e-09
1.817118611e-08
5.639084017e-08
1.697226068e-07
4.829346017e-07
1.274643636e-06
3.062990857e-06
6.584994101e-06
7.405826559e-10
7.421231457e-10
7.497480351e-10
7.805613434e-10
8.983735768e-10
1.336667384e-09
2.929343754e-09
8.564383243e-09
2.785389381e-08
9.116659889e-08
2.87990476e-07
8.578971844e-07
2.359915791e-06
5.852689319e-06
7.415536095e-10
7.434694268e-10
7.531079213e-10
7.931739904e-10
9.519481355e-10
1.568058077e-09
3.917454009e-09
1.269405955e-08
4.461200163e-08
1.565668998e-07
5.303085818e-07
1.695074709e-06
4.988054145e-06
1.307298161e-05
7.430916916e-10
7.456301224e-10
7.58665897e-10
8.146706993e-10
1.045892248e-09
1.986766576e-09
5.772464825e-09
2.079026955e-08
7.917652185e-08
2.996184056e-07
1.096981662e-06
3.803499916e-06
1.214557976e-05
3.423065441e-05
7.962775187e-05
7.444873256e-10
7.476320182e-10
7.640365202e-10
8.362829991e-10
1.143971016e-09
2.442821706e-09
7.897199262e-09
3.063813837e-08
1.243255136e-07
5.027714054e-07
1.983466834e-06
7.484507708e-06
2.624086043e-05
8.128882951e-05
0.0002020454926
7.450492259e-10
7.48452892e-10
7.663196603e-10
8.458000535e-10
1.188749285e-09
2.660335287e-09
8.968313985e-09
3.59646331e-08
1.510053807e-07
6.367337435e-07
2.651551593e-06
1.073844736e-05
4.124773249e-05
0.0001429148976
0.0003960760878
7.444815753e-10
7.476263281e-10
7.640309907e-10
8.362782179e-10
1.1439678e-09
2.442822229e-09
7.897201309e-09
3.063806691e-08
1.243247357e-07
5.027656446e-07
1.983431007e-06
7.48430536e-06
2.623984914e-05
8.128449664e-05
0.0002020319171
7.430798928e-10
7.456186249e-10
7.586550331e-10
8.146619073e-10
1.045889062e-09
1.986779393e-09
5.772517884e-09
2.079036598e-08
7.917621545e-08
2.996137584e-07
1.096947413e-06
3.803300415e-06
1.21445799e-05
3.422642502e-05
7.96141489e-05
7.415356617e-10
7.434524399e-10
7.530927701e-10
7.931617104e-10
9.519411197e-10
1.568062225e-09
3.917473616e-09
1.269403159e-08
4.461132686e-08
1.565617857e-07
5.302789211e-07
1.694924841e-06
4.987371546e-06
1.307011747e-05
2.921071498e-05
7.405565451e-10
7.421034113e-10
7.497329497e-10
7.805512671e-10
8.983703204e-10
1.336675839e-09
2.929364755e-09
8.564351081e-09
2.785328503e-08
9.116249656e-08
2.879690656e-07
8.578004076e-07
2.359528157e-06
5.851313893e-06
1.274544777e-05
7.416118649e-10
7.434630299e-10
7.527173962e-10
7.907637834e-10
9.39380051e-10
1.506125448e-09
3.623819867e-09
1.13537501e-08
3.874891362e-08
1.321831311e-07
4.350404956e-07
1.351454357e-06
3.872993994e-06
9.940073435e-06
7.427228806e-10
7.450573793e-10
7.569528679e-10
8.074400548e-10
1.012789962e-09
1.834312151e-09
5.078695598e-09
1.769408078e-08
6.572038878e-08
2.431858694e-07
8.715124282e-07
2.961230585e-06
9.286611176e-06
2.580574815e-05
7.444876626e-10
7.476324442e-10
7.640372384e-10
8.362850286e-10
1.143979629e-09
2.442861674e-09
7.897393052e-09
3.063907707e-08
1.243301009e-07
5.027938881e-07
1.983577667e-06
7.485051624e-06
2.62435358e-05
8.130204183e-05
7.460969445e-10
7.50040648e-10
7.709880083e-10
8.658723586e-10
1.284557902e-09
3.128657313e-09
1.12729287e-08
4.732477857e-08
2.068624783e-07
9.089955536e-07
3.95397187e-06
1.675191509e-05
6.727179768e-05
0.0002425972166
0.0006908510469
7.467480651e-10
7.510365738e-10
7.739856504e-10
8.791630698e-10
1.350536437e-09
3.468592108e-09
1.3068201e-08
5.704019145e-08
2.607704578e-07
1.215251627e-06
5.725853243e-06
2.706984181e-05
0.0001263473906
0.0005588709595
0.002060525166
7.46091725e-10
7.500353488e-10
7.709828741e-10
8.658678796e-10
1.284554993e-09
3.128656691e-09
1.127291552e-08
4.732457886e-08
2.068606354e-07
9.08981567e-07
3.953875158e-06
1.675128245e-05
6.726791461e-05
0.0002425757069
0.0006907569455
7.444767066e-10
7.476217982e-10
7.640273127e-10
8.362771539e-10
1.143977749e-09
2.442876731e-09
7.897441204e-09
3.063907079e-08
1.243288368e-07
5.027818874e-07
1.983492023e-06
7.484515236e-06
2.624046743e-05
8.128582123e-05
0.0002020328611
7.42706108e-10
7.450416548e-10
7.569389051e-10
8.074291995e-10
1.012785321e-09
1.834320581e-09
5.078717789e-09
1.769399922e-08
6.571914708e-08
2.431767109e-07
8.714574856e-07
2.960940285e-06
9.285232745e-06
2.57999871e-05
5.960306299e-05
7.415872909e-10
7.434449037e-10
7.527038891e-10
7.907553699e-10
9.393790213e-10
1.506136617e-09
3.623838917e-09
1.135366316e-08
3.874788779e-08
1.32176506e-07
4.350058139e-07
1.351295782e-06
3.872351484e-06
9.937806856e-06
2.200082847e-05
7.420226336e-10
7.440031717e-10
7.539424562e-10
7.950735659e-10
9.570830855e-10
1.58107947e-09
3.940218274e-09
1.267212936e-08
4.413814843e-08
1.536340334e-07
5.172594055e-07
1.649693215e-06
4.868568737e-06
1.285947019e-05
7.431913837e-10
7.457022717e-10
7.585604571e-10
8.135813035e-10
1.039736784e-09
1.956221845e-09
5.632950672e-09
2.020902444e-08
7.70583361e-08
2.936444262e-07
1.09082205e-06
3.87529289e-06
1.282616307e-05
3.782170691e-05
7.450499919e-10
7.484537353e-10
7.663213769e-10
8.458051099e-10
1.1887706e-09
2.660435417e-09
8.968799231e-09
3.596701475e-08
1.510172112e-07
6.367931718e-07
2.651851045e-06
1.073995474e-05
4.125517372e-05
0.0001429494949
7.467483866e-10
7.510371541e-10
7.739867065e-10
8.791669197e-10
1.350553781e-09
3.468677672e-09
1.306863631e-08
5.704246772e-08
2.607827901e-07
1.215320838e-06
5.726258118e-06
2.707232644e-05
0.0001263634443
0.0005589802731
7.474367542e-10
7.521096527e-10
7.773149815e-10
8.943069522e-10
1.427664363e-09
3.878837296e-09
1.532874176e-08
6.999848927e-08
3.385286098e-07
1.706430378e-06
9.004283328e-06
5.022070226e-05
0.0002990765878
0.001915899743
0.01328750552
7.467434597e-10
7.510321927e-10
7.739819622e-10
8.791630616e-10
1.350552415e-09
3.468681837e-09
1.306863407e-08
5.704224798e-08
2.60780355e-07
1.215299529e-06
5.726086384e-06
2.707096239e-05
0.0001263524575
0.0005588897947
0.002060543081
7.450398025e-10
7.484438162e-10
7.663122273e-10
8.457980445e-10
1.1887694e-09
2.6604504e-09
8.968839256e-09
3.596693166e-08
1.510153319e-07
6.367760286e-07
2.651725391e-06
1.073911883e-05
4.125004063e-05
0.0001429208727
0.0003960806081
7.431756337e-10
7.456875741e-10
7.585475155e-10
8.135710156e-10
1.039730801e-09
1.956221155e-09
5.632931592e-09
2.020875494e-08
7.705622486e-08
2.936310156e-07
1.090745403e-06
3.874891295e-06
1.282423425e-05
3.781353902e-05
9.134619322e-05
7.419992292e-10
7.439861907e-10
7.539300645e-10
7.950660267e-10
9.570820998e-10
1.581086693e-09
3.940216174e-09
1.267194637e-08
4.413669382e-08
1.536254689e-07
5.172161051e-07
1.649496455e-06
4.867768351e-06
1.285663426e-05
2.894883058e-05
7.416062487e-10
7.434575395e-10
7.527124762e-10
7.907612012e-10
9.393861624e-10
1.506163906e-09
3.623977417e-09
1.135433924e-08
3.875101032e-08
1.321901429e-07
4.350620125e-07
1.351512261e-06
3.873114095e-06
9.940187929e-06
7.427175364e-10
7.45052195e-10
7.569483115e-10
8.074384042e-10
1.012800053e-09
1.834368988e-09
5.078941025e-09
1.769507637e-08
6.572428019e-08
2.432005479e-07
8.715640446e-07
2.961393017e-06
9.287009785e-06
2.580614298e-05
7.444828356e-10
7.476277346e-10
7.640335958e-10
8.362858348e-10
1.143999667e-09
2.442965065e-09
7.897860031e-09
3.064112539e-08
1.243389713e-07
5.028315173e-07
1.983731135e-06
7.485634995e-06
2.624539706e-05
8.130523886e-05
7.460925367e-10
7.50036343e-10
7.709848919e-10
8.658746152e-10
1.284584522e-09
3.128797235e-09
1.127360347e-08
4.732800874e-08
2.068780553e-07
9.090711398e-07
3.95433798e-06
1.675367371e-05
6.727994868e-05
0.0002426321085
7.467438894e-10
7.510327521e-10
7.739831336e-10
8.791671308e-10
1.350570492e-09
3.468769474e-09
1.306907436e-08
5.704453512e-08
2.607925718e-07
1.215367543e-06
5.726481504e-06
2.707336936e-05
0.0001263679429
0.0005589951592
7.460878629e-10
7.500316984e-10
7.709804766e-10
8.658707295e-10
1.284581998e-09
3.128795971e-09
1.127358411e-08
4.732777853e-08
2.068761916e-07
9.090577342e-07
3.954251588e-06
1.675315674e-05
6.727724582e-05
0.0002426217405
7.444731653e-10
7.476183e-10
7.640246643e-10
8.36278256e-10
1.143994257e-09
2.442961031e-09
7.897827875e-09
3.064081342e-08
1.243366288e-07
5.02816549e-07
1.983644116e-06
7.485166097e-06
2.624311837e-05
8.129549897e-05
0.0002020641532
7.427027424e-10
7.450383706e-10
7.569361694e-10
8.074286701e-10
1.012793666e-09
1.834365105e-09
5.078912487e-09
1.76948087e-08
6.572246932e-08
2.431900037e-07
8.715092269e-07
2.961133068e-06
9.285899002e-06
2.580199985e-05
5.960772061e-05
7.415840412e-10
7.43441688e-10
7.527011857e-10
7.907543071e-10
9.393838826e-10
1.506164436e-09
3.623954141e-09
1.1354108e-08
3.874955607e-08
1.321825236e-07
4.350266004e-07
1.351363187e-06
3.872550739e-06
9.938313196e-06
2.20017805e-05
7.405709391e-10
7.421117359e-10
7.4973777e-10
7.805550088e-10
8.983799651e-10
1.336719746e-09
2.929560106e-09
8.565173724e-09
2.785659817e-08
9.117528822e-08
2.880160172e-07
8.579625265e-07
2.360042078e-06
5.852771815e-06
7.41542563e-10
7.434586459e-10
7.53098611e-10
7.931692755e-10
9.519605021e-10
1.568136285e-09
3.917786219e-09
1.269535382e-08
4.461683333e-08
1.565841113e-07
5.303659422e-07
1.695245546e-06
4.988460926e-06
1.307339708e-05
7.430815241e-10
7.456203924e-10
7.586580044e-10
8.146698051e-10
1.045919033e-09
1.986907203e-09
5.773075725e-09
2.07928103e-08
7.918682748e-08
2.996590483e-07
1.097134956e-06
3.804040666e-06
1.214728997e-05
3.423520867e-05
7.444780005e-10
7.476231817e-10
7.640298018e-10
8.362845962e-10
1.144007489e-09
2.443010409e-09
7.89805759e-09
3.064194684e-08
1.243422625e-07
5.028441356e-07
1.983776334e-06
7.485774364e-06
2.624572204e-05
8.130543853e-05
7.450406799e-10
7.484448118e-10
7.663139554e-10
8.458034606e-10
1.188792232e-09
2.660555097e-09
8.969336869e-09
3.596933055e-08
1.510269968e-07
6.368334484e-07
2.652009956e-06
1.074052617e-05
4.125683867e-05
0.0001429516678
7.444736428e-10
7.476188712e-10
7.640255205e-10
8.362806022e-10
1.14400409e-09
2.443006086e-09
7.898036455e-09
3.064178551e-08
1.243411783e-07
5.028377638e-07
1.983741828e-06
7.48560842e-06
2.62450322e-05
8.130324947e-05
7.430726405e-10
7.456116532e-10
7.586496453e-10
8.14662317e-10
1.045912441e-09
1.986898739e-09
5.773038012e-09
2.079256178e-08
7.918534115e-08
2.996510498e-07
1.097096202e-06
3.803874906e-06
1.214671433e-05
3.423412227e-05
7.415288757e-10
7.434460329e-10
7.530875014e-10
7.931603398e-10
9.519544014e-10
1.568132117e-09
3.917764782e-09
1.269518241e-08
4.461576039e-08
1.56578459e-07
5.303395312e-07
1.695135468e-06
4.988058771e-06
1.307213551e-05
2.921589788e-05
7.405501759e-10
7.420973113e-10
7.49727785e-10
7.805491041e-10
8.983782132e-10
1.336719392e-09
2.929539861e-09
8.565003262e-09
2.785563006e-08
9.117061551e-08
2.879959822e-07
8.578847325e-07
2.359771093e-06
5.851926115e-06
1.274664296e-05
7.39418396e-10
7.406311956e-10
7.465535602e-10
7.699313074e-10
8.567491768e-10
1.169161502e-09
2.263328242e-09
5.982188118e-09
1.817397216e-08
5.640062811e-08
1.697553439e-07
4.830375027e-07
1.274943058e-06
3.06377886e-06
7.402402808e-10
7.417201727e-10
7.490397277e-10
7.786240521e-10
8.918421006e-10
1.313854213e-09
2.852115342e-09
8.318628535e-09
2.713955417e-08
8.935419293e-08
2.843572461e-07
8.539830415e-07
2.367943083e-06
5.910313368e-06
7.415374859e-10
7.43454418e-10
7.53095644e-10
7.931687003e-10
9.519655432e-10
1.568159186e-09
3.917871405e-09
1.269565226e-08
4.461784326e-08
1.565873321e-07
5.303752177e-07
1.695268474e-06
4.988502934e-06
1.307342325e-05
7.427076654e-10
7.450434248e-10
7.569416243e-10
8.074361971e-10
1.012811085e-09
1.834427856e-09
5.079177867e-09
1.769596942e-08
6.572750682e-08
2.432115439e-07
8.71598485e-07
2.961485452e-06
9.287193389e-06
2.580625286e-05
7.431767741e-10
7.456888973e-10
7.585497396e-10
8.135769986e-10
1.039753417e-09
1.956317187e-09
5.633350163e-09
2.021058883e-08
7.706421766e-08
2.936655414e-07
1.090892354e-06
3.875498518e-06
1.282661078e-05
3.782196044e-05
7.427034746e-10
7.450392057e-10
7.569376161e-10
8.074324017e-10
1.01280753e-09
1.83442331e-09
5.079162129e-09
1.769587736e-08
6.572699078e-08
2.432088521e-07
8.715857892e-07
2.961432664e-06
9.287003378e-06
2.580569489e-05
7.41529304e-10
7.434463304e-10
7.530879818e-10
7.931616759e-10
9.519590877e-10
1.568150692e-09
3.917843529e-09
1.26955065e-08
4.461709248e-08
1.565838033e-07
5.303603138e-07
1.695213833e-06
4.988340789e-06
1.307312312e-05
7.402279029e-10
7.417088056e-10
7.490297225e-10
7.7861548e-10
8.918344882e-10
1.313843341e-09
2.852077797e-09
8.318450755e-09
2.713874719e-08
8.935081897e-08
2.843443357e-07
8.539397616e-07
2.367828421e-06
5.910183785e-06
7.393995961e-10
7.406188024e-10
7.465455127e-10
7.69927112e-10
8.567482223e-10
1.169161093e-09
2.263311248e-09
5.982069937e-09
1.817338136e-08
5.639808111e-08
1.697456091e-07
4.830042957e-07
1.274842621e-06
3.063507735e-06
6.586166165e-06
7.386808548e-10
7.39695993e-10
7.445815728e-10
7.634845202e-10
8.319558971e-10
1.071339194e-09
1.883078603e-09
4.545871849e-09
1.294768939e-08
3.824825391e-08
1.102436357e-07
3.014788497e-07
7.686941061e-07
1.801399255e-06
7.39411042e-10
7.406292968e-10
7.465546886e-10
7.69935179e-10
8.56757143e-10
1.169179639e-09
2.263376465e-09
5.982328378e-09
1.817438195e-08
5.640176768e-08
1.697582783e-07
4.830441634e-07
1.274955214e-06
3.063794363e-06
7.405585373e-10
7.421055579e-10
7.497359135e-10
7.805580673e-10
8.983924962e-10
1.336758617e-09
2.929684144e-09
8.56556897e-09
2.785782995e-08
9.117888768e-08
2.880256334e-07
8.579846977e-07
2.360081806e-06
5.852810695e-06
7.415889592e-10
7.434467154e-10
7.52706648e-10
7.907620846e-10
9.394019274e-10
1.506225888e-09
3.624196679e-09
1.135508689e-08
3.87534551e-08
1.321976505e-07
4.350828724e-07
1.35156157e-06
3.873199765e-06
9.940233888e-06
7.420005879e-10
7.439876454e-10
7.53932307e-10
7.950717981e-10
9.571022039e-10
1.581166953e-09
3.940545404e-09
1.26732833e-08
4.414203701e-08
1.536463481e-07
5.172949775e-07
1.649780688e-06
4.868723695e-06
1.285952637e-05
7.415849012e-10
7.434427595e-10
7.52702743e-10
7.90758317e-10
9.393980811e-10
1.506220166e-09
3.624179731e-09
1.135501278e-08
3.875311399e-08
1.321961648e-07
4.350769954e-07
1.351539836e-06
3.873129507e-06
9.940038251e-06
7.405506849e-10
7.420979438e-10
7.497286775e-10
7.80551402e-10
8.983859518e-10
1.336749477e-09
2.929657577e-09
8.565458829e-09
2.785735397e-08
9.11769514e-08
2.880184564e-07
8.579609906e-07
2.36001645e-06
5.852668465e-06
7.393997167e-10
7.406189514e-10
7.465457128e-10
7.699277499e-10
8.567508406e-10
1.169170976e-09
2.26334954e-09
5.982213286e-09
1.817390391e-08
5.63999487e-08
1.697520244e-07
4.830256844e-07
1.274912411e-06
3.063738797e-06
7.386651964e-10
7.396867926e-10
7.445765926e-10
7.634833016e-10
8.319579976e-10
1.071342569e-09
1.883072354e-09
4.545805103e-09
1.294735686e-08
3.824693094e-08
1.102390836e-07
3.014657244e-07
7.686661635e-07
1.801386789e-06
)
;

boundaryField
{
    top
    {
        type            zeroGradient;
    }
    bottom
    {
        type            zeroGradient;
    }
    side-walls
    {
        type            zeroGradient;
    }
    inlet
    {
        type            zeroGradient;
    }
    outlet
    {
        type            zeroGradient;
    }
    procBoundary0to1
    {
        type            processor;
        value           nonuniform List<scalar> 
97
(
7.375194536e-06
6.586182743e-06
1.254564269e-05
2.396900046e-05
4.07114632e-05
5.267107022e-05
4.071094742e-05
2.396826471e-05
1.254493708e-05
7.37469514e-06
6.586182743e-06
6.586182743e-06
2.420573451e-05
2.921625992e-05
5.354880195e-05
0.0001057122383
0.0001549493227
0.0001057099047
5.354635805e-05
2.42042467e-05
1.254499676e-05
1.274690469e-05
2.921625992e-05
2.921625992e-05
0.0001402502581
0.0002020706711
0.000333133161
0.0005858513936
0.0003331220559
0.0001402424658
5.354649618e-05
2.396837275e-05
2.200275593e-05
5.961026263e-05
0.0002020706711
0.0002020706711
0.0009944997288
0.002060873464
0.002292637668
0.0009944607507
0.0003331229724
0.0001057103697
4.071125566e-05
2.895100554e-05
9.135476419e-05
0.0003961275122
0.002060873464
0.002060873464
0.007889030275
0.002060864296
0.002292638356
0.0006908486928
0.0005858538056
0.0001549499444
5.267150224e-05
2.200258405e-05
5.960843817e-05
0.0002020539299
0.0006908383434
0.002060864296
0.0006908486928
0.0006908486928
0.0003331323707
7.962748497e-05
0.0001057135626
4.071220135e-05
1.274645881e-05
2.921326726e-05
7.962198299e-05
0.000202053905
0.0003961272206
0.0002020527039
7.962748497e-05
7.962748497e-05
5.35487627e-05
1.290913849e-05
2.396942024e-05
6.585519361e-06
1.290799221e-05
2.921328993e-05
5.960849519e-05
9.135454064e-05
5.960778813e-05
2.921368299e-05
1.290913849e-05
1.290913849e-05
1.254562065e-05
3.834660427e-06
3.834333705e-06
6.585550592e-06
1.274651763e-05
2.200261346e-05
2.895095012e-05
2.200230271e-05
1.27464098e-05
6.585683074e-06
3.834660427e-06
)
;
    }
}


// ************************************************************************* //
