/*--------------------------------*- C++ -*----------------------------------*\
| =========                 |                                                 |
| \\      /  F ield         | OpenFOAM: The Open Source CFD Toolbox           |
|  \\    /   O peration     | Version:  4.x                                   |
|   \\  /    A nd           | Web:      www.OpenFOAM.org                      |
|    \\/     M anipulation  |                                                 |
\*---------------------------------------------------------------------------*/
FoamFile
{
    version     2.0;
    format      ascii;
    class       volScalarField;
    location    "3000";
    object      Cpv;
}
// * * * * * * * * * * * * * * * * * * * * * * * * * * * * * * * * * * * * * //

dimensions      [0 2 -2 -1 0 0 0];

internalField   nonuniform List<scalar> 
1175
(
1210.459554
1210.459556
1210.459561
1210.459541
1210.459543
1210.459544
1210.459542
1210.459551
1210.459541
1210.459553
1210.459567
1210.459583
1210.459611
1210.459659
1210.459777
1210.460429
1210.460415
1210.460424
1210.460408
1210.460413
1210.460416
1210.460437
1210.460425
1210.46043
1210.460455
1210.460461
1210.46047
1210.460525
1210.460655
1210.460862
1210.460056
1210.460051
1210.460057
1210.460056
1210.460046
1210.460055
1210.460057
1210.460044
1210.46008
1210.460098
1210.460073
1210.46012
1210.460212
1210.460437
1210.460862
1210.459527
1210.459506
1210.45951
1210.45952
1210.459513
1210.459509
1210.459499
1210.459507
1210.459497
1210.459489
1210.459509
1210.459591
1210.459743
1210.460129
1210.460912
1210.459646
1210.459629
1210.459615
1210.45965
1210.459648
1210.459642
1210.459661
1210.459633
1210.459645
1210.459639
1210.45967
1210.459724
1210.459952
1210.460439
1210.46146
1210.459701
1210.459697
1210.459701
1210.45971
1210.459704
1210.459709
1210.459722
1210.459732
1210.459742
1210.459743
1210.459747
1210.459786
1210.459952
1210.460331
1210.461124
1210.460216
1210.460214
1210.46021
1210.460233
1210.460247
1210.460264
1210.460253
1210.460265
1210.460222
1210.460219
1210.460245
1210.460267
1210.460383
1210.460604
1210.461039
1210.459467
1210.459449
1210.459463
1210.459491
1210.459491
1210.459504
1210.45949
1210.459512
1210.459511
1210.459509
1210.459523
1210.459544
1210.459587
1210.459667
1210.459891
1210.459471
1210.459461
1210.459464
1210.459447
1210.45947
1210.459471
1210.459484
1210.459489
1210.459496
1210.459492
1210.459512
1210.459525
1210.45956
1210.459626
1210.459744
1210.4598
1210.459801
1210.459798
1210.459805
1210.459809
1210.45982
1210.459829
1210.459834
1210.459811
1210.45983
1210.459838
1210.459867
1210.459899
1210.460011
1210.459104
1210.459103
1210.459093
1210.45911
1210.45909
1210.459095
1210.459092
1210.459066
1210.459055
1210.459051
1210.459085
1210.459127
1210.459235
1210.459468
1210.459894
1210.459523
1210.459535
1210.459542
1210.459528
1210.459522
1210.459516
1210.459516
1210.459521
1210.459545
1210.459562
1210.459562
1210.459622
1210.45984
1210.460344
1210.461376
1210.459552
1210.459554
1210.459567
1210.459541
1210.45957
1210.459572
1210.459589
1210.459601
1210.45959
1210.459584
1210.459644
1210.459786
1210.460209
1210.46124
1210.46338
1210.460807
1210.460831
1210.460825
1210.46082
1210.460811
1210.460806
1210.460793
1210.460796
1210.460805
1210.460822
1210.460858
1210.461039
1210.4616
1210.463182
1210.466556
1210.459975
1210.459987
1210.459996
1210.45997
1210.459979
1210.45997
1210.459986
1210.459986
1210.459979
1210.459982
1210.46002
1210.460143
1210.460547
1210.461583
1210.463707
1210.45981
1210.459821
1210.459837
1210.459829
1210.459843
1210.459796
1210.459786
1210.459794
1210.459794
1210.459821
1210.459848
1210.459905
1210.460113
1210.460614
1210.46165
1210.45972
1210.459713
1210.459704
1210.459693
1210.459687
1210.459692
1210.459679
1210.45968
1210.459686
1210.459674
1210.459704
1210.459737
1210.459863
1210.460066
1210.460524
1210.460003
1210.459993
1210.459977
1210.459975
1210.459955
1210.459959
1210.459994
1210.459972
1210.459986
1210.459985
1210.459985
1210.460009
1210.460068
1210.460161
1210.460393
1210.459769
1210.459786
1210.459783
1210.45976
1210.45974
1210.459744
1210.459734
1210.45974
1210.459755
1210.459765
1210.459776
1210.459825
1210.459914
1210.46014
1210.460394
1210.460408
1210.460418
1210.460415
1210.460403
1210.460404
1210.460425
1210.460375
1210.460361
1210.460373
1210.460372
1210.460444
1210.460648
1210.461152
1210.459508
1210.459513
1210.459516
1210.459556
1210.459562
1210.459577
1210.459582
1210.459584
1210.459576
1210.459579
1210.459612
1210.459764
1210.460298
1210.461675
1210.46454
1210.46026
1210.460245
1210.460237
1210.460249
1210.460238
1210.460202
1210.460163
1210.460169
1210.46019
1210.460217
1210.460321
1210.460658
1210.461842
1210.465352
1210.473008
1210.460141
1210.460123
1210.460132
1210.460134
1210.460138
1210.460151
1210.460172
1210.460145
1210.460181
1210.460217
1210.460344
1210.460865
1210.462768
1210.469214
1210.48524
1210.459588
1210.45958
1210.459604
1210.45959
1210.459567
1210.459586
1210.459607
1210.459607
1210.459595
1210.459607
1210.459701
1210.460086
1210.461255
1210.464733
1210.472358
1210.4602
1210.460186
1210.4602
1210.460181
1210.460201
1210.460204
1210.46023
1210.460214
1210.460241
1210.460242
1210.460304
1210.460464
1210.461016
1210.462422
1210.465319
1210.460069
1210.460084
1210.460048
1210.460053
1210.460063
1210.460073
1210.460074
1210.46008
1210.460075
1210.460087
1210.460115
1210.460175
1210.460379
1210.460879
1210.461876
1210.459576
1210.459594
1210.45959
1210.459607
1210.459603
1210.459605
1210.459597
1210.459588
1210.459599
1210.459613
1210.459616
1210.459664
1210.459764
1210.459979
1210.46042
1210.459798
1210.459794
1210.459767
1210.459808
1210.459808
1210.459797
1210.459794
1210.459792
1210.459798
1210.459786
1210.459806
1210.459868
1210.460052
1210.460434
1210.45977
1210.459745
1210.459748
1210.459743
1210.459756
1210.45977
1210.459755
1210.459779
1210.459764
1210.459764
1210.459801
1210.459969
1210.460388
1210.461435
1210.459641
1210.459638
1210.459634
1210.459614
1210.459608
1210.459599
1210.459571
1210.459567
1210.459586
1210.459636
1210.459739
1210.460071
1210.461262
1210.464717
1210.460314
1210.460289
1210.460284
1210.4603
1210.460271
1210.460265
1210.460266
1210.460279
1210.460272
1210.460342
1210.4605
1210.461328
1210.464522
1210.475627
1210.503985
1210.459519
1210.459505
1210.459505
1210.459514
1210.459496
1210.459494
1210.459505
1210.459497
1210.459524
1210.459585
1210.459861
1210.461213
1210.467494
1210.494843
1210.588347
1210.459616
1210.459636
1210.459628
1210.459641
1210.459634
1210.459643
1210.459656
1210.459632
1210.459644
1210.459689
1210.459901
1210.460707
1210.463884
1210.474977
1210.503328
1210.459906
1210.459879
1210.4599
1210.45993
1210.459946
1210.45992
1210.45991
1210.459925
1210.459946
1210.459985
1210.460071
1210.460425
1210.461649
1210.465117
1210.472758
1210.460279
1210.460272
1210.460272
1210.460292
1210.460285
1210.460259
1210.460296
1210.460259
1210.460257
1210.460254
1210.460307
1210.460428
1210.460843
1210.461891
1210.464023
1210.45983
1210.459844
1210.459843
1210.459853
1210.459862
1210.45987
1210.459875
1210.459864
1210.459887
1210.459904
1210.459923
1210.459966
1210.460124
1210.460506
1210.46126
1210.459556
1210.459569
1210.459568
1210.4596
1210.459598
1210.459594
1210.459585
1210.459582
1210.459605
1210.459613
1210.459638
1210.459698
1210.459876
1210.460392
1210.459918
1210.459916
1210.459929
1210.459922
1210.459921
1210.459937
1210.459941
1210.459936
1210.459938
1210.459977
1210.460045
1210.460236
1210.460806
1210.462399
1210.459576
1210.459556
1210.459547
1210.459537
1210.459554
1210.45955
1210.459553
1210.45956
1210.459581
1210.459628
1210.459755
1210.460263
1210.462191
1210.468615
1210.459764
1210.459754
1210.459769
1210.459787
1210.459769
1210.459767
1210.459765
1210.459755
1210.459764
1210.459815
1210.460125
1210.461459
1210.467753
1210.495149
1210.459599
1210.45961
1210.459617
1210.459596
1210.459603
1210.459585
1210.459609
1210.459614
1210.459606
1210.459692
1210.460176
1210.462809
1210.47853
1210.580846
1209.946433
1210.459509
1210.459517
1210.459529
1210.459535
1210.459535
1210.459535
1210.459566
1210.45957
1210.459572
1210.45962
1210.459905
1210.461225
1210.467538
1210.494928
1210.588414
1210.460242
1210.460209
1210.4602
1210.460197
1210.460183
1210.460173
1210.460195
1210.460218
1210.460251
1210.460288
1210.460432
1210.460949
1210.462873
1210.469278
1210.485294
1210.459276
1210.459298
1210.459287
1210.459295
1210.459304
1210.459297
1210.459285
1210.459285
1210.459272
1210.459279
1210.459351
1210.459527
1210.460115
1210.461685
1210.465059
1210.459744
1210.459725
1210.459726
1210.459735
1210.459735
1210.459727
1210.459754
1210.459751
1210.459756
1210.459756
1210.459764
1210.459846
1210.460068
1210.460553
1210.461566
1210.460271
1210.460285
1210.460266
1210.460277
1210.460263
1210.460255
1210.46025
1210.460267
1210.46026
1210.460252
1210.460264
1210.460322
1210.4605
1210.460861
1210.459543
1210.45954
1210.459547
1210.459548
1210.459502
1210.459515
1210.459522
1210.459493
1210.45951
1210.459534
1210.45957
1210.459678
1210.460056
1210.461104
1210.460037
1210.460045
1210.460062
1210.460066
1210.460081
1210.460094
1210.460073
1210.460071
1210.460085
1210.46008
1210.460159
1210.460491
1210.461698
1210.465189
1210.459717
1210.459697
1210.459689
1210.459668
1210.459661
1210.459673
1210.45966
1210.459696
1210.459707
1210.459751
1210.459959
1210.460779
1210.463965
1210.475047
1210.459946
1210.459944
1210.459939
1210.459935
1210.459928
1210.459926
1210.459914
1210.459904
1210.459895
1210.459975
1210.460245
1210.461596
1210.467864
1210.49524
1210.459499
1210.459502
1210.459474
1210.459477
1210.459479
1210.459493
1210.459493
1210.45949
1210.459524
1210.459554
1210.45976
1210.46057
1210.463756
1210.474854
1210.459627
1210.459642
1210.459643
1210.459624
1210.459602
1210.459587
1210.459578
1210.459574
1210.459572
1210.459583
1210.459671
1210.460045
1210.461241
1210.464707
1210.472358
1210.45983
1210.459821
1210.459797
1210.459799
1210.459766
1210.45976
1210.459729
1210.459734
1210.459708
1210.459704
1210.459742
1210.459879
1210.460267
1210.461308
1210.463426
1210.459785
1210.459789
1210.45979
1210.459786
1210.459797
1210.459785
1210.459774
1210.45977
1210.459753
1210.459766
1210.45977
1210.45982
1210.459967
1210.460327
1210.461087
1210.459637
1210.459629
1210.459637
1210.459614
1210.459633
1210.459628
1210.459651
1210.45963
1210.459653
1210.459656
1210.459655
1210.459692
1210.459791
1210.459995
1210.45932
1210.459336
1210.459321
1210.459312
1210.459328
1210.459319
1210.459296
1210.459287
1210.45928
1210.4593
1210.459301
1210.459373
1210.459583
1210.460098
1210.460299
1210.460296
1210.460279
1210.460272
1210.460259
1210.460265
1210.460261
1210.460273
1210.460288
1210.460283
1210.460331
1210.460487
1210.461026
1210.462435
1210.459638
1210.459608
1210.459591
1210.45959
1210.459573
1210.459588
1210.459575
1210.459583
1210.459563
1210.459586
1210.459687
1210.460028
1210.461213
1210.464666
1210.460007
1210.460016
1210.460008
1210.460023
1210.460034
1210.460029
1210.460041
1210.460055
1210.460075
1210.460088
1210.460206
1210.460726
1210.462699
1210.469143
1210.459487
1210.459474
1210.459476
1210.459461
1210.459482
1210.459465
1210.459466
1210.459476
1210.459468
1210.459495
1210.4596
1210.459954
1210.461128
1210.464632
1210.459854
1210.459879
1210.459882
1210.459886
1210.459893
1210.459868
1210.459894
1210.45991
1210.459917
1210.459941
1210.459977
1210.460145
1210.460656
1210.462037
1210.460177
1210.460164
1210.46018
1210.460174
1210.460179
1210.460176
1210.460175
1210.460186
1210.460175
1210.460178
1210.460191
1210.460267
1210.460471
1210.46098
1210.46202
1210.459275
1210.459292
1210.459296
1210.459295
1210.459287
1210.45928
1210.459259
1210.459264
1210.459302
1210.4593
1210.459332
1210.459381
1210.459489
1210.459693
1210.460126
1210.459943
1210.459948
1210.459949
1210.459955
1210.459955
1210.459962
1210.459933
1210.459929
1210.459936
1210.459931
1210.459966
1210.459981
1210.460018
1210.460133
1210.459978
1210.459966
1210.459955
1210.459967
1210.459975
1210.459978
1210.459992
1210.460001
1210.460003
1210.460017
1210.46001
1210.460027
1210.460143
1210.460341
1210.459391
1210.459414
1210.459372
1210.459368
1210.459353
1210.459361
1210.459351
1210.459346
1210.459333
1210.459333
1210.459363
1210.459437
1210.459639
1210.460185
1210.459901
1210.459904
1210.459915
1210.459923
1210.459926
1210.459962
1210.45994
1210.459894
1210.459907
1210.459946
1210.459998
1210.460136
1210.460535
1210.461587
1210.459582
1210.459566
1210.459566
1210.459544
1210.459549
1210.459548
1210.459566
1210.45953
1210.459523
1210.459533
1210.459593
1210.459761
1210.46033
1210.461919
1210.45995
1210.459953
1210.459934
1210.459945
1210.459974
1210.459961
1210.459953
1210.459972
1210.459967
1210.459979
1210.460021
1210.460142
1210.460535
1210.461578
1210.459397
1210.459402
1210.459415
1210.459427
1210.459418
1210.45942
1210.459406
1210.459382
1210.459383
1210.459392
1210.459413
1210.459457
1210.459647
1210.460167
1210.458671
1210.458671
1210.458708
1210.458721
1210.458733
1210.45876
1210.458764
1210.458767
1210.458783
1210.458789
1210.458784
1210.45882
1210.458921
1210.459133
1210.459671
1210.459675
1210.459676
1210.459682
1210.459685
1210.459692
1210.459689
1210.459705
1210.459716
1210.459717
1210.459735
1210.459749
1210.459795
1210.459888
1210.460118
1210.459516
1210.459511
1210.459513
1210.459507
1210.459516
1210.459501
1210.459502
1210.459519
1210.459522
1210.459539
1210.459535
1210.459562
1210.459599
1210.459684
1210.460239
1210.460237
1210.460232
1210.460234
1210.460221
1210.460207
1210.46022
1210.4602
1210.460206
1210.460189
1210.460195
1210.46021
1210.46026
1210.46036
1210.46022
1210.460241
1210.460253
1210.460254
1210.460251
1210.460266
1210.460254
1210.460264
1210.460268
1210.460259
1210.460241
1210.460251
1210.460345
1210.460565
1210.459949
1210.459951
1210.45994
1210.459927
1210.459934
1210.459915
1210.459932
1210.459915
1210.459908
1210.459902
1210.459936
1210.459991
1210.460149
1210.460548
1210.459535
1210.459556
1210.459551
1210.459555
1210.459565
1210.459582
1210.459584
1210.459597
1210.459607
1210.459608
1210.4596
1210.459672
1210.459895
1210.460392
1210.459757
1210.459757
1210.459759
1210.459745
1210.459744
1210.459754
1210.45974
1210.459732
1210.45974
1210.459757
1210.459758
1210.45983
1210.459992
1210.460382
1210.460033
1210.460043
1210.460053
1210.460031
1210.460019
1210.460052
1210.460062
1210.460061
1210.460043
1210.460034
1210.460066
1210.460096
1210.4602
1210.460446
1210.459963
1210.459957
1210.459967
1210.459972
1210.45997
1210.459964
1210.459988
1210.459983
1210.459973
1210.459972
1210.459986
1210.46
1210.460048
1210.460171
1210.459792
1210.459794
1210.459804
1210.459808
1210.459812
1210.459802
1210.459805
1210.459814
1210.459809
1210.459838
1210.459829
1210.45985
1210.459887
1210.459963
)
;

boundaryField
{
    top
    {
        type            calculated;
        value           nonuniform List<scalar> 
134
(
1210.459471
1210.460003
1210.459576
1210.45983
1210.459744
1210.459785
1210.459275
1210.459671
1210.459792
1210.459461
1210.459993
1210.459594
1210.459844
1210.459725
1210.459789
1210.459292
1210.459675
1210.459794
1210.459464
1210.459977
1210.45959
1210.459843
1210.459726
1210.45979
1210.459296
1210.459676
1210.459804
1210.459447
1210.459975
1210.459607
1210.459853
1210.459735
1210.459786
1210.459295
1210.459682
1210.459808
1210.45947
1210.459955
1210.459603
1210.459862
1210.459735
1210.459797
1210.459287
1210.459685
1210.459812
1210.459471
1210.459959
1210.459605
1210.45987
1210.459727
1210.459785
1210.45928
1210.459692
1210.459802
1210.459484
1210.459994
1210.459597
1210.459875
1210.459754
1210.459774
1210.459259
1210.459689
1210.459805
1210.459489
1210.459972
1210.459588
1210.459864
1210.459751
1210.45977
1210.459264
1210.459705
1210.459814
1210.459496
1210.459986
1210.459599
1210.459887
1210.459756
1210.459753
1210.459302
1210.459716
1210.459809
1210.459492
1210.459985
1210.459613
1210.459904
1210.459756
1210.459766
1210.4593
1210.459717
1210.459838
1210.459512
1210.459985
1210.459616
1210.459923
1210.459764
1210.45977
1210.459332
1210.459735
1210.459829
1210.459525
1210.460009
1210.459664
1210.459966
1210.459846
1210.45982
1210.459381
1210.459749
1210.45985
1210.45956
1210.460068
1210.459764
1210.460124
1210.460068
1210.459967
1210.459489
1210.459795
1210.459887
1210.459626
1210.460161
1210.459979
1210.460506
1210.460553
1210.460327
1210.459693
1210.459888
1210.459963
1210.459744
1210.460393
1210.46042
1210.46126
1210.461566
1210.461087
1210.460126
1210.460118
)
;
    }
    bottom
    {
        type            calculated;
        value           nonuniform List<scalar> 
127
(
1210.459554
1210.4598
1210.459769
1210.459798
1210.459556
1210.460271
1210.459637
1210.459943
1210.459516
1210.459556
1210.459801
1210.459786
1210.459794
1210.459569
1210.460285
1210.459629
1210.459948
1210.459511
1210.459561
1210.459798
1210.459783
1210.459767
1210.459568
1210.460266
1210.459637
1210.459949
1210.459513
1210.459541
1210.459805
1210.45976
1210.459808
1210.4596
1210.460277
1210.459614
1210.459955
1210.459507
1210.459543
1210.459809
1210.45974
1210.459808
1210.459598
1210.460263
1210.459633
1210.459955
1210.459516
1210.459544
1210.45982
1210.459744
1210.459797
1210.459594
1210.460255
1210.459628
1210.459962
1210.459501
1210.459542
1210.459829
1210.459734
1210.459794
1210.459585
1210.46025
1210.459651
1210.459933
1210.459502
1210.459551
1210.459834
1210.45974
1210.459792
1210.459582
1210.460267
1210.45963
1210.459929
1210.459519
1210.459541
1210.459811
1210.459755
1210.459798
1210.459605
1210.46026
1210.459653
1210.459936
1210.459522
1210.459553
1210.45983
1210.459765
1210.459786
1210.459613
1210.460252
1210.459656
1210.459931
1210.459539
1210.459567
1210.459838
1210.459776
1210.459806
1210.459638
1210.460264
1210.459655
1210.459966
1210.459535
1210.459583
1210.459867
1210.459825
1210.459868
1210.459698
1210.460322
1210.459692
1210.459981
1210.459562
1210.459611
1210.459899
1210.459914
1210.460052
1210.459876
1210.4605
1210.459791
1210.460018
1210.459599
1210.459659
1210.460011
1210.46014
1210.460434
1210.460392
1210.460861
1210.459995
1210.460133
1210.459684
1210.459777
)
;
    }
    side-walls
    {
        type            calculated;
        value           nonuniform List<scalar> 
261
(
1210.459554
1210.460429
1210.460056
1210.459527
1210.459646
1210.459701
1210.460216
1210.459467
1210.459471
1210.459556
1210.460415
1210.460051
1210.459506
1210.459629
1210.459697
1210.460214
1210.459449
1210.459461
1210.459561
1210.460424
1210.460057
1210.45951
1210.459615
1210.459701
1210.46021
1210.459463
1210.459464
1210.459541
1210.460408
1210.460056
1210.45952
1210.45965
1210.45971
1210.460233
1210.459491
1210.459447
1210.459543
1210.460413
1210.460046
1210.459513
1210.459648
1210.459704
1210.460247
1210.459491
1210.45947
1210.459544
1210.460416
1210.460055
1210.459509
1210.459642
1210.459709
1210.460264
1210.459504
1210.459471
1210.459542
1210.460437
1210.460057
1210.459499
1210.459661
1210.459722
1210.460253
1210.45949
1210.459484
1210.459551
1210.460425
1210.460044
1210.459507
1210.459633
1210.459732
1210.460265
1210.459512
1210.459489
1210.459541
1210.46043
1210.46008
1210.459497
1210.459645
1210.459742
1210.460222
1210.459511
1210.459496
1210.459553
1210.460455
1210.460098
1210.459489
1210.459639
1210.459743
1210.460219
1210.459509
1210.459492
1210.459567
1210.460461
1210.460073
1210.459509
1210.45967
1210.459747
1210.460245
1210.459523
1210.459512
1210.459583
1210.46047
1210.46012
1210.459591
1210.459724
1210.459786
1210.460267
1210.459544
1210.459525
1210.459611
1210.460525
1210.460212
1210.459743
1210.459952
1210.459952
1210.460383
1210.459587
1210.45956
1210.459659
1210.460655
1210.460437
1210.460129
1210.460439
1210.460331
1210.460604
1210.459667
1210.459626
1210.459777
1210.460862
1210.460862
1210.460912
1210.46146
1210.461124
1210.461039
1210.459891
1210.459744
1210.459516
1210.460239
1210.46022
1210.459949
1210.459535
1210.459757
1210.460033
1210.459963
1210.459792
1210.459511
1210.460237
1210.460241
1210.459951
1210.459556
1210.459757
1210.460043
1210.459957
1210.459794
1210.459513
1210.460232
1210.460253
1210.45994
1210.459551
1210.459759
1210.460053
1210.459967
1210.459804
1210.459507
1210.460234
1210.460254
1210.459927
1210.459555
1210.459745
1210.460031
1210.459972
1210.459808
1210.459516
1210.460221
1210.460251
1210.459934
1210.459565
1210.459744
1210.460019
1210.45997
1210.459812
1210.459501
1210.460207
1210.460266
1210.459915
1210.459582
1210.459754
1210.460052
1210.459964
1210.459802
1210.459502
1210.46022
1210.460254
1210.459932
1210.459584
1210.45974
1210.460062
1210.459988
1210.459805
1210.459519
1210.4602
1210.460264
1210.459915
1210.459597
1210.459732
1210.460061
1210.459983
1210.459814
1210.459522
1210.460206
1210.460268
1210.459908
1210.459607
1210.45974
1210.460043
1210.459973
1210.459809
1210.459539
1210.460189
1210.460259
1210.459902
1210.459608
1210.459757
1210.460034
1210.459972
1210.459838
1210.459535
1210.460195
1210.460241
1210.459936
1210.4596
1210.459758
1210.460066
1210.459986
1210.459829
1210.459562
1210.46021
1210.460251
1210.459991
1210.459672
1210.45983
1210.460096
1210.46
1210.45985
1210.459599
1210.46026
1210.460345
1210.460149
1210.459895
1210.459992
1210.4602
1210.460048
1210.459887
1210.459684
1210.46036
1210.460565
1210.460548
1210.460392
1210.460382
1210.460446
1210.460171
1210.459963
)
;
    }
    inlet
    {
        type            calculated;
        value           nonuniform List<scalar> 
81
(
1210.459554
1210.460429
1210.460056
1210.459527
1210.459646
1210.459701
1210.460216
1210.459467
1210.459471
1210.4598
1210.459104
1210.459523
1210.459552
1210.460807
1210.459975
1210.45981
1210.45972
1210.460003
1210.459769
1210.460394
1210.459508
1210.46026
1210.460141
1210.459588
1210.4602
1210.460069
1210.459576
1210.459798
1210.45977
1210.459641
1210.460314
1210.459519
1210.459616
1210.459906
1210.460279
1210.45983
1210.459556
1210.459918
1210.459576
1210.459764
1210.459599
1210.459509
1210.460242
1210.459276
1210.459744
1210.460271
1210.459543
1210.460037
1210.459717
1210.459946
1210.459499
1210.459627
1210.45983
1210.459785
1210.459637
1210.45932
1210.460299
1210.459638
1210.460007
1210.459487
1210.459854
1210.460177
1210.459275
1210.459943
1210.459978
1210.459391
1210.459901
1210.459582
1210.45995
1210.459397
1210.458671
1210.459671
1210.459516
1210.460239
1210.46022
1210.459949
1210.459535
1210.459757
1210.460033
1210.459963
1210.459792
)
;
    }
    outlet
    {
        type            calculated;
        value           nonuniform 0();
    }
    procBoundary0to1
    {
        type            processor;
        value           nonuniform List<scalar> 
97
(
1210.459985
1210.460227
1210.461232
1210.461549
1210.46209
1210.462948
1210.462295
1210.46175
1210.460276
1210.459971
1210.460227
1210.460227
1210.460594
1210.462134
1210.462914
1210.466277
1210.470595
1210.466636
1210.463178
1210.461244
1210.460766
1210.460604
1210.462134
1210.462134
1210.468389
1210.472362
1210.481337
1210.497253
1210.480634
1210.469124
1210.463434
1210.46114
1210.461179
1210.463562
1210.472362
1210.472362
1210.523189
1210.588662
1210.60301
1210.522573
1210.481059
1210.466942
1210.462443
1210.461411
1210.465758
1210.484617
1210.588662
1210.588662
1209.606274
1210.588736
1210.603058
1210.5032
1210.497298
1210.469091
1210.463075
1210.461621
1210.463247
1210.472816
1210.503401
1210.588736
1210.5032
1210.5032
1210.480641
1210.464896
1210.46633
1210.462285
1210.460415
1210.461144
1210.465285
1210.472289
1210.485167
1210.472244
1210.464896
1210.464896
1210.463549
1210.459578
1210.460827
1210.460361
1210.460778
1210.461204
1210.463748
1210.465308
1210.463751
1210.46122
1210.459578
1210.459578
1210.460512
1210.460066
1210.459807
1210.460577
1210.461008
1210.461328
1210.461394
1210.461143
1210.460879
1210.460379
1210.460066
)
;
    }
}


// ************************************************************************* //
