/*--------------------------------*- C++ -*----------------------------------*\
| =========                 |                                                 |
| \\      /  F ield         | OpenFOAM: The Open Source CFD Toolbox           |
|  \\    /   O peration     | Version:  4.x                                   |
|   \\  /    A nd           | Web:      www.OpenFOAM.org                      |
|    \\/     M anipulation  |                                                 |
\*---------------------------------------------------------------------------*/
FoamFile
{
    version     2.0;
    format      ascii;
    class       volScalarField;
    location    "3000";
    object      N2;
}
// * * * * * * * * * * * * * * * * * * * * * * * * * * * * * * * * * * * * * //

dimensions      [0 0 0 0 0 0 0];

internalField   nonuniform List<scalar> 
1175
(
0.5999999995
0.5999999995
0.5999999995
0.5999999995
0.5999999995
0.5999999994
0.5999999992
0.5999999986
0.5999999968
0.5999999913
0.5999999756
0.5999999338
0.5999998317
0.5999996061
0.5999991615
0.5999999995
0.5999999995
0.5999999995
0.5999999995
0.5999999995
0.5999999994
0.5999999991
0.5999999983
0.5999999957
0.5999999873
0.5999999626
0.5999998942
0.5999997212
0.5999993304
0.5999985606
0.5999999995
0.5999999995
0.5999999995
0.5999999995
0.5999999994
0.5999999993
0.599999999
0.5999999978
0.5999999936
0.5999999797
0.5999999368
0.5999998123
0.5999994843
0.5999987216
0.5999972152
0.5999999995
0.5999999995
0.5999999995
0.5999999995
0.5999999994
0.5999999993
0.5999999988
0.5999999972
0.5999999912
0.5999999708
0.5999999047
0.5999997046
0.5999991541
0.5999978295
0.5999951943
0.5999999995
0.5999999995
0.5999999995
0.5999999995
0.5999999994
0.5999999993
0.5999999988
0.5999999969
0.59999999
0.5999999661
0.5999998867
0.5999996395
0.5999989369
0.5999971925
0.5999936777
0.5999999995
0.5999999995
0.5999999995
0.5999999995
0.5999999994
0.5999999993
0.5999999988
0.5999999972
0.5999999912
0.5999999708
0.5999999047
0.5999997046
0.5999991541
0.5999978296
0.5999951945
0.5999999995
0.5999999995
0.5999999995
0.5999999995
0.5999999994
0.5999999993
0.599999999
0.5999999978
0.5999999936
0.5999999797
0.5999999368
0.5999998123
0.5999994844
0.5999987217
0.5999972155
0.5999999995
0.5999999995
0.5999999995
0.5999999995
0.5999999995
0.5999999994
0.5999999991
0.5999999983
0.5999999957
0.5999999873
0.5999999626
0.5999998942
0.5999997212
0.5999993306
0.5999985609
0.5999999995
0.5999999995
0.5999999995
0.5999999995
0.5999999995
0.5999999994
0.5999999992
0.5999999986
0.5999999968
0.5999999913
0.5999999756
0.5999999338
0.5999998318
0.5999996062
0.5999991618
0.5999999995
0.5999999995
0.5999999995
0.5999999995
0.5999999995
0.5999999994
0.5999999991
0.5999999983
0.5999999957
0.5999999873
0.5999999626
0.5999998941
0.5999997211
0.5999993302
0.5999999995
0.5999999995
0.5999999995
0.5999999995
0.5999999994
0.5999999994
0.599999999
0.5999999978
0.5999999937
0.5999999801
0.5999999375
0.5999998132
0.5999994825
0.5999987087
0.599997179
0.5999999995
0.5999999995
0.5999999995
0.5999999995
0.5999999994
0.5999999993
0.5999999988
0.5999999969
0.5999999899
0.5999999655
0.5999998839
0.5999996295
0.5999989106
0.5999971452
0.5999936188
0.5999999995
0.5999999995
0.5999999995
0.5999999995
0.5999999994
0.5999999992
0.5999999985
0.5999999958
0.5999999853
0.5999999466
0.5999998094
0.5999993532
0.5999979726
0.5999943667
0.599986984
0.5999999995
0.5999999995
0.5999999995
0.5999999995
0.5999999994
0.5999999992
0.5999999984
0.5999999952
0.5999999828
0.5999999355
0.5999997615
0.5999991538
0.5999972004
0.5999917455
0.599980057
0.5999999995
0.5999999995
0.5999999995
0.5999999995
0.5999999994
0.5999999992
0.5999999985
0.5999999958
0.5999999853
0.5999999465
0.5999998094
0.5999993533
0.5999979726
0.5999943671
0.5999869851
0.5999999995
0.5999999995
0.5999999995
0.5999999995
0.5999999994
0.5999999993
0.5999999988
0.5999999969
0.5999999899
0.5999999655
0.5999998839
0.5999996296
0.5999989107
0.5999971457
0.5999936201
0.5999999995
0.5999999995
0.5999999995
0.5999999995
0.5999999994
0.5999999994
0.599999999
0.5999999978
0.5999999937
0.5999999801
0.5999999376
0.5999998132
0.5999994826
0.5999987092
0.5999971802
0.5999999995
0.5999999995
0.5999999995
0.5999999995
0.5999999995
0.5999999994
0.5999999991
0.5999999983
0.5999999957
0.5999999873
0.5999999626
0.5999998942
0.5999997212
0.5999993305
0.5999985609
0.5999999995
0.5999999995
0.5999999995
0.5999999995
0.5999999994
0.5999999993
0.599999999
0.5999999978
0.5999999936
0.5999999797
0.5999999367
0.5999998123
0.5999994841
0.5999987209
0.5999999995
0.5999999995
0.5999999995
0.5999999995
0.5999999994
0.5999999993
0.5999999988
0.5999999969
0.5999999899
0.5999999654
0.5999998838
0.5999996295
0.5999989103
0.5999971441
0.5999999995
0.5999999995
0.5999999995
0.5999999995
0.5999999994
0.5999999992
0.5999999984
0.5999999951
0.5999999824
0.5999999342
0.5999997601
0.5999991692
0.5999973479
0.5999925252
0.599982609
0.5999999995
0.5999999995
0.5999999995
0.5999999995
0.5999999994
0.5999999991
0.5999999979
0.5999999929
0.5999999725
0.5999998899
0.5999995667
0.5999983659
0.5999942717
0.599982255
0.599955889
0.5999999995
0.5999999995
0.5999999995
0.5999999995
0.5999999994
0.5999999991
0.5999999977
0.5999999918
0.5999999667
0.5999998607
0.5999994209
0.5999976559
0.5999909975
0.5999688095
0.5999135529
0.5999999995
0.5999999995
0.5999999995
0.5999999995
0.5999999994
0.5999999991
0.5999999979
0.5999999929
0.5999999725
0.5999998899
0.5999995667
0.599998366
0.5999942722
0.5999822571
0.5999558957
0.5999999995
0.5999999995
0.5999999995
0.5999999995
0.5999999994
0.5999999992
0.5999999984
0.5999999951
0.5999999824
0.5999999342
0.5999997602
0.5999991693
0.5999973484
0.5999925274
0.599982616
0.5999999995
0.5999999995
0.5999999995
0.5999999995
0.5999999994
0.5999999993
0.5999999988
0.5999999969
0.5999999899
0.5999999655
0.5999998839
0.5999996296
0.5999989107
0.5999971456
0.5999936201
0.5999999995
0.5999999995
0.5999999995
0.5999999995
0.5999999994
0.5999999993
0.599999999
0.5999999978
0.5999999936
0.5999999797
0.5999999368
0.5999998123
0.5999994843
0.5999987217
0.5999972154
0.5999999995
0.5999999995
0.5999999995
0.5999999995
0.5999999994
0.5999999993
0.5999999988
0.5999999972
0.5999999912
0.5999999708
0.5999999046
0.5999997045
0.5999991537
0.5999978282
0.5999999995
0.5999999995
0.5999999995
0.5999999995
0.5999999994
0.5999999992
0.5999999985
0.5999999958
0.5999999853
0.5999999465
0.5999998093
0.599999353
0.5999979717
0.5999943637
0.5999999995
0.5999999995
0.5999999995
0.5999999995
0.5999999994
0.5999999991
0.5999999979
0.5999999929
0.5999999725
0.5999998899
0.5999995666
0.5999983656
0.5999942703
0.5999822479
0.5999999995
0.5999999995
0.5999999995
0.5999999994
0.5999999994
0.599999999
0.5999999972
0.5999999893
0.5999999545
0.5999998012
0.5999991366
0.5999963433
0.5999853169
0.5999470491
0.5998491927
0.5999999995
0.5999999995
0.5999999995
0.5999999994
0.5999999993
0.5999999989
0.5999999968
0.5999999872
0.5999999427
0.5999997344
0.59999875
0.5999940922
0.5999724291
0.5998780533
0.5995503931
0.5999999995
0.5999999995
0.5999999995
0.5999999994
0.5999999994
0.599999999
0.5999999972
0.5999999893
0.5999999545
0.5999998012
0.5999991366
0.5999963436
0.5999853188
0.5999470598
0.5998492408
0.5999999995
0.5999999995
0.5999999995
0.5999999995
0.5999999994
0.5999999991
0.5999999979
0.5999999929
0.5999999725
0.5999998899
0.5999995666
0.5999983659
0.5999942718
0.5999822564
0.5999558952
0.5999999995
0.5999999995
0.5999999995
0.5999999995
0.5999999994
0.5999999992
0.5999999985
0.5999999958
0.5999999853
0.5999999465
0.5999998094
0.5999993532
0.5999979725
0.5999943668
0.5999869848
0.5999999995
0.5999999995
0.5999999995
0.5999999995
0.5999999994
0.5999999993
0.5999999988
0.5999999972
0.5999999912
0.5999999708
0.5999999046
0.5999997046
0.5999991541
0.5999978294
0.5999951944
0.5999999995
0.5999999995
0.5999999995
0.5999999995
0.5999999994
0.5999999993
0.5999999988
0.5999999969
0.59999999
0.5999999661
0.5999998867
0.5999996394
0.5999989363
0.5999971907
0.5999999995
0.5999999995
0.5999999995
0.5999999995
0.5999999994
0.5999999992
0.5999999984
0.5999999952
0.5999999828
0.5999999355
0.5999997615
0.5999991535
0.599997199
0.5999917402
0.5999999995
0.5999999995
0.5999999995
0.5999999995
0.5999999994
0.5999999991
0.5999999977
0.5999999918
0.5999999667
0.5999998606
0.5999994207
0.5999976551
0.5999909935
0.5999687907
0.5999999995
0.5999999995
0.5999999995
0.5999999994
0.5999999993
0.5999999989
0.5999999968
0.5999999872
0.5999999427
0.5999997344
0.5999987498
0.599994091
0.5999724207
0.599877996
0.5999999995
0.5999999995
0.5999999995
0.5999999994
0.5999999993
0.5999999988
0.5999999963
0.5999999844
0.5999999257
0.5999996272
0.5999980346
0.5999890409
0.5999347442
0.5995820059
0.5971012438
0.5999999995
0.5999999995
0.5999999995
0.5999999994
0.5999999993
0.5999999989
0.5999999968
0.5999999872
0.5999999427
0.5999997344
0.5999987499
0.5999940916
0.5999724261
0.5998780426
0.5995503835
0.5999999995
0.5999999995
0.5999999995
0.5999999995
0.5999999994
0.5999999991
0.5999999977
0.5999999918
0.5999999667
0.5999998606
0.5999994208
0.5999976555
0.5999909962
0.5999688062
0.5999135505
0.5999999995
0.5999999995
0.5999999995
0.5999999995
0.5999999994
0.5999999992
0.5999999984
0.5999999952
0.5999999828
0.5999999355
0.5999997615
0.5999991537
0.5999972
0.5999917447
0.5999800564
0.5999999995
0.5999999995
0.5999999995
0.5999999995
0.5999999994
0.5999999993
0.5999999988
0.5999999969
0.59999999
0.5999999661
0.5999998867
0.5999996395
0.5999989367
0.5999971922
0.5999936774
0.5999999995
0.5999999995
0.5999999995
0.5999999995
0.5999999994
0.5999999993
0.5999999988
0.5999999972
0.5999999912
0.5999999708
0.5999999046
0.5999997044
0.5999991536
0.5999978281
0.5999999995
0.5999999995
0.5999999995
0.5999999995
0.5999999994
0.5999999992
0.5999999985
0.5999999958
0.5999999853
0.5999999465
0.5999998093
0.5999993529
0.5999979715
0.5999943634
0.5999999995
0.5999999995
0.5999999995
0.5999999995
0.5999999994
0.5999999991
0.5999999979
0.5999999929
0.5999999725
0.5999998899
0.5999995665
0.5999983653
0.5999942692
0.5999822458
0.5999999995
0.5999999995
0.5999999995
0.5999999994
0.5999999994
0.599999999
0.5999999972
0.5999999893
0.5999999545
0.5999998012
0.5999991364
0.5999963423
0.5999853124
0.5999470294
0.5999999995
0.5999999995
0.5999999995
0.5999999994
0.5999999993
0.5999999989
0.5999999968
0.5999999872
0.5999999427
0.5999997343
0.5999987497
0.5999940904
0.599972418
0.5998779871
0.5999999995
0.5999999995
0.5999999995
0.5999999994
0.5999999994
0.599999999
0.5999999972
0.5999999893
0.5999999545
0.5999998012
0.5999991364
0.5999963426
0.5999853138
0.5999470353
0.5999999995
0.5999999995
0.5999999995
0.5999999995
0.5999999994
0.5999999991
0.5999999979
0.5999999929
0.5999999725
0.5999998899
0.5999995666
0.5999983655
0.5999942704
0.5999822512
0.5999558785
0.5999999995
0.5999999995
0.5999999995
0.5999999995
0.5999999994
0.5999999992
0.5999999985
0.5999999958
0.5999999853
0.5999999465
0.5999998093
0.5999993531
0.5999979721
0.5999943657
0.5999869824
0.5999999995
0.5999999995
0.5999999995
0.5999999995
0.5999999994
0.5999999993
0.5999999988
0.5999999972
0.5999999912
0.5999999708
0.5999999046
0.5999997045
0.5999991539
0.5999978292
0.5999951938
0.5999999995
0.5999999995
0.5999999995
0.5999999995
0.5999999994
0.5999999993
0.599999999
0.5999999978
0.5999999936
0.5999999797
0.5999999367
0.5999998122
0.5999994841
0.5999987209
0.5999999995
0.5999999995
0.5999999995
0.5999999995
0.5999999994
0.5999999993
0.5999999988
0.5999999969
0.5999999899
0.5999999654
0.5999998838
0.5999996294
0.5999989101
0.5999971438
0.5999999995
0.5999999995
0.5999999995
0.5999999995
0.5999999994
0.5999999992
0.5999999984
0.5999999951
0.5999999823
0.5999999342
0.5999997601
0.5999991689
0.5999973469
0.5999925226
0.5999999995
0.5999999995
0.5999999995
0.5999999995
0.5999999994
0.5999999991
0.5999999979
0.5999999929
0.5999999725
0.5999998898
0.5999995665
0.5999983652
0.599994269
0.5999822457
0.5999999995
0.5999999995
0.5999999995
0.5999999995
0.5999999994
0.5999999991
0.5999999977
0.5999999918
0.5999999667
0.5999998606
0.5999994206
0.5999976548
0.5999909926
0.5999687895
0.5999999995
0.5999999995
0.5999999995
0.5999999995
0.5999999994
0.5999999991
0.5999999979
0.5999999929
0.5999999725
0.5999998898
0.5999995665
0.5999983653
0.5999942694
0.5999822469
0.5999999995
0.5999999995
0.5999999995
0.5999999995
0.5999999994
0.5999999992
0.5999999984
0.5999999951
0.5999999823
0.5999999342
0.5999997601
0.599999169
0.5999973472
0.5999925233
0.5999999995
0.5999999995
0.5999999995
0.5999999995
0.5999999994
0.5999999993
0.5999999988
0.5999999969
0.5999999899
0.5999999654
0.5999998838
0.5999996294
0.5999989103
0.5999971446
0.5999936173
0.5999999995
0.5999999995
0.5999999995
0.5999999995
0.5999999994
0.5999999993
0.599999999
0.5999999978
0.5999999936
0.5999999797
0.5999999367
0.5999998123
0.5999994842
0.5999987213
0.5999972148
0.5999999995
0.5999999995
0.5999999995
0.5999999995
0.5999999995
0.5999999994
0.5999999991
0.5999999983
0.5999999957
0.5999999873
0.5999999626
0.5999998941
0.5999997211
0.5999993301
0.5999999995
0.5999999995
0.5999999995
0.5999999995
0.5999999994
0.5999999994
0.599999999
0.5999999978
0.5999999937
0.5999999801
0.5999999375
0.5999998131
0.5999994823
0.5999987083
0.5999999995
0.5999999995
0.5999999995
0.5999999995
0.5999999994
0.5999999993
0.5999999988
0.5999999969
0.5999999899
0.5999999654
0.5999998838
0.5999996294
0.59999891
0.5999971438
0.5999999995
0.5999999995
0.5999999995
0.5999999995
0.5999999994
0.5999999992
0.5999999985
0.5999999958
0.5999999853
0.5999999465
0.5999998093
0.5999993529
0.5999979714
0.5999943633
0.5999999995
0.5999999995
0.5999999995
0.5999999995
0.5999999994
0.5999999992
0.5999999984
0.5999999952
0.5999999828
0.5999999355
0.5999997614
0.5999991534
0.5999971987
0.5999917401
0.5999999995
0.5999999995
0.5999999995
0.5999999995
0.5999999994
0.5999999992
0.5999999985
0.5999999958
0.5999999853
0.5999999465
0.5999998093
0.5999993529
0.5999979715
0.5999943636
0.5999999995
0.5999999995
0.5999999995
0.5999999995
0.5999999994
0.5999999993
0.5999999988
0.5999999969
0.5999999899
0.5999999654
0.5999998838
0.5999996294
0.5999989101
0.599997144
0.5999999995
0.5999999995
0.5999999995
0.5999999995
0.5999999994
0.5999999994
0.599999999
0.5999999978
0.5999999937
0.5999999801
0.5999999375
0.5999998131
0.5999994824
0.5999987084
0.5999999995
0.5999999995
0.5999999995
0.5999999995
0.5999999995
0.5999999994
0.5999999991
0.5999999983
0.5999999957
0.5999999873
0.5999999626
0.5999998941
0.5999997211
0.5999993303
0.5999985603
0.5999999995
0.5999999995
0.5999999995
0.5999999995
0.5999999995
0.5999999994
0.5999999992
0.5999999986
0.5999999968
0.5999999913
0.5999999756
0.5999999338
0.5999998317
0.5999996059
0.5999999995
0.5999999995
0.5999999995
0.5999999995
0.5999999995
0.5999999994
0.5999999991
0.5999999983
0.5999999957
0.5999999873
0.5999999626
0.5999998941
0.5999997211
0.5999993301
0.5999999995
0.5999999995
0.5999999995
0.5999999995
0.5999999994
0.5999999993
0.599999999
0.5999999978
0.5999999936
0.5999999797
0.5999999367
0.5999998122
0.599999484
0.5999987209
0.5999999995
0.5999999995
0.5999999995
0.5999999995
0.5999999994
0.5999999993
0.5999999988
0.5999999972
0.5999999912
0.5999999708
0.5999999046
0.5999997044
0.5999991536
0.5999978281
0.5999999995
0.5999999995
0.5999999995
0.5999999995
0.5999999994
0.5999999993
0.5999999988
0.5999999969
0.59999999
0.5999999661
0.5999998867
0.5999996393
0.5999989362
0.5999971906
0.5999999995
0.5999999995
0.5999999995
0.5999999995
0.5999999994
0.5999999993
0.5999999988
0.5999999972
0.5999999912
0.5999999708
0.5999999046
0.5999997044
0.5999991536
0.5999978282
0.5999999995
0.5999999995
0.5999999995
0.5999999995
0.5999999994
0.5999999993
0.599999999
0.5999999978
0.5999999936
0.5999999797
0.5999999367
0.5999998122
0.5999994841
0.5999987209
0.5999999995
0.5999999995
0.5999999995
0.5999999995
0.5999999995
0.5999999994
0.5999999991
0.5999999983
0.5999999957
0.5999999873
0.5999999626
0.5999998941
0.5999997211
0.5999993301
0.5999999995
0.5999999995
0.5999999995
0.5999999995
0.5999999995
0.5999999994
0.5999999992
0.5999999986
0.5999999968
0.5999999913
0.5999999756
0.5999999338
0.5999998317
0.5999996059
)
;

boundaryField
{
    top
    {
        type            zeroGradient;
    }
    bottom
    {
        type            zeroGradient;
    }
    side-walls
    {
        type            zeroGradient;
    }
    inlet
    {
        type            zeroGradient;
    }
    outlet
    {
        type            zeroGradient;
    }
    procBoundary0to1
    {
        type            processor;
        value           nonuniform List<scalar> 
97
(
0.5999983878
0.5999985603
0.5999972583
0.5999947632
0.5999911069
0.5999884957
0.5999911071
0.5999947635
0.5999972586
0.599998388
0.5999985603
0.5999985603
0.5999947113
0.5999936172
0.599988303
0.5999769134
0.5999661655
0.5999769145
0.5999883042
0.599994712
0.5999972586
0.5999972147
0.5999936172
0.5999936172
0.5999693706
0.5999558754
0.5999272615
0.5998721036
0.5999272666
0.5999693741
0.5999883041
0.5999947634
0.5999951934
0.5999869811
0.5999558754
0.5999558754
0.599782891
0.5995501919
0.5994995876
0.5997829089
0.599927266
0.5999769142
0.5999911069
0.5999936763
0.5999800517
0.5999135239
0.5995501919
0.5995501919
0.5982782826
0.5995501964
0.5994995868
0.5998491892
0.599872102
0.5999661648
0.5999884954
0.5999951934
0.5999869819
0.5999558837
0.5998491949
0.5995501964
0.5998491892
0.5998491892
0.5999272616
0.5999826089
0.5999769125
0.5999911064
0.5999972149
0.5999936187
0.5999826117
0.5999558836
0.5999135239
0.599955884
0.5999826089
0.5999826089
0.599988303
0.599997179
0.5999947629
0.5999985606
0.5999971796
0.5999936186
0.5999869818
0.5999800517
0.5999869822
0.5999936185
0.599997179
0.599997179
0.5999972582
0.5999991615
0.5999991616
0.5999985606
0.5999972148
0.5999951934
0.5999936762
0.5999951935
0.5999972149
0.5999985605
0.5999991615
)
;
    }
}


// ************************************************************************* //
