/*--------------------------------*- C++ -*----------------------------------*\
| =========                 |                                                 |
| \\      /  F ield         | OpenFOAM: The Open Source CFD Toolbox           |
|  \\    /   O peration     | Version:  4.x                                   |
|   \\  /    A nd           | Web:      www.OpenFOAM.org                      |
|    \\/     M anipulation  |                                                 |
\*---------------------------------------------------------------------------*/
FoamFile
{
    version     2.0;
    format      ascii;
    class       surfaceScalarField;
    location    "3000";
    object      phi;
}
// * * * * * * * * * * * * * * * * * * * * * * * * * * * * * * * * * * * * * //

dimensions      [1 0 -1 0 0 0 0];

internalField   nonuniform List<scalar> 
3175
(
9.475348279e-06
5.477837922e-13
-9.971213184e-13
9.475348844e-06
4.514890139e-13
-1.053846718e-12
9.475346138e-06
1.088977436e-12
8.227899296e-13
9.475347748e-06
4.8243869e-13
6.598197338e-13
9.475349503e-06
1.371101951e-12
1.598088018e-12
9.475346764e-06
-5.538363415e-13
6.790408165e-13
9.475348671e-06
-2.482447297e-13
1.063677749e-12
9.475347824e-06
-8.591606441e-13
-3.077154802e-13
9.475350339e-06
1.009976047e-13
-6.049585501e-13
9.475351076e-06
-8.082399622e-13
-2.250092403e-12
9.475357725e-06
-4.025430539e-12
-4.893653234e-12
9.475365032e-06
-4.22833916e-12
-5.091919698e-12
9.47540166e-06
-1.641914383e-11
-1.762684177e-11
9.475426422e-06
-1.280814387e-11
-1.234847499e-11
-5.424362256e-11
9.475302595e-06
6.356797109e-13
-5.161438667e-13
9.475302813e-06
-2.981389625e-13
-7.694320293e-13
9.475302219e-06
-1.216752314e-12
-1.050306609e-12
9.475302946e-06
9.155309591e-13
-3.850233379e-13
9.475302451e-06
6.566105793e-13
-2.790703961e-13
9.475300764e-06
-7.968912625e-13
-4.896795792e-13
9.475300698e-06
2.933575629e-13
-7.019822714e-13
9.475298139e-06
-7.983746891e-13
2.156821348e-13
9.475300265e-06
-6.892739246e-13
-4.161283017e-13
9.475301816e-06
-2.179587492e-12
1.650866239e-13
9.475306038e-06
-6.348465146e-12
-3.317918606e-12
9.475313559e-06
-7.219070858e-12
-3.161903789e-12
9.475344588e-06
-2.917765402e-11
-1.880904628e-11
9.475366963e-06
-2.377320659e-11
-1.01863127e-11
-1.085757429e-10
-8.422016286e-11
9.475322115e-06
8.635387345e-13
6.191648634e-13
9.475321676e-06
1.175826108e-12
5.807902342e-13
9.475323185e-06
7.03763489e-13
-3.056892109e-13
9.475320528e-06
-3.808596668e-13
-2.233766095e-13
9.475319226e-06
-4.620628251e-13
-1.771091575e-13
9.475322307e-06
6.564441409e-13
-4.855046352e-14
9.475319488e-06
-6.800016789e-13
-1.065099159e-12
9.475318048e-06
1.350002479e-12
1.058109089e-12
9.475316796e-06
5.278133699e-13
-7.305963866e-13
9.475317503e-06
-1.37065669e-12
9.807245487e-13
9.475317083e-06
-3.218130881e-12
-3.758765127e-12
9.475317137e-06
-2.966324502e-12
-3.921130212e-12
9.475340257e-06
-2.644252138e-11
-2.701597719e-11
9.475350171e-06
-1.753162839e-11
-1.422618439e-11
-1.32701732e-10
-1.851078405e-10
9.475349023e-06
-2.869424814e-13
-8.641892808e-13
9.475349745e-06
2.759326813e-13
2.231973071e-13
9.475349817e-06
7.604547526e-13
-2.963146904e-15
9.47534903e-06
3.781393352e-13
-5.088637963e-13
9.475347927e-06
5.534156235e-13
5.226426628e-13
9.475349468e-06
4.06885077e-13
-1.619126451e-13
9.475348868e-06
6.228673665e-13
-3.441077776e-13
9.475347578e-06
1.422266787e-13
-1.163227662e-12
9.475347743e-06
4.244501934e-14
-3.41732665e-14
9.475347719e-06
-5.583951181e-13
1.274260912e-12
9.475343994e-06
-3.421549088e-12
1.31163557e-12
9.475341353e-06
-7.582239066e-12
2.882263319e-13
9.475360223e-06
-2.521175156e-11
-1.586576861e-11
9.475370021e-06
-2.843444445e-11
-2.036472447e-12
-1.265624094e-10
-2.862959728e-10
9.475343307e-06
-2.907962503e-13
-1.164404971e-12
9.475344429e-06
-8.048414782e-13
-3.723554798e-13
9.47534262e-06
-9.66435636e-13
-1.168149542e-12
9.475343505e-06
-1.783441025e-13
8.637221727e-13
9.475341271e-06
9.596586282e-13
-6.574087557e-13
9.475342656e-06
7.278346488e-13
-1.056157365e-13
9.475340222e-06
1.135834034e-12
8.070484235e-14
9.475342697e-06
1.561738395e-12
6.612953836e-13
9.47533781e-06
3.997263918e-13
1.703768433e-12
9.475335097e-06
2.017269827e-12
2.749116114e-12
9.475321497e-06
4.745371784e-12
3.423822512e-12
9.475306966e-06
7.223523428e-12
1.612354599e-12
9.47529055e-06
2.617450194e-11
-3.85591199e-11
9.47526234e-06
2.825109741e-11
-2.721247713e-11
1.264344125e-10
-7.156421564e-10
9.475340843e-06
1.997214209e-12
2.936224928e-13
9.475340094e-06
1.305578938e-12
1.159254455e-12
9.475340412e-06
1.22015849e-12
9.818168017e-13
9.47534153e-06
1.658231755e-13
1.653415951e-12
9.475339178e-06
-9.570645642e-14
4.621106106e-13
9.475340757e-06
1.706820188e-12
2.955919924e-13
9.475338649e-06
2.341591105e-14
9.135377271e-13
9.475336093e-06
3.317400499e-14
-2.561546419e-13
9.475334839e-06
1.089921177e-12
2.27537146e-13
9.475334758e-06
1.751441049e-12
1.361707679e-12
9.475331714e-06
5.070746868e-12
3.531237634e-12
9.475330932e-06
3.626126791e-12
2.255577095e-12
9.475347151e-06
2.720681563e-11
-1.485463051e-11
9.475358945e-06
1.858337711e-11
-1.656719857e-12
1.341237171e-10
-2.867037305e-10
9.475313105e-06
1.304328589e-12
-3.418591224e-13
9.475313355e-06
6.434004967e-13
1.293614025e-12
9.475312353e-06
1.09250897e-12
2.595862697e-13
9.475313711e-06
6.57231888e-13
8.735826357e-13
9.475312795e-06
2.386390586e-13
1.039041223e-12
9.475311123e-06
-9.718711997e-13
-9.68327582e-13
9.475309087e-06
7.073362817e-14
-1.974397985e-13
9.475310698e-06
-1.020631095e-13
-2.984979223e-13
9.475309824e-06
5.155417602e-13
-8.032591952e-13
9.4753093e-06
1.477027886e-12
-8.44635381e-13
9.475305065e-06
3.933597315e-12
-2.613988814e-12
9.475309177e-06
7.59076509e-12
-1.549895545e-12
9.475329624e-06
2.942847521e-11
-2.477240282e-11
9.475339652e-06
2.31082879e-11
-1.433859754e-11
1.080096093e-10
-1.848998715e-10
9.475351628e-06
6.337541985e-13
-2.37451971e-13
9.475352896e-06
-1.52612441e-13
1.088106674e-12
9.475350838e-06
-8.591839554e-13
-1.021870262e-12
9.475352228e-06
-6.71882808e-13
-2.41428686e-13
9.475350972e-06
6.823903115e-13
2.16447471e-13
9.475351315e-06
-6.465259458e-13
-6.670537608e-13
9.475349521e-06
6.137889167e-14
3.091339522e-13
9.475350686e-06
6.344029639e-13
1.523748916e-12
9.475350468e-06
-6.85560992e-13
5.032323791e-13
9.475350246e-06
1.504338466e-12
-3.507705469e-13
9.475354659e-06
5.020947023e-12
-2.314311646e-12
9.475361455e-06
4.92742709e-12
-1.985499331e-12
9.475394141e-06
1.627522816e-11
-1.792369317e-11
9.475416457e-06
1.338937188e-11
-1.01196663e-11
5.409543478e-11
-8.49562482e-11
9.47535033e-06
3.424972221e-13
9.475350846e-06
1.304311766e-14
9.475352576e-06
-6.99043533e-14
9.475353184e-06
1.220693671e-12
9.475349802e-06
5.882315254e-13
9.475352668e-06
4.710841529e-13
9.475351345e-06
1.348985759e-12
9.475350046e-06
1.551797476e-12
9.475352708e-06
8.971325759e-14
9.475353647e-06
3.497675635e-13
9.475359627e-06
-2.675119657e-12
9.47536849e-06
-2.174841315e-12
9.475402464e-06
-1.761640361e-11
9.475426987e-06
-1.483354809e-11
-5.44888661e-11
9.475336335e-06
1.201667585e-12
2.448818611e-13
9.47533818e-06
9.447296293e-13
2.99494415e-13
9.475332778e-06
-2.066596572e-13
-7.342108347e-13
9.475335305e-06
7.839721828e-13
-1.65896658e-13
9.475334747e-06
-3.922146543e-13
-2.874377748e-13
9.475334485e-06
-7.701713003e-13
3.29352952e-14
9.475331321e-06
-1.420276958e-12
-8.235099257e-13
9.47533415e-06
5.519950283e-13
5.567719481e-13
9.475334821e-06
-4.084196954e-13
-6.994811856e-13
9.47533554e-06
-1.988549433e-13
-2.760456384e-12
9.475338536e-06
-2.646176827e-12
-7.269532835e-12
9.475344145e-06
-3.090114833e-12
-7.880584735e-12
9.475376666e-06
-1.805885146e-11
-2.940176815e-11
-1.017016013e-11
-2.290096605e-11
9.475371733e-06
1.751807543e-12
1.977591761e-13
9.475371806e-06
1.394510996e-12
-1.686400023e-13
9.475371726e-06
-2.317848791e-14
-1.616053181e-13
9.475370456e-06
-1.707143916e-13
-2.226969497e-14
9.475371046e-06
6.833216845e-13
-9.366553627e-13
9.47537125e-06
1.47775445e-13
-8.31047694e-13
9.475372747e-06
-6.756236289e-13
9.359147466e-13
9.475371472e-06
-1.176566071e-13
-3.634108e-13
9.47537262e-06
-1.007638727e-12
-2.916650182e-13
9.475373402e-06
-1.648445074e-13
-9.527066074e-13
9.475374055e-06
-5.009345691e-12
-5.120812048e-12
9.475378679e-06
-5.256573528e-12
-6.858047411e-12
9.475406533e-06
-3.231759752e-11
-3.273456811e-11
9.475426376e-06
-2.129788246e-11
-2.132561026e-11
-1.796478143e-10
9.475349421e-06
-1.023282111e-13
6.306108735e-13
9.475347425e-06
-4.520141234e-15
3.263775088e-13
9.47534898e-06
5.873862198e-13
9.863823427e-13
9.47534757e-06
-7.91662213e-14
-1.288208177e-12
9.475348068e-06
1.831278182e-12
1.002216763e-13
9.475348879e-06
4.310181285e-13
-2.291159111e-13
9.475349458e-06
2.752979072e-13
4.522540677e-13
9.47534585e-06
6.327765138e-13
-1.149085671e-13
9.475346317e-06
1.656056254e-13
1.017401224e-12
9.475342727e-06
-8.066307058e-13
-6.161959965e-14
9.475341165e-06
-1.42012981e-12
4.182730958e-14
9.475337524e-06
-1.54668761e-12
-5.13526802e-12
9.475348237e-06
-2.574232149e-11
-3.886013532e-11
9.475358051e-06
-1.20785711e-11
-2.720944898e-11
-2.563125952e-10
-4.218481734e-10
9.475348298e-06
1.139003353e-13
3.367219698e-14
9.475346636e-06
-2.206599146e-13
-8.820403085e-13
9.475347444e-06
3.399116535e-14
-1.794081026e-13
9.475347909e-06
1.440478969e-12
-7.506688806e-13
9.475344586e-06
-1.475569929e-13
-1.236306419e-12
9.475344922e-06
1.296073186e-12
-1.082498731e-12
9.475344538e-06
1.087415469e-12
-6.851692651e-13
9.475344686e-06
9.820302111e-13
1.085115684e-12
9.475344232e-06
1.053633128e-12
4.149654562e-12
9.47534169e-06
6.018731885e-13
5.557635364e-12
9.475338879e-06
-1.10185159e-12
1.128493739e-11
9.475341165e-06
-5.358865778e-12
4.189222579e-12
9.475336999e-06
-3.48691679e-11
-4.750858651e-12
9.475376856e-06
-4.062143148e-11
-1.572456738e-11
-2.624202918e-10
-6.942687115e-10
9.475281876e-06
4.539018099e-13
5.975883497e-13
9.47528166e-06
1.017474458e-12
1.778246259e-13
9.475282377e-06
4.287011066e-13
-1.539243824e-12
9.475281219e-06
9.225238338e-13
-1.756207009e-12
9.475280825e-06
1.763457772e-12
-1.254851509e-12
9.475283013e-06
7.252097171e-13
-1.950770987e-13
9.475282652e-06
1.62830619e-12
6.288068999e-13
9.475280606e-06
1.375478815e-12
3.338527311e-13
9.475277399e-06
3.215194386e-13
4.690281976e-12
9.475273918e-06
5.198268073e-13
4.656898264e-12
9.475256075e-06
3.516737405e-12
1.335680194e-11
9.475234353e-06
6.023207619e-12
4.843139238e-12
9.475154843e-06
3.544682187e-11
-3.030073524e-11
9.475120784e-06
3.91841413e-11
-7.34872653e-11
2.618054462e-10
-2.060231843e-09
9.475326112e-06
1.05435083e-12
3.121027859e-13
9.475325099e-06
2.270493958e-12
2.844673034e-14
9.475328113e-06
5.406647959e-13
6.036697122e-13
9.475325892e-06
-7.464669204e-13
3.484444516e-13
9.475324909e-06
-7.956819458e-13
-1.273445784e-12
9.475326342e-06
-1.039320925e-13
-9.599455635e-13
9.475324313e-06
6.360101765e-13
2.2576503e-14
9.475324451e-06
7.312829036e-14
5.066717498e-14
9.475324025e-06
-2.787910491e-13
2.831696337e-12
9.475325055e-06
-7.2290735e-13
3.375001905e-12
9.475318566e-06
4.372629886e-13
9.409282331e-12
9.475321175e-06
7.769625118e-13
2.604346819e-12
9.475317502e-06
2.740116513e-11
-4.9689998e-12
9.475358975e-06
1.367452345e-11
-1.487112964e-11
2.571526043e-10
-6.929623236e-10
9.475335155e-06
9.98353828e-13
9.890969301e-13
9.475332088e-06
6.61385798e-13
-1.180835706e-13
9.47533369e-06
4.485696977e-13
4.105113554e-13
9.475333875e-06
2.043295394e-14
-2.01871617e-13
9.475333865e-06
-3.463966268e-13
2.291967584e-13
9.475335221e-06
-2.048731271e-13
-5.86221568e-13
9.475333545e-06
1.952163258e-13
2.496985837e-13
9.475332916e-06
1.401314339e-12
-4.58835462e-13
9.475330742e-06
2.444434779e-12
1.785361757e-12
9.475329825e-06
9.942632645e-13
1.268745609e-12
9.475324787e-06
2.425754146e-12
-1.043518582e-12
9.475324222e-06
5.318448069e-12
-3.847737506e-12
9.4753317e-06
3.164018321e-11
-3.994838454e-11
9.475342844e-06
2.12909938e-11
-2.796791993e-11
1.791956124e-10
-4.197813249e-10
9.475339706e-06
1.737010096e-12
-1.577600673e-13
9.475337728e-06
-3.838887036e-13
-3.318398178e-13
9.475340049e-06
1.36254419e-12
5.78100779e-14
9.475340594e-06
5.188848418e-13
3.283419131e-14
9.475339768e-06
7.315796682e-14
-3.177049686e-13
9.475340565e-06
-6.179921029e-13
8.835375077e-13
9.475340707e-06
-5.193557637e-13
1.003263096e-12
9.475337916e-06
1.839977501e-13
-7.957853558e-13
9.475338131e-06
-4.79996476e-13
-6.804441988e-13
9.475339721e-06
8.341073187e-13
-3.493618616e-13
9.475342539e-06
3.637627931e-12
-2.699596788e-12
9.475347497e-06
4.108354236e-12
-4.098316012e-12
9.475371595e-06
1.779595286e-11
-3.251445943e-11
9.475392308e-06
9.97669922e-12
-2.015249891e-11
8.576850208e-11
-1.772039438e-10
9.475323313e-06
-2.006234193e-12
9.475324643e-06
2.905209775e-13
9.475324781e-06
-1.102776513e-12
9.475325454e-06
-3.257979897e-13
9.475323814e-06
-1.112800571e-12
9.475326704e-06
4.489181098e-13
9.475326375e-06
8.302407468e-13
9.475322357e-06
-4.898774671e-13
9.475324512e-06
-2.451314684e-12
9.475325071e-06
-2.43806769e-12
9.475330419e-06
-5.371968062e-12
9.475336339e-06
-6.949422848e-12
9.475369626e-06
-2.955446638e-11
9.475393264e-06
-2.261447476e-11
-1.072470001e-10
9.475336938e-06
6.382966559e-13
-4.355181278e-13
9.475337138e-06
-5.684929146e-13
-6.733862132e-13
9.475336107e-06
-5.687000448e-13
-6.803791166e-13
9.475337063e-06
3.281540399e-13
-8.604738499e-13
9.475339455e-06
-1.048759417e-13
6.052730398e-13
9.475336821e-06
-6.509676798e-13
-3.10514753e-13
9.475337413e-06
1.511309676e-13
6.643488546e-13
9.475336354e-06
4.294776794e-13
6.58404738e-13
9.475334903e-06
8.728011406e-13
2.731487919e-13
9.47533279e-06
3.737213854e-13
-2.211535802e-12
9.475331111e-06
-2.282841422e-12
-4.907263175e-12
9.475330584e-06
-3.241895837e-12
-6.746609221e-12
9.475356096e-06
-2.563903283e-11
-2.795384198e-11
-1.359500375e-11
-1.856551903e-11
9.475302374e-06
1.547865985e-12
-3.327739893e-13
9.475302636e-06
5.788223802e-13
-1.609328947e-12
9.475303349e-06
9.967898863e-13
-1.424243573e-13
9.47530168e-06
-3.564744615e-13
-1.32845793e-12
9.475303621e-06
8.774783142e-13
3.920701834e-13
9.475302471e-06
1.374463687e-13
1.264399206e-13
9.475300884e-06
-1.227974484e-12
-1.0633478e-12
9.475303062e-06
-5.743044298e-13
6.052200745e-13
9.475302173e-06
6.727112788e-13
-5.13450019e-13
9.475300171e-06
7.134689228e-13
-1.344106767e-12
9.475296558e-06
-4.211648137e-13
-1.822179375e-12
9.475296181e-06
-3.688698619e-12
-3.476267075e-12
9.47530757e-06
-3.924202052e-11
-2.784276064e-11
-2.78411653e-11
-1.262512789e-11
9.475348196e-06
6.182174125e-14
-5.157839702e-13
9.475349519e-06
-7.904934411e-15
-1.029204241e-12
9.47534765e-06
4.390786467e-13
-3.54173298e-13
9.475348622e-06
1.116270857e-12
-1.759779353e-12
9.475345742e-06
-2.010148777e-13
-1.356811648e-12
9.47534539e-06
-5.419138378e-13
-4.044854116e-13
9.47534519e-06
-1.399826432e-12
-1.106378119e-13
9.475343867e-06
9.357962068e-13
-1.013424681e-12
9.475341652e-06
2.266667076e-12
1.850802229e-12
9.475337072e-06
2.888369097e-12
3.00868534e-12
9.475328085e-06
6.19122879e-12
6.528425363e-12
9.475315863e-06
4.036344941e-12
2.797195734e-12
9.475289835e-06
-2.665839213e-11
-2.569499262e-11
9.475269595e-06
-1.917009411e-11
-1.768914856e-11
-7.184375233e-10
9.475311174e-06
1.096719222e-12
-1.813685001e-12
9.475311732e-06
5.385614544e-13
-1.279806053e-12
9.475310321e-06
-4.514527507e-13
-1.899481927e-12
9.475312942e-06
7.462732991e-14
-1.061778179e-12
9.475311156e-06
-2.851789325e-13
-1.336178007e-12
9.475313075e-06
2.428240055e-12
-8.398167146e-13
9.475315871e-06
2.268912096e-12
2.80843679e-13
9.475315079e-06
-3.527533654e-13
7.727035185e-13
9.475314388e-06
1.335328564e-12
4.999546269e-12
9.475310093e-06
-1.686026837e-12
6.139493751e-12
9.475305875e-06
-7.519270893e-13
2.370308127e-11
9.475302582e-06
-6.785872771e-12
1.845490952e-11
9.475267862e-06
-5.391733845e-11
6.018546024e-11
9.475312309e-06
-8.227193278e-11
4.32088863e-12
-7.804723487e-10
-1.407910682e-09
9.475315189e-06
-3.530901847e-13
1.452682557e-12
9.475317012e-06
1.60054066e-12
-1.920378892e-13
9.475318734e-06
2.88327146e-12
1.002881806e-12
9.475318507e-06
2.498998529e-12
5.340444205e-13
9.475315492e-06
7.177387034e-13
3.161570181e-13
9.47531471e-06
1.037511251e-13
-1.71838014e-12
9.475314817e-06
1.184563875e-12
-7.824146564e-13
9.475315521e-06
9.826275416e-13
2.171697062e-12
9.475311815e-06
-6.285698525e-13
6.135980096e-12
9.475309256e-06
4.373575381e-13
1.104662866e-11
9.475284223e-06
1.47071917e-12
3.674003374e-11
9.475234979e-06
6.588326488e-12
4.038158505e-11
9.475016487e-06
5.542430499e-11
8.156970968e-11
9.474748033e-06
8.185845795e-11
2.883583496e-11
7.813604015e-10
-5.560077404e-09
9.475346374e-06
2.834327194e-12
1.358078596e-12
9.475346347e-06
1.861895027e-12
2.603683466e-13
9.475344531e-06
-5.519011541e-13
-5.478303092e-13
9.475345053e-06
-8.148351123e-13
3.721068112e-13
9.475346043e-06
1.786632086e-12
8.051478493e-13
9.475347216e-06
6.761555697e-13
6.706647272e-13
9.475344312e-06
8.679201041e-13
8.482296978e-13
9.47534489e-06
8.236595648e-15
2.081147752e-12
9.47534659e-06
-1.215143147e-12
4.577238872e-12
9.47534547e-06
-3.203849589e-12
6.64426022e-12
9.475336704e-06
-5.540550225e-12
2.532965493e-11
9.475334803e-06
-2.845546582e-12
2.022781843e-11
9.475297599e-06
2.645620648e-11
6.235637421e-11
9.475345807e-06
1.810854285e-11
5.433820802e-12
7.195575447e-10
-1.407161656e-09
9.475314054e-06
-2.092151594e-13
-1.512307157e-12
9.475313029e-06
8.546488224e-14
-2.162964366e-12
9.475314438e-06
4.070173916e-13
-1.892123531e-13
9.47531451e-06
1.495800225e-13
-2.212595032e-13
9.475313767e-06
3.66382274e-13
2.912936322e-13
9.475313547e-06
8.349815789e-13
2.613076006e-13
9.475309936e-06
1.034389339e-12
8.495388522e-13
9.475312583e-06
7.572288052e-13
1.647764635e-12
9.475307104e-06
-3.54206907e-13
1.182157187e-12
9.475304453e-06
-1.789973173e-14
2.647915049e-12
9.475290994e-06
1.149062421e-12
7.266583049e-12
9.475278145e-06
4.143541988e-12
4.37817899e-12
9.475250447e-06
3.952883819e-11
-2.545277748e-11
9.475231666e-06
2.772602399e-11
-1.642279796e-11
4.210943705e-10
-7.191727052e-10
9.475320009e-06
-9.211593594e-13
-1.295236382e-12
9.475320838e-06
4.94615057e-13
-1.138372029e-12
9.475321851e-06
-8.257196222e-14
-1.005744422e-12
9.475320526e-06
1.126033384e-12
-5.552591857e-13
9.475321979e-06
-4.123110827e-13
2.148821718e-13
9.475320599e-06
-2.119661831e-12
-2.492919988e-13
9.475317125e-06
-8.95195565e-13
-1.414179596e-12
9.475318325e-06
1.47646389e-12
-1.595457484e-12
9.475315654e-06
-1.983979744e-12
-2.014771985e-12
9.475316284e-06
1.663243459e-13
8.986036612e-13
9.475310769e-06
2.235402095e-12
-1.632226165e-13
9.475309064e-06
3.231318318e-12
-7.347942942e-13
9.47532156e-06
2.572691895e-11
-2.526568452e-11
9.47533197e-06
1.387237493e-11
-1.209372834e-11
1.839037434e-10
-2.56679114e-10
9.475347217e-06
-2.552752775e-13
9.475343946e-06
-1.064413862e-12
9.475345009e-06
-7.679907241e-14
9.47534358e-06
-9.573809381e-13
9.475343641e-06
-2.064432744e-14
9.47534583e-06
6.532829668e-13
9.475344698e-06
-6.868424019e-13
9.475340475e-06
-1.99014987e-12
9.475342791e-06
-7.823238698e-14
9.475340305e-06
-1.347345245e-12
9.475340612e-06
-4.736096301e-12
9.475338531e-06
-5.357325826e-12
9.475364201e-06
-2.393880768e-11
9.475373314e-06
-1.676037154e-11
-1.326999084e-10
9.475335501e-06
5.762870829e-13
1.124323513e-12
9.47533762e-06
-1.033808128e-12
8.285682106e-13
9.475336141e-06
-2.325585997e-13
5.172778878e-14
9.475335188e-06
2.990588093e-13
1.749658425e-12
9.475335359e-06
4.826504836e-13
-1.096919508e-12
9.47533645e-06
2.051458949e-13
-8.030724265e-13
9.475334487e-06
-7.577976038e-14
-2.030293165e-12
9.475332966e-06
-4.138594098e-13
-2.132687479e-12
9.475331221e-06
6.878389422e-13
-1.715218789e-12
9.475331817e-06
1.731354908e-12
-1.260681354e-12
9.475328678e-06
2.084362178e-12
-3.634355495e-12
9.475329644e-06
1.015930059e-12
-6.90165055e-12
9.47534645e-06
-1.394119518e-11
-2.499800194e-11
-8.442374893e-13
-2.836765894e-11
9.475335744e-06
1.994088709e-12
3.008376319e-13
9.475337631e-06
4.730332975e-13
7.025916023e-13
9.475336946e-06
6.667148148e-13
3.226272834e-13
9.475337701e-06
-1.840197938e-12
6.656251687e-13
9.475336936e-06
-9.670823369e-13
-2.343673489e-13
9.475337015e-06
-5.315927796e-13
4.749765382e-13
9.475335558e-06
-4.959450813e-13
-9.012896097e-14
9.475334299e-06
-9.651193233e-13
-6.914064783e-13
9.475334786e-06
2.840120077e-12
-9.658009093e-13
9.475334446e-06
5.151510285e-12
-9.097005124e-13
9.47532923e-06
1.181283445e-11
-3.839250717e-12
9.475333603e-06
5.11834499e-12
-7.450782148e-12
9.475329841e-06
-2.209235848e-12
-3.579718119e-11
-1.449624309e-11
-4.100188876e-11
9.475341599e-06
-1.543225561e-12
-7.59137263e-13
9.475344689e-06
-1.82084442e-13
6.599586279e-13
9.475341513e-06
-1.030582811e-12
-7.638274814e-13
9.475346394e-06
2.241191375e-12
4.508443842e-13
9.475346206e-06
-4.153975701e-14
1.102743358e-13
9.475346042e-06
-1.221385811e-12
-4.629941971e-13
9.475345344e-06
-1.662470388e-12
1.5666811e-13
9.475347394e-06
1.877654499e-12
3.96545675e-13
9.475345983e-06
4.840490995e-12
-1.024613915e-13
9.475342792e-06
7.145080516e-12
-8.393472897e-13
9.47533733e-06
2.46830753e-11
-2.935912188e-12
9.475335953e-06
1.978296614e-11
-6.573315432e-12
9.475299887e-06
5.942867073e-11
-5.579115557e-11
2.592552647e-12
-8.242018394e-11
9.475309325e-06
2.850523469e-12
1.58390373e-12
9.47531004e-06
6.944767281e-13
1.424305765e-12
9.475308925e-06
8.089531291e-13
5.587819569e-13
9.475309449e-06
1.244248013e-12
5.077400862e-13
9.475309022e-06
1.797994292e-12
2.422313554e-13
9.475310602e-06
1.189742065e-12
1.194158536e-12
9.475313282e-06
8.904856117e-13
2.837109349e-12
9.475315455e-06
9.118003557e-13
1.629752481e-12
9.475321843e-06
1.776963123e-12
1.496528351e-12
9.475326815e-06
1.851083214e-12
1.496717126e-12
9.475358991e-06
1.017183224e-11
8.635537434e-12
9.475393995e-06
1.933084843e-12
2.475464628e-12
9.47553571e-06
-9.453897756e-12
-7.516108338e-12
9.475887831e-06
-1.72950025e-10
-1.721238881e-10
-1.546227039e-09
9.475347436e-06
-9.05862294e-15
-9.054392794e-13
9.475350106e-06
1.620576079e-12
1.318146281e-13
9.475349975e-06
7.164903114e-13
4.072542849e-13
9.47535116e-06
1.062496653e-12
-1.641187314e-13
9.475349821e-06
1.144036869e-12
-8.830271415e-13
9.475351126e-06
1.444460237e-12
6.053906177e-13
9.475353933e-06
2.842663687e-12
2.400904062e-12
9.475355701e-06
1.721106174e-12
1.523168965e-12
9.475364894e-06
-1.998738185e-12
3.340927711e-12
9.47537074e-06
-3.27398237e-12
6.893901313e-12
9.475406861e-06
-7.197136457e-12
2.077981547e-11
9.47541024e-06
-4.62582047e-13
4.350750493e-11
9.475408861e-06
1.151007095e-11
6.573676922e-11
9.475061244e-06
1.744937751e-10
3.440465058e-11
1.547318552e-09
-1.07521531e-08
9.475342555e-06
-2.32103473e-13
-5.890579562e-13
9.475342942e-06
-6.952488242e-13
-6.109485862e-13
9.475344641e-06
-3.347626312e-13
-1.384639566e-12
9.475342043e-06
-5.033109373e-13
-1.933787188e-12
9.475342341e-06
-5.883945987e-14
-5.896467988e-13
9.475344563e-06
1.184793302e-12
4.429492395e-13
9.475346245e-06
1.770572669e-12
6.525023156e-13
9.47534474e-06
-6.482821783e-13
-3.295715389e-13
9.475354074e-06
-4.00718292e-12
1.891575821e-12
9.47536273e-06
-5.702668758e-12
4.445657609e-12
9.475389166e-06
-2.445633913e-11
1.014545534e-11
9.475426224e-06
-1.918010626e-11
3.589454411e-12
9.475567405e-06
-6.049114943e-11
-8.745843694e-12
9.475921541e-06
-3.329871123e-12
-1.728609992e-10
1.408045208e-09
-1.546609693e-09
9.475329314e-06
6.92746808e-13
-3.785388696e-13
9.475331074e-06
1.198436043e-12
-3.312006452e-13
9.475329471e-06
5.534083538e-13
-1.127253722e-12
9.475328435e-06
-1.586257667e-13
-2.07332549e-13
9.475328257e-06
-9.070442588e-14
4.24461502e-14
9.475328689e-06
3.708840098e-13
-3.655820702e-14
9.475326709e-06
-8.7494794e-13
-2.475791861e-13
9.475326907e-06
-1.804343747e-12
-1.230379437e-12
9.475327897e-06
-3.290025393e-12
-2.076557901e-13
9.47532709e-06
-3.102905848e-12
9.35541871e-14
9.475318659e-06
-1.084239389e-11
6.322244638e-13
9.475315515e-06
-3.425796433e-12
-4.989785117e-12
9.475278409e-06
4.519735893e-12
-5.36378237e-11
9.475323686e-06
1.487358433e-11
-8.130890227e-11
6.939571345e-10
-7.815444521e-10
9.475308915e-06
-3.858619188e-13
-1.62076614e-12
9.475310014e-06
4.537616041e-13
-1.238432418e-12
9.475308767e-06
2.994951423e-13
-6.926054008e-13
9.475309517e-06
-4.004080852e-15
4.737406474e-13
9.47530982e-06
-8.486043589e-13
4.449817449e-13
9.475308752e-06
-1.443189717e-12
1.333299159e-13
9.475307905e-06
-5.575691836e-13
-8.474373344e-13
9.475309279e-06
8.233147769e-13
1.022081648e-12
9.475310451e-06
-2.103969054e-13
9.979012626e-14
9.475307801e-06
-2.405128515e-12
-1.152108865e-12
9.475302429e-06
-4.893336587e-12
-2.724052867e-12
9.475305661e-06
-3.129246918e-12
-5.48109107e-12
9.475303271e-06
1.583562484e-11
-3.459405222e-11
9.475343387e-06
2.718765722e-12
-3.940227799e-11
2.858854652e-10
-2.614967283e-10
9.475332702e-06
-2.491511598e-12
9.475333055e-06
-2.08313163e-12
9.47533243e-06
-5.524296035e-13
9.475332531e-06
8.106805072e-14
9.47533176e-06
1.800747699e-12
9.475330252e-06
1.657193167e-12
9.475328937e-06
5.392815717e-14
9.475327717e-06
-9.043718165e-13
9.475326961e-06
-1.102533652e-13
9.475326984e-06
-1.993317835e-13
9.475325137e-06
-2.548850757e-12
9.475326939e-06
-4.938805979e-12
9.475339989e-06
-2.693468375e-11
9.475349928e-06
-2.838724814e-11
-1.262532938e-10
9.475348783e-06
2.142620972e-13
-6.641798092e-13
9.475346897e-06
-1.668722061e-12
-4.346072793e-13
9.475346854e-06
-8.605427339e-13
-1.50742517e-13
9.475343026e-06
-1.855324101e-12
-1.280905954e-12
9.475346484e-06
7.092332076e-13
1.060654286e-12
9.475346388e-06
7.920725053e-13
1.875037842e-12
9.475343589e-06
2.309567888e-13
-7.284281885e-13
9.475342883e-06
8.140627266e-13
-1.283550535e-13
9.47533802e-06
1.093722223e-12
3.467891549e-13
9.475335995e-06
1.693746742e-12
1.822898261e-12
9.475324073e-06
2.567205927e-12
2.956804478e-12
9.475312182e-06
1.519064721e-12
8.121888325e-12
9.475295316e-06
-3.788426437e-11
2.726837065e-11
-2.6438095e-11
2.818252613e-11
9.475328715e-06
9.25256292e-13
-3.821427033e-13
9.475328723e-06
7.53402197e-14
1.251363226e-13
9.475328556e-06
-1.738292975e-12
-8.077638722e-13
9.475328964e-06
-2.165770294e-12
-3.11176627e-13
9.475328044e-06
-5.197013618e-13
5.998756591e-13
9.475326649e-06
-1.287785956e-12
-2.400554989e-13
9.475324569e-06
-9.818504173e-13
-2.179480822e-13
9.475325548e-06
8.966848923e-13
-9.927906021e-14
9.475323017e-06
3.707877455e-12
5.135183973e-13
9.475316539e-06
5.949403012e-12
3.906859342e-13
9.475298799e-06
1.569897951e-11
3.451463246e-12
9.475279065e-06
9.178116547e-12
8.859546835e-12
9.475198574e-06
-2.686809768e-11
3.723868646e-11
-7.171046482e-11
4.103430466e-11
9.475347791e-06
1.860624292e-13
5.672966023e-13
9.475347111e-06
9.342083681e-13
1.027231981e-13
9.475347591e-06
5.699696107e-13
9.084185821e-13
9.475349986e-06
2.469679754e-12
1.439091997e-12
9.475347748e-06
1.779535574e-13
1.288755004e-12
9.475348849e-06
2.208174742e-13
8.981477337e-13
9.475347247e-06
2.566176376e-12
6.596841055e-13
9.475346809e-06
3.388776003e-12
3.394883674e-13
9.475345984e-06
7.893213308e-12
6.672415633e-13
9.475338304e-06
1.073707616e-11
-4.175851822e-14
9.475315616e-06
3.735520323e-11
1.77760496e-12
9.475267283e-06
4.158241774e-11
7.632249365e-12
9.475048925e-06
8.308659318e-11
5.508371874e-11
2.963734506e-11
8.303808027e-11
9.475336316e-06
4.239252738e-13
2.095459671e-12
9.475334325e-06
-2.497753506e-13
-7.428272919e-13
9.475337516e-06
1.21362779e-12
3.437759652e-13
9.475336474e-06
1.023224662e-12
-1.075866686e-12
9.475337342e-06
-2.911586149e-14
-1.189651982e-13
9.475339281e-06
1.021317235e-12
8.447426168e-13
9.475338266e-06
1.142897742e-12
-8.178331107e-13
9.475340042e-06
5.743982834e-13
-6.582810023e-13
9.475351966e-06
4.478456166e-12
-1.813092201e-12
9.475359186e-06
7.391193361e-12
-3.087153252e-12
9.475394224e-06
2.082301254e-11
-8.787450637e-12
9.475397036e-06
4.318143544e-11
-1.482710127e-12
9.475394302e-06
6.467794869e-11
9.770249596e-12
3.256312101e-11
1.72878968e-10
9.475344036e-06
7.437285755e-13
4.907587725e-13
9.475344835e-06
7.450955191e-13
3.608628491e-13
9.475344376e-06
4.751477373e-13
-8.627561112e-13
9.475343426e-06
6.845323044e-13
-6.652361193e-13
9.475346342e-06
2.007790439e-12
6.523806875e-13
9.475347572e-06
1.391415977e-12
4.60034256e-13
9.475347619e-06
5.341326681e-14
-4.277979175e-13
9.475354348e-06
-2.724919218e-13
-9.328887242e-13
9.475369481e-06
-4.263392781e-12
-3.865576439e-12
9.475392128e-06
-6.627420639e-12
-7.334185803e-12
9.47547567e-06
-1.838240445e-11
-2.045045253e-11
9.475647736e-06
-4.153646957e-11
-4.22233529e-11
9.475906612e-06
-6.326148504e-11
-6.324007775e-11
9.476045818e-06
-3.274657441e-11
-3.155703735e-11
1.07541043e-08
9.475348719e-06
-9.10347896e-14
-6.302964343e-14
9.475348943e-06
-6.338763844e-13
-1.049796163e-12
9.475349161e-06
2.716694861e-13
-4.149228656e-13
9.47534717e-06
1.766845616e-13
-5.957317033e-13
9.475348482e-06
6.451203728e-14
-3.585681873e-13
9.475348044e-06
7.013373212e-15
-1.683894994e-13
9.475349227e-06
3.39815513e-13
-1.81450119e-12
9.475352527e-06
-2.176683611e-12
-1.214138876e-12
9.475363306e-06
-6.637979748e-12
-6.424301372e-13
9.475372905e-06
-1.071235259e-11
-1.553734822e-12
9.475405917e-06
-3.636768752e-11
-9.708550807e-12
9.475407216e-06
-4.063032441e-11
-1.937238091e-12
9.475404588e-06
-8.129416213e-11
9.982935415e-12
9.475055218e-06
-2.775957604e-11
1.743754331e-10
5.559795411e-09
9.475310308e-06
-3.227140453e-13
2.019921485e-13
9.475313547e-06
5.637523746e-13
1.098816543e-12
9.47531269e-06
1.23430539e-13
3.090878362e-13
9.475313686e-06
-7.805023712e-15
2.245194146e-13
9.475313973e-06
-4.817395324e-13
-3.702002928e-13
9.475314178e-06
-2.021348403e-13
-1.805057826e-13
9.47531203e-06
-1.793291164e-12
-1.249622928e-12
9.475312475e-06
-9.03335544e-13
-6.670790777e-13
9.475310448e-06
-4.422924567e-12
-4.929136454e-15
9.475305711e-06
-6.328675015e-12
2.75084285e-13
9.475279393e-06
-1.514125697e-11
-6.703252298e-13
9.475231592e-06
-5.95053758e-12
6.575172513e-12
9.475012426e-06
2.874235494e-11
5.483766784e-11
9.474744287e-06
7.260796024e-11
8.308420733e-11
2.061041237e-09