/*--------------------------------*- C++ -*----------------------------------*\
| =========                 |                                                 |
| \\      /  F ield         | OpenFOAM: The Open Source CFD Toolbox           |
|  \\    /   O peration     | Version:  4.x                                   |
|   \\  /    A nd           | Web:      www.OpenFOAM.org                      |
|    \\/     M anipulation  |                                                 |
\*---------------------------------------------------------------------------*/
FoamFile
{
    version     2.0;
    format      ascii;
    class       volScalarField;
    location    "3000";
    object      rhoeps;
}
// * * * * * * * * * * * * * * * * * * * * * * * * * * * * * * * * * * * * * //

dimensions      [1 -3 0 0 0 0 0];

internalField   nonuniform List<scalar> 
1175
(
0.2790920593
0.2790920689
0.2790920679
0.2790920902
0.2790920731
0.2790920865
0.2790920798
0.2790920661
0.2790920798
0.2790920702
0.2790920772
0.2790920625
0.2790921153
0.2790922435
0.2790924841
0.2790907234
0.2790907251
0.2790907329
0.2790907228
0.279090731
0.2790907231
0.2790907219
0.2790907341
0.2790907196
0.2790907081
0.2790907252
0.2790907287
0.2790908061
0.2790909982
0.2790913529
0.2790913025
0.2790912945
0.2790912912
0.2790912938
0.2790912968
0.2790912886
0.2790913063
0.2790912803
0.2790912636
0.2790912367
0.2790913067
0.2790913358
0.279091507
0.2790918696
0.2790925863
0.2790921053
0.279092128
0.2790921206
0.2790921449
0.2790921397
0.2790921391
0.2790921549
0.2790921476
0.2790921669
0.2790921814
0.2790922049
0.2790922989
0.2790925142
0.2790931238
0.279094328
0.2790919528
0.2790919311
0.2790919503
0.27909192
0.2790919308
0.2790919252
0.2790919132
0.2790919273
0.2790919136
0.2790919417
0.2790919917
0.2790921209
0.2790924394
0.2790932559
0.2790949071
0.2790918069
0.2790918359
0.2790918323
0.2790918242
0.2790918321
0.2790918183
0.2790917885
0.2790918151
0.2790918013
0.2790917935
0.2790918489
0.2790919672
0.2790922057
0.2790928112
0.2790940085
0.2790910406
0.2790910351
0.2790910493
0.2790910129
0.2790909986
0.2790909876
0.2790909974
0.2790909866
0.2790910291
0.2790910572
0.2790910643
0.2790911217
0.2790912587
0.2790916091
0.2790923335
0.279092204
0.2790921981
0.2790921943
0.2790921473
0.2790921709
0.279092146
0.2790921353
0.2790921094
0.2790921296
0.2790921236
0.2790921411
0.2790921944
0.2790922502
0.2790924617
0.2790928293
0.2790921867
0.2790921902
0.2790921986
0.2790922023
0.2790921874
0.279092167
0.279092174
0.2790921639
0.279092154
0.2790921582
0.2790921267
0.279092137
0.2790922223
0.2790923095
0.2790925164
0.2790916678
0.2790916653
0.2790916755
0.2790916811
0.2790916648
0.2790916411
0.2790916466
0.2790916241
0.2790916386
0.2790916211
0.2790916447
0.2790916989
0.2790917826
0.2790919898
0.2790927454
0.2790927678
0.2790927379
0.279092739
0.2790927676
0.2790927592
0.2790927905
0.2790927917
0.2790928388
0.2790928566
0.2790928315
0.2790929139
0.2790930285
0.2790933661
0.2790940949
0.2790920903
0.2790920923
0.2790920913
0.2790920872
0.2790920996
0.2790921143
0.2790920997
0.2790921391
0.2790920781
0.2790920907
0.2790921509
0.2790922782
0.2790926091
0.2790934338
0.2790950621
0.2790920343
0.2790920668
0.2790920556
0.2790920725
0.2790920509
0.2790920387
0.2790920052
0.2790919852
0.2790919777
0.2790920527
0.2790920955
0.2790922618
0.2790929156
0.2790945782
0.2790979873
0.2790901132
0.2790900823
0.2790901217
0.279090135
0.2790901383
0.2790901538
0.279090138
0.2790901668
0.2790901461
0.2790901783
0.2790902519
0.2790905359
0.2790914475
0.2790939936
0.2790994455
0.2790914196
0.2790914141
0.2790913737
0.2790913974
0.2790914404
0.2790913991
0.279091396
0.2790914107
0.2790914071
0.2790914423
0.2790915157
0.2790917526
0.2790923961
0.27909406
0.2790974983
0.2790916735
0.2790916532
0.2790916449
0.2790916278
0.2790916204
0.2790916815
0.2790916886
0.2790917033
0.2790917216
0.2790917071
0.2790917133
0.2790918441
0.2790922119
0.2790930296
0.2790946474
0.2790917967
0.2790917946
0.279091794
0.279091842
0.2790918524
0.2790918492
0.2790918687
0.2790918662
0.2790918944
0.279091894
0.2790919098
0.2790919479
0.2790920857
0.2790924533
0.2790931174
0.2790913952
0.2790913791
0.2790914115
0.2790914168
0.2790914606
0.279091425
0.2790914053
0.2790914116
0.2790914147
0.2790914349
0.2790914375
0.2790914747
0.2790915139
0.2790917257
0.2790920781
0.2790917274
0.279091734
0.2790917388
0.2790917206
0.2790917572
0.2790917645
0.279091778
0.2790917669
0.2790917559
0.2790917713
0.2790917905
0.2790918445
0.2790919666
0.2790923205
0.2790907599
0.2790907732
0.27909075
0.2790907353
0.2790907524
0.2790907597
0.2790907443
0.2790907968
0.279090823
0.2790908344
0.2790908898
0.2790910377
0.2790913672
0.2790921811
0.2790921322
0.2790921156
0.2790921053
0.2790920723
0.2790920476
0.2790920292
0.2790920202
0.2790920283
0.2790920474
0.2790920762
0.2790921844
0.2790924607
0.2790933339
0.2790955556
0.2791002029
0.2790909895
0.2790909858
0.2790910114
0.2790910006
0.279091011
0.2790910676
0.2790910889
0.2790911158
0.27909112
0.2790911587
0.2790912826
0.2790918624
0.2790937099
0.27909928
0.2791115025
0.2790911447
0.2790911932
0.2790911357
0.2790911541
0.2790911656
0.2790911568
0.2790911254
0.2790911597
0.279091147
0.2790911568
0.279091364
0.2790921909
0.2790953133
0.2791056024
0.279131272
0.2790920166
0.2790920262
0.2790920094
0.2790920327
0.2790919958
0.2790920031
0.2790919819
0.2790919804
0.2790920323
0.2790920863
0.2790922509
0.2790927565
0.2790946499
0.2791002637
0.279112513
0.2790910656
0.2790910933
0.2790910511
0.2790910825
0.2790910836
0.2790910405
0.2790910404
0.2790910448
0.2790910461
0.2790910523
0.2790911161
0.2790913889
0.2790922315
0.2790944245
0.2790990257
0.2790912875
0.2790912656
0.2790912991
0.2790913002
0.279091281
0.2790912703
0.2790912428
0.2790912425
0.2790912606
0.2790912475
0.2790913076
0.2790914406
0.2790917615
0.2790925965
0.2790942631
0.2790920245
0.2790920081
0.2790920174
0.2790919923
0.279091967
0.2790919877
0.2790919977
0.2790920193
0.2790919989
0.2790920105
0.2790920458
0.2790920523
0.2790921931
0.2790925632
0.279093271
0.279091683
0.279091683
0.2790917009
0.2790916662
0.2790916731
0.279091668
0.2790916941
0.279091711
0.2790916897
0.2790917085
0.2790917559
0.2790918342
0.2790920531
0.2790927059
0.2790917349
0.2790917531
0.2790917775
0.2790917651
0.2790917392
0.279091731
0.2790917614
0.2790917339
0.2790917586
0.2790917629
0.2790918365
0.2790919948
0.2790926387
0.2790943107
0.2790919434
0.2790919546
0.2790919695
0.2790919535
0.2790919838
0.2790919989
0.279092024
0.2790920246
0.2790920471
0.2790920461
0.2790921844
0.2790927562
0.2790946749
0.2791002411
0.2790908451
0.2790908922
0.2790909111
0.2790909156
0.2790909472
0.2790909651
0.2790909684
0.2790909695
0.2790909681
0.2790910635
0.2790913779
0.2790926532
0.2790977834
0.2791155312
0.279160975
0.2790921539
0.2790921189
0.279092144
0.279092108
0.279092134
0.2790921222
0.2790921345
0.2790921534
0.2790921596
0.2790922752
0.2790927377
0.279094879
0.2791049407
0.2791488104
0.2793034934
0.2790919758
0.2790919494
0.2790919476
0.2790919596
0.2790919313
0.2790918885
0.2790919017
0.2790919435
0.279091944
0.2790920101
0.2790923415
0.2790936121
0.2790987463
0.2791165357
0.2791619764
0.2790914992
0.279091548
0.2790915421
0.2790914815
0.2790914759
0.2790915058
0.2790915405
0.2790915009
0.2790914871
0.279091511
0.2790916667
0.2790922047
0.2790940926
0.2790996926
0.2791119126
0.2790909538
0.2790909518
0.2790909425
0.279090937
0.279090934
0.2790909614
0.2790909185
0.2790909638
0.2790909811
0.2790910226
0.2790911169
0.2790913143
0.2790919438
0.2790935992
0.2790970389
0.2790916266
0.2790916325
0.2790916178
0.2790915779
0.2790915818
0.2790915849
0.2790915972
0.2790915849
0.2790915493
0.2790915438
0.2790915645
0.2790916882
0.2790919581
0.2790925769
0.2790938242
0.2790920563
0.2790920464
0.279092027
0.2790920108
0.27909198
0.2790920102
0.279092027
0.2790920252
0.2790920018
0.2790920244
0.2790920329
0.279092143
0.279092527
0.2790933291
0.2790915121
0.2790915081
0.2790914822
0.2790914839
0.2790914922
0.2790914845
0.2790914607
0.2790914544
0.2790914568
0.2790914332
0.2790915086
0.2790917746
0.2790926851
0.2790952144
0.2790919982
0.2790920247
0.2790920561
0.2790920629
0.2790920584
0.2790920488
0.2790920521
0.2790920683
0.2790920342
0.2790921027
0.2790922874
0.2790931351
0.2790962296
0.2791065188
0.2790917165
0.2790917446
0.2790917142
0.2790917185
0.2790917215
0.2790917302
0.2790917446
0.2790917736
0.2790918141
0.279091906
0.2790923334
0.2790945035
0.2791045656
0.2791483707
0.2790919887
0.2790919828
0.2790919793
0.279091979
0.2790919775
0.279092018
0.2790919865
0.2790919752
0.2790920386
0.2790921745
0.2790928808
0.2790970582
0.2791222893
0.2792862569
0.2812194038
0.2790921493
0.2790921313
0.2790920878
0.2790920988
0.2790920981
0.2790920837
0.2790920562
0.2790920393
0.279092076
0.279092182
0.2790926482
0.2790948653
0.2791049167
0.2791487158
0.2793033852
0.2790910019
0.2790910474
0.2790910785
0.2790910865
0.2790910801
0.2790911176
0.2790910665
0.2790910207
0.2790910178
0.2790910641
0.2790912685
0.279092029
0.2790951584
0.2791054981
0.2791311572
0.2790924955
0.2790924808
0.2790924776
0.2790924761
0.2790924714
0.2790924555
0.2790924777
0.2790924755
0.2790924962
0.2790925357
0.2790925915
0.2790928755
0.2790937548
0.2790962884
0.2791017414
0.2790917754
0.2790917916
0.2790917695
0.2790917545
0.2790917658
0.2790917977
0.2790917565
0.2790917456
0.2790917635
0.2790917778
0.2790918547
0.2790919413
0.2790922438
0.2790930605
0.2790947242
0.2790909384
0.2790909453
0.2790909447
0.2790909328
0.2790909779
0.2790909879
0.2790909726
0.2790909621
0.279091006
0.2790910189
0.2790910279
0.2790911252
0.2790913584
0.2790919987
0.2790920724
0.2790920823
0.2790920647
0.2790920667
0.2790921304
0.2790921236
0.2790921366
0.2790921502
0.2790921242
0.2790921604
0.2790922337
0.2790924531
0.2790931426
0.27909481
0.2790913262
0.2790912945
0.2790913069
0.2790912513
0.2790912658
0.2790912475
0.2790912674
0.2790912582
0.2790913134
0.2790913559
0.2790914921
0.2790921199
0.279093978
0.2790995411
0.2790918332
0.2790918368
0.2790918483
0.2790918693
0.2790918816
0.2790918729
0.2790918773
0.2790918662
0.2790918672
0.2790919507
0.2790922189
0.2790935231
0.2790986067
0.2791164403
0.2790914776
0.2790914778
0.279091457
0.279091495
0.279091492
0.2790914862
0.2790914984
0.2790915408
0.2790915409
0.2790916487
0.279092118
0.2790943016
0.2791043776
0.279148255
0.2790921647
0.2790921536
0.2790921877
0.2790921862
0.2790921773
0.2790921513
0.2790921509
0.2790921441
0.2790922028
0.2790922579
0.2790925563
0.2790938394
0.2790989814
0.2791167356
0.2790919462
0.2790919367
0.2790919386
0.2790919563
0.279091983
0.2790919802
0.2790920189
0.279092052
0.2790920619
0.2790921245
0.2790922818
0.2790927865
0.2790946942
0.2791002946
0.2791125052
0.2790916417
0.2790916379
0.2790916601
0.2790916838
0.2790917165
0.2790917191
0.2790917643
0.2790917677
0.2790918199
0.2790918437
0.2790919173
0.2790921449
0.2790927973
0.2790944642
0.2790979227
0.2790917129
0.279091697
0.2790917159
0.279091709
0.279091691
0.2790917296
0.2790917384
0.2790917345
0.2790917648
0.2790917665
0.2790918094
0.27909192
0.2790921967
0.2790928517
0.2790940458
0.2790919384
0.2790919446
0.2790919291
0.279091975
0.2790919432
0.2790919367
0.2790918957
0.279091946
0.2790919108
0.279091911
0.2790919198
0.279092015
0.2790921577
0.2790925286
0.2790924128
0.279092396
0.2790924401
0.2790924165
0.2790923987
0.279092398
0.2790924222
0.2790924457
0.2790924834
0.279092501
0.2790925603
0.2790926799
0.2790930173
0.2790938042
0.2790909194
0.2790909261
0.2790909392
0.279090959
0.2790909754
0.2790909778
0.2790909456
0.2790909695
0.2790909629
0.2790910134
0.2790911024
0.2790913879
0.2790922035
0.2790944552
0.279091944
0.2790919573
0.2790919969
0.2790920009
0.2790919978
0.2790920364
0.2790920087
0.2790920252
0.2790920888
0.279092112
0.2790922639
0.2790928133
0.2790947267
0.2791003515
0.2790913531
0.2790913669
0.2790913602
0.2790913425
0.2790913225
0.2790913115
0.2790913058
0.2790913061
0.2790913064
0.2790913416
0.2790915713
0.2790923853
0.2790954317
0.2791057132
0.2790921764
0.2790921917
0.2790921721
0.2790921658
0.2790921732
0.2790921966
0.2790922006
0.2790922014
0.2790922095
0.2790922599
0.2790923838
0.2790929781
0.2790948698
0.2791004144
0.2790916036
0.2790915731
0.2790915364
0.2790915631
0.2790915397
0.2790915687
0.2790915346
0.279091518
0.2790915024
0.2790915209
0.2790916171
0.2790919125
0.2790927799
0.2790950413
0.2790910903
0.2790911023
0.279091111
0.2790911037
0.2790911017
0.2790911249
0.2790910969
0.2790911196
0.2790911069
0.2790911251
0.2790911865
0.2790913066
0.2790916431
0.2790924557
0.2790941044
0.2790924852
0.2790924703
0.2790924627
0.2790924706
0.279092494
0.2790924744
0.2790924895
0.2790924935
0.2790924848
0.2790924746
0.279092483
0.2790925083
0.2790926446
0.2790930229
0.2790937377
0.2790914788
0.2790914581
0.2790914666
0.2790914572
0.2790914706
0.2790914536
0.2790914764
0.2790914795
0.2790914852
0.2790914967
0.2790914886
0.279091494
0.2790915939
0.2790917662
0.2790914171
0.279091429
0.2790914153
0.2790914491
0.2790914196
0.2790913877
0.2790913574
0.2790913931
0.2790913939
0.2790913444
0.2790913839
0.2790914797
0.2790916413
0.2790920348
0.2790922996
0.2790922744
0.2790923056
0.2790923368
0.2790923575
0.279092354
0.2790923839
0.2790923609
0.2790923971
0.2790924109
0.279092442
0.27909258
0.2790929195
0.2790936595
0.2790915206
0.2790915189
0.2790915039
0.279091483
0.2790914712
0.2790914701
0.2790914714
0.2790915075
0.2790915117
0.2790915251
0.2790915895
0.2790917557
0.2790923846
0.2790940609
0.2790920209
0.2790920423
0.2790920576
0.2790920657
0.2790920577
0.2790920419
0.2790920331
0.279092086
0.2790921136
0.2790921489
0.2790922168
0.2790925251
0.2790934054
0.2790959388
0.2790914401
0.2790914321
0.2790914755
0.2790914551
0.2790914089
0.279091419
0.2790914527
0.2790914365
0.2790914386
0.279091454
0.2790914921
0.2790917166
0.2790924161
0.2790941028
0.2790923147
0.2790922602
0.279092271
0.2790922587
0.2790922724
0.279092264
0.2790923133
0.2790923047
0.2790923349
0.2790923487
0.2790923768
0.2790925577
0.2790928851
0.2790937103
0.2790934251
0.2790934358
0.2790933658
0.27909334
0.2790932911
0.2790932848
0.2790932772
0.2790932536
0.2790932383
0.2790932674
0.2790933012
0.2790933685
0.2790934858
0.2790938808
0.2790918578
0.2790918641
0.2790918956
0.2790918865
0.2790918682
0.2790918748
0.2790918565
0.279091832
0.2790918485
0.2790918111
0.2790918051
0.2790918405
0.2790919488
0.2790921559
0.2790924925
0.2790921256
0.2790921376
0.2790921462
0.2790921559
0.2790921327
0.2790921391
0.279092127
0.2790921178
0.2790921218
0.279092075
0.2790921086
0.2790921348
0.2790921498
0.2790922391
0.2790909972
0.2790910065
0.2790910257
0.2790910167
0.2790910243
0.279091036
0.2790910455
0.279091056
0.279091065
0.2790910681
0.2790910997
0.2790911387
0.2790912126
0.2790914158
0.2790910314
0.2790910082
0.2790909803
0.2790909783
0.2790909694
0.2790909633
0.2790909938
0.279090982
0.2790909861
0.2790909929
0.2790910461
0.2790911657
0.279091298
0.2790916677
0.2790914384
0.2790914465
0.2790914644
0.2790914645
0.2790914783
0.27909149
0.2790914896
0.2790914885
0.2790915218
0.2790915655
0.2790915629
0.2790916473
0.2790918938
0.2790925303
0.2790920946
0.2790920661
0.2790920584
0.2790920736
0.279092036
0.2790920131
0.2790920376
0.2790919984
0.279091979
0.279092002
0.2790920815
0.2790922075
0.2790925277
0.279093346
0.279091711
0.2790917444
0.2790917452
0.2790917511
0.2790917742
0.2790917638
0.2790917675
0.2790917664
0.2790917704
0.2790917836
0.2790918477
0.2790919053
0.279092148
0.2790927494
0.2790913284
0.2790913362
0.2790913127
0.2790913484
0.2790913266
0.2790912951
0.2790912654
0.2790912772
0.2790912988
0.2790913134
0.2790913322
0.2790913697
0.279091525
0.2790918575
0.2790914297
0.2790914321
0.2790914262
0.279091408
0.2790914264
0.2790914126
0.2790914186
0.2790914055
0.2790914109
0.2790914276
0.2790914262
0.279091462
0.2790915564
0.2790917552
0.2790916878
0.2790917043
0.2790916783
0.2790916554
0.2790916332
0.2790916591
0.2790916736
0.2790916521
0.2790916501
0.2790916522
0.2790916346
0.2790916538
0.2790917025
0.2790918103
)
;

boundaryField
{
    top
    {
        type            calculated;
        value           nonuniform List<scalar> 
134
(
0.2790921867
0.2790913952
0.2790920245
0.2790916266
0.2790917754
0.2790917129
0.2790924852
0.2790918578
0.2790916878
0.2790921902
0.2790913791
0.2790920081
0.2790916325
0.2790917916
0.279091697
0.2790924703
0.2790918641
0.2790917043
0.2790921986
0.2790914115
0.2790920174
0.2790916178
0.2790917695
0.2790917159
0.2790924627
0.2790918956
0.2790916783
0.2790922023
0.2790914168
0.2790919923
0.2790915779
0.2790917545
0.279091709
0.2790924706
0.2790918865
0.2790916554
0.2790921874
0.2790914606
0.279091967
0.2790915818
0.2790917658
0.279091691
0.279092494
0.2790918682
0.2790916332
0.279092167
0.279091425
0.2790919877
0.2790915849
0.2790917977
0.2790917296
0.2790924744
0.2790918748
0.2790916591
0.279092174
0.2790914053
0.2790919977
0.2790915972
0.2790917565
0.2790917384
0.2790924895
0.2790918565
0.2790916736
0.2790921639
0.2790914116
0.2790920193
0.2790915849
0.2790917456
0.2790917345
0.2790924935
0.279091832
0.2790916521
0.279092154
0.2790914147
0.2790919989
0.2790915493
0.2790917635
0.2790917648
0.2790924848
0.2790918485
0.2790916501
0.2790921582
0.2790914349
0.2790920105
0.2790915438
0.2790917778
0.2790917665
0.2790924746
0.2790918111
0.2790916522
0.2790921267
0.2790914375
0.2790920458
0.2790915645
0.2790918547
0.2790918094
0.279092483
0.2790918051
0.2790916346
0.279092137
0.2790914747
0.2790920523
0.2790916882
0.2790919413
0.27909192
0.2790925083
0.2790918405
0.2790916538
0.2790922223
0.2790915139
0.2790921931
0.2790919581
0.2790922438
0.2790921967
0.2790926446
0.2790919488
0.2790917025
0.2790923095
0.2790917257
0.2790925632
0.2790925769
0.2790930605
0.2790928517
0.2790930229
0.2790921559
0.2790918103
0.2790925164
0.2790920781
0.279093271
0.2790938242
0.2790947242
0.2790940458
0.2790937377
0.2790924925
)
;
    }
    bottom
    {
        type            calculated;
        value           nonuniform List<scalar> 
127
(
0.2790920593
0.2790916678
0.2790917274
0.279091683
0.2790920563
0.2790909384
0.2790919384
0.2790914788
0.2790921256
0.2790920689
0.2790916653
0.279091734
0.279091683
0.2790920464
0.2790909453
0.2790919446
0.2790914581
0.2790921376
0.2790920679
0.2790916755
0.2790917388
0.2790917009
0.279092027
0.2790909447
0.2790919291
0.2790914666
0.2790921462
0.2790920902
0.2790916811
0.2790917206
0.2790916662
0.2790920108
0.2790909328
0.279091975
0.2790914572
0.2790921559
0.2790920731
0.2790916648
0.2790917572
0.2790916731
0.27909198
0.2790909779
0.2790919432
0.2790914706
0.2790921327
0.2790920865
0.2790916411
0.2790917645
0.279091668
0.2790920102
0.2790909879
0.2790919367
0.2790914536
0.2790921391
0.2790920798
0.2790916466
0.279091778
0.2790916941
0.279092027
0.2790909726
0.2790918957
0.2790914764
0.279092127
0.2790920661
0.2790916241
0.2790917669
0.279091711
0.2790920252
0.2790909621
0.279091946
0.2790914795
0.2790921178
0.2790920798
0.2790916386
0.2790917559
0.2790916897
0.2790920018
0.279091006
0.2790919108
0.2790914852
0.2790921218
0.2790920702
0.2790916211
0.2790917713
0.2790917085
0.2790920244
0.2790910189
0.279091911
0.2790914967
0.279092075
0.2790920772
0.2790916447
0.2790917905
0.2790917559
0.2790920329
0.2790910279
0.2790919198
0.2790914886
0.2790921086
0.2790920625
0.2790916989
0.2790918445
0.2790918342
0.279092143
0.2790911252
0.279092015
0.279091494
0.2790921348
0.2790921153
0.2790917826
0.2790919666
0.2790920531
0.279092527
0.2790913584
0.2790921577
0.2790915939
0.2790921498
0.2790922435
0.2790919898
0.2790923205
0.2790927059
0.2790933291
0.2790919987
0.2790925286
0.2790917662
0.2790922391
0.2790924841
)
;
    }
    side-walls
    {
        type            calculated;
        value           nonuniform List<scalar> 
261
(
0.2790920593
0.2790907234
0.2790913025
0.2790921053
0.2790919528
0.2790918069
0.2790910406
0.279092204
0.2790921867
0.2790920689
0.2790907251
0.2790912945
0.279092128
0.2790919311
0.2790918359
0.2790910351
0.2790921981
0.2790921902
0.2790920679
0.2790907329
0.2790912912
0.2790921206
0.2790919503
0.2790918323
0.2790910493
0.2790921943
0.2790921986
0.2790920902
0.2790907228
0.2790912938
0.2790921449
0.27909192
0.2790918242
0.2790910129
0.2790921473
0.2790922023
0.2790920731
0.279090731
0.2790912968
0.2790921397
0.2790919308
0.2790918321
0.2790909986
0.2790921709
0.2790921874
0.2790920865
0.2790907231
0.2790912886
0.2790921391
0.2790919252
0.2790918183
0.2790909876
0.279092146
0.279092167
0.2790920798
0.2790907219
0.2790913063
0.2790921549
0.2790919132
0.2790917885
0.2790909974
0.2790921353
0.279092174
0.2790920661
0.2790907341
0.2790912803
0.2790921476
0.2790919273
0.2790918151
0.2790909866
0.2790921094
0.2790921639
0.2790920798
0.2790907196
0.2790912636
0.2790921669
0.2790919136
0.2790918013
0.2790910291
0.2790921296
0.279092154
0.2790920702
0.2790907081
0.2790912367
0.2790921814
0.2790919417
0.2790917935
0.2790910572
0.2790921236
0.2790921582
0.2790920772
0.2790907252
0.2790913067
0.2790922049
0.2790919917
0.2790918489
0.2790910643
0.2790921411
0.2790921267
0.2790920625
0.2790907287
0.2790913358
0.2790922989
0.2790921209
0.2790919672
0.2790911217
0.2790921944
0.279092137
0.2790921153
0.2790908061
0.279091507
0.2790925142
0.2790924394
0.2790922057
0.2790912587
0.2790922502
0.2790922223
0.2790922435
0.2790909982
0.2790918696
0.2790931238
0.2790932559
0.2790928112
0.2790916091
0.2790924617
0.2790923095
0.2790924841
0.2790913529
0.2790925863
0.279094328
0.2790949071
0.2790940085
0.2790923335
0.2790928293
0.2790925164
0.2790921256
0.2790909972
0.2790910314
0.2790914384
0.2790920946
0.279091711
0.2790913284
0.2790914297
0.2790916878
0.2790921376
0.2790910065
0.2790910082
0.2790914465
0.2790920661
0.2790917444
0.2790913362
0.2790914321
0.2790917043
0.2790921462
0.2790910257
0.2790909803
0.2790914644
0.2790920584
0.2790917452
0.2790913127
0.2790914262
0.2790916783
0.2790921559
0.2790910167
0.2790909783
0.2790914645
0.2790920736
0.2790917511
0.2790913484
0.279091408
0.2790916554
0.2790921327
0.2790910243
0.2790909694
0.2790914783
0.279092036
0.2790917742
0.2790913266
0.2790914264
0.2790916332
0.2790921391
0.279091036
0.2790909633
0.27909149
0.2790920131
0.2790917638
0.2790912951
0.2790914126
0.2790916591
0.279092127
0.2790910455
0.2790909938
0.2790914896
0.2790920376
0.2790917675
0.2790912654
0.2790914186
0.2790916736
0.2790921178
0.279091056
0.279090982
0.2790914885
0.2790919984
0.2790917664
0.2790912772
0.2790914055
0.2790916521
0.2790921218
0.279091065
0.2790909861
0.2790915218
0.279091979
0.2790917704
0.2790912988
0.2790914109
0.2790916501
0.279092075
0.2790910681
0.2790909929
0.2790915655
0.279092002
0.2790917836
0.2790913134
0.2790914276
0.2790916522
0.2790921086
0.2790910997
0.2790910461
0.2790915629
0.2790920815
0.2790918477
0.2790913322
0.2790914262
0.2790916346
0.2790921348
0.2790911387
0.2790911657
0.2790916473
0.2790922075
0.2790919053
0.2790913697
0.279091462
0.2790916538
0.2790921498
0.2790912126
0.279091298
0.2790918938
0.2790925277
0.279092148
0.279091525
0.2790915564
0.2790917025
0.2790922391
0.2790914158
0.2790916677
0.2790925303
0.279093346
0.2790927494
0.2790918575
0.2790917552
0.2790918103
)
;
    }
    inlet
    {
        type            calculated;
        value           nonuniform List<scalar> 
81
(
0.2790920593
0.2790907234
0.2790913025
0.2790921053
0.2790919528
0.2790918069
0.2790910406
0.279092204
0.2790921867
0.2790916678
0.2790927454
0.2790920903
0.2790920343
0.2790901132
0.2790914196
0.2790916735
0.2790917967
0.2790913952
0.2790917274
0.2790907599
0.2790921322
0.2790909895
0.2790911447
0.2790920166
0.2790910656
0.2790912875
0.2790920245
0.279091683
0.2790917349
0.2790919434
0.2790908451
0.2790921539
0.2790919758
0.2790914992
0.2790909538
0.2790916266
0.2790920563
0.2790915121
0.2790919982
0.2790917165
0.2790919887
0.2790921493
0.2790910019
0.2790924955
0.2790917754
0.2790909384
0.2790920724
0.2790913262
0.2790918332
0.2790914776
0.2790921647
0.2790919462
0.2790916417
0.2790917129
0.2790919384
0.2790924128
0.2790909194
0.279091944
0.2790913531
0.2790921764
0.2790916036
0.2790910903
0.2790924852
0.2790914788
0.2790914171
0.2790922996
0.2790915206
0.2790920209
0.2790914401
0.2790923147
0.2790934251
0.2790918578
0.2790921256
0.2790909972
0.2790910314
0.2790914384
0.2790920946
0.279091711
0.2790913284
0.2790914297
0.2790916878
)
;
    }
    outlet
    {
        type            calculated;
        value           nonuniform 0();
    }
    procBoundary0to1
    {
        type            processor;
        value           nonuniform List<scalar> 
97
(
0.2790928576
0.2790923148
0.2790919802
0.2790937141
0.279096263
0.2790973169
0.279095931
0.2790934274
0.2790934385
0.2790928881
0.2790923148
0.2790923148
0.2790952366
0.2790938784
0.2790975267
0.2791027278
0.2791058571
0.2791021474
0.2790971163
0.2790942753
0.279092683
0.2790929738
0.2790938784
0.2790938784
0.2791063437
0.2791125181
0.27912475
0.2791504943
0.2791258089
0.2791051885
0.2790967496
0.279094386
0.279093912
0.2790977238
0.2791125181
0.2791125181
0.2791918018
0.2793030955
0.2793270938
0.2791927637
0.2791251593
0.279101716
0.2790957146
0.2790949365
0.2791006636
0.2791321906
0.2793030955
0.2793030955
0.2819828617
0.2793029562
0.2793270247
0.2791621909
0.2791504188
0.2791081823
0.2790971152
0.2790932678
0.2790982341
0.2791118129
0.2791619017
0.2793029562
0.2791621909
0.2791621909
0.2791258023
0.279099642
0.2791026356
0.2790959812
0.2790932666
0.2790954364
0.2790990434
0.2791126485
0.2791313711
0.2791126904
0.279099642
0.279099642
0.2790965311
0.2790945733
0.2790948755
0.2790921197
0.2790927498
0.2790953245
0.2790974479
0.2791013772
0.2790974593
0.2790953423
0.2790945733
0.2790945733
0.279093111
0.2790920294
0.2790924297
0.2790918007
0.2790923509
0.2790937051
0.2790949844
0.279093995
0.2790925239
0.2790921026
0.2790920294
)
;
    }
}


// ************************************************************************* //
