/*--------------------------------*- C++ -*----------------------------------*\
| =========                 |                                                 |
| \\      /  F ield         | OpenFOAM: The Open Source CFD Toolbox           |
|  \\    /   O peration     | Version:  4.x                                   |
|   \\  /    A nd           | Web:      www.OpenFOAM.org                      |
|    \\/     M anipulation  |                                                 |
\*---------------------------------------------------------------------------*/
FoamFile
{
    version     2.0;
    format      ascii;
    class       volVectorField;
    location    "3000";
    object      U;
}
// * * * * * * * * * * * * * * * * * * * * * * * * * * * * * * * * * * * * * //

dimensions      [0 1 -1 0 0 0 0];

internalField   nonuniform List<vector> 
1175
(
(0.01100000025 2.430573468e-10 -4.705830824e-10)
(0.011000001 -4.976787676e-10 -1.580800334e-09)
(0.0110000008 1.382621705e-09 1.138590685e-09)
(0.01099999729 -1.169054698e-09 1.85924131e-09)
(0.01100000137 1.215405316e-09 1.924990539e-09)
(0.01099999945 -5.074941918e-10 -3.418680434e-10)
(0.01099999937 4.571766305e-11 -2.213706079e-10)
(0.01100000006 -3.231961441e-10 -8.867593998e-10)
(0.01100000147 2.009531003e-09 -3.141431997e-09)
(0.01100000134 2.171919186e-09 -4.557185599e-09)
(0.01100001014 -1.897497803e-09 -4.354967511e-09)
(0.01100000615 -3.222258992e-09 -3.240862561e-09)
(0.01100004222 -9.476618834e-09 -9.888924445e-09)
(0.01100005789 -7.257498368e-09 -6.591045064e-09)
(0.01100012161 -3.069530484e-08 -2.783671975e-08)
(0.01100000032 8.222901756e-10 -5.230497227e-10)
(0.0110000008 1.172858926e-10 -2.914407217e-09)
(0.01100000067 -1.732468531e-10 -1.63847941e-09)
(0.01099999926 1.806773996e-09 -9.632063163e-10)
(0.01099999885 6.975360057e-10 -2.986664364e-11)
(0.01099999975 -8.736674416e-10 -1.089678631e-09)
(0.01099999943 -6.647938059e-10 -8.797528079e-10)
(0.01099999679 -1.819388073e-09 -1.685033174e-10)
(0.01099999834 -8.027579561e-10 -1.293547617e-10)
(0.01099999682 -2.86034579e-09 -7.966944662e-10)
(0.01100000637 -8.902948903e-09 -2.062355224e-09)
(0.01099999693 -8.084195999e-09 -2.087359398e-09)
(0.01100003577 -3.202426205e-08 -1.24358042e-08)
(0.01100003187 -2.732718775e-08 -3.485237483e-09)
(0.01100011117 -1.104056511e-07 -4.430350861e-08)
(0.01099999923 -1.391870102e-10 -1.690113263e-10)
(0.01100000078 8.279348773e-10 5.495697326e-10)
(0.01100000133 3.479293564e-10 -3.684692164e-10)
(0.01100000036 9.013147417e-11 1.25293028e-09)
(0.010999998 -3.872546725e-10 3.243629168e-11)
(0.01099999867 2.042458739e-11 -1.629860218e-09)
(0.01099999925 -1.064862656e-09 2.123838842e-10)
(0.01099999656 7.693164101e-10 -1.559634079e-10)
(0.01099999731 2.476461033e-11 -2.295448646e-09)
(0.01099999206 -2.575132177e-09 6.981509488e-10)
(0.01100000052 -5.601739839e-09 -2.970864178e-09)
(0.01099997817 -6.32350703e-09 -3.495012876e-09)
(0.01100001583 -3.410332102e-08 -1.511141775e-08)
(0.01099997161 -2.249992549e-08 -7.827327276e-09)
(0.01100007276 -1.419485926e-07 -9.734634636e-08)
(0.01099999951 1.089804342e-09 -1.678285367e-09)
(0.01099999807 -5.500088781e-10 1.119698304e-09)
(0.0110000002 7.994239036e-11 4.066693918e-10)
(0.01099999907 2.872558036e-10 -2.873033014e-09)
(0.01099999757 3.690102023e-10 3.940719834e-10)
(0.01099999889 4.825669636e-10 -8.843468105e-10)
(0.01099999915 3.09993199e-10 5.543897147e-10)
(0.01099999638 1.077020591e-09 -1.256838677e-09)
(0.01099999808 -1.169728342e-09 -1.515874182e-09)
(0.01099999052 -1.036146664e-09 1.024295354e-09)
(0.0110000006 -5.632671462e-09 3.157972097e-10)
(0.01099996702 -7.685095484e-09 -2.032353727e-10)
(0.01100001292 -4.390263652e-08 -1.081457621e-08)
(0.0109999234 -3.953354002e-08 3.129193451e-09)
(0.01100006179 -2.294654209e-07 -1.371040043e-07)
(0.01099999809 -9.7205118e-10 -2.887162256e-09)
(0.01099999971 1.040809028e-10 5.559797072e-10)
(0.01100000092 4.893052742e-10 -4.050173536e-10)
(0.01099999912 -2.851752227e-10 9.16737652e-11)
(0.01099999864 8.179722553e-10 -8.264371375e-10)
(0.0109999986 3.389972426e-10 -4.834836907e-10)
(0.01099999959 1.991111879e-09 -6.494665768e-10)
(0.01099999747 1.352637462e-09 -1.355551858e-09)
(0.01099999888 2.023376157e-09 1.076580772e-09)
(0.01099998562 1.52546788e-09 1.655634896e-09)
(0.0109999925 1.443083863e-09 -1.969992867e-10)
(0.0109999367 -8.239228065e-10 -1.251120581e-09)
(0.01099997465 1.274089178e-09 -2.769088947e-08)
(0.01099978324 -5.389871805e-10 -1.620661368e-08)
(0.01099999559 -2.291680779e-10 -3.42857698e-07)
(0.01100000083 1.380913178e-09 7.681779825e-10)
(0.01100000086 1.290953753e-09 1.276021364e-09)
(0.0110000012 5.027452568e-10 -6.897922184e-10)
(0.01100000028 -1.595797305e-10 -7.518327033e-10)
(0.01100000071 1.18897411e-09 1.434694823e-09)
(0.01100000016 1.089826032e-09 -1.185208419e-09)
(0.01100000235 4.551810911e-10 2.361240218e-09)
(0.01099999773 2.739292216e-10 -6.659466401e-10)
(0.01099999854 6.621834359e-10 -3.6520503e-10)
(0.01099999125 1.791775628e-09 1.416395043e-09)
(0.0110000007 6.409406851e-09 2.218211765e-09)
(0.01099996696 8.438384251e-09 1.8578587e-09)
(0.01100001023 4.45032078e-08 -9.558803344e-09)
(0.01099992277 4.128837306e-08 3.20081155e-09)
(0.01100006276 2.314866545e-07 -1.375125402e-07)
(0.01099999971 2.396873238e-09 -5.761842323e-10)
(0.01099999824 1.38552445e-09 1.164717006e-09)
(0.010999999 8.266593334e-10 4.264963077e-10)
(0.01100000007 3.79983721e-10 -1.28001876e-10)
(0.01100000304 -2.9359676e-10 3.992570686e-10)
(0.01099999984 7.054223127e-10 -1.470467038e-09)
(0.0110000009 -3.967875835e-10 -1.121636912e-09)
(0.01099999725 -1.912003444e-10 -3.622888316e-10)
(0.01099999925 7.286905284e-10 1.51770989e-09)
(0.01099999082 2.189725479e-09 -1.642465819e-10)
(0.0110000007 6.042926073e-09 -1.713221715e-09)
(0.01099997507 7.215649941e-09 -1.213846379e-09)
(0.01100001552 3.408164987e-08 -1.499714754e-08)
(0.01099996962 2.240237066e-08 -6.289967786e-09)
(0.01100007117 1.408195368e-07 -9.674651845e-08)
(0.01099999942 1.620373291e-09 -2.234979595e-10)
(0.0109999983 5.805348865e-10 2.371586736e-09)
(0.01099999907 1.844122808e-10 7.868432515e-10)
(0.01100000122 8.727697556e-10 -1.386076996e-09)
(0.01099999885 -5.220806546e-11 3.032687736e-10)
(0.01100000002 2.730751184e-10 -5.86485476e-10)
(0.0110000005 5.731814289e-10 3.417938334e-10)
(0.01099999964 -6.332545366e-11 1.791575567e-09)
(0.01100000106 5.569704511e-10 1.692578848e-09)
(0.01099999851 2.434617079e-09 2.96237921e-10)
(0.01100000668 6.975723886e-09 -2.206753486e-09)
(0.01099999679 9.059876093e-09 -2.038836771e-09)
(0.01100003363 3.228504958e-08 -1.370599362e-08)
(0.01100003294 2.726203877e-08 -3.825577461e-09)
(0.01100010646 1.108702442e-07 -4.491399104e-08)
(0.01099999898 2.029285293e-10 2.512088307e-10)
(0.01099999698 -2.019663105e-11 -1.531163356e-09)
(0.01099999868 -1.013856269e-09 -2.171928802e-09)
(0.01100000089 -2.941990824e-10 4.757188036e-10)
(0.0109999993 1.574812925e-09 2.573109304e-09)
(0.01099999989 -1.706241431e-09 4.298389113e-10)
(0.01100000138 7.139341259e-10 4.011915828e-09)
(0.01099999787 1.466259573e-09 2.398168449e-09)
(0.01100000327 1.806154033e-10 3.922055924e-10)
(0.01099999859 1.316902195e-09 2.497888398e-09)
(0.01100000988 2.726010535e-09 -1.663039094e-09)
(0.01100000819 1.528700345e-09 -9.033456226e-10)
(0.01100004025 1.075260345e-08 -1.303240551e-08)
(0.01100005646 8.578843584e-09 -8.721329146e-09)
(0.01100012155 3.042924213e-08 -3.111626713e-08)
(0.01100000136 1.709699777e-09 -5.922234354e-10)
(0.01100000276 1.656045875e-09 2.659063916e-10)
(0.0110000014 1.040139468e-10 -3.999065052e-10)
(0.0109999991 3.344066302e-10 -2.137827631e-10)
(0.01100000161 4.01288915e-10 7.471341207e-10)
(0.01100000084 -7.026514757e-10 9.012126068e-10)
(0.01099999938 -1.39594334e-10 6.058733451e-10)
(0.01099999761 -4.886455119e-10 2.985189226e-10)
(0.01100000238 1.49941722e-09 3.05610918e-10)
(0.01099999851 -5.015697834e-10 -2.949932946e-09)
(0.0110000078 -5.782927968e-10 -8.417497285e-09)
(0.010999995 -1.435939323e-09 -7.57879868e-09)
(0.0110000351 -1.099364322e-08 -3.405821686e-08)
(0.01100003157 -3.588017205e-09 -2.684722555e-08)
(0.01100000087 1.196853208e-09 -7.6411089e-10)
(0.01100000004 1.227429393e-09 2.477884543e-10)
(0.01100000035 -6.193802501e-10 3.463921726e-10)
(0.01100000053 -8.405586455e-10 1.961573546e-10)
(0.01099999842 -2.453436354e-10 -4.593711504e-10)
(0.01100000006 -8.181677593e-10 6.163757342e-11)
(0.01099999992 -1.868405994e-09 1.383660157e-09)
(0.01099999848 5.244526047e-10 5.132417522e-10)
(0.01099999899 -2.498331756e-10 -1.101511535e-09)
(0.01099999535 1.987902328e-10 -1.059711911e-09)
(0.0110000058 -6.741362356e-09 -6.739371629e-09)
(0.01099998614 -6.270174931e-09 -7.0595099e-09)
(0.01100002844 -3.867812455e-08 -3.851388299e-08)
(0.01099999705 -2.700388353e-08 -2.714695881e-08)
(0.01100009176 -1.774760881e-07 -1.775723705e-07)
(0.01100000189 7.921970128e-10 2.676458924e-10)
(0.010999999 1.423369822e-09 7.056799039e-10)
(0.01099999969 1.488920569e-09 -3.938597775e-10)
(0.01099999982 2.081251166e-10 -4.692263332e-10)
(0.01099999752 1.74270424e-09 -7.427635616e-11)
(0.01099999839 2.59350136e-10 5.6785805e-10)
(0.01099999995 1.835393291e-10 7.267463205e-10)
(0.01099999665 3.161839429e-10 9.264123013e-10)
(0.01099999938 -1.128966994e-09 -4.674420788e-10)
(0.01099999091 -6.098801215e-10 -5.06934874e-10)
(0.01099999787 -2.862707639e-09 -5.396375995e-09)
(0.01099996129 -3.436502977e-09 -7.338521551e-09)
(0.01100000348 -3.160269386e-08 -5.32097923e-08)
(0.01099989204 -1.28072342e-08 -3.652336075e-08)
(0.01100003233 -2.371132337e-07 -3.920477144e-07)
(0.01100000089 -5.361129002e-10 -1.761118855e-10)
(0.01099999946 -7.14008812e-10 5.709603266e-10)
(0.01100000008 -2.30804393e-10 -2.209331588e-10)
(0.01099999936 1.44913266e-09 -2.642360172e-10)
(0.01100000041 1.27667326e-09 -1.345221885e-09)
(0.010999998 1.742864542e-09 -2.536462235e-10)
(0.01099999899 2.962909944e-10 -9.991100917e-10)
(0.01099999758 3.344932796e-10 -1.101357959e-10)
(0.01100000127 4.079052797e-10 2.757828941e-09)
(0.01099999158 -2.676468278e-10 3.287506343e-09)
(0.01099999841 -2.946910696e-09 5.623092135e-09)
(0.01099996128 -6.090866439e-09 6.012140081e-10)
(0.01099999882 -5.269329284e-08 -3.525634148e-08)
(0.01099981722 -4.751407627e-08 -2.231083767e-08)
(0.01099999922 -4.848238531e-07 -6.222515957e-07)
(0.01100000019 8.201633211e-10 -5.492489111e-10)
(0.0110000004 1.091073403e-09 -1.438010523e-10)
(0.01100000078 1.036206974e-09 -9.74235875e-10)
(0.01100000021 5.956710692e-10 -1.922382354e-10)
(0.01100000051 2.1003052e-10 -1.740360586e-09)
(0.01099999868 8.691607999e-10 2.201003673e-10)
(0.01099999932 2.929444561e-09 1.043861341e-09)
(0.01099999709 2.835142172e-09 1.136436032e-09)
(0.01099999988 2.012949214e-09 4.306357561e-09)
(0.01099998605 4.278417749e-10 5.200148905e-09)
(0.01099999131 1.640382713e-09 5.939767545e-09)
(0.01099991231 -4.687789666e-10 -3.0560885e-10)
(0.01099993325 7.917079282e-10 -7.883146566e-08)
(0.01099950449 -6.785643244e-11 -7.833259825e-08)
(0.01099983531 -4.876803624e-10 -1.556233335e-06)
(0.01100000007 1.134444561e-09 -3.594143574e-11)
(0.01100000043 2.166947893e-09 2.877544344e-10)
(0.01100000203 7.535254241e-10 6.634412748e-10)
(0.01100000121 1.291507278e-09 2.000484026e-09)
(0.01099999914 1.506168732e-09 -1.402751737e-09)
(0.01100000016 3.192445809e-10 -1.390351337e-10)
(0.01100000011 -6.229354463e-10 -6.947445971e-11)
(0.01099999841 1.816267646e-10 1.354326242e-09)
(0.01099999928 -1.417843739e-09 1.332475276e-09)
(0.01099999421 4.550872882e-10 2.186147633e-09)
(0.01100000085 4.034739727e-09 5.660663653e-09)
(0.01099995943 7.137702146e-09 5.773912848e-11)
(0.01099999568 5.399179081e-08 -3.531778677e-08)
(0.01099981565 4.726099888e-08 -2.050812767e-08)
(0.01099999688 4.851941185e-07 -6.219338422e-07)
(0.01100000043 1.383389491e-09 8.470336582e-10)
(0.0109999999 6.069930483e-10 -3.999234959e-10)
(0.01100000051 3.880786614e-10 2.20862025e-10)
(0.01100000081 -8.849471192e-10 9.657860324e-10)
(0.01100000036 -1.222341137e-09 8.647310481e-10)
(0.01099999878 -5.784308326e-10 -7.512284529e-10)
(0.01099999907 2.002310686e-09 -5.047928861e-10)
(0.01099999801 7.213741762e-10 -1.309449407e-09)
(0.01099999686 2.577275919e-09 8.798385389e-11)
(0.01099999018 -1.964837261e-10 -8.385430054e-12)
(0.01099999815 4.578631441e-10 -3.992303967e-09)
(0.01099996358 2.32482533e-09 -5.433315108e-09)
(0.0110000019 3.248027872e-08 -5.153110491e-08)
(0.01099988956 1.20907921e-08 -3.607301049e-08)
(0.01100003277 2.37291514e-07 -3.880068188e-07)
(0.0109999994 9.94798004e-10 -5.72700115e-11)
(0.01099999969 4.222471365e-10 1.623902329e-10)
(0.01099999948 3.171487668e-10 -8.603783638e-10)
(0.01099999966 8.560790743e-12 -1.569212117e-10)
(0.01099999948 -5.688460718e-10 4.338217676e-11)
(0.01099999977 2.742260706e-10 -1.496726531e-10)
(0.01099999961 -5.881371179e-10 2.224164253e-10)
(0.0109999993 1.019051586e-09 -4.528744731e-10)
(0.01099999692 8.371456251e-10 -4.376182743e-10)
(0.01099999274 4.078796107e-10 -7.711562812e-10)
(0.01100000456 5.591488782e-09 -4.298895965e-09)
(0.01099998722 7.122764929e-09 -4.973994635e-09)
(0.01100002765 3.703871863e-08 -3.637662114e-08)
(0.01099999347 2.728983706e-08 -2.624064538e-08)
(0.01100009219 1.770984055e-07 -1.754093427e-07)
(0.01099999824 1.590805497e-09 -7.739842741e-10)
(0.01099999838 -2.591215786e-10 -3.321416632e-10)
(0.01100000059 1.546884568e-09 -2.704968942e-10)
(0.01099999854 1.09231043e-09 1.062134314e-09)
(0.01099999683 5.581615304e-10 -1.271334169e-09)
(0.01100000011 -1.622252001e-09 7.449525912e-10)
(0.01100000237 -5.139075516e-10 1.279540293e-10)
(0.01099999799 1.740175604e-10 -3.461163282e-11)
(0.01100000014 -7.069862164e-10 -1.109403881e-09)
(0.0109999928 1.47909479e-09 -1.432515241e-09)
(0.01100000723 1.946154197e-09 -5.57684435e-09)
(0.01099999587 2.516117287e-09 -6.581274349e-09)
(0.01100003497 1.085710239e-08 -3.315682776e-08)
(0.01100003398 3.747039914e-09 -2.827387383e-08)
(0.01100010956 4.617798628e-08 -1.102237293e-07)
(0.01099999993 6.840314632e-10 -2.318592756e-10)
(0.01100000101 8.322453854e-10 2.878472532e-10)
(0.01100000003 -4.218228323e-11 -1.237944664e-09)
(0.01100000032 -5.647731717e-10 -1.33398157e-09)
(0.01100000081 -6.864634729e-11 -1.367701111e-10)
(0.01099999972 2.095820791e-09 -6.259515117e-10)
(0.01099999975 -5.475658354e-10 7.426065182e-10)
(0.01099999756 1.706387424e-09 1.837758365e-09)
(0.0109999995 1.6930007e-09 2.499507e-11)
(0.01099999103 4.364884564e-10 -2.413800309e-09)
(0.01100000017 -4.164237029e-10 -8.745658588e-09)
(0.01099997444 3.937259328e-10 -9.974147739e-09)
(0.01100001577 -1.591186345e-08 -3.506461965e-08)
(0.0109999719 -6.025618032e-09 -2.155236116e-08)
(0.01099999839 1.118307437e-09 1.232360412e-10)
(0.01099999918 -2.443090399e-09 -1.595690776e-09)
(0.01099999918 -4.487048998e-10 -5.426974338e-10)
(0.01100000032 -6.782688464e-10 -2.51695213e-10)
(0.01099999889 9.275769367e-10 5.983489964e-10)
(0.01100000088 -1.244399901e-09 -7.933499031e-10)
(0.01099999937 -2.095944919e-10 -3.904371123e-10)
(0.01099999466 -6.217734739e-10 -7.875874572e-11)
(0.01099999929 4.835954511e-10 -5.531820738e-10)
(0.01099999045 4.955008936e-10 -1.10944094e-09)
(0.01099999809 -2.80173201e-09 -3.863319044e-09)
(0.01099996186 -6.930925602e-09 -6.328039407e-09)
(0.01100000455 -5.258457461e-08 -3.125945062e-08)
(0.01099989122 -3.601695097e-08 -1.159931417e-08)
(0.01099999954 1.49620554e-09 -1.404667535e-10)
(0.01099999745 1.205031813e-09 -1.746441786e-09)
(0.01099999913 1.38703094e-09 5.856021393e-10)
(0.01100000085 1.130048294e-09 -1.916476157e-09)
(0.01099999973 8.472658737e-10 -1.897160628e-10)
(0.01099999877 -2.67522977e-10 -7.258115121e-10)
(0.01099999915 -2.439314435e-09 -5.262562119e-10)
(0.01099999645 5.303287864e-10 -7.995556421e-10)
(0.01099999724 2.328064056e-09 2.077297009e-09)
(0.01099998605 3.345140999e-09 2.828074242e-09)
(0.01099999074 5.360274172e-09 7.254856277e-09)
(0.01099992982 2.681632218e-09 5.153421399e-10)
(0.01099995331 -3.052886168e-08 -2.85376721e-08)
(0.01099966345 -1.56704312e-08 -1.472255907e-08)
(0.01099986432 -5.882730063e-07 -5.93194392e-07)
(0.0110000001 3.032859275e-10 -5.625769099e-10)
(0.01099999983 6.299396751e-10 -2.357183358e-09)
(0.01099999908 -2.920562133e-10 -2.081162568e-09)
(0.0110000001 5.196615531e-10 -6.031607419e-11)
(0.01100000008 -4.212172401e-10 -2.04510088e-09)
(0.01099999728 1.184199374e-09 -1.619059654e-09)
(0.01099999968 4.958929557e-10 1.17269264e-10)
(0.01099999922 6.693135689e-10 2.095573282e-09)
(0.01100000068 2.190510428e-09 7.590609285e-09)
(0.01099999005 4.557307477e-10 1.015874407e-08)
(0.0109999949 3.275128046e-09 2.550809355e-08)
(0.01099993712 -2.408824454e-09 1.706359566e-08)
(0.01099991532 -7.037483209e-08 5.577624179e-08)
(0.01099950245 -8.086965328e-08 1.249282189e-08)
(0.01099956854 -1.416135434e-06 -9.08127791e-07)
(0.01099999992 1.636164396e-10 2.55078753e-09)
(0.01099999714 1.640472921e-09 -1.060713704e-09)
(0.01100000138 1.434325317e-09 -1.828206657e-10)
(0.01100000059 1.521131182e-09 -3.718270281e-10)
(0.01100000003 -4.966746454e-10 1.58468448e-10)
(0.01099999792 1.055788772e-09 -2.3545608e-09)
(0.01100000052 2.480814732e-09 1.034356105e-11)
(0.01099999845 7.190929984e-10 1.243607022e-09)
(0.01099999736 1.139544312e-09 7.597035564e-09)
(0.01099999093 8.256244906e-11 1.09494952e-08)
(0.01099998433 1.447315159e-09 3.623525128e-08)
(0.01099986917 6.42265683e-10 2.589151378e-08)
(0.01099976163 1.802865459e-09 6.110884665e-08)
(0.01099864572 6.765167822e-10 -9.23720667e-08)
(0.01099860334 1.647304372e-09 -3.200206957e-06)
(0.01099999932 9.125566001e-10 8.142636804e-10)
(0.01100000004 8.034952451e-10 -2.168132997e-10)
(0.01100000024 1.733710944e-09 6.352836171e-10)
(0.01099999765 1.615945123e-09 2.519554796e-12)
(0.01099999855 1.873153267e-09 -2.255053866e-10)
(0.01100000086 1.057630752e-09 -5.007039133e-10)
(0.0110000022 1.914524289e-09 7.459010518e-10)
(0.01099999847 3.906293217e-10 1.040129709e-09)
(0.01100000095 -1.779727563e-09 7.069973507e-09)
(0.01099999541 -1.466686196e-09 8.705246506e-09)
(0.01099999261 -2.935951378e-09 2.646318666e-08)
(0.01099994084 3.620376137e-09 1.819085204e-08)
(0.01099991407 7.104085168e-08 5.64275029e-08)
(0.01099950177 7.961929199e-08 1.353892585e-08)
(0.01099956685 1.41628486e-06 -9.078669354e-07)
(0.01099999942 1.819378242e-09 -6.485219844e-10)
(0.01099999803 1.158188168e-09 -1.542530073e-09)
(0.01100000036 -3.280209003e-10 -1.244686193e-10)
(0.01100000078 -6.592519796e-10 -3.351633508e-10)
(0.01099999844 2.168941759e-09 -8.644958132e-11)
(0.01100000045 9.357834784e-10 4.233584627e-10)
(0.01099999876 1.484455757e-09 1.334205128e-09)
(0.01099999789 1.438342308e-10 1.50596677e-09)
(0.01099999771 -1.870731542e-09 2.509681557e-09)
(0.01099998705 -3.32764843e-09 3.585814237e-09)
(0.01099999257 -5.624263677e-09 6.546316312e-09)
(0.01099992717 -2.884471329e-09 3.468958274e-09)
(0.01099995462 2.987246233e-08 -2.952826991e-08)
(0.01099966286 1.499399985e-08 -1.366234161e-08)
(0.01099986621 5.925622216e-07 -5.9249751e-07)
(0.01099999897 -3.844061839e-10 -5.360319445e-10)
(0.01099999922 -1.771179125e-11 -1.297149929e-09)
(0.01099999959 2.281462137e-12 -8.501391601e-10)
(0.01099999969 -1.017771067e-10 2.388036815e-10)
(0.01099999956 -3.279105786e-10 -6.289677623e-10)
(0.0109999998 -1.535024112e-09 -1.217681642e-10)
(0.01099999934 -6.590686339e-10 1.142423183e-11)
(0.01099999556 9.177099272e-10 -1.118241067e-09)
(0.01099999674 -1.487409461e-09 -1.77320142e-09)
(0.01099999081 1.942245312e-09 3.133350872e-10)
(0.01099999869 3.746881479e-09 -1.092608721e-09)
(0.010999961 7.441198631e-09 -1.637538606e-09)
(0.01100000485 5.240881846e-08 -3.099320364e-08)
(0.01099989175 3.57861286e-08 -1.256892068e-08)
(0.01100003394 3.896695755e-07 -2.357682326e-07)
(0.0110000009 -1.300673865e-09 -1.591522705e-09)
(0.01100000046 1.251183439e-09 5.019720246e-10)
(0.01099999873 -1.507340766e-11 -1.838399821e-11)
(0.01099999947 1.582704835e-09 -1.874608336e-09)
(0.01099999947 -7.003122364e-10 -2.058442621e-09)
(0.01099999949 5.098848591e-11 3.74561516e-10)
(0.01100000158 -2.46197339e-10 -3.255973717e-10)
(0.01099999506 1.023706204e-09 -2.127969541e-09)
(0.01099999873 -5.991853534e-10 -1.40841488e-09)
(0.01099999049 -4.069937515e-10 -1.80006609e-09)
(0.01100000086 2.561990723e-09 -5.913232289e-09)
(0.01099997588 9.242956912e-10 -7.515486026e-09)
(0.01100001604 1.536578018e-08 -3.125594163e-08)
(0.01099997089 7.682307043e-09 -2.054531513e-08)
(0.01100007048 9.692923596e-08 -1.388162919e-07)
(0.01099999974 1.498065898e-09 -2.090608494e-11)
(0.01100000318 -2.1312938e-09 -8.529234677e-11)
(0.01100000165 6.834633712e-11 -4.587872379e-10)
(0.01099999988 1.451703906e-09 1.263103651e-09)
(0.01100000095 4.523492982e-10 -2.356457981e-10)
(0.01100000055 -7.266354374e-10 2.378419834e-10)
(0.01100000146 1.232931435e-09 -1.353952476e-09)
(0.01099999676 -3.249453377e-10 -5.820796697e-10)
(0.01099999835 6.173006745e-10 -1.418790457e-09)
(0.01099999162 1.568731591e-09 -2.521955987e-09)
(0.01099999922 3.874286997e-10 -4.987685619e-09)
(0.01099996923 2.247563507e-09 -1.022800771e-08)
(0.0110000148 -7.484946749e-09 -4.386280979e-08)
(0.01099992694 4.193218991e-09 -4.115289145e-08)
(0.01100000012 4.610222268e-10 1.809420114e-10)
(0.01099999895 -2.536944319e-10 5.714580985e-11)
(0.01099999892 4.857487482e-10 3.942269704e-10)
(0.01099999935 -1.619669354e-09 -5.864090113e-10)
(0.01100000117 -1.760555841e-10 -7.546514054e-10)
(0.01100000136 1.43135555e-09 1.8132271e-10)
(0.01099999912 -1.008493616e-09 6.756266537e-12)
(0.01099999742 -1.005947193e-10 6.607177786e-10)
(0.01099999771 1.497869948e-09 -3.138447872e-10)
(0.01099999192 3.676269085e-09 -1.622373826e-09)
(0.01100000011 5.003685822e-09 -3.256163017e-09)
(0.01099996137 1.613141255e-09 -6.771095559e-09)
(0.01099999979 -3.252480075e-08 -5.610720499e-08)
(0.01099981744 -2.121493509e-08 -4.761029748e-08)
(0.01099999873 -3.357490703e-10 -1.174638588e-11)
(0.01099999997 1.019929033e-09 7.272773846e-10)
(0.01099999812 -1.091193388e-09 -1.055423962e-09)
(0.01099999863 8.461456083e-10 -1.43852314e-09)
(0.01100000223 -6.881896594e-10 -3.05679147e-10)
(0.01100000123 -2.136916575e-09 1.305216014e-10)
(0.01099999766 -1.669561514e-09 4.570556043e-10)
(0.01099999865 5.820028837e-10 -1.802583588e-10)
(0.01100000217 5.791534392e-09 1.817602198e-09)
(0.01099999399 9.684500724e-09 2.613597133e-09)
(0.01099999633 2.795782042e-08 3.562192784e-09)
(0.01099994205 1.8469169e-08 -2.29917968e-09)
(0.01099991357 5.608116434e-08 -7.181797088e-08)
(0.01099950336 1.24991608e-08 -7.96716194e-08)
(0.01100000102 1.534722835e-09 -1.069518354e-09)
(0.01100000057 -7.53381051e-10 7.13063991e-10)
(0.01100000085 -3.44827414e-10 2.574271042e-11)
(0.01099999983 2.061430392e-09 -1.04008348e-09)
(0.01099999852 5.845985932e-10 -4.602328108e-10)
(0.01099999882 -2.888537001e-10 1.448468794e-10)
(0.01100000127 -7.221366702e-10 1.923865151e-09)
(0.01100000318 9.050570998e-10 1.378875913e-09)
(0.01100000819 4.938946607e-09 3.949964222e-09)
(0.01100001298 6.379756422e-09 4.945272982e-09)
(0.01100000328 2.678691486e-08 2.648559502e-08)
(0.0110000381 1.715073697e-08 1.741204621e-08)
(0.01099978194 3.52003779e-08 3.667208109e-08)
(0.01099963514 -1.243180573e-07 -1.224764603e-07)
(0.01099789158 -3.093723435e-06 -3.09148301e-06)
(0.01099999907 2.060261216e-09 -3.735194603e-10)
(0.01099999888 2.071848254e-09 -1.388246548e-10)
(0.01099999893 1.948777535e-09 6.224178987e-10)
(0.01100000093 2.276040113e-09 -3.577630781e-10)
(0.01099999931 1.938360216e-09 -1.018008518e-09)
(0.01100000019 1.501658871e-09 3.014028356e-11)
(0.01100000248 2.529412473e-09 9.266964307e-10)
(0.01100000382 2.08942768e-09 3.244835649e-09)
(0.01100000884 4.198040935e-10 7.704900584e-09)
(0.01100001811 -1.76350036e-09 1.350369171e-08)
(0.01099999732 2.596244257e-09 4.589555698e-08)
(0.01100001076 2.513085119e-09 7.315205878e-08)
(0.0109993996 1.735078811e-09 1.013389987e-07)
(0.01099818723 9.213964652e-10 1.887905469e-07)
(0.01099119725 1.457703399e-09 -1.491799553e-05)
(0.01099999898 -4.375327194e-10 3.044154473e-10)
(0.010999999 4.220801818e-10 -6.122113925e-11)
(0.01100000062 3.519314684e-10 -6.607059597e-10)
(0.01099999995 -2.465095214e-10 -7.225337015e-10)
(0.01099999733 1.221857207e-09 3.787013898e-10)
(0.01100000197 1.994339198e-09 3.185258193e-10)
(0.01100000346 2.185327425e-09 6.487824369e-10)
(0.01100000062 2.417862441e-10 1.881740636e-09)
(0.01100000523 -5.404260992e-09 4.34475091e-09)
(0.01100001638 -6.194451005e-09 6.523457717e-09)
(0.01100000378 -2.600798943e-08 2.711187842e-08)
(0.01100003761 -1.655455906e-08 1.781773499e-08)
(0.01099978188 -3.457639709e-08 3.782547836e-08)
(0.01099963208 1.245703211e-07 -1.232216545e-07)
(0.01099789036 3.092485327e-06 -3.091202569e-06)
(0.01099999995 1.701033541e-10 -1.0546545e-09)
(0.01099999974 1.122067494e-10 -1.683885897e-09)
(0.01100000023 -2.594219363e-10 6.602843997e-11)
(0.01100000123 1.254017533e-10 -9.905688152e-12)
(0.01100000063 4.860921136e-10 1.019589105e-09)
(0.01100000017 1.060809831e-09 2.282926174e-10)
(0.01099999755 1.196589508e-09 -1.429596882e-10)
(0.01099999801 -9.311327769e-10 3.351375109e-10)
(0.0110000014 -5.516208756e-09 8.518123339e-10)
(0.01099999484 -6.892834107e-09 1.883525743e-09)
(0.01099999554 -2.673000938e-08 4.770827253e-09)
(0.01099993988 -1.838874459e-08 -1.930253216e-09)
(0.01099991563 -5.543868448e-08 -7.043029689e-08)
(0.0109995005 -1.273579644e-08 -8.004878986e-08)
(0.01099956364 9.090966718e-07 -1.416012929e-06)
(0.01099999996 7.348134258e-10 -1.448473773e-09)
(0.01099999961 6.083580054e-10 -5.081827638e-10)
(0.01099999907 -6.285894649e-10 -1.105220802e-10)
(0.01100000009 -5.209846774e-10 -2.827511817e-10)
(0.01100000228 -9.190024174e-10 2.37500031e-10)
(0.01099999785 -5.493166588e-10 6.341350017e-10)
(0.01100000004 -1.523858342e-09 -8.565927928e-10)
(0.0109999969 -1.300449982e-09 -8.99632559e-10)
(0.01100000012 -1.554427827e-09 -1.083652444e-09)
(0.01099999308 -2.906608863e-09 7.292435451e-11)
(0.01099999887 -6.079572707e-09 -1.582543141e-09)
(0.01099995747 -3.609461822e-10 -6.585791085e-09)
(0.01099999662 3.434257943e-08 -5.283504661e-08)
(0.01099981784 2.177247692e-08 -4.572899869e-08)
(0.01099999822 6.21847272e-07 -4.840964696e-07)
(0.01100000033 -1.396356387e-09 -1.776970518e-09)
(0.01100000017 5.232362883e-10 -2.190779711e-09)
(0.0109999986 1.182343548e-09 -1.114062594e-09)
(0.01100000161 -8.161799983e-10 -3.197839856e-10)
(0.01100000027 -1.004126645e-09 1.259164135e-09)
(0.01099999966 -5.884889469e-10 1.061471412e-09)
(0.01099999846 1.333858712e-10 -2.532019755e-10)
(0.01099999641 -4.483566624e-10 -1.12164205e-09)
(0.01099999865 -5.04152287e-10 7.926940728e-11)
(0.01099999187 -1.557430857e-09 -2.114619371e-09)
(0.01100000248 -3.455526842e-09 -6.452330924e-09)
(0.01099997104 -3.12687186e-09 -8.474271912e-09)
(0.01100001234 1.051925359e-08 -4.410153315e-08)
(0.01099992577 -2.009740931e-09 -3.956481264e-08)
(0.01100005973 1.368868605e-07 -2.31459205e-07)
(0.01100000003 1.907460266e-09 5.566463232e-10)
(0.01100000118 2.632073585e-11 6.312746244e-10)
(0.01100000059 -7.965858005e-10 2.015332042e-10)
(0.01099999919 -1.684851336e-09 6.389728302e-10)
(0.01100000011 -3.481720041e-10 -3.862823589e-11)
(0.01100000024 1.554592119e-09 1.161604149e-09)
(0.01099999882 3.754019791e-10 -1.247971548e-09)
(0.01099999622 1.730957057e-09 -2.082068407e-09)
(0.01099999738 1.285469135e-09 -1.145197795e-09)
(0.01099998594 3.51314024e-10 7.052408568e-10)
(0.01099999306 2.561613609e-09 -1.614453593e-09)
(0.01099993879 3.294320645e-09 -9.26842064e-10)
(0.01099997822 -2.369386253e-08 4.400665263e-10)
(0.01099978376 -1.270429647e-08 1.128045797e-10)
(0.01099999942 5.83576286e-10 5.692884743e-10)
(0.01100000238 -1.712977258e-09 1.281562938e-09)
(0.0110000001 -9.496036984e-10 -7.237091763e-10)
(0.01099999957 -2.142292589e-09 3.916642414e-10)
(0.01099999959 9.828109353e-10 3.768945352e-10)
(0.01099999927 -6.997888667e-10 1.003176493e-09)
(0.01099999847 -7.267838376e-10 -2.31520427e-10)
(0.01099999661 5.058632034e-10 -1.044191195e-09)
(0.01099999818 1.648768604e-09 -5.472053329e-10)
(0.01099998617 3.872561238e-09 -2.328234096e-10)
(0.01099999247 6.508432688e-09 -4.412118856e-10)
(0.01099991468 1.513884091e-09 -2.624714217e-10)
(0.01099993523 -7.608152485e-08 4.500280161e-10)
(0.0109995064 -7.731461942e-08 -7.137507376e-10)
(0.01100000064 7.896604465e-10 3.867079266e-10)
(0.01099999818 7.668087405e-10 -2.155210052e-10)
(0.01100000064 -1.837888624e-09 6.980556146e-10)
(0.01099999998 5.568537626e-10 2.562838774e-09)
(0.01100000117 1.959659983e-10 5.806813986e-10)
(0.01100000073 -7.5752023e-10 9.829617216e-10)
(0.01100000153 9.597582436e-10 1.067692787e-09)
(0.01099999762 4.205098675e-09 1.169164233e-09)
(0.0110000023 9.866042243e-09 4.016863545e-10)
(0.01099998905 1.281875485e-08 -8.911977456e-10)
(0.0109999846 3.84124349e-08 -1.604670685e-09)
(0.01099986954 3.024009129e-08 1.353597632e-10)
(0.0109997642 6.248364451e-08 1.207767035e-10)
(0.01099864537 -8.999226607e-08 2.430273202e-10)
(0.01099999877 1.856126283e-10 3.262629839e-09)
(0.01099999791 1.149505715e-09 5.707757652e-10)
(0.01100000066 9.911815076e-10 1.367749906e-09)
(0.011000001 1.786472928e-09 2.44893028e-10)
(0.01100000154 -6.795273739e-10 1.369680185e-10)
(0.01100000059 1.514904375e-09 1.492391235e-09)
(0.01100000218 2.037628437e-09 4.084217795e-10)
(0.01100000251 2.90507904e-09 6.240190858e-10)
(0.01100000544 8.06389351e-09 1.955123425e-10)
(0.01100001912 1.271713176e-08 -7.993231132e-10)
(0.01099999737 4.648698844e-08 -1.034151235e-09)
(0.01100001106 7.375330188e-08 1.017242278e-10)
(0.01099940066 1.008587252e-07 1.693661578e-09)
(0.01099818745 1.870695375e-07 9.331467214e-10)
(0.01099999994 1.694232862e-09 -9.502970516e-10)
(0.01099999882 2.889958804e-10 4.675442612e-10)
(0.01100000082 1.621949656e-09 -5.341483787e-10)
(0.0109999981 1.279172433e-09 1.551918153e-10)
(0.01100000011 1.534259073e-09 5.700884024e-10)
(0.01100000061 1.545984196e-09 1.479583376e-09)
(0.01100000293 2.460507952e-09 1.451824195e-09)
(0.01100000526 -5.453003009e-10 -3.736981783e-10)
(0.01100001228 2.162684405e-10 -1.641393726e-09)