/*--------------------------------*- C++ -*----------------------------------*\
| =========                 |                                                 |
| \\      /  F ield         | OpenFOAM: The Open Source CFD Toolbox           |
|  \\    /   O peration     | Version:  4.x                                   |
|   \\  /    A nd           | Web:      www.OpenFOAM.org                      |
|    \\/     M anipulation  |                                                 |
\*---------------------------------------------------------------------------*/
FoamFile
{
    version     2.0;
    format      ascii;
    class       volScalarField;
    location    "3000";
    object      X_CO2;
}
// * * * * * * * * * * * * * * * * * * * * * * * * * * * * * * * * * * * * * //

dimensions      [0 0 0 0 0 0 0];

internalField   nonuniform List<scalar> 
1175
(
4.700849123e-10
4.707266853e-10
4.738334709e-10
4.858628317e-10
5.294430509e-10
6.81810121e-10
1.198486468e-09
2.893376911e-09
8.24123171e-09
2.434544677e-08
7.017211916e-08
1.918994037e-07
4.893031669e-07
1.146683025e-06
2.441261341e-06
4.705472167e-10
4.713185649e-10
4.750872865e-10
4.899667245e-10
5.45227036e-10
7.440827621e-10
1.4405394e-09
3.807657267e-09
1.156792177e-08
3.589976336e-08
1.080517471e-07
3.074609225e-07
8.115232951e-07
1.950151623e-06
4.192604105e-06
4.712762223e-10
4.722568449e-10
4.77110908e-10
4.967267857e-10
5.717261383e-10
8.507426852e-10
1.864628878e-09
5.45182431e-09
1.773115955e-08
5.803428216e-08
1.83324718e-07
5.46095783e-07
1.502159992e-06
3.725233555e-06
8.114521676e-06
4.719311587e-10
4.731096525e-10
4.790008673e-10
5.032208292e-10
5.978275594e-10
9.586060059e-10
2.306674452e-09
7.227292212e-09
2.466592329e-08
8.414132776e-08
2.769206975e-07
8.602344878e-07
2.46518085e-06
6.326654045e-06
1.400662889e-05
4.721924084e-10
4.734531558e-10
4.797803734e-10
5.059634568e-10
6.090943302e-10
1.006309572e-09
2.508042708e-09
8.066358276e-09
2.809581684e-08
9.779334586e-08
3.292471099e-07
1.050040976e-06
3.098785738e-06
8.184629041e-06
1.842964404e-05
4.719270495e-10
4.731055396e-10
4.789969695e-10
5.032173786e-10
5.97825655e-10
9.586088683e-10
2.306691767e-09
7.227349137e-09
2.466606442e-08
8.414153095e-08
2.769202722e-07
8.602292821e-07
2.465153273e-06
6.326551738e-06
1.400635607e-05
4.71267831e-10
4.722486458e-10
4.771030736e-10
4.967198773e-10
5.717215097e-10
8.507443191e-10
1.864647275e-09
5.451880055e-09
1.773126013e-08
5.803420418e-08
1.833228288e-07
5.460845712e-07
1.502111743e-06
3.72507295e-06
8.114127238e-06
4.705339123e-10
4.713059585e-10
4.750757743e-10
4.8995668e-10
5.452195364e-10
7.440799999e-10
1.440544701e-09
3.807664545e-09
1.156784819e-08
3.589911035e-08
1.080481986e-07
3.074454146e-07
8.114659886e-07
1.949976196e-06
4.192195697e-06
4.700643004e-10
4.707104822e-10
4.738203454e-10
4.858527685e-10
5.294369316e-10
6.818103843e-10
1.198497565e-09
2.893395515e-09
8.241180038e-09
2.43448553e-08
7.016882868e-08
1.918852112e-07
4.892509594e-07
1.146518783e-06
2.44085338e-06
4.705472401e-10
4.713185996e-10
4.750874203e-10
4.899670658e-10
5.452282805e-10
7.440879837e-10
1.440561106e-09
3.807745e-09
1.156827124e-08
3.590112197e-08
1.080569346e-07
3.074804154e-07
8.115968232e-07
1.95044167e-06
4.710695877e-10
4.720109604e-10
4.766691538e-10
4.954992928e-10
5.675647982e-10
8.36186135e-10
1.815329708e-09
5.294906633e-09
1.72749156e-08
5.687620915e-08
1.810013936e-07
5.435882419e-07
1.507293601e-06
3.762240427e-06
8.218418044e-06
4.718944507e-10
4.731140464e-10
4.792500646e-10
5.047566331e-10
6.0583395e-10
9.980550986e-10
2.493697005e-09
8.080922772e-09
2.839991546e-08
9.967002295e-08
3.375903094e-07
1.079056767e-06
3.175236327e-06
8.321400427e-06
1.859817234e-05
4.726385683e-10
4.741247035e-10
4.816973818e-10
5.138376418e-10
6.445630791e-10
1.16754017e-09
3.232885166e-09
1.12636621e-08
4.183622514e-08
1.548056759e-07
5.547731487e-07
1.884970532e-06
5.911200689e-06
1.642532043e-05
3.794703228e-05
4.729365277e-10
4.74534905e-10
4.82720451e-10
5.177462134e-10
6.617138089e-10
1.245131797e-09
3.585649865e-09
1.286432692e-08
4.905233207e-08
1.869199937e-07
6.943510421e-07
2.466711358e-06
8.163871477e-06
2.407263436e-05
5.815508186e-05
4.726346264e-10
4.741207784e-10
4.816936196e-10
5.138344281e-10
6.445616601e-10
1.167543983e-09
3.232904645e-09
1.126371735e-08
4.183629641e-08
1.548052392e-07
5.547686619e-07
1.884943362e-06
5.911069623e-06
1.642481727e-05
3.794565503e-05
4.718864224e-10
4.73106153e-10
4.792426184e-10
5.047502349e-10
6.058303718e-10
9.980597426e-10
2.493722789e-09
8.08098906e-09
2.839996526e-08
9.966926208e-08
3.375836169e-07
1.079019117e-06
3.175066599e-06
8.320783224e-06
1.859654485e-05
4.710572506e-10
4.719992753e-10
4.766585983e-10
4.954905147e-10
5.675591873e-10
8.361875681e-10
1.81534497e-09
5.29493102e-09
1.727480951e-08
5.687500549e-08
1.809940541e-07
5.435524202e-07
1.507144448e-06
3.761711218e-06
8.216941458e-06
4.705291963e-10
4.713046423e-10
4.75076437e-10
4.899591209e-10
5.452246111e-10
7.440915072e-10
1.440575862e-09
3.807757628e-09
1.15681273e-08
3.589991475e-08
1.080503411e-07
3.074505738e-07
8.114767979e-07
1.949994473e-06
4.192216226e-06
4.712764818e-10
4.722571846e-10
4.771114005e-10
4.967281553e-10
5.717310189e-10
8.507621662e-10
1.864708254e-09
5.452145081e-09
1.773243011e-08
5.80392065e-08
1.833432187e-07
5.461630982e-07
1.502394476e-06
3.726005983e-06
4.718946239e-10
4.731142336e-10
4.792504116e-10
5.047577018e-10
6.058381797e-10
9.980724293e-10
2.493768691e-09
8.081220058e-09
2.840113831e-08
9.967498745e-08
3.376101698e-07
1.079135621e-06
3.175549875e-06
8.322690154e-06
4.728737962e-10
4.744898374e-10
4.827888099e-10
5.184431926e-10
6.656458044e-10
1.264634685e-09
3.67472392e-09
1.323550875e-08
5.040593647e-08
1.907458287e-07
6.983711825e-07
2.421424304e-06
7.732270282e-06
2.179252408e-05
5.06948695e-05
4.737622967e-10
4.757643107e-10
4.862078968e-10
5.322021824e-10
7.280856741e-10
1.554973088e-09
5.027393785e-09
1.950495297e-08
7.914912208e-08
3.200790372e-07
1.262734511e-06
4.764871683e-06
1.670586653e-05
5.175240423e-05
0.0001286376181
4.741200281e-10
4.762869113e-10
4.876614728e-10
5.382610856e-10
7.565928027e-10
1.693448626e-09
5.709296688e-09
2.289595872e-08
9.613431449e-08
4.053634403e-07
1.688057443e-06
6.836437956e-06
2.625991426e-05
9.098855702e-05
0.0002521900793
4.737586606e-10
4.757606953e-10
4.862043692e-10
5.321991311e-10
7.280836785e-10
1.554973522e-09
5.027394601e-09
1.950490737e-08
7.914863447e-08
3.200753823e-07
1.262711623e-06
4.764742694e-06
1.670522157e-05
5.174964103e-05
0.0001286289513
4.728662666e-10
4.744825006e-10
4.827819174e-10
5.184375928e-10
6.656437412e-10
1.264643001e-09
3.674757683e-09
1.32355697e-08
5.040574581e-08
1.907428758e-07
6.98349477e-07
2.421297064e-06
7.731634004e-06
2.178982934e-05
5.068620222e-05
4.71883148e-10
4.731034523e-10
4.792408084e-10
5.047498685e-10
6.05833741e-10
9.98074969e-10
2.493781391e-09
8.081202015e-09
2.840070878e-08
9.967173023e-08
3.375912673e-07
1.079040223e-06
3.175115227e-06
8.320866794e-06
1.859661383e-05
4.712598462e-10
4.722446178e-10
4.771018387e-10
4.96721704e-10
5.717289588e-10
8.507675165e-10
1.864721571e-09
5.452124241e-09
1.773204256e-08
5.803659461e-08
1.833295886e-07
5.461015055e-07
1.502147701e-06
3.72512999e-06
8.114172654e-06
4.719317039e-10
4.731102162e-10
4.790018611e-10
5.032233009e-10
5.978369477e-10
9.586442661e-10
2.306832459e-09
7.227938893e-09
2.466852527e-08
8.415155978e-08
2.769596832e-07
8.603766101e-07
2.46566737e-06
6.328171175e-06
4.72639017e-10
4.741252596e-10
4.81698233e-10
5.138399335e-10
6.445719078e-10
1.167577697e-09
3.233049875e-09
1.126438212e-08
4.183936915e-08
1.548192217e-07
5.548307905e-07
1.885209535e-06
5.912152568e-06
1.642885964e-05
4.737624989e-10
4.757645425e-10
4.862083398e-10
5.322035305e-10
7.280911525e-10
1.554998634e-09
5.027516816e-09
1.950555167e-08
7.915203957e-08
3.200933705e-07
1.262805018e-06
4.765218437e-06
1.670756772e-05
5.176081418e-05
4.74787094e-10
4.772977672e-10
4.906334649e-10
5.510396843e-10
8.175875221e-10
1.991596492e-09
7.176482528e-09
3.012816099e-08
1.316946018e-07
5.78693415e-07
2.517218411e-06
1.066482604e-05
4.282824901e-05
0.000154458136
0.0004399267248
4.752015318e-10
4.77931782e-10
4.925418373e-10
5.595009547e-10
8.595913656e-10
2.208009101e-09
8.319406427e-09
3.631327917e-08
1.660140031e-07
7.736651396e-07
3.645253581e-06
1.723362178e-05
8.044012961e-05
0.000355865865
0.00131277431
4.747836872e-10
4.772943107e-10
4.906301865e-10
5.510368455e-10
8.175856492e-10
1.991596168e-09
7.176474478e-09
3.012803268e-08
1.316934329e-07
5.786845232e-07
2.517156709e-06
1.066442345e-05
4.282577412e-05
0.0001544444382
0.0004398667117
4.737555614e-10
4.75757821e-10
4.862020405e-10
5.321984968e-10
7.280899752e-10
1.555008055e-09
5.027547284e-09
1.950554675e-08
7.915124832e-08
3.200857323e-07
1.262750478e-06
4.764876152e-06
1.670561431e-05
5.175048033e-05
0.0001286295416
4.726283341e-10
4.741152405e-10
4.816893631e-10
5.138329968e-10
6.445689555e-10
1.167583066e-09
3.233063978e-09
1.126433186e-08
4.183857682e-08
1.548133703e-07
5.547957398e-07
1.88502453e-06
5.911274596e-06
1.64251917e-05
3.794590697e-05
4.71916074e-10
4.730986721e-10
4.789932227e-10
5.032179551e-10
5.978363055e-10
9.586513288e-10
2.306844517e-09
7.227883378e-09
2.466787201e-08
8.41473403e-08
2.769375922e-07
8.60275622e-07
2.46525796e-06
6.326727818e-06
1.400649933e-05
4.721931937e-10
4.73454072e-10
4.797817267e-10
5.05966998e-10
6.091072497e-10
1.006362315e-09
2.508261301e-09
8.067258797e-09
2.809946994e-08
9.780784478e-08
3.293026785e-07
1.050244566e-06
3.099481937e-06
8.186761823e-06
4.729372772e-10
4.745357719e-10
4.827217098e-10
5.177496565e-10
6.617270328e-10
1.245189079e-09
3.585905211e-09
1.286547067e-08
4.905744218e-08
1.86942618e-07
6.944498418e-07
2.467129866e-06
8.165553964e-06
2.407875048e-05
4.741205538e-10
4.762874592e-10
4.876625681e-10
5.382643064e-10
7.566064498e-10
1.693512486e-09
5.709605626e-09
2.289747419e-08
9.614185588e-08
4.054012987e-07
1.688248185e-06
6.837398251e-06
2.626465126e-05
9.101059053e-05
4.752017745e-10
4.779321394e-10
4.925424832e-10
5.595033815e-10
8.596024896e-10
2.208063773e-09
8.319682841e-09
3.631473057e-08
1.660218554e-07
7.737091627e-07
3.645511376e-06
1.723520447e-05
8.045033991e-05
0.0003559354618
4.75640019e-10
4.786149141e-10
4.946613855e-10
5.691420081e-10
9.086933528e-10
2.469183478e-09
9.758533021e-09
4.45629142e-08
2.155171127e-07
1.086364006e-06
5.732408495e-06
3.197254185e-05
0.0001904215077
0.001220567332
0.008500282442
4.751986071e-10
4.779289654e-10
4.925395291e-10
5.595009517e-10
8.596015977e-10
2.208066108e-09
8.319681021e-09
3.631458951e-08
1.660202984e-07
7.736956149e-07
3.645401526e-06
1.723433599e-05
8.044335435e-05
0.0003558778134
0.0013127857
4.74114031e-10
4.762811513e-10
4.87656705e-10
5.382597723e-10
7.56605721e-10
1.693521995e-09
5.709630633e-09
2.289742143e-08
9.614065054e-08
4.05390365e-07
1.688168056e-06
6.836865648e-06
2.626138042e-05
9.099235315e-05
0.0002521929651
4.729272606e-10
4.745264096e-10
4.827134531e-10
5.177430403e-10
6.617232251e-10
1.245188583e-09
3.585893118e-09
1.286529883e-08
4.905609859e-08
1.869340651e-07
6.944010091e-07
2.466873893e-06
8.164325636e-06
2.407355095e-05
5.815563929e-05
4.721783253e-10
4.734432937e-10
4.797738298e-10
5.059622631e-10
6.091066183e-10
1.006366817e-09
2.508259786e-09
8.067142489e-09
2.809854686e-08
9.780239137e-08
3.292751032e-07
1.050119199e-06
3.098971864e-06
8.184955389e-06
1.84298857e-05
4.71928155e-10
4.731067394e-10
4.789986765e-10
5.032217099e-10
5.978408217e-10
9.58668672e-10
2.306933043e-09
7.228314508e-09
2.466986046e-08
8.415602245e-08
2.769734043e-07
8.604134451e-07
2.465743944e-06
6.328244779e-06
4.726356284e-10
4.741219244e-10
4.81695345e-10
5.138389119e-10
6.445783538e-10
1.167613958e-09
3.233206254e-09
1.126501688e-08
4.184184625e-08
1.548285415e-07
5.5486364e-07
1.885312809e-06
5.912406613e-06
1.642911207e-05
4.737594284e-10
4.75761593e-10
4.862060739e-10
5.322040624e-10
7.281038768e-10
1.555064247e-09
5.02781394e-09
1.950685433e-08
7.915768707e-08
3.201173196e-07
1.262902673e-06
4.76558917e-06
1.670875469e-05
5.176284711e-05
4.747841956e-10
4.772950058e-10
4.906314457e-10
5.510411333e-10
8.176044305e-10
1.991685424e-09
7.176912713e-09
3.013021635e-08
1.317045161e-07
5.787415066e-07
2.517451643e-06
1.066594572e-05
4.283343876e-05
0.0001544803528
4.751988874e-10
4.77929315e-10
4.925402475e-10
5.595035375e-10
8.59613056e-10
2.208121906e-09
8.319961848e-09
3.631604443e-08
1.660280875e-07
7.737388948e-07
3.64565331e-06
1.723586707e-05
8.045321344e-05
0.0003559449394
4.747812242e-10
4.77292025e-10
4.906286156e-10
5.510386606e-10
8.176028371e-10
1.991684723e-09
7.176900324e-09
3.013007411e-08
1.317033258e-07
5.787329683e-07
2.517396291e-06
1.066561649e-05
4.28317123e-05
0.0001544737475
4.737532911e-10
4.757556003e-10
4.862003738e-10
5.321991748e-10
7.281005209e-10
1.55506183e-09
5.027793727e-09
1.950665547e-08
7.915620429e-08
3.201078003e-07
1.262847256e-06
4.765290711e-06
1.670730326e-05
5.175664409e-05
0.0001286494863
4.726261599e-10
4.74113104e-10
4.816876264e-10
5.138327027e-10
6.445743209e-10
1.167611384e-09
3.233188174e-09
1.126484626e-08
4.184069234e-08
1.548218422e-07
5.548287175e-07
1.885147317e-06
5.911699128e-06
1.642647515e-05
3.794887729e-05
4.719139859e-10
4.730966304e-10
4.789914945e-10
5.032173005e-10
5.978393818e-10
9.586690094e-10
2.306917981e-09
7.228166924e-09
2.466893329e-08
8.415116688e-08
2.769508192e-07
8.603184815e-07
2.465384886e-06
6.327050139e-06
1.400710498e-05
4.712690039e-10
4.722499268e-10
4.771048779e-10
4.967240907e-10
5.717350626e-10
8.507955252e-10
1.864846106e-09
5.452648329e-09
1.77341512e-08
5.804473708e-08
1.833595e-07
5.462046954e-07
1.502474935e-06
3.726058271e-06
4.718875779e-10
4.731074243e-10
4.792445049e-10
5.047547488e-10
6.058460703e-10
9.981222523e-10
2.493980344e-09
8.082044098e-09
2.840421864e-08
9.968595177e-08
3.376466954e-07
1.079244527e-06
3.175808973e-06
8.322954736e-06
4.728672984e-10
4.744836643e-10
4.827838155e-10
5.184426138e-10
6.656628774e-10
1.264724288e-09
3.675113271e-09
1.32371258e-08
5.04125008e-08
1.907717111e-07
6.984688379e-07
2.421768552e-06
7.73335964e-06
2.179542262e-05
4.737563343e-10
4.757587008e-10
4.862036268e-10
5.322032028e-10
7.281089846e-10
1.555093131e-09
5.027939702e-09
1.950737896e-08
7.915979623e-08
3.201253905e-07
1.262931517e-06
4.765677935e-06
1.67089619e-05
5.176297881e-05
4.741146133e-10
4.76281765e-10
4.876578155e-10
5.382632323e-10
7.566202183e-10
1.693588785e-09
5.709947963e-09
2.289894749e-08
9.614808567e-08
4.054269447e-07
1.688349429e-06
6.837762072e-06
2.626571231e-05
9.101197593e-05
4.737535861e-10
4.75755925e-10
4.862009262e-10
5.322007455e-10
7.281067808e-10
1.555090509e-09
5.027926234e-09
1.950727647e-08
7.915910076e-08
3.201213143e-07
1.262909634e-06
4.765572412e-06
1.670852167e-05
5.176158329e-05
4.728616433e-10
4.744780977e-10
4.827784978e-10
5.184378437e-10
6.656586738e-10
1.264718896e-09
3.675088916e-09
1.323696835e-08
5.041155812e-08
1.90766617e-07
6.984442095e-07
2.421662915e-06
7.732993175e-06
2.179473114e-05
4.71878878e-10
4.730993907e-10
4.792374094e-10
5.047490447e-10
6.058422319e-10
9.981194918e-10
2.493966536e-09
8.081935005e-09
2.840353225e-08
9.968234582e-08
3.376298624e-07
1.079174432e-06
3.175552759e-06
8.322151477e-06
1.859991171e-05
4.712558064e-10
4.722407674e-10
4.770985407e-10
4.967203454e-10
5.717339271e-10
8.507953093e-10
1.864833173e-09
5.452539802e-09
1.773353435e-08
5.804176287e-08
1.833467224e-07
5.461551767e-07
1.502302233e-06
3.725519502e-06
8.114933537e-06
4.70535248e-10
4.713073796e-10
4.7507775e-10
4.899607109e-10
5.452315934e-10
7.441228457e-10
1.44070282e-09
3.808241964e-09
1.156990191e-08
3.590614912e-08
1.080711827e-07
3.07516129e-07
8.116674207e-07
1.950496239e-06
4.710584945e-10
4.720006688e-10
4.766605191e-10
4.954947364e-10
5.675728218e-10
8.362386357e-10
1.815542418e-09
5.295689926e-09
1.727766007e-08
5.688537317e-08
1.810302132e-07
5.436712811e-07
1.507504755e-06
3.762691268e-06
4.718843497e-10
4.731047365e-10
4.792426477e-10
5.047543696e-10
6.058493035e-10
9.981368139e-10
2.494034512e-09
8.082234596e-09
2.840486073e-08
9.968799701e-08
3.376526107e-07
1.079259147e-06
3.175835623e-06
8.322971859e-06
4.726293299e-10
4.741163601e-10
4.81691136e-10
5.138374746e-10
6.445854233e-10
1.167651383e-09
3.233357025e-09
1.126558565e-08
4.184390085e-08
1.548355447e-07
5.548855279e-07
1.885371732e-06
5.912523567e-06
1.642918298e-05
4.729279691e-10
4.745272498e-10
4.82714848e-10
5.177468954e-10
6.617376402e-10
1.24524989e-09
3.586160073e-09
1.28664671e-08
4.906118922e-08
1.86956072e-07
6.944945992e-07
2.467260678e-06
8.165839824e-06
2.407891437e-05
4.726266597e-10
4.741136819e-10
4.816885609e-10
5.138350701e-10
6.445830777e-10
1.167648656e-09
3.233347046e-09
1.126552616e-08
4.184356511e-08
1.548338325e-07
5.548774551e-07
1.885338129e-06
5.912402426e-06
1.642882744e-05
4.718791289e-10
4.730996001e-10
4.792377885e-10
5.047498023e-10
6.05845119e-10
9.98131408e-10
2.494016532e-09
8.082141477e-09
2.840438033e-08
9.968574889e-08
3.376431159e-07
1.079224319e-06
3.175732453e-06
8.322780251e-06
4.710506054e-10
4.719934053e-10
4.766541359e-10
4.954893454e-10
5.675680667e-10
8.362316794e-10
1.815518274e-09
5.295577029e-09
1.727714678e-08
5.688322118e-08
1.81021985e-07
5.436437065e-07
1.507431923e-06
3.762608691e-06
4.705233257e-10
4.712995175e-10
4.750726198e-10
4.899580412e-10
5.452310447e-10
7.441226248e-10
1.440691993e-09
3.808166722e-09
1.156952417e-08
3.590452881e-08
1.08064998e-07
3.074949929e-07
8.116035408e-07
1.950323501e-06
4.192962403e-06
4.700657255e-10
4.707119928e-10
4.738222792e-10
4.858564692e-10
5.294474876e-10
6.818462231e-10
1.198624273e-09
2.893839717e-09
8.242691939e-09
2.434980229e-08
7.018425327e-08
1.91930392e-07
4.893739283e-07
1.146826032e-06
4.705305812e-10
4.713061681e-10
4.7507842e-10
4.899631882e-10
5.452367362e-10
7.441343998e-10
1.44073337e-09
3.808330935e-09
1.157016186e-08
3.590687408e-08
1.080730651e-07
3.07520372e-07
8.116752155e-07
1.950506049e-06
4.712611379e-10
4.722459963e-10
4.771037176e-10
4.967260489e-10
5.717430458e-10
8.508202087e-10
1.864924832e-09
5.452899759e-09
1.773493529e-08
5.804702994e-08
1.833656138e-07
5.4621884e-07
1.502500189e-06
3.72608332e-06
4.719171251e-10
4.730998384e-10
4.789949674e-10
5.032222193e-10
5.978508703e-10
9.587082545e-10
2.307072418e-09
7.228790994e-09
2.467141748e-08
8.416079871e-08
2.769866696e-07
8.604448574e-07
2.465798308e-06
6.328273554e-06
4.721791598e-10
4.73444199e-10
4.797753009e-10
5.059659231e-10
6.091194621e-10
1.006417984e-09
2.508469588e-09
8.067993543e-09
2.810194962e-08
9.781568791e-08
3.293253505e-07
1.050300255e-06
3.099580288e-06
8.186796772e-06
4.71914555e-10
4.730973115e-10
4.789924774e-10
5.032198363e-10
5.978484134e-10
9.587045554e-10
2.30706163e-09
7.228743535e-09
2.467120077e-08
8.415985397e-08
2.769829033e-07
8.60431027e-07
2.465753491e-06
6.328149668e-06
4.712561229e-10
4.722411304e-10
4.770990966e-10
4.967218008e-10
5.717388927e-10
8.508144244e-10
1.864908114e-09
5.452830176e-09
1.773463299e-08
5.804580342e-08
1.833610527e-07
5.462037963e-07
1.502458667e-06
3.725992601e-06
4.705233771e-10
4.71299582e-10
4.750727262e-10
4.899584764e-10
5.452327128e-10
7.441289248e-10
1.440716138e-09
3.808257971e-09
1.156985809e-08
3.590571496e-08
1.080690829e-07
3.075086026e-07
8.116478955e-07
1.950470574e-06
4.700557406e-10
4.707061399e-10
4.738191464e-10
4.85855734e-10
5.294488653e-10
6.818484076e-10
1.19862036e-09
2.893797531e-09
8.242481162e-09
2.434895997e-08
7.018135686e-08
1.919220583e-07
4.893561574e-07
1.146817994e-06
)
;

boundaryField
{
    top
    {
        type            calculated;
        value           nonuniform List<scalar> 
134
(
4.700643004e-10
4.705291963e-10
4.712598462e-10
4.71916074e-10
4.721783253e-10
4.719139859e-10
4.712558064e-10
4.705233257e-10
4.700557406e-10
4.707104822e-10
4.713046423e-10
4.722446178e-10
4.730986721e-10
4.734432937e-10
4.730966304e-10
4.722407674e-10
4.712995175e-10
4.707061399e-10
4.738203454e-10
4.75076437e-10
4.771018387e-10
4.789932227e-10
4.797738298e-10
4.789914945e-10
4.770985407e-10
4.750726198e-10
4.738191464e-10
4.858527685e-10
4.899591209e-10
4.96721704e-10
5.032179551e-10
5.059622631e-10
5.032173005e-10
4.967203454e-10
4.899580412e-10
4.85855734e-10
5.294369316e-10
5.452246111e-10
5.717289588e-10
5.978363055e-10
6.091066183e-10
5.978393818e-10
5.717339271e-10
5.452310447e-10
5.294488653e-10
6.818103843e-10
7.440915072e-10
8.507675165e-10
9.586513288e-10
1.006366817e-09
9.586690094e-10
8.507953093e-10
7.441226248e-10
6.818484076e-10
1.198497565e-09
1.440575862e-09
1.864721571e-09
2.306844517e-09
2.508259786e-09
2.306917981e-09
1.864833173e-09
1.440691993e-09
1.19862036e-09
2.893395515e-09
3.807757628e-09
5.452124241e-09
7.227883378e-09
8.067142489e-09
7.228166924e-09
5.452539802e-09
3.808166722e-09
2.893797531e-09
8.241180038e-09
1.15681273e-08
1.773204256e-08
2.466787201e-08
2.809854686e-08
2.466893329e-08
1.773353435e-08
1.156952417e-08
8.242481162e-09
2.43448553e-08
3.589991475e-08
5.803659461e-08
8.41473403e-08
9.780239137e-08
8.415116688e-08
5.804176287e-08
3.590452881e-08
2.434895997e-08
7.016882868e-08
1.080503411e-07
1.833295886e-07
2.769375922e-07
3.292751032e-07
2.769508192e-07
1.833467224e-07
1.08064998e-07
7.018135686e-08
1.918852112e-07
3.074505738e-07
5.461015055e-07
8.60275622e-07
1.050119199e-06
8.603184815e-07
5.461551767e-07
3.074949929e-07
1.919220583e-07
4.892509594e-07
8.114767979e-07
1.502147701e-06
2.46525796e-06
3.098971864e-06
2.465384886e-06
1.502302233e-06
8.116035408e-07
4.893561574e-07
1.146518783e-06
1.949994473e-06
3.72512999e-06
6.326727818e-06
8.184955389e-06
6.327050139e-06
3.725519502e-06
1.950323501e-06
1.146817994e-06
2.44085338e-06
4.192216226e-06
8.114172654e-06
1.400649933e-05
1.84298857e-05
1.400710498e-05
8.114933537e-06
4.192962403e-06
)
;
    }
    bottom
    {
        type            calculated;
        value           nonuniform List<scalar> 
127
(
4.700849123e-10
4.705472401e-10
4.712764818e-10
4.719317039e-10
4.721931937e-10
4.71928155e-10
4.712690039e-10
4.70535248e-10
4.700657255e-10
4.707266853e-10
4.713185996e-10
4.722571846e-10
4.731102162e-10
4.73454072e-10
4.731067394e-10
4.722499268e-10
4.713073796e-10
4.707119928e-10
4.738334709e-10
4.750874203e-10
4.771114005e-10
4.790018611e-10
4.797817267e-10
4.789986765e-10
4.771048779e-10
4.7507775e-10
4.738222792e-10
4.858628317e-10
4.899670658e-10
4.967281553e-10
5.032233009e-10
5.05966998e-10
5.032217099e-10
4.967240907e-10
4.899607109e-10
4.858564692e-10
5.294430509e-10
5.452282805e-10
5.717310189e-10
5.978369477e-10
6.091072497e-10
5.978408217e-10
5.717350626e-10
5.452315934e-10
5.294474876e-10
6.81810121e-10
7.440879837e-10
8.507621662e-10
9.586442661e-10
1.006362315e-09
9.58668672e-10
8.507955252e-10
7.441228457e-10
6.818462231e-10
1.198486468e-09
1.440561106e-09
1.864708254e-09
2.306832459e-09
2.508261301e-09
2.306933043e-09
1.864846106e-09
1.44070282e-09
1.198624273e-09
2.893376911e-09
3.807745e-09
5.452145081e-09
7.227938893e-09
8.067258797e-09
7.228314508e-09
5.452648329e-09
3.808241964e-09
2.893839717e-09
8.24123171e-09
1.156827124e-08
1.773243011e-08
2.466852527e-08
2.809946994e-08
2.466986046e-08
1.77341512e-08
1.156990191e-08
8.242691939e-09
2.434544677e-08
3.590112197e-08
5.80392065e-08
8.415155978e-08
9.780784478e-08
8.415602245e-08
5.804473708e-08
3.590614912e-08
2.434980229e-08
7.017211916e-08
1.080569346e-07
1.833432187e-07
2.769596832e-07
3.293026785e-07
2.769734043e-07
1.833595e-07
1.080711827e-07
7.018425327e-08
1.918994037e-07
3.074804154e-07
5.461630982e-07
8.603766101e-07
1.050244566e-06
8.604134451e-07
5.462046954e-07
3.07516129e-07
1.91930392e-07
4.893031669e-07
8.115968232e-07
1.502394476e-06
2.46566737e-06
3.099481937e-06
2.465743944e-06
1.502474935e-06
8.116674207e-07
4.893739283e-07
1.146683025e-06
1.95044167e-06
3.726005983e-06
6.328171175e-06
8.186761823e-06
6.328244779e-06
3.726058271e-06
1.950496239e-06
1.146826032e-06
2.441261341e-06
)
;
    }
    side-walls
    {
        type            calculated;
        value           nonuniform List<scalar> 
261
(
4.700849123e-10
4.705472167e-10
4.712762223e-10
4.719311587e-10
4.721924084e-10
4.719270495e-10
4.71267831e-10
4.705339123e-10
4.700643004e-10
4.707266853e-10
4.713185649e-10
4.722568449e-10
4.731096525e-10
4.734531558e-10
4.731055396e-10
4.722486458e-10
4.713059585e-10
4.707104822e-10
4.738334709e-10
4.750872865e-10
4.77110908e-10
4.790008673e-10
4.797803734e-10
4.789969695e-10
4.771030736e-10
4.750757743e-10
4.738203454e-10
4.858628317e-10
4.899667245e-10
4.967267857e-10
5.032208292e-10
5.059634568e-10
5.032173786e-10
4.967198773e-10
4.8995668e-10
4.858527685e-10
5.294430509e-10
5.45227036e-10
5.717261383e-10
5.978275594e-10
6.090943302e-10
5.97825655e-10
5.717215097e-10
5.452195364e-10
5.294369316e-10
6.81810121e-10
7.440827621e-10
8.507426852e-10
9.586060059e-10
1.006309572e-09
9.586088683e-10
8.507443191e-10
7.440799999e-10
6.818103843e-10
1.198486468e-09
1.4405394e-09
1.864628878e-09
2.306674452e-09
2.508042708e-09
2.306691767e-09
1.864647275e-09
1.440544701e-09
1.198497565e-09
2.893376911e-09
3.807657267e-09
5.45182431e-09
7.227292212e-09
8.066358276e-09
7.227349137e-09
5.451880055e-09
3.807664545e-09
2.893395515e-09
8.24123171e-09
1.156792177e-08
1.773115955e-08
2.466592329e-08
2.809581684e-08
2.466606442e-08
1.773126013e-08
1.156784819e-08
8.241180038e-09
2.434544677e-08
3.589976336e-08
5.803428216e-08
8.414132776e-08
9.779334586e-08
8.414153095e-08
5.803420418e-08
3.589911035e-08
2.43448553e-08
7.017211916e-08
1.080517471e-07
1.83324718e-07
2.769206975e-07
3.292471099e-07
2.769202722e-07
1.833228288e-07
1.080481986e-07
7.016882868e-08
1.918994037e-07
3.074609225e-07
5.46095783e-07
8.602344878e-07
1.050040976e-06
8.602292821e-07
5.460845712e-07
3.074454146e-07
1.918852112e-07
4.893031669e-07
8.115232951e-07
1.502159992e-06
2.46518085e-06
3.098785738e-06
2.465153273e-06
1.502111743e-06
8.114659886e-07
4.892509594e-07
1.146683025e-06
1.950151623e-06
3.725233555e-06
6.326654045e-06
8.184629041e-06
6.326551738e-06
3.72507295e-06
1.949976196e-06
1.146518783e-06
2.441261341e-06
4.192604105e-06
8.114521676e-06
1.400662889e-05
1.842964404e-05
1.400635607e-05
8.114127238e-06
4.192195697e-06
2.44085338e-06
4.700657255e-10
4.705305812e-10
4.712611379e-10
4.719171251e-10
4.721791598e-10
4.71914555e-10
4.712561229e-10
4.705233771e-10
4.700557406e-10
4.707119928e-10
4.713061681e-10
4.722459963e-10
4.730998384e-10
4.73444199e-10
4.730973115e-10
4.722411304e-10
4.71299582e-10
4.707061399e-10
4.738222792e-10
4.7507842e-10
4.771037176e-10
4.789949674e-10
4.797753009e-10
4.789924774e-10
4.770990966e-10
4.750727262e-10
4.738191464e-10
4.858564692e-10
4.899631882e-10
4.967260489e-10
5.032222193e-10
5.059659231e-10
5.032198363e-10
4.967218008e-10
4.899584764e-10
4.85855734e-10
5.294474876e-10
5.452367362e-10
5.717430458e-10
5.978508703e-10
6.091194621e-10
5.978484134e-10
5.717388927e-10
5.452327128e-10
5.294488653e-10
6.818462231e-10
7.441343998e-10
8.508202087e-10
9.587082545e-10
1.006417984e-09
9.587045554e-10
8.508144244e-10
7.441289248e-10
6.818484076e-10
1.198624273e-09
1.44073337e-09
1.864924832e-09
2.307072418e-09
2.508469588e-09
2.30706163e-09
1.864908114e-09
1.440716138e-09
1.19862036e-09
2.893839717e-09
3.808330935e-09
5.452899759e-09
7.228790994e-09
8.067993543e-09
7.228743535e-09
5.452830176e-09
3.808257971e-09
2.893797531e-09
8.242691939e-09
1.157016186e-08
1.773493529e-08
2.467141748e-08
2.810194962e-08
2.467120077e-08
1.773463299e-08
1.156985809e-08
8.242481162e-09
2.434980229e-08
3.590687408e-08
5.804702994e-08
8.416079871e-08
9.781568791e-08
8.415985397e-08
5.804580342e-08
3.590571496e-08
2.434895997e-08
7.018425327e-08
1.080730651e-07
1.833656138e-07
2.769866696e-07
3.293253505e-07
2.769829033e-07
1.833610527e-07
1.080690829e-07
7.018135686e-08
1.91930392e-07
3.07520372e-07
5.4621884e-07
8.604448574e-07
1.050300255e-06
8.60431027e-07
5.462037963e-07
3.075086026e-07
1.919220583e-07
4.893739283e-07
8.116752155e-07
1.502500189e-06
2.465798308e-06
3.099580288e-06
2.465753491e-06
1.502458667e-06
8.116478955e-07
4.893561574e-07
1.146826032e-06
1.950506049e-06
3.72608332e-06
6.328273554e-06
8.186796772e-06
6.328149668e-06
3.725992601e-06
1.950470574e-06
1.146817994e-06
)
;
    }
    inlet
    {
        type            calculated;
        value           nonuniform List<scalar> 
81
(
4.700849123e-10
4.705472167e-10
4.712762223e-10
4.719311587e-10
4.721924084e-10
4.719270495e-10
4.71267831e-10
4.705339123e-10
4.700643004e-10
4.705472401e-10
4.710695877e-10
4.718944507e-10
4.726385683e-10
4.729365277e-10
4.726346264e-10
4.718864224e-10
4.710572506e-10
4.705291963e-10
4.712764818e-10
4.718946239e-10
4.728737962e-10
4.737622967e-10
4.741200281e-10
4.737586606e-10
4.728662666e-10
4.71883148e-10
4.712598462e-10
4.719317039e-10
4.72639017e-10
4.737624989e-10
4.74787094e-10
4.752015318e-10
4.747836872e-10
4.737555614e-10
4.726283341e-10
4.71916074e-10
4.721931937e-10
4.729372772e-10
4.741205538e-10
4.752017745e-10
4.75640019e-10
4.751986071e-10
4.74114031e-10
4.729272606e-10
4.721783253e-10
4.71928155e-10
4.726356284e-10
4.737594284e-10
4.747841956e-10
4.751988874e-10
4.747812242e-10
4.737532911e-10
4.726261599e-10
4.719139859e-10
4.712690039e-10
4.718875779e-10
4.728672984e-10
4.737563343e-10
4.741146133e-10
4.737535861e-10
4.728616433e-10
4.71878878e-10
4.712558064e-10
4.70535248e-10
4.710584945e-10
4.718843497e-10
4.726293299e-10
4.729279691e-10
4.726266597e-10
4.718791289e-10
4.710506054e-10
4.705233257e-10
4.700657255e-10
4.705305812e-10
4.712611379e-10
4.719171251e-10
4.721791598e-10
4.71914555e-10
4.712561229e-10
4.705233771e-10
4.700557406e-10
)
;
    }
    outlet
    {
        type            calculated;
        value           nonuniform 0();
    }
    procBoundary0to1
    {
        type            processor;
        value           nonuniform List<scalar> 
97
(
4.695285745e-06
4.19297296e-06
7.986971424e-06
1.525952148e-05
2.591852275e-05
3.353262304e-05
2.591819622e-05
1.525905241e-05
7.986523114e-06
4.694967482e-06
4.19297296e-06
4.19297296e-06