/*--------------------------------*- C++ -*----------------------------------*\
| =========                 |                                                 |
| \\      /  F ield         | OpenFOAM: The Open Source CFD Toolbox           |
|  \\    /   O peration     | Version:  4.x                                   |
|   \\  /    A nd           | Web:      www.OpenFOAM.org                      |
|    \\/     M anipulation  |                                                 |
\*---------------------------------------------------------------------------*/
FoamFile
{
    version     2.0;
    format      ascii;
    class       volScalarField;
    location    "7000";
    object      CO;
}
// * * * * * * * * * * * * * * * * * * * * * * * * * * * * * * * * * * * * * //

dimensions      [0 0 0 0 0 0 0];

internalField   nonuniform List<scalar> 
1174
(
0.3315805901
0.3315790021
0.3315767632
0.3315738472
0.3315702869
0.3315661626
0.3315615853
0.3315566808
0.3315515758
0.3315463892
0.3315412308
0.3315362165
0.3315315516
0.331527891
0.3315791021
0.3315765622
0.3315731852
0.3315690515
0.3315643053
0.3315591204
0.3315536721
0.3315481196
0.3315425965
0.3315372087
0.3315320396
0.3315271697
0.3315227536
0.3315193491
0.3315758194
0.3315713395
0.3315658056
0.3315595323
0.3315528581
0.3315460855
0.331539453
0.3315331293
0.3315272211
0.3315217852
0.3315168452
0.3315124147
0.3315085632
0.3315056828
0.3315710173
0.3315640693
0.3315561063
0.331547713
0.3315393741
0.3315314362
0.3315241142
0.3315175173
0.3315116783
0.3315065796
0.331502175
0.3314984129
0.3314952853
0.3314930246
0.3315675952
0.3315592953
0.331550256
0.3315411153
0.3315323325
0.3315241992
0.3315168725
0.3315104112
0.3315048074
0.331500012
0.3314959543
0.3314925617
0.3314897996
0.3314878369
0.3315710174
0.3315640694
0.3315561064
0.3315477131
0.3315393743
0.3315314364
0.3315241144
0.3315175176
0.3315116786
0.3315065798
0.3315021752
0.3314984132
0.3314952855
0.3314930249
0.3315758194
0.3315713395
0.3315658057
0.3315595324
0.3315528583
0.3315460857
0.3315394532
0.3315331296
0.3315272213
0.3315217856
0.3315168456
0.331512415
0.3315085636
0.3315056832
0.3315791021
0.3315765623
0.3315731853
0.3315690516
0.3315643055
0.3315591206
0.3315536723
0.3315481199
0.3315425967
0.331537209
0.33153204
0.3315271701
0.331522754
0.3315193496
0.3315805901
0.3315790022
0.3315767633
0.3315738473
0.331570287
0.3315661627
0.3315615855
0.331556681
0.331551576
0.3315463895
0.3315412311
0.3315362168
0.331531552
0.3315278915
0.3315808197
0.3315791021
0.3315765622
0.3315731852
0.3315690515
0.3315643054
0.3315591205
0.3315536722
0.3315481197
0.3315425965
0.3315372087
0.3315320397
0.3315271697
0.3315227537
0.3315193492
0.3315757539
0.3315713052
0.3315658894
0.3315598341
0.3315534666
0.3315470612
0.3315408213
0.3315348818
0.3315293219
0.3315241796
0.3315194685
0.3315151998
0.3315114483
0.3315086171
0.3315673422
0.33155872
0.3315493659
0.3315400723
0.3315313788
0.3315235768
0.3315167693
0.3315109385
0.3315060008
0.331501845
0.3314983568
0.3314954378
0.3314930414
0.3314913196
0.3315524196
0.3315381132
0.3315245385
0.331512706
0.3315029618
0.3314952505
0.3314893245
0.3314848739
0.3314815962
0.3314792267
0.3314775475
0.3314763854
0.3314756095
0.331475148
0.3315383697
0.3315211803
0.331506649
0.3314951466
0.3314864336
0.3314800567
0.3314755369
0.3314724459
0.3314704294
0.331469206
0.3314685572
0.3314683137
0.331468335
0.3314684704
0.3315524197
0.3315381134
0.3315245387
0.3315127062
0.331502962
0.3314952508
0.3314893247
0.3314848741
0.3314815964
0.331479227
0.3314775478
0.3314763857
0.3314756098
0.3314751482
0.3315673423
0.3315587201
0.331549366
0.3315400725
0.331531379
0.331523577
0.3315167696
0.3315109388
0.3315060011
0.3315018454
0.3314983572
0.3314954383
0.3314930419
0.3314913201
0.331575754
0.3315713053
0.3315658895
0.3315598342
0.3315534668
0.3315470614
0.3315408216
0.3315348821
0.3315293222
0.33152418
0.3315194689
0.3315152003
0.3315114488
0.3315086177
0.3315791021
0.3315765623
0.3315731853
0.3315690516
0.3315643055
0.3315591206
0.3315536724
0.3315481199
0.3315425968
0.3315372091
0.3315320401
0.3315271702
0.3315227542
0.3315193497
0.3315790459
0.3315758194
0.3315713395
0.3315658057
0.3315595324
0.3315528582
0.3315460856
0.3315394531
0.3315331295
0.3315272212
0.3315217854
0.3315168454
0.3315124148
0.3315085633
0.3315056829
0.3315743175
0.3315673422
0.3315587201
0.331549366
0.3315400724
0.3315313789
0.3315235769
0.3315167694
0.3315109386
0.3315060009
0.3315018451
0.3314983569
0.3314954379
0.3314930415
0.3314913197
0.3315425402
0.3315244036
0.3315080214
0.3314946243
0.3314844541
0.331477203
0.3314723421
0.3314693135
0.3314676218
0.3314668658
0.3314667376
0.3314670061
0.3314674864
0.3314679647
0.3314874798
0.3314569405
0.3314359566
0.3314236358
0.3314179101
0.3314167088
0.3314183677
0.3314216848
0.3314258473
0.3314303314
0.3314348113
0.3314390785
0.3314429341
0.3314458833
0.3314155154
0.3313852367
0.3313723512
0.3313702111
0.3313740842
0.3313809994
0.3313892004
0.3313976911
0.3314059305
0.3314136431
0.3314207025
0.3314270473
0.3314325611
0.3314366804
0.3314874805
0.3314569412
0.3314359573
0.3314236364
0.3314179107
0.3314167094
0.3314183683
0.3314216853
0.3314258477
0.3314303319
0.3314348118
0.3314390789
0.3314429345
0.3314458837
0.3315425408
0.3315244041
0.3315080218
0.3314946248
0.3314844546
0.3314772036
0.3314723427
0.3314693141
0.3314676225
0.3314668665
0.3314667382
0.3314670068
0.331467487
0.3314679654
0.3315673423
0.3315587202
0.3315493661
0.3315400726
0.3315313792
0.3315235772
0.3315167698
0.3315109391
0.3315060014
0.3315018456
0.3314983575
0.3314954385
0.3314930422
0.3314913204
0.3315758194
0.3315713396
0.3315658057
0.3315595325
0.3315528584
0.3315460858
0.3315394534
0.3315331298
0.3315272216
0.3315217859
0.3315168459
0.3315124154
0.331508564
0.3315056836
0.3315763862
0.3315710174
0.3315640694
0.3315561065
0.3315477132
0.3315393744
0.3315314365
0.3315241145
0.3315175176
0.3315116786
0.3315065798
0.3315021753
0.3314984132
0.3314952855
0.3314930248
0.3315656065
0.3315524198
0.3315381134
0.3315245388
0.3315127063
0.331502962
0.3314952508
0.3314893247
0.3314848741
0.3314815964
0.3314792269
0.3314775477
0.3314763856
0.3314756096
0.3314751481
0.3315248565
0.33148748
0.3314569408
0.3314359569
0.331423636
0.3314179103
0.331416709
0.3314183679
0.3314216849
0.3314258474
0.3314303315
0.3314348114
0.3314390786
0.3314429342
0.3314458833
0.3312990389
0.3312608387
0.3312547688
0.3312660415
0.3312850091
0.3313062445
0.3313270072
0.3313460828
0.3313630593
0.3313779156
0.3313907973
0.3314018779
0.3314111811
0.3314179707
0.330930007
0.3309787847
0.3310532204
0.3311244345
0.3311848674
0.3312341205
0.3312738222
0.3313058735
0.3313319264
0.3313532872
0.331370947
0.3313856142
0.3313976217
0.3314062449
0.3312990416
0.3312608405
0.3312547702
0.3312660427
0.3312850102
0.3313062455
0.3313270081
0.3313460836
0.33136306
0.3313779163
0.3313907979
0.3314018784
0.3314111817
0.3314179712
0.3314874805
0.3314569414
0.3314359577
0.3314236369
0.3314179112
0.33141671
0.3314183689
0.3314216859
0.3314258483
0.3314303324
0.3314348123
0.3314390795
0.331442935
0.3314458841
0.3315524198
0.3315381136
0.331524539
0.3315127066
0.3315029625
0.3314952513
0.3314893254
0.3314848748
0.3314815971
0.3314792277
0.3314775485
0.3314763864
0.3314756105
0.331475149
0.3315710174
0.3315640694
0.3315561066
0.3315477133
0.3315393746
0.3315314368
0.3315241149
0.3315175181
0.3315116792
0.3315065805
0.331502176
0.3314984139
0.3314952863
0.3314930257
0.3315743947
0.3315675953
0.3315592956
0.3315502563
0.3315411156
0.3315323328
0.3315241995
0.3315168729
0.3315104116
0.3315048077
0.3315000123
0.3314959547
0.331492562
0.3314897999
0.3314878372
0.3315565339
0.3315383699
0.3315211806
0.3315066494
0.3314951469
0.331486434
0.3314800571
0.3314755373
0.3314724463
0.3314704297
0.3314692063
0.3314685575
0.331468314
0.3314683353
0.3314684706
0.3314695087
0.3314155154
0.3313852371
0.3313723516
0.3313702115
0.3313740847
0.3313809998
0.3313892007
0.3313976914
0.3314059307
0.3314136433
0.3314207028
0.3314270475
0.3314325613
0.3314366806
0.3309950414
0.3309300082
0.3309787858
0.3310532213
0.3311244352
0.331184868
0.331234121
0.3312738225
0.3313058738
0.3313319266
0.3313532874
0.3313709472
0.3313856144
0.3313976218
0.331406245
0.3293437339
0.3301524418
0.3305998937
0.3308616724
0.3310237378
0.3311297224
0.3312026239
0.3312550522
0.3312942077
0.3313243724
0.3313481883
0.3313673059
0.3313825764
0.3313933749
0.3309300065
0.3309787874
0.3310532232
0.3311244368
0.3311848694
0.3312341222
0.3312738236
0.3313058747
0.3313319274
0.3313532881
0.3313709479
0.331385615
0.3313976224
0.3314062456
0.3314155155
0.3313852378
0.3313723526
0.3313702127
0.3313740858
0.3313810009
0.3313892018
0.3313976925
0.3314059317
0.3314136443
0.3314207037
0.3314270483
0.3314325621
0.3314366814
0.3315383699
0.3315211808
0.3315066497
0.3314951474
0.3314864346
0.3314800578
0.3314755381
0.3314724471
0.3314704306
0.3314692072
0.3314685584
0.3314683149
0.3314683362
0.3314684716
0.3315675953
0.3315592956
0.3315502564
0.3315411158
0.3315323331
0.3315242
0.3315168734
0.3315104122
0.3315048084
0.3315000131
0.3314959555
0.3314925628
0.3314898008
0.3314878381
0.3315763863
0.3315710175
0.3315640696
0.3315561067
0.3315477134
0.3315393746
0.3315314367
0.3315241147
0.3315175179
0.3315116789
0.3315065801
0.3315021756
0.3314984135
0.3314952858
0.3314930252
0.3315656067
0.33155242
0.3315381138
0.3315245391
0.3315127067
0.3315029624
0.3314952512
0.3314893251
0.3314848745
0.3314815968
0.3314792274
0.3314775481
0.331476386
0.3314756101
0.3314751485
0.3315248576
0.3314874811
0.331456942
0.331435958
0.3314236371
0.3314179113
0.3314167099
0.3314183687
0.3314216857
0.3314258481
0.3314303322
0.3314348121
0.3314390792
0.3314429348
0.3314458839
0.3313853203
0.3312990433
0.3312608422
0.3312547716
0.3312660438
0.3312850111
0.3313062461
0.3313270086
0.331346084
0.3313630603
0.3313779166
0.3313907982
0.3314018787
0.3314111819
0.3314179714
0.3309950417
0.3309300091
0.3309787891
0.3310532243
0.3311244376
0.3311848699
0.3312341225
0.3312738238
0.3313058749
0.3313319276
0.3313532883
0.331370948
0.3313856151
0.3313976225
0.3314062456
0.3313853198
0.3312990438
0.3312608431
0.3312547726
0.3312660448
0.331285012
0.331306247
0.3313270094
0.3313460848
0.331363061
0.3313779172
0.3313907988
0.3314018792
0.3314111824
0.3314179719
0.3314874798
0.3314569416
0.3314359582
0.3314236376
0.331417912
0.3314167108
0.3314183696
0.3314216866
0.331425849
0.3314303331
0.3314348129
0.3314390801
0.3314429356
0.3314458847
0.3315524196
0.3315381136
0.3315245391
0.3315127069
0.3315029628
0.3314952517
0.3314893258
0.3314848752
0.3314815976
0.3314792282
0.3314775489
0.3314763868
0.3314756109
0.3314751494
0.3315710174
0.3315640694
0.3315561066
0.3315477135
0.3315393747
0.331531437
0.3315241151
0.3315175184
0.3315116795
0.3315065808
0.3315021763
0.3314984143
0.3314952867
0.331493026
0.331579046
0.3315758195
0.3315713397
0.3315658059
0.3315595326
0.3315528585
0.3315460859
0.3315394534
0.3315331299
0.3315272216
0.3315217859
0.3315168459
0.3315124153
0.3315085639
0.3315056835
0.3315743176
0.3315673425
0.3315587204
0.3315493663
0.3315400728
0.3315313793
0.3315235774
0.3315167699
0.3315109392
0.3315060015
0.3315018457
0.3314983575
0.3314954386
0.3314930422
0.3314913204
0.3315598703
0.3315425411
0.3315244045
0.3315080223
0.3314946252
0.331484455
0.331477204
0.3314723431
0.3314693145
0.3314676228
0.3314668668
0.3314667385
0.3314670071
0.3314674873
0.3314679656
0.3315248577
0.3314874814
0.3314569425
0.3314359586
0.3314236377
0.331417912
0.3314167106
0.3314183694
0.3314216864
0.3314258488
0.3314303328
0.3314348126
0.3314390798
0.3314429353
0.3314458844
0.3314695095
0.3314155172
0.3313852393
0.3313723539
0.3313702137
0.3313740866
0.3313810015
0.3313892023
0.3313976929
0.3314059321
0.3314136446
0.3314207039
0.3314270486
0.3314325623
0.3314366816
0.3315248577
0.3314874815
0.3314569427
0.331435959
0.3314236382
0.3314179124
0.3314167111
0.3314183699
0.3314216869
0.3314258492
0.3314303333
0.3314348131
0.3314390802
0.3314429357
0.3314458848
0.33155987
0.3315425408
0.3315244044
0.3315080224
0.3314946255
0.3314844554
0.3314772045
0.3314723437
0.3314693151
0.3314676235
0.3314668675
0.3314667392
0.3314670077
0.331467488
0.3314679663
0.3315673421
0.3315587202
0.3315493663
0.3315400729
0.3315313795
0.3315235777
0.3315167703
0.3315109396
0.331506002
0.3315018463
0.3314983582
0.3314954392
0.3314930429
0.3314913211
0.3315758193
0.3315713395
0.3315658058
0.3315595326
0.3315528585
0.3315460861
0.3315394537
0.3315331302
0.331527222
0.3315217863
0.3315168464
0.331512416
0.3315085645
0.3315056842
0.3315808198
0.3315791022
0.3315765623
0.3315731854
0.3315690517
0.3315643056
0.3315591208
0.3315536725
0.3315481201
0.331542597
0.3315372092
0.3315320402
0.3315271703
0.3315227543
0.3315193499
0.3315790007
0.3315757541
0.3315713054
0.3315658897
0.3315598344
0.331553467
0.3315470617
0.3315408218
0.3315348824
0.3315293225
0.3315241803
0.3315194692
0.3315152006
0.3315114491
0.331508618
0.3315743176
0.3315673425
0.3315587204
0.3315493664
0.3315400729
0.3315313795
0.3315235776
0.3315167701
0.3315109394
0.3315060017
0.331501846
0.3314983578
0.3314954389
0.3314930425
0.3314913207
0.3315656067
0.3315524201
0.331538114
0.3315245395
0.3315127071
0.331502963
0.3314952518
0.3314893258
0.3314848752
0.3314815975
0.3314792281
0.3314775488
0.3314763867
0.3314756108
0.3314751492
0.3315565341
0.3315383704
0.3315211814
0.3315066503
0.331495148
0.3314864351
0.3314800583
0.3314755385
0.3314724475
0.331470431
0.3314692075
0.3314685587
0.3314683152
0.3314683365
0.3314684718
0.3315656068
0.3315524202
0.3315381141
0.3315245396
0.3315127073
0.3315029631
0.331495252
0.331489326
0.3314848754
0.3314815978
0.3314792283
0.3314775491
0.331476387
0.3314756111
0.3314751495
0.3315743176
0.3315673425
0.3315587204
0.3315493665
0.3315400731
0.3315313797
0.3315235778
0.3315167704
0.3315109397
0.3315060021
0.3315018464
0.3314983582
0.3314954393
0.3314930429
0.3314913212
0.3315790006
0.331575754
0.3315713053
0.3315658896
0.3315598344
0.331553467
0.3315470618
0.331540822
0.3315348827
0.3315293228
0.3315241807
0.3315194696
0.331515201
0.3315114496
0.3315086185
0.3315791021
0.3315765622
0.3315731853
0.3315690517
0.3315643056
0.3315591208
0.3315536727
0.3315481202
0.3315425972
0.3315372096
0.3315320406
0.3315271708
0.3315227548
0.3315193504
0.3315816131
0.3315805902
0.3315790022
0.3315767633
0.3315738474
0.3315702872
0.3315661629
0.3315615857
0.3315566812
0.3315515762
0.3315463898
0.3315412313
0.3315362171
0.3315315523
0.3315278918
0.3315808198
0.3315791022
0.3315765623
0.3315731854
0.3315690517
0.3315643057
0.3315591208
0.3315536726
0.3315481202
0.3315425971
0.3315372094
0.3315320404
0.3315271705
0.3315227545
0.33151935
0.3315790459
0.3315758195
0.3315713397
0.3315658059
0.3315595327
0.3315528586
0.3315460861
0.3315394537
0.3315331301
0.3315272219
0.3315217862
0.3315168462
0.3315124157
0.3315085643
0.3315056839
0.3315763863
0.3315710175
0.3315640696
0.3315561068
0.3315477136
0.3315393749
0.3315314371
0.3315241152
0.3315175184
0.3315116795
0.3315065808
0.3315021762
0.3314984142
0.3314952866
0.3314930259
0.3315743947
0.3315675955
0.3315592958
0.3315502567
0.3315411161
0.3315323334
0.3315242002
0.3315168737
0.3315104124
0.3315048087
0.3315000133
0.3314959557
0.3314925631
0.331489801
0.3314878383
0.3315763863
0.3315710175
0.3315640696
0.3315561068
0.3315477136
0.3315393749
0.3315314371
0.3315241153
0.3315175185
0.3315116796
0.3315065809
0.3315021764
0.3314984144
0.3314952868
0.3314930262
0.3315790459
0.3315758195
0.3315713397
0.3315658059
0.3315595327
0.3315528586
0.3315460862
0.3315394538
0.3315331303
0.3315272221
0.3315217864
0.3315168465
0.331512416
0.3315085646
0.3315056843
0.3315808197
0.3315791022
0.3315765623
0.3315731854
0.3315690517
0.3315643057
0.3315591209
0.3315536727
0.3315481203
0.3315425973
0.3315372096
0.3315320407
0.3315271708
0.3315227549
0.3315193505
0.331581613
0.3315805901
0.3315790022
0.3315767633
0.3315738473
0.3315702872
0.3315661629
0.3315615857
0.3315566813
0.3315515764
0.33154639
0.3315412316
0.3315362175
0.3315315527
0.3315278923
)
;

boundaryField
{
    top
    {
        type            zeroGradient;
    }
    bottom
    {
        type            zeroGradient;
    }
    side-walls
    {
        type            zeroGradient;
    }
    inlet
    {
        type            zeroGradient;
    }
    outlet
    {
        type            zeroGradient;
    }
    procBoundary1to0
    {
        type            processor;
        value           nonuniform List<scalar> 
97
(
0.331581613
0.331581613
0.3315808197
0.331579046
0.3315763863
0.3315743948
0.3315763864
0.331579046
0.3315808198
0.3315816131
0.3315818369
0.3315790006
0.3315790006
0.3315790006
0.3315743176
0.3315656068
0.3315565343
0.3315656069
0.3315743177
0.3315790008
0.3315808198
0.3315810322
0.3315789542
0.3315598699
0.3315598699
0.3315598699
0.3315248577
0.3314695105
0.3315248584
0.3315598706
0.3315743177
0.331579046
0.331579855
0.3315752964
0.3315593797
0.3313853175
0.3313853175
0.3313853175
0.3309950499
0.3313853224
0.3315248584
0.3315656069
0.3315763863
0.3315790161
0.3315718522
0.3315417415
0.3314228052
0.3277992596
0.3277992596
0.3277992596
0.3309950484
0.3309950484
0.3314695104
0.3315565343
0.3315743948
0.3315798551
0.3315752964
0.3315593798
0.3315132026
0.3314228049
0.3315132029
0.3315248569
0.3315248569
0.3315248569
0.3315656067
0.3315763863
0.3315810322
0.3315789542
0.3315728749
0.3315593798
0.3315417417
0.3315593798
0.3315728749
0.3315743175
0.3315743175
0.3315743175
0.3315790459
0.3315818369
0.3315810162
0.3315789542
0.3315752964
0.3315718523
0.3315752964
0.3315789542
0.3315810161
0.3315808197
0.3315808197
0.3315808197
0.3315822017
0.3315818369
0.3315810322
0.331579855
0.3315790161
0.331579855
0.3315810322
0.3315818369
0.3315822016
)
;
    }
}


// ************************************************************************* //
