/*--------------------------------*- C++ -*----------------------------------*\
| =========                 |                                                 |
| \\      /  F ield         | OpenFOAM: The Open Source CFD Toolbox           |
|  \\    /   O peration     | Version:  4.x                                   |
|   \\  /    A nd           | Web:      www.OpenFOAM.org                      |
|    \\/     M anipulation  |                                                 |
\*---------------------------------------------------------------------------*/
FoamFile
{
    version     2.0;
    format      ascii;
    class       volScalarField;
    location    "7000";
    object      CO2;
}
// * * * * * * * * * * * * * * * * * * * * * * * * * * * * * * * * * * * * * //

dimensions      [0 0 0 0 0 0 0];

internalField   nonuniform List<scalar> 
1174
(
0.0631524025
0.06315429711
0.06315696836
0.06316044748
0.0631646953
0.06316961616
0.06317507748
0.06318092932
0.06318702044
0.06319320888
0.06319936393
0.06320534695
0.06321091314
0.06321528105
0.06315417779
0.06315720811
0.06316123722
0.06316616915
0.06317183185
0.06317801812
0.06318451866
0.06319114366
0.0631977337
0.06320416228
0.06321032998
0.06321614088
0.06322141026
0.06322547265
0.06315809428
0.06316343919
0.06317004161
0.06317752628
0.06318548938
0.06319356994
0.0632014835
0.06320902858
0.06321607816
0.06322256416
0.06322845866
0.0632337454
0.06323834128
0.06324177842
0.06316382341
0.063172113
0.06318161353
0.06319162764
0.06320157687
0.06321104785
0.06321978406
0.06322765522
0.06323462227
0.06324070622
0.06324596197
0.06325045124
0.06325418354
0.06325688135
0.06316790619
0.06317780859
0.06318859328
0.06319949916
0.06320997809
0.06321968216
0.063228424
0.06323613351
0.06324282002
0.06324854208
0.06325338396
0.06325743251
0.06326072869
0.06326307104
0.06316382332
0.06317211287
0.06318161337
0.06319162745
0.06320157666
0.06321104763
0.06321978383
0.06322765498
0.06323462204
0.06324070598
0.06324596174
0.06325045101
0.06325418332
0.06325688113
0.06315809422
0.06316343909
0.06317004149
0.06317752614
0.06318548921
0.06319356975
0.06320148328
0.06320902835
0.06321607791
0.06322256389
0.06322845837
0.0632337451
0.06323834097
0.0632417781
0.06315417774
0.06315720804
0.06316123713
0.06316616904
0.06317183172
0.06317801796
0.06318451848
0.06319114345
0.06319773347
0.06320416202
0.06321032969
0.06321614057
0.06322140993
0.0632254723
0.06315240246
0.06315429706
0.0631569683
0.06316044741
0.06316469521
0.06316961606
0.06317507735
0.06318092916
0.06318702025
0.06319320866
0.06319936368
0.06320534667
0.06321091283
0.06321528071
0.06315212851
0.06315417778
0.06315720809
0.06316123719
0.06316616911
0.06317183181
0.06317801807
0.06318451861
0.0631911436
0.06319773364
0.06320416222
0.06321032992
0.06321614082
0.06322141021
0.06322547259
0.06315817239
0.06316348009
0.06316994162
0.06317716619
0.06318476335
0.06319240576
0.06319985085
0.06320693759
0.06321357163
0.06321970733
0.06322532878
0.06323042232
0.06323489891
0.0632382773
0.06316820803
0.06317849498
0.06318965524
0.06320074342
0.06321111578
0.06322042464
0.06322854704
0.06323550424
0.06324139598
0.06324635492
0.06325051735
0.06325400069
0.06325686056
0.06325891544
0.06318601141
0.06320308001
0.06321927584
0.06323339323
0.06324501938
0.06325422011
0.06326129103
0.06326660175
0.06327051311
0.06327334086
0.06327534519
0.06327673252
0.06327765907
0.06327821037
0.0632027737
0.06322328193
0.06324061911
0.06325434285
0.06326473868
0.06327234747
0.06327774078
0.0632814294
0.06328383613
0.06328529667
0.06328607158
0.06328636301
0.06328633841
0.06328617763
0.06318601128
0.06320307985
0.06321927566
0.06323339304
0.06324501918
0.0632542199
0.06326129081
0.06326660153
0.06327051288
0.06327334064
0.06327534497
0.0632767323
0.06327765885
0.06327821015
0.06316820789
0.06317849483
0.06318965508
0.06320074325
0.06321111559
0.06322042443
0.06322854681
0.06323550399
0.06324139571
0.06324635463
0.06325051704
0.06325400038
0.06325686024
0.06325891511
0.06315817226
0.06316347997
0.06316994149
0.06317716604
0.06318476318
0.06319240556
0.06319985063
0.06320693733
0.06321357135
0.06321970702
0.06322532844
0.06323042196
0.06323489853
0.06323827691
0.06315417774
0.06315720804
0.06316123712
0.06316616903
0.06317183171
0.06317801794
0.06318451845
0.0631911434
0.06319773341
0.06320416195
0.06321032962
0.06321614048
0.06322140984
0.06322547219
0.06315424477
0.06315809424
0.06316343911
0.06317004151
0.06317752617
0.06318548924
0.0631935698
0.06320148334
0.06320902843
0.063216078
0.063222564
0.0632284585
0.06323374524
0.06323834113
0.06324177827
0.06315988603
0.06316820796
0.06317849487
0.06318965511
0.06320074328
0.06321111563
0.06322042448
0.06322854689
0.06323550409
0.06324139584
0.06324635479
0.06325051722
0.06325400058
0.06325686045
0.06325891534
0.06319779799
0.06321943637
0.06323898183
0.06325496595
0.06326710041
0.06327575218
0.06328155234
0.06328516659
0.06328718575
0.0632880886
0.06328824251
0.06328792299
0.06328735082
0.06328678081
0.06326348767
0.06329992333
0.06332495915
0.06333965971
0.06334649189
0.0633479262
0.06334594817
0.0633419918
0.06333702673
0.06333167785
0.06332633397
0.06332124381
0.06331664465
0.06331312681
0.06334934449
0.06338546956
0.06340084393
0.06340339851
0.06339877899
0.06339053013
0.06338074709
0.06337061832
0.06336078934
0.06335158872
0.06334316729
0.0633355985
0.06332902098
0.06332410703
0.06326348692
0.06329992259
0.06332495847
0.06333965908
0.06334649132
0.06334792567
0.06334594768
0.06334199136
0.06333702632
0.06333167747
0.06332633361
0.06332124349
0.06331664434
0.06331312651
0.06319779737
0.06321943586
0.06323898136
0.06325496548
0.06326709992
0.06327575169
0.06328155184
0.06328516608
0.06328718524
0.0632880881
0.06328824201
0.0632879225
0.06328735034
0.06328678034
0.06316820786
0.06317849476
0.06318965498
0.06320074312
0.06321111543
0.06322042425
0.06322854661
0.06323550377
0.06324139549
0.0632463544
0.06325051681
0.06325400014
0.06325686
0.06325891487
0.06315809421
0.06316343907
0.06317004144
0.06317752606
0.0631854891
0.06319356961
0.06320148311
0.06320902814
0.06321607767
0.06322256363
0.06322845809
0.0632337448
0.06323834066
0.06324177777
0.0631574179
0.0631638233
0.06317211282
0.0631816133
0.06319162738
0.06320157658
0.06321104754
0.06321978375
0.0632276549
0.06323462196
0.06324070591
0.06324596168
0.06325045096
0.06325418328
0.0632568811
0.0631702786
0.06318601132
0.06320307983
0.06321927563
0.06323339301
0.06324501916
0.06325421988
0.06326129081
0.06326660153
0.0632705129
0.06327334066
0.063275345
0.06327673234
0.0632776589
0.06327821021
0.06321889503
0.06326348759
0.06329992313
0.06332495894
0.06333965952
0.06334649171
0.06334792604
0.06334594802
0.06334199167
0.06333702661
0.06333167774
0.06332633387
0.06332124372
0.06331664457
0.06331312673
0.06348830567
0.06353388228
0.06354112599
0.06352767902
0.06350505139
0.06347971804
0.06345494833
0.0634321913
0.06341193854
0.06339421498
0.06337884729
0.06336562836
0.06335452975
0.06334643003
0.06392857578
0.06387038528
0.06378158311
0.06369662395
0.06362452657
0.06356576685
0.06351840213
0.06348016436
0.0634490829
0.0634235992
0.06340253085
0.06338503274
0.06337070789
0.06336042041
0.0634883028
0.06353388034
0.06354112452
0.06352767781
0.06350505037
0.06347971716
0.06345494757
0.06343219064
0.06341193795
0.06339421446
0.06337884682
0.06336562794
0.06335452936
0.06334642966
0.06326348694
0.06329992238
0.06332495814
0.06333965867
0.06334649086
0.0633479252
0.06334594721
0.06334199089
0.06333702586
0.06333167703
0.06332633319
0.06332124309
0.06331664396
0.06331312614
0.06318601122
0.06320307968
0.06321927539
0.06323339268
0.06324501875
0.06325421942
0.06326129029
0.06326660099
0.06327051232
0.06327334007
0.0632753444
0.06327673174
0.06327765829
0.0632782096
0.06316382332
0.06317211282
0.06318161326
0.06319162728
0.06320157642
0.06321104731
0.06321978346
0.06322765455
0.06323462156
0.06324070546
0.06324596119
0.06325045044
0.06325418272
0.06325688051
0.06315979393
0.06316790606
0.06317780837
0.06318859302
0.06319949886
0.06320997776
0.06321968181
0.06322842364
0.06323613315
0.06324281966
0.06324854174
0.06325338363
0.06325743219
0.06326072838
0.06326307074
0.06318110267
0.06320277354
0.0632232816
0.06324061874
0.06325434248
0.06326473831
0.06327234712
0.06327774044
0.06328142907
0.06328383583
0.06328529639
0.06328607131
0.06328636275
0.06328633817
0.0632861774
0.06328492739
0.06334934468
0.0633854692
0.06340084351
0.06340339811
0.06339877862
0.06339052979
0.06338074679
0.06337061804
0.06336078909
0.06335158849
0.06334316707
0.0633355983
0.06332902079
0.06332410685
0.06385098421
0.06392857486
0.06387038433
0.06378158232
0.06369662329
0.06362452601
0.06356576639
0.06351840176
0.06348016405
0.06344908263
0.06342359897
0.06340253065
0.06338503256
0.06337070773
0.06336042027
0.06582105637
0.0648562462
0.06432242304
0.064010113
0.06381676384
0.06369032084
0.06360334708
0.06354079848
0.06349408473
0.06345809749
0.06342968443
0.06340687675
0.06338865884
0.06337577606
0.06392857623
0.06387038244
0.06378158047
0.06369662182
0.06362452486
0.06356576546
0.06351840098
0.06348016338
0.06344908206
0.06342359846
0.06340253019
0.06338503215
0.06337070735
0.06336041992
0.06334934423
0.06338546837
0.06340084254
0.06340339712
0.06339877767
0.06339052891
0.06338074596
0.06337061727
0.06336078837
0.06335158782
0.06334316644
0.06333559771
0.06332902023
0.0633241063
0.06320277346
0.06322328139
0.06324061839
0.06325434201
0.06326473776
0.06327234652
0.0632777398
0.06328142842
0.06328383516
0.06328529571
0.06328607064
0.06328636208
0.0632863375
0.06328617673
0.06316790607
0.06317780834
0.06318859291
0.06319949867
0.0632099775
0.06321968147
0.06322842323
0.06323613269
0.06324281915
0.06324854118
0.06325338304
0.06325743157
0.06326072775
0.06326307008
0.06315741786
0.06316382322
0.0631721127
0.06318161315
0.0631916272
0.06320157638
0.06321104733
0.06321978352
0.06322765466
0.06323462171
0.06324070565
0.06324596142
0.0632504507
0.06325418301
0.06325688082
0.06317027843
0.06318601103
0.06320307947
0.06321927523
0.06323339261
0.06324501875
0.06325421949
0.06326129042
0.06326660115
0.06327051252
0.06327334029
0.06327534464
0.06327673199
0.06327765855
0.06327820987
0.06321889396
0.06326348646
0.06329992188
0.06332495777
0.06333965846
0.06334649076
0.06334792518
0.06334594724
0.06334199096
0.06333702596
0.06333167714
0.06332633331
0.06332124321
0.06331664408
0.06331312626
0.0633853677
0.0634883013
0.06353387872
0.06354112321
0.06352767681
0.06350504961
0.06347971658
0.06345494711
0.06343219027
0.06341193765
0.0633942142
0.06337884659
0.06336562774
0.06335452918
0.06334642949
0.06385098397
0.06392857402
0.06387038094
0.06378157948
0.06369662115
0.06362452442
0.06356576514
0.06351840075
0.06348016321
0.06344908193
0.06342359836
0.06340253011
0.06338503208
0.06337070729
0.06336041985
0.06338536812
0.06348830064
0.06353387785
0.06354112234
0.06352767601
0.0635050489
0.06347971595
0.06345494655
0.06343218975
0.06341193717
0.06339421377
0.06337884619
0.06336562737
0.06335452884
0.06334642916
0.06326348766
0.06329992227
0.06332495769
0.06333965809
0.06334649025
0.06334792459
0.06334594663
0.06334199033
0.06333702534
0.06333167653
0.06332633272
0.06332124264
0.06331664353
0.06331312572
0.06318601137
0.06320307968
0.06321927527
0.06323339248
0.06324501849
0.06325421912
0.06326128998
0.06326660066
0.063270512
0.06327333974
0.06327534408
0.06327673141
0.06327765797
0.06327820928
0.06316382334
0.0631721128
0.0631816132
0.06319162717
0.06320157628
0.06321104713
0.06321978325
0.06322765432
0.06323462131
0.06324070521
0.06324596093
0.06325045017
0.06325418245
0.06325688024
0.06315424472
0.06315809415
0.06316343898
0.06317004134
0.06317752595
0.063185489
0.06319356952
0.06320148303
0.06320902808
0.06321607762
0.0632225636
0.06322845808
0.0632337448
0.06323834067
0.0632417778
0.06315988588
0.06316820775
0.06317849461
0.06318965481
0.06320074295
0.06321111528
0.0632204241
0.06322854648
0.06323550365
0.06324139538
0.0632463543
0.06325051672
0.06325400006
0.06325685993
0.06325891481
0.06317712227
0.06319779712
0.0632194355
0.06323898096
0.06325496508
0.06326709954
0.06327575131
0.06328155148
0.06328516573
0.06328718491
0.06328808779
0.06328824171
0.06328792221
0.06328735006
0.06328678007
0.06321889387
0.06326348616
0.06329992141
0.06332495721
0.06333965784
0.06334649014
0.06334792457
0.06334594666
0.06334199041
0.06333702545
0.06333167666
0.06332633286
0.06332124279
0.06331664369
0.06331312588
0.06328492644
0.06334934272
0.06338546692
0.06340084133
0.06340339616
0.06339877691
0.06339052832
0.06338074549
0.06337061689
0.06336078806
0.06335158756
0.06334316622
0.06333559751
0.06332902005
0.06332410614
0.06321889379
0.063263486
0.0632999212
0.06332495695
0.06333965756
0.06334648984
0.06334792426
0.06334594636
0.0633419901
0.06333702515
0.06333167637
0.06332633258
0.06332124251
0.06331664342
0.06331312562
0.06317712257
0.06319779737
0.06321943561
0.06323898092
0.06325496492
0.06326709927
0.06327575098
0.06328155111
0.06328516534
0.0632871845
0.06328808737
0.0632882413
0.0632879218
0.06328734965
0.06328677967
0.06316820805
0.0631784948
0.0631896549
0.06320074294
0.06321111516
0.06322042391
0.06322854622
0.06323550334
0.06324139502
0.06324635392
0.06325051631
0.06325399963
0.06325685948
0.06325891434
0.06315809428
0.06316343911
0.06317004144
0.06317752601
0.063185489
0.06319356946
0.0632014829
0.06320902789
0.06321607739
0.06322256331
0.06322845775
0.06323374443
0.06323834026
0.06324177736
0.06315212846
0.0631541777
0.06315720797
0.06316123703
0.06316616892
0.06317183158
0.0631780178
0.06318451829
0.06319114324
0.06319773324
0.06320416178
0.06321032943
0.0632161403
0.06322140965
0.06322547201
0.06315429868
0.06315817218
0.06316347984
0.06316994133
0.06317716585
0.06318476296
0.06319240532
0.06319985037
0.06320693706
0.06321357106
0.06321970673
0.06322532814
0.06323042166
0.06323489823
0.06323827661
0.06315988586
0.06316820771
0.06317849454
0.06318965472
0.06320074283
0.06321111513
0.06322042393
0.06322854629
0.06323550346
0.06324139517
0.0632463541
0.06325051651
0.06325399985
0.06325685971
0.06325891459
0.0631702784
0.06318601091
0.06320307926
0.06321927493
0.06323339222
0.0632450183
0.06325421899
0.0632612899
0.06326660062
0.06327051198
0.06327333975
0.06327534411
0.06327673146
0.06327765803
0.06327820935
0.06318110244
0.06320277302
0.06322328086
0.06324061785
0.0632543415
0.06326473729
0.06327234609
0.06327773942
0.06328142807
0.06328383485
0.06328529543
0.06328607038
0.06328636185
0.06328633729
0.06328617653
0.06317027838
0.06318601088
0.06320307921
0.06321927486
0.06323339213
0.06324501819
0.06325421887
0.06326128976
0.06326660047
0.06327051182
0.06327333959
0.06327534394
0.06327673129
0.06327765785
0.06327820917
0.0631598859
0.06316820775
0.06317849456
0.0631896547
0.06320074277
0.06321111502
0.06322042378
0.06322854611
0.06323550325
0.06324139494
0.06324635385
0.06325051625
0.06325399957
0.06325685943
0.06325891429
0.06315429877
0.06315817229
0.06316347995
0.06316994142
0.0631771659
0.06318476298
0.0631924053
0.0631998503
0.06320693695
0.06321357092
0.06321970655
0.06322532793
0.06323042142
0.06323489796
0.06323827631
0.0631541778
0.06315720807
0.06316123712
0.06316616899
0.06317183162
0.06317801781
0.06318451826
0.06319114317
0.06319773313
0.06320416162
0.06321032924
0.06321614007
0.06322140938
0.06322547171
0.063151182
0.06315240243
0.06315429701
0.06315696823
0.0631604473
0.06316469508
0.0631696159
0.06317507717
0.06318092895
0.06318702002
0.0631932084
0.06319936341
0.06320534638
0.06321091253
0.06321528041
0.06315212846
0.06315417769
0.06315720796
0.06316123701
0.06316616889
0.06317183153
0.06317801774
0.06318451822
0.06319114316
0.06319773315
0.06320416168
0.06321032933
0.06321614019
0.06322140953
0.06322547189
0.06315424473
0.06315809414
0.06316343895
0.06317004129
0.06317752588
0.06318548889
0.06319356938
0.06320148286
0.06320902788
0.06321607741
0.06322256336
0.06322845782
0.06323374453
0.06323834039
0.0632417775
0.06315741787
0.0631638232
0.06317211264
0.06318161304
0.06319162703
0.06320157615
0.06321104704
0.06321978317
0.06322765427
0.06323462128
0.06324070519
0.06324596093
0.06325045019
0.06325418248
0.06325688028
0.06315979388
0.06316790593
0.06317780815
0.06318859269
0.06319949844
0.06320997726
0.06321968124
0.06322842301
0.06323613247
0.06324281894
0.06324854099
0.06325338285
0.0632574314
0.06326072757
0.06326306992
0.06315741787
0.06316382321
0.06317211266
0.06318161305
0.06319162704
0.06320157615
0.06321104703
0.06321978315
0.06322765424
0.06323462123
0.06324070513
0.06324596085
0.0632504501
0.06325418238
0.06325688016
0.06315424474
0.06315809417
0.06316343899
0.06317004133
0.06317752591
0.06318548891
0.06319356938
0.06320148284
0.06320902784
0.06321607734
0.06322256327
0.06322845771
0.0632337444
0.06323834023
0.06324177733
0.06315212848
0.06315417772
0.063157208
0.06316123705
0.06316616892
0.06317183154
0.06317801772
0.06318451818
0.06319114309
0.06319773305
0.06320416155
0.06321032917
0.06321614
0.06322140932
0.06322547166
0.06315118203
0.06315240247
0.06315429706
0.06315696828
0.06316044735
0.06316469512
0.06316961592
0.06317507716
0.06318092892
0.06318701996
0.06319320831
0.06319936327
0.06320534621
0.06321091233
0.06321528017
)
;

boundaryField
{
    top
    {
        type            zeroGradient;
    }
    bottom
    {
        type            zeroGradient;
    }
    side-walls
    {
        type            zeroGradient;
    }
    inlet
    {
        type            zeroGradient;
    }
    outlet
    {
        type            zeroGradient;
    }
    procBoundary1to0
    {
        type            processor;
        value           nonuniform List<scalar> 
97
(
0.06315118203
0.06315118203
0.06315212848
0.06315424473
0.06315741786
0.06315979387
0.0631574178
0.06315424469
0.06315212844
0.06315118199
0.06315091497
0.06315429877
0.06315429877
0.06315429877
0.06315988591
0.06317027838
0.06318110239
0.06317027828
0.0631598858
0.06315429865
0.06315212845
0.06315187503
0.06315435415
0.06317712263
0.06317712263
0.06317712263
0.06321889404
0.06328492612
0.06321889329
0.06317712198
0.06315988579
0.06315424469
0.06315327941
0.06315871813
0.06317770749
0.06338537111
0.06338537111
0.06338537111
0.06385097978
0.06338536649
0.06321889337
0.06317027827
0.06315741782
0.06315428029
0.06316282718
0.06319875061
0.06334064673
0.06766369841
0.06766369841
0.06766369841
0.06385098137
0.06385098137
0.06328492613
0.0631811023
0.06315979382
0.0631532794
0.0631587181
0.06317770737
0.06323279861
0.06334064683
0.06323279848
0.06321889465
0.06321889465
0.06321889465
0.06317027846
0.06315741784
0.06315187502
0.06315435414
0.06316160706
0.06317770736
0.06319875025
0.06317770733
0.06316160708
0.06315988602
0.06315988602
0.06315988602
0.06315424476
0.06315091496
0.06315189414
0.06315435414
0.0631587181
0.06316282712
0.06315871809
0.06315435414
0.06315189416
0.06315212851
0.06315212851
0.06315212851
0.06315047977
0.06315091496
0.06315187502
0.06315327941
0.06315428028
0.06315327941
0.06315187503
0.06315091496
0.06315047978
)
;
    }
}


// ************************************************************************* //
