/*--------------------------------*- C++ -*----------------------------------*\
| =========                 |                                                 |
| \\      /  F ield         | OpenFOAM: The Open Source CFD Toolbox           |
|  \\    /   O peration     | Version:  4.x                                   |
|   \\  /    A nd           | Web:      www.OpenFOAM.org                      |
|    \\/     M anipulation  |                                                 |
\*---------------------------------------------------------------------------*/
FoamFile
{
    version     2.0;
    format      ascii;
    class       volScalarField;
    location    "7000";
    object      Cpv;
}
// * * * * * * * * * * * * * * * * * * * * * * * * * * * * * * * * * * * * * //

dimensions      [0 2 -2 -1 0 0 0];

internalField   nonuniform List<scalar> 
1174
(
1245.090828
1245.09081
1245.090776
1245.090772
1245.090754
1245.090704
1245.090656
1245.090612
1245.090573
1245.090542
1245.090515
1245.09046
1245.090417
1245.090384
1245.091093
1245.091053
1245.091025
1245.090976
1245.090933
1245.090907
1245.090889
1245.09085
1245.090804
1245.090752
1245.090698
1245.090658
1245.090621
1245.090591
1245.090614
1245.090585
1245.090519
1245.090456
1245.090356
1245.090302
1245.090231
1245.090216
1245.090163
1245.090146
1245.090087
1245.090075
1245.090029
1245.090011
1245.091378
1245.091292
1245.091236
1245.09117
1245.09113
1245.091053
1245.090964
1245.090922
1245.090901
1245.090842
1245.090798
1245.090741
1245.090726
1245.090749
1245.091142
1245.091061
1245.090986
1245.090917
1245.090827
1245.090763
1245.090688
1245.090645
1245.090596
1245.09057
1245.090562
1245.090538
1245.090504
1245.090495
1245.089846
1245.089775
1245.089717
1245.089653
1245.089578
1245.089505
1245.089441
1245.089399
1245.089375
1245.089321
1245.089276
1245.089264
1245.089236
1245.089211
1245.090413
1245.090378
1245.090314
1245.090256
1245.09018
1245.090124
1245.090058
1245.090006
1245.089974
1245.08992
1245.089886
1245.08986
1245.089824
1245.089788
1245.091025
1245.090997
1245.090972
1245.090948
1245.090929
1245.090868
1245.09082
1245.090761
1245.090694
1245.090653
1245.090608
1245.090549
1245.090504
1245.090483
1245.090855
1245.090838
1245.090843
1245.090816
1245.090777
1245.090766
1245.090717
1245.090665
1245.090628
1245.090579
1245.090554
1245.090524
1245.090494
1245.090457
1245.090845
1245.090858
1245.090809
1245.090799
1245.090781
1245.090724
1245.09068
1245.09063
1245.090606
1245.090528
1245.090487
1245.090443
1245.09042
1245.09038
1245.090353
1245.091324
1245.091294
1245.091215
1245.091158
1245.091107
1245.091041
1245.090962
1245.090923
1245.090867
1245.090834
1245.090795
1245.090767
1245.090725
1245.090678
1245.091085
1245.091
1245.090901
1245.090833
1245.090778
1245.090719
1245.090681
1245.090652
1245.090611
1245.090579
1245.090532
1245.090501
1245.090495
1245.090465
1245.090324
1245.09021
1245.0901
1245.089981
1245.089895
1245.089858
1245.089793
1245.089747
1245.089731
1245.089726
1245.089689
1245.08967
1245.08964
1245.089648
1245.090987
1245.090823
1245.090709
1245.090624
1245.090582
1245.090525
1245.090492
1245.09046
1245.090447
1245.090418
1245.090398
1245.090398
1245.090387
1245.090419
1245.090834
1245.090727
1245.090604
1245.090526
1245.09045
1245.090376
1245.090316
1245.090299
1245.09027
1245.090258
1245.090245
1245.090249
1245.090248
1245.090253
1245.091703
1245.09163
1245.091523
1245.091435
1245.09136
1245.091311
1245.091264
1245.091239
1245.091201
1245.091157
1245.091152
1245.091117
1245.091109
1245.091108
1245.090318
1245.090279
1245.090237
1245.090196
1245.090164
1245.090108
1245.090041
1245.09003
1245.089992
1245.08997
1245.089937
1245.089897
1245.089853
1245.089822
1245.091364
1245.091329
1245.091306
1245.091263
1245.091223
1245.091163
1245.091093
1245.091056
1245.091009
1245.090964
1245.090916
1245.090883
1245.090863
1245.090811
1245.091139
1245.091093
1245.091055
1245.091009
1245.090972
1245.0909
1245.090854
1245.09081
1245.090764
1245.090732
1245.09069
1245.090657
1245.090625
1245.090597
1245.090586
1245.090094
1245.090045
1245.089972
1245.089898
1245.089837
1245.089781
1245.089707
1245.089628
1245.089601
1245.089576
1245.089552
1245.089517
1245.089461
1245.089427
1245.089425
1245.090189
1245.090058
1245.089897
1245.089784
1245.089706
1245.089661
1245.089639
1245.089608
1245.089613
1245.089621
1245.089661
1245.089646
1245.08967
1245.089714
1245.089453
1245.089176
1245.088972
1245.08887
1245.088827
1245.088827
1245.088832
1245.088889
1245.088918
1245.088956
1245.089019
1245.089058
1245.089115
1245.089136
1245.090394
1245.090127
1245.090023
1245.090004
1245.090025
1245.090109
1245.090198
1245.090245
1245.090334
1245.090379
1245.090436
1245.090489
1245.090532
1245.090561
1245.089204
1245.088951
1245.088782
1245.088646
1245.088603
1245.088597
1245.088605
1245.088646
1245.088666
1245.088693
1245.088724
1245.088744
1245.088768
1245.088807
1245.090659
1245.090522
1245.090378
1245.090255
1245.090187
1245.090126
1245.09009
1245.090062
1245.090064
1245.090055
1245.090079
1245.090092
1245.090079
1245.0901
1245.09114
1245.091065
1245.090995
1245.0909
1245.090845
1245.090756
1245.090693
1245.090662
1245.090605
1245.090549
1245.090517
1245.090503
1245.090484
1245.090459
1245.090472
1245.090431
1245.090397
1245.090367
1245.090287
1245.090212
1245.090155
1245.090124
1245.090058
1245.090017
1245.089977
1245.089918
1245.089892
1245.089843
1245.090272
1245.090247
1245.090196
1245.09013
1245.090084
1245.090014
1245.089971
1245.089901
1245.08984
1245.089776
1245.089721
1245.089699
1245.089664
1245.089652
1245.089626
1245.090372
1245.090255
1245.090145
1245.090036
1245.089979
1245.089896
1245.089832
1245.089804
1245.089753
1245.089744
1245.089723
1245.089693
1245.089683
1245.089679
1245.089662
1245.089364
1245.089095
1245.08884
1245.088635
1245.088552
1245.088523
1245.088502
1245.088524
1245.08852
1245.088566
1245.088616
1245.088636
1245.088678
1245.088694
1245.088707
1245.088429
1245.088125
1245.088074
1245.088177
1245.088364
1245.088546
1245.088708
1245.088863
1245.089034
1245.089151
1245.089282
1245.08939
1245.089473
1245.089542
1245.084731
1245.085117
1245.085725
1245.086308
1245.086827
1245.08723
1245.087573
1245.087888
1245.088069
1245.088205
1245.088348
1245.088463
1245.088558
1245.08865
1245.088609
1245.088281
1245.088225
1245.088313
1245.088517
1245.088676
1245.088856
1245.088994
1245.089147
1245.089288
1245.089391
1245.089481
1245.089535
1245.089588
1245.089766
1245.089493
1245.089329
1245.089202
1245.089136
1245.089129
1245.089152
1245.089196
1245.089206
1245.089238
1245.089271
1245.089282
1245.089326
1245.089347
1245.090764
1245.090642
1245.090523
1245.090423
1245.090313
1245.090228
1245.090189
1245.090155
1245.090082
1245.090077
1245.090046
1245.090059
1245.090083
1245.090067
1245.090988
1245.090906
1245.090839
1245.090782
1245.090698
1245.09063
1245.0906
1245.090536
1245.090463
1245.09042
1245.090387
1245.090356
1245.090336
1245.09034
1245.090762
1245.090699
1245.09063
1245.090563
1245.090487
1245.090428
1245.090383
1245.090296
1245.09023
1245.090182
1245.090154
1245.09015
1245.090121
1245.090115
1245.090098
1245.090341
1245.090171
1245.090059
1245.089957
1245.089857
1245.089801
1245.089725
1245.089657
1245.08963
1245.0896
1245.089609
1245.089573
1245.08956
1245.089598
1245.089635
1245.091006
1245.090561
1245.090297
1245.090188
1245.090169
1245.090196
1245.090245
1245.09032
1245.09039
1245.090473
1245.090571
1245.090647
1245.090706
1245.090768
1245.090799
1245.085633
1245.085039
1245.085476
1245.086111
1245.086687
1245.087215
1245.087624
1245.08797
1245.088224
1245.088445
1245.088651
1245.08883
1245.088963
1245.089062
1245.089131
1244.354031
1244.360752
1244.364215
1244.366072
1244.367041
1244.367494
1244.367653
1244.367653
1244.367489
1244.367242
1244.366986
1244.366636
1244.366252
1244.365853
1245.08527
1245.085665
1245.086302
1245.086921
1245.087389
1245.087795
1245.08812
1245.088444
1245.088671
1245.088836
1245.088994
1245.089086
1245.089164
1245.089275
1245.089335
1245.089102
1245.088989
1245.08896
1245.088998
1245.089077
1245.089143
1245.089238
1245.089301
1245.089358
1245.089416
1245.089475
1245.089508
1245.089545
1245.089993
1245.089866
1245.089755
1245.089674
1245.089592
1245.089542
1245.089503
1245.089474
1245.089481
1245.089464
1245.089422
1245.089417
1245.089421
1245.089403
1245.090372
1245.090313
1245.090217
1245.090146
1245.090059
1245.090004
1245.089916
1245.089865
1245.08983
1245.089789
1245.08976
1245.089747
1245.089743
1245.089712
1245.090224
1245.09016
1245.090102
1245.090038
1245.08996
1245.089905
1245.089834
1245.089775
1245.089734
1245.089696
1245.089654
1245.089641
1245.089609
1245.089583
1245.089563
1245.090198
1245.090088
1245.089977
1245.089848
1245.089776
1245.089685
1245.089626
1245.089593
1245.089567
1245.089555
1245.089553
1245.089521
1245.0895
1245.089492
1245.089514
1245.089688
1245.089375
1245.089092
1245.088886
1245.088789
1245.088727
1245.088745
1245.088754
1245.08879
1245.088832
1245.088893
1245.088937
1245.088969
1245.088986
1245.089007
1245.088749
1245.088014
1245.08772
1245.08769
1245.087776
1245.087965
1245.088171
1245.088337
1245.088489
1245.088639
1245.08876
1245.088895
1245.08897
1245.089025
1245.089076
1245.085707
1245.085176
1245.085581
1245.086196
1245.086798
1245.087296
1245.087685
1245.088011
1245.088292
1245.088483
1245.088681
1245.088815
1245.088954
1245.08902
1245.089084
1245.088628
1245.087906
1245.087592
1245.087575
1245.087663
1245.087826
1245.088009
1245.088154
1245.088316
1245.08848
1245.088596
1245.088709
1245.088802
1245.088868
1245.088908
1245.089832
1245.089579
1245.089403
1245.089311
1245.089284
1245.089247
1245.089275
1245.08931
1245.089369
1245.089399
1245.089462
1245.089491
1245.089537
1245.089558
1245.090093
1245.089965
1245.089827
1245.089713
1245.08962
1245.089555
1245.089516
1245.089514
1245.089485
1245.089466
1245.089442
1245.089414
1245.089416
1245.089455
1245.090399
1245.090325
1245.09027
1245.090215
1245.090135
1245.090095
1245.090025
1245.08998
1245.089937
1245.089909
1245.08987
1245.08985
1245.089842
1245.089811
1245.090424
1245.090427
1245.090409
1245.090341
1245.090305
1245.090238
1245.090163
1245.090111
1245.090083
1245.090033
1245.089977
1245.089956
1245.089956
1245.089938
1245.089921
1245.091201
1245.091145
1245.091071
1245.091006
1245.090958
1245.090898
1245.090824
1245.090761
1245.090693
1245.090663
1245.09059
1245.090525
1245.090495
1245.09046
1245.090436
1245.091492
1245.091346
1245.091215
1245.09111
1245.090991
1245.090886
1245.090814
1245.09078
1245.090746
1245.09074
1245.090749
1245.090755
1245.090802
1245.090829
1245.090827
1245.090408
1245.090095
1245.089849
1245.089663
1245.08956
1245.089501
1245.089487
1245.089522
1245.089575
1245.089645
1245.089667
1245.089702
1245.089728
1245.089758
1245.089795
1245.088939
1245.088499
1245.088249
1245.088161
1245.088154
1245.088191
1245.088245
1245.088327
1245.088407
1245.08846
1245.088523
1245.088568
1245.088601
1245.088656
1245.088677
1245.090528
1245.090221
1245.089956
1245.089769
1245.089661
1245.089646
1245.089636
1245.089652
1245.089668
1245.089706
1245.089764
1245.089803
1245.089843
1245.089881
1245.089928
1245.090891
1245.090736
1245.090628
1245.090454
1245.090344
1245.090258
1245.090202
1245.09015
1245.090133
1245.090076
1245.090101
1245.090132
1245.090153
1245.090134
1245.09013
1245.091202
1245.091138
1245.091039
1245.090968
1245.090883
1245.090822
1245.090776
1245.090753
1245.090713
1245.090657
1245.090663
1245.090635
1245.090617
1245.090606
1245.090827
1245.090761
1245.090725
1245.090652
1245.090594
1245.090532
1245.090483
1245.09045
1245.090427
1245.090372
1245.090299
1245.090259
1245.090234
1245.090217
1245.091245
1245.091203
1245.091171
1245.091164
1245.091144
1245.091122
1245.091075
1245.091025
1245.090972
1245.090926
1245.090894
1245.090846
1245.090782
1245.09075
1245.0907
1245.090306
1245.0903
1245.090276
1245.090239
1245.090171
1245.090138
1245.090092
1245.090054
1245.089997
1245.089942
1245.089893
1245.089894
1245.089849
1245.089804
1245.089749
1245.090819
1245.090764
1245.090707
1245.090635
1245.090587
1245.09052
1245.090429
1245.090368
1245.09027
1245.090248
1245.090226
1245.09018
1245.090154
1245.09013
1245.09009
1245.090547
1245.090425
1245.090272
1245.090166
1245.09008
1245.089992
1245.089888
1245.08985
1245.089816
1245.089803
1245.08977
1245.08974
1245.089727
1245.089752
1245.089747
1245.091122
1245.090996
1245.090845
1245.090712
1245.090603
1245.090517
1245.090446
1245.090404
1245.09038
1245.09036
1245.090314
1245.090344
1245.090351
1245.090349
1245.090347
1245.090566
1245.090463
1245.090345
1245.090235
1245.090173
1245.090106
1245.090049
1245.08999
1245.089964
1245.089912
1245.089902
1245.089865
1245.089834
1245.089836
1245.08984
1245.090802
1245.090752
1245.090676
1245.090596
1245.090489
1245.090434
1245.090364
1245.090334
1245.090291
1245.090275
1245.090263
1245.090268
1245.090246
1245.090249
1245.090245
1245.09124
1245.091244
1245.091216
1245.091181
1245.091134
1245.091079
1245.091044
1245.090998
1245.090931
1245.09086
1245.090831
1245.090794
1245.090745
1245.09073
1245.090657
1245.091311
1245.091292
1245.091282
1245.091247
1245.09121
1245.09118
1245.091154
1245.091086
1245.091032
1245.090983
1245.09094
1245.090879
1245.090862
1245.090817
1245.090508
1245.090502
1245.090485
1245.090461
1245.090443
1245.09041
1245.090364
1245.09036
1245.090322
1245.090273
1245.090215
1245.090185
1245.090117
1245.090074
1245.090074
1245.090767
1245.090742
1245.090709
1245.090703
1245.090659
1245.090639
1245.090592
1245.090541
1245.090504
1245.090447
1245.090411
1245.090349
1245.090313
1245.090287
1245.09026
1245.090566
1245.090569
1245.090526
1245.090487
1245.090424
1245.090365
1245.090317
1245.090241
1245.090202
1245.090149
1245.090104
1245.090072
1245.090018
1245.089996
1245.089968
1245.091159
1245.09111
1245.091054
1245.090972
1245.090914
1245.090854
1245.090788
1245.090723
1245.090686
1245.090609
1245.090559
1245.090507
1245.090497
1245.09047
1245.090443
1245.090719
1245.090666
1245.090596
1245.090523
1245.09045
1245.090372
1245.090291
1245.090216
1245.090175
1245.090122
1245.090091
1245.09007
1245.090045
1245.09002
1245.090016
1245.091663
1245.091604
1245.091573
1245.091508
1245.091421
1245.091337
1245.091267
1245.091198
1245.09112
1245.09105
1245.090996
1245.090941
1245.090902
1245.090883
1245.090887
1245.0913
1245.091277
1245.091257
1245.09123
1245.091175
1245.091106
1245.09105
1245.090991
1245.090934
1245.090846
1245.0908
1245.090767
1245.090756
1245.090736
1245.090707
1245.090082
1245.090085
1245.090058
1245.090012
1245.089999
1245.08997
1245.089927
1245.08989
1245.08984
1245.08979
1245.089752
1245.089697
1245.089673
1245.08963
1245.089605
1245.090736
1245.09072
1245.090713
1245.090704
1245.090677
1245.090652
1245.090619
1245.090599
1245.090559
1245.090507
1245.090459
1245.090425
1245.090399
1245.090357
1245.090353
)
;

boundaryField
{
    top
    {
        type            calculated;
        value           nonuniform List<scalar> 
127
(
1245.090736
1245.090855
1245.091364
1245.090472
1245.090988
1245.090372
1245.090399
1245.090827
1245.091311
1245.09072
1245.090838
1245.091329
1245.090431
1245.090906
1245.090313
1245.090325
1245.090761
1245.091292
1245.090713
1245.090843
1245.091306
1245.090397
1245.090839
1245.090217
1245.09027
1245.090725
1245.091282
1245.090704
1245.090816
1245.091263
1245.090367
1245.090782
1245.090146
1245.090215
1245.090652
1245.091247
1245.090677
1245.090777
1245.091223
1245.090287
1245.090698
1245.090059
1245.090135
1245.090594
1245.09121
1245.090652
1245.090766
1245.091163
1245.090212
1245.09063
1245.090004
1245.090095
1245.090532
1245.09118
1245.090619
1245.090717
1245.091093
1245.090155
1245.0906
1245.089916
1245.090025
1245.090483
1245.091154
1245.090599
1245.090665
1245.091056
1245.090124
1245.090536
1245.089865
1245.08998
1245.09045
1245.091086
1245.090559
1245.090628
1245.091009
1245.090058
1245.090463
1245.08983
1245.089937
1245.090427
1245.091032
1245.090507
1245.090579
1245.090964
1245.090017
1245.09042
1245.089789
1245.089909
1245.090372
1245.090983
1245.090459
1245.090554
1245.090916
1245.089977
1245.090387
1245.08976
1245.08987
1245.090299
1245.09094
1245.090425
1245.090524
1245.090883
1245.089918
1245.090356
1245.089747
1245.08985
1245.090259
1245.090879
1245.090399
1245.090494
1245.090863
1245.089892
1245.090336
1245.089743
1245.089842
1245.090234
1245.090862
1245.090357
1245.090457
1245.090811
1245.089843
1245.09034
1245.089712
1245.089811
1245.090217
1245.090817
1245.090353
)
;
    }
    bottom
    {
        type            calculated;
        value           nonuniform List<scalar> 
134
(
1245.090845
1245.091139
1245.090272
1245.090762
1245.090224
1245.090424
1245.091245
1245.090508
1245.090828
1245.090858
1245.091093
1245.090247
1245.090699
1245.09016
1245.090427
1245.091203
1245.090502
1245.09081
1245.090809
1245.091055
1245.090196
1245.09063
1245.090102
1245.090409
1245.091171
1245.090485
1245.090776
1245.090799
1245.091009
1245.09013
1245.090563
1245.090038
1245.090341
1245.091164
1245.090461
1245.090772
1245.090781
1245.090972
1245.090084
1245.090487
1245.08996
1245.090305
1245.091144
1245.090443
1245.090754
1245.090724
1245.0909
1245.090014
1245.090428
1245.089905
1245.090238
1245.091122
1245.09041
1245.090704
1245.09068
1245.090854
1245.089971
1245.090383
1245.089834
1245.090163
1245.091075
1245.090364
1245.090656
1245.09063
1245.09081
1245.089901
1245.090296
1245.089775
1245.090111
1245.091025
1245.09036
1245.090612
1245.090606
1245.090764
1245.08984
1245.09023
1245.089734
1245.090083
1245.090972
1245.090322
1245.090573
1245.090528
1245.090732
1245.089776
1245.090182
1245.089696
1245.090033
1245.090926
1245.090273
1245.090542
1245.090487
1245.09069
1245.089721
1245.090154
1245.089654
1245.089977
1245.090894
1245.090215
1245.090515
1245.090443
1245.090657
1245.089699
1245.09015
1245.089641
1245.089956
1245.090846
1245.090185
1245.09046
1245.09042
1245.090625
1245.089664
1245.090121
1245.089609
1245.089956
1245.090782
1245.090117
1245.090417
1245.09038
1245.090597
1245.089652
1245.090115
1245.089583
1245.089938
1245.09075
1245.090074
1245.090384
1245.090353
1245.090586
1245.089626
1245.090098
1245.089563
1245.089921
1245.0907
1245.090074
)
;
    }
    side-walls
    {
        type            calculated;
        value           nonuniform List<scalar> 
261
(
1245.090828
1245.091093
1245.090614
1245.091378
1245.091142
1245.089846
1245.090413
1245.091025
1245.090855
1245.09081
1245.091053
1245.090585
1245.091292
1245.091061
1245.089775
1245.090378
1245.090997
1245.090838
1245.090776
1245.091025
1245.090519
1245.091236
1245.090986
1245.089717
1245.090314
1245.090972
1245.090843
1245.090772
1245.090976
1245.090456
1245.09117
1245.090917
1245.089653
1245.090256
1245.090948
1245.090816
1245.090754
1245.090933
1245.090356
1245.09113
1245.090827
1245.089578
1245.09018
1245.090929
1245.090777
1245.090704
1245.090907
1245.090302
1245.091053
1245.090763
1245.089505
1245.090124
1245.090868
1245.090766
1245.090656
1245.090889
1245.090231
1245.090964
1245.090688
1245.089441
1245.090058
1245.09082
1245.090717
1245.090612
1245.09085
1245.090216
1245.090922
1245.090645
1245.089399
1245.090006
1245.090761
1245.090665
1245.090573
1245.090804
1245.090163
1245.090901
1245.090596
1245.089375
1245.089974
1245.090694
1245.090628
1245.090542
1245.090752
1245.090146
1245.090842
1245.09057
1245.089321
1245.08992
1245.090653
1245.090579
1245.090515
1245.090698
1245.090087
1245.090798
1245.090562
1245.089276
1245.089886
1245.090608
1245.090554
1245.09046
1245.090658
1245.090075
1245.090741
1245.090538
1245.089264
1245.08986
1245.090549
1245.090524
1245.090417
1245.090621
1245.090029
1245.090726
1245.090504
1245.089236
1245.089824
1245.090504
1245.090494
1245.090384
1245.090591
1245.090011
1245.090749
1245.090495
1245.089211
1245.089788
1245.090483
1245.090457
1245.090508
1245.090767
1245.090566
1245.091159
1245.090719
1245.091663
1245.0913
1245.090082
1245.090736
1245.090502
1245.090742
1245.090569
1245.09111
1245.090666
1245.091604
1245.091277
1245.090085
1245.09072
1245.090485
1245.090709
1245.090526
1245.091054
1245.090596
1245.091573
1245.091257
1245.090058
1245.090713
1245.090461
1245.090703
1245.090487
1245.090972
1245.090523
1245.091508
1245.09123
1245.090012
1245.090704
1245.090443
1245.090659
1245.090424
1245.090914
1245.09045
1245.091421
1245.091175
1245.089999
1245.090677
1245.09041
1245.090639
1245.090365
1245.090854
1245.090372
1245.091337
1245.091106
1245.08997
1245.090652
1245.090364
1245.090592
1245.090317
1245.090788
1245.090291
1245.091267
1245.09105
1245.089927
1245.090619
1245.09036
1245.090541
1245.090241
1245.090723
1245.090216
1245.091198
1245.090991
1245.08989
1245.090599
1245.090322
1245.090504
1245.090202
1245.090686
1245.090175
1245.09112
1245.090934
1245.08984
1245.090559
1245.090273
1245.090447
1245.090149
1245.090609
1245.090122
1245.09105
1245.090846
1245.08979
1245.090507
1245.090215
1245.090411
1245.090104
1245.090559
1245.090091
1245.090996
1245.0908
1245.089752
1245.090459
1245.090185
1245.090349
1245.090072
1245.090507
1245.09007
1245.090941
1245.090767
1245.089697
1245.090425
1245.090117
1245.090313
1245.090018
1245.090497
1245.090045
1245.090902
1245.090756
1245.089673
1245.090399
1245.090074
1245.090287
1245.089996
1245.09047
1245.09002
1245.090883
1245.090736
1245.08963
1245.090357
1245.090074
1245.09026
1245.089968
1245.090443
1245.090016
1245.090887
1245.090707
1245.089605
1245.090353
)
;
    }
    inlet
    {
        type            calculated;
        value           nonuniform 0();
    }
    outlet
    {
        type            calculated;
        value           nonuniform List<scalar> 
81
(
1245.090384
1245.090591
1245.090011
1245.090749
1245.090495
1245.089211
1245.089788
1245.090483
1245.090457
1245.090353
1245.090678
1245.090465
1245.089648
1245.090419
1245.090253
1245.091108
1245.089822
1245.090811
1245.090586
1245.089425
1245.089714
1245.089136
1245.090561
1245.088807
1245.0901
1245.090459
1245.089843
1245.089626
1245.089662
1245.088707
1245.089542
1245.08865
1245.089588
1245.089347
1245.090067
1245.09034
1245.090098
1245.089635
1245.090799
1245.089131
1244.365853
1245.089275
1245.089545
1245.089403
1245.089712
1245.089563
1245.089514
1245.089007
1245.089076
1245.089084
1245.088908
1245.089558
1245.089455
1245.089811
1245.089921
1245.090436
1245.090827
1245.089795
1245.088677
1245.089928
1245.09013
1245.090606
1245.090217
1245.0907
1245.089749
1245.09009
1245.089747
1245.090347
1245.08984
1245.090245
1245.090657
1245.090817
1245.090074
1245.09026
1245.089968
1245.090443
1245.090016
1245.090887
1245.090707
1245.089605
1245.090353
)
;
    }
    procBoundary1to0
    {
        type            processor;
        value           nonuniform List<scalar> 
97
(
1245.090842
1245.090842
1245.091111
1245.09067
1245.09142
1245.091216
1245.089868
1245.09045
1245.091039
1245.090853
1245.090867
1245.09135
1245.09135
1245.09135
1245.09113
1245.090442
1245.091133
1245.090962
1245.091768
1245.090333
1245.091391
1245.091147
1245.090159
1245.090347
1245.090347
1245.090347
1245.089779
1245.090836
1245.089498
1245.090812
1245.091187
1245.090494
1245.090292
1245.09045
1245.08967
1245.089127
1245.089127
1245.089127
1245.085256
1245.089333
1245.090081
1245.090866
1245.091033
1245.090799
1245.090504
1245.091605
1245.089626
1244.339905
1244.339905
1244.339905
1245.085814
1245.085814
1245.089757
1245.09017
1245.090442
1245.09024
1245.090274
1245.089999
1245.089812
1245.089733
1245.089696
1245.090155
1245.090155
1245.090155
1245.090182
1245.090469
1245.090461
1245.091235
1245.091591
1245.090727
1245.089554
1245.090815
1245.091005
1245.091256
1245.091256
1245.091256
1245.090835
1245.091283
1245.090323
1245.090872
1245.090634
1245.091238
1245.090656
1245.090828
1245.091246
1245.091311
1245.091311
1245.091311
1245.090516
1245.090773
1245.090556
1245.091174
1245.090742
1245.091698
1245.091331
1245.090093
1245.090753
)
;
    }
}


// ************************************************************************* //
