/*--------------------------------*- C++ -*----------------------------------*\
| =========                 |                                                 |
| \\      /  F ield         | OpenFOAM: The Open Source CFD Toolbox           |
|  \\    /   O peration     | Version:  4.x                                   |
|   \\  /    A nd           | Web:      www.OpenFOAM.org                      |
|    \\/     M anipulation  |                                                 |
\*---------------------------------------------------------------------------*/
FoamFile
{
    version     2.0;
    format      ascii;
    class       volScalarField;
    location    "7000";
    object      H2;
}
// * * * * * * * * * * * * * * * * * * * * * * * * * * * * * * * * * * * * * //

dimensions      [0 0 0 0 0 0 0];

internalField   nonuniform List<scalar> 
1174
(
0.002172456779
0.002172414708
0.002172355396
0.002172278153
0.002172183853
0.002172074624
0.002171953416
0.002171823559
0.002171688413
0.002171551133
0.00217141462
0.002171281948
0.002171158543
0.002171061719
0.002172417343
0.002172350045
0.002172260574
0.002172151067
0.002172025349
0.002171888027
0.002171743752
0.002171596741
0.002171450534
0.00217130794
0.002171171164
0.002171042332
0.002170925533
0.002170835506
0.002172330335
0.002172211622
0.002172064994
0.002171898794
0.002171721998
0.002171542624
0.002171366992
0.002171199577
0.002171043195
0.002170899358
0.00217076868
0.002170651517
0.0021705497
0.002170473576
0.002172203046
0.002172018916
0.002171807915
0.002171585541
0.002171364648
0.002171154418
0.002170960545
0.00217078592
0.002170631406
0.00217049653
0.002170380067
0.002170280641
0.002170198026
0.002170138337
0.002172112325
0.002171892364
0.00217165284
0.002171410666
0.002171178019
0.002170962627
0.002170768646
0.002170597628
0.00217044936
0.002170322536
0.002170215278
0.002170125651
0.002170052731
0.002170000943
0.002172203048
0.002172018919
0.002171807918
0.002171585545
0.002171364652
0.002171154422
0.00217096055
0.002170785925
0.002170631411
0.002170496535
0.002170380072
0.002170280646
0.002170198031
0.002170138342
0.002172330337
0.002172211624
0.002172064997
0.002171898797
0.002171722001
0.002171542628
0.002171366997
0.002171199581
0.002171043201
0.002170899364
0.002170768686
0.002170651523
0.002170549707
0.002170473583
0.002172417344
0.002172350047
0.002172260576
0.002172151069
0.002172025352
0.002171888031
0.002171743756
0.002171596745
0.002171450539
0.002171307945
0.00217117117
0.002171042339
0.002170925541
0.002170835514
0.00217245678
0.002172414709
0.002172355397
0.002172278154
0.002172183854
0.002172074626
0.002171953418
0.002171823562
0.002171688417
0.002171551138
0.002171414625
0.002171281954
0.00217115855
0.002171061727
0.002172462857
0.002172417343
0.002172350046
0.002172260575
0.002172151068
0.00217202535
0.002171888029
0.002171743754
0.002171596742
0.002171450535
0.002171307941
0.002171171165
0.002171042333
0.002170925535
0.002170835507
0.002172328597
0.002172210708
0.002172067208
0.002171906784
0.002171738112
0.002171568467
0.002171403236
0.002171245996
0.002171098838
0.002170962774
0.002170838154
0.002170725275
0.002170626101
0.002170551277
0.00217210562
0.002171877113
0.002171629241
0.002171383013
0.002171152729
0.002170946111
0.002170765883
0.00217061157
0.002170480947
0.002170371065
0.002170278889
0.002170201806
0.002170138567
0.002170093157
0.002171710013
0.002171330838
0.002170971115
0.002170657631
0.002170399548
0.00217019539
0.00217003858
0.002169920896
0.002169834315
0.002169771815
0.002169727612
0.002169697115
0.002169676841
0.002169664842
0.002171337495
0.002170881905
0.002170496852
0.002170192151
0.00216996144
0.002169792686
0.002169673178
0.002169591557
0.002169538423
0.002169506314
0.002169489435
0.002169483294
0.002169484155
0.002169487979
0.002171710015
0.002171330841
0.002170971119
0.002170657635
0.002170399552
0.002170195395
0.002170038585
0.002169920901
0.00216983432
0.00216977182
0.002169727617
0.00216969712
0.002169676846
0.002169664847
0.002172105623
0.002171877116
0.002171629244
0.002171383016
0.002171152733
0.002170946115
0.002170765888
0.002170611575
0.002170480953
0.002170371071
0.002170278896
0.002170201813
0.002170138575
0.002170093164
0.0021723286
0.002172210711
0.002172067211
0.002171906786
0.002171738115
0.002171568471
0.002171403241
0.002171246001
0.002171098844
0.002170962781
0.002170838161
0.002170725283
0.00217062611
0.002170551286
0.002172417344
0.002172350047
0.002172260576
0.002172151069
0.002172025352
0.002171888031
0.002171743757
0.002171596746
0.00217145054
0.002171307947
0.002171171172
0.00217104234
0.002170925543
0.002170835516
0.002172415842
0.002172330336
0.002172211624
0.002172064996
0.002171898797
0.002171722
0.002171542627
0.002171366996
0.00217119958
0.002171043199
0.002170899361
0.002170768683
0.00217065152
0.002170549703
0.002170473579
0.002172290498
0.002172105622
0.002171877116
0.002171629244
0.002171383016
0.002171152732
0.002170946114
0.002170765887
0.002170611573
0.00217048095
0.002170371067
0.002170278892
0.002170201809
0.00217013857
0.002170093159
0.002171448104
0.002170967399
0.002170533271
0.002170178338
0.002169908993
0.002169717063
0.002169588514
0.002169508545
0.002169464019
0.002169444296
0.002169441211
0.002169448637
0.002169461658
0.002169474569
0.002169988258
0.002169178802
0.002168622786
0.002168296508
0.002168145108
0.002168113663
0.002168158033
0.002168246347
0.002168357055
0.002168476273
0.002168595361
0.002168708792
0.002168811289
0.002168889693
0.002168080013
0.002167277573
0.002166936394
0.002166880143
0.002166983313
0.002167167107
0.002167384958
0.002167610457
0.002167829261
0.002168034074
0.002168221549
0.002168390056
0.002168536508
0.002168645929
0.002169988273
0.002169178817
0.0021686228
0.00216829652
0.00216814512
0.002168113674
0.002168158044
0.002168246357
0.002168357064
0.002168476281
0.002168595369
0.0021687088
0.002168811296
0.0021688897
0.002171448116
0.002170967409
0.00217053328
0.002170178348
0.002169909003
0.002169717074
0.002169588525
0.002169508556
0.002169464031
0.002169444308
0.002169441222
0.002169448648
0.002169461669
0.00216947458
0.002172105623
0.002171877117
0.002171629246
0.002171383019
0.002171152736
0.002170946119
0.002170765893
0.00217061158
0.002170480958
0.002170371076
0.002170278901
0.002170201819
0.00217013858
0.00217009317
0.002172330337
0.002172211625
0.002172064998
0.002171898799
0.002171722003
0.002171542631
0.002171367001
0.002171199586
0.002171043206
0.00217089937
0.002170768693
0.00217065153
0.002170549714
0.00217047359
0.00217234534
0.002172203049
0.00217201892
0.00217180792
0.002171585547
0.002171364654
0.002171154424
0.002170960552
0.002170785927
0.002170631412
0.002170496536
0.002170380074
0.002170280647
0.002170198031
0.002170138342
0.00217205956
0.002171710015
0.002171330842
0.00217097112
0.002170657636
0.002170399553
0.002170195395
0.002170038585
0.002169920901
0.002169834319
0.002169771819
0.002169727616
0.002169697119
0.002169676845
0.002169664846
0.002170979124
0.002169988261
0.002169178807
0.002168622791
0.002168296512
0.002168145112
0.002168113666
0.002168158036
0.00216824635
0.002168357058
0.002168476275
0.002168595363
0.002168708794
0.002168811291
0.002168889695
0.002164991585
0.00216397927
0.002163818989
0.00216411853
0.002164622036
0.002165185594
0.002165736549
0.002166242711
0.002166693167
0.002167087376
0.002167429198
0.002167723242
0.002167970139
0.002168150335
0.002155205372
0.002156500016
0.002158474849
0.002160364026
0.002161967132
0.002163273643
0.002164326782
0.002165176991
0.002165868092
0.002166434743
0.002166903234
0.002167292356
0.002167610931
0.002167839731
0.002164991641
0.002163979308
0.002163819018
0.002164118555
0.002164622058
0.002165185613
0.002165736566
0.002166242726
0.002166693181
0.002167087388
0.002167429208
0.002167723252
0.002167970148
0.002168150344
0.002169988272
0.002169178821
0.002168622807
0.002168296529
0.00216814513
0.002168113684
0.002168158054
0.002168246367
0.002168357075
0.002168476291
0.002168595378
0.002168708809
0.002168811305
0.002168889709
0.002171710016
0.002171330844
0.002170971124
0.002170657643
0.002170399561
0.002170195405
0.002170038596
0.002169920913
0.002169834332
0.002169771833
0.00216972763
0.002169697133
0.002169676859
0.00216966486
0.002172203048
0.00217201892
0.00217180792
0.002171585549
0.002171364658
0.002171154429
0.002170960558
0.002170785935
0.002170631422
0.002170496547
0.002170380085
0.00217028066
0.002170198045
0.002170138356
0.002172292542
0.002172112328
0.002171892369
0.002171652846
0.002171410672
0.002171178027
0.002170962635
0.002170768654
0.002170597636
0.002170449367
0.002170322543
0.002170215285
0.002170125658
0.002170052737
0.002170000949
0.002171819002
0.002171337499
0.002170881912
0.002170496859
0.002170192159
0.002169961448
0.002169792694
0.002169673186
0.002169591564
0.00216953843
0.00216950632
0.002169489441
0.002169483299
0.00216948416
0.002169487984
0.002169511432
0.002168080011
0.002167277581
0.002166936402
0.002166880152
0.002166983321
0.002167167114
0.002167384965
0.002167610463
0.002167829266
0.002168034079
0.002168221554
0.00216839006
0.002168536512
0.002168645933
0.002156928926
0.002155205392
0.002156500036
0.002158474866
0.00216036404
0.002161967144
0.002163273653
0.00216432679
0.002165176998
0.002165868098
0.002166434748
0.002166903238
0.00216729236
0.002167610934
0.002167839733
0.002113137043
0.002134586435
0.002146453961
0.002153396859
0.002157695112
0.002160505991
0.002162439457
0.002163829953
0.002164868448
0.002165668503
0.002166300193
0.002166807286
0.002167212353
0.002167498809
0.00215520536
0.002156500071
0.002158474903
0.002160364071
0.002161967169
0.002163273674
0.002164326808
0.002165177013
0.002165868112
0.00216643476
0.002166903249
0.00216729237
0.002167610944
0.002167839742
0.002168080018
0.002167277597
0.002166936423
0.002166880173
0.002166983342
0.002167167134
0.002167384983
0.00216761048
0.002167829283
0.002168034095
0.002168221569
0.002168390074
0.002168536525
0.002168645947
0.0021713375
0.002170881916
0.002170496867
0.002170192169
0.00216996146
0.002169792708
0.0021696732
0.00216959158
0.002169538446
0.002169506336
0.002169489457
0.002169483315
0.002169484176
0.002169488
0.002172112327
0.002171892369
0.002171652848
0.002171410676
0.002171178033
0.002170962642
0.002170768663
0.002170597646
0.00217044938
0.002170322556
0.002170215299
0.002170125673
0.002170052753
0.002170000965
0.002172345341
0.00217220305
0.002172018922
0.002171807923
0.00217158555
0.002171364658
0.002171154429
0.002170960557
0.002170785932
0.002170631418
0.002170496542
0.002170380079
0.002170280653
0.002170198037
0.002170138348
0.002172059563
0.002171710021
0.002171330849
0.002170971128
0.002170657644
0.002170399561
0.002170195403
0.002170038593
0.002169920909
0.002169834327
0.002169771827
0.002169727624
0.002169697127
0.002169676852
0.002169664853
0.002170979145
0.002169988283
0.002169178832
0.002168622814
0.002168296533
0.002168145132
0.002168113684
0.002168158053
0.002168246365
0.002168357072
0.002168476288
0.002168595375
0.002168708806
0.002168811301
0.002168889706
0.002167279035
0.002164991675
0.002163979342
0.002163819046
0.002164118576
0.002164622074
0.002165185625
0.002165736576
0.002166242734
0.002166693187
0.002167087393
0.002167429213
0.002167723256
0.002167970152
0.002168150348
0.00215692893
0.002155205408
0.002156500103
0.002158474925
0.002160364085
0.002161967178
0.002163273681
0.002164326813
0.002165177017
0.002165868114
0.002166434762
0.002166903251
0.002167292371
0.002167610945
0.002167839743
0.002167279025
0.002164991687
0.00216397936
0.002163819065
0.002164118594
0.00216462209
0.00216518564
0.002165736589
0.002166242746
0.002166693199
0.002167087404
0.002167429223
0.002167723265
0.00216797016
0.002168150356
0.002169988258
0.002169178824
0.002168622817
0.002168296542
0.002168145144
0.002168113698
0.002168158068
0.00216824638
0.002168357087
0.002168476303
0.002168595389
0.00216870882
0.002168811315
0.002168889719
0.002171710014
0.002171330844
0.002170971127
0.002170657648
0.002170399567
0.002170195412
0.002170038604
0.002169920921
0.00216983434
0.00216977184
0.002169727638
0.002169697141
0.002169676866
0.002169664868
0.002172203048
0.00217201892
0.002171807922
0.002171585551
0.002171364661
0.002171154434
0.002170960563
0.002170785941
0.002170631427
0.002170496553
0.002170380091
0.002170280666
0.002170198051
0.002170138363
0.002172415843
0.002172330338
0.002172211627
0.002172065
0.002171898801
0.002171722005
0.002171542633
0.002171367002
0.002171199587
0.002171043207
0.00217089937
0.002170768692
0.00217065153
0.002170549713
0.002170473589
0.002172290501
0.002172105626
0.002171877121
0.00217162925
0.002171383022
0.002171152739
0.002170946122
0.002170765895
0.002170611582
0.00217048096
0.002170371078
0.002170278903
0.00217020182
0.002170138581
0.002170093171
0.002171907483
0.002171448122
0.002170967416
0.002170533288
0.002170178356
0.002169909011
0.002169717081
0.002169588533
0.002169508563
0.002169464037
0.002169444314
0.002169441228
0.002169448654
0.002169461675
0.002169474585
0.002170979147
0.002169988289
0.002169178841
0.002168622826
0.002168296547
0.002168145146
0.002168113698
0.002168158066
0.002168246378
0.002168357084
0.002168476299
0.002168595385
0.002168708815
0.002168811311
0.002168889714
0.002169511452
0.002168080051
0.002167277628
0.002166936448
0.002166880194
0.002166983358
0.002167167147
0.002167384993
0.002167610488
0.00216782929
0.002168034101
0.002168221574
0.002168390078
0.002168536529
0.00216864595
0.002170979148
0.002169988293
0.002169178846
0.002168622832
0.002168296554
0.002168145153
0.002168113705
0.002168158074
0.002168246385
0.002168357091
0.002168476306
0.002168595392
0.002168708822
0.002168811317
0.002168889721
0.002171907477
0.002171448117
0.002170967415
0.00217053329
0.00217017836
0.002169909017
0.00216971709
0.002169588542
0.002169508573
0.002169464048
0.002169444325
0.002169441239
0.002169448664
0.002169461685
0.002169474596
0.00217210562
0.002171877117
0.002171629248
0.002171383023
0.002171152742
0.002170946127
0.002170765902
0.00217061159
0.002170480969
0.002170371088
0.002170278913
0.002170201831
0.002170138592
0.002170093182
0.002172330335
0.002172211624
0.002172064998
0.0021718988
0.002171722006
0.002171542635
0.002171367006
0.002171199592
0.002171043213
0.002170899377
0.002170768701
0.002170651539
0.002170549724
0.0021704736
0.002172462858
0.002172417345
0.002172350048
0.002172260578
0.002172151071
0.002172025355
0.002171888034
0.00217174376
0.00217159675
0.002171450544
0.00217130795
0.002171171175
0.002171042344
0.002170925547
0.00217083552
0.002172414642
0.002172328601
0.002172210713
0.002172067214
0.00217190679
0.00217173812
0.002171568476
0.002171403246
0.002171246007
0.00217109885
0.002170962787
0.002170838168
0.002170725289
0.002170626116
0.002170551292
0.002172290501
0.002172105627
0.002171877122
0.002171629252
0.002171383025
0.002171152743
0.002170946125
0.002170765899
0.002170611586
0.002170480965
0.002170371083
0.002170278908
0.002170201825
0.002170138586
0.002170093176
0.002172059564
0.002171710023
0.002171330853
0.002170971134
0.002170657653
0.002170399571
0.002170195414
0.002170038605
0.002169920921
0.002169834339
0.002169771839
0.002169727636
0.002169697139
0.002169676864
0.002169664865
0.002171819007
0.00217133751
0.002170881927
0.002170496878
0.00217019218
0.00216996147
0.002169792717
0.002169673208
0.002169591587
0.002169538452
0.002169506341
0.002169489462
0.00216948332
0.002169484181
0.002169488004
0.002172059564
0.002171710024
0.002171330854
0.002170971136
0.002170657655
0.002170399573
0.002170195417
0.002170038608
0.002169920925
0.002169834344
0.002169771844
0.002169727641
0.002169697143
0.002169676869
0.00216966487
0.0021722905
0.002172105626
0.002171877122
0.002171629253
0.002171383027
0.002171152745
0.002170946129
0.002170765904
0.002170611592
0.002170480971
0.002170371089
0.002170278914
0.002170201832
0.002170138593
0.002170093183
0.00217241464
0.002172328599
0.002172210711
0.002172067212
0.00217190679
0.00217173812
0.002171568477
0.002171403249
0.00217124601
0.002171098854
0.002170962792
0.002170838173
0.002170725296
0.002170626123
0.0021705513
0.002172417343
0.002172350046
0.002172260576
0.00217215107
0.002172025354
0.002171888034
0.002171743761
0.002171596752
0.002171450547
0.002171307955
0.002171171181
0.00217104235
0.002170925554
0.002170835528
0.002172483882
0.002172456781
0.00217241471
0.002172355399
0.002172278156
0.002172183857
0.00217207463
0.002171953422
0.002171823566
0.002171688422
0.002171551143
0.002171414631
0.00217128196
0.002171158557
0.002171061733
0.002172462858
0.002172417345
0.002172350048
0.002172260579
0.002172151072
0.002172025356
0.002171888035
0.002171743762
0.002171596752
0.002171450546
0.002171307953
0.002171171178
0.002171042347
0.002170925549
0.002170835523
0.002172415843
0.002172330338
0.002172211627
0.002172065001
0.002171898803
0.002171722008
0.002171542636
0.002171367006
0.002171199592
0.002171043212
0.002170899375
0.002170768698
0.002170651536
0.00217054972
0.002170473596
0.002172345341
0.00217220305
0.002172018924
0.002171807925
0.002171585554
0.002171364663
0.002171154435
0.002170960564
0.002170785941
0.002170631427
0.002170496552
0.00217038009
0.002170280665
0.00217019805
0.002170138361
0.002172292543
0.002172112331
0.002171892374
0.002171652852
0.002171410681
0.002171178038
0.002170962647
0.002170768668
0.002170597651
0.002170449384
0.00217032256
0.002170215303
0.002170125677
0.002170052756
0.002170000968
0.002172345341
0.00217220305
0.002172018923
0.002171807925
0.002171585554
0.002171364663
0.002171154436
0.002170960565
0.002170785942
0.002170631429
0.002170496554
0.002170380093
0.002170280667
0.002170198052
0.002170138364
0.002172415842
0.002172330338
0.002172211626
0.002172065
0.002171898802
0.002171722008
0.002171542636
0.002171367007
0.002171199593
0.002171043214
0.002170899378
0.002170768702
0.00217065154
0.002170549724
0.002170473601
0.002172462857
0.002172417344
0.002172350048
0.002172260578
0.002172151072
0.002172025356
0.002171888036
0.002171743763
0.002171596754
0.002171450549
0.002171307956
0.002171171182
0.002171042352
0.002170925555
0.002170835529
0.002172483882
0.00217245678
0.002172414709
0.002172355398
0.002172278156
0.002172183857
0.00217207463
0.002171953423
0.002171823568
0.002171688424
0.002171551146
0.002171414635
0.002171281965
0.002171158562
0.00217106174
)
;

boundaryField
{
    top
    {
        type            zeroGradient;
    }
    bottom
    {
        type            zeroGradient;
    }
    side-walls
    {
        type            zeroGradient;
    }
    inlet
    {
        type            zeroGradient;
    }
    outlet
    {
        type            zeroGradient;
    }
    procBoundary1to0
    {
        type            processor;
        value           nonuniform List<scalar> 
97
(
0.002172483882
0.002172483882
0.002172462857
0.002172415842
0.002172345341
0.002172292544
0.002172345342
0.002172415843
0.002172462858
0.002172483883
0.00217248981
0.00217241464
0.00217241464
0.00217241464
0.0021722905
0.002172059564
0.002171819008
0.002172059566
0.002172290502
0.002172414643
0.002172462858
0.002172468481
0.002172413398
0.002171907476
0.002171907476
0.002171907476
0.002170979145
0.002169511462
0.00217097916
0.002171907489
0.002172290503
0.002172415843
0.002172437279
0.002172316427
0.002171894427
0.00216727897
0.00216727897
0.00216727897
0.002156929053
0.002167279065
0.002170979158
0.002172059567
0.002172345342
0.002172415039
0.002172225109
0.002171426726
0.002168272795
0.00207217111
0.00207217111
0.00207217111
0.002156929018
0.002156929018
0.002169511462
0.00217181901
0.002172292545
0.002172437279
0.002172316427
0.002171894429
0.002170670004
0.002168272791
0.002170670007
0.002170979131
0.002170979131
0.002170979131
0.002172059563
0.002172345341
0.002172468481
0.002172413398
0.002172252232
0.002171894429
0.002171426733
0.00217189443
0.002172252232
0.002172290498
0.002172290498
0.002172290498
0.002172415842
0.00217248981
0.002172468056
0.002172413398
0.002172316427
0.00217222511
0.002172316427
0.002172413398
0.002172468056
0.002172462857
0.002172462857
0.002172462857
0.002172499477
0.00217248981
0.002172468481
0.002172437279
0.002172415039
0.002172437279
0.002172468481
0.00217248981
0.002172499477
)
;
    }
}


// ************************************************************************* //
