/*--------------------------------*- C++ -*----------------------------------*\
| =========                 |                                                 |
| \\      /  F ield         | OpenFOAM: The Open Source CFD Toolbox           |
|  \\    /   O peration     | Version:  4.x                                   |
|   \\  /    A nd           | Web:      www.OpenFOAM.org                      |
|    \\/     M anipulation  |                                                 |
\*---------------------------------------------------------------------------*/
FoamFile
{
    version     2.0;
    format      ascii;
    class       volScalarField;
    location    "7000";
    object      H2O;
}
// * * * * * * * * * * * * * * * * * * * * * * * * * * * * * * * * * * * * * //

dimensions      [0 0 0 0 0 0 0];

internalField   nonuniform List<scalar> 
1174
(
1.477760407e-06
1.833131563e-06
2.3341425e-06
2.986620009e-06
3.783189207e-06
4.705877832e-06
5.729790515e-06
6.826783486e-06
7.968481259e-06
9.128249558e-06
1.028158052e-05
1.140249214e-05
1.244514337e-05
1.32632312e-05
1.810879387e-06
2.37932504e-06
3.135065771e-06
4.060064268e-06
5.122008419e-06
6.282001196e-06
7.500763116e-06
8.742677003e-06
9.977840232e-06
1.118252917e-05
1.233810853e-05
1.342661727e-05
1.441349255e-05
1.517418612e-05
2.545794393e-06
3.548493939e-06
4.786989954e-06
6.190827717e-06
7.684213896e-06
9.199413326e-06
1.068305252e-05
1.209735072e-05
1.341848949e-05
1.463372206e-05
1.573783936e-05
1.672782749e-05
1.758819875e-05
1.823148006e-05
3.620888491e-06
5.176078846e-06
6.958265728e-06
8.83655781e-06
1.070240446e-05
1.247825265e-05
1.411599847e-05
1.559122691e-05
1.689664402e-05
1.803622509e-05
1.902031208e-05
1.986052383e-05
2.055873907e-05
2.106321783e-05
4.38707048e-06
6.244865658e-06
8.267953917e-06
1.031348541e-05
1.227861271e-05
1.409807823e-05
1.573675727e-05
1.718153936e-05
1.843421241e-05
1.950580132e-05
2.041215239e-05
2.116960818e-05
2.17859472e-05
2.22236963e-05
3.620860369e-06
5.176038505e-06
6.958211194e-06
8.836486937e-06
1.070231571e-05
1.247814445e-05
1.411586783e-05
1.559107636e-05
1.68964765e-05
1.803603913e-05
1.902010797e-05
1.986030496e-05
2.055850815e-05
2.106297635e-05
2.545764355e-06
3.548454557e-06
4.786937652e-06
6.19075708e-06
7.684118304e-06
9.199287877e-06
1.068289384e-05
1.209715525e-05
1.341825846e-05
1.463345686e-05
1.57375384e-05
1.672749549e-05
1.758783448e-05
1.823108975e-05
1.810853146e-06
2.37929441e-06
3.135027776e-06
4.060012465e-06
5.121934938e-06
6.281899247e-06
7.50062626e-06
8.742499968e-06
9.977619467e-06
1.118226157e-05
1.233779312e-05
1.342625576e-05
1.441308387e-05
1.517373638e-05
1.477742385e-06
1.833114207e-06
2.334121831e-06
2.986590388e-06
3.783143238e-06
4.705806827e-06
5.729686993e-06
6.82664131e-06
7.968293158e-06
9.128009679e-06
1.028128493e-05
1.140213788e-05
1.244472921e-05
1.32627552e-05
1.426413701e-06
1.810856819e-06
2.379302173e-06
3.135042249e-06
4.060039682e-06
5.121982066e-06
6.281973885e-06
7.500734979e-06
8.742648346e-06
9.977811866e-06
1.118250148e-05
1.233808087e-05
1.342659051e-05
1.441346496e-05
1.51741598e-05
2.560490932e-06
3.556213944e-06
4.768287977e-06
6.123343458e-06
7.54810238e-06
8.981132415e-06
1.037692685e-05
1.170528145e-05
1.29485179e-05
1.409808934e-05
1.51510378e-05
1.610483942e-05
1.694288135e-05
1.757517355e-05
4.443805332e-06
6.373771017e-06
8.467351467e-06
1.054711916e-05
1.249229111e-05
1.423765203e-05
1.576017155e-05
1.706387539e-05
1.816751777e-05
1.909602234e-05
1.987499262e-05
2.052650025e-05
2.106106557e-05
2.144494061e-05
7.784953916e-06
1.098738204e-05
1.402562581e-05
1.667346222e-05
1.885349294e-05
2.05781458e-05
2.19029679e-05
2.289737688e-05
2.36291225e-05
2.415749499e-05
2.453133971e-05
2.4789425e-05
2.496113804e-05
2.506283104e-05
1.093084831e-05
1.47786289e-05
1.803084855e-05
2.060456627e-05
2.255347455e-05
2.397917762e-05
2.498900495e-05
2.567887435e-05
2.612816335e-05
2.639989053e-05
2.654297427e-05
2.659537364e-05
2.65885853e-05
2.655664388e-05
7.784879074e-06
1.09872913e-05
1.402551565e-05
1.667332817e-05
1.885333099e-05
2.057795687e-05
2.190275481e-05
2.289713937e-05
2.362887028e-05
2.415722529e-05
2.4531057e-05
2.47891275e-05
2.496083393e-05
2.506251634e-05
4.443722317e-06
6.373685333e-06
8.467249839e-06
1.054698964e-05
1.249211956e-05
1.423743505e-05
1.575990854e-05
1.706356733e-05
1.816716965e-05
1.909563622e-05
1.987457141e-05
2.052604941e-05
2.106059042e-05
2.144444109e-05
2.56043502e-06
3.556163699e-06
4.768227453e-06
6.12325845e-06
7.547980495e-06
8.980964453e-06
1.037670762e-05
1.170500835e-05
1.294818906e-05
1.40977082e-05
1.51506034e-05
1.610435587e-05
1.694235097e-05
1.757459785e-05
1.81085586e-06
2.379295504e-06
3.135024384e-06
4.060001073e-06
5.121912949e-06
6.281863147e-06
7.500573873e-06
8.742430561e-06
9.977531526e-06
1.118215527e-05
1.233766929e-05
1.342611265e-05
1.441292178e-05
1.517354709e-05
1.823523757e-06
2.545736999e-06
3.548430636e-06
4.786921669e-06
6.190755208e-06
7.684136408e-06
9.199333714e-06
1.068297254e-05
1.209727073e-05
1.341840908e-05
1.463364324e-05
1.573776158e-05
1.672775388e-05
1.758812579e-05
1.823140586e-05
2.882276925e-06
4.443724209e-06
6.37369557e-06
8.467276933e-06
1.054704616e-05
1.24922174e-05
1.423758109e-05
1.576010297e-05
1.706380849e-05
1.816745308e-05
1.909596321e-05
1.987493508e-05
2.052644709e-05
2.106101756e-05
2.144489191e-05
9.997102066e-06
1.405690729e-05
1.772351905e-05
2.072141505e-05
2.29965865e-05
2.461800278e-05
2.570418174e-05
2.638010557e-05
2.675668879e-05
2.692380471e-05
2.695040209e-05
2.688821352e-05
2.677872575e-05
2.667003318e-05
2.232590574e-05
2.916205927e-05
3.385814025e-05
3.661419925e-05
3.789344458e-05
3.815967709e-05
3.778561461e-05
3.704041342e-05
3.610606384e-05
3.509982473e-05
3.409464559e-05
3.313720313e-05
3.227206052e-05
3.161023742e-05
3.844022416e-05
4.521735776e-05
4.809942906e-05
4.857531618e-05
4.770487073e-05
4.615349399e-05
4.431444129e-05
4.241075445e-05
4.056354546e-05
3.883445125e-05
3.725174042e-05
3.582918519e-05
3.459282725e-05
3.366904862e-05
2.232551867e-05
2.916168849e-05
3.385775649e-05
3.661379019e-05
3.789300776e-05
3.81592174e-05
3.778514509e-05
3.703994396e-05
3.61055926e-05
3.509935488e-05
3.409418415e-05
3.313675208e-05
3.227161938e-05
3.160979482e-05
9.996818165e-06
1.405666944e-05
1.772324843e-05
2.072108209e-05
2.299617606e-05
2.461752444e-05
2.570364326e-05
2.63795197e-05
2.675606526e-05
2.692315498e-05
2.694973528e-05
2.688753185e-05
2.677803535e-05
2.66693349e-05
4.44372027e-06
6.373664184e-06
8.467198772e-06
1.054690298e-05
1.249199648e-05
1.423727823e-05
1.575971804e-05
1.706334758e-05
1.816692537e-05
1.90953712e-05
1.987428799e-05
2.052575277e-05
2.106028157e-05
2.144411978e-05
2.545769968e-06
3.548448281e-06
4.78690878e-06
6.190694943e-06
7.68401561e-06
9.199140207e-06
1.06826972e-05
1.209690949e-05
1.341796545e-05
1.463311653e-05
1.573715754e-05
1.672707612e-05
1.758737905e-05
1.823059233e-05
2.418989272e-06
3.620786973e-06
5.175960095e-06
6.958133546e-06
8.836415132e-06
1.070225438e-05
1.247809749e-05
1.411584306e-05
1.559107189e-05
1.689649237e-05
1.803607967e-05
1.90201699e-05
1.986038514e-05
2.055860918e-05
2.106309118e-05
4.832673253e-06
7.784785898e-06
1.098721138e-05
1.402545881e-05
1.667329901e-05
1.885333432e-05
2.057799531e-05
2.19028259e-05
2.289723862e-05
2.362899287e-05
2.415737559e-05
2.453122653e-05
2.478931287e-05
2.496103221e-05
2.506272879e-05
1.395771488e-05
2.232558927e-05
2.916181548e-05
3.385794149e-05
3.661402829e-05
3.789329349e-05
3.815954475e-05
3.778549841e-05
3.7040318e-05
3.610597493e-05
3.509974247e-05
3.40945667e-05
3.313713036e-05
3.227199565e-05
3.161017945e-05
6.452280405e-05
7.307183889e-05
7.442620791e-05
7.189758847e-05
6.764645049e-05
6.288810629e-05
5.823607485e-05
5.396223241e-05
5.01587426e-05
4.683019786e-05
4.394400584e-05
4.146125287e-05
3.937660236e-05
3.785510063e-05
0.0001471609555
0.0001362301069
0.0001195551639
0.0001036031403
9.006652039e-05
7.903429317e-05
7.014153086e-05
6.296233824e-05
5.712667343e-05
5.234189485e-05
4.838599788e-05
4.510031848e-05
4.241034293e-05
4.047837301e-05
6.452141603e-05
7.307083219e-05
7.442527011e-05
7.189665043e-05
6.764552963e-05
6.288720524e-05
5.823521342e-05
5.396141999e-05
5.015797965e-05
4.682948568e-05
4.394334049e-05
4.146062586e-05
3.937600382e-05
3.785451916e-05
2.232555734e-05
2.916156351e-05
3.385746369e-05
3.661337357e-05
3.789249727e-05
3.815866025e-05
3.778455569e-05
3.703934238e-05
3.610499559e-05
3.50987699e-05
3.409361042e-05
3.313618857e-05
3.227107128e-05
3.160925405e-05
7.784891221e-06
1.098721767e-05
1.402532901e-05
1.667302232e-05
1.885291484e-05
2.057745042e-05
2.190217083e-05
2.289649651e-05
2.362818328e-05
2.415650451e-05
2.453031233e-05
2.478836712e-05
2.496006017e-05
2.506172798e-05
3.620875483e-06
5.17601764e-06
6.958128072e-06
8.836322734e-06
1.070205737e-05
1.247778795e-05
1.411541679e-05
1.559053566e-05
1.689585492e-05
1.803534611e-05
1.901935094e-05
1.985949001e-05
2.055764482e-05
2.106205516e-05
2.86489949e-06
4.386954712e-06
6.24472479e-06
8.267792258e-06
1.031330793e-05
1.227842254e-05
1.409788069e-05
1.573655626e-05
1.718134053e-05
1.843401603e-05
1.950560963e-05
2.041196509e-05
2.116942713e-05
2.178576976e-05
2.222352408e-05
6.864164552e-06
1.093062362e-05
1.477838126e-05
1.803059233e-05
2.060431337e-05
2.255322841e-05
2.397894105e-05
2.498878176e-05
2.567866123e-05
2.612796119e-05
2.63996999e-05
2.654279333e-05
2.659520464e-05
2.658842129e-05
2.655648501e-05
2.635146689e-05
3.843976004e-05
4.521689944e-05
4.809900362e-05
4.85749435e-05
4.770454303e-05
4.615321184e-05
4.431419368e-05
4.241053573e-05
4.056335057e-05
3.88342694e-05
3.725157257e-05
3.582903086e-05
3.459268402e-05
3.366891609e-05
0.0001326045437
0.000147159462
0.0001362291472
0.0001195544936
0.0001036026516
9.006613714e-05
7.903399686e-05
7.014130767e-05
6.296215487e-05
5.712651442e-05
5.234175574e-05
4.838587339e-05
4.510020741e-05
4.241024719e-05
4.047828403e-05
0.0005023970945
0.0003212748098
0.0002210635408
0.0001624366048
0.0001261414529
0.0001024058998
8.607936949e-05
7.433777499e-05
6.556854971e-05
5.881278352e-05
5.347873194e-05
4.919682445e-05
4.577644397e-05
4.335756025e-05
0.0001471611205
0.0001362286634
0.0001195532693
0.0001036012424
9.006478263e-05
7.903273782e-05
7.014016067e-05
6.296110769e-05
5.712556365e-05
5.234088341e-05
4.838506947e-05
4.509946884e-05
4.240955542e-05
4.047762606e-05
3.844030171e-05
4.521675421e-05
4.80983604e-05
4.857398479e-05
4.770341708e-05
4.615200613e-05
4.431296689e-05
4.240931156e-05
4.056215108e-05
3.883310866e-05
3.725045116e-05
3.582794372e-05
3.459163413e-05
3.366787998e-05
1.093086164e-05
1.477841859e-05
1.803039842e-05
2.060390289e-05
2.255263815e-05
2.397820356e-05
2.498792779e-05
2.567772317e-05
2.612695939e-05
2.639865276e-05
2.654171839e-05
2.659410212e-05
2.658730439e-05
2.655534535e-05
4.387077245e-06
6.244793637e-06
8.267765037e-06
1.031315781e-05
1.22781385e-05
1.40974573e-05
1.573600045e-05
1.718066009e-05
1.843322655e-05
1.95047244e-05
2.041099665e-05
2.11683837e-05
2.178466373e-05
2.222234933e-05
2.418982093e-06
3.620761462e-06
5.175912186e-06
6.958061131e-06
8.83631726e-06
1.070213042e-05
1.247794707e-05
1.411566569e-05
1.5590868e-05
1.689626598e-05
1.80358305e-05
1.901990219e-05
1.986010189e-05
2.055830708e-05
2.106277929e-05
4.832604961e-06
7.784662279e-06
1.098704099e-05
1.402524655e-05
1.667304808e-05
1.885305129e-05
2.057768573e-05
2.190249226e-05
2.289688658e-05
2.36286248e-05
2.415699215e-05
2.453083259e-05
2.478891535e-05
2.496063165e-05
2.506231941e-05
1.395706493e-05
2.232497653e-05
2.916114275e-05
3.385723909e-05
3.661332038e-05
3.789258282e-05
3.815883469e-05
3.778480453e-05
3.703963801e-05
3.610531599e-05
3.509910169e-05
3.409395195e-05
3.313654105e-05
3.227141988e-05
3.160960881e-05
4.520369198e-05
6.45199743e-05
7.306965593e-05
7.442434467e-05
7.189591996e-05
6.764495343e-05
6.288674271e-05
5.823484105e-05
5.396111194e-05
5.015771556e-05
4.682925801e-05
4.394313226e-05
4.146044074e-05
3.937584324e-05
3.785436772e-05
0.0001326042175
0.0001471589732
0.0001362273141
0.0001195523956
0.0001036006354
9.006434924e-05
7.903241907e-05
7.013991522e-05
6.296091373e-05
5.712541227e-05
5.234075361e-05
4.838496326e-05
4.509937281e-05
4.240946784e-05
4.047753989e-05
4.520412816e-05
6.451989286e-05
7.306909932e-05
7.442347489e-05
7.189490573e-05
6.76439053e-05
6.28857189e-05
5.823386642e-05
5.396018604e-05
5.015684859e-05
4.682844633e-05
4.39423772e-05
4.145973507e-05
3.93751751e-05
3.78537233e-05
2.232591605e-05
2.916136214e-05
3.3856941e-05
3.66126669e-05
3.789170297e-05
3.81578289e-05
3.778372637e-05
3.703852723e-05
3.610419991e-05
3.509800312e-05
3.409287342e-05
3.313548275e-05
3.227038675e-05
3.160858829e-05
7.785010871e-06
1.09872048e-05
1.402518919e-05
1.66727754e-05
1.885258336e-05
2.057705514e-05
2.190173401e-05
2.289602919e-05
2.362769132e-05
2.415600375e-05
2.452980473e-05
2.478785514e-05
2.495954374e-05
2.506120701e-05
3.620907882e-06
5.17601691e-06
6.958079251e-06
8.83621848e-06
1.070189715e-05
1.247757604e-05
1.411515799e-05
1.559023555e-05
1.689551866e-05
1.803498191e-05
1.901896396e-05
1.985908524e-05
2.055722364e-05
2.106162347e-05
1.823508967e-06
2.545699157e-06
3.548366052e-06
4.786827048e-06
6.190625738e-06
7.683967732e-06
9.199122448e-06
1.068271664e-05
1.209696901e-05
1.341806398e-05
1.463325622e-05
1.573733516e-05
1.672728835e-05
1.758762718e-05
1.823088323e-05
2.882174528e-06
4.443589484e-06
6.373519228e-06
8.467056404e-06
1.054677497e-05
1.249189362e-05
1.423720357e-05
1.575967256e-05
1.706333025e-05
1.816693349e-05
1.909540327e-05
1.987434512e-05
2.052582615e-05
2.106037275e-05
2.144422691e-05
6.11705251e-06
9.996521749e-06
1.405633415e-05
1.772289696e-05
2.07207247e-05
2.299583087e-05
2.461719618e-05
2.570333092e-05
2.637922239e-05
2.67557873e-05
2.692289177e-05
2.694948533e-05
2.688729423e-05
2.677780873e-05
2.666912179e-05
1.39570639e-05
2.232484642e-05
2.916084986e-05
3.38568044e-05
3.661277529e-05
3.789197359e-05
3.815819623e-05
3.77841469e-05
3.703898179e-05
3.610467373e-05
3.509847916e-05
3.409334782e-05
3.313595441e-05
3.22708525e-05
3.160905347e-05
2.635129721e-05
3.84390836e-05
4.521571724e-05
4.809751612e-05
4.857330699e-05
4.770286635e-05
4.615156271e-05
4.431259631e-05
4.240900011e-05
4.056189035e-05
3.883287945e-05
3.725024834e-05
3.582776868e-05
3.459147306e-05
3.366773106e-05
1.395702853e-05
2.232471408e-05
2.916057425e-05
3.385639502e-05
3.661226676e-05
3.789139699e-05
3.815758461e-05
3.778352551e-05
3.703836046e-05
3.610406104e-05
3.509787804e-05
3.409276449e-05
3.313538337e-05
3.227030022e-05
3.160850992e-05
6.117268991e-06
9.996682325e-06
1.405632973e-05
1.772269866e-05
2.072034509e-05
2.299530087e-05
2.461654808e-05
2.570260249e-05
2.637843731e-05
2.675496755e-05
2.692205243e-05
2.694863149e-05
2.688643706e-05
2.67769542e-05
2.66682595e-05
4.443809557e-06
6.373628693e-06
8.467036666e-06
1.054661797e-05
1.249159945e-05
1.423678176e-05
1.575913793e-05
1.706269989e-05
1.81662208e-05
1.909462421e-05
1.987350539e-05
2.052494328e-05
2.105945094e-05
2.144326814e-05
2.545812189e-06
3.548453975e-06
4.786858395e-06
6.190576438e-06
7.683821089e-06
9.198866972e-06
1.068234777e-05
1.209648912e-05
1.341747693e-05
1.463257122e-05
1.573655982e-05
1.67264325e-05
1.758669356e-05
1.822987157e-05
1.42638846e-06
1.810815743e-06
2.379240663e-06
3.134956107e-06
4.059922497e-06
5.12182663e-06
6.281773517e-06
7.500484907e-06
8.742345045e-06
9.977452474e-06
1.11820849e-05
1.233760803e-05
1.342606346e-05
1.441288693e-05
1.517353538e-05
1.83364852e-06
2.560365952e-06
3.556069962e-06
4.768109337e-06
6.123118371e-06
7.54782061e-06
8.980788996e-06
1.037651967e-05
1.170481195e-05
1.29479861e-05
1.409750004e-05
1.515039072e-05
1.610414274e-05
1.694213759e-05
1.757438658e-05
2.882173574e-06
4.443575286e-06
6.373481238e-06
8.4669851e-06
1.054666779e-05
1.249174856e-05
1.423702192e-05
1.575946233e-05
1.706309628e-05
1.816667367e-05
1.909512584e-05
1.987405076e-05
2.052552119e-05
2.106005338e-05
2.14438991e-05
4.832607003e-06
7.784601933e-06
1.098688036e-05
1.402496831e-05
1.667265669e-05
1.885255894e-05
2.057710603e-05
2.190184402e-05
2.289618871e-05
2.36278916e-05
2.415623188e-05
2.453005707e-05
2.478812682e-05
2.495983419e-05
2.506151363e-05
6.86413455e-06
1.093041872e-05
1.477795123e-05
1.802994098e-05
2.060347327e-05
2.255224045e-05
2.397784009e-05
2.498759926e-05
2.56774225e-05
2.612668501e-05
2.639840465e-05
2.654148672e-05
2.659389069e-05
2.658710827e-05
2.655516231e-05
4.832583064e-06
7.784545956e-06
1.098677549e-05
1.402480676e-05
1.667243949e-05
1.885228944e-05
2.05767981e-05
2.190150584e-05
2.289582616e-05
2.362750891e-05
2.4155834e-05
2.452964972e-05
2.478771571e-05
2.495941523e-05
2.506108815e-05
2.882189785e-06
4.443581701e-06
6.373442371e-06
8.466876536e-06
1.054647735e-05
1.249147394e-05
1.42366701e-05
1.575903815e-05
1.706260915e-05
1.816613976e-05
1.909454827e-05
1.987343885e-05
2.05248796e-05
2.105938866e-05
2.144320914e-05
1.833697159e-06
2.560419483e-06
3.556100718e-06
4.768093314e-06
6.12303839e-06
7.547664262e-06
8.980551651e-06
1.037619917e-05
1.170441181e-05
1.294751135e-05
1.409695229e-05
1.514977968e-05
1.610347151e-05
1.694141002e-05
1.757361413e-05
1.810882541e-06
2.37929118e-06
3.134976513e-06
4.059897693e-06
5.121742089e-06
6.281615986e-06
7.500245501e-06
8.742019537e-06
9.97703756e-06
1.118158043e-05
1.233701804e-05
1.34253912e-05
1.441213358e-05
1.517270331e-05
1.248789798e-06
1.477716965e-06
1.833076237e-06
2.334068968e-06
2.986520612e-06
3.783056283e-06
4.705702567e-06
5.729564728e-06
6.826501566e-06
7.968138053e-06
9.127842876e-06
1.028110595e-05
1.140195186e-05
1.244453567e-05
1.326255684e-05
1.426388858e-06
1.810814217e-06
2.379235223e-06
3.134943276e-06
4.059900162e-06
5.121791614e-06
6.281722736e-06
7.500417277e-06
8.742259431e-06
9.977349226e-06
1.118196252e-05
1.233746876e-05
1.342590752e-05
1.44127132e-05
1.517333813e-05
1.82351129e-06
2.545693766e-06
3.548344204e-06
4.786777347e-06
6.190540083e-06
7.683838225e-06
9.198945447e-06
1.068249086e-05
1.209669504e-05
1.341774494e-05
1.463289313e-05
1.573693227e-05
1.672685272e-05
1.758715733e-05
1.823037074e-05
2.41898815e-06
3.620743464e-06
5.175846132e-06
6.957924306e-06
8.836093391e-06
1.070181141e-05
1.24775344e-05
1.411515987e-05
1.559027724e-05
1.689559992e-05
1.803509618e-05
1.901910966e-05
1.9859258e-05
2.055742093e-05
2.106184005e-05
2.864896567e-06
4.386895665e-06
6.244571423e-06
8.267515969e-06
1.03128943e-05
1.227786922e-05
1.409719152e-05
1.573574125e-05
1.7180409e-05
1.843298601e-05
1.950449463e-05
2.041077805e-05
2.116817339e-05
2.178446334e-05
2.222215871e-05
2.418980213e-06
3.620724578e-06
5.17580785e-06
6.957859325e-06
8.835997065e-06
1.070168254e-05
1.247736938e-05
1.411496126e-05
1.559004907e-05
1.689534303e-05
1.803481577e-05
1.901880983e-05
1.985893878e-05
2.055708363e-05
2.106148886e-05
1.823511216e-06
2.545688442e-06
3.548321743e-06
4.786724447e-06
6.190444931e-06
7.683692782e-06
9.19874425e-06
1.068223146e-05
1.209637939e-05
1.341737699e-05
1.4632477e-05
1.573647016e-05
1.672634945e-05
1.758661616e-05
1.822979809e-05
1.426395616e-06
1.810823107e-06
2.379235955e-06
3.134922971e-06
4.059844597e-06
5.121689149e-06
6.281564458e-06
7.500195139e-06
8.741970216e-06
9.976990606e-06
1.118153574e-05
1.233697466e-05
1.342534794e-05
1.44120946e-05
1.517266919e-05
1.248803671e-06
1.477736435e-06
1.833093125e-06
2.334072294e-06
2.986498153e-06
3.782994283e-06
4.705588149e-06
5.729387551e-06
6.82625352e-06
7.967812777e-06
9.127434398e-06
1.028061397e-05
1.140137293e-05
1.244387486e-05
1.326181635e-05
)
;

boundaryField
{
    top
    {
        type            zeroGradient;
    }
    bottom
    {
        type            zeroGradient;
    }
    side-walls
    {
        type            zeroGradient;
    }
    inlet
    {
        type            zeroGradient;
    }
    outlet
    {
        type            zeroGradient;
    }
    procBoundary1to0
    {
        type            processor;
        value           nonuniform List<scalar> 
97
(
1.248802533e-06
1.248802533e-06
1.426391531e-06
1.823491327e-06
2.418929419e-06
2.864802935e-06
2.418907869e-06
1.823466771e-06
1.426367179e-06
1.248778362e-06
1.198704844e-06
1.833694916e-06
1.833694916e-06
1.833694916e-06
2.882164573e-06
4.832461927e-06
6.863792579e-06
4.83238732e-06
2.882072423e-06
1.833605636e-06
1.426368655e-06
1.378862987e-06
1.844102165e-06
6.117260616e-06
6.117260616e-06
6.117260616e-06
1.395672411e-05
2.634941965e-05
1.395622733e-05
6.116744248e-06
2.882072375e-06
1.823470479e-06
1.642412699e-06
2.663121208e-06
6.227031817e-06
4.520417947e-05
4.520417947e-05
4.520417947e-05
0.0001325910298
4.520063229e-05
1.395626703e-05
4.832399572e-06
2.41891855e-06
1.830253617e-06
3.434343221e-06
1.01767901e-05
3.680972037e-05
0.0008482201094
0.0008482201094
0.0008482201094
0.0001325918883
0.0001325918883
2.634957492e-05
6.863817445e-06
2.864810577e-06
1.642416881e-06
2.663138186e-06
6.227158031e-06
1.656744839e-05
3.681030758e-05
1.656705708e-05
1.395747786e-05
1.395747786e-05
1.395747786e-05
4.832577496e-06
2.418952959e-06
1.378867575e-06
1.844125155e-06
3.205340611e-06
6.227167458e-06
1.017680014e-05
6.227087313e-06
3.205299072e-06
2.882274642e-06
2.882274642e-06
2.882274642e-06
1.823517809e-06
1.198708436e-06
1.382462126e-06
1.844125294e-06
2.663142595e-06
3.434343983e-06
2.663122461e-06
1.844114008e-06
1.382458933e-06
1.426415689e-06
1.426415689e-06
1.426415689e-06
1.117047147e-06
1.198708703e-06
1.37886903e-06
1.642421307e-06
1.83025579e-06
1.642415834e-06
1.378865574e-06
1.198707423e-06
1.117047124e-06
)
;
    }
}


// ************************************************************************* //
