/*--------------------------------*- C++ -*----------------------------------*\
| =========                 |                                                 |
| \\      /  F ield         | OpenFOAM: The Open Source CFD Toolbox           |
|  \\    /   O peration     | Version:  4.x                                   |
|   \\  /    A nd           | Web:      www.OpenFOAM.org                      |
|    \\/     M anipulation  |                                                 |
\*---------------------------------------------------------------------------*/
FoamFile
{
    version     2.0;
    format      ascii;
    class       volScalarField;
    location    "7000";
    object      molarConc;
}
// * * * * * * * * * * * * * * * * * * * * * * * * * * * * * * * * * * * * * //

dimensions      [0 -3 0 0 1 0 0];

internalField   nonuniform List<scalar> 
1174
(
9.963273062
9.963272036
9.963271049
9.963267613
9.963264096
9.96326161
9.963258445
9.963254663
9.963250386
9.963245577
9.963240609
9.963237314
9.963233783
9.963231029
9.963257318
9.963256203
9.96325351
9.963250907
9.963247249
9.963242177
9.96323634
9.963231491
9.963227049
9.963223129
9.963219565
9.963215658
9.963212114
9.963209497
9.963278324
9.963274244
9.963270839
9.963266327
9.96326326
9.963257663
9.96325315
9.963246062
9.963241534
9.963235727
9.963232701
9.963227876
9.963225555
9.963222949
9.963232228
9.963228047
9.963221078
9.963214069
9.963205757
9.963199917
9.963195523
9.963189524
9.963183414
9.963180184
9.963177114
9.963175494
9.963172426
9.963168462
9.96324034
9.963234212
9.96322688
9.963219054
9.963212867
9.963206109
9.963200968
9.96319518
9.963190814
9.963186312
9.963181715
9.963178828
9.963177249
9.963175346
9.96331267
9.963307675
9.963300793
9.963293694
9.963287207
9.963281189
9.96327543
9.963269469
9.963263513
9.96326004
9.963256967
9.96325299
9.963250642
9.963249206
9.963288892
9.963285147
9.963281603
9.963276815
9.963272495
9.963266997
9.963262197
9.963257096
9.96325146
9.963247553
9.963243252
9.963239163
9.963236287
9.963234665
9.963260886
9.963259157
9.963256265
9.963252354
9.963247444
9.963244196
9.963239937
9.963236143
9.963232837
9.963228278
9.963224281
9.963221359
9.963218271
9.963215143
9.963271625
9.963270563
9.963267523
9.963265309
9.963262922
9.963258367
9.963255247
9.963251862
9.963247468
9.963243608
9.963238527
9.963233921
9.963229738
9.963227148
9.963272451
9.963269644
9.963269022
9.963265326
9.963261151
9.963258201
9.963254073
9.963249955
9.963244293
9.963241519
9.963237046
9.963232931
9.963228141
9.963224815
9.963222022
9.963240985
9.963236992
9.963234382
9.963229815
9.963224556
9.963220077
9.96321649
9.963211163
9.96320721
9.963202592
9.963198794
9.963195009
9.963192612
9.963191586
9.963243009
9.963236669
9.963230184
9.963222175
9.963214227
9.963207649
9.963201167
9.96319549
9.963191565
9.96318813
9.9631863
9.96318435
9.963181759
9.963181283
9.963264249
9.963252366
9.963241161
9.963232669
9.963225054
9.963217401
9.963213526
9.963210464
9.963207261
9.963204665
9.963204619
9.963204251
9.963204963
9.963204006
9.963211859
9.963198929
9.963186783
9.963176923
9.963168319
9.963163394
9.963159564
9.96315748
9.963155738
9.963155824
9.96315616
9.963155947
9.963156638
9.963155199
9.963237521
9.9632252
9.963214739
9.963204049
9.9631959
9.963190219
9.963186027
9.963181446
9.963178964
9.963176707
9.963175414
9.963173829
9.963172997
9.96317226
9.963210563
9.96320364
9.96319755
9.963190599
9.963183674
9.96317656
9.963170552
9.963164639
9.963160564
9.963157747
9.96315371
9.963152019
9.963149498
9.963147468
9.963293806
9.963290271
9.96328573
9.963280322
9.963274075
9.963269041
9.963264792
9.963258019
9.963253126
9.963247931
9.963243804
9.963240671
9.963238382
9.963236508
9.963243042
9.963241761
9.963238757
9.963235851
9.963232021
9.963228737
9.963225604
9.963220657
9.963216263
9.963211943
9.963208107
9.963203793
9.963199427
9.963197922
9.963254798
9.963253181
9.963249583
9.963245089
9.963239234
9.963234688
9.963228663
9.963222735
9.963217294
9.963211659
9.963207122
9.963202799
9.96319899
9.963195761
9.963192774
9.963303749
9.963297586
9.96329066
9.963282843
9.963274462
9.963266565
9.963260762
9.96325647
9.963250679
9.963245855
9.963242016
9.963239557
9.963238944
9.963237812
9.963235855
9.963259012
9.963243201
9.963231163
9.963220387
9.963211796
9.9632052
9.963200357
9.96319828
9.963196028
9.963194724
9.963192577
9.963193826
9.963193261
9.963191579
9.963228631
9.963204957
9.963189427
9.963179439
9.963174665
9.9631733
9.963175229
9.963176531
9.9631803
9.963184048
9.963186476
9.963189859
9.963191783
9.963194415
9.963088888
9.963065038
9.963054488
9.963052942
9.963056861
9.963061298
9.963067041
9.963075303
9.963081111
9.963088513
9.963094466
9.963099724
9.963104474
9.963108165
9.963241696
9.963216723
9.963199391
9.963191175
9.963186404
9.963185328
9.963187098
9.963189222
9.963193532
9.963197801
9.963201922
9.963206325
9.963209966
9.963211684
9.963234316
9.963218814
9.963205886
9.963195655
9.963186561
9.963180736
9.963176633
9.963174413
9.963172319
9.963171919
9.963170629
9.963170372
9.96317173
9.96317131
9.963240142
9.963233257
9.963225243
9.963218638
9.963210689
9.96320567
9.963200531
9.96319494
9.963191807
9.963189663
9.963187049
9.963184236
9.963182287
9.963181505
9.963285782
9.963282338
9.963277241
9.963270952
9.963266847
9.963262363
9.963257131
9.963250872
9.963247037
9.963242445
9.963238451
9.963236063
9.963232702
9.963231724
9.963296995
9.963291607
9.963285567
9.963279109
9.96327107
9.963264364
9.963256709
9.963251315
9.963246332
9.963242473
9.963239067
9.96323478
9.963232011
9.963228799
9.963227439
9.963278266
9.963267905
9.963255788
9.963244527
9.963232738
9.96322497
9.963218777
9.963212931
9.963210118
9.96320658
9.963204832
9.963204368
9.963203566
9.963202867
9.963203285
9.963280117
9.963247383
9.963222566
9.963207135
9.963196153
9.963190607
9.963190357
9.963191403
9.963195892
9.963198773
9.963201913
9.963206577
9.963209778
9.963213871
9.963216935
9.963046026
9.963014173
9.963009406
9.963018352
9.963032506
9.963049749
9.963067443
9.963083305
9.963095732
9.963108342
9.963117706
9.963126001
9.9631334
9.963138325
9.962776841
9.962818054
9.962879852
9.962938853
9.962987666
9.96302845
9.963060373
9.963084201
9.963107468
9.96312718
9.9631419
9.96315438
9.963164467
9.963170534
9.963036531
9.963005961
9.963001442
9.963011154
9.96302441
9.963042871
9.963059626
9.963076423
9.963089774
9.963101113
9.963111923
9.963121196
9.963130118
9.963135902
9.963212181
9.963188246
9.963170675
9.963161994
9.963158412
9.963157362
9.963158347
9.963160332
9.963165128
9.963169172
9.963173177
9.963178011
9.963180635
9.963183283
9.963241197
9.963229694
9.963218969
9.963209419
9.96320307
9.963197943
9.963192674
9.963188966
9.96318877
9.96318616
9.963185795
9.963183779
9.96318165
9.96318195
9.963252688
9.963248302
9.963241883
9.963234402
9.963228427
9.963222128
9.963214563
9.963209755
9.963206349
9.963202316
9.963198597
9.963195605
9.963192832
9.963189862
9.963268788
9.963263597
9.963256824
9.963249075
9.963241618
9.963233781
9.96322602
9.963221526
9.963216971
9.963212541
9.963208122
9.963203361
9.963200718
9.96319765
9.963196197
9.96326852
9.963254688
9.963239022
9.963226265
9.963217189
9.963209257
9.963205367
9.963203381
9.96320106
9.963200201
9.963198279
9.963199451
9.963199952
9.963198043
9.963196352
9.96312439
9.963080062
9.963056073
9.963045819
9.963044293
9.963047893
9.963054146
9.963060624
9.963067687
9.963073805
9.96307841
9.963083388
9.963088306
9.963092078
9.963095646
9.962810837
9.9627605
9.962799145
9.962859539
9.962918948
9.96296724
9.96300775
9.963039552
9.963066523
9.963087723
9.963103799
9.96311663
9.963128115
9.963138039
9.963145288
9.999143296
9.999828106
10.00022101
10.00045986
10.00061734
10.00072981
10.00081524
10.00088268
10.00094172
10.00099356
10.0010377
10.00108073
10.00112061
10.00115556
9.962748554
9.962789238
9.962849485
9.962906574
9.962958056
9.962998727
9.963031597
9.96305492
9.963075774
9.963094032
9.963107952
9.963121604
9.963132663
9.963137686
9.963144509
9.963118832
9.963108703
9.963107676
9.963110715
9.963115364
9.963122318
9.963128077
9.963135255
9.963142008
9.963147944
9.963152895
9.963158155
9.963161422
9.963264057
9.963249193
9.963236825
9.963226764
9.963220233
9.963214932
9.963211421
9.963209188
9.963206396
9.963205861
9.96320731
9.963207391
9.963207277
9.963208479
9.963280759
9.963273476
9.963267196
9.963259543
9.963253145
9.963245898
9.963241419
9.963236105
9.96323102
9.963227214
9.963223744
9.963220305
9.963217113
9.963216396
9.963299519
9.963296146
9.963290507
9.963283941
9.963277566
9.963270031
9.963263892
9.963257913
9.963251873
9.963246651
9.963242572
9.963237792
9.963234872
9.963232418
9.963230716
9.963287392
9.963276666
9.963264604
9.963254377
9.963243393
9.96323607
9.963229553
9.96322398
9.963219877
9.963216506
9.963213729
9.963213414
9.963213156
9.963212675
9.963211045
9.963263081
9.963232657
9.963209273
9.963193925
9.963183673
9.963179894
9.963177522
9.963179278
9.963181687
9.963184813
9.963187312
9.963190699
9.963194511
9.963198504
9.96320118
9.963137266
9.963067675
9.963035306
9.963029479
9.963039308
9.963053377
9.963069333
9.963086841
9.963102916
9.963116442
9.963128791
9.963137977
9.963148001
9.963156861
9.96316276
9.962806942
9.962753332
9.962793538
9.96285497
9.962913017
9.962962926
9.963004457
9.96303733
9.963062865
9.96308567
9.963102146
9.963117336
9.963128526
9.96314021
9.963147686
9.96314364
9.963073306
9.963042033
9.963035505
9.963045189
9.96306061
9.963077816
9.963096358
9.963111938
9.963124717
9.963137347
9.963147696
9.963156779
9.963165068
9.963171509
9.963208711
9.96318372
9.963166748
9.963156243
9.963150584
9.963151122
9.963151861
9.963154292
9.963156551
9.9631607
9.963163121
9.963167022
9.96316951
9.963172171
9.96327639
9.963265222
9.963255501
9.963246696
9.963239453
9.963233269
9.963227979
9.963222586
9.963220104
9.963218216
9.963217464
9.96321762
9.963216614
9.963214076
9.963283605
9.963278797
9.963271771
9.963264184
9.963257994
9.963250191
9.963244763
9.963238908
9.963233927
9.963229135
9.963225739
9.963222147
9.963218739
9.963217634
9.963292325
9.963288132
9.963283523
9.963280175
9.963274245
9.963269421
9.963264937
9.963259411
9.963253029
9.963248332
9.96324457
9.963239535
9.9632341
9.963230302
9.963227651
9.963245642
9.963239871
9.963232943
9.963224682
9.963215616
9.963207926
9.963202082
9.963196953
9.963193289
9.963188795
9.963187484
9.963186647
9.963184637
9.963183575
9.963182719
9.963212254
9.963198232
9.96318241
9.963167463
9.963157006
9.963149847
9.963144636
9.963140439
9.963138505
9.963136814
9.963135486
9.963135091
9.963133069
9.963132347
9.963133137
9.963225289
9.963194883
9.963169553
9.963153089
9.963143187
9.963139194
9.963138568
9.963138929
9.963140423
9.963142096
9.963146643
9.963150507
9.963154635
9.963157951
9.963159768
9.963232922
9.963188302
9.963163526
9.963152128
9.963149963
9.963153008
9.963159027
9.963165126
9.963171692
9.963179338
9.963185838
9.963192422
9.963198767
9.963202874
9.96320696
9.963218977
9.963188239
9.963163913
9.963147499
9.963137826
9.963131543
9.963130685
9.963132069
9.963135512
9.963138847
9.963141525
9.963145209
9.963148523
9.963151461
9.963152767
9.963243837
9.963230235
9.963213217
9.96320187
9.963190943
9.963182767
9.963176687
9.963173441
9.96317065
9.963171618
9.963169443
9.963167748
9.963167094
9.963168784
9.963169677
9.963236881
9.963229461
9.963222964
9.963215066
9.963208674
9.963202188
9.96319616
9.963190101
9.963186095
9.963183945
9.963179361
9.963177265
9.963175282
9.963173763
9.96326718
9.963265036
9.963260021
9.963256025
9.963250734
9.963245533
9.963239878
9.963233727
9.963227596
9.963223772
9.963221525
9.963218127
9.963214737
9.96321205
9.963251452
9.963251534
9.963250053
9.963246199
9.963242071
9.963237339
9.963233323
9.9632292
9.963225069
9.963220643
9.963215654
9.963211735
9.963209101
9.96320533
9.963203744
9.963298455
9.963294735
9.963290463
9.963285606
9.96328166
9.963275451
9.96326988
9.963264102
9.963259728
9.963255704
9.963251953
9.963246047
9.963243156
9.963240931
9.963240305
9.963265681
9.963259858
9.963252045
9.963244133
9.963235071
9.963227768
9.963222844
9.963217585
9.963215498
9.963210539
9.963206594
9.963204717
9.963202542
9.96320089
9.963200904
9.963269065
9.963258975
9.963249061
9.963237705
9.963227451
9.963219886
9.963215795
9.963210467
9.963206756
9.963203407
9.963202278
9.963201856
9.963201162
9.963198981
9.963198753
9.963227483
9.963211336
9.963197773
9.963186583
9.963177971
9.963171618
9.963167485
9.963164114
9.963161595
9.963160244
9.9631612
9.963158903
9.96315833
9.963158578
9.963158926
9.963268042
9.963256946
9.963245241
9.96323405
9.963222511
9.963213923
9.963207315
9.963203079
9.963198965
9.963197663
9.963195342
9.963195261
9.963195518
9.963194575
9.963193853
9.963266561
9.963260475
9.963253676
9.963246212
9.963240225
9.963232238
9.963226212
9.963219318
9.963214354
9.963209102
9.963204607
9.963200084
9.963197647
9.963194597
9.963192685
9.963249469
9.963245203
9.963241084
9.963236157
9.963231091
9.963226001
9.963219889
9.963214556
9.963210683
9.963207517
9.963202667
9.963198804
9.963196104
9.963192269
9.963192621
9.963245864
9.963243677
9.963239973
9.96323666
9.963232681
9.963227789
9.963222407
9.963219053
9.963215048
9.963210946
9.963206775
9.963203956
9.963199412
9.963197568
9.96329113
9.963290157
9.96328908
9.963287584
9.963284893
9.963282166
9.963279473
9.963273978
9.963269887
9.963266119
9.96326273
9.963257888
9.963255275
9.963251765
9.963247265
9.963276575
9.963275724
9.963274294
9.963270383
9.963267536
9.96326269
9.963258669
9.963254613
9.963249621
9.963245753
9.963240984
9.96323784
9.963233701
9.963229608
9.963226875
9.963284876
9.963280698
9.963277337
9.963272471
9.963268001
9.963262765
9.963256833
9.963252596
9.963246762
9.963242242
9.963237855
9.963233449
9.963230828
9.963227258
9.963225188
9.963250408
9.963246303
9.963240555
9.963234874
9.96322748
9.963220243
9.963213787
9.963208089
9.963201865
9.963198653
9.96319499
9.963192289
9.963188222
9.963185821
9.963184433
9.963271017
9.963265327
9.963258619
9.963251128
9.963243579
9.963236712
9.963230828
9.963225647
9.963219808
9.963215661
9.963211345
9.963207504
9.963204647
9.963202575
9.963200412
9.963223992
9.963220355
9.96321328
9.963206737
9.963200854
9.963194876
9.963188658
9.963183185
9.963179069
9.963175503
9.963172067
9.963169502
9.963166916
9.963164079
9.963161116
9.963246349
9.963243521
9.963238958
9.96323349
9.963228526
9.963223857
9.963218351
9.963213168
9.963208312
9.963205627
9.963201321
9.963196928
9.963192035
9.963188367
9.96318632
9.963312522
9.963310189
9.963308472
9.963306653
9.963302165
9.963297773
9.963293582
9.963288729
9.963284478
9.963280249
9.96327553
9.963272039
9.963267273
9.963264087
9.963261172
9.96327915
9.963278721
9.963277145
9.963274781
9.963272559
9.96326945
9.963266063
9.963261402
9.963257426
9.963253803
9.963249875
9.963245273
9.963240426
9.963236848
9.963232569
)
;

boundaryField
{
    top
    {
        type            calculated;
        value           nonuniform List<scalar> 
127
(
9.96327915
9.963271625
9.963243042
9.963285782
9.963252688
9.963280759
9.963283605
9.96326718
9.963245864
9.963278721
9.963270563
9.963241761
9.963282338
9.963248302
9.963273476
9.963278797
9.963265036
9.963243677
9.963277145
9.963267523
9.963238757
9.963277241
9.963241883
9.963267196
9.963271771
9.963260021
9.963239973
9.963274781
9.963265309
9.963235851
9.963270952
9.963234402
9.963259543
9.963264184
9.963256025
9.96323666
9.963272559
9.963262922
9.963232021
9.963266847
9.963228427
9.963253145
9.963257994
9.963250734
9.963232681
9.96326945
9.963258367
9.963228737
9.963262363
9.963222128
9.963245898
9.963250191
9.963245533
9.963227789
9.963266063
9.963255247
9.963225604
9.963257131
9.963214563
9.963241419
9.963244763
9.963239878
9.963222407
9.963261402
9.963251862
9.963220657
9.963250872
9.963209755
9.963236105
9.963238908
9.963233727
9.963219053
9.963257426
9.963247468
9.963216263
9.963247037
9.963206349
9.96323102
9.963233927
9.963227596
9.963215048
9.963253803
9.963243608
9.963211943
9.963242445
9.963202316
9.963227214
9.963229135
9.963223772
9.963210946
9.963249875
9.963238527
9.963208107
9.963238451
9.963198597
9.963223744
9.963225739
9.963221525
9.963206775
9.963245273
9.963233921
9.963203793
9.963236063
9.963195605
9.963220305
9.963222147
9.963218127
9.963203956
9.963240426
9.963229738
9.963199427
9.963232702
9.963192832
9.963217113
9.963218739
9.963214737
9.963199412
9.963236848
9.963227148
9.963197922
9.963231724
9.963189862
9.963216396
9.963217634
9.96321205
9.963197568
9.963232569
)
;
    }
    bottom
    {
        type            calculated;
        value           nonuniform List<scalar> 
134
(
9.963272451
9.963254798
9.963296995
9.963268788
9.963299519
9.963292325
9.963251452
9.96329113
9.963273062
9.963269644
9.963253181
9.963291607
9.963263597
9.963296146
9.963288132
9.963251534
9.963290157
9.963272036
9.963269022
9.963249583
9.963285567
9.963256824
9.963290507
9.963283523
9.963250053
9.96328908
9.963271049
9.963265326
9.963245089
9.963279109
9.963249075
9.963283941
9.963280175
9.963246199
9.963287584
9.963267613
9.963261151
9.963239234
9.96327107
9.963241618
9.963277566
9.963274245
9.963242071
9.963284893
9.963264096
9.963258201
9.963234688
9.963264364
9.963233781
9.963270031
9.963269421
9.963237339
9.963282166
9.96326161
9.963254073
9.963228663
9.963256709
9.96322602
9.963263892
9.963264937
9.963233323
9.963279473
9.963258445
9.963249955
9.963222735
9.963251315
9.963221526
9.963257913
9.963259411
9.9632292
9.963273978
9.963254663
9.963244293
9.963217294
9.963246332
9.963216971
9.963251873
9.963253029
9.963225069
9.963269887
9.963250386
9.963241519
9.963211659
9.963242473
9.963212541
9.963246651
9.963248332
9.963220643
9.963266119
9.963245577
9.963237046
9.963207122
9.963239067
9.963208122
9.963242572
9.96324457
9.963215654
9.96326273
9.963240609
9.963232931
9.963202799
9.96323478
9.963203361
9.963237792
9.963239535
9.963211735
9.963257888
9.963237314
9.963228141
9.96319899
9.963232011
9.963200718
9.963234872
9.9632341
9.963209101
9.963255275
9.963233783
9.963224815
9.963195761
9.963228799
9.96319765
9.963232418
9.963230302
9.96320533
9.963251765
9.963231029
9.963222022
9.963192774
9.963227439
9.963196197
9.963230716
9.963227651
9.963203744
9.963247265
)
;
    }
    side-walls
    {
        type            calculated;
        value           nonuniform List<scalar> 
261
(
9.963273062
9.963257318
9.963278324
9.963232228
9.96324034
9.96331267
9.963288892
9.963260886
9.963271625
9.963272036
9.963256203
9.963274244
9.963228047
9.963234212
9.963307675
9.963285147
9.963259157
9.963270563
9.963271049
9.96325351
9.963270839
9.963221078
9.96322688
9.963300793
9.963281603
9.963256265
9.963267523
9.963267613
9.963250907
9.963266327
9.963214069
9.963219054
9.963293694
9.963276815
9.963252354
9.963265309
9.963264096
9.963247249
9.96326326
9.963205757
9.963212867
9.963287207
9.963272495
9.963247444
9.963262922
9.96326161
9.963242177
9.963257663
9.963199917
9.963206109
9.963281189
9.963266997
9.963244196
9.963258367
9.963258445
9.96323634
9.96325315
9.963195523
9.963200968
9.96327543
9.963262197
9.963239937
9.963255247
9.963254663
9.963231491
9.963246062
9.963189524
9.96319518
9.963269469
9.963257096
9.963236143
9.963251862
9.963250386
9.963227049
9.963241534
9.963183414
9.963190814
9.963263513
9.96325146
9.963232837
9.963247468
9.963245577
9.963223129
9.963235727
9.963180184
9.963186312
9.96326004
9.963247553
9.963228278
9.963243608
9.963240609
9.963219565
9.963232701
9.963177114
9.963181715
9.963256967
9.963243252
9.963224281
9.963238527
9.963237314
9.963215658
9.963227876
9.963175494
9.963178828
9.96325299
9.963239163
9.963221359
9.963233921
9.963233783
9.963212114
9.963225555
9.963172426
9.963177249
9.963250642
9.963236287
9.963218271
9.963229738
9.963231029
9.963209497
9.963222949
9.963168462
9.963175346
9.963249206
9.963234665
9.963215143
9.963227148
9.96329113
9.963276575
9.963284876
9.963250408
9.963271017
9.963223992
9.963246349
9.963312522
9.96327915
9.963290157
9.963275724
9.963280698
9.963246303
9.963265327
9.963220355
9.963243521
9.963310189
9.963278721
9.96328908
9.963274294
9.963277337
9.963240555
9.963258619
9.96321328
9.963238958
9.963308472
9.963277145
9.963287584
9.963270383
9.963272471
9.963234874
9.963251128
9.963206737
9.96323349
9.963306653
9.963274781
9.963284893
9.963267536
9.963268001
9.96322748
9.963243579
9.963200854
9.963228526
9.963302165
9.963272559
9.963282166
9.96326269
9.963262765
9.963220243
9.963236712
9.963194876
9.963223857
9.963297773
9.96326945
9.963279473
9.963258669
9.963256833
9.963213787
9.963230828
9.963188658
9.963218351
9.963293582
9.963266063
9.963273978
9.963254613
9.963252596
9.963208089
9.963225647
9.963183185
9.963213168
9.963288729
9.963261402
9.963269887
9.963249621
9.963246762
9.963201865
9.963219808
9.963179069
9.963208312
9.963284478
9.963257426
9.963266119
9.963245753
9.963242242
9.963198653
9.963215661
9.963175503
9.963205627
9.963280249
9.963253803
9.96326273
9.963240984
9.963237855
9.96319499
9.963211345
9.963172067
9.963201321
9.96327553
9.963249875
9.963257888
9.96323784
9.963233449
9.963192289
9.963207504
9.963169502
9.963196928
9.963272039
9.963245273
9.963255275
9.963233701
9.963230828
9.963188222
9.963204647
9.963166916
9.963192035
9.963267273
9.963240426
9.963251765
9.963229608
9.963227258
9.963185821
9.963202575
9.963164079
9.963188367
9.963264087
9.963236848
9.963247265
9.963226875
9.963225188
9.963184433
9.963200412
9.963161116
9.96318632
9.963261172
9.963232569
)
;
    }
    inlet
    {
        type            calculated;
        value           nonuniform 0();
    }
    outlet
    {
        type            calculated;
        value           nonuniform List<scalar> 
81
(
9.963231029
9.963209497
9.963222949
9.963168462
9.963175346
9.963249206
9.963234665
9.963215143
9.963227148
9.963222022
9.963191586
9.963181283
9.963204006
9.963155199
9.96317226
9.963147468
9.963236508
9.963197922
9.963192774
9.963235855
9.963191579
9.963194415
9.963108165
9.963211684
9.96317131
9.963181505
9.963231724
9.963227439
9.963203285
9.963216935
9.963138325
9.963170534
9.963135902
9.963183283
9.96318195
9.963189862
9.963196197
9.963196352
9.963095646
9.963145288
10.00115556
9.963137686
9.963161422
9.963208479
9.963216396
9.963230716
9.963211045
9.96320118
9.96316276
9.963147686
9.963171509
9.963172171
9.963214076
9.963217634
9.963227651
9.963182719
9.963133137
9.963159768
9.96320696
9.963152767
9.963169677
9.963173763
9.96321205
9.963203744
9.963240305
9.963200904
9.963198753
9.963158926
9.963193853
9.963192685
9.963192621
9.963197568
9.963247265
9.963226875
9.963225188
9.963184433
9.963200412
9.963161116
9.96318632
9.963261172
9.963232569
)
;
    }
    procBoundary1to0
    {
        type            processor;
        value           nonuniform List<scalar> 
97
(
9.963273583
9.963273583
9.963258474
9.963279405
9.963236746
9.963244944
9.96331819
9.963290977
9.963262262
9.963273003
9.963272555
9.963243673
9.963243673
9.963243673
9.963249366
9.963274587
9.963226902
9.96324728
9.963215862
9.963297052
9.963243783
9.96325687
9.963306119
9.963272387
9.963272387
9.963272387
9.9632583
9.963133212
9.963273007
9.963247971
9.963246361
9.963288684
9.963300303
9.963286284
9.963307298
9.963117424
9.963117424
9.963117424
9.962829672
9.963106414
9.963242422
9.963252297
9.963257028
9.963272597
9.963279131
9.963183561
9.963138108
9.997896956
9.997896956
9.997896956
9.962800419
9.962800419
9.96318987
9.96327748
9.963285561
9.963303008
9.963295515
9.963290039
9.963241902
9.963132535
9.963247958
9.963238571
9.963238571
9.963238571
9.963288237
9.963286657
9.963292863
9.963249628
9.963223329
9.963251818
9.963291237
9.963247162
9.963254133
9.963242744
9.963242744
9.963242744
9.963270765
9.963250727
9.963300096
9.963268724
9.963276612
9.963240567
9.96327545
9.963270993
9.963251636
9.96324798
9.96324798
9.96324798
9.963291475
9.963277499
9.963287879
9.963253991
9.963275605
9.963226442
9.963247189
9.963313183
9.963279029
)
;
    }
}


// ************************************************************************* //
