/*--------------------------------*- C++ -*----------------------------------*\
| =========                 |                                                 |
| \\      /  F ield         | OpenFOAM: The Open Source CFD Toolbox           |
|  \\    /   O peration     | Version:  4.x                                   |
|   \\  /    A nd           | Web:      www.OpenFOAM.org                      |
|    \\/     M anipulation  |                                                 |
\*---------------------------------------------------------------------------*/
FoamFile
{
    version     2.0;
    format      ascii;
    class       volScalarField;
    location    "7000";
    object      N2;
}
// * * * * * * * * * * * * * * * * * * * * * * * * * * * * * * * * * * * * * //

dimensions      [0 0 0 0 0 0 0];

internalField   nonuniform List<scalar> 
1174
(
0.6030930729
0.6030924529
0.6030915789
0.6030904405
0.6030890507
0.6030874407
0.603085654
0.6030837395
0.6030817469
0.6030797225
0.6030777091
0.6030757521
0.6030739315
0.603072503
0.6030924919
0.6030915003
0.603090182
0.6030885682
0.6030867154
0.6030846914
0.6030825647
0.6030803973
0.6030782415
0.6030761386
0.6030741211
0.6030722205
0.6030704971
0.6030691685
0.6030912102
0.6030894612
0.6030873008
0.6030848518
0.6030822463
0.6030796025
0.6030770135
0.6030745452
0.6030722391
0.6030701175
0.6030681896
0.6030664606
0.6030649576
0.6030638337
0.6030893353
0.6030866227
0.603083514
0.6030802373
0.603076982
0.6030738833
0.6030710252
0.6030684503
0.6030661714
0.6030641815
0.6030624627
0.6030609947
0.6030597744
0.6030588925
0.6030879992
0.6030847588
0.6030812299
0.6030776614
0.6030742328
0.6030710579
0.6030681981
0.6030656761
0.603063489
0.6030616176
0.6030600343
0.6030587106
0.603057633
0.6030568675
0.6030893354
0.6030866228
0.6030835141
0.6030802374
0.6030769821
0.6030738834
0.6030710253
0.6030684505
0.6030661715
0.6030641816
0.6030624628
0.6030609949
0.6030597746
0.6030588927
0.6030912103
0.6030894613
0.6030873009
0.6030848519
0.6030822464
0.6030796026
0.6030770137
0.6030745453
0.6030722393
0.6030701177
0.6030681898
0.6030664608
0.6030649579
0.603063834
0.6030924919
0.6030915004
0.603090182
0.6030885683
0.6030867155
0.6030846915
0.6030825648
0.6030803975
0.6030782416
0.6030761388
0.6030741214
0.6030722208
0.6030704974
0.6030691689
0.6030930729
0.603092453
0.6030915789
0.6030904406
0.6030890508
0.6030874408
0.6030856541
0.6030837397
0.603081747
0.6030797227
0.6030777094
0.6030757524
0.6030739319
0.6030725033
0.6030931625
0.6030924919
0.6030915004
0.603090182
0.6030885683
0.6030867155
0.6030846915
0.6030825647
0.6030803973
0.6030782415
0.6030761386
0.6030741211
0.6030722205
0.6030704971
0.6030691685
0.6030911846
0.6030894478
0.6030873335
0.6030849696
0.6030824838
0.6030799834
0.6030775477
0.6030752293
0.6030730592
0.6030710522
0.6030692136
0.6030675477
0.6030660838
0.6030649791
0.6030879004
0.6030845342
0.6030808823
0.6030772541
0.6030738604
0.6030708148
0.6030681576
0.6030658818
0.6030639548
0.603062333
0.603060972
0.6030598332
0.6030588984
0.6030582268
0.603082074
0.6030764885
0.6030711889
0.6030665696
0.6030627658
0.6030597558
0.6030574429
0.6030557061
0.6030544273
0.6030535031
0.6030528484
0.6030523956
0.6030520935
0.603051914
0.6030765883
0.6030698772
0.6030642042
0.6030597139
0.6030563128
0.6030538239
0.6030520601
0.6030508542
0.6030500679
0.6030495911
0.6030493388
0.6030492446
0.6030492538
0.6030493074
0.6030820741
0.6030764886
0.603071189
0.6030665698
0.6030627659
0.603059756
0.6030574431
0.6030557063
0.6030544275
0.6030535033
0.6030528486
0.6030523958
0.6030520937
0.6030519142
0.6030879005
0.6030845342
0.6030808824
0.6030772543
0.6030738605
0.603070815
0.6030681578
0.6030658821
0.603063955
0.6030623333
0.6030609723
0.6030598335
0.6030588987
0.6030582272
0.6030911847
0.6030894479
0.6030873336
0.6030849697
0.603082484
0.6030799836
0.6030775478
0.6030752295
0.6030730594
0.6030710525
0.6030692139
0.6030675481
0.6030660842
0.6030649796
0.6030924919
0.6030915004
0.603090182
0.6030885683
0.6030867155
0.6030846916
0.6030825648
0.6030803975
0.6030782417
0.6030761389
0.6030741215
0.6030722209
0.6030704975
0.603069169
0.60309247
0.6030912103
0.6030894613
0.6030873009
0.6030848519
0.6030822464
0.6030796026
0.6030770136
0.6030745453
0.6030722392
0.6030701176
0.6030681897
0.6030664607
0.6030649577
0.6030638338
0.6030906237
0.6030879005
0.6030845342
0.6030808824
0.6030772542
0.6030738605
0.6030708149
0.6030681577
0.6030658819
0.6030639548
0.6030623331
0.603060972
0.6030598332
0.6030588984
0.6030582269
0.6030782166
0.6030711357
0.60306474
0.60305951
0.60305554
0.6030527098
0.6030508128
0.6030496313
0.6030489717
0.6030486775
0.6030486283
0.603048734
0.6030489224
0.6030491099
0.6030567184
0.6030447953
0.6030366033
0.6030317938
0.6030295595
0.6030290916
0.6030297405
0.6030310367
0.6030326629
0.6030344147
0.6030361647
0.6030378317
0.6030393379
0.60304049
0.6030286199
0.6030167988
0.6030117691
0.6030109349
0.6030124486
0.6030151499
0.6030183531
0.6030216694
0.6030248874
0.6030278997
0.6030306569
0.603033135
0.6030352886
0.6030368976
0.6030567188
0.6030447957
0.6030366037
0.6030317942
0.6030295599
0.603029092
0.6030297409
0.6030310371
0.6030326633
0.603034415
0.6030361651
0.603037832
0.6030393382
0.6030404903
0.6030782169
0.603071136
0.6030647403
0.6030595103
0.6030555403
0.6030527102
0.6030508133
0.6030496317
0.6030489722
0.603048678
0.6030486288
0.6030487346
0.6030489229
0.6030491104
0.6030879005
0.6030845343
0.6030808824
0.6030772543
0.6030738607
0.6030708151
0.603068158
0.6030658822
0.6030639552
0.6030623335
0.6030609725
0.6030598337
0.603058899
0.6030582274
0.6030912103
0.6030894613
0.6030873009
0.6030848519
0.6030822465
0.6030796028
0.6030770138
0.6030745455
0.6030722395
0.603070118
0.6030681901
0.6030664612
0.6030649583
0.6030638344
0.6030914315
0.6030893354
0.6030866229
0.6030835141
0.6030802374
0.6030769821
0.6030738835
0.6030710254
0.6030684505
0.6030661715
0.6030641816
0.6030624628
0.6030609948
0.6030597746
0.6030588926
0.6030872226
0.6030820741
0.6030764887
0.603071189
0.6030665698
0.6030627659
0.603059756
0.6030574431
0.6030557063
0.6030544274
0.6030535032
0.6030528485
0.6030523957
0.6030520936
0.6030519141
0.6030713116
0.6030567186
0.6030447955
0.6030366034
0.603031794
0.6030295596
0.6030290917
0.6030297406
0.6030310368
0.603032663
0.6030344147
0.6030361648
0.6030378317
0.6030393379
0.6030404901
0.6029831411
0.6029682279
0.60296586
0.6029702634
0.602977671
0.6029859638
0.6029940718
0.6030015209
0.6030081503
0.6030139518
0.6030189822
0.6030233093
0.6030269424
0.6030295939
0.6028390509
0.6028580999
0.6028871664
0.6029149744
0.6029385724
0.6029578047
0.6029733074
0.6029858228
0.602995996
0.603004337
0.6030112329
0.6030169603
0.6030216492
0.6030250166
0.6029831425
0.602968229
0.6029658609
0.6029702642
0.6029776718
0.6029859645
0.6029940725
0.6030015216
0.6030081509
0.6030139524
0.6030189827
0.6030233098
0.6030269428
0.6030295943
0.6030567187
0.6030447958
0.6030366039
0.6030317945
0.6030295603
0.6030290925
0.6030297413
0.6030310375
0.6030326637
0.6030344155
0.6030361655
0.6030378325
0.6030393386
0.6030404908
0.6030820741
0.6030764887
0.6030711892
0.60306657
0.6030627663
0.6030597564
0.6030574436
0.6030557068
0.603054428
0.6030535039
0.6030528492
0.6030523964
0.6030520943
0.6030519148
0.6030893354
0.6030866228
0.6030835141
0.6030802375
0.6030769823
0.6030738837
0.6030710257
0.6030684509
0.603066172
0.6030641822
0.6030624634
0.6030609955
0.6030597753
0.6030588934
0.6030906539
0.6030879993
0.603084759
0.60308123
0.6030776616
0.603074233
0.6030710581
0.6030681983
0.6030656763
0.6030634892
0.6030616178
0.6030600345
0.6030587108
0.6030576332
0.6030568676
0.6030836802
0.6030765885
0.6030698775
0.6030642044
0.6030597141
0.603056313
0.6030538241
0.6030520603
0.6030508544
0.6030500681
0.6030495913
0.6030493389
0.6030492448
0.603049254
0.6030493075
0.603049701
0.6030286201
0.6030167992
0.6030117694
0.6030109353
0.6030124489
0.6030151501
0.6030183533
0.6030216696
0.6030248876
0.6030278998
0.603030657
0.6030331351
0.6030352887
0.6030368977
0.602864441
0.6028390521
0.6028581007
0.602887167
0.6029149749
0.6029385727
0.602957805
0.6029733076
0.602985823
0.6029959961
0.6030043371
0.603011233
0.6030169604
0.6030216493
0.6030250167
0.6022196756
0.6025354508
0.6027101658
0.6028123811
0.6028756618
0.6029170449
0.6029455102
0.6029659816
0.6029812705
0.6029930489
0.6030023483
0.6030098132
0.603015776
0.6030199927
0.6028390507
0.6028581014
0.6028871682
0.602914976
0.6029385738
0.602957806
0.6029733085
0.6029858238
0.6029959968
0.6030043378
0.6030112336
0.603016961
0.6030216498
0.6030250171
0.6030286199
0.6030167995
0.60301177
0.6030109361
0.6030124498
0.603015151
0.6030183543
0.6030216705
0.6030248885
0.6030279007
0.6030306579
0.6030331359
0.6030352895
0.6030368985
0.6030765883
0.6030698775
0.6030642046
0.6030597145
0.6030563135
0.6030538247
0.603052061
0.6030508552
0.6030500688
0.6030495921
0.6030493398
0.6030492456
0.6030492548
0.6030493084
0.6030879992
0.6030847589
0.6030812301
0.6030776617
0.6030742332
0.6030710585
0.6030681987
0.6030656768
0.6030634898
0.6030616185
0.6030600352
0.6030587115
0.603057634
0.6030568685
0.6030914315
0.6030893355
0.6030866229
0.6030835142
0.6030802375
0.6030769823
0.6030738836
0.6030710255
0.6030684507
0.6030661717
0.6030641818
0.603062463
0.6030609951
0.6030597748
0.6030588929
0.6030872227
0.6030820743
0.6030764889
0.6030711893
0.60306657
0.6030627662
0.6030597562
0.6030574434
0.6030557066
0.6030544277
0.6030535035
0.6030528488
0.603052396
0.6030520939
0.6030519144
0.6030713122
0.6030567192
0.6030447962
0.6030366041
0.6030317946
0.6030295602
0.6030290924
0.6030297412
0.6030310373
0.6030326635
0.6030344153
0.6030361653
0.6030378322
0.6030393384
0.6030404905
0.6030168293
0.6029831438
0.60296823
0.6029658618
0.6029702649
0.6029776723
0.6029859649
0.6029940728
0.6030015218
0.6030081511
0.6030139525
0.6030189829
0.6030233099
0.603026943
0.6030295944
0.6028644412
0.6028390525
0.6028581025
0.6028871689
0.6029149766
0.6029385742
0.6029578062
0.6029733087
0.6029858239
0.6029959969
0.6030043379
0.6030112337
0.6030169611
0.6030216498
0.6030250172
0.6030168289
0.6029831439
0.6029682306
0.6029658625
0.6029702657
0.6029776731
0.6029859657
0.6029940736
0.6030015225
0.6030081518
0.6030139531
0.6030189834
0.6030233104
0.6030269434
0.6030295949
0.6030567184
0.6030447959
0.6030366043
0.6030317951
0.6030295609
0.6030290931
0.603029742
0.6030310381
0.6030326643
0.6030344161
0.6030361661
0.603037833
0.6030393392
0.6030404913
0.603082074
0.6030764887
0.6030711893
0.6030665702
0.6030627666
0.6030597567
0.6030574439
0.6030557072
0.6030544284
0.6030535043
0.6030528496
0.6030523968
0.6030520947
0.6030519152
0.6030893354
0.6030866228
0.6030835142
0.6030802376
0.6030769824
0.6030738839
0.6030710259
0.6030684511
0.6030661723
0.6030641825
0.6030624637
0.6030609958
0.6030597756
0.6030588937
0.60309247
0.6030912103
0.6030894614
0.603087301
0.603084852
0.6030822466
0.6030796028
0.6030770138
0.6030745455
0.6030722395
0.6030701179
0.60306819
0.603066461
0.6030649581
0.6030638342
0.6030906238
0.6030879006
0.6030845344
0.6030808826
0.6030772545
0.6030738608
0.6030708152
0.603068158
0.6030658823
0.6030639552
0.6030623335
0.6030609725
0.6030598337
0.6030588989
0.6030582274
0.6030849829
0.6030782171
0.6030711363
0.6030647406
0.6030595106
0.6030555406
0.6030527104
0.6030508135
0.603049632
0.6030489724
0.6030486782
0.603048629
0.6030487348
0.6030489231
0.6030491106
0.6030713122
0.6030567193
0.6030447964
0.6030366045
0.6030317951
0.6030295607
0.6030290929
0.6030297417
0.6030310378
0.603032664
0.6030344157
0.6030361658
0.6030378327
0.6030393388
0.6030404909
0.6030497013
0.603028621
0.6030168004
0.6030117708
0.6030109367
0.6030124503
0.6030151514
0.6030183546
0.6030216708
0.6030248887
0.6030279009
0.603030658
0.6030331361
0.6030352896
0.6030368986
0.6030713123
0.6030567195
0.6030447967
0.6030366048
0.6030317955
0.6030295612
0.6030290933
0.6030297421
0.6030310383
0.6030326645
0.6030344162
0.6030361662
0.6030378331
0.6030393392
0.6030404913
0.6030849827
0.603078217
0.6030711363
0.6030647407
0.6030595109
0.603055541
0.6030527109
0.6030508141
0.6030496326
0.603048973
0.6030486788
0.6030486296
0.6030487354
0.6030489237
0.6030491112
0.6030879004
0.6030845343
0.6030808825
0.6030772546
0.603073861
0.6030708155
0.6030681584
0.6030658827
0.6030639558
0.6030623341
0.6030609731
0.6030598343
0.6030588996
0.6030582281
0.6030912102
0.6030894613
0.6030873009
0.603084852
0.6030822466
0.603079603
0.6030770141
0.6030745459
0.6030722399
0.6030701184
0.6030681906
0.6030664616
0.6030649588
0.603063835
0.6030931625
0.603092492
0.6030915004
0.6030901821
0.6030885684
0.6030867156
0.6030846916
0.6030825649
0.6030803976
0.6030782418
0.6030761389
0.6030741215
0.603072221
0.6030704976
0.6030691691
0.6030924523
0.6030911848
0.603089448
0.6030873337
0.6030849698
0.6030824841
0.6030799837
0.603077548
0.6030752297
0.6030730596
0.6030710527
0.6030692141
0.6030675483
0.6030660844
0.6030649797
0.6030906238
0.6030879006
0.6030845344
0.6030808826
0.6030772545
0.6030738609
0.6030708154
0.6030681582
0.6030658825
0.6030639554
0.6030623337
0.6030609727
0.6030598339
0.6030588992
0.6030582276
0.6030872227
0.6030820743
0.603076489
0.6030711895
0.6030665703
0.6030627666
0.6030597567
0.6030574439
0.6030557071
0.6030544283
0.6030535041
0.6030528494
0.6030523966
0.6030520945
0.603051915
0.6030836803
0.6030765887
0.6030698779
0.603064205
0.6030597148
0.6030563139
0.603053825
0.6030520613
0.6030508554
0.6030500691
0.6030495923
0.6030493399
0.6030492458
0.603049255
0.6030493085
0.6030872227
0.6030820744
0.6030764891
0.6030711896
0.6030665705
0.6030627668
0.6030597569
0.6030574441
0.6030557074
0.6030544286
0.6030535044
0.6030528497
0.6030523969
0.6030520948
0.6030519153
0.6030906238
0.6030879006
0.6030845345
0.6030808827
0.6030772547
0.6030738611
0.6030708156
0.6030681585
0.6030658828
0.6030639558
0.6030623341
0.6030609732
0.6030598344
0.6030588996
0.6030582281
0.6030924523
0.6030911847
0.6030894479
0.6030873337
0.6030849698
0.6030824842
0.6030799839
0.6030775482
0.60307523
0.6030730599
0.603071053
0.6030692145
0.6030675488
0.6030660849
0.6030649803
0.6030924919
0.6030915004
0.603090182
0.6030885684
0.6030867157
0.6030846917
0.6030825651
0.6030803978
0.6030782421
0.6030761393
0.6030741219
0.6030722214
0.6030704981
0.6030691696
0.6030934723
0.6030930729
0.603092453
0.603091579
0.6030904406
0.6030890508
0.6030874409
0.6030856542
0.6030837398
0.6030817472
0.6030797228
0.6030777095
0.6030757526
0.603073932
0.6030725035
0.6030931625
0.603092492
0.6030915004
0.6030901821
0.6030885684
0.6030867157
0.6030846917
0.603082565
0.6030803977
0.6030782419
0.603076139
0.6030741216
0.6030722211
0.6030704977
0.6030691692
0.60309247
0.6030912103
0.6030894614
0.603087301
0.6030848521
0.6030822467
0.6030796029
0.603077014
0.6030745457
0.6030722397
0.6030701182
0.6030681903
0.6030664614
0.6030649585
0.6030638346
0.6030914315
0.6030893355
0.603086623
0.6030835143
0.6030802377
0.6030769825
0.6030738839
0.6030710259
0.6030684511
0.6030661722
0.6030641824
0.6030624636
0.6030609957
0.6030597755
0.6030588936
0.6030906539
0.6030879994
0.6030847591
0.6030812303
0.6030776619
0.6030742335
0.6030710587
0.6030681989
0.603065677
0.60306349
0.6030616187
0.6030600354
0.6030587117
0.6030576342
0.6030568686
0.6030914315
0.6030893355
0.603086623
0.6030835143
0.6030802378
0.6030769826
0.603073884
0.6030710261
0.6030684513
0.6030661724
0.6030641826
0.6030624638
0.6030609959
0.6030597757
0.6030588938
0.60309247
0.6030912103
0.6030894614
0.603087301
0.6030848521
0.6030822467
0.6030796031
0.6030770142
0.6030745459
0.60307224
0.6030701185
0.6030681906
0.6030664617
0.6030649588
0.603063835
0.6030931625
0.603092492
0.6030915004
0.6030901821
0.6030885684
0.6030867157
0.6030846918
0.6030825651
0.6030803979
0.6030782421
0.6030761393
0.603074122
0.6030722215
0.6030704982
0.6030691697
0.6030934722
0.6030930729
0.603092453
0.603091579
0.6030904406
0.6030890509
0.603087441
0.6030856543
0.6030837399
0.6030817474
0.6030797231
0.6030777099
0.603075753
0.6030739325
0.603072504
)
;

boundaryField
{
    top
    {
        type            zeroGradient;
    }
    bottom
    {
        type            zeroGradient;
    }
    side-walls
    {
        type            zeroGradient;
    }
    inlet
    {
        type            zeroGradient;
    }
    outlet
    {
        type            zeroGradient;
    }
    procBoundary1to0
    {
        type            processor;
        value           nonuniform List<scalar> 
97
(
0.6030934722
0.6030934722
0.6030931625
0.60309247
0.6030914316
0.603090654
0.6030914316
0.60309247
0.6030931625
0.6030934723
0.6030935596
0.6030924523
0.6030924523
0.6030924523
0.6030906238
0.6030872228
0.6030836805
0.6030872229
0.6030906239
0.6030924523
0.6030931625
0.6030932455
0.6030924341
0.6030849827
0.6030849827
0.6030849827
0.6030713124
0.6030497025
0.6030713129
0.6030849832
0.6030906239
0.60309247
0.6030927859
0.6030910059
0.6030847913
0.6030168283
0.6030168283
0.6030168283
0.6028644502
0.6030168314
0.6030713128
0.6030872229
0.6030914316
0.6030924583
0.6030896612
0.6030779044
0.6030314655
0.6016166507
0.6016166507
0.6016166507
0.6028644494
0.6028644494
0.6030497024
0.6030836805
0.603090654
0.6030927859
0.6030910059
0.6030847913
0.6030667613
0.6030314652
0.6030667616
0.6030713118
0.6030713118
0.6030713118
0.6030872227
0.6030914316
0.6030932455
0.6030924341
0.6030900605
0.6030847913
0.6030779045
0.6030847913
0.6030900605
0.6030906237
0.6030906237
0.6030906237
0.60309247
0.6030935596
0.6030932392
0.6030924341
0.6030910059
0.6030896612
0.603091006
0.6030924341
0.6030932392
0.6030931625
0.6030931625
0.6030931625
0.6030937021
0.6030935596
0.6030932454
0.6030927858
0.6030924583
0.6030927859
0.6030932455
0.6030935596
0.6030937021
)
;
    }
}


// ************************************************************************* //
