/*--------------------------------*- C++ -*----------------------------------*\
| =========                 |                                                 |
| \\      /  F ield         | OpenFOAM: The Open Source CFD Toolbox           |
|  \\    /   O peration     | Version:  4.x                                   |
|   \\  /    A nd           | Web:      www.OpenFOAM.org                      |
|    \\/     M anipulation  |                                                 |
\*---------------------------------------------------------------------------*/
FoamFile
{
    version     2.0;
    format      ascii;
    class       volScalarField;
    location    "7000";
    object      rho;
}
// * * * * * * * * * * * * * * * * * * * * * * * * * * * * * * * * * * * * * //

dimensions      [1 -3 0 0 0 0 0];

internalField   nonuniform List<scalar> 
1174
(
0.2777049924
0.277705268
0.2777056133
0.2777060689
0.2777066091
0.2777072858
0.2777080204
0.2777087659
0.2777095646
0.2777103636
0.2777111783
0.2777119823
0.2777127224
0.2777133012
0.2777048153
0.2777052684
0.2777057929
0.2777064336
0.2777071979
0.277708013
0.2777088491
0.2777097012
0.2777105419
0.2777114121
0.2777122448
0.2777130076
0.2777137083
0.2777142593
0.2777060194
0.2777067094
0.2777075862
0.2777085853
0.2777097031
0.277710766
0.2777117832
0.2777127851
0.2777137097
0.2777145424
0.27771533
0.2777159868
0.2777166254
0.2777170823
0.2777056062
0.2777067048
0.2777079362
0.2777092322
0.2777105229
0.2777117691
0.2777129485
0.2777140002
0.277714893
0.2777156861
0.2777164063
0.2777170376
0.2777174946
0.277717821
0.2777063979
0.277707721
0.2777091545
0.277710595
0.2777119871
0.2777132975
0.277714446
0.2777154462
0.2777163206
0.2777170343
0.2777176511
0.2777181966
0.2777186334
0.277718957
0.2777078376
0.2777089358
0.2777101692
0.2777114861
0.2777128129
0.2777140775
0.2777151961
0.2777162579
0.2777171684
0.2777179395
0.2777186245
0.2777192244
0.2777196919
0.2777200857
0.277706276
0.2777069977
0.2777078744
0.2777088681
0.2777099705
0.2777110275
0.2777120806
0.2777130667
0.2777139904
0.2777148691
0.2777156302
0.2777163209
0.2777169274
0.277717403
0.2777049296
0.2777053204
0.277705876
0.277706498
0.2777072293
0.2777080687
0.2777089245
0.277709795
0.2777106813
0.2777115389
0.277712359
0.2777131475
0.2777138567
0.2777144241
0.2777049683
0.2777052211
0.2777055398
0.2777059999
0.2777065451
0.2777071751
0.2777079032
0.2777087019
0.2777095209
0.2777103157
0.2777111163
0.2777118905
0.2777126152
0.2777131897
0.277704951
0.2777051925
0.2777055882
0.2777061136
0.2777067424
0.2777074847
0.2777083189
0.2777091738
0.2777100327
0.2777109194
0.2777117936
0.2777126004
0.2777133495
0.277714023
0.2777145923
0.2777049671
0.27770568
0.2777065535
0.2777075109
0.2777085369
0.2777095615
0.2777105599
0.2777114781
0.2777123801
0.2777131642
0.2777138992
0.277714562
0.2777151912
0.2777156837
0.2777065782
0.2777079086
0.277709425
0.2777108558
0.2777122353
0.2777134368
0.2777144862
0.2777153704
0.2777161304
0.2777167905
0.2777173627
0.2777178278
0.2777181794
0.2777184494
0.2777098269
0.2777120757
0.2777141913
0.2777160798
0.2777176233
0.2777188116
0.2777197243
0.2777204477
0.2777209435
0.2777213242
0.2777215925
0.2777218189
0.2777219551
0.2777220613
0.2777109101
0.2777136215
0.2777158813
0.2777176492
0.2777189859
0.2777200054
0.2777207057
0.2777212136
0.2777215513
0.2777217489
0.2777218615
0.2777219063
0.277721903
0.2777218617
0.277709057
0.2777112956
0.2777134185
0.2777152959
0.2777168312
0.2777180346
0.277718977
0.2777196432
0.2777201837
0.2777205391
0.2777207893
0.2777209358
0.2777210652
0.2777211329
0.277705658
0.2777069895
0.2777084965
0.2777099889
0.2777113468
0.2777125623
0.27771361
0.2777144945
0.2777152777
0.2777159122
0.2777164624
0.2777169179
0.2777172913
0.2777175685
0.2777064629
0.2777071474
0.277707993
0.2777089414
0.277709936
0.277710913
0.2777118988
0.2777128108
0.2777136482
0.2777144681
0.2777151826
0.2777158644
0.2777164808
0.2777169067
0.2777044186
0.2777048501
0.2777054063
0.2777060301
0.2777067961
0.2777076289
0.2777084855
0.2777093634
0.2777102221
0.2777110824
0.2777119276
0.2777126962
0.2777133748
0.2777138967
0.2777047655
0.2777052988
0.2777060225
0.2777068931
0.2777078678
0.2777088954
0.2777099481
0.2777109776
0.2777119922
0.2777128827
0.2777137258
0.2777144943
0.2777151848
0.2777158013
0.2777162046
0.2777069356
0.2777080747
0.2777094193
0.277710877
0.2777123233
0.2777136657
0.2777149139
0.2777159953
0.2777168882
0.2777176257
0.2777183039
0.2777188433
0.2777193408
0.2777197385
0.2777199622
0.2777114519
0.2777142726
0.2777168787
0.2777189847
0.2777205768
0.2777216671
0.2777224437
0.2777229148
0.2777231586
0.277723259
0.2777232246
0.2777232045
0.2777231087
0.277722952
0.2777205035
0.2777253331
0.277728663
0.2777305875
0.277731517
0.2777317101
0.2777314559
0.2777308779
0.2777302402
0.2777295462
0.2777288219
0.277728119
0.2777274742
0.2777270006
0.2777295498
0.2777343152
0.2777363602
0.2777366953
0.2777360863
0.2777349719
0.2777336558
0.2777323592
0.2777310504
0.2777298596
0.277728753
0.2777277665
0.2777269053
0.277726266
0.2777208927
0.2777256814
0.2777289678
0.2777309079
0.2777318338
0.2777320156
0.277731781
0.2777312646
0.2777306076
0.2777299071
0.2777292119
0.277728587
0.2777280137
0.2777275179
0.2777107428
0.2777135969
0.2777161596
0.2777183125
0.2777198597
0.2777209904
0.2777217706
0.2777222668
0.277722496
0.2777226153
0.2777226149
0.2777225778
0.2777224975
0.2777224181
0.2777064642
0.2777078208
0.2777092905
0.2777107707
0.2777121113
0.2777133651
0.2777144356
0.2777153515
0.2777161532
0.2777168192
0.2777173708
0.2777178424
0.2777182162
0.2777184715
0.2777062157
0.2777069156
0.2777077638
0.2777087148
0.2777098047
0.277710908
0.2777119489
0.2777129208
0.2777138716
0.2777147095
0.277715501
0.2777162033
0.2777168299
0.2777173021
0.2777064336
0.277707241
0.2777083272
0.2777095762
0.2777108714
0.2777121605
0.2777133754
0.2777145634
0.2777156012
0.2777165171
0.27771735
0.2777180298
0.2777186096
0.2777191205
0.2777194745
0.2777078367
0.2777099243
0.2777121409
0.2777142618
0.2777160936
0.2777176234
0.2777188419
0.2777197636
0.2777204383
0.2777209253
0.2777213532
0.2777216246
0.2777217915
0.2777219141
0.2777220055
0.2777152231
0.2777210374
0.2777258336
0.2777291554
0.2777310523
0.2777319394
0.2777321389
0.277731871
0.2777314052
0.2777307532
0.2777300591
0.2777293296
0.2777286671
0.2777280831
0.2777276405
0.277749304
0.2777552961
0.2777562095
0.2777544587
0.2777514325
0.2777481172
0.2777448601
0.2777418646
0.2777391907
0.2777368257
0.2777347829
0.2777330279
0.2777315534
0.2777304969
0.2778081621
0.277800511
0.2777888507
0.2777777034
0.2777682188
0.2777604821
0.2777541891
0.277749153
0.2777450898
0.2777417851
0.2777390263
0.2777367318
0.2777348696
0.2777335121
0.2777490716
0.2777550481
0.2777560143
0.2777542497
0.2777512331
0.2777478965
0.2777446216
0.2777416476
0.2777389926
0.2777366549
0.2777346558
0.2777329302
0.2777314624
0.2777304272
0.277720052
0.2777248848
0.2777281497
0.2777301326
0.2777310116
0.2777312496
0.2777309773
0.2777304336
0.2777297866
0.2777291161
0.2777284202
0.2777277448
0.2777271586
0.2777266783
0.2777091763
0.2777114251
0.2777135653
0.2777154321
0.2777169804
0.2777182425
0.2777191665
0.2777198654
0.2777204399
0.2777208064
0.2777210659
0.2777212425
0.2777213595
0.2777214163
0.2777061673
0.2777072894
0.2777085231
0.2777098587
0.2777111526
0.2777124025
0.2777135277
0.2777145857
0.2777155322
0.2777163341
0.277717016
0.2777175905
0.2777180787
0.277718393
0.2777060104
0.2777070926
0.2777083818
0.2777098098
0.2777112314
0.2777125588
0.2777138401
0.2777149909
0.2777160388
0.2777169274
0.2777176773
0.2777182889
0.2777188374
0.2777192262
0.2777195286
0.2777091965
0.2777120482
0.277714722
0.2777169793
0.2777188002
0.2777201604
0.2777211811
0.2777219118
0.2777224212
0.2777227725
0.277722962
0.2777230641
0.2777231432
0.2777230778
0.2777230283
0.2777208509
0.2777292888
0.2777340905
0.2777360897
0.2777364598
0.2777358482
0.277734765
0.2777334651
0.2777321477
0.2777308534
0.277729588
0.2777284467
0.2777274311
0.2777265551
0.2777259231
0.2777974165
0.2778077318
0.2778000617
0.2777883451
0.2777771776
0.277767625
0.2777598984
0.2777536785
0.2777486387
0.2777445124
0.27774113
0.2777383295
0.2777360012
0.2777341363
0.2777327716
0.2791088918
0.2789817418
0.2789117956
0.2788711766
0.278846308
0.2788302823
0.2788194973
0.2788119534
0.2788065009
0.2788024833
0.2787994441
0.2787971612
0.2787955263
0.2787945347
0.2778073876
0.2777997538
0.277788029
0.2777768324
0.277767367
0.2777596432
0.2777534089
0.2777483251
0.2777442154
0.2777408393
0.2777380495
0.277735786
0.2777339481
0.2777326171
0.2777310928
0.2777358542
0.2777378754
0.277738208
0.2777375912
0.2777364756
0.2777351854
0.2777338442
0.2777325649
0.2777313655
0.2777302573
0.2777292364
0.2777283957
0.2777277488
0.2777123354
0.2777150311
0.277717277
0.2777190718
0.2777204655
0.2777214606
0.2777221485
0.2777226463
0.2777229645
0.27772315
0.2777233023
0.2777233397
0.2777233464
0.2777233257
0.277707548
0.277708861
0.2777102857
0.2777117253
0.2777131266
0.2777143859
0.2777155421
0.2777165602
0.2777174442
0.277718209
0.2777188338
0.2777193573
0.2777197715
0.2777200836
0.2777065109
0.2777073647
0.2777084475
0.2777096973
0.2777110317
0.2777123482
0.2777135762
0.2777147454
0.2777157468
0.2777166553
0.2777174434
0.2777181308
0.2777187281
0.2777191706
0.2777195744
0.2777081004
0.277710166
0.277712414
0.2777145658
0.2777163951
0.2777179199
0.2777191435
0.2777200591
0.2777207231
0.2777212145
0.2777215899
0.2777218256
0.2777220112
0.2777221631
0.2777222167
0.2777147329
0.2777206227
0.2777254405
0.277728747
0.2777307339
0.2777316354
0.2777317853
0.2777315571
0.2777310279
0.2777303544
0.2777296179
0.2777289121
0.2777282976
0.2777276775
0.2777272014
0.2777363206
0.277749905
0.2777558639
0.2777568143
0.2777550172
0.2777520104
0.2777486538
0.2777453906
0.2777424268
0.2777397581
0.2777374287
0.2777353567
0.2777336242
0.277732212
0.2777311465
0.277797289
0.2778075115
0.2777998535
0.2777881564
0.2777769588
0.2777675065
0.277759789
0.2777535706
0.2777485208
0.2777444627
0.2777410723
0.2777383228
0.2777360211
0.2777341691
0.277732818
0.2777365066
0.2777500255
0.2777560559
0.2777569738
0.2777551875
0.2777522155
0.2777488832
0.2777456604
0.2777426463
0.2777399687
0.2777376289
0.2777356044
0.2777338892
0.2777324577
0.2777314125
0.2777199523
0.2777247534
0.2777280319
0.2777299556
0.2777308351
0.2777310598
0.2777307928
0.277730259
0.2777295621
0.2777288672
0.2777281471
0.2777274828
0.2777268419
0.2777263843
0.2777101743
0.2777124021
0.2777145873
0.2777164938
0.2777179923
0.2777192063
0.2777201469
0.2777208302
0.2777213167
0.2777217111
0.2777219791
0.2777221626
0.2777222608
0.2777222957
0.2777070399
0.277708133
0.2777093661
0.2777106663
0.2777119556
0.2777132119
0.2777143547
0.277715383
0.2777162907
0.277717086
0.2777177599
0.2777183418
0.2777188216
0.2777192042
0.2777058
0.2777062874
0.2777069584
0.2777078583
0.2777088303
0.2777098682
0.2777109483
0.2777120173
0.2777130002
0.2777139005
0.2777147458
0.2777155115
0.2777161418
0.2777167407
0.2777172294
0.2777053801
0.277706447
0.2777077984
0.2777092555
0.2777106687
0.2777120369
0.2777132902
0.2777143577
0.2777152767
0.277716079
0.2777167632
0.2777173799
0.2777178327
0.277718234
0.277718505
0.2777070214
0.2777097373
0.2777125737
0.2777151308
0.2777172063
0.2777188301
0.27772
0.2777207749
0.2777212435
0.2777215106
0.2777216192
0.2777215976
0.2777215226
0.2777214092
0.2777213816
0.2777136534
0.2777195497
0.2777243579
0.2777276677
0.2777295948
0.2777305161
0.2777307171
0.2777304086
0.2777298484
0.2777291773
0.2777284876
0.2777277867
0.2777271382
0.2777265369
0.2777260704
0.2777238277
0.2777323218
0.2777370917
0.2777391028
0.2777394216
0.2777387666
0.2777377218
0.2777364126
0.2777350807
0.2777338157
0.277732598
0.2777314812
0.2777305161
0.2777296438
0.2777290011
0.2777134918
0.2777193695
0.2777241757
0.2777274893
0.2777294521
0.2777303057
0.2777304949
0.2777302437
0.277729723
0.2777290696
0.2777283287
0.2777276232
0.2777269495
0.2777263508
0.2777258844
0.2777078974
0.2777106365
0.2777134579
0.2777160697
0.2777181651
0.2777197673
0.2777208803
0.2777216781
0.2777221474
0.2777224472
0.2777225804
0.2777225226
0.2777224639
0.2777224286
0.2777223892
0.2777063692
0.2777077224
0.2777092084
0.2777106525
0.2777120205
0.2777132578
0.2777143102
0.277715226
0.2777159906
0.2777166663
0.2777171655
0.2777176378
0.2777180396
0.277718305
0.2777057185
0.2777064384
0.2777072867
0.2777082921
0.277709382
0.2777104371
0.2777114598
0.2777124345
0.2777133133
0.2777141847
0.2777150037
0.2777157102
0.2777163041
0.2777167642
0.2777043575
0.2777046562
0.2777050507
0.2777055959
0.2777062104
0.2777069335
0.2777077566
0.2777086241
0.2777095106
0.2777103687
0.277711215
0.277712025
0.2777127843
0.2777134841
0.277714044
0.2777059832
0.2777064841
0.2777071838
0.2777080186
0.277708975
0.2777099389
0.2777109307
0.2777119014
0.2777128529
0.277713742
0.2777145603
0.2777152225
0.2777159178
0.2777165385
0.2777170088
0.2777059189
0.2777069976
0.2777083636
0.2777097999
0.2777112346
0.2777125844
0.2777138114
0.277714932
0.2777159237
0.2777166467
0.2777173255
0.2777178935
0.2777183809
0.2777187296
0.2777190317
0.2777075881
0.2777096564
0.2777119316
0.2777140716
0.2777159328
0.2777174982
0.2777187261
0.2777196384
0.2777203393
0.2777208596
0.277721224
0.2777214998
0.2777216783
0.2777218232
0.2777219231
0.2777080491
0.2777108892
0.2777136079
0.2777158887
0.2777177347
0.277719114
0.2777201093
0.2777208349
0.2777213102
0.2777216392
0.2777218676
0.2777219577
0.2777219892
0.2777219816
0.2777219521
0.2777075572
0.2777096113
0.2777118603
0.277713967
0.2777158011
0.2777172926
0.2777185205
0.2777194694
0.2777201688
0.2777206757
0.2777210399
0.277721332
0.2777215597
0.2777216768
0.2777217551
0.2777059694
0.277707021
0.277708404
0.2777098659
0.2777113407
0.2777126951
0.2777139425
0.2777149907
0.2777158787
0.277716645
0.2777172461
0.2777177734
0.2777181972
0.2777185443
0.2777187965
0.2777046259
0.2777050762
0.2777057797
0.2777066246
0.2777075848
0.2777085322
0.2777095513
0.2777105003
0.2777114699
0.2777124126
0.2777131898
0.277713927
0.2777146066
0.277715159
0.2777156627
0.2777045155
0.2777049075
0.2777054159
0.2777060547
0.2777068046
0.2777075921
0.2777084298
0.2777093337
0.2777101966
0.2777110457
0.277711883
0.2777126848
0.2777133481
0.2777138832
0.2777053111
0.2777054777
0.277705743
0.2777060893
0.2777065392
0.2777071264
0.2777077851
0.2777084668
0.2777092136
0.2777100098
0.2777108537
0.2777116392
0.2777124881
0.2777132123
0.2777137745
0.2777050802
0.2777053348
0.2777057482
0.2777062497
0.2777069156
0.2777076493
0.277708447
0.2777093157
0.2777101735
0.2777110526
0.2777118947
0.2777127334
0.277713509
0.2777141841
0.2777147248
0.2777056216
0.2777060648
0.2777067836
0.2777076406
0.2777086601
0.2777096868
0.2777107499
0.2777117977
0.2777127927
0.2777137304
0.2777145676
0.2777153464
0.2777160736
0.2777166851
0.2777171054
0.2777051331
0.277705968
0.277707069
0.2777083397
0.277709651
0.2777109267
0.2777121992
0.2777133452
0.2777143641
0.2777153083
0.2777161022
0.2777168112
0.2777173986
0.277717903
0.2777182743
0.2777060658
0.2777071357
0.2777084533
0.2777098634
0.277711286
0.27771266
0.2777139629
0.2777151293
0.2777161169
0.2777170136
0.2777177636
0.2777183971
0.2777188934
0.2777193209
0.2777196584
0.2777043907
0.2777052424
0.2777063107
0.2777075499
0.2777088678
0.2777102339
0.2777114917
0.2777126451
0.2777137166
0.277714657
0.2777154706
0.2777162055
0.2777167981
0.2777172689
0.2777176359
0.2777045505
0.2777050044
0.2777057031
0.2777065523
0.2777075539
0.2777085951
0.2777096627
0.2777106945
0.2777117056
0.2777126856
0.2777135645
0.2777143223
0.2777150178
0.2777156057
0.2777160554
0.2777060407
0.2777063026
0.2777067186
0.2777072638
0.277707889
0.2777086133
0.277709436
0.2777102667
0.2777111426
0.2777120134
0.2777128664
0.2777136864
0.2777144183
0.2777151214
0.2777156715
0.2777049756
0.277705131
0.2777054045
0.2777057241
0.2777061928
0.277706752
0.2777073828
0.2777080902
0.2777088645
0.2777096896
0.2777104983
0.2777112979
0.2777120589
0.2777127904
0.277713357
)
;

boundaryField
{
    top
    {
        type            calculated;
        value           nonuniform List<scalar> 
127
(
0.2777049756
0.2777049683
0.2777044186
0.2777062157
0.2777061673
0.277707548
0.2777070399
0.2777057185
0.2777045155
0.277705131
0.2777052211
0.2777048501
0.2777069156
0.2777072894
0.277708861
0.277708133
0.2777064384
0.2777049075
0.2777054045
0.2777055398
0.2777054063
0.2777077638
0.2777085231
0.2777102857
0.2777093661
0.2777072867
0.2777054159
0.2777057241
0.2777059999
0.2777060301
0.2777087148
0.2777098587
0.2777117253
0.2777106663
0.2777082921
0.2777060547
0.2777061928
0.2777065451
0.2777067961
0.2777098047
0.2777111526
0.2777131266
0.2777119556
0.277709382
0.2777068046
0.277706752
0.2777071751
0.2777076289
0.277710908
0.2777124025
0.2777143859
0.2777132119
0.2777104371
0.2777075921
0.2777073828
0.2777079032
0.2777084855
0.2777119489
0.2777135277
0.2777155421
0.2777143547
0.2777114598
0.2777084298
0.2777080902
0.2777087019
0.2777093634
0.2777129208
0.2777145857
0.2777165602
0.277715383
0.2777124345
0.2777093337
0.2777088645
0.2777095209
0.2777102221
0.2777138716
0.2777155322
0.2777174442
0.2777162907
0.2777133133
0.2777101966
0.2777096896
0.2777103157
0.2777110824
0.2777147095
0.2777163341
0.277718209
0.277717086
0.2777141847
0.2777110457
0.2777104983
0.2777111163
0.2777119276
0.277715501
0.277717016
0.2777188338
0.2777177599
0.2777150037
0.277711883
0.2777112979
0.2777118905
0.2777126962
0.2777162033
0.2777175905
0.2777193573
0.2777183418
0.2777157102
0.2777126848
0.2777120589
0.2777126152
0.2777133748
0.2777168299
0.2777180787
0.2777197715
0.2777188216
0.2777163041
0.2777133481
0.2777127904
0.2777131897
0.2777138967
0.2777173021
0.277718393
0.2777200836
0.2777192042
0.2777167642
0.2777138832
0.277713357
)
;
    }
    bottom
    {
        type            calculated;
        value           nonuniform List<scalar> 
134
(
0.277704951
0.2777047655
0.2777064336
0.2777060104
0.2777065109
0.2777058
0.2777043575
0.2777053111
0.2777049924
0.2777051925
0.2777052988
0.277707241
0.2777070926
0.2777073647
0.2777062874
0.2777046562
0.2777054777
0.277705268
0.2777055882
0.2777060225
0.2777083272
0.2777083818
0.2777084475
0.2777069584
0.2777050507
0.277705743
0.2777056133
0.2777061136
0.2777068931
0.2777095762
0.2777098098
0.2777096973
0.2777078583
0.2777055959
0.2777060893
0.2777060689
0.2777067424
0.2777078678
0.2777108714
0.2777112314
0.2777110317
0.2777088303
0.2777062104
0.2777065392
0.2777066091
0.2777074847
0.2777088954
0.2777121605
0.2777125588
0.2777123482
0.2777098682
0.2777069335
0.2777071264
0.2777072858
0.2777083189
0.2777099481
0.2777133754
0.2777138401
0.2777135762
0.2777109483
0.2777077566
0.2777077851
0.2777080204
0.2777091738
0.2777109776
0.2777145634
0.2777149909
0.2777147454
0.2777120173
0.2777086241
0.2777084668
0.2777087659
0.2777100327
0.2777119922
0.2777156012
0.2777160388
0.2777157468
0.2777130002
0.2777095106
0.2777092136
0.2777095646
0.2777109194
0.2777128827
0.2777165171
0.2777169274
0.2777166553
0.2777139005
0.2777103687
0.2777100098
0.2777103636
0.2777117936
0.2777137258
0.27771735
0.2777176773
0.2777174434
0.2777147458
0.277711215
0.2777108537
0.2777111783
0.2777126004
0.2777144943
0.2777180298
0.2777182889
0.2777181308
0.2777155115
0.277712025
0.2777116392
0.2777119823
0.2777133495
0.2777151848
0.2777186096
0.2777188374
0.2777187281
0.2777161418
0.2777127843
0.2777124881
0.2777127224
0.277714023
0.2777158013
0.2777191205
0.2777192262
0.2777191706
0.2777167407
0.2777134841
0.2777132123
0.2777133012
0.2777145923
0.2777162046
0.2777194745
0.2777195286
0.2777195744
0.2777172294
0.277714044
0.2777137745
)
;
    }
    side-walls
    {
        type            calculated;
        value           nonuniform List<scalar> 
261
(
0.2777049924
0.2777048153
0.2777060194
0.2777056062
0.2777063979
0.2777078376
0.277706276
0.2777049296
0.2777049683
0.277705268
0.2777052684
0.2777067094
0.2777067048
0.277707721
0.2777089358
0.2777069977
0.2777053204
0.2777052211
0.2777056133
0.2777057929
0.2777075862
0.2777079362
0.2777091545
0.2777101692
0.2777078744
0.277705876
0.2777055398
0.2777060689
0.2777064336
0.2777085853
0.2777092322
0.277710595
0.2777114861
0.2777088681
0.277706498
0.2777059999
0.2777066091
0.2777071979
0.2777097031
0.2777105229
0.2777119871
0.2777128129
0.2777099705
0.2777072293
0.2777065451
0.2777072858
0.277708013
0.277710766
0.2777117691
0.2777132975
0.2777140775
0.2777110275
0.2777080687
0.2777071751
0.2777080204
0.2777088491
0.2777117832
0.2777129485
0.277714446
0.2777151961
0.2777120806
0.2777089245
0.2777079032
0.2777087659
0.2777097012
0.2777127851
0.2777140002
0.2777154462
0.2777162579
0.2777130667
0.277709795
0.2777087019
0.2777095646
0.2777105419
0.2777137097
0.277714893
0.2777163206
0.2777171684
0.2777139904
0.2777106813
0.2777095209
0.2777103636
0.2777114121
0.2777145424
0.2777156861
0.2777170343
0.2777179395
0.2777148691
0.2777115389
0.2777103157
0.2777111783
0.2777122448
0.27771533
0.2777164063
0.2777176511
0.2777186245
0.2777156302
0.277712359
0.2777111163
0.2777119823
0.2777130076
0.2777159868
0.2777170376
0.2777181966
0.2777192244
0.2777163209
0.2777131475
0.2777118905
0.2777127224
0.2777137083
0.2777166254
0.2777174946
0.2777186334
0.2777196919
0.2777169274
0.2777138567
0.2777126152
0.2777133012
0.2777142593
0.2777170823
0.277717821
0.277718957
0.2777200857
0.277717403
0.2777144241
0.2777131897
0.2777053111
0.2777050802
0.2777056216
0.2777051331
0.2777060658
0.2777043907
0.2777045505
0.2777060407
0.2777049756
0.2777054777
0.2777053348
0.2777060648
0.277705968
0.2777071357
0.2777052424
0.2777050044
0.2777063026
0.277705131
0.277705743
0.2777057482
0.2777067836
0.277707069
0.2777084533
0.2777063107
0.2777057031
0.2777067186
0.2777054045
0.2777060893
0.2777062497
0.2777076406
0.2777083397
0.2777098634
0.2777075499
0.2777065523
0.2777072638
0.2777057241
0.2777065392
0.2777069156
0.2777086601
0.277709651
0.277711286
0.2777088678
0.2777075539
0.277707889
0.2777061928
0.2777071264
0.2777076493
0.2777096868
0.2777109267
0.27771266
0.2777102339
0.2777085951
0.2777086133
0.277706752
0.2777077851
0.277708447
0.2777107499
0.2777121992
0.2777139629
0.2777114917
0.2777096627
0.277709436
0.2777073828
0.2777084668
0.2777093157
0.2777117977
0.2777133452
0.2777151293
0.2777126451
0.2777106945
0.2777102667
0.2777080902
0.2777092136
0.2777101735
0.2777127927
0.2777143641
0.2777161169
0.2777137166
0.2777117056
0.2777111426
0.2777088645
0.2777100098
0.2777110526
0.2777137304
0.2777153083
0.2777170136
0.277714657
0.2777126856
0.2777120134
0.2777096896
0.2777108537
0.2777118947
0.2777145676
0.2777161022
0.2777177636
0.2777154706
0.2777135645
0.2777128664
0.2777104983
0.2777116392
0.2777127334
0.2777153464
0.2777168112
0.2777183971
0.2777162055
0.2777143223
0.2777136864
0.2777112979
0.2777124881
0.277713509
0.2777160736
0.2777173986
0.2777188934
0.2777167981
0.2777150178
0.2777144183
0.2777120589
0.2777132123
0.2777141841
0.2777166851
0.277717903
0.2777193209
0.2777172689
0.2777156057
0.2777151214
0.2777127904
0.2777137745
0.2777147248
0.2777171054
0.2777182743
0.2777196584
0.2777176359
0.2777160554
0.2777156715
0.277713357
)
;
    }
    inlet
    {
        type            calculated;
        value           nonuniform 0();
    }
    outlet
    {
        type            calculated;
        value           nonuniform List<scalar> 
81
(
0.2777133012
0.2777142593
0.2777170823
0.277717821
0.277718957
0.2777200857
0.277717403
0.2777144241
0.2777131897
0.2777145923
0.2777156837
0.2777184494
0.2777220613
0.2777218617
0.2777211329
0.2777175685
0.2777169067
0.2777138967
0.2777162046
0.2777199622
0.277722952
0.2777270006
0.277726266
0.2777275179
0.2777224181
0.2777184715
0.2777173021
0.2777194745
0.2777220055
0.2777276405
0.2777304969
0.2777335121
0.2777304272
0.2777266783
0.2777214163
0.277718393
0.2777195286
0.2777230283
0.2777259231
0.2777327716
0.2787945347
0.2777326171
0.2777277488
0.2777233257
0.2777200836
0.2777195744
0.2777222167
0.2777272014
0.2777311465
0.277732818
0.2777314125
0.2777263843
0.2777222957
0.2777192042
0.2777172294
0.277718505
0.2777213816
0.2777260704
0.2777290011
0.2777258844
0.2777223892
0.277718305
0.2777167642
0.277714044
0.2777170088
0.2777190317
0.2777219231
0.2777219521
0.2777217551
0.2777187965
0.2777156627
0.2777138832
0.2777137745
0.2777147248
0.2777171054
0.2777182743
0.2777196584
0.2777176359
0.2777160554
0.2777156715
0.277713357
)
;
    }
    procBoundary1to0
    {
        type            processor;
        value           nonuniform List<scalar> 
97
(
0.2777048191
0.2777048191
0.2777045612
0.2777054365
0.2777047486
0.2777053222
0.2777070249
0.2777057978
0.2777046847
0.277704805
0.2777047703
0.2777044593
0.2777044593
0.2777044593
0.2777054566
0.2777077574
0.2777080756
0.2777069945
0.277704539
0.2777059347
0.2777041493
0.2777044639
0.2777062191
0.2777087121
0.2777087121
0.2777087121
0.2777145992
0.2777210688
0.2777150197
0.2777080237
0.2777053834
0.2777057249
0.2777059005
0.2777062947
0.2777097818
0.2777357509
0.2777357509
0.2777357509
0.2777979267
0.2777354803
0.2777141777
0.27770712
0.2777052937
0.277705275
0.2777067251
0.2777095056
0.2777295757
0.2793539108
0.2793539108
0.2793539108
0.277797126
0.277797126
0.277722656
0.2777094621
0.2777064402
0.2777059551
0.2777065808
0.2777093333
0.2777162519
0.2777294573
0.2777164009
0.2777140589
0.2777140589
0.2777140589
0.2777080935
0.277706155
0.27770549
0.277704625
0.277705004
0.2777082478
0.2777125142
0.2777081041
0.2777058532
0.2777052746
0.2777052746
0.2777052746
0.2777052108
0.2777041392
0.2777057121
0.2777051842
0.2777060775
0.2777056559
0.2777060256
0.2777052428
0.2777043017
0.2777042575
0.2777042575
0.2777042575
0.2777052353
0.2777049036
0.2777053237
0.2777046023
0.2777053622
0.2777038288
0.2777042228
0.2777058838
0.2777048562
)
;
    }
}


// ************************************************************************* //
