/*--------------------------------*- C++ -*----------------------------------*\
| =========                 |                                                 |
| \\      /  F ield         | OpenFOAM: The Open Source CFD Toolbox           |
|  \\    /   O peration     | Version:  4.x                                   |
|   \\  /    A nd           | Web:      www.OpenFOAM.org                      |
|    \\/     M anipulation  |                                                 |
\*---------------------------------------------------------------------------*/
FoamFile
{
    version     2.0;
    format      ascii;
    class       volScalarField;
    location    "7000";
    object      T;
}
// * * * * * * * * * * * * * * * * * * * * * * * * * * * * * * * * * * * * * //

dimensions      [0 0 0 1 0 0 0];

internalField   nonuniform List<scalar> 
1174
(
1223.150839
1223.150882
1223.151134
1223.151436
1223.151874
1223.152159
1223.152546
1223.153145
1223.153668
1223.154254
1223.154747
1223.155174
1223.155606
1223.155954
1223.152797
1223.152812
1223.153176
1223.153626
1223.154017
1223.154531
1223.155161
1223.155803
1223.156472
1223.156903
1223.157326
1223.15782
1223.158228
1223.158496
1223.150093
1223.1506
1223.15112
1223.151686
1223.152046
1223.152726
1223.153496
1223.154089
1223.154692
1223.155327
1223.155767
1223.15638
1223.156614
1223.156881
1223.155715
1223.156377
1223.157258
1223.158195
1223.159112
1223.159907
1223.160508
1223.161097
1223.161786
1223.162328
1223.162641
1223.162837
1223.163297
1223.163648
1223.154938
1223.155682
1223.156525
1223.157417
1223.158239
1223.158905
1223.159646
1223.160355
1223.160938
1223.16159
1223.162083
1223.162364
1223.162625
1223.162751
1223.145887
1223.146551
1223.147423
1223.148268
1223.149026
1223.14974
1223.150609
1223.151154
1223.151764
1223.152403
1223.152871
1223.153205
1223.15362
1223.153673
1223.148962
1223.149331
1223.14985
1223.15044
1223.150868
1223.151574
1223.152186
1223.152848
1223.153456
1223.153888
1223.154445
1223.154908
1223.155284
1223.155468
1223.152293
1223.152583
1223.152809
1223.153342
1223.153879
1223.154286
1223.154829
1223.15539
1223.155858
1223.156345
1223.156823
1223.157204
1223.157575
1223.15777
1223.150945
1223.151089
1223.151457
1223.151739
1223.152156
1223.152646
1223.153062
1223.153427
1223.15386
1223.154464
1223.15502
1223.155579
1223.156078
1223.156445
1223.150839
1223.151136
1223.151404
1223.151763
1223.152266
1223.152754
1223.153184
1223.153731
1223.154343
1223.154809
1223.155223
1223.15576
1223.156315
1223.156842
1223.157029
1223.15478
1223.155162
1223.155602
1223.156179
1223.156701
1223.157259
1223.157801
1223.158458
1223.158885
1223.159501
1223.159992
1223.16045
1223.160647
1223.160718
1223.154344
1223.155311
1223.156038
1223.157094
1223.157901
1223.158785
1223.159551
1223.160272
1223.160832
1223.161212
1223.161451
1223.161712
1223.162058
1223.16223
1223.151851
1223.153275
1223.154705
1223.155755
1223.156671
1223.157541
1223.158212
1223.158547
1223.158956
1223.159152
1223.159297
1223.159217
1223.159229
1223.159124
1223.158207
1223.159876
1223.161428
1223.162748
1223.163758
1223.164315
1223.164806
1223.165014
1223.165121
1223.165216
1223.16523
1223.165223
1223.165218
1223.16529
1223.155243
1223.156711
1223.158108
1223.159208
1223.16016
1223.160964
1223.161503
1223.16209
1223.162302
1223.16261
1223.162835
1223.163107
1223.163148
1223.163214
1223.158397
1223.159359
1223.160128
1223.160912
1223.161814
1223.162636
1223.16341
1223.164129
1223.164587
1223.16508
1223.165417
1223.165719
1223.165969
1223.166109
1223.148191
1223.148698
1223.149262
1223.149879
1223.150539
1223.151306
1223.151903
1223.152588
1223.1533
1223.153758
1223.15434
1223.154714
1223.154967
1223.155331
1223.154545
1223.154655
1223.154878
1223.155403
1223.155786
1223.156223
1223.156763
1223.157291
1223.157881
1223.158355
1223.158724
1223.159192
1223.159698
1223.160092
1223.153061
1223.153267
1223.153626
1223.154173
1223.154846
1223.155604
1223.156328
1223.157044
1223.157581
1223.158334
1223.158923
1223.159447
1223.159912
1223.160244
1223.160746
1223.147247
1223.147752
1223.148657
1223.149643
1223.150631
1223.151601
1223.152279
1223.152904
1223.153586
1223.154246
1223.154546
1223.15493
1223.155048
1223.155191
1223.155567
1223.152518
1223.154455
1223.155948
1223.157279
1223.158318
1223.159255
1223.159681
1223.160002
1223.160264
1223.160418
1223.160668
1223.160541
1223.160579
1223.160889
1223.156254
1223.159166
1223.161116
1223.162394
1223.162831
1223.162928
1223.16273
1223.162645
1223.162153
1223.161655
1223.161294
1223.161007
1223.160791
1223.160539
1223.173407
1223.176396
1223.177591
1223.177805
1223.177415
1223.176842
1223.176139
1223.175121
1223.174356
1223.173489
1223.172769
1223.172086
1223.171509
1223.171061
1223.154539
1223.157632
1223.159773
1223.160982
1223.161435
1223.161582
1223.161298
1223.160942
1223.160535
1223.160066
1223.159576
1223.158947
1223.158415
1223.158261
1223.15564
1223.157431
1223.159115
1223.16024
1223.161477
1223.162236
1223.162646
1223.162856
1223.163183
1223.163253
1223.163353
1223.163301
1223.163271
1223.16324
1223.154846
1223.155698
1223.15663
1223.157469
1223.158447
1223.1591
1223.159774
1223.160355
1223.160731
1223.161086
1223.161416
1223.161647
1223.161896
1223.162133
1223.149228
1223.149692
1223.150338
1223.151116
1223.151599
1223.152101
1223.152766
1223.153491
1223.153979
1223.154591
1223.155014
1223.155426
1223.155713
1223.155912
1223.14782
1223.148515
1223.149231
1223.150035
1223.150975
1223.151899
1223.152832
1223.153395
1223.154046
1223.154633
1223.154999
1223.15549
1223.155912
1223.156136
1223.156365
1223.150176
1223.151422
1223.152988
1223.154394
1223.155694
1223.156671
1223.157408
1223.158038
1223.158588
1223.159036
1223.159025
1223.159156
1223.159338
1223.159409
1223.15937
1223.149912
1223.153903
1223.156962
1223.158947
1223.160347
1223.16097
1223.161039
1223.160901
1223.160322
1223.159894
1223.159396
1223.159058
1223.158594
1223.15811
1223.157721
1223.178661
1223.182525
1223.183304
1223.182079
1223.180377
1223.178152
1223.176047
1223.174127
1223.172454
1223.1711
1223.169892
1223.168842
1223.167966
1223.16724
1223.21183
1223.206861
1223.199223
1223.191886
1223.185773
1223.180824
1223.177085
1223.173873
1223.171128
1223.168761
1223.166922
1223.165408
1223.164097
1223.163245
1223.179683
1223.183616
1223.184163
1223.182999
1223.181254
1223.179124
1223.177097
1223.175083
1223.173326
1223.171852
1223.170451
1223.169273
1223.168367
1223.167547
1223.158242
1223.161141
1223.163376
1223.164397
1223.165057
1223.164956
1223.164837
1223.164601
1223.164151
1223.163549
1223.163063
1223.162656
1223.162181
1223.161959
1223.154717
1223.15614
1223.157462
1223.158608
1223.159502
1223.160048
1223.160668
1223.161111
1223.161174
1223.161433
1223.161616
1223.161756
1223.161852
1223.161965
1223.153244
1223.153803
1223.154673
1223.155436
1223.156338
1223.157117
1223.157957
1223.158518
1223.158971
1223.159474
1223.159955
1223.160401
1223.160725
1223.161128
1223.151261
1223.151878
1223.152771
1223.153638
1223.154614
1223.15572
1223.156515
1223.157246
1223.157745
1223.158266
1223.158757
1223.159274
1223.159542
1223.160014
1223.160234
1223.151371
1223.153194
1223.155029
1223.156592
1223.157679
1223.158585
1223.159136
1223.159494
1223.159696
1223.159742
1223.159873
1223.159934
1223.159775
1223.160043
1223.160152
1223.16896
1223.174557
1223.177386
1223.178782
1223.178843
1223.178464
1223.177753
1223.176979
1223.176052
1223.175224
1223.174685
1223.174118
1223.173563
1223.173052
1223.172571
1223.207628
1223.213724
1223.208839
1223.201449
1223.194201
1223.188388
1223.183394
1223.179333
1223.176137
1223.173671
1223.171646
1223.16999
1223.168626
1223.167327
1223.166506
1218.763578
1218.679983
1218.632218
1218.603037
1218.583785
1218.570171
1218.559771
1218.551366
1218.544297
1218.538052
1218.532542
1218.527433
1218.522529
1218.518341
1223.21524
1223.210194
1223.20284
1223.195721
1223.189524
1223.184518
1223.180521
1223.177519
1223.174979
1223.172927
1223.171224
1223.169573
1223.168156
1223.167186
1223.166612
1223.169618
1223.170918
1223.171143
1223.170787
1223.170219
1223.169402
1223.168581
1223.167686
1223.166857
1223.166144
1223.165612
1223.164946
1223.164531
1223.151929
1223.153667
1223.155281
1223.156482
1223.157241
1223.157906
1223.158452
1223.158704
1223.158896
1223.159045
1223.158885
1223.15891
1223.158861
1223.158842
1223.149872
1223.150661
1223.151542
1223.152439
1223.15322
1223.154112
1223.154819
1223.155449
1223.15599
1223.156416
1223.156874
1223.157252
1223.157612
1223.15779
1223.147479
1223.147969
1223.148701
1223.149501
1223.150269
1223.151072
1223.151948
1223.152594
1223.153405
1223.154024
1223.154588
1223.155045
1223.155391
1223.155916
1223.155925
1223.149014
1223.150358
1223.151785
1223.153055
1223.154366
1223.155365
1223.156079
1223.156736
1223.157334
1223.157762
1223.157982
1223.15827
1223.15837
1223.158313
1223.15844
1223.152071
1223.155729
1223.158693
1223.160746
1223.161749
1223.162309
1223.162596
1223.162284
1223.161984
1223.16165
1223.161339
1223.160897
1223.160221
1223.159896
1223.159655
1223.167506
1223.176013
1223.180023
1223.18064
1223.179619
1223.177831
1223.175789
1223.173711
1223.171651
1223.169955
1223.168444
1223.167364
1223.166216
1223.165065
1223.164379
1223.20819
1223.214694
1223.209755
1223.202279
1223.195164
1223.18891
1223.183876
1223.179809
1223.176657
1223.17389
1223.1719
1223.17002
1223.168538
1223.167182
1223.166302
1223.166687
1223.175481
1223.179177
1223.179937
1223.178869
1223.176928
1223.174779
1223.172522
1223.170684
1223.169027
1223.167563
1223.166274
1223.16505
1223.163984
1223.163208
1223.158682
1223.161719
1223.163895
1223.165176
1223.165834
1223.165792
1223.16565
1223.16537
1223.16514
1223.164646
1223.164266
1223.16381
1223.163576
1223.163254
1223.150321
1223.151837
1223.152961
1223.153932
1223.155046
1223.155803
1223.15635
1223.156862
1223.157312
1223.157448
1223.157595
1223.157704
1223.157883
1223.158092
1223.1494
1223.150087
1223.15096
1223.151878
1223.152802
1223.153552
1223.154315
1223.155007
1223.15563
1223.156162
1223.156679
1223.157092
1223.157453
1223.157556
1223.148505
1223.148912
1223.149504
1223.149922
1223.150607
1223.151319
1223.151923
1223.152465
1223.153141
1223.153852
1223.15443
1223.154967
1223.155697
1223.156106
1223.156233
1223.154098
1223.154921
1223.155796
1223.156784
1223.157918
1223.158774
1223.15943
1223.160117
1223.160684
1223.161058
1223.161333
1223.161376
1223.16169
1223.161817
1223.161985
1223.158309
1223.160069
1223.161937
1223.163646
1223.165112
1223.166011
1223.166598
1223.167031
1223.167362
1223.167523
1223.16764
1223.167834
1223.167948
1223.168064
1223.167805
1223.156825
1223.160454
1223.163461
1223.165499
1223.166765
1223.167239
1223.167301
1223.167342
1223.167179
1223.166834
1223.166317
1223.165853
1223.165327
1223.164919
1223.164636
1223.155849
1223.161198
1223.164168
1223.165512
1223.165798
1223.165611
1223.164731
1223.163998
1223.163135
1223.162178
1223.161429
1223.160753
1223.159976
1223.159449
1223.159015
1223.157537
1223.161248
1223.164263
1223.166284
1223.167394
1223.168165
1223.16828
1223.168068
1223.167731
1223.167309
1223.167018
1223.166573
1223.166158
1223.165739
1223.165456
1223.154451
1223.156108
1223.158043
1223.159511
1223.160889
1223.161883
1223.162721
1223.163054
1223.163382
1223.163398
1223.163407
1223.16376
1223.163802
1223.163575
1223.163368
1223.155265
1223.156131
1223.156992
1223.157989
1223.158846
1223.159573
1223.160326
1223.160908
1223.161447
1223.161759
1223.16232
1223.162549
1223.162674
1223.162866
1223.151418
1223.151794
1223.152439
1223.152977
1223.153461
1223.154175
1223.154921
1223.155633
1223.156438
1223.156902
1223.157204
1223.157598
1223.158029
1223.158282
1223.153454
1223.153498
1223.153771
1223.154043
1223.154609
1223.155181
1223.15566
1223.156152
1223.156643
1223.157235
1223.157771
1223.158294
1223.158804
1223.159216
1223.159444
1223.147734
1223.148098
1223.148538
1223.149149
1223.149731
1223.150526
1223.151228
1223.151892
1223.152402
1223.152887
1223.153352
1223.154163
1223.154479
1223.154713
1223.154881
1223.151725
1223.152496
1223.153307
1223.154387
1223.155425
1223.156363
1223.157134
1223.157588
1223.157835
1223.158558
1223.158856
1223.159114
1223.159275
1223.159634
1223.159665
1223.151271
1223.152602
1223.153909
1223.155232
1223.156402
1223.157222
1223.157918
1223.158589
1223.159024
1223.159325
1223.159594
1223.159706
1223.159837
1223.15981
1223.159733
1223.156425
1223.158299
1223.159935
1223.161395
1223.162371
1223.163193
1223.163857
1223.164237
1223.164588
1223.164733
1223.164693
1223.164807
1223.164858
1223.164872
1223.164892
1223.151407
1223.152801
1223.154223
1223.155692
1223.156983
1223.158128
1223.158823
1223.159334
1223.159775
1223.160135
1223.160405
1223.160445
1223.160359
1223.160455
1223.160473
1223.151502
1223.152394
1223.153129
1223.154096
1223.154958
1223.155875
1223.156558
1223.157329
1223.158033
1223.158565
1223.159206
1223.159643
1223.160085
1223.160451
1223.160701
1223.153712
1223.154299
1223.154723
1223.155289
1223.155854
1223.156722
1223.157304
1223.158063
1223.158494
1223.158742
1223.159388
1223.15987
1223.160254
1223.160789
1223.16081
1223.154118
1223.154402
1223.154836
1223.155295
1223.155749
1223.156385
1223.157008
1223.157422
1223.157993
1223.158517
1223.15892
1223.159242
1223.159815
1223.160152
1223.148625
1223.148701
1223.14879
1223.149037
1223.149364
1223.149596
1223.14996
1223.15058
1223.151173
1223.151707
1223.152095
1223.152718
1223.152947
1223.153449
1223.153869
1223.15027
1223.150509
1223.150699
1223.151164
1223.151503
1223.152029
1223.15262
1223.153106
1223.153723
1223.154223
1223.154777
1223.155174
1223.155612
1223.156133
1223.156445
1223.14929
1223.149893
1223.150274
1223.15088
1223.151356
1223.152118
1223.152797
1223.153432
1223.154055
1223.154601
1223.155215
1223.155694
1223.155997
1223.156351
1223.156779
1223.153548
1223.154121
1223.154773
1223.155481
1223.15635
1223.157333
1223.158012
1223.158761
1223.159494
1223.159957
1223.160495
1223.160857
1223.161247
1223.161499
1223.161651
1223.151017
1223.151688
1223.152456
1223.153402
1223.154373
1223.155275
1223.155975
1223.156637
1223.157401
1223.157886
1223.158377
1223.158797
1223.159295
1223.159597
1223.159662
1223.156818
1223.157317
1223.158113
1223.15896
1223.1598
1223.160385
1223.161129
1223.161844
1223.162346
1223.162826
1223.163277
1223.163525
1223.163891
1223.164292
1223.164463
1223.154008
1223.154563
1223.155033
1223.155674
1223.156229
1223.156926
1223.157586
1223.158291
1223.158843
1223.159203
1223.159634
1223.160205
1223.160648
1223.161105
1223.161403
1223.14604
1223.146246
1223.146425
1223.146697
1223.147216
1223.147783
1223.148264
1223.148918
1223.149455
1223.149991
1223.150498
1223.150977
1223.151607
1223.152005
1223.152276
1223.150103
1223.150228
1223.150281
1223.150646
1223.15089
1223.151245
1223.151731
1223.152239
1223.152711
1223.153117
1223.15366
1223.154221
1223.154837
1223.155307
1223.155708
)
;

boundaryField
{
    top
    {
        type            zeroGradient;
    }
    bottom
    {
        type            zeroGradient;
    }
    side-walls
    {
        type            zeroGradient;
    }
    inlet
    {
        type            zeroGradient;
    }
    outlet
    {
        type            zeroGradient;
    }
    procBoundary1to0
    {
        type            processor;
        value           nonuniform List<scalar> 
97
(
1223.150792
1223.150792
1223.152556
1223.150106
1223.155241
1223.154292
1223.145216
1223.148514
1223.152012
1223.150855
1223.15083
1223.154446
1223.154446
1223.154446
1223.153761
1223.150525
1223.156308
1223.153885
1223.157803
1223.147947
1223.15437
1223.152817
1223.146731
1223.150863
1223.150863
1223.150863
1223.15266
1223.168001
1223.150808
1223.153894
1223.154083
1223.148835
1223.147421
1223.149295
1223.14654
1223.170017
1223.170017
1223.170017
1223.205387
1223.171208
1223.154516
1223.153332
1223.152841
1223.150841
1223.150126
1223.161725
1223.167526
1218.91544
1218.91544
1218.91544
1223.208913
1223.208913
1223.16101
1223.150201
1223.149368
1223.147181
1223.148035
1223.148515
1223.154612
1223.168047
1223.153956
1223.15504
1223.15504
1223.15504
1223.149045
1223.149047
1223.148297
1223.153753
1223.156897
1223.153296
1223.148473
1223.153929
1223.153157
1223.154563
1223.154563
1223.154563
1223.1511
1223.15361
1223.147332
1223.15129
1223.150251
1223.154836
1223.15048
1223.151031
1223.153544
1223.153894
1223.153894
1223.153894
1223.148493
1223.150243
1223.14903
1223.153139
1223.150457
1223.156546
1223.153879
1223.145926
1223.150163
)
;
    }
}


// ************************************************************************* //
