/*--------------------------------*- C++ -*----------------------------------*\
| =========                 |                                                 |
| \\      /  F ield         | OpenFOAM: The Open Source CFD Toolbox           |
|  \\    /   O peration     | Version:  4.x                                   |
|   \\  /    A nd           | Web:      www.OpenFOAM.org                      |
|    \\/     M anipulation  |                                                 |
\*---------------------------------------------------------------------------*/
FoamFile
{
    version     2.0;
    format      ascii;
    class       volVectorField;
    location    "7000";
    object      U;
}
// * * * * * * * * * * * * * * * * * * * * * * * * * * * * * * * * * * * * * //

dimensions      [0 1 -1 0 0 0 0];

internalField   nonuniform List<vector> 
1174
(
(0.01100023433 -8.708420336e-09 -5.465386254e-09)
(0.01100024605 -9.671243122e-09 -7.666556908e-09)
(0.01100026904 -5.181420727e-09 -4.060366187e-09)
(0.01100026776 -5.332473107e-09 -3.984807344e-09)
(0.01100026048 -3.254476804e-09 -3.573200848e-09)
(0.01100023657 -9.249595828e-10 -1.264045253e-09)
(0.01100020559 5.232804506e-10 -1.49543228e-09)
(0.01100017443 1.963838983e-09 1.011663395e-09)
(0.01100013712 1.68195792e-09 1.242124848e-09)
(0.01100009838 1.172713482e-09 5.036389923e-09)
(0.01100005835 5.325859936e-10 2.775430174e-09)
(0.01100001409 1.209156281e-09 3.963567619e-09)
(0.0109999809 2.479542492e-09 3.237037412e-09)
(0.01099993948 3.86514248e-09 3.690359979e-09)
(0.01100024241 -3.691979816e-08 -6.718035679e-09)
(0.01100024177 -3.318630205e-08 -9.764742836e-09)
(0.01100025771 -2.221004047e-08 -6.048776787e-09)
(0.01100024567 -1.423823108e-08 -3.689562985e-09)
(0.0110002238 -7.352102353e-09 -1.740565795e-09)
(0.01100018944 -2.560879998e-09 3.036678186e-10)
(0.0110001494 9.490416277e-10 -1.774988026e-10)
(0.01100010933 4.067441605e-09 1.004866017e-09)
(0.01100006654 6.09442541e-09 1.583218534e-09)
(0.01100002315 7.004724838e-09 1.821201599e-09)
(0.01099998391 4.326935526e-09 2.577842064e-09)
(0.01099994275 6.997496941e-09 4.268745975e-09)
(0.01099990984 8.757062079e-09 3.846660817e-09)
(0.01099987139 8.629641557e-09 2.694924469e-09)
(0.01100026703 -2.894884196e-08 -1.404405007e-08)
(0.01100023995 -3.061406233e-08 -1.613376789e-08)
(0.01100023559 -1.940527846e-08 -9.271529214e-09)
(0.0110001965 -1.255380343e-08 -3.210654621e-09)
(0.01100014953 -6.412917891e-09 2.892661936e-09)
(0.01100009694 -5.189534891e-10 2.817000176e-09)
(0.01100004612 3.725703257e-10 2.831123718e-09)
(0.01099999544 4.729617876e-09 2.631138787e-09)
(0.01099994648 6.19175941e-09 3.069252348e-09)
(0.01099990144 5.766184553e-09 1.985221178e-09)
(0.01099986415 7.051368307e-09 4.635802018e-09)
(0.01099983072 7.266660632e-09 3.870854256e-09)
(0.01099979864 9.1124979e-09 3.325767091e-09)
(0.01099976839 9.198351839e-09 2.415614869e-09)
(0.011000279 -4.227939307e-08 -1.609914106e-09)
(0.01100019703 -2.623523135e-08 -1.793654265e-08)
(0.01100017834 -9.662801724e-09 -7.7224101e-09)
(0.01100011832 1.687330075e-09 1.238293139e-09)
(0.01100005687 4.01808947e-09 2.388104788e-09)
(0.01099998809 4.505242294e-09 7.102207288e-09)
(0.01099992853 5.550468693e-09 8.026588254e-09)
(0.01099987436 5.314550832e-09 6.393454595e-09)
(0.01099982497 5.796677228e-09 7.011447361e-09)
(0.01099978378 5.34901791e-09 8.019388864e-09)
(0.01099974937 7.588798298e-09 7.923353949e-09)
(0.01099972036 6.810781503e-09 7.229890333e-09)
(0.01099970151 8.228895311e-09 6.98078729e-09)
(0.01099967866 7.373409034e-09 5.093867252e-09)
(0.01100036436 9.149553985e-10 1.125354613e-09)
(0.01100020662 1.410507603e-09 -9.415472739e-09)
(0.01100015917 8.065198458e-10 8.854133988e-10)
(0.01100007627 4.713634739e-10 6.163032349e-09)
(0.01100000283 8.270500315e-10 7.379358761e-09)
(0.01099993078 4.819051106e-10 8.462697367e-09)
(0.01099986788 9.826184731e-11 7.487597811e-09)
(0.01099981624 2.748272548e-10 6.519959883e-09)
(0.01099976849 8.403020267e-10 5.878675068e-09)
(0.01099973405 2.756325444e-09 5.663133281e-09)
(0.01099970299 3.166754815e-09 4.719981925e-09)
(0.01099967602 3.505108952e-09 3.83030749e-09)
(0.01099965858 2.929393918e-09 1.826004712e-09)
(0.01099963986 2.397462546e-10 7.753948628e-10)
(0.01100027858 4.074700719e-08 -1.132422896e-09)
(0.01100019713 2.4630233e-08 -1.870072619e-08)
(0.01100017908 9.004535514e-09 -8.150475619e-09)
(0.01100011674 1.826645898e-10 -6.506291264e-10)
(0.01100005154 -2.985329016e-09 3.125044803e-09)
(0.01099998703 -5.915118563e-09 8.456575512e-09)
(0.0109999287 -5.47931271e-09 9.248013961e-09)
(0.01099987411 -5.017209432e-09 7.364951591e-09)
(0.01099982397 -4.652433883e-09 5.420911369e-09)
(0.0109997827 -4.27531041e-09 5.168538734e-09)
(0.01099975124 -4.977300454e-09 5.978762055e-09)
(0.01099972229 -4.917869204e-09 5.091742199e-09)
(0.01099969871 -4.941517282e-09 4.91129689e-09)
(0.0109996761 -4.071925351e-09 5.085806862e-09)
(0.01100026712 2.837360133e-08 -1.251011451e-08)
(0.01100023973 3.097218611e-08 -1.497534695e-08)
(0.01100023604 1.881136742e-08 -6.944920718e-09)
(0.01100019891 1.017426695e-08 -9.857493405e-10)
(0.01100014862 4.946701864e-09 7.949518095e-10)
(0.01100009925 4.151015904e-10 4.839876063e-09)
(0.01100004429 -3.827053641e-09 5.710064749e-09)
(0.01099999673 -8.050503193e-09 5.684356241e-09)
(0.01099994657 -1.006257317e-08 6.947244725e-09)
(0.01099990376 -8.781090796e-09 5.31687018e-09)
(0.01099986431 -6.146866e-09 6.197691429e-09)
(0.01099982953 -5.734501328e-09 4.187976284e-09)
(0.01099979812 -1.032832542e-08 5.606039927e-09)
(0.01099976749 -6.816210787e-09 4.778137116e-09)
(0.01100023987 3.933434389e-08 -6.403881682e-09)
(0.0110002434 3.325592837e-08 -9.259925827e-09)
(0.01100025755 2.365629491e-08 -5.74212126e-09)
(0.01100024372 1.465928765e-08 -2.840502809e-09)
(0.0110002221 6.602817304e-09 -3.289880124e-09)
(0.01100018711 2.540909775e-09 -3.453335882e-10)
(0.01100014918 -2.114929109e-09 2.069888595e-09)
(0.01100011018 -3.085291084e-09 2.781568886e-09)
(0.0110000682 -4.984717819e-09 2.943780989e-09)
(0.01100002735 -6.322164757e-09 3.791807811e-09)
(0.01099998658 -6.869082474e-09 3.639019636e-09)
(0.01099994373 -7.66269751e-09 4.099756949e-09)
(0.01099991111 -7.888131531e-09 5.137363093e-09)
(0.01099986791 -7.735460719e-09 2.410820809e-09)
(0.01100023023 6.622400267e-09 -7.499818508e-09)
(0.01100024652 7.449005095e-09 -9.885124263e-09)
(0.01100026942 6.426796507e-09 -4.508869358e-09)
(0.01100026644 4.099651961e-09 -3.43611155e-09)
(0.01100025805 1.73798933e-09 -3.795520813e-09)
(0.01100023593 2.533103567e-10 -7.894764581e-10)
(0.01100020868 -1.191218547e-09 -6.052577251e-10)
(0.01100017854 -2.153158317e-09 1.543239737e-09)
(0.01100013566 6.642839142e-11 9.731516332e-10)
(0.01100009768 -1.488148221e-09 2.156552911e-09)
(0.01100005902 -1.808572704e-09 2.75086303e-09)
(0.01100001527 -3.979069631e-09 3.251288043e-09)
(0.0109999791 -3.248944319e-09 2.63708421e-09)
(0.01099993929 -3.972243461e-09 1.833529262e-09)
(0.01100016704 -2.735285017e-08 -6.816847794e-08)
(0.01100024294 -6.597553317e-09 -3.587284044e-08)
(0.01100024255 -1.034056308e-08 -3.218355463e-08)
(0.01100025707 -6.958554253e-09 -1.927237484e-08)
(0.01100024618 -5.476145703e-09 -1.237684304e-08)
(0.01100022183 -4.618556442e-10 -6.076786519e-09)
(0.01100019022 1.382816659e-09 -2.454524624e-09)
(0.01100015123 3.747046375e-09 1.468520572e-09)
(0.0110001113 3.187243643e-09 4.612743991e-09)
(0.01100006787 4.614962022e-09 5.191402784e-09)
(0.0110000238 4.319170908e-09 6.854508715e-09)
(0.01099998604 3.110783849e-09 6.762420865e-09)
(0.01099994437 3.823287184e-09 6.908103678e-09)
(0.01099990948 5.058869339e-09 1.002273331e-08)
(0.01099987088 3.707774815e-09 8.692248435e-09)
(0.01100025419 -4.525742624e-08 -4.300824222e-08)
(0.01100022299 -4.083583945e-08 -4.036096218e-08)
(0.01100022249 -2.47859062e-08 -2.351690348e-08)
(0.01100018872 -1.162694553e-08 -1.045354789e-08)
(0.01100014797 -3.844761585e-09 -3.405866903e-09)
(0.01100010032 1.948403514e-09 1.866159205e-09)
(0.01100005288 6.266779372e-09 4.298855512e-09)
(0.01100000686 7.590575199e-09 7.573122839e-09)
(0.01099996149 1.061897959e-08 9.156148014e-09)
(0.01099992237 9.992181485e-09 9.228296975e-09)
(0.01099988683 1.018167744e-08 1.198033332e-08)
(0.01099985162 1.037003506e-08 1.095884871e-08)
(0.01099982094 1.133311019e-08 9.912350192e-09)
(0.01099979087 1.047424631e-08 9.234829457e-09)
(0.01100028474 -2.230693608e-08 -7.647030769e-08)
(0.01100017692 -4.102145172e-08 -6.239860257e-08)
(0.01100013697 -2.242524032e-08 -2.516781783e-08)
(0.01100006091 -6.97226201e-09 -3.004547093e-09)
(0.01099998605 1.49242533e-09 8.038866404e-09)
(0.01099992162 8.676556254e-09 1.283794499e-08)
(0.0109998648 1.073177242e-08 1.722094697e-08)
(0.01099981772 1.245266426e-08 1.604589683e-08)
(0.01099977885 1.275730077e-08 1.60320005e-08)
(0.01099974784 1.301424012e-08 1.564024033e-08)
(0.01099972041 1.2423233e-08 1.562746248e-08)
(0.01099969993 1.249839625e-08 1.463072038e-08)
(0.01099968042 1.367962859e-08 1.461212015e-08)
(0.01099966816 1.279908446e-08 1.198988544e-08)
(0.01100025112 -2.668319442e-08 -4.923685097e-08)
(0.01100001374 -1.715234004e-08 -6.81571373e-08)
(0.0109999585 9.308268632e-10 -1.784226652e-08)
(0.01099985257 9.387557203e-09 9.274581127e-09)
(0.01099976889 1.235814884e-08 2.205997791e-08)
(0.01099970047 1.345996688e-08 2.660177915e-08)
(0.01099965123 1.247179207e-08 2.772498167e-08)
(0.01099961599 9.93051809e-09 2.556524239e-08)
(0.010999591 8.760883682e-09 2.287191712e-08)
(0.01099957402 9.173563601e-09 2.156329346e-08)
(0.01099956259 8.565561294e-09 1.866488628e-08)
(0.01099955541 6.152932357e-09 1.67229519e-08)
(0.01099955498 7.901892347e-09 1.709600922e-08)
(0.01099955137 6.925895568e-09 1.304809957e-08)
(0.01100038757 2.870561956e-10 -1.720793508e-08)
(0.01099992506 5.789421455e-10 -1.520840678e-08)
(0.01099983319 7.430677074e-10 3.333181331e-08)
(0.01099971977 -2.385498141e-10 4.851093956e-08)
(0.01099963723 6.230736525e-10 4.567251122e-08)
(0.01099957861 -9.400745421e-12 4.001017725e-08)
(0.0109995434 8.503860456e-10 3.603662231e-08)
(0.01099951948 9.239377323e-10 3.175354124e-08)
(0.01099950287 4.158558144e-11 2.667550889e-08)
(0.01099949909 4.929970794e-10 2.354287238e-08)
(0.01099949687 1.195629161e-09 2.033162022e-08)
(0.01099949542 9.496545364e-10 1.61297943e-08)
(0.01099949925 7.66983806e-10 1.745217354e-08)
(0.01099950479 -2.831514827e-10 1.392095514e-08)
(0.01100025056 2.448529754e-08 -4.796692782e-08)
(0.01100001469 1.704483193e-08 -6.609941457e-08)
(0.01099995786 -1.644433604e-10 -1.674942752e-08)
(0.01099985308 -8.890731303e-09 8.940846803e-09)
(0.01099976752 -1.283654154e-08 2.177248854e-08)
(0.01099970062 -1.273344944e-08 2.702591582e-08)
(0.0109996502 -1.300417332e-08 2.798477439e-08)
(0.01099961506 -1.244976593e-08 2.633769123e-08)
(0.01099958986 -1.001186433e-08 2.392216881e-08)
(0.01099957265 -8.882748693e-09 2.015205351e-08)
(0.01099956381 -6.550542589e-09 1.889489058e-08)
(0.01099955835 -6.591681169e-09 1.659779358e-08)
(0.01099955332 -6.574790958e-09 1.633359429e-08)
(0.01099955032 -5.83506248e-09 1.363732642e-08)
(0.01100028176 2.326863609e-08 -7.307727312e-08)
(0.01100017588 4.252568216e-08 -6.025623988e-08)
(0.01100013676 2.290495106e-08 -2.347034464e-08)
(0.01100005691 7.364654304e-09 -4.446075609e-09)
(0.01099998785 -3.737400904e-10 6.16295808e-09)
(0.01099992093 -8.234175899e-09 1.374769237e-08)
(0.01099986341 -1.218202819e-08 1.750590418e-08)
(0.01099981951 -1.153509782e-08 1.690945622e-08)
(0.01099977702 -1.154123053e-08 1.569553578e-08)
(0.01099974627 -1.088421429e-08 1.609441503e-08)
(0.01099972193 -1.187758789e-08 1.538945836e-08)
(0.01099969994 -7.661531241e-09 1.390717395e-08)
(0.01099968187 -9.885836939e-09 1.404051539e-08)
(0.01099966146 -8.738890765e-09 1.099798891e-08)
(0.01100025421 4.436858571e-08 -4.358954992e-08)
(0.01100022345 4.137001663e-08 -4.028692754e-08)
(0.01100022219 2.704778542e-08 -2.491559015e-08)
(0.01100018774 1.361030496e-08 -1.138951989e-08)
(0.01100014634 3.789845545e-09 -3.118052652e-09)
(0.01100009857 -3.399184954e-09 2.182032446e-09)
(0.01100005191 -7.498246082e-09 7.185071552e-09)
(0.01100000647 -7.359474242e-09 9.578789249e-09)
(0.01099996253 -8.813990756e-09 1.195597315e-08)
(0.01099992231 -9.201159829e-09 1.055245914e-08)
(0.01099988511 -9.47532009e-09 9.653003746e-09)
(0.01099985085 -9.937073846e-09 9.773453723e-09)
(0.01099982056 -1.025788685e-08 1.063073117e-08)
(0.01099979105 -9.858000379e-09 8.625076481e-09)
(0.01100024403 6.406819541e-09 -3.75887798e-08)
(0.01100024458 1.107793987e-08 -3.108512128e-08)
(0.01100025622 7.62128193e-09 -1.981303257e-08)
(0.01100024241 4.41214556e-09 -1.121166485e-08)
(0.01100022158 9.244097486e-10 -6.486224563e-09)
(0.01100018804 -6.70945387e-10 -2.040809419e-09)
(0.01100014967 -1.524593133e-09 4.437375087e-09)
(0.0110001116 -3.158269528e-09 5.107393926e-09)
(0.01100006848 -3.333410242e-09 6.935085062e-09)
(0.01100002493 -3.416955852e-09 6.766500551e-09)
(0.01099998478 -3.145678353e-09 6.782990824e-09)
(0.01099994214 -3.17466377e-09 7.563709101e-09)
(0.01099990912 -4.394768367e-09 9.091585403e-09)
(0.01099987306 -4.722290172e-09 7.39720323e-09)
(0.0110001667 -5.42341952e-08 -8.379460601e-08)
(0.01100026847 -1.212917317e-08 -2.790712956e-08)
(0.01100023847 -1.698713554e-08 -2.716436391e-08)
(0.01100023473 -6.200105138e-09 -1.828198516e-08)
(0.01100019586 4.86230643e-10 -7.500588617e-09)
(0.01100014989 7.937250155e-10 -2.746309701e-09)
(0.01100009772 6.684350908e-09 2.481014298e-09)
(0.01100004584 7.050223573e-09 6.995478818e-09)
(0.01099999359 6.613271816e-09 8.010309241e-09)
(0.01099994644 7.436520441e-09 7.979808632e-09)
(0.0109999047 9.637567516e-09 8.290419365e-09)
(0.01099986708 8.593057811e-09 1.19436677e-08)
(0.0109998272 7.644831543e-09 1.078244676e-08)
(0.01099979818 6.931505615e-09 1.110389637e-08)
(0.01099976844 6.528053126e-09 1.00485526e-08)
(0.01100016327 -2.37010481e-07 -1.348629575e-07)
(0.01100028402 -7.583844087e-08 -2.191127508e-08)
(0.01100017193 -6.154892076e-08 -3.99681741e-08)
(0.01100013667 -2.701282551e-08 -2.098602264e-08)
(0.01100005999 -5.374513027e-09 -5.19603411e-09)
(0.01099998866 6.453859855e-09 2.11119834e-09)
(0.0109999197 1.301161071e-08 7.607902578e-09)
(0.01099986355 1.714660242e-08 1.16959216e-08)
(0.01099981829 1.692431959e-08 1.170838166e-08)
(0.01099978243 1.696075776e-08 1.139725405e-08)
(0.01099974573 1.52403759e-08 1.460969431e-08)
(0.0109997209 1.455576549e-08 1.560776156e-08)
(0.01099969898 1.394567117e-08 1.173552759e-08)
(0.01099967756 1.467897405e-08 1.31113518e-08)
(0.01099966815 1.282981893e-08 1.156425282e-08)
(0.01100030339 -3.454435197e-08 -3.616335392e-08)
(0.01099998742 -6.052605765e-08 -6.055556692e-08)
(0.01099986441 -1.346830796e-08 -1.364733981e-08)
(0.01099972296 1.0385896e-08 1.029825214e-08)
(0.01099961996 2.127824676e-08 2.027398765e-08)
(0.01099955659 2.642179764e-08 2.437415739e-08)
(0.01099951369 2.681096282e-08 2.514586314e-08)
(0.01099949182 2.435965202e-08 2.358770682e-08)
(0.01099948011 2.150928619e-08 2.301303942e-08)
(0.01099947819 1.93527304e-08 2.066960025e-08)
(0.01099948342 1.628615161e-08 1.805587571e-08)
(0.01099948753 1.492565656e-08 1.498872287e-08)
(0.01099949408 1.643818897e-08 1.5453409e-08)
(0.01099950546 1.488066084e-08 1.353647565e-08)
(0.01100005991 1.163910215e-08 8.21595868e-08)
(0.01099941979 1.764421864e-08 -8.980565391e-08)
(0.01099929922 4.970603644e-08 -1.836755172e-09)
(0.01099915818 5.26243441e-08 3.576203288e-08)
(0.01099909342 4.310210781e-08 4.315198514e-08)
(0.01099908265 3.473266399e-08 4.305019998e-08)
(0.01099909802 2.75542098e-08 3.964648071e-08)
(0.01099913364 2.21010384e-08 3.29127429e-08)
(0.01099916866 1.809241001e-08 2.871739259e-08)
(0.0109992089 1.384369904e-08 2.409728708e-08)
(0.01099924854 1.100092379e-08 2.143529707e-08)
(0.01099928592 8.837247176e-09 1.887216408e-08)
(0.01099932259 1.032881192e-08 1.849005263e-08)
(0.01099935193 9.241241149e-09 1.543564273e-08)
(0.01100019148 8.43835175e-10 5.162730568e-07)
(0.01099887748 1.643498605e-09 4.33304288e-08)
(0.01099879409 1.346034193e-09 9.050759952e-08)
(0.0109987244 -1.553008978e-10 1.013532914e-07)
(0.01099874146 -2.68348291e-10 7.899807548e-08)
(0.01099880707 -9.382467984e-10 6.229080885e-08)
(0.01099888169 -3.949253954e-10 4.89963679e-08)
(0.01099895545 8.872225364e-10 3.741246691e-08)
(0.01099902602 2.094363578e-10 2.952305972e-08)
(0.01099909067 1.078076353e-09 2.530010145e-08)
(0.01099914692 8.215632587e-10 1.95143404e-08)
(0.01099920357 4.93446633e-10 1.650691789e-08)
(0.0109992502 2.083659344e-09 1.803614584e-08)
(0.01099929188 2.730745885e-09 1.650230573e-08)
(0.01100006116 -1.095621518e-08 8.326815729e-08)
(0.0109994173 -1.723361348e-08 -9.106658027e-08)
(0.01099930031 -4.829440517e-08 -1.41890742e-09)
(0.01099915549 -5.281792313e-08 3.673343359e-08)
(0.01099909586 -4.337754936e-08 4.357065651e-08)
(0.0109990839 -3.490733788e-08 4.370669364e-08)
(0.01099909962 -2.596915286e-08 3.956307396e-08)
(0.01099913188 -2.191937082e-08 3.175385036e-08)
(0.01099916735 -1.730789318e-08 2.672939276e-08)
(0.0109992106 -1.272254292e-08 2.402959235e-08)
(0.01099925113 -1.083384694e-08 2.1161989e-08)
(0.01099928539 -7.057635324e-09 1.620748689e-08)
(0.01099932004 -8.968967245e-09 1.742030888e-08)
(0.01099935112 -7.790555796e-09 1.595464083e-08)
(0.01100030483 3.640319736e-08 -3.617762954e-08)
(0.01099998863 6.145013528e-08 -6.037104946e-08)
(0.01099986594 1.38115444e-08 -1.402043081e-08)
(0.0109997212 -9.331164888e-09 1.153170335e-08)
(0.01099962093 -1.887275249e-08 2.052156182e-08)
(0.01099955609 -2.316109392e-08 2.602103846e-08)
(0.01099951406 -2.588253764e-08 2.630214301e-08)
(0.01099949052 -2.221973767e-08 2.486552125e-08)
(0.01099947873 -2.053924118e-08 2.119727451e-08)
(0.01099947962 -1.913545267e-08 1.883866965e-08)
(0.01099948143 -1.498299444e-08 1.492927461e-08)
(0.01099948965 -1.347139838e-08 1.44654584e-08)
(0.01099949198 -1.572815206e-08 1.401188296e-08)
(0.01099949868 -1.470863635e-08 1.109179935e-08)
(0.01100028535 7.438862152e-08 -2.240805446e-08)
(0.01100017609 6.117921436e-08 -4.193253195e-08)
(0.01100013743 2.709823063e-08 -2.180747311e-08)
(0.011000059 4.792205448e-09 -6.827380992e-09)
(0.01099998898 -6.533353247e-09 6.258157594e-10)
(0.01099991932 -1.452036262e-08 8.810794616e-09)
(0.0109998638 -1.609247005e-08 1.433724727e-08)
(0.0109998185 -1.687157786e-08 1.381736985e-08)
(0.01099977596 -1.53392548e-08 1.409646178e-08)
(0.01099974815 -1.450613807e-08 1.324913805e-08)
(0.01099972123 -1.490689213e-08 1.197136149e-08)
(0.01099969716 -1.405636041e-08 1.134243905e-08)
(0.01099968072 -1.460303895e-08 1.203588802e-08)
(0.01099966307 -1.216559183e-08 9.708418819e-09)
(0.01100026909 1.313639796e-08 -2.803436445e-08)
(0.01100023923 1.656736012e-08 -3.121416031e-08)
(0.01100023683 7.984385624e-09 -2.051351941e-08)
(0.0110001965 3.348171228e-09 -9.135406441e-09)
(0.01100014834 -1.984331414e-09 -3.782421023e-09)
(0.01100009652 -4.529164728e-09 1.657796708e-09)
(0.01100004495 -4.453135924e-09 5.267018721e-09)
(0.01099999589 -3.920342607e-09 8.152988856e-09)
(0.01099994436 -5.745524819e-09 8.908477691e-09)
(0.01099990428 -5.387058835e-09 9.820333152e-09)
(0.0109998627 -5.317251198e-09 8.344329992e-09)
(0.01099982772 -5.217101808e-09 8.213850697e-09)
(0.01099979779 -4.253782701e-09 1.03121311e-08)
(0.01099976581 -4.013677484e-09 9.79676371e-09)
(0.01100016914 -7.607180281e-08 -1.377844518e-07)
(0.01100027872 -1.091027641e-09 -3.949870243e-08)
(0.01100019794 -1.97215179e-08 -2.451348063e-08)
(0.01100017975 -7.668871024e-09 -8.590595653e-09)
(0.01100011803 4.490060955e-10 3.788069333e-10)
(0.01100005295 5.503387805e-09 4.687161871e-09)
(0.01099999147 8.569937786e-09 5.983257169e-09)
(0.01099992632 7.485327163e-09 5.222999176e-09)
(0.01099987449 6.96530569e-09 5.625680612e-09)
(0.01099982439 7.516195324e-09 7.028690211e-09)
(0.01099978544 8.453595576e-09 8.010678811e-09)
(0.01099975067 6.867158692e-09 6.458240963e-09)
(0.01099972107 7.393409751e-09 6.280036761e-09)
(0.01099969631 5.981232897e-09 6.678451424e-09)
(0.0109996743 5.64745231e-09 6.500481755e-09)
(0.01100016952 -3.573099198e-07 -2.803107705e-07)
(0.01100024898 -4.880600593e-08 -2.688294699e-08)
(0.0110000139 -6.848831696e-08 -1.703927141e-08)
(0.01099995913 -1.924221651e-08 1.8759075e-09)
(0.01099985328 6.572448604e-09 9.849207903e-09)
(0.01099976731 2.014260009e-08 1.383113025e-08)
(0.01099969968 2.483758106e-08 1.358732143e-08)
(0.01099964978 2.64154953e-08 1.354781526e-08)
(0.01099961603 2.649789787e-08 1.17548906e-08)
(0.01099959265 2.374779083e-08 1.168201851e-08)
(0.0109995736 2.146521196e-08 9.697828384e-09)
(0.01099956101 1.911481723e-08 8.229912077e-09)
(0.0109995541 1.595244694e-08 8.996611145e-09)
(0.01099955108 1.698366809e-08 9.011086223e-09)
(0.0109995518 1.445750362e-08 8.351885298e-09)
(0.01100005276 -4.742887944e-07 -8.191976974e-07)
(0.01100005899 8.301683959e-08 1.110751014e-08)
(0.01099941676 -8.900915308e-08 1.720643004e-08)
(0.01099929809 -2.135770486e-09 4.923794108e-08)
(0.01099915818 3.424327574e-08 5.328809076e-08)
(0.01099909453 4.228445379e-08 4.283255936e-08)
(0.01099908346 4.385715823e-08 3.47597243e-08)
(0.01099910036 3.890048174e-08 2.640891874e-08)
(0.01099913215 3.376829221e-08 2.030656672e-08)
(0.01099916969 3.015298965e-08 1.614872167e-08)
(0.01099920977 2.217112785e-08 1.41808044e-08)
(0.01099924982 1.825877721e-08 1.08633421e-08)
(0.01099928626 1.801012273e-08 1.014815016e-08)
(0.01099932052 1.820415216e-08 1.060789571e-08)
(0.01099935085 1.599471847e-08 8.798191401e-09)
(0.01099864097 5.24403946e-07 5.25312528e-07)
(0.01099762265 8.495982631e-08 8.920341277e-08)
(0.01099788005 1.076804114e-07 1.090270832e-07)
(0.01099792988 1.037169681e-07 1.040903537e-07)
(0.01099807975 7.535021907e-08 7.514337596e-08)
(0.01099825976 5.372430685e-08 5.32722127e-08)
(0.01099842994 3.918148872e-08 3.877561782e-08)
(0.01099858704 2.867991353e-08 2.858392147e-08)
(0.01099872231 1.987103722e-08 2.050449954e-08)
(0.01099884254 1.620454995e-08 1.660995753e-08)
(0.01099894096 1.268408957e-08 1.505377691e-08)
(0.01099903157 1.040281254e-08 1.115240717e-08)
(0.0109991032 1.27700807e-08 1.301066508e-08)
(0.01099916842 1.060338296e-08 1.085951853e-08)
(0.01099714883 1.577260253e-09 3.290226623e-06)
(0.01099504206 1.846407433e-10 9.083317134e-07)
(0.01099632714 1.046588549e-09 4.095898459e-07)
(0.01099687957 1.156451366e-09 2.4834445e-07)
(0.01099734922 9.770198703e-11 1.345483451e-07)
(0.01099775126 -5.583025943e-10 7.45242878e-08)
(0.01099806709 1.004059808e-09 4.585323343e-08)
(0.0109983165 4.525627569e-10 3.164110876e-08)
(0.01099851429 -6.109819056e-10 2.280648853e-08)
(0.01099867614 1.712026233e-09 1.543269677e-08)
(0.01099880992 2.30380714e-09 1.607073932e-08)
(0.01099892183 -2.191793456e-10 1.216109995e-08)
(0.01099901409 -4.821560106e-10 1.134241864e-08)
(0.01099909689 8.933319557e-10 9.629480713e-09)
(0.0109986401 -5.249212001e-07 5.241185957e-07)
(0.01099762385 -8.568948865e-08 8.627945911e-08)
(0.01099787756 -1.06242248e-07 1.07865879e-07)
(0.01099792932 -1.030860769e-07 1.037996793e-07)
(0.0109980789 -7.385068432e-08 7.409267755e-08)
(0.01099826116 -5.228106491e-08 5.297499721e-08)
(0.01099843125 -3.807150962e-08 3.829660804e-08)
(0.01099858666 -2.831724301e-08 2.8659136e-08)
(0.01099872419 -2.139233665e-08 2.225801238e-08)
(0.01099884314 -1.75010547e-08 1.603190541e-08)
(0.01099894117 -1.444547047e-08 1.319869539e-08)
(0.01099902831 -1.054606351e-08 1.103455035e-08)
(0.01099910105 -1.13086557e-08 1.149795069e-08)
(0.01099916932 -1.03157799e-08 1.097677231e-08)
(0.01100006137 -8.421670195e-08 1.121039451e-08)
(0.0109994171 9.09532474e-08 1.757836899e-08)
(0.01099930044 9.431014955e-10 4.86196645e-08)
(0.0109991543 -3.524890058e-08 5.361307958e-08)
(0.01099909639 -4.317812836e-08 4.304032031e-08)
(0.01099908309 -4.242744031e-08 3.484886762e-08)
(0.01099909836 -3.792465317e-08 2.648839997e-08)
(0.01099913226 -3.125668158e-08 2.172075382e-08)
(0.01099916941 -2.614871998e-08 1.768182116e-08)
(0.01099920999 -2.190234873e-08 1.474386288e-08)
(0.01099924593 -1.994207187e-08 1.254207181e-08)
(0.01099928837 -1.596794962e-08 9.785911971e-09)
(0.01099931738 -1.672858347e-08 1.011933552e-08)
(0.01099935445 -1.622570919e-08 8.525083625e-09)
(0.01100025214 4.833417165e-08 -2.629910954e-08)
(0.01100001258 6.65364072e-08 -1.6967114e-08)
(0.01099995857 1.731920527e-08 1.19310137e-09)
(0.01099985237 -7.897681728e-09 1.257391197e-08)
(0.01099976751 -2.154447497e-08 1.320272811e-08)
(0.01099970118 -2.616471507e-08 1.372065022e-08)
(0.01099965109 -2.762966343e-08 1.158488547e-08)
(0.01099961575 -2.474610737e-08 1.243118155e-08)
(0.01099958741 -2.274173917e-08 1.089910855e-08)
(0.01099957492 -1.915137072e-08 1.005782737e-08)
(0.01099956053 -1.711315122e-08 9.860516118e-09)
(0.0109995565 -1.566927755e-08 7.324305177e-09)
(0.01099955054 -1.660707215e-08 7.6307089e-09)
(0.01099954721 -1.42882626e-08 6.800591503e-09)
(0.01100027935 1.289740418e-09 -4.118600991e-08)
(0.01100019694 1.950847709e-08 -2.520995936e-08)
(0.0110001803 9.411360075e-09 -9.050505182e-09)
(0.01100011587 8.769928616e-10 5.816477419e-10)
(0.01100005124 -3.809168139e-09 1.949723208e-09)
(0.01099998757 -7.02463735e-09 6.023468237e-09)
(0.01099992731 -8.839916155e-09 4.86173133e-09)
(0.01099987537 -7.900486367e-09 5.372014751e-09)
(0.01099982237 -6.418326696e-09 5.446770219e-09)
(0.01099978366 -6.504437702e-09 6.004648748e-09)
(0.01099974595 -5.560928661e-09 7.849657955e-09)
(0.01099972155 -6.697479684e-09 6.680739636e-09)
(0.01099969587 -7.401372765e-09 7.013035259e-09)
(0.01099967563 -4.959882175e-09 5.237145536e-09)
(0.01100017729 -1.907890347e-07 -1.190261194e-09)
(0.01100036065 4.202889382e-09 -2.521273732e-11)
(0.01100020552 -9.487354566e-09 1.938187903e-11)
(0.01100015493 3.754668855e-09 5.537895187e-10)
(0.01100007573 8.611167884e-09 -7.164627595e-11)
(0.01100000012 1.318439562e-08 1.06967905e-09)
(0.01099993016 1.190320697e-08 4.377046033e-10)
(0.01099986865 1.241732682e-08 -3.144192692e-10)
(0.01099981565 1.107495006e-08 4.458182654e-11)
(0.0109997711 1.057573061e-08 2.745900794e-09)
(0.01099973369 8.360246078e-09 2.128050319e-09)
(0.01099970159 7.639928562e-09 1.198198151e-09)
(0.01099967334 8.605348117e-09 1.71673794e-09)
(0.01099965639 8.0349057e-09 1.340910449e-10)
(0.01099963711 9.615098168e-09 1.243432246e-09)
(0.01100018714 -9.031915123e-07 3.264785873e-10)
(0.01100038847 -1.895555063e-08 4.361566292e-10)
(0.01099992707 -1.713024022e-08 1.249648502e-09)
(0.01099983303 2.948454497e-08 2.871678793e-11)
(0.01099971818 4.596421749e-08 4.286983173e-10)
(0.01099963424 4.376547005e-08 -2.71634134e-10)
(0.01099957825 3.903918629e-08 1.082344022e-10)
(0.0109995407 3.575255222e-08 -4.148712956e-10)
(0.01099951921 3.066401712e-08 4.182965002e-10)
(0.01099950492 2.650823693e-08 1.262159814e-09)
(0.01099949749 2.341977184e-08 8.344124493e-10)
(0.01099949576 1.792414446e-08 -1.888755747e-09)
(0.01099949347 1.464296826e-08 -6.297076699e-10)
(0.01099950006 1.77277587e-08 -6.168084784e-10)
(0.01099950227 1.507522531e-08 2.242322822e-09)
(0.01099988957 -1.722674397e-06 -1.442280281e-09)
(0.01100019227 5.174756377e-07 3.242277427e-10)
(0.01099887197 4.373865008e-08 2.033533188e-10)
(0.01099879455 9.011474973e-08 1.295990457e-09)
(0.01099872276 1.00500909e-07 3.188836796e-10)
(0.01099874024 7.894179308e-08 1.985306982e-10)
(0.01099880583 6.191418521e-08 1.720245301e-10)
(0.01099887907 4.827299231e-08 -1.147226146e-10)
(0.01099895592 3.859649823e-08 1.822531885e-10)
(0.01099902568 2.992741771e-08 1.170664719e-09)
(0.01099909288 2.111482456e-08 1.080970069e-11)
(0.0109991481 1.970537218e-08 6.310713772e-10)
(0.01099920533 1.766547616e-08 7.658287888e-11)
(0.01099924861 1.860227977e-08 1.129817659e-09)
(0.01099929096 1.555414255e-08 1.381368165e-09)
(0.01099670268 -8.130206189e-06 1.126796094e-10)
(0.01099714233 3.288844721e-06 1.682831717e-11)
(0.01099503945 9.075241225e-07 -2.144722786e-10)
(0.01099632528 4.092485181e-07 -8.901513553e-11)
(0.01099687612 2.476633543e-07 1.470829919e-09)
(0.01099735123 1.326103296e-07 -9.731554505e-10)
(0.01099775279 7.655021776e-08 2.024687901e-10)
(0.01099806292 4.747481242e-08 4.39671766e-11)
(0.01099831196 3.108480239e-08 1.04502513e-09)
(0.01099851519 2.07263898e-08 -6.162006487e-11)
(0.01099867684 1.520239862e-08 2.809151604e-10)
(0.01099881155 1.437327844e-08 -7.076536356e-10)
(0.01099892662 1.083365906e-08 4.352949594e-10)
(0.01099901166 1.292428147e-08 -9.709924316e-11)
(0.0109990966 8.177808337e-09 -1.656152162e-09)
(0.01099332229 -1.70302851e-10 -8.604199297e-10)
(0.01098665353 -2.428823184e-09 -5.294018373e-10)
(0.01099266184 -1.567441754e-10 5.258654525e-10)
(0.01099497174 3.885163351e-10 -2.012615207e-10)
(0.01099622245 -2.313201553e-10 -1.576149648e-10)
(0.01099705247 2.382553679e-11 -7.754238585e-11)
(0.0109976025 3.88392154e-10 9.069775393e-10)
(0.01099798835 1.494861664e-09 -8.294193169e-10)
(0.0109982718 1.319434634e-09 -1.15926116e-09)
(0.01099849304 -2.1561456e-10 -2.09305651e-10)
(0.01099866391 1.140240219e-10 -6.208989766e-10)
(0.01099880688 -1.953591465e-09 7.990456382e-11)
(0.01099891401 -1.113309801e-09 6.775289399e-10)
(0.0109990255 2.052709328e-10 -1.080107852e-09)
(0.01099714454 -3.29187842e-06 -2.907204998e-09)
(0.01099503857 -9.073644513e-07 -5.194677033e-10)
(0.01099632767 -4.095968572e-07 -1.591329039e-09)
(0.01099687663 -2.477879876e-07 -5.200891287e-10)
(0.01099734926 -1.339941446e-07 -1.096042037e-09)
(0.01099775155 -7.453250004e-08 -1.411212749e-10)
(0.01099806516 -4.715512997e-08 8.40406979e-10)
(0.01099831412 -3.001898204e-08 1.860747559e-09)
(0.01099851494 -2.169137949e-08 4.232954435e-10)
(0.01099867692 -1.491025317e-08 2.835101133e-10)
(0.01099881029 -1.396736486e-08 -7.180026211e-10)
(0.01099892474 -9.469810895e-09 -3.475761773e-10)
(0.01099901528 -1.302128658e-08 -7.725525536e-10)
(0.01099909484 -8.55877252e-09 -1.133464721e-09)
(0.01100019001 -5.1436615e-07 -3.073635171e-10)
(0.01099887261 -4.302762875e-08 -1.278193748e-09)
(0.01099879138 -8.918268194e-08 -4.870814164e-10)
(0.01099872247 -1.003065515e-07 -2.458591673e-10)