/*--------------------------------*- C++ -*----------------------------------*\
| =========                 |                                                 |
| \\      /  F ield         | OpenFOAM: The Open Source CFD Toolbox           |
|  \\    /   O peration     | Version:  4.x                                   |
|   \\  /    A nd           | Web:      www.OpenFOAM.org                      |
|    \\/     M anipulation  |                                                 |
\*---------------------------------------------------------------------------*/
FoamFile
{
    version     2.0;
    format      ascii;
    class       volScalarField;
    location    "7000";
    object      X_CO;
}
// * * * * * * * * * * * * * * * * * * * * * * * * * * * * * * * * * * * * * //

dimensions      [0 0 0 0 0 0 0];

internalField   nonuniform List<scalar> 
1174
(
0.3299572364
0.3299559951
0.329954245
0.3299519656
0.3299491826
0.3299459586
0.3299423805
0.3299385465
0.3299345556
0.329930501
0.3299264682
0.3299225481
0.329918901
0.3299160391
0.3299560733
0.3299540879
0.3299514482
0.329948217
0.329944507
0.3299404539
0.3299361949
0.3299318543
0.3299275365
0.3299233245
0.3299192833
0.3299154759
0.3299120232
0.3299093614
0.3299535074
0.3299500056
0.32994568
0.3299407763
0.329935559
0.3299302648
0.3299250799
0.3299201363
0.3299155174
0.3299112676
0.3299074054
0.3299039413
0.3299009298
0.3298986776
0.3299497539
0.3299443229
0.3299380985
0.3299315375
0.3299250189
0.3299188136
0.3299130896
0.3299079322
0.3299033672
0.3298993808
0.329895937
0.3298929953
0.3298905497
0.3298887818
0.3299470791
0.3299405914
0.3299335256
0.3299263803
0.3299195146
0.3299131565
0.3299074287
0.3299023773
0.329897996
0.3298942467
0.329891074
0.3298884211
0.3298862611
0.3298847262
0.329949754
0.329944323
0.3299380986
0.3299315377
0.3299250191
0.3299188138
0.3299130898
0.3299079325
0.3299033675
0.329899381
0.3298959372
0.3298929956
0.3298905499
0.3298887821
0.3299535074
0.3299500057
0.3299456801
0.3299407764
0.3299355592
0.329930265
0.3299250801
0.3299201366
0.3299155176
0.3299112679
0.3299074057
0.3299039416
0.3299009302
0.329898678
0.3299560733
0.329954088
0.3299514483
0.3299482171
0.3299445071
0.3299404541
0.3299361951
0.3299318545
0.3299275367
0.3299233247
0.3299192836
0.3299154763
0.3299120236
0.3299093619
0.3299572364
0.3299559951
0.3299542451
0.3299519657
0.3299491827
0.3299459587
0.3299423806
0.3299385466
0.3299345559
0.3299305013
0.3299264685
0.3299225484
0.3299189014
0.3299160395
0.3299574159
0.3299560733
0.329954088
0.3299514483
0.3299482171
0.329944507
0.329940454
0.3299361949
0.3299318543
0.3299275365
0.3299233245
0.3299192833
0.3299154759
0.3299120233
0.3299093615
0.3299534562
0.3299499788
0.3299457455
0.3299410122
0.3299360347
0.3299310275
0.3299261496
0.3299215063
0.3299171596
0.3299131394
0.3299094561
0.3299061186
0.3299031853
0.3299009716
0.3299468813
0.3299401417
0.3299328298
0.3299255651
0.3299187692
0.32991267
0.3299073481
0.3299027895
0.329898929
0.3298956797
0.3298929522
0.3298906696
0.3298887956
0.329887449
0.3299352172
0.3299240344
0.3299134231
0.3299041733
0.3298965557
0.3298905271
0.3298858939
0.3298824139
0.3298798509
0.3298779978
0.3298766843
0.329875775
0.3298751677
0.3298748063
0.3299242352
0.3299107985
0.3298994392
0.3298904471
0.3298836354
0.3298786497
0.3298751156
0.3298726985
0.3298711212
0.329870164
0.329869656
0.3298694648
0.3298694806
0.3298695858
0.3299352174
0.3299240345
0.3299134232
0.3299041735
0.3298965559
0.3298905273
0.3298858941
0.3298824142
0.3298798511
0.3298779981
0.3298766845
0.3298757753
0.329875168
0.3298748066
0.3299468814
0.3299401418
0.32993283
0.3299255652
0.3299187694
0.3299126702
0.3299073483
0.3299027898
0.3298989294
0.32989568
0.3298929526
0.32989067
0.329888796
0.3298874495
0.3299534563
0.3299499789
0.3299457456
0.3299410123
0.3299360349
0.3299310277
0.3299261498
0.3299215066
0.32991716
0.3299131398
0.3299094565
0.329906119
0.3299031858
0.3299009721
0.3299560733
0.329954088
0.3299514483
0.3299482171
0.3299445071
0.3299404541
0.3299361951
0.3299318545
0.3299275368
0.3299233248
0.3299192837
0.3299154764
0.3299120238
0.329909362
0.3299560294
0.3299535074
0.3299500057
0.3299456801
0.3299407764
0.3299355592
0.3299302649
0.32992508
0.3299201365
0.3299155175
0.3299112677
0.3299074055
0.3299039414
0.32990093
0.3298986778
0.3299523335
0.3299468814
0.3299401418
0.3299328299
0.3299255652
0.3299187693
0.3299126701
0.3299073482
0.3299027896
0.3298989291
0.3298956798
0.3298929523
0.3298906697
0.3298887956
0.3298874491
0.3299274949
0.3299133179
0.3299005118
0.3298900387
0.3298820878
0.3298764188
0.3298726181
0.3298702496
0.3298689264
0.3298683345
0.3298682334
0.3298684425
0.3298688172
0.3298691905
0.3298844555
0.3298605818
0.3298441769
0.3298345439
0.3298300667
0.3298291265
0.3298304223
0.3298330145
0.3298362677
0.3298397723
0.3298432737
0.3298466088
0.3298496222
0.3298519272
0.3298281989
0.3298045263
0.3297944511
0.3297927766
0.3297958034
0.3298012086
0.3298076191
0.3298142561
0.3298206966
0.3298267253
0.3298322434
0.3298372027
0.3298415125
0.3298447323
0.3298844562
0.3298605824
0.3298441775
0.3298345445
0.3298300672
0.329829127
0.3298304228
0.329833015
0.3298362682
0.3298397728
0.3298432742
0.3298466093
0.3298496227
0.3298519276
0.3299274954
0.3299133183
0.3299005122
0.3298900392
0.3298820883
0.3298764193
0.3298726187
0.3298702503
0.329868927
0.3298683352
0.3298682341
0.3298684432
0.3298688178
0.3298691912
0.3299468814
0.3299401419
0.32993283
0.3299255653
0.3299187695
0.3299126704
0.3299073485
0.3299027901
0.3298989296
0.3298956803
0.3298929529
0.3298906703
0.3298887963
0.3298874498
0.3299535074
0.3299500057
0.3299456801
0.3299407765
0.3299355593
0.3299302651
0.3299250803
0.3299201368
0.3299155179
0.3299112682
0.329907406
0.329903942
0.3299009306
0.3298986785
0.3299539505
0.329949754
0.3299443231
0.3299380987
0.3299315377
0.3299250192
0.3299188138
0.3299130898
0.3299079325
0.3299033675
0.3298993811
0.3298959372
0.3298929956
0.3298905499
0.3298887821
0.3299455248
0.3299352174
0.3299240346
0.3299134233
0.3299041735
0.3298965559
0.3298905273
0.3298858941
0.3298824141
0.3298798511
0.329877998
0.3298766844
0.3298757752
0.3298751678
0.3298748064
0.3299136727
0.3298844558
0.3298605821
0.3298441771
0.3298345441
0.3298300668
0.3298291266
0.3298304225
0.3298330146
0.3298362678
0.3298397725
0.3298432738
0.3298466089
0.3298496223
0.3298519273
0.3297371339
0.3297072635
0.3297025156
0.3297113283
0.3297261579
0.3297427603
0.3297589929
0.3297739062
0.3297871781
0.3297987923
0.3298088625
0.3298175245
0.329824797
0.3298301045
0.3294485273
0.3294866796
0.3295448982
0.3296005923
0.329647851
0.3296863643
0.3297174072
0.3297424671
0.3297628361
0.3297795362
0.3297933425
0.3298048089
0.3298141957
0.3298209368
0.3297371363
0.3297072652
0.329702517
0.3297113296
0.329726159
0.3297427613
0.3297589938
0.329773907
0.3297871788
0.329798793
0.3298088631
0.3298175251
0.3298247976
0.329830105
0.3298844561
0.3298605826
0.3298441779
0.3298345449
0.3298300678
0.3298291276
0.3298304234
0.3298330156
0.3298362688
0.3298397734
0.3298432747
0.3298466098
0.3298496232
0.3298519281
0.3299352174
0.3299240346
0.3299134235
0.3299041739
0.3298965563
0.3298905278
0.3298858947
0.3298824148
0.3298798518
0.3298779988
0.3298766853
0.329875776
0.3298751687
0.3298748073
0.329949754
0.3299443231
0.3299380987
0.3299315378
0.3299250194
0.3299188141
0.3299130902
0.329907933
0.3299033681
0.3298993817
0.3298959379
0.3298929964
0.3298905507
0.329888783
0.3299523939
0.3299470792
0.3299405916
0.3299335259
0.3299263806
0.3299195149
0.3299131568
0.329907429
0.3299023776
0.3298979963
0.329894247
0.3298910743
0.3298884214
0.3298862614
0.3298847265
0.3299384334
0.3299242354
0.3299107988
0.3298994395
0.3298904474
0.3298836357
0.32987865
0.3298751159
0.3298726987
0.3298711215
0.3298701642
0.3298696562
0.329869465
0.3298694809
0.329869586
0.3298704084
0.329828199
0.3298045268
0.3297944515
0.329792777
0.3297958038
0.3298012089
0.3298076194
0.3298142563
0.3298206968
0.3298267255
0.3298322436
0.3298372029
0.3298415127
0.3298447324
0.3294994013
0.3294485287
0.3294866807
0.329544899
0.3296005929
0.3296478515
0.3296863647
0.3297174075
0.3297424673
0.3297628364
0.3297795365
0.3297933427
0.329804809
0.3298141958
0.3298209369
0.3282063935
0.3288399669
0.3291902336
0.3293950608
0.3295218333
0.3296047233
0.3296617326
0.3297027284
0.3297333438
0.3297569282
0.3297755482
0.3297904943
0.3298024325
0.3298108744
0.329448527
0.329486682
0.3295449007
0.3296005945
0.3296478529
0.329686366
0.3297174086
0.3297424683
0.3297628372
0.3297795372
0.3297933434
0.3298048097
0.3298141964
0.3298209375
0.329828199
0.3298045273
0.3297944524
0.3297927781
0.329795805
0.3298012101
0.3298076205
0.3298142574
0.3298206979
0.3298267265
0.3298322445
0.3298372038
0.3298415136
0.3298447333
0.3299242353
0.3299107989
0.3298994398
0.3298904479
0.3298836363
0.3298786508
0.3298751167
0.3298726996
0.3298711224
0.3298701652
0.3298696572
0.329869466
0.3298694819
0.329869587
0.3299470791
0.3299405916
0.3299335259
0.3299263808
0.3299195152
0.3299131572
0.3299074296
0.3299023782
0.3298979971
0.3298942478
0.3298910751
0.3298884223
0.3298862624
0.3298847275
0.3299539506
0.3299497541
0.3299443232
0.3299380988
0.3299315379
0.3299250193
0.329918814
0.32991309
0.3299079328
0.3299033678
0.3298993813
0.3298959375
0.3298929959
0.3298905502
0.3298887824
0.3299455249
0.3299352176
0.3299240349
0.3299134236
0.3299041739
0.3298965563
0.3298905277
0.3298858945
0.3298824145
0.3298798515
0.3298779984
0.3298766849
0.3298757756
0.3298751682
0.3298748068
0.3299136736
0.3298844567
0.3298605831
0.3298441782
0.3298345451
0.3298300678
0.3298291275
0.3298304233
0.3298330154
0.3298362685
0.3298397731
0.3298432745
0.3298466096
0.3298496229
0.3298519278
0.3298045937
0.3297371379
0.3297072668
0.3297025182
0.3297113305
0.3297261597
0.3297427619
0.3297589943
0.3297739074
0.3297871791
0.3297987932
0.3298088634
0.3298175253
0.3298247978
0.3298301052
0.3294994017
0.3294485294
0.3294866836
0.3295449018
0.3296005952
0.3296478534
0.3296863663
0.3297174088
0.3297424685
0.3297628374
0.3297795373
0.3297933435
0.3298048098
0.3298141965
0.3298209376
0.3298045933
0.3297371383
0.3297072676
0.3297025192
0.3297113315
0.3297261607
0.3297427628
0.3297589952
0.3297739082
0.3297871799
0.3297987939
0.329808864
0.3298175259
0.3298247983
0.3298301057
0.3298844555
0.3298605828
0.3298441784
0.3298345457
0.3298300685
0.3298291284
0.3298304242
0.3298330164
0.3298362695
0.3298397741
0.3298432754
0.3298466105
0.3298496238
0.3298519287
0.3299352172
0.3299240346
0.3299134236
0.3299041741
0.3298965567
0.3298905282
0.3298858951
0.3298824153
0.3298798523
0.3298779993
0.3298766857
0.3298757765
0.3298751692
0.3298748078
0.3299497539
0.3299443231
0.3299380988
0.329931538
0.3299250195
0.3299188144
0.3299130905
0.3299079333
0.3299033684
0.3298993821
0.3298959383
0.3298929967
0.3298905511
0.3298887833
0.3299560294
0.3299535075
0.3299500058
0.3299456802
0.3299407766
0.3299355594
0.3299302652
0.3299250803
0.3299201368
0.3299155179
0.3299112682
0.329907406
0.3299039419
0.3299009305
0.3298986783
0.3299523336
0.3299468816
0.329940142
0.3299328302
0.3299255655
0.3299187697
0.3299126705
0.3299073486
0.3299027901
0.3298989297
0.3298956804
0.3298929529
0.3298906703
0.3298887963
0.3298874497
0.3299410411
0.3299274957
0.3299133187
0.3299005126
0.3298900396
0.3298820887
0.3298764197
0.329872619
0.3298702506
0.3298689273
0.3298683355
0.3298682344
0.3298684435
0.3298688181
0.3298691914
0.3299136737
0.329884457
0.3298605836
0.3298441788
0.3298345457
0.3298300685
0.3298291282
0.329830424
0.3298330161
0.3298362692
0.3298397738
0.3298432751
0.3298466101
0.3298496235
0.3298519283
0.3298704091
0.3298282005
0.3298045287
0.3297944536
0.329792779
0.3297958057
0.3298012107
0.329807621
0.3298142578
0.3298206982
0.3298267268
0.3298322448
0.329837204
0.3298415138
0.3298447335
0.3299136737
0.3298844571
0.3298605838
0.3298441791
0.3298345462
0.3298300689
0.3298291287
0.3298304245
0.3298330166
0.3298362697
0.3298397742
0.3298432755
0.3298466106
0.3298496239
0.3298519288
0.3299410408
0.3299274955
0.3299133187
0.3299005127
0.3298900399
0.3298820892
0.3298764202
0.3298726196
0.3298702513
0.329868928
0.3298683362
0.3298682351
0.3298684442
0.3298688188
0.3298691922
0.3299468813
0.3299401419
0.3299328302
0.3299255656
0.3299187699
0.3299126709
0.3299073491
0.3299027907
0.3298989303
0.329895681
0.3298929536
0.3298906711
0.3298887971
0.3298874505
0.3299535074
0.3299500057
0.3299456801
0.3299407765
0.3299355595
0.3299302654
0.3299250806
0.3299201372
0.3299155184
0.3299112687
0.3299074066
0.3299039426
0.3299009312
0.3298986791
0.3299574159
0.3299560734
0.3299540881
0.3299514484
0.3299482172
0.3299445073
0.3299404542
0.3299361952
0.3299318547
0.329927537
0.329923325
0.3299192839
0.3299154765
0.3299120239
0.3299093621
0.3299559941
0.3299534564
0.329949979
0.3299457457
0.3299410125
0.3299360351
0.329931028
0.3299261501
0.3299215069
0.3299171602
0.3299131401
0.3299094568
0.3299061193
0.3299031861
0.3299009724
0.3299523336
0.3299468816
0.3299401421
0.3299328303
0.3299255656
0.3299187698
0.3299126707
0.3299073489
0.3299027904
0.3298989299
0.3298956806
0.3298929532
0.3298906706
0.3298887966
0.32988745
0.329945525
0.3299352177
0.3299240351
0.3299134239
0.3299041743
0.3298965568
0.3298905283
0.3298858951
0.3298824152
0.3298798522
0.3298779991
0.3298766856
0.3298757763
0.329875169
0.3298748076
0.3299384336
0.3299242358
0.3299107995
0.3298994404
0.3298904485
0.3298836368
0.3298786512
0.3298751171
0.3298727
0.3298711228
0.3298701655
0.3298696575
0.3298694662
0.3298694821
0.3298695873
0.329945525
0.3299352178
0.3299240352
0.3299134241
0.3299041745
0.329896557
0.3298905285
0.3298858954
0.3298824155
0.3298798525
0.3298779994
0.3298766859
0.3298757766
0.3298751693
0.3298748079
0.3299523336
0.3299468816
0.3299401421
0.3299328304
0.3299255658
0.3299187701
0.329912671
0.3299073492
0.3299027908
0.3298989304
0.3298956811
0.3298929536
0.3298906711
0.3298887971
0.3298874506
0.329955994
0.3299534563
0.329949979
0.3299457457
0.3299410125
0.3299360352
0.3299310281
0.3299261503
0.3299215072
0.3299171606
0.3299131405
0.3299094572
0.3299061198
0.3299031866
0.329900973
0.3299560733
0.329954088
0.3299514483
0.3299482172
0.3299445073
0.3299404543
0.3299361954
0.3299318549
0.3299275373
0.3299233253
0.3299192843
0.329915477
0.3299120245
0.3299093628
0.329958036
0.3299572364
0.3299559952
0.3299542451
0.3299519658
0.3299491828
0.3299459589
0.3299423808
0.3299385468
0.3299345561
0.3299305015
0.3299264688
0.3299225487
0.3299189017
0.3299160398
0.3299574159
0.3299560734
0.3299540881
0.3299514484
0.3299482173
0.3299445073
0.3299404543
0.3299361953
0.3299318548
0.3299275371
0.3299233251
0.329919284
0.3299154767
0.3299120241
0.3299093623
0.3299560294
0.3299535075
0.3299500058
0.3299456803
0.3299407766
0.3299355595
0.3299302654
0.3299250805
0.3299201371
0.3299155182
0.3299112685
0.3299074063
0.3299039423
0.3299009309
0.3298986788
0.3299539506
0.3299497541
0.3299443233
0.329938099
0.3299315381
0.3299250197
0.3299188144
0.3299130905
0.3299079333
0.3299033684
0.329899382
0.3298959382
0.3298929966
0.329890551
0.3298887832
0.3299523939
0.3299470793
0.3299405918
0.3299335262
0.329926381
0.3299195155
0.3299131575
0.3299074298
0.3299023785
0.3298979973
0.329894248
0.3298910754
0.3298884225
0.3298862626
0.3298847277
0.3299539506
0.3299497541
0.3299443233
0.329938099
0.3299315382
0.3299250197
0.3299188145
0.3299130906
0.3299079334
0.3299033685
0.3298993822
0.3298959384
0.3298929969
0.3298905512
0.3298887835
0.3299560294
0.3299535075
0.3299500058
0.3299456803
0.3299407767
0.3299355596
0.3299302655
0.3299250807
0.3299201373
0.3299155184
0.3299112688
0.3299074066
0.3299039427
0.3299009313
0.3298986792
0.3299574159
0.3299560733
0.3299540881
0.3299514484
0.3299482173
0.3299445073
0.3299404544
0.3299361955
0.329931855
0.3299275373
0.3299233254
0.3299192844
0.3299154771
0.3299120245
0.3299093628
0.329958036
0.3299572364
0.3299559952
0.3299542451
0.3299519658
0.3299491828
0.3299459589
0.3299423809
0.329938547
0.3299345563
0.3299305018
0.3299264691
0.3299225491
0.3299189022
0.3299160403
)
;

boundaryField
{
    top
    {
        type            calculated;
        value           nonuniform List<scalar> 
127
(
0.329958036
0.3299572364
0.3299560733
0.3299535074
0.329949754
0.3299470791
0.3299497539
0.3299535074
0.3299560733
0.3299572364
0.3299559951
0.329954088
0.3299500057
0.3299443231
0.3299405916
0.3299443231
0.3299500057
0.329954088
0.3299559952
0.3299542451
0.3299514483
0.3299456801
0.3299380987
0.3299335259
0.3299380988
0.3299456801
0.3299514483
0.3299542451
0.3299519657
0.3299482171
0.3299407765
0.3299315378
0.3299263808
0.329931538
0.3299407765
0.3299482172
0.3299519658
0.3299491827
0.3299445071
0.3299355593
0.3299250194
0.3299195152
0.3299250195
0.3299355595
0.3299445073
0.3299491828
0.3299459587
0.3299404541
0.3299302651
0.3299188141
0.3299131572
0.3299188144
0.3299302654
0.3299404543
0.3299459589
0.3299423806
0.3299361951
0.3299250803
0.3299130902
0.3299074296
0.3299130905
0.3299250806
0.3299361954
0.3299423809
0.3299385466
0.3299318545
0.3299201368
0.329907933
0.3299023782
0.3299079333
0.3299201372
0.3299318549
0.329938547
0.3299345559
0.3299275368
0.3299155179
0.3299033681
0.3298979971
0.3299033684
0.3299155184
0.3299275373
0.3299345563
0.3299305013
0.3299233248
0.3299112682
0.3298993817
0.3298942478
0.3298993821
0.3299112687
0.3299233253
0.3299305018
0.3299264685
0.3299192837
0.329907406
0.3298959379
0.3298910751
0.3298959383
0.3299074066
0.3299192843
0.3299264691
0.3299225484
0.3299154764
0.329903942
0.3298929964
0.3298884223
0.3298929967
0.3299039426
0.329915477
0.3299225491
0.3299189014
0.3299120238
0.3299009306
0.3298905507
0.3298862624
0.3298905511
0.3299009312
0.3299120245
0.3299189022
0.3299160395
0.329909362
0.3298986785
0.329888783
0.3298847275
0.3298887833
0.3298986791
0.3299093628
0.3299160403
)
;
    }
    bottom
    {
        type            calculated;
        value           nonuniform List<scalar> 
134
(
0.3299574159
0.3299560294
0.3299539505
0.3299523939
0.3299539506
0.3299560294
0.3299574159
0.329958036
0.3299572364
0.3299560733
0.3299535074
0.329949754
0.3299470792
0.3299497541
0.3299535075
0.3299560734
0.3299572364
0.3299559951
0.329954088
0.3299500057
0.3299443231
0.3299405916
0.3299443232
0.3299500058
0.3299540881
0.3299559952
0.329954245
0.3299514483
0.3299456801
0.3299380987
0.3299335259
0.3299380988
0.3299456802
0.3299514484
0.3299542451
0.3299519656
0.3299482171
0.3299407764
0.3299315377
0.3299263806
0.3299315379
0.3299407766
0.3299482172
0.3299519658
0.3299491826
0.329944507
0.3299355592
0.3299250192
0.3299195149
0.3299250193
0.3299355594
0.3299445073
0.3299491828
0.3299459586
0.329940454
0.3299302649
0.3299188138
0.3299131568
0.329918814
0.3299302652
0.3299404542
0.3299459589
0.3299423805
0.3299361949
0.32992508
0.3299130898
0.329907429
0.32991309
0.3299250803
0.3299361952
0.3299423808
0.3299385465
0.3299318543
0.3299201365
0.3299079325
0.3299023776
0.3299079328
0.3299201368
0.3299318547
0.3299385468
0.3299345556
0.3299275365
0.3299155175
0.3299033675
0.3298979963
0.3299033678
0.3299155179
0.329927537
0.3299345561
0.329930501
0.3299233245
0.3299112677
0.3298993811
0.329894247
0.3298993813
0.3299112682
0.329923325
0.3299305015
0.3299264682
0.3299192833
0.3299074055
0.3298959372
0.3298910743
0.3298959375
0.329907406
0.3299192839
0.3299264688
0.3299225481
0.3299154759
0.3299039414
0.3298929956
0.3298884214
0.3298929959
0.3299039419
0.3299154765
0.3299225487
0.329918901
0.3299120233
0.32990093
0.3298905499
0.3298862614
0.3298905502
0.3299009305
0.3299120239
0.3299189017
0.3299160391
0.3299093615
0.3298986778
0.3298887821
0.3298847265
0.3298887824
0.3298986783
0.3299093621
0.3299160398
)
;
    }
    side-walls
    {
        type            calculated;
        value           nonuniform List<scalar> 
261
(
0.3299572364
0.3299560733
0.3299535074
0.3299497539
0.3299470791
0.329949754
0.3299535074
0.3299560733
0.3299572364
0.3299559951
0.3299540879
0.3299500056
0.3299443229
0.3299405914
0.329944323
0.3299500057
0.329954088
0.3299559951
0.329954245
0.3299514482
0.32994568
0.3299380985
0.3299335256
0.3299380986
0.3299456801
0.3299514483
0.3299542451
0.3299519656
0.329948217
0.3299407763
0.3299315375
0.3299263803
0.3299315377
0.3299407764
0.3299482171
0.3299519657
0.3299491826
0.329944507
0.329935559
0.3299250189
0.3299195146
0.3299250191
0.3299355592
0.3299445071
0.3299491827
0.3299459586
0.3299404539
0.3299302648
0.3299188136
0.3299131565
0.3299188138
0.329930265
0.3299404541
0.3299459587
0.3299423805
0.3299361949
0.3299250799
0.3299130896
0.3299074287
0.3299130898
0.3299250801
0.3299361951
0.3299423806
0.3299385465
0.3299318543
0.3299201363
0.3299079322
0.3299023773
0.3299079325
0.3299201366
0.3299318545
0.3299385466
0.3299345556
0.3299275365
0.3299155174
0.3299033672
0.329897996
0.3299033675
0.3299155176
0.3299275367
0.3299345559
0.329930501
0.3299233245
0.3299112676
0.3298993808
0.3298942467
0.329899381
0.3299112679
0.3299233247
0.3299305013
0.3299264682
0.3299192833
0.3299074054
0.329895937
0.329891074
0.3298959372
0.3299074057
0.3299192836
0.3299264685
0.3299225481
0.3299154759
0.3299039413
0.3298929953
0.3298884211
0.3298929956
0.3299039416
0.3299154763
0.3299225484
0.329918901
0.3299120232
0.3299009298
0.3298905497
0.3298862611
0.3298905499
0.3299009302
0.3299120236
0.3299189014
0.3299160391
0.3299093614
0.3298986776
0.3298887818
0.3298847262
0.3298887821
0.329898678
0.3299093619
0.3299160395
0.329958036
0.3299574159
0.3299560294
0.3299539506
0.3299523939
0.3299539506
0.3299560294
0.3299574159
0.329958036
0.3299572364
0.3299560734
0.3299535075
0.3299497541
0.3299470793
0.3299497541
0.3299535075
0.3299560733
0.3299572364
0.3299559952
0.3299540881
0.3299500058
0.3299443233
0.3299405918
0.3299443233
0.3299500058
0.3299540881
0.3299559952
0.3299542451
0.3299514484
0.3299456803
0.329938099
0.3299335262
0.329938099
0.3299456803
0.3299514484
0.3299542451
0.3299519658
0.3299482173
0.3299407766
0.3299315381
0.329926381
0.3299315382
0.3299407767
0.3299482173
0.3299519658
0.3299491828
0.3299445073
0.3299355595
0.3299250197
0.3299195155
0.3299250197
0.3299355596
0.3299445073
0.3299491828
0.3299459589
0.3299404543
0.3299302654
0.3299188144
0.3299131575
0.3299188145
0.3299302655
0.3299404544
0.3299459589
0.3299423808
0.3299361953
0.3299250805
0.3299130905
0.3299074298
0.3299130906
0.3299250807
0.3299361955
0.3299423809
0.3299385468
0.3299318548
0.3299201371
0.3299079333
0.3299023785
0.3299079334
0.3299201373
0.329931855
0.329938547
0.3299345561
0.3299275371
0.3299155182
0.3299033684
0.3298979973
0.3299033685
0.3299155184
0.3299275373
0.3299345563
0.3299305015
0.3299233251
0.3299112685
0.329899382
0.329894248
0.3298993822
0.3299112688
0.3299233254
0.3299305018
0.3299264688
0.329919284
0.3299074063
0.3298959382
0.3298910754
0.3298959384
0.3299074066
0.3299192844
0.3299264691
0.3299225487
0.3299154767
0.3299039423
0.3298929966
0.3298884225
0.3298929969
0.3299039427
0.3299154771
0.3299225491
0.3299189017
0.3299120241
0.3299009309
0.329890551
0.3298862626
0.3298905512
0.3299009313
0.3299120245
0.3299189022
0.3299160398
0.3299093623
0.3298986788
0.3298887832
0.3298847277
0.3298887835
0.3298986792
0.3299093628
0.3299160403
)
;
    }
    inlet
    {
        type            calculated;
        value           nonuniform 0();
    }
    outlet
    {
        type            calculated;
        value           nonuniform List<scalar> 
81
(
0.3299160391
0.3299093614
0.3298986776
0.3298887818
0.3298847262
0.3298887821
0.329898678
0.3299093619
0.3299160395
0.3299093615
0.3299009716
0.329887449
0.3298748063
0.3298695858
0.3298748066
0.3298874495
0.3299009721
0.329909362
0.3298986778
0.3298874491
0.3298691905
0.3298519272
0.3298447323
0.3298519276
0.3298691912
0.3298874498
0.3298986785
0.3298887821
0.3298748064
0.3298519273
0.3298301045
0.3298209368
0.329830105
0.3298519281
0.3298748073
0.329888783
0.3298847265
0.329869586
0.3298447324
0.3298209369
0.3298108744
0.3298209375
0.3298447333
0.329869587
0.3298847275
0.3298887824
0.3298748068
0.3298519278
0.3298301052
0.3298209376
0.3298301057
0.3298519287
0.3298748078
0.3298887833
0.3298986783
0.3298874497
0.3298691914
0.3298519283
0.3298447335
0.3298519288
0.3298691922
0.3298874505
0.3298986791
0.3299093621
0.3299009724
0.32988745
0.3298748076
0.3298695873
0.3298748079
0.3298874506
0.329900973
0.3299093628
0.3299160398
0.3299093623
0.3298986788
0.3298887832
0.3298847277
0.3298887835
0.3298986792
0.3299093628
0.3299160403
)
;
    }
    procBoundary1to0
    {
        type            processor;
        value           nonuniform List<scalar> 
97
(
0.329958036
0.329958036
0.3299574159
0.3299560294
0.3299539506
0.329952394
0.3299539506
0.3299560295
0.3299574159
0.329958036
0.329958211
0.329955994
0.329955994
0.329955994
0.3299523336
0.329945525
0.3299384338
0.3299455251
0.3299523337
0.3299559941
0.3299574159
0.329957582
0.3299559578
0.3299410408
0.3299410408
0.3299410408
0.3299136738
0.3298704103
0.3299136745
0.3299410415
0.3299523337
0.3299560295
0.3299566619
0.3299530987
0.3299406579
0.3298045915
0.3298045915
0.3298045915
0.3294994112
0.3298045961
0.3299136744
0.3299455251
0.3299539506
0.3299560062
0.3299504067
0.3299268713
0.3298338996
0.3269945717
0.3269945717
0.3269945717
0.3294994099
0.3294994099
0.3298704102
0.3299384338
0.329952394
0.3299566619
0.3299530987
0.3299406579
0.3299045637
0.3298338992
0.3299045639
0.329913673
0.329913673
0.329913673
0.3299455249
0.3299539506
0.329957582
0.3299559578
0.329951206
0.3299406579
0.3299268715
0.3299406579
0.329951206
0.3299523335
0.3299523335
0.3299523335
0.3299560294
0.329958211
0.3299575694
0.3299559578
0.3299530987
0.3299504067
0.3299530987
0.3299559578
0.3299575694
0.3299574159
0.3299574159
0.3299574159
0.3299584961
0.329958211
0.329957582
0.3299566619
0.3299560062
0.3299566619
0.329957582
0.329958211
0.3299584961
)
;
    }
}


// ************************************************************************* //
