/*--------------------------------*- C++ -*----------------------------------*\
| =========                 |                                                 |
| \\      /  F ield         | OpenFOAM: The Open Source CFD Toolbox           |
|  \\    /   O peration     | Version:  4.x                                   |
|   \\  /    A nd           | Web:      www.OpenFOAM.org                      |
|    \\/     M anipulation  |                                                 |
\*---------------------------------------------------------------------------*/
FoamFile
{
    version     2.0;
    format      ascii;
    class       volScalarField;
    location    "7000";
    object      X_H2O;
}
// * * * * * * * * * * * * * * * * * * * * * * * * * * * * * * * * * * * * * //

dimensions      [0 0 0 0 0 0 0];

internalField   nonuniform List<scalar> 
1174
(
2.286492097e-06
2.836398057e-06
3.611670976e-06
4.621329004e-06
5.853962718e-06
7.281764858e-06
8.866212651e-06
1.056376073e-05
1.233049747e-05
1.412520977e-05
1.590997116e-05
1.764457695e-05
1.925808448e-05
2.052408768e-05
2.801964775e-06
3.681587253e-06
4.851037452e-06
6.282408894e-06
7.925702995e-06
9.720732377e-06
1.16067177e-05
1.352854307e-05
1.543993655e-05
1.730418528e-05
1.90924479e-05
2.077693043e-05
2.230414239e-05
2.348133879e-05
3.939185266e-06
5.490788044e-06
7.407280426e-06
9.579647141e-06
1.189060203e-05
1.423533396e-05
1.653124701e-05
1.871987302e-05
2.076435333e-05
2.264495392e-05
2.435361248e-05
2.588566555e-05
2.721713284e-05
2.821264733e-05
5.602813326e-06
8.009373671e-06
1.076722322e-05
1.367382244e-05
1.656119458e-05
1.930932255e-05
2.184376553e-05
2.412672346e-05
2.614691301e-05
2.791047881e-05
2.943341712e-05
3.073370789e-05
3.18142515e-05
3.259497257e-05
6.788430216e-06
9.663267805e-06
1.279392192e-05
1.595934461e-05
1.900037743e-05
2.18160296e-05
2.435193705e-05
2.658780468e-05
2.852639035e-05
3.018474604e-05
3.158739478e-05
3.275962125e-05
3.371346226e-05
3.439092249e-05
5.602769683e-06
8.009310859e-06
1.076713825e-05
1.367371168e-05
1.65610559e-05
1.930915286e-05
2.184356076e-05
2.412649314e-05
2.614665419e-05
2.791019e-05
2.943310174e-05
3.073336491e-05
3.181389035e-05
3.259460031e-05
3.939138672e-06
5.490726848e-06
7.407200133e-06
9.579537062e-06
1.189045446e-05
1.423513856e-05
1.653100168e-05
1.871957099e-05
2.076399343e-05
2.264454211e-05
2.435314635e-05
2.588514977e-05
2.721656932e-05
2.821204343e-05
2.801924113e-06
3.681539872e-06
4.850979047e-06
6.28232816e-06
7.925588986e-06
9.72057481e-06
1.160650604e-05
1.352827051e-05
1.543959706e-05
1.730377122e-05
1.909196002e-05
2.077637105e-05
2.230351109e-05
2.348064138e-05
2.286464058e-06
2.836371238e-06
3.611638871e-06
4.621282912e-06
5.853891607e-06
7.281654957e-06
8.866053111e-06
1.05635403e-05
1.233020622e-05
1.412483866e-05
1.59095143e-05
1.764402929e-05
1.925744453e-05
2.05233499e-05
2.207037504e-06
2.801929825e-06
3.681551966e-06
4.8510014e-06
6.282370506e-06
7.925662578e-06
9.720690995e-06
1.160667546e-05
1.352849887e-05
1.543989402e-05
1.730414159e-05
1.90924051e-05
2.07768898e-05
2.230410176e-05
2.348129855e-05
3.961926759e-06
5.502734168e-06
7.37834094e-06
9.475216685e-06
1.167997357e-05
1.389754801e-05
1.605751885e-05
1.811314507e-05
2.00370651e-05
2.18160488e-05
2.344551776e-05
2.49215612e-05
2.621846981e-05
2.719697635e-05
6.876222806e-06
9.862742486e-06
1.310248467e-05
1.632089042e-05
1.933104557e-05
2.203202483e-05
2.438817386e-05
2.640571162e-05
2.811366196e-05
2.955058317e-05
3.075609652e-05
3.176435746e-05
3.259164292e-05
3.318572222e-05
1.204649282e-05
1.700219388e-05
2.170390587e-05
2.580152931e-05
2.917525069e-05
3.1844281e-05
3.389456356e-05
3.543350955e-05
3.656596452e-05
3.73836792e-05
3.79622478e-05
3.836166556e-05
3.862741268e-05
3.878479434e-05
1.691470708e-05
2.286920001e-05
2.790215915e-05
3.188516943e-05
3.490128357e-05
3.710771073e-05
3.867053759e-05
3.97381978e-05
4.043353189e-05
4.085406713e-05
4.10755101e-05
4.115659921e-05
4.114609908e-05
4.109666403e-05
1.204637739e-05
1.700205452e-05
2.170373829e-05
2.580132149e-05
2.917500222e-05
3.184398966e-05
3.389423226e-05
3.543313961e-05
3.656557372e-05
3.738326523e-05
3.796181128e-05
3.836120617e-05
3.862694418e-05
3.878431083e-05
6.876094849e-06
9.862609835e-06
1.310232678e-05
1.632068862e-05
1.933078082e-05
2.203168923e-05
2.438776657e-05
2.640523655e-05
2.811312226e-05
2.954998606e-05
3.075544789e-05
3.17636584e-05
3.259090678e-05
3.318494797e-05
3.961840046e-06
5.502656369e-06
7.378246749e-06
9.475085037e-06
1.167978397e-05
1.389728748e-05
1.605717953e-05
1.811272058e-05
2.003655355e-05
2.181545701e-05
2.34448431e-05
2.492081167e-05
2.621764579e-05
2.719608523e-05
2.801928285e-06
3.681541443e-06
4.850973434e-06
6.282310621e-06
7.925554926e-06
9.720518781e-06
1.160642587e-05
1.352816233e-05
1.543945928e-05
1.730360558e-05
1.909176662e-05
2.077614744e-05
2.230325688e-05
2.348035149e-05
2.821530902e-06
3.939096494e-06
5.490689846e-06
7.407174965e-06
9.579533499e-06
1.189048291e-05
1.423521141e-05
1.653112342e-05
1.871974791e-05
2.076422713e-05
2.26448321e-05
2.435349111e-05
2.588554934e-05
2.721701949e-05
2.821253424e-05
4.459866258e-06
6.876098036e-06
9.862625662e-06
1.310236895e-05
1.632077632e-05
1.933093167e-05
2.203191441e-05
2.438806751e-05
2.640561013e-05
2.811356557e-05
2.955049052e-05
3.075600742e-05
3.176427771e-05
3.25915684e-05
3.318564929e-05
1.546974278e-05
2.175231451e-05
2.742654431e-05
3.206600074e-05
3.55870418e-05
3.809636851e-05
3.977736719e-05
4.082344589e-05
4.140626112e-05
4.166489436e-05
4.170605788e-05
4.160981397e-05
4.14403667e-05
4.127215093e-05
3.454909714e-05
4.512892514e-05
5.239695651e-05
5.666255017e-05
5.864247538e-05
5.90545315e-05
5.847558477e-05
5.732221515e-05
5.587610065e-05
5.431872519e-05
5.276299881e-05
5.12811664e-05
4.994219868e-05
4.891790187e-05
5.948874629e-05
6.997821023e-05
7.4439124e-05
7.517572027e-05
7.382841949e-05
7.142717439e-05
6.858068359e-05
6.563418386e-05
6.277513084e-05
6.009892155e-05
5.764929488e-05
5.544757178e-05
5.353404469e-05
5.210430877e-05
3.454849475e-05
4.512834477e-05
5.239635717e-05
5.666191768e-05
5.864180307e-05
5.905382437e-05
5.847485634e-05
5.732148735e-05
5.587536876e-05
5.431799785e-05
5.276228387e-05
5.128047089e-05
4.994151289e-05
4.891721857e-05
1.546930347e-05
2.175194712e-05
2.742612789e-05
3.206548666e-05
3.55864069e-05
3.809562522e-05
3.977652818e-05
4.082253603e-05
4.140529497e-05
4.166389042e-05
4.170502599e-05
4.160875675e-05
4.143929826e-05
4.127106602e-05
6.876091916e-06
9.862577417e-06
1.310224711e-05
1.632055508e-05
1.933058947e-05
2.203144485e-05
2.438747233e-05
2.640489748e-05
2.811274503e-05
2.954957585e-05
3.075500985e-05
3.176320026e-05
3.259042816e-05
3.318445389e-05
3.93914737e-06
5.490717221e-06
7.407155019e-06
9.579440212e-06
1.189029425e-05
1.423491086e-05
1.653069703e-05
1.871918945e-05
2.076354102e-05
2.264401706e-05
2.435255687e-05
2.58845008e-05
2.721586411e-05
2.821127501e-05
3.7429644e-06
5.602656349e-06
8.009189669e-06
1.076701774e-05
1.367360051e-05
1.656096128e-05
1.930908209e-05
2.184352165e-05
2.412648311e-05
2.614668033e-05
2.791025415e-05
2.943319593e-05
3.073349055e-05
3.181404639e-05
3.259477853e-05
7.477972555e-06
1.204623347e-05
1.700193073e-05
2.170365098e-05
2.580127456e-05
2.917500333e-05
3.184404696e-05
3.38943387e-05
3.543329489e-05
3.656575988e-05
3.738349142e-05
3.79620683e-05
3.836149192e-05
3.862724844e-05
3.878463589e-05
2.159881183e-05
3.45486047e-05
4.512854395e-05
5.239664797e-05
5.666228776e-05
5.864224757e-05
5.905433155e-05
5.847540045e-05
5.732206756e-05
5.587596019e-05
5.431859312e-05
5.276287738e-05
5.128105796e-05
4.994209721e-05
4.891781467e-05
9.986089819e-05
0.0001130949253
0.0001151915812
0.0001112771432
0.0001046962945
9.733045109e-05
9.012938569e-05
8.351390188e-05
7.76266153e-05
7.247458865e-05
6.800732673e-05
6.416457087e-05
6.093803195e-05
5.858313356e-05
0.0002278133298
0.0002108851031
0.0001850632581
0.0001603631764
0.0001394048991
0.0001223253039
0.0001085587275
9.744536876e-05
8.841213686e-05
8.100583993e-05
7.488270388e-05
6.979707051e-05
6.563355319e-05
6.264330291e-05
9.985874131e-05
0.0001130933745
0.0001151901214
0.0001112756925
0.000104694854
9.732906754e-05
9.0128062e-05
8.351265202e-05
7.762543733e-05
7.247348834e-05
6.800629164e-05
6.416359913e-05
6.093710828e-05
5.858223968e-05
3.454855693e-05
4.512815052e-05
5.239590565e-05
5.666127115e-05
5.864101604e-05
5.90529631e-05
5.847394757e-05
5.732055718e-05
5.587444662e-05
5.431709202e-05
5.276140196e-05
5.12796022e-05
4.994066364e-05
4.891638425e-05
1.204639651e-05
1.700194008e-05
2.170344894e-05
2.580084561e-05
2.917435661e-05
3.18432045e-05
3.389332707e-05
3.543214473e-05
3.656450862e-05
3.738214666e-05
3.796065822e-05
3.836002901e-05
3.862574228e-05
3.878308593e-05
5.602793292e-06
8.009279143e-06
1.07670103e-05
1.367345651e-05
1.656065613e-05
1.930860415e-05
2.1842861e-05
2.412565354e-05
2.614569258e-05
2.790911845e-05
2.943192998e-05
3.073210596e-05
3.181255628e-05
3.259317748e-05
4.43297547e-06
6.788250295e-06
9.66304819e-06
1.279367113e-05
1.595906918e-05
1.900008276e-05
2.181572311e-05
2.435162795e-05
2.658749623e-05
2.852608485e-05
3.018444841e-05
3.158710347e-05
3.275933943e-05
3.371318651e-05
3.439065406e-05
1.062160509e-05
1.691436223e-05
2.286881747e-05
2.790175963e-05
3.188477658e-05
3.490090407e-05
3.710734796e-05
3.867019195e-05
3.973786705e-05
4.043321701e-05
4.085377073e-05
4.107522891e-05
4.115634157e-05
4.11458441e-05
4.109641782e-05
4.077911505e-05
5.94880259e-05
6.997749685e-05
7.443846629e-05
7.517514042e-05
7.382791119e-05
7.142673301e-05
6.858030079e-05
6.563384588e-05
6.277483097e-05
6.009863704e-05
5.764903476e-05
5.544733088e-05
5.353382031e-05
5.210409943e-05
0.0002052705398
0.0002278110244
0.0002108836093
0.0001850621943
0.0001603624243
0.0001394043066
0.0001223248424
0.000108558372
9.74450891e-05
8.841189322e-05
8.100561496e-05
7.488250788e-05
6.979689564e-05
6.563340137e-05
6.264317251e-05
0.0007785392348
0.0004976022847
0.0003422920724
0.0002514721444
0.0001952621599
0.0001585095181
0.0001332320868
0.0001150547146
0.0001014797333
9.102210844e-05
8.276551746e-05
7.613773488e-05
7.084358939e-05
6.709965102e-05
0.0002278136021
0.0002108828669
0.0001850603113
0.0001603602359
0.0001394022175
0.0001223229012
0.0001085566002
9.744345984e-05
8.841041627e-05
8.100427206e-05
7.488126834e-05
6.979575696e-05
6.563233695e-05
6.264214363e-05
5.948887267e-05
6.997727211e-05
7.443747141e-05
7.51736634e-05
7.382617213e-05
7.142486786e-05
6.857840399e-05
6.563194701e-05
6.277297616e-05
6.009683764e-05
5.764729771e-05
5.544564935e-05
5.353219744e-05
5.210249847e-05
1.691472795e-05
2.286887248e-05
2.790145887e-05
3.188414211e-05
3.489999168e-05
3.71062039e-05
3.866887395e-05
3.973641547e-05
4.043166734e-05
4.085214885e-05
4.107356141e-05
4.115463341e-05
4.114411384e-05
4.109465594e-05
6.788440071e-06
9.663155192e-06
1.279362903e-05
1.595883805e-05
1.899964394e-05
2.181506942e-05
2.435076867e-05
2.658644535e-05
2.852486205e-05
3.018307943e-05
3.158560451e-05
3.275772715e-05
3.371147481e-05
3.438883984e-05
3.742953274e-06
5.602616858e-06
8.009115935e-06
1.076690698e-05
1.367345031e-05
1.65607689e-05
1.93088488e-05
2.184324744e-05
2.412616832e-05
2.614632991e-05
2.790986844e-05
2.943278208e-05
3.0733052e-05
3.181358161e-05
3.259429378e-05
7.477867056e-06
1.204604198e-05
1.700166675e-05
2.17033209e-05
2.580088808e-05
2.91745689e-05
3.18435692e-05
3.389382262e-05
3.543274631e-05
3.656519037e-05
3.7382899e-05
3.796146506e-05
3.836087829e-05
3.862662803e-05
3.878400167e-05
2.159780675e-05
3.454765696e-05
4.512750489e-05
5.239556679e-05
5.666118592e-05
5.864114369e-05
5.905323576e-05
5.847433432e-05
5.732101662e-05
5.587494223e-05
5.431760503e-05
5.276192841e-05
5.128014159e-05
4.994120045e-05
4.89169272e-05
6.995705668e-05
9.985652392e-05
0.0001130915514
0.0001151886921
0.0001112745666
0.0001046939698
9.732834593e-05
9.012747427e-05
8.351217173e-05
7.762503674e-05
7.247313391e-05
6.800597771e-05
6.416331723e-05
6.093685604e-05
5.858200189e-05
0.0002052700535
0.000227810289
0.0002108807738
0.0001850589566
0.0001603593155
0.0001394015535
0.0001223224037
0.0001085562198
9.744317257e-05
8.841017639e-05
8.100407285e-05
7.488111026e-05
6.979561093e-05
6.563219835e-05
6.264201807e-05
6.995773735e-05
9.985639803e-05
0.0001130906878
0.0001151873478
0.0001112729981
0.0001046923513
9.73267638e-05
9.012597622e-05
8.351074501e-05
7.762369332e-05
7.24718883e-05
6.800481627e-05
6.416222661e-05
6.093582107e-05
5.858100607e-05
3.454911357e-05
4.512784345e-05
5.239509948e-05
5.666017368e-05
5.863978341e-05
5.905167832e-05
5.847265844e-05
5.731929528e-05
5.587321485e-05
5.431590909e-05
5.276025786e-05
5.127850905e-05
4.993960571e-05
4.891535374e-05
1.204658176e-05
1.700192086e-05
2.170323293e-05
2.580046669e-05
2.917384371e-05
3.184259263e-05
3.389265066e-05
3.543142184e-05
3.656374607e-05
3.738136948e-05
3.79598687e-05
3.835923779e-05
3.862494679e-05
3.878228035e-05
5.602843395e-06
8.009277581e-06
1.076693469e-05
1.367329547e-05
1.656040844e-05
1.93082736e-05
2.184246344e-05
2.41251884e-05
2.61451733e-05
2.790855652e-05
2.943133113e-05
3.073148027e-05
3.181190498e-05
3.259250759e-05
2.821507887e-06
3.939037658e-06
5.490590306e-06
7.407029155e-06
9.579333171e-06
1.189022141e-05
1.4234884e-05
1.653072737e-05
1.871928034e-05
2.076369418e-05
2.264423383e-05
2.435283335e-05
2.588482995e-05
2.721624832e-05
2.821172212e-05
4.459707396e-06
6.875889296e-06
9.862353348e-06
1.31020281e-05
1.632035836e-05
1.933043128e-05
2.203132833e-05
2.438740042e-05
2.640487017e-05
2.811275704e-05
2.95496265e-05
3.075509449e-05
3.176331455e-05
3.259057081e-05
3.318462051e-05
9.465482354e-06
1.546884711e-05
2.175143018e-05
2.74255837e-05
3.206493336e-05
3.558587675e-05
3.809511615e-05
3.977604625e-05
4.082207987e-05
4.140486199e-05
4.166348226e-05
4.170464057e-05
4.160838754e-05
4.143894541e-05
4.127073715e-05
2.159780688e-05
3.454745631e-05
4.512704992e-05
5.239488308e-05
5.666033821e-05
5.86401987e-05
5.905224692e-05
5.847331602e-05
5.732000318e-05
5.587394976e-05
5.431664518e-05
5.276099488e-05
5.127923374e-05
4.994033015e-05
4.891606489e-05
4.077886009e-05
5.948697523e-05
6.997566419e-05
7.44361611e-05
7.51726114e-05
7.382532196e-05
7.142418098e-05
6.857782633e-05
6.563146927e-05
6.277256676e-05
6.009648775e-05
5.764698788e-05
5.544538176e-05
5.353194411e-05
5.210227169e-05
2.159775272e-05
3.454725051e-05
4.512662364e-05
5.239425678e-05
5.665956236e-05
5.863930588e-05
5.905129481e-05
5.847235366e-05
5.731903448e-05
5.587300106e-05
5.431571328e-05
5.27600883e-05
5.127835914e-05
4.993947368e-05
4.891522565e-05
9.465817597e-06
1.54690955e-05
2.175142114e-05
2.742527852e-05
3.20643482e-05
3.558505427e-05
3.809411471e-05
3.977491719e-05
4.082086364e-05
4.140359439e-05
4.166217915e-05
4.170332077e-05
4.16070621e-05
4.14376249e-05
4.126939985e-05
6.876230098e-06
9.862522344e-06
1.31019979e-05
1.632011377e-05
1.932997645e-05
2.203067551e-05
2.438657298e-05
2.640389271e-05
2.811165592e-05
2.954842034e-05
3.075379576e-05
3.176194665e-05
3.258914049e-05
3.318313178e-05
3.939212423e-06
5.490726216e-06
7.407077201e-06
9.579257312e-06
1.188999427e-05
1.42344879e-05
1.653015681e-05
1.871853954e-05
2.076278623e-05
2.264317283e-05
2.435163456e-05
2.588350492e-05
2.721480403e-05
2.821016119e-05
2.206998629e-06
2.801866287e-06
3.681456856e-06
4.850868108e-06
6.282189152e-06
7.925421116e-06
9.720380079e-06
1.160628691e-05
1.352802949e-05
1.543933683e-05
1.730349766e-05
1.909167404e-05
2.07760733e-05
2.230320564e-05
2.348033261e-05
2.837198204e-06
3.961733566e-06
5.502511457e-06
7.378063882e-06
9.474868421e-06
1.167953724e-05
1.389701642e-05
1.605688807e-05
1.811241752e-05
2.003624046e-05
2.181513501e-05
2.344451425e-05
2.49204848e-05
2.621731822e-05
2.719576082e-05
4.45970606e-06
6.875867365e-06
9.862293794e-06
1.310191673e-05
1.63201903e-05
1.933020588e-05
2.203104938e-05
2.438707425e-05
2.640450702e-05
2.811235586e-05
2.954919655e-05
3.075463885e-05
3.176284052e-05
3.259007651e-05
3.318411353e-05
7.477870632e-06
1.204594795e-05
1.700141927e-05
2.170289144e-05
2.580028188e-05
2.917380313e-05
3.184267532e-05
3.389282284e-05
3.54316683e-05
3.656405665e-05
3.738172352e-05
3.79602648e-05
3.83596576e-05
3.862539193e-05
3.878275407e-05
1.062155886e-05
1.691404342e-05
2.286815153e-05
2.790075261e-05
3.188347569e-05
3.489937246e-05
3.710564066e-05
3.866836383e-05
3.973594901e-05
4.043124601e-05
4.085176793e-05
4.107320766e-05
4.115430546e-05
4.114380898e-05
4.109437103e-05
7.477833288e-06
1.204586235e-05
1.700125546e-05
2.170264081e-05
2.579994694e-05
2.917339047e-05
3.184219406e-05
3.389229943e-05
3.543110566e-05
3.656346539e-05
3.738110851e-05
3.795963225e-05
3.835902066e-05
3.862474679e-05
3.878209839e-05
4.459731205e-06
6.87587777e-06
9.862233543e-06
1.310174882e-05
1.631989686e-05
1.932978256e-05
2.203050446e-05
2.438642019e-05
2.640375571e-05
2.811153127e-05
2.954830209e-05
3.07536916e-05
3.176184749e-05
3.258904875e-05
3.318304515e-05
2.837273259e-06
3.961816608e-06
5.502559048e-06
7.378039222e-06
9.474744037e-06
1.167929717e-05
1.389665058e-05
1.605639347e-05
1.811179818e-05
2.003550541e-05
2.181428729e-05
2.344357189e-05
2.491944517e-05
2.621619304e-05
2.719456204e-05
2.80196959e-06
3.681534879e-06
4.850899756e-06
6.282151041e-06
7.925290251e-06
9.720136099e-06
1.160591683e-05
1.352752581e-05
1.543869475e-05
1.730271676e-05
1.909076018e-05
2.077503204e-05
2.2302038e-05
2.347904529e-05
1.932180658e-06
2.286424878e-06
2.836312407e-06
3.611557062e-06
4.621175104e-06
5.853757035e-06
7.281493075e-06
8.86586338e-06
1.056332434e-05
1.232996564e-05
1.41245787e-05
1.590923711e-05
1.7643741e-05
1.925714528e-05
2.05230422e-05
2.206999101e-06
2.801863781e-06
3.681448268e-06
4.850848144e-06
6.282154534e-06
7.925366698e-06
9.720301589e-06
1.160618327e-05
1.352789717e-05
1.543917747e-05
1.730330884e-05
1.909145885e-05
2.077583229e-05
2.230293613e-05
2.348002626e-05
2.821511387e-06
3.939029615e-06
5.490556625e-06
7.406951581e-06
9.579200885e-06
1.189002086e-05
1.423460933e-05
1.653037772e-05
1.871885921e-05
2.076319969e-05
2.264367162e-05
2.435220934e-05
2.588415609e-05
2.721552132e-05
2.821093302e-05
3.742962698e-06
5.602589021e-06
8.009012946e-06
1.076669508e-05
1.367310339e-05
1.65602757e-05
1.930821019e-05
2.1842465e-05
2.412525549e-05
2.614529853e-05
2.790873366e-05
2.943155561e-05
3.073174576e-05
3.181220809e-05
3.259284194e-05
4.432970914e-06
6.788158669e-06
9.66281183e-06
1.279324319e-05
1.595842894e-05
1.899922676e-05
2.181465686e-05
2.435036529e-05
2.658605372e-05
2.852449082e-05
3.018272316e-05
3.158526794e-05
3.275740184e-05
3.371116642e-05
3.438854191e-05
3.742950453e-06
5.602560266e-06
8.008954433e-06
1.076659366e-05
1.367295426e-05
1.656007601e-05
1.930795435e-05
2.184215689e-05
2.412490093e-05
2.614490109e-05
2.790829944e-05
2.943109045e-05
3.073125441e-05
3.181168887e-05
3.259229721e-05
2.821511361e-06
3.939021519e-06
5.490521878e-06
7.406870253e-06
9.579053286e-06
1.188979556e-05
1.423429866e-05
1.652997697e-05
1.87183705e-05
2.076263138e-05
2.264302872e-05
2.43514956e-05
2.588337465e-05
2.721468329e-05
2.821004598e-05
2.207009743e-06
2.801877737e-06
3.681449389e-06
4.850816897e-06
6.282068406e-06
7.925209218e-06
9.720056771e-06
1.160583888e-05
1.352744931e-05
1.543862287e-05
1.730264737e-05
1.909069389e-05
2.077496739e-05
2.230198179e-05
2.347899294e-05
1.932202064e-06
2.286455166e-06
2.836338736e-06
3.611562344e-06
4.62114029e-06
5.853661045e-06
7.281316581e-06
8.865590104e-06
1.056294002e-05
1.232946192e-05
1.412394803e-05
1.590847603e-05
1.764284613e-05
1.92561221e-05
2.052189811e-05
)
;

boundaryField
{
    top
    {
        type            calculated;
        value           nonuniform List<scalar> 
127
(
1.932202064e-06
2.286464058e-06
2.801928285e-06
3.93914737e-06
5.602793292e-06
6.788440071e-06
5.602843395e-06
3.939212423e-06
2.80196959e-06
2.286455166e-06
2.836371238e-06
3.681541443e-06
5.490717221e-06
8.009279143e-06
9.663155192e-06
8.009277581e-06
5.490726216e-06
3.681534879e-06
2.836338736e-06
3.611638871e-06
4.850973434e-06
7.407155019e-06
1.07670103e-05
1.279362903e-05
1.076693469e-05
7.407077201e-06
4.850899756e-06
3.611562344e-06
4.621282912e-06
6.282310621e-06
9.579440212e-06
1.367345651e-05
1.595883805e-05
1.367329547e-05
9.579257312e-06
6.282151041e-06
4.62114029e-06
5.853891607e-06
7.925554926e-06
1.189029425e-05
1.656065613e-05
1.899964394e-05
1.656040844e-05
1.188999427e-05
7.925290251e-06
5.853661045e-06
7.281654957e-06
9.720518781e-06
1.423491086e-05
1.930860415e-05
2.181506942e-05
1.93082736e-05
1.42344879e-05
9.720136099e-06
7.281316581e-06
8.866053111e-06
1.160642587e-05
1.653069703e-05
2.1842861e-05
2.435076867e-05
2.184246344e-05
1.653015681e-05
1.160591683e-05
8.865590104e-06
1.05635403e-05
1.352816233e-05
1.871918945e-05
2.412565354e-05
2.658644535e-05
2.41251884e-05
1.871853954e-05
1.352752581e-05
1.056294002e-05
1.233020622e-05
1.543945928e-05
2.076354102e-05
2.614569258e-05
2.852486205e-05
2.61451733e-05
2.076278623e-05
1.543869475e-05
1.232946192e-05
1.412483866e-05
1.730360558e-05
2.264401706e-05
2.790911845e-05
3.018307943e-05
2.790855652e-05
2.264317283e-05
1.730271676e-05
1.412394803e-05
1.59095143e-05
1.909176662e-05
2.435255687e-05
2.943192998e-05
3.158560451e-05
2.943133113e-05
2.435163456e-05
1.909076018e-05
1.590847603e-05
1.764402929e-05
2.077614744e-05
2.58845008e-05
3.073210596e-05
3.275772715e-05
3.073148027e-05
2.588350492e-05
2.077503204e-05
1.764284613e-05
1.925744453e-05
2.230325688e-05
2.721586411e-05
3.181255628e-05
3.371147481e-05
3.181190498e-05
2.721480403e-05
2.2302038e-05
1.92561221e-05
2.05233499e-05
2.348035149e-05
2.821127501e-05
3.259317748e-05
3.438883984e-05
3.259250759e-05
2.821016119e-05
2.347904529e-05
2.052189811e-05
)
;
    }
    bottom
    {
        type            calculated;
        value           nonuniform List<scalar> 
134
(
2.207037504e-06
2.821530902e-06
3.7429644e-06
4.43297547e-06
3.742953274e-06
2.821507887e-06
2.206998629e-06
1.932180658e-06
2.286492097e-06
2.801929825e-06
3.939096494e-06
5.602656349e-06
6.788250295e-06
5.602616858e-06
3.939037658e-06
2.801866287e-06
2.286424878e-06
2.836398057e-06
3.681551966e-06
5.490689846e-06
8.009189669e-06
9.66304819e-06
8.009115935e-06
5.490590306e-06
3.681456856e-06
2.836312407e-06
3.611670976e-06
4.8510014e-06
7.407174965e-06
1.076701774e-05
1.279367113e-05
1.076690698e-05
7.407029155e-06
4.850868108e-06
3.611557062e-06
4.621329004e-06
6.282370506e-06
9.579533499e-06
1.367360051e-05
1.595906918e-05
1.367345031e-05
9.579333171e-06
6.282189152e-06
4.621175104e-06
5.853962718e-06
7.925662578e-06
1.189048291e-05
1.656096128e-05
1.900008276e-05
1.65607689e-05
1.189022141e-05
7.925421116e-06
5.853757035e-06
7.281764858e-06
9.720690995e-06
1.423521141e-05
1.930908209e-05
2.181572311e-05
1.93088488e-05
1.4234884e-05
9.720380079e-06
7.281493075e-06
8.866212651e-06
1.160667546e-05
1.653112342e-05
2.184352165e-05
2.435162795e-05
2.184324744e-05
1.653072737e-05
1.160628691e-05
8.86586338e-06
1.056376073e-05
1.352849887e-05
1.871974791e-05
2.412648311e-05
2.658749623e-05
2.412616832e-05
1.871928034e-05
1.352802949e-05
1.056332434e-05
1.233049747e-05
1.543989402e-05
2.076422713e-05
2.614668033e-05
2.852608485e-05
2.614632991e-05
2.076369418e-05
1.543933683e-05
1.232996564e-05
1.412520977e-05
1.730414159e-05
2.26448321e-05
2.791025415e-05
3.018444841e-05
2.790986844e-05
2.264423383e-05
1.730349766e-05
1.41245787e-05
1.590997116e-05
1.90924051e-05
2.435349111e-05
2.943319593e-05
3.158710347e-05
2.943278208e-05
2.435283335e-05
1.909167404e-05
1.590923711e-05
1.764457695e-05
2.07768898e-05
2.588554934e-05
3.073349055e-05
3.275933943e-05
3.0733052e-05
2.588482995e-05
2.07760733e-05
1.7643741e-05
1.925808448e-05
2.230410176e-05
2.721701949e-05
3.181404639e-05
3.371318651e-05
3.181358161e-05
2.721624832e-05
2.230320564e-05
1.925714528e-05
2.052408768e-05
2.348129855e-05
2.821253424e-05
3.259477853e-05
3.439065406e-05
3.259429378e-05
2.821172212e-05
2.348033261e-05
2.05230422e-05
)
;
    }
    side-walls
    {
        type            calculated;
        value           nonuniform List<scalar> 
261
(
2.286492097e-06
2.801964775e-06
3.939185266e-06
5.602813326e-06
6.788430216e-06
5.602769683e-06
3.939138672e-06
2.801924113e-06
2.286464058e-06
2.836398057e-06
3.681587253e-06
5.490788044e-06
8.009373671e-06
9.663267805e-06
8.009310859e-06
5.490726848e-06
3.681539872e-06
2.836371238e-06
3.611670976e-06
4.851037452e-06
7.407280426e-06
1.076722322e-05
1.279392192e-05
1.076713825e-05
7.407200133e-06
4.850979047e-06
3.611638871e-06
4.621329004e-06
6.282408894e-06
9.579647141e-06
1.367382244e-05
1.595934461e-05
1.367371168e-05
9.579537062e-06
6.28232816e-06
4.621282912e-06
5.853962718e-06
7.925702995e-06
1.189060203e-05
1.656119458e-05
1.900037743e-05
1.65610559e-05
1.189045446e-05
7.925588986e-06
5.853891607e-06
7.281764858e-06
9.720732377e-06
1.423533396e-05
1.930932255e-05
2.18160296e-05
1.930915286e-05
1.423513856e-05
9.72057481e-06
7.281654957e-06
8.866212651e-06
1.16067177e-05
1.653124701e-05
2.184376553e-05
2.435193705e-05
2.184356076e-05
1.653100168e-05
1.160650604e-05
8.866053111e-06
1.056376073e-05
1.352854307e-05
1.871987302e-05
2.412672346e-05
2.658780468e-05
2.412649314e-05
1.871957099e-05
1.352827051e-05
1.05635403e-05
1.233049747e-05
1.543993655e-05
2.076435333e-05
2.614691301e-05
2.852639035e-05
2.614665419e-05
2.076399343e-05
1.543959706e-05
1.233020622e-05
1.412520977e-05
1.730418528e-05
2.264495392e-05
2.791047881e-05
3.018474604e-05
2.791019e-05
2.264454211e-05
1.730377122e-05
1.412483866e-05
1.590997116e-05
1.90924479e-05
2.435361248e-05
2.943341712e-05
3.158739478e-05
2.943310174e-05
2.435314635e-05
1.909196002e-05
1.59095143e-05
1.764457695e-05
2.077693043e-05
2.588566555e-05
3.073370789e-05
3.275962125e-05
3.073336491e-05
2.588514977e-05
2.077637105e-05
1.764402929e-05
1.925808448e-05
2.230414239e-05
2.721713284e-05
3.18142515e-05
3.371346226e-05
3.181389035e-05
2.721656932e-05
2.230351109e-05
1.925744453e-05
2.052408768e-05
2.348133879e-05
2.821264733e-05
3.259497257e-05
3.439092249e-05
3.259460031e-05
2.821204343e-05
2.348064138e-05
2.05233499e-05
1.932180658e-06
2.206999101e-06
2.821511387e-06
3.742962698e-06
4.432970914e-06
3.742950453e-06
2.821511361e-06
2.207009743e-06
1.932202064e-06
2.286424878e-06
2.801863781e-06
3.939029615e-06
5.602589021e-06
6.788158669e-06
5.602560266e-06
3.939021519e-06
2.801877737e-06
2.286455166e-06
2.836312407e-06
3.681448268e-06
5.490556625e-06
8.009012946e-06
9.66281183e-06
8.008954433e-06
5.490521878e-06
3.681449389e-06
2.836338736e-06
3.611557062e-06
4.850848144e-06
7.406951581e-06
1.076669508e-05
1.279324319e-05
1.076659366e-05
7.406870253e-06
4.850816897e-06
3.611562344e-06
4.621175104e-06
6.282154534e-06
9.579200885e-06
1.367310339e-05
1.595842894e-05
1.367295426e-05
9.579053286e-06
6.282068406e-06
4.62114029e-06
5.853757035e-06
7.925366698e-06
1.189002086e-05
1.65602757e-05
1.899922676e-05
1.656007601e-05
1.188979556e-05
7.925209218e-06
5.853661045e-06
7.281493075e-06
9.720301589e-06
1.423460933e-05
1.930821019e-05
2.181465686e-05
1.930795435e-05
1.423429866e-05
9.720056771e-06
7.281316581e-06
8.86586338e-06
1.160618327e-05
1.653037772e-05
2.1842465e-05
2.435036529e-05
2.184215689e-05
1.652997697e-05
1.160583888e-05
8.865590104e-06
1.056332434e-05
1.352789717e-05
1.871885921e-05
2.412525549e-05
2.658605372e-05
2.412490093e-05
1.87183705e-05
1.352744931e-05
1.056294002e-05
1.232996564e-05
1.543917747e-05
2.076319969e-05
2.614529853e-05
2.852449082e-05
2.614490109e-05
2.076263138e-05
1.543862287e-05
1.232946192e-05
1.41245787e-05
1.730330884e-05
2.264367162e-05
2.790873366e-05
3.018272316e-05
2.790829944e-05
2.264302872e-05
1.730264737e-05
1.412394803e-05
1.590923711e-05
1.909145885e-05
2.435220934e-05
2.943155561e-05
3.158526794e-05
2.943109045e-05
2.43514956e-05
1.909069389e-05
1.590847603e-05
1.7643741e-05
2.077583229e-05
2.588415609e-05
3.073174576e-05
3.275740184e-05
3.073125441e-05
2.588337465e-05
2.077496739e-05
1.764284613e-05
1.925714528e-05
2.230293613e-05
2.721552132e-05
3.181220809e-05
3.371116642e-05
3.181168887e-05
2.721468329e-05
2.230198179e-05
1.92561221e-05
2.05230422e-05
2.348002626e-05
2.821093302e-05
3.259284194e-05
3.438854191e-05
3.259229721e-05
2.821004598e-05
2.347899294e-05
2.052189811e-05
)
;
    }
    inlet
    {
        type            calculated;
        value           nonuniform 0();
    }
    outlet
    {
        type            calculated;
        value           nonuniform List<scalar> 
81
(
2.052408768e-05
2.348133879e-05
2.821264733e-05
3.259497257e-05
3.439092249e-05
3.259460031e-05
2.821204343e-05
2.348064138e-05
2.05233499e-05
2.348129855e-05
2.719697635e-05
3.318572222e-05
3.878479434e-05
4.109666403e-05
3.878431083e-05
3.318494797e-05
2.719608523e-05
2.348035149e-05
2.821253424e-05
3.318564929e-05
4.127215093e-05
4.891790187e-05
5.210430877e-05
4.891721857e-05
4.127106602e-05
3.318445389e-05
2.821127501e-05
3.259477853e-05
3.878463589e-05
4.891781467e-05
5.858313356e-05
6.264330291e-05
5.858223968e-05
4.891638425e-05
3.878308593e-05
3.259317748e-05
3.439065406e-05
4.109641782e-05
5.210409943e-05
6.264317251e-05
6.709965102e-05
6.264214363e-05
5.210249847e-05
4.109465594e-05
3.438883984e-05
3.259429378e-05
3.878400167e-05
4.89169272e-05
5.858200189e-05
6.264201807e-05
5.858100607e-05
4.891535374e-05
3.878228035e-05
3.259250759e-05
2.821172212e-05
3.318462051e-05
4.127073715e-05
4.891606489e-05
5.210227169e-05
4.891522565e-05
4.126939985e-05
3.318313178e-05
2.821016119e-05
2.348033261e-05
2.719576082e-05
3.318411353e-05
3.878275407e-05
4.109437103e-05
3.878209839e-05
3.318304515e-05
2.719456204e-05
2.347904529e-05
2.05230422e-05
2.348002626e-05
2.821093302e-05
3.259284194e-05
3.438854191e-05
3.259229721e-05
2.821004598e-05
2.347899294e-05
2.052189811e-05
)
;
    }
    procBoundary1to0
    {
        type            processor;
        value           nonuniform List<scalar> 
97
(
1.932200372e-06
1.932200372e-06
2.207003333e-06
2.821480704e-06
3.742871941e-06
4.432826319e-06
3.742838549e-06
2.82144267e-06
2.206965541e-06
1.932162959e-06
1.854678721e-06