/*--------------------------------*- C++ -*----------------------------------*\
| =========                 |                                                 |
| \\      /  F ield         | OpenFOAM: The Open Source CFD Toolbox           |
|  \\    /   O peration     | Version:  4.x                                   |
|   \\  /    A nd           | Web:      www.OpenFOAM.org                      |
|    \\/     M anipulation  |                                                 |
\*---------------------------------------------------------------------------*/
FoamFile
{
    version     2.0;
    format      ascii;
    class       volScalarField;
    location    "7000";
    object      X_H2;
}
// * * * * * * * * * * * * * * * * * * * * * * * * * * * * * * * * * * * * * //

dimensions      [0 0 0 0 0 0 0];

internalField   nonuniform List<scalar> 
1174
(
0.02997653565
0.02997598588
0.0299752108
0.02997420139
0.0299729691
0.02997154172
0.02996995778
0.02996826082
0.02996649476
0.0299647008
0.02996291686
0.02996118312
0.02995957048
0.0299583052
0.0299760203
0.02997514086
0.02997397166
0.02997254062
0.02997089775
0.02996910323
0.02996721785
0.0299652967
0.02996338606
0.02996152264
0.02995973526
0.02995805169
0.02995652537
0.0299553489
0.02997488328
0.02997333193
0.02997141578
0.02996924386
0.02996693345
0.02996458936
0.02996229418
0.02996010635
0.02995806273
0.02995618304
0.02995447532
0.02995294423
0.0299516137
0.02995061892
0.02997321983
0.02997081359
0.02996805618
0.02996515013
0.02996226341
0.02995951604
0.02995698243
0.02995470036
0.02995268111
0.02995091851
0.02994939657
0.02994809727
0.02994701767
0.02994623768
0.02997203426
0.02996915976
0.02996602957
0.02996286474
0.02995982441
0.02995700955
0.02995447451
0.02995223956
0.02995030194
0.02994864456
0.02994724291
0.02994607168
0.02994511878
0.02994444205
0.02997321986
0.02997081363
0.02996805622
0.02996515018
0.02996226347
0.0299595161
0.02995698249
0.02995470043
0.02995268118
0.02995091858
0.02994939663
0.02994809734
0.02994701774
0.02994623775
0.0299748833
0.02997333195
0.02997141581
0.0299692439
0.0299669335
0.02996458942
0.02996229424
0.02996010642
0.0299580628
0.02995618312
0.02995447541
0.02995294432
0.02995161379
0.02995061901
0.02997602032
0.02997514088
0.02997397168
0.02997254065
0.02997089778
0.02996910327
0.0299672179
0.02996529676
0.02996338613
0.02996152272
0.02995973534
0.02995805178
0.02995652548
0.02995534901
0.02997653567
0.02997598589
0.02997521081
0.02997420141
0.02997296912
0.02997154174
0.02996995781
0.02996826086
0.02996649481
0.02996470086
0.02996291693
0.0299611832
0.02995957057
0.0299583053
0.02997661507
0.02997602031
0.02997514087
0.02997397167
0.02997254063
0.02997089776
0.02996910325
0.02996721786
0.02996529672
0.02996338608
0.02996152266
0.02995973527
0.0299580517
0.02995652539
0.02995534892
0.02997486056
0.02997331999
0.02997144471
0.02996934826
0.02996714404
0.02996492709
0.02996276782
0.02996071298
0.0299587899
0.0299570118
0.02995538326
0.02995390816
0.02995261217
0.02995163438
0.02997194664
0.02996896045
0.02996572117
0.02996250335
0.02995949388
0.02995679369
0.02995443839
0.02995242175
0.02995071474
0.02994927878
0.02994807424
0.02994706695
0.02994624058
0.0299456472
0.02996677665
0.02996182136
0.02995712024
0.02995302336
0.02994965049
0.02994698239
0.02994493308
0.02994339513
0.02994226368
0.02994144697
0.0299408694
0.02994047096
0.02994020613
0.02994004942
0.0299619083
0.02995595425
0.02995092198
0.02994693981
0.02994392464
0.02994171921
0.02994015741
0.02993909079
0.02993839649
0.02993797697
0.02993775653
0.02993767641
0.02993768781
0.02993773791
0.02996677668
0.0299618214
0.02995712028
0.02995302341
0.02994965054
0.02994698244
0.02994493314
0.0299433952
0.02994226375
0.02994144704
0.02994086947
0.02994047103
0.0299402062
0.02994004949
0.02997194668
0.02996896049
0.02996572121
0.02996250339
0.02995949393
0.02995679375
0.02995443846
0.02995242183
0.02995071482
0.02994927887
0.02994807433
0.02994706705
0.02994624068
0.0299456473
0.02997486059
0.02997332002
0.02997144474
0.0299693483
0.02996714408
0.02996492714
0.02996276789
0.02996071305
0.02995878998
0.0299570119
0.02995538336
0.02995390827
0.02995261229
0.02995163451
0.02997602031
0.02997514088
0.02997397168
0.02997254065
0.02997089779
0.02996910328
0.02996721791
0.02996529677
0.02996338615
0.02996152274
0.02995973537
0.02995805181
0.02995652551
0.02995534905
0.02997600068
0.02997488329
0.02997333195
0.02997141581
0.0299692439
0.02996693349
0.02996458941
0.02996229422
0.02996010639
0.02995806278
0.02995618308
0.02995447537
0.02995294428
0.02995161374
0.02995061896
0.02997436266
0.02997194667
0.02996896049
0.02996572121
0.02996250339
0.02995949393
0.02995679373
0.02995443844
0.02995242179
0.02995071478
0.02994927882
0.02994807428
0.02994706698
0.02994624061
0.02994564723
0.02996335385
0.0299570716
0.02995139797
0.0299467593
0.02994323918
0.02994073084
0.02993905087
0.02993800582
0.02993742403
0.02993716641
0.02993712623
0.02993722344
0.02993739377
0.02993756263
0.02994427468
0.02993369521
0.029926428
0.02992216349
0.02992018476
0.02991977394
0.02992035409
0.02992150861
0.02992295583
0.02992451425
0.02992607096
0.02992755373
0.02992889354
0.02992991844
0.02991933313
0.02990884442
0.02990438489
0.02990364984
0.02990499868
0.02990740138
0.02991024922
0.02991319697
0.02991605718
0.02991873447
0.02992118509
0.02992338775
0.02992530211
0.02992673243
0.02994427488
0.0299336954
0.02992642818
0.02992216366
0.02992018492
0.02991977409
0.02992035423
0.02992150874
0.02992295595
0.02992451437
0.02992607107
0.02992755383
0.02992889364
0.02992991853
0.02996335401
0.02995707173
0.02995139809
0.02994675943
0.02994323931
0.02994073098
0.02993905102
0.02993800598
0.02993742419
0.02993716657
0.02993712639
0.0299372236
0.02993739393
0.02993756278
0.02997194669
0.02996896051
0.02996572124
0.02996250343
0.02995949398
0.0299567938
0.02995443852
0.02995242189
0.02995071489
0.02994927894
0.02994807441
0.02994706712
0.02994624076
0.02994564738
0.0299748833
0.02997333196
0.02997141583
0.02996924392
0.02996693353
0.02996458946
0.02996229429
0.02996010648
0.02995806288
0.0299561832
0.0299544755
0.02995294442
0.02995161389
0.02995061912
0.02997507935
0.02997321987
0.02997081365
0.02996805624
0.0299651502
0.0299622635
0.02995951613
0.02995698252
0.02995470045
0.0299526812
0.0299509186
0.02994939665
0.02994809735
0.02994701775
0.02994623775
0.02997134468
0.02996677668
0.02996182142
0.0299571203
0.02995302342
0.02994965055
0.02994698245
0.02994493314
0.0299433952
0.02994226374
0.02994144703
0.02994086946
0.02994047102
0.02994020618
0.02994004947
0.02995722468
0.02994427472
0.02993369527
0.02992642806
0.02992216354
0.02992018481
0.02991977398
0.02992035413
0.02992150865
0.02992295586
0.02992451428
0.02992607099
0.02992755375
0.02992889357
0.02992991846
0.02987896119
0.02986572718
0.02986363204
0.02986754844
0.02987413125
0.0298814989
0.02988870158
0.02989531848
0.02990120702
0.02990636015
0.02991082842
0.02991467209
0.02991789942
0.02992025486
0.02975099511
0.02976792813
0.02979375511
0.02981845943
0.02983942106
0.02985650331
0.02987027198
0.02988138705
0.02989042172
0.02989782924
0.02990395343
0.02990903999
0.02991320431
0.02991619508
0.02987896193
0.02986572768
0.02986363243
0.02986754878
0.02987413155
0.02988149916
0.02988870181
0.02989531868
0.0299012072
0.02990636032
0.02991082857
0.02991467223
0.02991789955
0.02992025498
0.02994427487
0.02993369545
0.02992642827
0.02992216378
0.02992018506
0.02991977423
0.02992035438
0.02992150889
0.0299229561
0.02992451451
0.02992607121
0.02992755396
0.02992889377
0.02992991865
0.0299667767
0.02996182145
0.02995712036
0.02995302351
0.02994965067
0.02994698259
0.0299449333
0.02994339537
0.02994226392
0.02994144722
0.02994086965
0.02994047121
0.02994020638
0.02994004967
0.02997321986
0.02997081364
0.02996805625
0.02996515023
0.02996226354
0.02995951619
0.02995698261
0.02995470056
0.02995268133
0.02995091875
0.02994939681
0.02994809752
0.02994701793
0.02994623795
0.02997438938
0.0299720343
0.02996915982
0.02996602965
0.02996286483
0.02995982451
0.02995700965
0.02995447461
0.02995223967
0.02995030204
0.02994864466
0.02994724301
0.02994607178
0.02994511887
0.02994444214
0.02996820095
0.02996190835
0.02995595434
0.02995092208
0.02994693992
0.02994392474
0.02994171931
0.02994015751
0.02993909088
0.02993839657
0.02993797705
0.02993775661
0.02993767648
0.02993768789
0.02993773798
0.02993804245
0.02991933311
0.02990884453
0.02990438501
0.02990364995
0.02990499878
0.02990740147
0.0299102493
0.02991319705
0.02991605725
0.02991873454
0.02992118516
0.02992338781
0.02992530217
0.02992673248
0.02977353651
0.02975099541
0.02976792842
0.02979375535
0.02981845963
0.02983942122
0.02985650344
0.02987027209
0.02988138714
0.02989042179
0.0298978293
0.02990395348
0.02990904004
0.02991320436
0.02991619512
0.0292002041
0.02948117866
0.02963650971
0.02972734173
0.02978355913
0.0298203166
0.02984559733
0.02986377708
0.02987735387
0.02988781293
0.02989607071
0.0299026995
0.0299079945
0.02991173897
0.02975099496
0.02976792887
0.02979375584
0.02981846005
0.02983942157
0.02985650373
0.02987027234
0.02988138736
0.02989042198
0.02989782947
0.02990395364
0.02990904018
0.02991320449
0.02991619524
0.02991933319
0.02990884474
0.02990438528
0.02990365025
0.02990499907
0.02990740175
0.02991024957
0.0299131973
0.02991605749
0.02991873476
0.02992118537
0.02992338801
0.02992530236
0.02992673267
0.02996190836
0.0299559544
0.02995092218
0.02994694005
0.02994392491
0.0299417195
0.02994015771
0.02993909109
0.02993839679
0.02993797728
0.02993775683
0.02993767671
0.02993768811
0.0299377382
0.0299720343
0.02996915983
0.02996602968
0.02996286488
0.02995982459
0.02995700976
0.02995447475
0.02995223982
0.02995030221
0.02994864485
0.02994724321
0.02994607198
0.02994511909
0.02994444236
0.02997507936
0.02997321989
0.02997081368
0.02996805628
0.02996515025
0.02996226355
0.02995951619
0.02995698258
0.02995470052
0.02995268127
0.02995091867
0.02994939673
0.02994809743
0.02994701783
0.02994623784
0.02997134473
0.02996677676
0.02996182151
0.0299571204
0.02995302353
0.02994965066
0.02994698256
0.02994493325
0.02994339531
0.02994226385
0.02994144714
0.02994086957
0.02994047112
0.02994020628
0.02994004957
0.02995722497
0.02994427502
0.0299336956
0.02992642837
0.02992216383
0.02992018508
0.02991977423
0.02992035436
0.02992150886
0.02992295605
0.02992451446
0.02992607116
0.02992755391
0.02992889372
0.0299299186
0.02990886316
0.02987896239
0.02986572815
0.02986363281
0.02986754907
0.02987413176
0.02988149933
0.02988870194
0.02989531879
0.02990120728
0.02990636039
0.02991082864
0.02991467228
0.0299178996
0.02992025503
0.02977353659
0.02975099562
0.02976792931
0.02979375612
0.02981846024
0.0298394217
0.02985650382
0.0298702724
0.0298813874
0.02989042202
0.0298978295
0.02990395366
0.0299090402
0.0299132045
0.02991619526
0.02990886304
0.02987896254
0.02986572839
0.02986363307
0.02986754931
0.02987413199
0.02988149954
0.02988870213
0.02989531896
0.02990120745
0.02990636054
0.02991082877
0.02991467241
0.02991789973
0.02992025515
0.02994427468
0.0299336955
0.02992642841
0.02992216396
0.02992018526
0.02991977443
0.02992035457
0.02992150907
0.02992295627
0.02992451467
0.02992607136
0.02992755411
0.02992889391
0.02992991879
0.02996677666
0.02996182145
0.0299571204
0.02995302358
0.02994965076
0.02994698269
0.0299449334
0.02994339547
0.02994226403
0.02994144733
0.02994086976
0.02994047132
0.02994020648
0.02994004978
0.02997321985
0.02997081365
0.02996805627
0.02996515026
0.02996226359
0.02995951625
0.02995698268
0.02995470064
0.02995268141
0.02995091883
0.0299493969
0.02994809761
0.02994701802
0.02994623804
0.02997600069
0.02997488332
0.02997333199
0.02997141586
0.02996924395
0.02996693356
0.02996458948
0.02996229431
0.02996010649
0.02995806288
0.0299561832
0.02995447549
0.02995294441
0.02995161388
0.0299506191
0.0299743627
0.02997194672
0.02996896055
0.02996572129
0.02996250347
0.02995949402
0.02995679384
0.02995443855
0.02995242192
0.02995071492
0.02994927896
0.02994807442
0.02994706714
0.02994624077
0.02994564739
0.02996935727
0.02996335408
0.02995707183
0.0299513982
0.02994675954
0.02994323942
0.02994073109
0.02993905112
0.02993800607
0.02993742428
0.02993716666
0.02993712647
0.02993722368
0.02993739401
0.02993756286
0.02995722499
0.0299442751
0.02993369573
0.02992642854
0.02992216402
0.02992018527
0.02991977441
0.02992035454
0.02992150903
0.02992295622
0.02992451461
0.0299260713
0.02992755405
0.02992889385
0.02992991873
0.02993804271
0.02991933364
0.02990884516
0.02990438563
0.02990365052
0.02990499929
0.02990740192
0.02991024971
0.02991319741
0.02991605758
0.02991873484
0.02992118543
0.02992338807
0.02992530241
0.02992673272
0.02995722501
0.02994427515
0.0299336958
0.02992642862
0.02992216411
0.02992018537
0.02991977452
0.02992035465
0.02992150914
0.02992295632
0.02992451472
0.0299260714
0.02992755415
0.02992889394
0.02992991882
0.02996935719
0.02996335401
0.02995707181
0.02995139822
0.0299467596
0.02994323952
0.02994073121
0.02993905125
0.02993800622
0.02993742443
0.0299371668
0.02993712662
0.02993722383
0.02993739415
0.02993756301
0.02997194664
0.0299689605
0.02996572127
0.02996250349
0.02995949407
0.02995679391
0.02995443865
0.02995242203
0.02995071504
0.0299492791
0.02994807457
0.02994706729
0.02994624093
0.02994564756
0.02997488328
0.02997333195
0.02997141583
0.02996924394
0.02996693357
0.02996458951
0.02996229436
0.02996010656
0.02995806297
0.02995618331
0.02995447562
0.02995294455
0.02995161403
0.02995061926
0.02997661508
0.02997602033
0.0299751409
0.02997397171
0.02997254068
0.02997089782
0.02996910332
0.02996721795
0.02996529682
0.0299633862
0.02996152279
0.02995973542
0.02995805186
0.02995652556
0.02995534909
0.029975985
0.02997486062
0.02997332005
0.02997144479
0.02996934836
0.02996714415
0.02996492721
0.02996276796
0.02996071313
0.02995879006
0.02995701198
0.02995538345
0.02995390836
0.02995261237
0.02995163459
0.0299743627
0.02997194673
0.02996896057
0.02996572131
0.02996250351
0.02995949407
0.02995679389
0.02995443861
0.02995242198
0.02995071498
0.02994927902
0.02994807449
0.02994706721
0.02994624084
0.02994564746
0.02997134474
0.02996677679
0.02996182157
0.02995712049
0.02995302365
0.0299496508
0.02994698271
0.02994493341
0.02994339547
0.02994226402
0.02994144731
0.02994086974
0.02994047129
0.02994020645
0.02994004974
0.02996820101
0.02996190849
0.02995595455
0.02995092234
0.0299469402
0.02994392504
0.02994171962
0.02994015782
0.02993909119
0.02993839688
0.02993797735
0.0299377569
0.02993767677
0.02993768817
0.02993773826
0.02997134474
0.0299667768
0.02996182159
0.02995712052
0.02995302368
0.02994965084
0.02994698276
0.02994493346
0.02994339553
0.02994226408
0.02994144737
0.0299408698
0.02994047136
0.02994020652
0.02994004981
0.02997436269
0.02997194672
0.02996896057
0.02996572132
0.02996250354
0.02995949411
0.02995679395
0.02995443868
0.02995242206
0.02995071507
0.02994927912
0.02994807459
0.02994706731
0.02994624095
0.02994564757
0.02997598498
0.02997486059
0.02997332002
0.02997144477
0.02996934835
0.02996714415
0.02996492723
0.029962768
0.02996071318
0.02995879012
0.02995701205
0.02995538353
0.02995390845
0.02995261248
0.0299516347
0.0299760203
0.02997514087
0.02997397169
0.02997254067
0.02997089782
0.02996910333
0.02996721797
0.02996529685
0.02996338625
0.02996152285
0.02995973549
0.02995805195
0.02995652566
0.02995534921
0.02997688984
0.02997653567
0.02997598591
0.02997521083
0.02997420144
0.02997296916
0.02997154179
0.02996995786
0.02996826093
0.02996649488
0.02996470094
0.02996291701
0.02996118328
0.02995957066
0.02995830539
0.02997661508
0.02997602033
0.0299751409
0.02997397172
0.02997254069
0.02997089784
0.02996910334
0.02996721797
0.02996529685
0.02996338623
0.02996152282
0.02995973545
0.02995805189
0.0299565256
0.02995534913
0.02997600069
0.02997488332
0.02997333199
0.02997141587
0.02996924398
0.02996693359
0.02996458952
0.02996229436
0.02996010655
0.02995806295
0.02995618328
0.02995447558
0.0299529445
0.02995161397
0.0299506192
0.02997507936
0.02997321989
0.02997081369
0.02996805631
0.0299651503
0.02996226362
0.02995951627
0.02995698269
0.02995470064
0.0299526814
0.02995091882
0.02994939689
0.0299480976
0.029947018
0.02994623802
0.02997438939
0.02997203434
0.02996915988
0.02996602974
0.02996286495
0.02995982466
0.02995700983
0.02995447481
0.02995223988
0.02995030227
0.0299486449
0.02994724326
0.02994607203
0.02994511914
0.02994444241
0.02997507936
0.02997321989
0.02997081369
0.02996805631
0.0299651503
0.02996226363
0.02995951628
0.02995698271
0.02995470066
0.02995268143
0.02995091885
0.02994939692
0.02994809763
0.02994701804
0.02994623806
0.02997600068
0.02997488331
0.02997333199
0.02997141586
0.02996924397
0.02996693359
0.02996458953
0.02996229438
0.02996010658
0.02995806299
0.02995618332
0.02995447563
0.02995294456
0.02995161404
0.02995061927
0.02997661508
0.02997602032
0.02997514089
0.02997397171
0.02997254069
0.02997089784
0.02996910335
0.02996721799
0.02996529688
0.02996338627
0.02996152287
0.02995973551
0.02995805197
0.02995652568
0.02995534923
0.02997688983
0.02997653566
0.02997598589
0.02997521082
0.02997420143
0.02997296915
0.02997154179
0.02996995787
0.02996826095
0.02996649491
0.02996470098
0.02996291707
0.02996118336
0.02995957074
0.02995830548
)
;

boundaryField
{
    top
    {
        type            calculated;
        value           nonuniform List<scalar> 
127
(
0.02997688983
0.02997653567
0.02997602031
0.0299748833
0.02997321986
0.0299720343
0.02997321985
0.02997488328
0.0299760203
0.02997653566
0.02997598589
0.02997514088
0.02997333196
0.02997081364
0.02996915983
0.02997081365
0.02997333195
0.02997514087
0.02997598589
0.02997521081
0.02997397168
0.02997141583
0.02996805625
0.02996602968
0.02996805627
0.02997141583
0.02997397169
0.02997521082
0.02997420141
0.02997254065
0.02996924392
0.02996515023
0.02996286488
0.02996515026
0.02996924394
0.02997254067
0.02997420143
0.02997296912
0.02997089779
0.02996693353
0.02996226354
0.02995982459
0.02996226359
0.02996693357
0.02997089782
0.02997296915
0.02997154174
0.02996910328
0.02996458946
0.02995951619
0.02995700976
0.02995951625
0.02996458951
0.02996910333
0.02997154179
0.02996995781
0.02996721791
0.02996229429
0.02995698261
0.02995447475
0.02995698268
0.02996229436
0.02996721797
0.02996995787
0.02996826086
0.02996529677
0.02996010648
0.02995470056
0.02995223982
0.02995470064
0.02996010656
0.02996529685
0.02996826095
0.02996649481
0.02996338615
0.02995806288
0.02995268133
0.02995030221
0.02995268141
0.02995806297
0.02996338625
0.02996649491
0.02996470086
0.02996152274
0.0299561832
0.02995091875
0.02994864485
0.02995091883
0.02995618331
0.02996152285
0.02996470098
0.02996291693
0.02995973537
0.0299544755
0.02994939681
0.02994724321
0.0299493969
0.02995447562
0.02995973549
0.02996291707
0.0299611832
0.02995805181
0.02995294442
0.02994809752
0.02994607198
0.02994809761
0.02995294455
0.02995805195
0.02996118336
0.02995957057
0.02995652551
0.02995161389
0.02994701793
0.02994511909
0.02994701802
0.02995161403
0.02995652566
0.02995957074
0.0299583053
0.02995534905
0.02995061912
0.02994623795
0.02994444236
0.02994623804
0.02995061926
0.02995534921
0.02995830548
)
;
    }
    bottom
    {
        type            calculated;
        value           nonuniform List<scalar> 
134
(
0.02997661507
0.02997600068
0.02997507935
0.02997438938
0.02997507936
0.02997600069
0.02997661508
0.02997688984
0.02997653565
0.02997602031
0.02997488329
0.02997321987
0.0299720343
0.02997321989
0.02997488332
0.02997602033
0.02997653567
0.02997598588
0.02997514087
0.02997333195
0.02997081365
0.02996915982
0.02997081368
0.02997333199
0.0299751409
0.02997598591
0.0299752108
0.02997397167
0.02997141581
0.02996805624
0.02996602965
0.02996805628
0.02997141586
0.02997397171
0.02997521083
0.02997420139
0.02997254063
0.0299692439
0.0299651502
0.02996286483
0.02996515025
0.02996924395
0.02997254068
0.02997420144
0.0299729691
0.02997089776
0.02996693349
0.0299622635
0.02995982451
0.02996226355
0.02996693356
0.02997089782
0.02997296916
0.02997154172
0.02996910325
0.02996458941
0.02995951613
0.02995700965
0.02995951619
0.02996458948
0.02996910332
0.02997154179
0.02996995778
0.02996721786
0.02996229422
0.02995698252
0.02995447461
0.02995698258
0.02996229431
0.02996721795
0.02996995786
0.02996826082
0.02996529672
0.02996010639
0.02995470045
0.02995223967
0.02995470052
0.02996010649
0.02996529682
0.02996826093
0.02996649476
0.02996338608
0.02995806278
0.0299526812
0.02995030204
0.02995268127
0.02995806288
0.0299633862
0.02996649488
0.0299647008
0.02996152266
0.02995618308
0.0299509186
0.02994864466
0.02995091867
0.0299561832
0.02996152279
0.02996470094
0.02996291686
0.02995973527
0.02995447537
0.02994939665
0.02994724301
0.02994939673
0.02995447549
0.02995973542
0.02996291701
0.02996118312
0.0299580517
0.02995294428
0.02994809735
0.02994607178
0.02994809743
0.02995294441
0.02995805186
0.02996118328
0.02995957048
0.02995652539
0.02995161374
0.02994701775
0.02994511887
0.02994701783
0.02995161388
0.02995652556
0.02995957066
0.0299583052
0.02995534892
0.02995061896
0.02994623775
0.02994444214
0.02994623784
0.0299506191
0.02995534909
0.02995830539
)
;
    }
    side-walls
    {
        type            calculated;
        value           nonuniform List<scalar> 
261
(
0.02997653565
0.0299760203
0.02997488328
0.02997321983
0.02997203426
0.02997321986
0.0299748833
0.02997602032
0.02997653567
0.02997598588
0.02997514086
0.02997333193
0.02997081359
0.02996915976
0.02997081363
0.02997333195
0.02997514088
0.02997598589
0.0299752108
0.02997397166
0.02997141578
0.02996805618
0.02996602957
0.02996805622
0.02997141581
0.02997397168
0.02997521081
0.02997420139
0.02997254062
0.02996924386
0.02996515013
0.02996286474
0.02996515018
0.0299692439
0.02997254065
0.02997420141
0.0299729691
0.02997089775
0.02996693345
0.02996226341
0.02995982441
0.02996226347
0.0299669335
0.02997089778
0.02997296912
0.02997154172
0.02996910323
0.02996458936
0.02995951604
0.02995700955
0.0299595161
0.02996458942
0.02996910327
0.02997154174
0.02996995778
0.02996721785
0.02996229418
0.02995698243
0.02995447451
0.02995698249
0.02996229424
0.0299672179
0.02996995781
0.02996826082
0.0299652967
0.02996010635
0.02995470036
0.02995223956
0.02995470043
0.02996010642
0.02996529676
0.02996826086
0.02996649476
0.02996338606
0.02995806273
0.02995268111
0.02995030194
0.02995268118
0.0299580628
0.02996338613
0.02996649481
0.0299647008
0.02996152264
0.02995618304
0.02995091851
0.02994864456
0.02995091858
0.02995618312
0.02996152272
0.02996470086
0.02996291686
0.02995973526
0.02995447532
0.02994939657
0.02994724291
0.02994939663
0.02995447541
0.02995973534
0.02996291693
0.02996118312
0.02995805169
0.02995294423
0.02994809727
0.02994607168
0.02994809734
0.02995294432
0.02995805178
0.0299611832
0.02995957048
0.02995652537
0.0299516137
0.02994701767
0.02994511878
0.02994701774
0.02995161379
0.02995652548
0.02995957057
0.0299583052
0.0299553489
0.02995061892
0.02994623768
0.02994444205
0.02994623775
0.02995061901
0.02995534901
0.0299583053
0.02997688984
0.02997661508
0.02997600069
0.02997507936
0.02997438939
0.02997507936
0.02997600068
0.02997661508
0.02997688983
0.02997653567
0.02997602033
0.02997488332
0.02997321989
0.02997203434
0.02997321989
0.02997488331
0.02997602032
0.02997653566
0.02997598591
0.0299751409
0.02997333199
0.02997081369
0.02996915988
0.02997081369
0.02997333199
0.02997514089
0.02997598589
0.02997521083
0.02997397172
0.02997141587
0.02996805631
0.02996602974
0.02996805631
0.02997141586
0.02997397171
0.02997521082
0.02997420144
0.02997254069
0.02996924398
0.0299651503
0.02996286495
0.0299651503
0.02996924397
0.02997254069
0.02997420143
0.02997296916
0.02997089784
0.02996693359
0.02996226362
0.02995982466
0.02996226363
0.02996693359
0.02997089784
0.02997296915
0.02997154179
0.02996910334
0.02996458952
0.02995951627
0.02995700983
0.02995951628
0.02996458953
0.02996910335
0.02997154179
0.02996995786
0.02996721797
0.02996229436
0.02995698269
0.02995447481
0.02995698271
0.02996229438
0.02996721799
0.02996995787
0.02996826093
0.02996529685
0.02996010655
0.02995470064
0.02995223988
0.02995470066
0.02996010658
0.02996529688
0.02996826095
0.02996649488
0.02996338623
0.02995806295
0.0299526814
0.02995030227
0.02995268143
0.02995806299
0.02996338627
0.02996649491
0.02996470094
0.02996152282
0.02995618328
0.02995091882
0.0299486449
0.02995091885
0.02995618332
0.02996152287
0.02996470098
0.02996291701
0.02995973545
0.02995447558
0.02994939689
0.02994724326
0.02994939692
0.02995447563
0.02995973551
0.02996291707
0.02996118328
0.02995805189
0.0299529445
0.0299480976
0.02994607203
0.02994809763
0.02995294456
0.02995805197
0.02996118336
0.02995957066
0.0299565256
0.02995161397
0.029947018
0.02994511914
0.02994701804
0.02995161404
0.02995652568
0.02995957074
0.02995830539
0.02995534913
0.0299506192
0.02994623802
0.02994444241
0.02994623806
0.02995061927
0.02995534923
0.02995830548
)
;
    }
    inlet
    {
        type            calculated;
        value           nonuniform 0();
    }
    outlet
    {
        type            calculated;
        value           nonuniform List<scalar> 
81
(
0.0299583052
0.0299553489
0.02995061892
0.02994623768
0.02994444205
0.02994623775
0.02995061901
0.02995534901
0.0299583053
0.02995534892
0.02995163438
0.0299456472
0.02994004942
0.02993773791
0.02994004949
0.0299456473
0.02995163451
0.02995534905
0.02995061896
0.02994564723
0.02993756263
0.02992991844
0.02992673243
0.02992991853
0.02993756278
0.02994564738
0.02995061912
0.02994623775
0.02994004947
0.02992991846
0.02992025486
0.02991619508
0.02992025498
0.02992991865
0.02994004967
0.02994623795
0.02994444214
0.02993773798
0.02992673248
0.02991619512
0.02991173897
0.02991619524
0.02992673267
0.0299377382
0.02994444236
0.02994623784
0.02994004957
0.0299299186
0.02992025503
0.02991619526
0.02992025515
0.02992991879
0.02994004978
0.02994623804
0.0299506191
0.02994564739
0.02993756286
0.02992991873
0.02992673272
0.02992991882
0.02993756301
0.02994564756
0.02995061926
0.02995534909
0.02995163459
0.02994564746
0.02994004974
0.02993773826
0.02994004981
0.02994564757
0.0299516347
0.02995534921
0.02995830539
0.02995534913
0.0299506192
0.02994623802
0.02994444241
0.02994623806
0.02995061927
0.02995534923
0.02995830548
)
;
    }
    procBoundary1to0
    {
        type            processor;
        value           nonuniform List<scalar> 
97
(
0.02997688983
0.02997688983
0.02997661508
0.02997600069
0.02997507936
0.0299743894
0.02997507938
0.0299760007
0.02997661509
0.02997688984
0.02997696729
0.02997598498
0.02997598498
0.02997598498
0.02997436269
0.02997134475
0.02996820103
0.02997134478
0.02997436272
0.02997598501
0.02997661509
0.02997668857
0.02997596874
0.02996935718
0.02996935718
0.02996935718
0.02995722497
0.02993804288
0.02995722518
0.02996935736
0.02997436273
0.0299760007
0.02997628082
0.0299747015
0.02996918664
0.02990886233
0.02990886233
0.02990886233
0.02977353839
0.02990886361
0.02995722515
0.02997134478
0.02997507938
0.02997599018
0.02997350813
0.02996307437
0.02992185277
0.02866275579
0.02866275579
0.02866275579
0.02977353793
0.02977353793
0.02993804287
0.02996820106
0.02997438941
0.02997628082
0.0299747015
0.02996918665
0.02995318467
0.02992185271
0.02995318473
0.02995722478
0.02995722478
0.02995722478
0.02997134473
0.02997507937
0.02997668857
0.02997596874
0.02997386258
0.02996918666
0.02996307446
0.02996918667
0.02997386258
0.02997436266
0.02997436266
0.02997436266
0.02997600068
0.02997696729
0.02997668301
0.02997596874
0.0299747015
0.02997350815
0.0299747015
0.02997596874
0.02997668301
0.02997661507
0.02997661507
0.02997661507
0.02997709362
0.02997696729
0.02997668857
0.02997628081
0.02997599018
0.02997628081
0.02997668857
0.02997696729
0.02997709362
)
;
    }
}


// ************************************************************************* //
