/*--------------------------------*- C++ -*----------------------------------*\
| =========                 |                                                 |
| \\      /  F ield         | OpenFOAM: The Open Source CFD Toolbox           |
|  \\    /   O peration     | Version:  4.x                                   |
|   \\  /    A nd           | Web:      www.OpenFOAM.org                      |
|    \\/     M anipulation  |                                                 |
\*---------------------------------------------------------------------------*/
FoamFile
{
    version     2.0;
    format      ascii;
    class       volScalarField;
    location    "9000";
    object      CO;
}
// * * * * * * * * * * * * * * * * * * * * * * * * * * * * * * * * * * * * * //

dimensions      [0 0 0 0 0 0 0];

internalField   nonuniform List<scalar> 
1174
(
0.3315811621
0.3315799998
0.3315783612
0.3315762271
0.3315736219
0.3315706042
0.3315672555
0.3315636678
0.3315599341
0.3315561413
0.3315523697
0.3315487042
0.3315452946
0.3315426195
0.3315800727
0.3315782134
0.3315757416
0.3315727163
0.3315692431
0.3315654493
0.3315614635
0.331557402
0.3315533628
0.3315494233
0.3315456444
0.331542085
0.331538858
0.3315363706
0.331577669
0.3315743894
0.3315703386
0.3315657471
0.331560863
0.3315559076
0.3315510557
0.3315464307
0.3315421105
0.3315381367
0.3315345264
0.3315312894
0.3315284763
0.331526373
0.3315741526
0.3315690658
0.3315632368
0.3315570936
0.3315509914
0.3315451839
0.3315398282
0.3315350041
0.3315307356
0.3315270095
0.3315237919
0.3315210449
0.3315187622
0.3315171129
0.3315716466
0.33156557
0.331558953
0.331552263
0.3315458362
0.3315398861
0.3315345274
0.3315298031
0.3315257071
0.3315222034
0.3315192402
0.3315167638
0.3315147489
0.3315133179
0.3315741526
0.3315690659
0.3315632369
0.3315570938
0.3315509916
0.331545184
0.3315398283
0.3315350043
0.3315307358
0.3315270097
0.3315237921
0.3315210451
0.3315187624
0.3315171131
0.331577669
0.3315743895
0.3315703387
0.3315657473
0.3315608631
0.3315559078
0.3315510559
0.3315464309
0.3315421107
0.331538137
0.3315345267
0.3315312897
0.3315284766
0.3315263733
0.3315800727
0.3315782135
0.3315757417
0.3315727164
0.3315692432
0.3315654495
0.3315614637
0.3315574023
0.331553363
0.3315494235
0.3315456448
0.3315420854
0.3315388584
0.331536371
0.3315811622
0.3315799999
0.3315783612
0.3315762272
0.331573622
0.3315706043
0.3315672556
0.331563668
0.3315599343
0.3315561416
0.33155237
0.3315487045
0.331545295
0.3315426198
0.3315813301
0.3315800727
0.3315782135
0.3315757417
0.3315727163
0.3315692431
0.3315654494
0.3315614635
0.3315574021
0.3315533628
0.3315494233
0.3315456445
0.3315420851
0.3315388581
0.3315363707
0.331577621
0.3315743641
0.3315703998
0.3315659679
0.3315613082
0.3315566216
0.331552057
0.3315477131
0.3315436477
0.3315398887
0.3315364457
0.3315333271
0.3315305869
0.3315285195
0.3315714611
0.3315651485
0.3315583009
0.3315514989
0.3315451375
0.3315394298
0.3315344512
0.3315301884
0.33152658
0.3315235443
0.3315209977
0.3315188679
0.3315171204
0.3315158655
0.3315605324
0.3315500577
0.3315401207
0.3315314612
0.3315243323
0.3315186931
0.3315143617
0.331511111
0.3315087192
0.3315069925
0.331505771
0.331504928
0.3315043672
0.3315040352
0.3315502425
0.3315376568
0.3315270203
0.3315186039
0.3315122314
0.3315075703
0.3315042694
0.3315020149
0.331500547
0.3314996596
0.3314991928
0.3314990225
0.3314990455
0.3314991504
0.3315605325
0.3315500579
0.3315401208
0.3315314614
0.3315243325
0.3315186933
0.3315143619
0.3315111112
0.3315087194
0.3315069927
0.3315057712
0.3315049282
0.3315043675
0.3315040354
0.3315714612
0.3315651486
0.3315583011
0.331551499
0.3315451376
0.33153943
0.3315344514
0.3315301887
0.3315265802
0.3315235446
0.331520998
0.3315188682
0.3315171207
0.3315158658
0.3315776211
0.3315743642
0.3315703999
0.331565968
0.3315613084
0.3315566218
0.3315520573
0.3315477134
0.331543648
0.331539889
0.3315364461
0.3315333274
0.3315305874
0.33152852
0.3315800727
0.3315782135
0.3315757417
0.3315727164
0.3315692433
0.3315654495
0.3315614637
0.3315574023
0.3315533631
0.3315494236
0.3315456448
0.3315420855
0.3315388585
0.3315363711
0.3315800312
0.331577669
0.3315743894
0.3315703387
0.3315657472
0.3315608631
0.3315559077
0.3315510558
0.3315464308
0.3315421106
0.3315381368
0.3315345265
0.3315312895
0.3315284764
0.3315263731
0.3315765684
0.3315714611
0.3315651485
0.331558301
0.331551499
0.3315451376
0.3315394299
0.3315344513
0.3315301885
0.33152658
0.3315235444
0.3315209978
0.3315188679
0.3315171205
0.3315158655
0.331553297
0.3315400176
0.3315280253
0.3315182212
0.3315107816
0.3315054806
0.3315019302
0.3314997214
0.3314984916
0.3314979465
0.3314978608
0.3314980653
0.3314984243
0.3314987802
0.3315129687
0.3314906086
0.3314752511
0.3314662406
0.3314620608
0.331461194
0.3314624208
0.3314648608
0.3314679189
0.3314712115
0.3314745002
0.3314776324
0.3314804625
0.3314826272
0.3314602566
0.3314380915
0.3314286713
0.3314271218
0.331429975
0.3314350538
0.3314410723
0.3314473011
0.3314533443
0.3314590006
0.3314641777
0.3314688307
0.3314728745
0.3314758957
0.3315129693
0.3314906092
0.3314752517
0.3314662411
0.3314620612
0.3314611944
0.3314624212
0.3314648612
0.3314679192
0.3314712118
0.3314745005
0.3314776327
0.3314804627
0.3314826275
0.3315532974
0.331540018
0.3315280257
0.3315182216
0.3315107821
0.331505481
0.3315019306
0.3314997219
0.331498492
0.331497947
0.3314978613
0.3314980658
0.3314984247
0.3314987807
0.3315714612
0.3315651486
0.3315583012
0.3315514992
0.3315451378
0.3315394302
0.3315344516
0.3315301888
0.3315265804
0.3315235448
0.3315209982
0.3315188684
0.3315171209
0.331515866
0.331577669
0.3315743895
0.3315703387
0.3315657473
0.3315608632
0.3315559079
0.331551056
0.3315464311
0.3315421109
0.3315381372
0.331534527
0.33153129
0.3315284769
0.3315263736
0.3315780836
0.3315741526
0.3315690659
0.3315632369
0.3315570938
0.3315509916
0.331545184
0.3315398283
0.3315350043
0.3315307358
0.3315270096
0.3315237921
0.3315210451
0.3315187624
0.3315171131
0.3315701888
0.3315605325
0.3315500579
0.3315401208
0.3315314613
0.3315243324
0.3315186932
0.3315143618
0.3315111111
0.3315087193
0.3315069926
0.3315057711
0.3315049281
0.3315043673
0.3315040353
0.3315403419
0.3315129689
0.3314906088
0.3314752513
0.3314662407
0.3314620609
0.3314611941
0.3314624209
0.3314648609
0.3314679189
0.3314712115
0.3314745002
0.3314776324
0.3314804625
0.3314826272
0.3313749328
0.3313469763
0.3313425596
0.3313508433
0.331364758
0.3313803285
0.3313955484
0.3314095294
0.3314219707
0.3314328576
0.3314422972
0.331450417
0.3314572345
0.3314622101
0.3311045833
0.3311403863
0.3311949685
0.331247169
0.3312914563
0.3313275446
0.3313566309
0.3313801105
0.331399195
0.3314148421
0.3314277781
0.3314385223
0.3314473183
0.3314536353
0.3313749347
0.3313469776
0.3313425606
0.3313508441
0.3313647588
0.3313803291
0.331395549
0.33140953
0.3314219711
0.331432858
0.3314422976
0.3314504173
0.3314572349
0.3314622104
0.3315129693
0.3314906093
0.3314752519
0.3314662414
0.3314620616
0.3314611948
0.3314624216
0.3314648616
0.3314679196
0.3314712122
0.3314745008
0.331477633
0.3314804631
0.3314826278
0.3315605326
0.331550058
0.331540121
0.3315314616
0.3315243328
0.3315186937
0.3315143623
0.3315111116
0.3315087199
0.3315069932
0.3315057717
0.3315049287
0.3315043679
0.3315040359
0.3315741526
0.331569066
0.331563237
0.3315570939
0.3315509918
0.3315451843
0.3315398286
0.3315350047
0.3315307362
0.3315270101
0.3315237926
0.3315210456
0.331518763
0.3315171137
0.3315766251
0.3315716466
0.3315655701
0.3315589532
0.3315522631
0.3315458363
0.3315398862
0.3315345276
0.3315298033
0.3315257073
0.3315222036
0.3315192404
0.331516764
0.3315147491
0.331513318
0.3315635445
0.3315502425
0.3315376569
0.3315270205
0.331518604
0.3315122315
0.3315075705
0.3315042696
0.331502015
0.3315005471
0.3314996598
0.331499193
0.3314990226
0.3314990456
0.3314991505
0.3314998035
0.3314602564
0.3314380917
0.3314286715
0.3314271221
0.3314299752
0.3314350541
0.3314410725
0.3314473013
0.3314533445
0.3314590008
0.3314641779
0.3314688309
0.3314728747
0.3314758958
0.3311521966
0.3311045843
0.3311403871
0.3311949692
0.3312471696
0.3312914568
0.3313275449
0.3313566312
0.3313801108
0.3313991952
0.3314148422
0.3314277783
0.3314385224
0.3314473184
0.3314536354
0.3299427267
0.3305354479
0.3308632587
0.3310549775
0.3311736406
0.3312512296
0.3313045948
0.3313429723
0.3313716346
0.3313937162
0.3314111513
0.3314251475
0.3314363276
0.3314442331
0.3311045832
0.3311403881
0.3311949704
0.3312471706
0.3312914577
0.3313275457
0.3313566318
0.3313801113
0.3313991957
0.3314148427
0.3314277787
0.3314385228
0.3314473187
0.3314536357
0.3314602568
0.3314380924
0.3314286723
0.3314271229
0.3314299761
0.3314350549
0.3314410733
0.331447302
0.3314533452
0.3314590014
0.3314641785
0.3314688315
0.3314728752
0.3314758964
0.3315502426
0.3315376572
0.3315270208
0.3315186045
0.3315122321
0.3315075711
0.3315042702
0.3315020157
0.3315005478
0.3314996605
0.3314991937
0.3314990233
0.3314990463
0.3314991512
0.3315716466
0.3315655702
0.3315589533
0.3315522633
0.3315458366
0.3315398866
0.3315345281
0.3315298038
0.3315257079
0.3315222042
0.331519241
0.3315167647
0.3315147498
0.3315133187
0.3315780836
0.3315741527
0.331569066
0.331563237
0.3315570939
0.3315509917
0.3315451842
0.3315398285
0.3315350045
0.3315307359
0.3315270098
0.3315237923
0.3315210453
0.3315187626
0.3315171133
0.3315701889
0.3315605327
0.3315500581
0.331540121
0.3315314616
0.3315243327
0.3315186935
0.3315143621
0.3315111114
0.3315087196
0.3315069929
0.3315057714
0.3315049284
0.3315043676
0.3315040356
0.3315403426
0.3315129696
0.3314906095
0.331475252
0.3314662414
0.3314620615
0.3314611947
0.3314624215
0.3314648614
0.3314679194
0.331471212
0.3314745007
0.3314776329
0.3314804629
0.3314826276
0.331438125
0.3313749359
0.3313469788
0.3313425616
0.3313508449
0.3313647593
0.3313803296
0.3313955494
0.3314095303
0.3314219714
0.3314328582
0.3314422978
0.3314504175
0.331457235
0.3314622105
0.3311521975
0.3311045852
0.3311403894
0.3311949711
0.331247171
0.3312914579
0.3313275458
0.3313566319
0.3313801114
0.3313991957
0.3314148427
0.3314277787
0.3314385228
0.3314473188
0.3314536357
0.3314381247
0.3313749363
0.3313469794
0.3313425623
0.3313508456
0.33136476
0.3313803302
0.3313955499
0.3314095307
0.3314219718
0.3314328586
0.3314422982
0.3314504179
0.3314572353
0.3314622109
0.3315129689
0.3314906094
0.3314752523
0.3314662419
0.3314620621
0.3314611953
0.3314624221
0.3314648621
0.3314679201
0.3314712126
0.3314745013
0.3314776335
0.3314804635
0.3314826282
0.3315605325
0.331550058
0.3315401211
0.3315314618
0.331524333
0.3315186939
0.3315143626
0.3315111119
0.3315087202
0.3315069935
0.331505772
0.331504929
0.3315043683
0.3315040362
0.3315741526
0.331569066
0.331563237
0.331557094
0.3315509919
0.3315451844
0.3315398288
0.3315350049
0.3315307364
0.3315270104
0.3315237929
0.3315210459
0.3315187632
0.3315171139
0.3315800312
0.3315776691
0.3315743895
0.3315703388
0.3315657474
0.3315608632
0.3315559079
0.331551056
0.331546431
0.3315421108
0.3315381371
0.3315345269
0.3315312899
0.3315284768
0.3315263735
0.3315765685
0.3315714613
0.3315651487
0.3315583012
0.3315514992
0.3315451378
0.3315394302
0.3315344516
0.3315301888
0.3315265804
0.3315235448
0.3315209982
0.3315188683
0.3315171209
0.331515866
0.3315659875
0.3315532975
0.3315400182
0.3315280259
0.3315182218
0.3315107822
0.3315054812
0.3315019308
0.3314997221
0.3314984922
0.3314979472
0.3314978615
0.331498066
0.3314984249
0.3314987808
0.3315403427
0.3315129699
0.33149061
0.3314752525
0.331466242
0.3314620621
0.3314611952
0.331462422
0.3314648619
0.3314679199
0.3314712124
0.3314745011
0.3314776333
0.3314804633
0.331482628
0.3314998044
0.331460258
0.3314380935
0.3314286732
0.3314271237
0.3314299766
0.3314350553
0.3314410736
0.3314473023
0.3314533454
0.3314590016
0.3314641787
0.3314688316
0.3314728753
0.3314758965
0.3315403428
0.3315129701
0.3314906102
0.3314752528
0.3314662423
0.3314620624
0.3314611956
0.3314624223
0.3314648623
0.3314679202
0.3314712127
0.3314745014
0.3314776335
0.3314804636
0.3314826283
0.3315659874
0.3315532975
0.3315400183
0.3315280261
0.3315182221
0.3315107826
0.3315054816
0.3315019313
0.3314997226
0.3314984927
0.3314979477
0.331497862
0.3314980664
0.3314984254
0.3314987813
0.3315714611
0.3315651487
0.3315583013
0.3315514994
0.3315451381
0.3315394305
0.331534452
0.3315301893
0.3315265809
0.3315235453
0.3315209987
0.3315188689
0.3315171215
0.3315158666
0.331577669
0.3315743895
0.3315703388
0.3315657474
0.3315608633
0.3315559081
0.3315510562
0.3315464313
0.3315421112
0.3315381375
0.3315345273
0.3315312904
0.3315284773
0.331526374
0.3315813301
0.3315800727
0.3315782135
0.3315757417
0.3315727164
0.3315692433
0.3315654496
0.3315614637
0.3315574023
0.3315533631
0.3315494236
0.3315456448
0.3315420855
0.3315388585
0.3315363711
0.3315799981
0.3315776211
0.3315743643
0.3315704
0.3315659681
0.3315613085
0.3315566219
0.3315520574
0.3315477135
0.3315436481
0.3315398891
0.3315364462
0.3315333276
0.3315305875
0.3315285201
0.3315765686
0.3315714613
0.3315651487
0.3315583013
0.3315514993
0.3315451379
0.3315394303
0.3315344518
0.331530189
0.3315265806
0.3315235449
0.3315209983
0.3315188685
0.3315171211
0.3315158662
0.331570189
0.3315605328
0.3315500583
0.3315401213
0.331531462
0.3315243331
0.3315186939
0.3315143626
0.3315111119
0.3315087201
0.3315069934
0.3315057719
0.3315049289
0.3315043681
0.3315040361
0.3315635447
0.331550243
0.3315376576
0.3315270212
0.3315186049
0.3315122324
0.3315075714
0.3315042705
0.3315020159
0.331500548
0.3314996607
0.3314991938
0.3314990234
0.3314990464
0.3314991513
0.331570189
0.3315605329
0.3315500584
0.3315401215
0.3315314621
0.3315243333
0.3315186941
0.3315143628
0.3315111121
0.3315087203
0.3315069936
0.3315057721
0.3315049291
0.3315043684
0.3315040363
0.3315765686
0.3315714613
0.3315651488
0.3315583014
0.3315514995
0.3315451382
0.3315394306
0.3315344521
0.3315301893
0.3315265809
0.3315235453
0.3315209987
0.3315188689
0.3315171215
0.3315158666
0.331579998
0.3315776211
0.3315743643
0.3315704
0.3315659682
0.3315613086
0.3315566221
0.3315520576
0.3315477138
0.3315436484
0.3315398895
0.3315364466
0.331533328
0.3315305879
0.3315285205
0.3315800727
0.3315782135
0.3315757417
0.3315727164
0.3315692433
0.3315654497
0.3315614639
0.3315574025
0.3315533633
0.3315494239
0.3315456452
0.3315420859
0.3315388589
0.3315363716
0.331581911
0.3315811622
0.3315799999
0.3315783613
0.3315762272
0.331573622
0.3315706043
0.3315672557
0.3315636681
0.3315599344
0.3315561416
0.3315523701
0.3315487046
0.3315452951
0.3315426199
0.3315813301
0.3315800727
0.3315782135
0.3315757418
0.3315727164
0.3315692433
0.3315654496
0.3315614638
0.3315574024
0.3315533631
0.3315494237
0.3315456449
0.3315420855
0.3315388586
0.3315363712
0.3315800312
0.3315776691
0.3315743895
0.3315703388
0.3315657474
0.3315608633
0.331555908
0.3315510561
0.3315464312
0.331542111
0.3315381373
0.3315345271
0.3315312901
0.331528477
0.3315263737
0.3315780836
0.3315741527
0.3315690661
0.3315632371
0.3315570941
0.331550992
0.3315451844
0.3315398288
0.3315350048
0.3315307363
0.3315270103
0.3315237928
0.3315210458
0.3315187631
0.3315171138
0.3315766252
0.3315716467
0.3315655703
0.3315589535
0.3315522635
0.3315458368
0.3315398868
0.3315345282
0.3315298039
0.331525708
0.3315222044
0.3315192411
0.3315167648
0.3315147499
0.3315133189
0.3315780836
0.3315741527
0.3315690661
0.3315632372
0.3315570941
0.331550992
0.3315451845
0.3315398289
0.331535005
0.3315307365
0.3315270104
0.3315237929
0.331521046
0.3315187633
0.331517114
0.3315800312
0.3315776691
0.3315743896
0.3315703389
0.3315657475
0.3315608634
0.3315559082
0.3315510563
0.3315464314
0.3315421113
0.3315381376
0.3315345274
0.3315312904
0.3315284774
0.3315263741
0.3315813301
0.3315800727
0.3315782135
0.3315757418
0.3315727165
0.3315692434
0.3315654497
0.331561464
0.3315574026
0.3315533634
0.331549424
0.3315456452
0.3315420859
0.331538859
0.3315363716
0.3315819109
0.3315811622
0.3315799999
0.3315783613
0.3315762273
0.331573622
0.3315706044
0.3315672558
0.3315636682
0.3315599346
0.3315561419
0.3315523704
0.3315487049
0.3315452955
0.3315426204
)
;

boundaryField
{
    top
    {
        type            zeroGradient;
    }
    bottom
    {
        type            zeroGradient;
    }
    side-walls
    {
        type            zeroGradient;
    }
    inlet
    {
        type            zeroGradient;
    }
    outlet
    {
        type            zeroGradient;
    }
    procBoundary1to0
    {
        type            processor;
        value           nonuniform List<scalar> 
97
(
0.3315819109
0.3315819109
0.3315813301
0.3315800312
0.3315780836
0.3315766252
0.3315780836
0.3315800313
0.3315813301
0.331581911
0.3315820747
0.331579998
0.331579998
0.331579998
0.3315765685
0.331570189
0.3315635448
0.3315701891
0.3315765686
0.3315799981
0.3315813301
0.3315814855
0.3315799636
0.3315659873
0.3315659873
0.3315659873
0.3315403426
0.3314998049
0.3315403432
0.3315659878
0.3315765686
0.3315800313
0.3315806234
0.3315772845
0.3315656252
0.331438123
0.331438123
0.331438123
0.3311522023
0.3314381263
0.3315403432
0.3315701891
0.3315780836
0.331580009
0.3315747616
0.3315527025
0.33146555
0.3288101625
0.3288101625
0.3288101625
0.3311522013
0.3311522013
0.3314998049
0.3315635448
0.3315766252
0.3315806234
0.3315772845
0.3315656252
0.3315317939
0.3314655501
0.3315317941
0.3315403422
0.3315403422
0.3315403422
0.331570189
0.3315780836
0.3315814855
0.3315799636
0.3315755109
0.3315656252
0.3315527029
0.3315656253
0.3315755109
0.3315765685
0.3315765685
0.3315765685
0.3315800312
0.3315820747
0.3315814737
0.3315799636
0.3315772845
0.3315747617
0.3315772845
0.3315799636
0.3315814737
0.3315813301
0.3315813301
0.3315813301
0.3315823418
0.3315820747
0.3315814855
0.3315806234
0.331580009
0.3315806234
0.3315814855
0.3315820747
0.3315823418
)
;
    }
}


// ************************************************************************* //
