/*--------------------------------*- C++ -*----------------------------------*\
| =========                 |                                                 |
| \\      /  F ield         | OpenFOAM: The Open Source CFD Toolbox           |
|  \\    /   O peration     | Version:  4.x                                   |
|   \\  /    A nd           | Web:      www.OpenFOAM.org                      |
|    \\/     M anipulation  |                                                 |
\*---------------------------------------------------------------------------*/
FoamFile
{
    version     2.0;
    format      ascii;
    class       volScalarField;
    location    "9000";
    object      Cpv;
}
// * * * * * * * * * * * * * * * * * * * * * * * * * * * * * * * * * * * * * //

dimensions      [0 2 -2 -1 0 0 0];

internalField   nonuniform List<scalar> 
1174
(
1245.091113
1245.09109
1245.091057
1245.091042
1245.091028
1245.090994
1245.090967
1245.090921
1245.090874
1245.090829
1245.090756
1245.090709
1245.090644
1245.090629
1245.090921
1245.090905
1245.0909
1245.090876
1245.090839
1245.090788
1245.090735
1245.090714
1245.090684
1245.090649
1245.09061
1245.090576
1245.090534
1245.090511
1245.09102
1245.090971
1245.090947
1245.090871
1245.090808
1245.090749
1245.090689
1245.090618
1245.090562
1245.090506
1245.09047
1245.090434
1245.090414
1245.090384
1245.091226
1245.09119
1245.091128
1245.091046
1245.090964
1245.090873
1245.090808
1245.090734
1245.090704
1245.09066
1245.090613
1245.090576
1245.09054
1245.09052
1245.091227
1245.091158
1245.091112
1245.091018
1245.090918
1245.090849
1245.090771
1245.090736
1245.090683
1245.090667
1245.090633
1245.090614
1245.090595
1245.090593
1245.089744
1245.089691
1245.089651
1245.089595
1245.089532
1245.089491
1245.089433
1245.089384
1245.089314
1245.089283
1245.089243
1245.08921
1245.089161
1245.089147
1245.089921
1245.08987
1245.089831
1245.089796
1245.089748
1245.089701
1245.089639
1245.089583
1245.089545
1245.089523
1245.089485
1245.089416
1245.0894
1245.089361
1245.090802
1245.090793
1245.090783
1245.09074
1245.09068
1245.090638
1245.09058
1245.090503
1245.090467
1245.090425
1245.090401
1245.090362
1245.090313
1245.090296
1245.090857
1245.090831
1245.090834
1245.090792
1245.090762
1245.090751
1245.090705
1245.090669
1245.09063
1245.090574
1245.09052
1245.090499
1245.090446
1245.090434
1245.090682
1245.090642
1245.090615
1245.090593
1245.090541
1245.090487
1245.090427
1245.090373
1245.090326
1245.090279
1245.090211
1245.090167
1245.090143
1245.090106
1245.09006
1245.091499
1245.09147
1245.091455
1245.091415
1245.091351
1245.091275
1245.091207
1245.091129
1245.091083
1245.091057
1245.091031
1245.091013
1245.090991
1245.090961
1245.091299
1245.091239
1245.091148
1245.09106
1245.090965
1245.090901
1245.090842
1245.090777
1245.090728
1245.09069
1245.090645
1245.090635
1245.09061
1245.090597
1245.090374
1245.090253
1245.090114
1245.089998
1245.089912
1245.089833
1245.089781
1245.089738
1245.089679
1245.089654
1245.089644
1245.089654
1245.089637
1245.089637
1245.090548
1245.090406
1245.090288
1245.090212
1245.090158
1245.090096
1245.09003
1245.090006
1245.089988
1245.089992
1245.090006
1245.089989
1245.089993
1245.089964
1245.091419
1245.091283
1245.091151
1245.091025
1245.090926
1245.090857
1245.090815
1245.090772
1245.090736
1245.090697
1245.090693
1245.090653
1245.090659
1245.090636
1245.092158
1245.09208
1245.091978
1245.091882
1245.091797
1245.091737
1245.09165
1245.09159
1245.091551
1245.09151
1245.091445
1245.09143
1245.091413
1245.091367
1245.090005
1245.089957
1245.089898
1245.089835
1245.089798
1245.089711
1245.089643
1245.089598
1245.089558
1245.08951
1245.089458
1245.089428
1245.08942
1245.089409
1245.090945
1245.090914
1245.090876
1245.090865
1245.090825
1245.090776
1245.090718
1245.090672
1245.090622
1245.090588
1245.090538
1245.090522
1245.090457
1245.090407
1245.091038
1245.091038
1245.091008
1245.090967
1245.090892
1245.09084
1245.090772
1245.090723
1245.090642
1245.090591
1245.090535
1245.090511
1245.090462
1245.090438
1245.090423
1245.090327
1245.090282
1245.090197
1245.090096
1245.089999
1245.089936
1245.089875
1245.089784
1245.089754
1245.089725
1245.089673
1245.089637
1245.089626
1245.089618
1245.089602
1245.090053
1245.089917
1245.089764
1245.089664
1245.08957
1245.089521
1245.089478
1245.089461
1245.089455
1245.089462
1245.089484
1245.089496
1245.089512
1245.089548
1245.089872
1245.089591
1245.089448
1245.089344
1245.089299
1245.089285
1245.089325
1245.089351
1245.089382
1245.08941
1245.089449
1245.089475
1245.089529
1245.08958
1245.090209
1245.089917
1245.089794
1245.089767
1245.089788
1245.089864
1245.089952
1245.090028
1245.090085
1245.090177
1245.090251
1245.090323
1245.090375
1245.090394
1245.089081
1245.088832
1245.088645
1245.088534
1245.088468
1245.088428
1245.088441
1245.088505
1245.088535
1245.088588
1245.088605
1245.088653
1245.088697
1245.088718
1245.090179
1245.090012
1245.089856
1245.089743
1245.089684
1245.089639
1245.089577
1245.089549
1245.089504
1245.089469
1245.089466
1245.089477
1245.089461
1245.08948
1245.090876
1245.090794
1245.090701
1245.090596
1245.090533
1245.090458
1245.090407
1245.090364
1245.090313
1245.090312
1245.090262
1245.090219
1245.090197
1245.090191
1245.090315
1245.09028
1245.090245
1245.090198
1245.090108
1245.090048
1245.089985
1245.089949
1245.089892
1245.089841
1245.089812
1245.089763
1245.089728
1245.089716
1245.090453
1245.0904
1245.090315
1245.090247
1245.090168
1245.090095
1245.090052
1245.089995
1245.089938
1245.089886
1245.089815
1245.089789
1245.089761
1245.089742
1245.089727
1245.090446
1245.090331
1245.090209
1245.090084
1245.089969
1245.089918
1245.089842
1245.089799
1245.089761
1245.089744
1245.089739
1245.089721
1245.089728
1245.089697
1245.089696
1245.089203
1245.088864
1245.08864
1245.088452
1245.088313
1245.088248
1245.088224
1245.088215
1245.088273
1245.088288
1245.088321
1245.088354
1245.088368
1245.088386
1245.088442
1245.088354
1245.088029
1245.087964
1245.088069
1245.08823
1245.088424
1245.088604
1245.088764
1245.088936
1245.089082
1245.08918
1245.089292
1245.089372
1245.089459
1245.084842
1245.085257
1245.085915
1245.08653
1245.087054
1245.087493
1245.087845
1245.088104
1245.088318
1245.088507
1245.088662
1245.088834
1245.088955
1245.089005
1245.08833
1245.087977
1245.087934
1245.088042
1245.088204
1245.088378
1245.088569
1245.088737
1245.088894
1245.089007
1245.089152
1245.089238
1245.089331
1245.089364
1245.089889
1245.089632
1245.089464
1245.089359
1245.089306
1245.089305
1245.089347
1245.089373
1245.089416
1245.089467
1245.089517
1245.089571
1245.089608
1245.089644
1245.090827
1245.090678
1245.090553
1245.090432
1245.090368
1245.090323
1245.090277
1245.090213
1245.090192
1245.090164
1245.090133
1245.09013
1245.090119
1245.090131
1245.091097
1245.09103
1245.090959
1245.090907
1245.090843
1245.090758
1245.090698
1245.090648
1245.090597
1245.090553
1245.090509
1245.090486
1245.09045
1245.090435
1245.090969
1245.090902
1245.090846
1245.090765
1245.090712
1245.090651
1245.090572
1245.090502
1245.090453
1245.090394
1245.090359
1245.090311
1245.090255
1245.090232
1245.090223
1245.090345
1245.090196
1245.090029
1245.089912
1245.08983
1245.089758
1245.089676
1245.089647
1245.089608
1245.08958
1245.089559
1245.08955
1245.089549
1245.089539
1245.089498
1245.09178
1245.091286
1245.09104
1245.090933
1245.09092
1245.090986
1245.091058
1245.09115
1245.091213
1245.091258
1245.091314
1245.091387
1245.091433
1245.091459
1245.091512
1245.08574
1245.085176
1245.085568
1245.086246
1245.086857
1245.087387
1245.087802
1245.08815
1245.088436
1245.088673
1245.08888
1245.089034
1245.089126
1245.08924
1245.089314
1244.53892
1244.54592
1244.549634
1244.551684
1244.552813
1244.553427
1244.55376
1244.553893
1244.553936
1244.553893
1244.553769
1244.553596
1244.553403
1244.553196
1245.085228
1245.085662
1245.086301
1245.086935
1245.087446
1245.087884
1245.088236
1245.08853
1245.088757
1245.088927
1245.089107
1245.089242
1245.089377
1245.089468
1245.089257
1245.088964
1245.088882
1245.088873
1245.088905
1245.08895
1245.08902
1245.089077
1245.089167
1245.089251
1245.089304
1245.089332
1245.089369
1245.089408
1245.090021
1245.089892
1245.089779
1245.089685
1245.089618
1245.089548
1245.089525
1245.089493
1245.089485
1245.089489
1245.089451
1245.089451
1245.089466
1245.089463
1245.090263
1245.090173
1245.0901
1245.090027
1245.089942
1245.089871
1245.089826
1245.08976
1245.089716
1245.089672
1245.089638
1245.089605
1245.089584
1245.089557
1245.090448
1245.090429
1245.09038
1245.090285
1245.0902
1245.09012
1245.090026
1245.089953
1245.089844
1245.089798
1245.089735
1245.089705
1245.089692
1245.089679
1245.089636
1245.090061
1245.089923
1245.089824
1245.089703
1245.089584
1245.089467
1245.089398
1245.089361
1245.089329
1245.089293
1245.089289
1245.089256
1245.089274
1245.089259
1245.089241
1245.090129
1245.089778
1245.089487
1245.089285
1245.089182
1245.089169
1245.089161
1245.089171
1245.089244
1245.089274
1245.089305
1245.089361
1245.089401
1245.089478
1245.089495
1245.088801
1245.088032
1245.087727
1245.087674
1245.087763
1245.087933
1245.088099
1245.088275
1245.088436
1245.088555
1245.088673
1245.088775
1245.088884
1245.088942
1245.08899
1245.085147
1245.084615
1245.085047
1245.085676
1245.086303
1245.086839
1245.087271
1245.087643
1245.087938
1245.08815
1245.088344
1245.08847
1245.088574
1245.088684
1245.088746
1245.088559
1245.087801
1245.087465
1245.087411
1245.087522
1245.08768
1245.08787
1245.088054
1245.088239
1245.088382
1245.088488
1245.088593
1245.088686
1245.088775
1245.088826
1245.090022
1245.089712
1245.089521
1245.089382
1245.089355
1245.089351
1245.089371
1245.089412
1245.089451
1245.089487
1245.089533
1245.089566
1245.089568
1245.089606
1245.090281
1245.090187
1245.090069
1245.089971
1245.089893
1245.089807
1245.089772
1245.089742
1245.089721
1245.08967
1245.08965
1245.089675
1245.089681
1245.089672
1245.090273
1245.090225
1245.090127
1245.09006
1245.090003
1245.089937
1245.089895
1245.089851
1245.089804
1245.089764
1245.089716
1245.089705
1245.089689
1245.0897
1245.090153
1245.0901
1245.090089
1245.090024
1245.089969
1245.089879
1245.089817
1245.089756
1245.089691
1245.089623
1245.089597
1245.089549
1245.089494
1245.089472
1245.089454
1245.091278
1245.091201
1245.09115
1245.091062
1245.090991
1245.090928
1245.090856
1245.090813
1245.09078
1245.090753
1245.090705
1245.090685
1245.090679
1245.090658
1245.090634
1245.092068
1245.091928
1245.091774
1245.091627
1245.09151
1245.091418
1245.09133
1245.091267
1245.091226
1245.091225
1245.091248
1245.091245
1245.091243
1245.09125
1245.091266
1245.090339
1245.090002
1245.089746
1245.089573
1245.089493
1245.089438
1245.08943
1245.089441
1245.089475
1245.089534
1245.089584
1245.089603
1245.089603
1245.089637
1245.089687
1245.089158
1245.08867
1245.088424
1245.0883
1245.088268
1245.088314
1245.088361
1245.088403
1245.088477
1245.088525
1245.088594
1245.088669
1245.08874
1245.088799
1245.088862
1245.090343
1245.090033
1245.089766
1245.089566
1245.089463
1245.089403
1245.089389
1245.089437
1245.089465
1245.08953
1245.089564
1245.089605
1245.0896
1245.089636
1245.08966
1245.090535
1245.0904
1245.090236
1245.090087
1245.089987
1245.089884
1245.089829
1245.089799
1245.08979
1245.08978
1245.089795
1245.089781
1245.089803
1245.089808
1245.089829
1245.090156
1245.090071
1245.090001
1245.089921
1245.089883
1245.089826
1245.089779
1245.089717
1245.089695
1245.089661
1245.089641
1245.089618
1245.089594
1245.089565
1245.091289
1245.091268
1245.091221
1245.091157
1245.09111
1245.091033
1245.090973
1245.090916
1245.090863
1245.09082
1245.090774
1245.090743
1245.090718
1245.09068
1245.091185
1245.091176
1245.091172
1245.091116
1245.091091
1245.091027
1245.090989
1245.090945
1245.090877
1245.090853
1245.090802
1245.090784
1245.090775
1245.090724
1245.090709
1245.090869
1245.090854
1245.090823
1245.090793
1245.090713
1245.090637
1245.090578
1245.090518
1245.090428
1245.090371
1245.090343
1245.090293
1245.090244
1245.090211
1245.090208
1245.090943
1245.090881
1245.090803
1245.090722
1245.090672
1245.09061
1245.090525
1245.090477
1245.090421
1245.090397
1245.090351
1245.090302
1245.090271
1245.090272
1245.090247
1245.090813
1245.090684
1245.090566
1245.090452
1245.090351
1245.09028
1245.090226
1245.090144
1245.090098
1245.090091
1245.090054
1245.090053
1245.09005
1245.090017
1245.090033
1245.090983
1245.090812
1245.090665
1245.090545
1245.090442
1245.090391
1245.09036
1245.090296
1245.090273
1245.090287
1245.090257
1245.090228
1245.090199
1245.090222
1245.090224
1245.090469
1245.090337
1245.090204
1245.090134
1245.090019
1245.089957
1245.089896
1245.089843
1245.089793
1245.089772
1245.089741
1245.089733
1245.089737
1245.089705
1245.089716
1245.090616
1245.090574
1245.090491
1245.090397
1245.090321
1245.090222
1245.090134
1245.090061
1245.090016
1245.089999
1245.089988
1245.089985
1245.089954
1245.089942
1245.089937
1245.090994
1245.090943
1245.09091
1245.09087
1245.090824
1245.090747
1245.090694
1245.090671
1245.090619
1245.090564
1245.090527
1245.09045
1245.090403
1245.090389
1245.090338
1245.091453
1245.091417
1245.09137
1245.091323
1245.091271
1245.091206
1245.091124
1245.091069
1245.091028
1245.090973
1245.090921
1245.090878
1245.090834
1245.090829
1245.090549
1245.09054
1245.09053
1245.090532
1245.090518
1245.090491
1245.090435
1245.090392
1245.090337
1245.090286
1245.090247
1245.0902
1245.090161
1245.090102
1245.090056
1245.091165
1245.091137
1245.091138
1245.091101
1245.091067
1245.091044
1245.090985
1245.090922
1245.090882
1245.090836
1245.090765
1245.090741
1245.090707
1245.090666
1245.090611
1245.090634
1245.090625
1245.090571
1245.090513
1245.090458
1245.090422
1245.090352
1245.090311
1245.090254
1245.090175
1245.090145
1245.090112
1245.090085
1245.090038
1245.090012
1245.091358
1245.09133
1245.091293
1245.091225
1245.091145
1245.091043
1245.090968
1245.090942
1245.090888
1245.090853
1245.090817
1245.090764
1245.090742
1245.090742
1245.090716
1245.09061
1245.090551
1245.09049
1245.090433
1245.090358
1245.090308
1245.090246
1245.090188
1245.090118
1245.090053
1245.090002
1245.089965
1245.08993
1245.089899
1245.089873
1245.091837
1245.091783
1245.091718
1245.091639
1245.091557
1245.091473
1245.091394
1245.091338
1245.091256
1245.091205
1245.091187
1245.091151
1245.091125
1245.091123
1245.091087
1245.090744
1245.090731
1245.090698
1245.090652
1245.090579
1245.090533
1245.090504
1245.090433
1245.090383
1245.090316
1245.09028
1245.090231
1245.090202
1245.090185
1245.090169
1245.090404
1245.090374
1245.090352
1245.090319
1245.090262
1245.090235
1245.090192
1245.090153
1245.090101
1245.090052
1245.090003
1245.08997
1245.089916
1245.089865
1245.089843
1245.090751
1245.090747
1245.090739
1245.090729
1245.090698
1245.090678
1245.090635
1245.090607
1245.090586
1245.090544
1245.090498
1245.090443
1245.090395
1245.090329
1245.090317
)
;

boundaryField
{
    top
    {
        type            calculated;
        value           nonuniform List<scalar> 
127
(
1245.090751
1245.090857
1245.090945
1245.090315
1245.091097
1245.090263
1245.090273
1245.091289
1245.091453
1245.090747
1245.090831
1245.090914
1245.09028
1245.09103
1245.090173
1245.090225
1245.091268
1245.091417
1245.090739
1245.090834
1245.090876
1245.090245
1245.090959
1245.0901
1245.090127
1245.091221
1245.09137
1245.090729
1245.090792
1245.090865
1245.090198
1245.090907
1245.090027
1245.09006
1245.091157
1245.091323
1245.090698
1245.090762
1245.090825
1245.090108
1245.090843
1245.089942
1245.090003
1245.09111
1245.091271
1245.090678
1245.090751
1245.090776
1245.090048
1245.090758
1245.089871
1245.089937
1245.091033
1245.091206
1245.090635
1245.090705
1245.090718
1245.089985
1245.090698
1245.089826
1245.089895
1245.090973
1245.091124
1245.090607
1245.090669
1245.090672
1245.089949
1245.090648
1245.08976
1245.089851
1245.090916
1245.091069
1245.090586
1245.09063
1245.090622
1245.089892
1245.090597
1245.089716
1245.089804
1245.090863
1245.091028
1245.090544
1245.090574
1245.090588
1245.089841
1245.090553
1245.089672
1245.089764
1245.09082
1245.090973
1245.090498
1245.09052
1245.090538
1245.089812
1245.090509
1245.089638
1245.089716
1245.090774
1245.090921
1245.090443
1245.090499
1245.090522
1245.089763
1245.090486
1245.089605
1245.089705
1245.090743
1245.090878
1245.090395
1245.090446
1245.090457
1245.089728
1245.09045
1245.089584
1245.089689
1245.090718
1245.090834
1245.090329
1245.090434
1245.090407
1245.089716
1245.090435
1245.089557
1245.0897
1245.09068
1245.090829
1245.090317
)
;
    }
    bottom
    {
        type            calculated;
        value           nonuniform List<scalar> 
134
(
1245.090682
1245.091038
1245.090453
1245.090969
1245.090448
1245.090153
1245.091185
1245.090549
1245.091113
1245.090642
1245.091038
1245.0904
1245.090902
1245.090429
1245.0901
1245.091176
1245.09054
1245.09109
1245.090615
1245.091008
1245.090315
1245.090846
1245.09038
1245.090089
1245.091172
1245.09053
1245.091057
1245.090593
1245.090967
1245.090247
1245.090765
1245.090285
1245.090024
1245.091116
1245.090532
1245.091042
1245.090541
1245.090892
1245.090168
1245.090712
1245.0902
1245.089969
1245.091091
1245.090518
1245.091028
1245.090487
1245.09084
1245.090095
1245.090651
1245.09012
1245.089879
1245.091027
1245.090491
1245.090994
1245.090427
1245.090772
1245.090052
1245.090572
1245.090026
1245.089817
1245.090989
1245.090435
1245.090967
1245.090373
1245.090723
1245.089995
1245.090502
1245.089953
1245.089756
1245.090945
1245.090392
1245.090921
1245.090326
1245.090642
1245.089938
1245.090453
1245.089844
1245.089691
1245.090877
1245.090337
1245.090874
1245.090279
1245.090591
1245.089886
1245.090394
1245.089798
1245.089623
1245.090853
1245.090286
1245.090829
1245.090211
1245.090535
1245.089815
1245.090359
1245.089735
1245.089597
1245.090802
1245.090247
1245.090756
1245.090167
1245.090511
1245.089789
1245.090311
1245.089705
1245.089549
1245.090784
1245.0902
1245.090709
1245.090143
1245.090462
1245.089761
1245.090255
1245.089692
1245.089494
1245.090775
1245.090161
1245.090644
1245.090106
1245.090438
1245.089742
1245.090232
1245.089679
1245.089472
1245.090724
1245.090102
1245.090629
1245.09006
1245.090423
1245.089727
1245.090223
1245.089636
1245.089454
1245.090709
1245.090056
)
;
    }
    side-walls
    {
        type            calculated;
        value           nonuniform List<scalar> 
261
(
1245.091113
1245.090921
1245.09102
1245.091226
1245.091227
1245.089744
1245.089921
1245.090802
1245.090857
1245.09109
1245.090905
1245.090971
1245.09119
1245.091158
1245.089691
1245.08987
1245.090793
1245.090831
1245.091057
1245.0909
1245.090947
1245.091128
1245.091112
1245.089651
1245.089831
1245.090783
1245.090834
1245.091042
1245.090876
1245.090871
1245.091046
1245.091018
1245.089595
1245.089796
1245.09074
1245.090792
1245.091028
1245.090839
1245.090808
1245.090964
1245.090918
1245.089532
1245.089748
1245.09068
1245.090762
1245.090994
1245.090788
1245.090749
1245.090873
1245.090849
1245.089491
1245.089701
1245.090638
1245.090751
1245.090967
1245.090735
1245.090689
1245.090808
1245.090771
1245.089433
1245.089639
1245.09058
1245.090705
1245.090921
1245.090714
1245.090618
1245.090734
1245.090736
1245.089384
1245.089583
1245.090503
1245.090669
1245.090874
1245.090684
1245.090562
1245.090704
1245.090683
1245.089314
1245.089545
1245.090467
1245.09063
1245.090829
1245.090649
1245.090506
1245.09066
1245.090667
1245.089283
1245.089523
1245.090425
1245.090574
1245.090756
1245.09061
1245.09047
1245.090613
1245.090633
1245.089243
1245.089485
1245.090401
1245.09052
1245.090709
1245.090576
1245.090434
1245.090576
1245.090614
1245.08921
1245.089416
1245.090362
1245.090499
1245.090644
1245.090534
1245.090414
1245.09054
1245.090595
1245.089161
1245.0894
1245.090313
1245.090446
1245.090629
1245.090511
1245.090384
1245.09052
1245.090593
1245.089147
1245.089361
1245.090296
1245.090434
1245.090549
1245.091165
1245.090634
1245.091358
1245.09061
1245.091837
1245.090744
1245.090404
1245.090751
1245.09054
1245.091137
1245.090625
1245.09133
1245.090551
1245.091783
1245.090731
1245.090374
1245.090747
1245.09053
1245.091138
1245.090571
1245.091293
1245.09049
1245.091718
1245.090698
1245.090352
1245.090739
1245.090532
1245.091101
1245.090513
1245.091225
1245.090433
1245.091639
1245.090652
1245.090319
1245.090729
1245.090518
1245.091067
1245.090458
1245.091145
1245.090358
1245.091557
1245.090579
1245.090262
1245.090698
1245.090491
1245.091044
1245.090422
1245.091043
1245.090308
1245.091473
1245.090533
1245.090235
1245.090678
1245.090435
1245.090985
1245.090352
1245.090968
1245.090246
1245.091394
1245.090504
1245.090192
1245.090635
1245.090392
1245.090922
1245.090311
1245.090942
1245.090188
1245.091338
1245.090433
1245.090153
1245.090607
1245.090337
1245.090882
1245.090254
1245.090888
1245.090118
1245.091256
1245.090383
1245.090101
1245.090586
1245.090286
1245.090836
1245.090175
1245.090853
1245.090053
1245.091205
1245.090316
1245.090052
1245.090544
1245.090247
1245.090765
1245.090145
1245.090817
1245.090002
1245.091187
1245.09028
1245.090003
1245.090498
1245.0902
1245.090741
1245.090112
1245.090764
1245.089965
1245.091151
1245.090231
1245.08997
1245.090443
1245.090161
1245.090707
1245.090085
1245.090742
1245.08993
1245.091125
1245.090202
1245.089916
1245.090395
1245.090102
1245.090666
1245.090038
1245.090742
1245.089899
1245.091123
1245.090185
1245.089865
1245.090329
1245.090056
1245.090611
1245.090012
1245.090716
1245.089873
1245.091087
1245.090169
1245.089843
1245.090317
)
;
    }
    inlet
    {
        type            calculated;
        value           nonuniform 0();
    }
    outlet
    {
        type            calculated;
        value           nonuniform List<scalar> 
81
(
1245.090629
1245.090511
1245.090384
1245.09052
1245.090593
1245.089147
1245.089361
1245.090296
1245.090434
1245.09006
1245.090961
1245.090597
1245.089637
1245.089964
1245.090636
1245.091367
1245.089409
1245.090407
1245.090423
1245.089602
1245.089548
1245.08958
1245.090394
1245.088718
1245.08948
1245.090191
1245.089716
1245.089727
1245.089696
1245.088442
1245.089459
1245.089005
1245.089364
1245.089644
1245.090131
1245.090435
1245.090223
1245.089498
1245.091512
1245.089314
1244.553196
1245.089468
1245.089408
1245.089463
1245.089557
1245.089636
1245.089241
1245.089495
1245.08899
1245.088746
1245.088826
1245.089606
1245.089672
1245.0897
1245.089454
1245.090634
1245.091266
1245.089687
1245.088862
1245.08966
1245.089829
1245.089565
1245.09068
1245.090709
1245.090208
1245.090247
1245.090033
1245.090224
1245.089716
1245.089937
1245.090338
1245.090829
1245.090056
1245.090611
1245.090012
1245.090716
1245.089873
1245.091087
1245.090169
1245.089843
1245.090317
)
;
    }
    procBoundary1to0
    {
        type            processor;
        value           nonuniform List<scalar> 
97
(
1245.091116
1245.091116
1245.09091
1245.091039
1245.091251
1245.091309
1245.089799
1245.089946
1245.090818
1245.090863
1245.090693
1245.091507
1245.091507
1245.091507
1245.091373
1245.090507
1245.090722
1245.091558
1245.0922
1245.090076
1245.090958
1245.091051
1245.090407
1245.09021
1245.09021
1245.09021
1245.090183
1245.090633
1245.089441
1245.090311
1245.090942
1245.090343
1245.090479
1245.090465
1245.089506
1245.089112
1245.089112
1245.089112
1245.0854
1245.089094
1245.09019
1245.090951
1245.091143
1245.091039
1245.090469
1245.092376
1245.089713
1244.524619
1244.524619
1244.524619
1245.085796
1245.085796
1245.089721
1245.09019
1245.090339
1245.09046
1245.090126
1245.090451
1245.089936
1245.089073
1245.089704
1245.090339
1245.090339
1245.090339
1245.090353
1245.090343
1245.090161
1245.091323
1245.092216
1245.090647
1245.089791
1245.090589
1245.090656
1245.090194
1245.090194
1245.090194
1245.091331
1245.091229
1245.0909
1245.09101
1245.090879
1245.09112
1245.090566
1245.090641
1245.09101
1245.091463
1245.091463
1245.091463
1245.090549
1245.091185
1245.090679
1245.091379
1245.090661
1245.091886
1245.090759
1245.090419
1245.090774
)
;
    }
}


// ************************************************************************* //
