/*--------------------------------*- C++ -*----------------------------------*\
| =========                 |                                                 |
| \\      /  F ield         | OpenFOAM: The Open Source CFD Toolbox           |
|  \\    /   O peration     | Version:  4.x                                   |
|   \\  /    A nd           | Web:      www.OpenFOAM.org                      |
|    \\/     M anipulation  |                                                 |
\*---------------------------------------------------------------------------*/
FoamFile
{
    version     2.0;
    format      ascii;
    class       volScalarField;
    location    "9000";
    object      H2;
}
// * * * * * * * * * * * * * * * * * * * * * * * * * * * * * * * * * * * * * //

dimensions      [0 0 0 0 0 0 0];

internalField   nonuniform List<scalar> 
1174
(
0.002172470098
0.002172437937
0.002172392597
0.002172333552
0.002172261473
0.002172177988
0.002172085351
0.002171986111
0.002171882837
0.002171777939
0.002171673635
0.002171572274
0.002171478
0.002171404037
0.002172439947
0.002172388499
0.002172320104
0.002172236395
0.002172140301
0.002172035345
0.002171925081
0.002171812736
0.002171701013
0.002171592062
0.002171487565
0.002171389146
0.002171299929
0.002171231165
0.002172373423
0.002172282667
0.002172170576
0.002172043531
0.002171908395
0.002171771301
0.00217163708
0.00217150915
0.002171389665
0.002171279777
0.002171179954
0.002171090467
0.002171012711
0.002170954582
0.0021722761
0.00217213533
0.002171974028
0.002171804044
0.002171635208
0.002171474539
0.002171326388
0.002171192962
0.002171074919
0.002170971894
0.00217088295
0.002170807031
0.00217074396
0.002170698399
0.002172206737
0.002172038573
0.002171855466
0.00217167035
0.002171492536
0.002171327928
0.002171179701
0.002171049039
0.002170935777
0.002170838912
0.002170757009
0.002170688584
0.002170632927
0.002170593407
0.002172276101
0.002172135333
0.00217197403
0.002171804047
0.002171635212
0.002171474543
0.002171326392
0.002171192966
0.002171074923
0.002170971898
0.002170882954
0.002170807035
0.002170743964
0.002170698404
0.002172373425
0.00217228267
0.002172170579
0.002172043534
0.002171908399
0.002171771306
0.002171637085
0.002171509156
0.002171389671
0.002171279783
0.002171179961
0.002171090474
0.002171012718
0.002170954588
0.002172439948
0.002172388501
0.002172320106
0.002172236398
0.002172140305
0.002172035348
0.002171925086
0.002171812741
0.002171701019
0.002171592068
0.002171487572
0.002171389154
0.002171299937
0.002171231173
0.002172470099
0.002172437938
0.002172392598
0.002172333554
0.002172261475
0.00217217799
0.002172085354
0.002171986115
0.002171882842
0.002171777945
0.002171673641
0.002171572281
0.002171478008
0.002171404045
0.002172474742
0.002172439947
0.0021723885
0.002172320104
0.002172236396
0.002172140302
0.002172035346
0.002171925082
0.002171812737
0.002171701015
0.002171592063
0.002171487566
0.002171389148
0.00217129993
0.002171231166
0.002172372093
0.002172281967
0.002172172267
0.002172049637
0.002171920712
0.002171791055
0.002171664784
0.002171544631
0.002171432195
0.002171328247
0.002171233053
0.002171146838
0.002171071099
0.002171013962
0.002172201605
0.002172026906
0.002171837416
0.0021716492
0.002171473193
0.002171315294
0.002171177583
0.002171059691
0.002170959917
0.002170876002
0.002170805626
0.002170746787
0.002170698527
0.002170663879
0.002171899113
0.002171609222
0.002171334233
0.002171094625
0.002170897396
0.00217074141
0.002170621631
0.002170531768
0.002170465683
0.002170418007
0.002170384314
0.002170361096
0.002170345685
0.002170336582
0.002171614284
0.00217126597
0.002170971631
0.002170738761
0.002170562481
0.002170433581
0.002170342333
0.002170280049
0.00217023954
0.002170215099
0.002170202298
0.002170197699
0.002170198446
0.002170201437
0.002171899116
0.002171609225
0.002171334236
0.002171094628
0.002170897399
0.002170741414
0.002170621635
0.002170531772
0.002170465687
0.002170418011
0.002170384319
0.0021703611
0.00217034569
0.002170336586
0.002172201607
0.002172026909
0.002171837419
0.002171649203
0.002171473196
0.002171315297
0.002171177587
0.002171059696
0.002170959922
0.002170876008
0.002170805631
0.002170746793
0.002170698533
0.002170663886
0.002172372096
0.00217228197
0.00217217227
0.00217204964
0.002171920716
0.00217179106
0.00217166479
0.002171544637
0.002171432202
0.002171328254
0.00217123306
0.002171146846
0.002171071108
0.002171013971
0.002172439948
0.002172388501
0.002172320106
0.002172236398
0.002172140305
0.002172035349
0.002171925086
0.002171812742
0.00217170102
0.002171592069
0.002171487573
0.002171389155
0.002171299938
0.002171231175
0.002172438795
0.002172373424
0.002172282669
0.002172170578
0.002172043533
0.002171908397
0.002171771304
0.002171637083
0.002171509153
0.002171389668
0.00217127978
0.002171179957
0.00217109047
0.002171012713
0.002170954584
0.002172342954
0.002172201606
0.002172026908
0.002171837418
0.002171649203
0.002171473195
0.002171315296
0.002171177585
0.002171059693
0.002170959919
0.002170876004
0.002170805627
0.002170746788
0.002170698528
0.002170663881
0.002171698846
0.00217133133
0.002170999463
0.002170728184
0.002170522366
0.00217037575
0.002170277596
0.002170216581
0.002170182659
0.002170167691
0.002170165436
0.00217017121
0.002170181252
0.00217019119
0.002170582552
0.002169963709
0.002169538736
0.002169289467
0.002169173921
0.002169150078
0.00216918418
0.002169251856
0.002169336631
0.002169427893
0.00216951904
0.00216960585
0.002169684287
0.002169744286
0.002169123387
0.002168509985
0.0021682494
0.002168206693
0.002168285845
0.002168426596
0.002168593341
0.002168765896
0.002168933303
0.002169089992
0.002169233408
0.002169362311
0.002169474341
0.002169558044
0.002170582566
0.002169963723
0.002169538749
0.002169289479
0.002169173931
0.002169150087
0.002169184188
0.002169251864
0.002169336638
0.002169427899
0.002169519046
0.002169605855
0.002169684292
0.002169744291
0.002171698857
0.002171331339
0.002170999472
0.002170728193
0.002170522375
0.00217037576
0.002170277606
0.00217021659
0.002170182668
0.002170167701
0.002170165445
0.002170171219
0.002170181261
0.002170191199
0.002172201608
0.002172026911
0.002171837422
0.002171649207
0.0021714732
0.002171315301
0.002171177591
0.0021710597
0.002170959927
0.002170876012
0.002170805636
0.002170746797
0.002170698537
0.00217066389
0.002172373425
0.00217228267
0.00217217058
0.002172043535
0.002171908401
0.002171771308
0.002171637088
0.002171509159
0.002171389675
0.002171279787
0.002171179966
0.002171090479
0.002171012723
0.002170954594
0.00217238489
0.002172276101
0.002172135333
0.00217197403
0.002171804047
0.002171635212
0.002171474543
0.002171326392
0.002171192966
0.002171074923
0.002170971898
0.002170882954
0.002170807034
0.002170743963
0.002170698403
0.002172166373
0.002171899115
0.002171609225
0.002171334236
0.002171094628
0.002170897399
0.002170741413
0.002170621634
0.002170531771
0.002170465686
0.002170418009
0.002170384317
0.002170361098
0.002170345688
0.002170336584
0.002171340201
0.002170582555
0.002169963713
0.00216953874
0.00216928947
0.002169173923
0.00216915008
0.002169184182
0.002169251858
0.002169336633
0.002169427894
0.002169519041
0.002169605851
0.002169684288
0.002169744287
0.002166761526
0.002165987868
0.002165865853
0.002166095392
0.00216648078
0.002166911971
0.002167333434
0.00216772058
0.002168065086
0.002168366555
0.002168627951
0.002168852805
0.002169041603
0.002169179395
0.00215927749
0.002160269032
0.002161780355
0.002163225661
0.002164451846
0.002165451013
0.002166256317
0.002166906393
0.002167434785
0.002167868011
0.002168226184
0.002168523674
0.00216876723
0.002168942148
0.00216676157
0.002165987898
0.002165865877
0.002166095411
0.002166480796
0.002166911985
0.002167333446
0.00216772059
0.002168065095
0.002168366563
0.002168627958
0.002168852812
0.002169041609
0.002169179401
0.002170582565
0.002169963725
0.002169538754
0.002169289485
0.002169173938
0.002169150094
0.002169184196
0.002169251872
0.002169336646
0.002169427907
0.002169519053
0.002169605862
0.002169684299
0.002169744298
0.002171899117
0.002171609228
0.002171334241
0.002171094634
0.002170897406
0.002170741422
0.002170621644
0.002170531781
0.002170465697
0.00217041802
0.002170384328
0.00217036111
0.002170345699
0.002170336596
0.002172276101
0.002172135333
0.002171974032
0.00217180405
0.002171635216
0.002171474548
0.002171326398
0.002171192974
0.002171074931
0.002170971907
0.002170882963
0.002170807045
0.002170743974
0.002170698414
0.002172344522
0.002172206738
0.002172038575
0.002171855468
0.002171670353
0.002171492539
0.002171327931
0.002171179705
0.002171049043
0.002170935781
0.002170838916
0.002170757013
0.002170688588
0.00217063293
0.002170593411
0.002171982452
0.002171614284
0.002171265971
0.002170971633
0.002170738764
0.002170562484
0.002170433584
0.002170342336
0.002170280052
0.002170239543
0.002170215103
0.002170202301
0.002170197702
0.002170198448
0.00217020144
0.002170218005
0.00216912338
0.002168509985
0.002168249403
0.002168206697
0.00216828585
0.002168426601
0.002168593346
0.0021687659
0.002168933308
0.002169089996
0.002169233412
0.002169362314
0.002169474344
0.002169558047
0.002160595166
0.002159277509
0.00216026905
0.00216178037
0.002163225674
0.002164451857
0.002165451022
0.002166256324
0.002166906399
0.00216743479
0.002167868015
0.002168226187
0.002168523678
0.002168767232
0.00216894215
0.002127113081
0.002143522587
0.002152597949
0.002157905594
0.002161190707
0.002163338707
0.002164816089
0.00216587855
0.002166672056
0.002167283386
0.002167766084
0.002168153585
0.002168463124
0.002168682007
0.002159277487
0.002160269075
0.002161780395
0.002163225695
0.002164451873
0.002165451035
0.002166256335
0.002166906409
0.002167434798
0.002167868023
0.002168226194
0.002168523684
0.002168767238
0.002168942156
0.002169123393
0.002168510004
0.002168249423
0.002168206716
0.002168285868
0.002168426617
0.00216859336
0.002168765914
0.00216893332
0.002169090007
0.002169233423
0.002169362324
0.002169474354
0.002169558056
0.002171614288
0.002171265978
0.002170971642
0.002170738774
0.002170562496
0.002170433596
0.002170342349
0.002170280065
0.002170239557
0.002170215116
0.002170202314
0.002170197715
0.002170198461
0.002170201453
0.002172206739
0.002172038577
0.002171855472
0.002171670358
0.002171492546
0.002171327939
0.002171179714
0.002171049053
0.002170935792
0.002170838928
0.002170757025
0.0021706886
0.002170632943
0.002170593424
0.00217238489
0.002172276102
0.002172135334
0.002171974032
0.00217180405
0.002171635215
0.002171474546
0.002171326395
0.00217119297
0.002171074926
0.002170971902
0.002170882958
0.002170807038
0.002170743968
0.002170698407
0.002172166375
0.002171899119
0.00217160923
0.002171334241
0.002171094633
0.002170897404
0.002170741419
0.00217062164
0.002170531777
0.002170465692
0.002170418015
0.002170384322
0.002170361104
0.002170345693
0.00217033659
0.002171340216
0.00217058257
0.002169963729
0.002169538756
0.002169289485
0.002169173937
0.002169150092
0.002169184194
0.002169251869
0.002169336643
0.002169427904
0.00216951905
0.002169605859
0.002169684296
0.002169744295
0.002168510632
0.002166761595
0.002165987925
0.002165865898
0.002166095428
0.002166480808
0.002166911995
0.002167333454
0.002167720596
0.002168065101
0.002168366568
0.002168627962
0.002168852815
0.002169041612
0.002169179404
0.002160595188
0.002159277532
0.002160269103
0.002161780411
0.002163225704
0.002164451878
0.002165451038
0.002166256337
0.00216690641
0.002167434799
0.002167868023
0.002168226195
0.002168523684
0.002168767239
0.002168942157
0.002168510627
0.002166761607
0.00216598794
0.002165865913
0.002166095441
0.00216648082
0.002166912005
0.002167333464
0.002167720605
0.002168065108
0.002168366575
0.002168627969
0.002168852821
0.002169041618
0.00216917941
0.002170582556
0.002169963728
0.002169538762
0.002169289495
0.002169173949
0.002169150105
0.002169184207
0.002169251881
0.002169336655
0.002169427916
0.002169519061
0.00216960587
0.002169684306
0.002169744305
0.002171899115
0.002171609228
0.002171334243
0.002171094638
0.002170897411
0.002170741427
0.00217062165
0.002170531787
0.002170465703
0.002170418026
0.002170384334
0.002170361116
0.002170345705
0.002170336602
0.002172276101
0.002172135334
0.002171974033
0.002171804052
0.002171635219
0.002171474551
0.002171326402
0.002171192978
0.002171074936
0.002170971912
0.002170882968
0.00217080705
0.00217074398
0.002170698419
0.002172438796
0.002172373425
0.002172282671
0.00217217058
0.002172043536
0.002171908401
0.002171771308
0.002171637088
0.002171509158
0.002171389674
0.002171279786
0.002171179964
0.002171090476
0.00217101272
0.002170954591
0.002172342956
0.002172201609
0.002172026911
0.002171837422
0.002171649207
0.0021714732
0.002171315301
0.00217117759
0.002171059699
0.002170959926
0.002170876011
0.002170805635
0.002170746796
0.002170698536
0.002170663889
0.002172050084
0.002171698857
0.002171331341
0.002170999474
0.002170728195
0.002170522378
0.002170375763
0.002170277609
0.002170216594
0.002170182671
0.002170167704
0.002170165449
0.002170171222
0.002170181264
0.002170191202
0.002171340221
0.002170582579
0.002169963741
0.002169538769
0.002169289499
0.00216917395
0.002169150105
0.002169184205
0.002169251879
0.002169336653
0.002169427913
0.002169519058
0.002169605867
0.002169684303
0.002169744301
0.002170218029
0.00216912342
0.00216851003
0.002168249445
0.002168206733
0.002168285881
0.002168426627
0.002168593368
0.00216876592
0.002168933325
0.002169090012
0.002169233427
0.002169362327
0.002169474356
0.002169558059
0.002171340223
0.002170582583
0.002169963746
0.002169538775
0.002169289505
0.002169173956
0.002169150111
0.002169184211
0.002169251885
0.002169336658
0.002169427918
0.002169519063
0.002169605872
0.002169684308
0.002169744306
0.002172050082
0.002171698857
0.002171331344
0.002170999479
0.002170728203
0.002170522387
0.002170375772
0.002170277619
0.002170216603
0.002170182681
0.002170167713
0.002170165458
0.002170171231
0.002170181273
0.002170191211
0.002172201606
0.002172026911
0.002171837424
0.002171649211
0.002171473206
0.002171315308
0.002171177599
0.002171059709
0.002170959936
0.002170876021
0.002170805645
0.002170746807
0.002170698547
0.0021706639
0.002172373424
0.00217228267
0.00217217058
0.002172043536
0.002171908403
0.002171771311
0.002171637092
0.002171509164
0.00217138968
0.002171279793
0.002171179972
0.002171090486
0.00217101273
0.002170954602
0.002172474743
0.002172439948
0.002172388501
0.002172320106
0.002172236399
0.002172140305
0.002172035349
0.002171925087
0.002171812742
0.00217170102
0.002171592069
0.002171487573
0.002171389155
0.002171299938
0.002171231175
0.002172437877
0.002172372096
0.002172281971
0.002172172271
0.002172049641
0.002171920718
0.002171791061
0.002171664791
0.002171544639
0.002171432203
0.002171328256
0.002171233062
0.002171146848
0.00217107111
0.002171013972
0.002172342957
0.002172201609
0.002172026913
0.002171837424
0.002171649209
0.002171473202
0.002171315304
0.002171177594
0.002171059703
0.002170959929
0.002170876015
0.002170805638
0.0021707468
0.00217069854
0.002170663893
0.002172166376
0.002171899122
0.002171609235
0.002171334248
0.002171094641
0.002170897413
0.002170741428
0.00217062165
0.002170531787
0.002170465702
0.002170418025
0.002170384332
0.002170361113
0.002170345702
0.002170336599
0.002171982458
0.002171614296
0.002171265987
0.002170971652
0.002170738783
0.002170562504
0.002170433603
0.002170342355
0.002170280071
0.002170239562
0.00217021512
0.002170202318
0.002170197718
0.002170198464
0.002170201456
0.002172166377
0.002171899123
0.002171609237
0.002171334251
0.002171094645
0.002170897417
0.002170741432
0.002170621654
0.002170531791
0.002170465706
0.002170418029
0.002170384337
0.002170361118
0.002170345707
0.002170336603
0.002172342957
0.00217220161
0.002172026915
0.002171837427
0.002171649213
0.002171473208
0.00217131531
0.0021711776
0.00217105971
0.002170959937
0.002170876022
0.002170805646
0.002170746807
0.002170698548
0.002170663901
0.002172437877
0.002172372096
0.002172281971
0.002172172272
0.002172049643
0.002171920721
0.002171791066
0.002171664796
0.002171544645
0.00217143221
0.002171328263
0.00217123307
0.002171146856
0.002171071118
0.002171013982
0.002172439947
0.002172388501
0.002172320106
0.002172236399
0.002172140306
0.002172035351
0.00217192509
0.002171812746
0.002171701025
0.002171592075
0.00217148758
0.002171389163
0.002171299946
0.002171231184
0.002172490818
0.002172470099
0.002172437938
0.002172392599
0.002172333555
0.002172261476
0.002172177991
0.002172085355
0.002171986116
0.002171882843
0.002171777946
0.002171673643
0.002171572283
0.002171478009
0.002171404046
0.002172474743
0.002172439948
0.002172388502
0.002172320107
0.002172236399
0.002172140306
0.00217203535
0.002171925087
0.002171812743
0.002171701021
0.00217159207
0.002171487574
0.002171389157
0.00217129994
0.002171231177
0.002172438796
0.002172373426
0.002172282671
0.002172170581
0.002172043537
0.002171908403
0.00217177131
0.00217163709
0.002171509161
0.002171389677
0.002171279789
0.002171179968
0.002171090481
0.002171012725
0.002170954596
0.00217238489
0.002172276103
0.002172135336
0.002171974035
0.002171804053
0.002171635219
0.002171474551
0.002171326402
0.002171192977
0.002171074934
0.00217097191
0.002170882966
0.002170807048
0.002170743977
0.002170698417
0.002172344524
0.002172206741
0.00217203858
0.002171855475
0.002171670362
0.002171492549
0.002171327943
0.002171179717
0.002171049057
0.002170935795
0.002170838931
0.002170757028
0.002170688603
0.002170632946
0.002170593426
0.00217238489
0.002172276103
0.002172135337
0.002171974036
0.002171804055
0.002171635221
0.002171474553
0.002171326404
0.00217119298
0.002171074937
0.002170971913
0.00217088297
0.002170807051
0.002170743981
0.002170698421
0.002172438796
0.002172373426
0.002172282672
0.002172170582
0.002172043539
0.002171908405
0.002171771313
0.002171637094
0.002171509165
0.002171389682
0.002171279794
0.002171179973
0.002171090487
0.002171012731
0.002170954603
0.002172474743
0.002172439949
0.002172388502
0.002172320107
0.0021722364
0.002172140308
0.002172035353
0.002171925091
0.002171812747
0.002171701027
0.002171592076
0.002171487581
0.002171389164
0.002171299947
0.002171231185
0.002172490818
0.002172470099
0.002172437938
0.002172392599
0.002172333555
0.002172261477
0.002172177993
0.002172085358
0.002171986119
0.002171882847
0.002171777951
0.002171673648
0.002171572289
0.002171478016
0.002171404054
)
;

boundaryField
{
    top
    {
        type            zeroGradient;
    }
    bottom
    {
        type            zeroGradient;
    }
    side-walls
    {
        type            zeroGradient;
    }
    inlet
    {
        type            zeroGradient;
    }
    outlet
    {
        type            zeroGradient;
    }
    procBoundary1to0
    {
        type            processor;
        value           nonuniform List<scalar> 
97
(
0.002172490818
0.002172490818
0.002172474743
0.002172438796
0.00217238489
0.002172344524
0.002172384891
0.002172438797
0.002172474743
0.002172490818
0.002172495348
0.002172437876
0.002172437876
0.002172437876
0.002172342956
0.002172166376
0.002171982458
0.002172166378
0.002172342958
0.002172437878
0.002172474743
0.00217247904
0.00217243692
0.002172050079
0.002172050079
0.002172050079
0.002171340216
0.002170218032
0.00217134023
0.00217205009
0.002172342959
0.002172438797
0.002172455181
0.002172362765
0.002172040035
0.002168510581
0.002168510581
0.002168510581
0.002160595255
0.002168510652
0.002171340228
0.002172166378
0.002172384891
0.002172438175
0.002172292931
0.002171682316
0.002169269722
0.002095757083
0.002095757083
0.002095757083
0.002160595231
0.002160595231
0.002170218033
0.00217198246
0.002172344525
0.002172455181
0.002172362765
0.002172040036
0.002171103538
0.002169269728
0.002171103542
0.002171340209
0.002171340209
0.002171340209
0.002172166376
0.002172384891
0.00217247904
0.002172436919
0.002172313673
0.002172040038
0.002171682326
0.002172040039
0.002172313674
0.002172342956
0.002172342956
0.002172342956
0.002172438796
0.002172495348
0.002172478714
0.00217243692
0.002172362766
0.002172292933
0.002172362766
0.00217243692
0.002172478714
0.002172474742
0.002172474742
0.002172474742
0.00217250274
0.002172495348
0.00217247904
0.002172455181
0.002172438175
0.002172455181
0.00217247904
0.002172495348
0.00217250274
)
;
    }
}


// ************************************************************************* //
