/*--------------------------------*- C++ -*----------------------------------*\
| =========                 |                                                 |
| \\      /  F ield         | OpenFOAM: The Open Source CFD Toolbox           |
|  \\    /   O peration     | Version:  4.x                                   |
|   \\  /    A nd           | Web:      www.OpenFOAM.org                      |
|    \\/     M anipulation  |                                                 |
\*---------------------------------------------------------------------------*/
FoamFile
{
    version     2.0;
    format      ascii;
    class       volScalarField;
    location    "9000";
    object      H2O;
}
// * * * * * * * * * * * * * * * * * * * * * * * * * * * * * * * * * * * * * //

dimensions      [0 0 0 0 0 0 0];

internalField   nonuniform List<scalar> 
1174
(
1.365862824e-06
1.637993856e-06
2.021638559e-06
2.521247349e-06
3.131160646e-06
3.837602242e-06
4.621498896e-06
5.461293132e-06
6.335251028e-06
7.222978297e-06
8.105712161e-06
8.963566029e-06
9.761471047e-06
1.038748779e-05
1.620985633e-06
2.056293721e-06
2.635007828e-06
3.343298505e-06
4.156404131e-06
5.044525572e-06
5.977577078e-06
6.928280927e-06
7.873741222e-06
8.79579554e-06
9.680184596e-06
1.051316732e-05
1.126830999e-05
1.18503419e-05
2.18384147e-06
2.951717044e-06
3.900122204e-06
4.975075807e-06
6.118514934e-06
7.278560222e-06
8.414341268e-06
9.49693401e-06
1.050810929e-05
1.143812432e-05
1.22829991e-05
1.304044948e-05
1.369864374e-05
1.419071721e-05
3.007247604e-06
4.198245803e-06
5.563000835e-06
7.001240974e-06
8.429820388e-06
9.78935464e-06
1.104302194e-05
1.217214561e-05
1.317116215e-05
1.40431373e-05
1.479600441e-05
1.543868536e-05
1.597265377e-05
1.635839834e-05
3.594053702e-06
5.016806083e-06
6.566032366e-06
8.132304159e-06
9.636856262e-06
1.10297292e-05
1.228404987e-05
1.338980237e-05
1.434838091e-05
1.516824937e-05
1.58615573e-05
1.644084092e-05
1.691209168e-05
1.724672743e-05
3.007226668e-06
4.198215416e-06
5.562959758e-06
7.001186546e-06
8.429752387e-06
9.789270955e-06
1.104292318e-05
1.217203184e-05
1.317103684e-05
1.404299746e-05
1.479585378e-05
1.543852253e-05
1.597248216e-05
1.635821828e-05
2.183815808e-06
2.951682472e-06
3.900076433e-06
4.975014963e-06
6.118433881e-06
7.278456386e-06
8.414212961e-06
9.496777453e-06
1.050792689e-05
1.14379135e-05
1.228276517e-05
1.304019353e-05
1.369836674e-05
1.41904201e-05
1.620963863e-06
2.056267251e-06
2.634973762e-06
3.343251774e-06
4.156340316e-06
5.044438852e-06
5.977462339e-06
6.928135592e-06
7.873563044e-06
8.795583036e-06
9.679936921e-06
1.05128867e-05
1.126799464e-05
1.184999544e-05
1.36584751e-06
1.637977795e-06
2.021618346e-06
2.52121901e-06
3.1311182e-06
3.837540176e-06
4.621411552e-06
5.461174725e-06
6.335096849e-06
7.222785818e-06
8.105477089e-06
8.963289392e-06
9.761148614e-06
1.038712189e-05
1.326559185e-06
1.620969178e-06
2.056277016e-06
2.634990387e-06
3.34327968e-06
4.156383539e-06
5.044504486e-06
5.977554784e-06
6.928258094e-06
7.873718568e-06
8.795774313e-06
9.68016245e-06
1.051314622e-05
1.126828886e-05
1.185032275e-05
2.195104154e-06
2.957640384e-06
3.885813222e-06
4.92341088e-06
6.014297827e-06
7.11142326e-06
8.179942171e-06
9.196732973e-06
1.014827148e-05
1.102802463e-05
1.183373959e-05
1.256350155e-05
1.320461881e-05
1.368829124e-05
3.637549923e-06
5.115579646e-06
6.718797728e-06
8.311291652e-06
9.800555577e-06
1.113666999e-05
1.230202924e-05
1.329974425e-05
1.414420401e-05
1.485451469e-05
1.545029981e-05
1.594847972e-05
1.635714356e-05
1.665055116e-05
6.196646372e-06
8.649196191e-06
1.097576394e-05
1.30030868e-05
1.467194429e-05
1.599193119e-05
1.700564353e-05
1.776628873e-05
1.832578471e-05
1.872955506e-05
1.901501424e-05
1.92118562e-05
1.934262422e-05
1.941992587e-05
8.606132224e-06
1.155293788e-05
1.404323424e-05
1.601359989e-05
1.750527305e-05
1.859616213e-05
1.936854033e-05
1.989588583e-05
2.023902752e-05
2.044623105e-05
2.055496244e-05
2.059429386e-05
2.058837282e-05
2.056334827e-05
6.196588961e-06
8.649126588e-06
1.097567936e-05
1.30029833e-05
1.467182204e-05
1.599178896e-05
1.700548332e-05
1.776611084e-05
1.832559298e-05
1.872934962e-05
1.901479996e-05
1.92116381e-05
1.934239691e-05
1.941969297e-05
3.637485924e-06
5.115513302e-06
6.718718929e-06
8.311190766e-06
9.80042513e-06
1.113650704e-05
1.230183078e-05
1.329951313e-05
1.414394106e-05
1.485422374e-05
1.544998562e-05
1.594814397e-05
1.635678756e-05
1.665017722e-05
2.195058501e-06
2.957596879e-06
3.885760472e-06
4.923337293e-06
6.014195032e-06
7.11128538e-06
8.179766249e-06
9.196517591e-06
1.014801305e-05
1.102772598e-05
1.183340282e-05
1.256312975e-05
1.320421442e-05
1.368785859e-05
1.620965486e-06
2.056267413e-06
2.634970552e-06
3.343242799e-06
4.156322531e-06
5.044411531e-06
5.977424323e-06
6.928084547e-06
7.873497785e-06
8.79550392e-06
9.679844413e-06
1.051277926e-05
1.12678748e-05
1.184985941e-05
1.630704959e-06
2.183799995e-06
2.951671006e-06
3.900072101e-06
4.975022724e-06
6.118458907e-06
7.278502367e-06
8.414281069e-06
9.496873271e-06
1.050805016e-05
1.143806498e-05
1.228294201e-05
1.304039431e-05
1.369859218e-05
1.419066587e-05
2.441628993e-06
3.637490838e-06
5.115525719e-06
6.718744788e-06
8.311239783e-06
9.800503688e-06
1.113661968e-05
1.230198039e-05
1.32996966e-05
1.414415923e-05
1.485447239e-05
1.545026152e-05
1.594844413e-05
1.635710925e-05
1.665051575e-05
7.891044271e-06
1.100023238e-05
1.380796645e-05
1.610323062e-05
1.784477451e-05
1.908552115e-05
1.991631556e-05
2.043293371e-05
2.072035302e-05
2.084741314e-05
2.086692257e-05
2.081849545e-05
2.073392782e-05
2.065013978e-05
1.733457621e-05
2.256990282e-05
2.616536996e-05
2.827456263e-05
2.925256667e-05
2.945480335e-05
2.916683412e-05
2.859482401e-05
2.787813588e-05
2.710655572e-05
2.633591901e-05
2.560194809e-05
2.493876655e-05
2.443145627e-05
2.967771175e-05
3.486719514e-05
3.70722405e-05
3.743420518e-05
3.676527541e-05
3.557521346e-05
3.416520073e-05
3.270599814e-05
3.129029832e-05
2.996523747e-05
2.875242358e-05
2.766236696e-05
2.671500092e-05
2.600715664e-05
1.733426563e-05
2.256960221e-05
2.616506241e-05
2.827424051e-05
2.925223044e-05
2.945446433e-05
2.916648823e-05
2.859447314e-05
2.787778994e-05
2.710621201e-05
2.633558135e-05
2.560161672e-05
2.493844053e-05
2.443112949e-05
7.890822318e-06
1.100003986e-05
1.380775039e-05
1.610297026e-05
1.784445639e-05
1.908515423e-05
1.991590898e-05
2.043249428e-05
2.071988767e-05
2.084692991e-05
2.086642746e-05
2.081799159e-05
2.073341884e-05
2.064962316e-05
3.637479964e-06
5.115491505e-06
6.718674285e-06
8.311121225e-06
9.800327561e-06
1.113638373e-05
1.230168465e-05
1.329934677e-05
1.414376053e-05
1.485402684e-05
1.544977663e-05
1.594792646e-05
1.635656244e-05
1.664994222e-05
2.183819378e-06
2.951677199e-06
3.900054644e-06
4.974969297e-06
6.118358428e-06
7.278347121e-06
8.414067588e-06
9.496596407e-06
1.050771283e-05
1.143766752e-05
1.228248702e-05
1.303988618e-05
1.369803381e-05
1.419005788e-05
2.086776358e-06
3.007178395e-06
4.198165728e-06
5.562912743e-06
7.001145338e-06
8.429720602e-06
9.789250541e-06
1.104291713e-05
1.217204032e-05
1.317106104e-05
1.404303976e-05
1.47959106e-05
1.543859404e-05
1.597256626e-05
1.635831508e-05
3.935506627e-06
6.196527139e-06
8.6490771e-06
1.097564831e-05
1.300297398e-05
1.467183614e-05
1.599182579e-05
1.700554204e-05
1.776619161e-05
1.832569239e-05
1.872946625e-05
1.901493051e-05
1.921177987e-05
1.934254979e-05
1.941985618e-05
1.092501521e-05
1.733434696e-05
2.256972408e-05
2.61652238e-05
2.827444143e-05
2.925246183e-05
2.945471584e-05
2.916675398e-05
2.859475438e-05
2.787807427e-05
2.710649626e-05
2.633586601e-05
2.560189974e-05
2.493872564e-05
2.44314128e-05
4.965834882e-05
5.620315972e-05
5.72360015e-05
5.529503374e-05
5.20356455e-05
4.838871289e-05
4.482399244e-05
4.154950231e-05
3.863565245e-05
3.608582795e-05
3.387495843e-05
3.197317951e-05
3.037636849e-05
2.921092776e-05
0.0001129643793
0.0001045784035
9.179540406e-05
7.957050929e-05
6.919891172e-05
6.074749917e-05
5.393585135e-05
4.843720715e-05
4.396783385e-05
4.030343764e-05
3.727389784e-05
3.475765061e-05
3.269761415e-05
3.121809645e-05
4.96572982e-05
5.620240269e-05
5.723529714e-05
5.52943387e-05
5.203497164e-05
4.838806246e-05
4.482337646e-05
4.154892225e-05
3.863510317e-05
3.608531509e-05
3.387447262e-05
3.197271689e-05
3.037593106e-05
2.921050247e-05
1.733430067e-05
2.256951896e-05
2.616486121e-05
2.827394362e-05
2.925187023e-05
2.945405495e-05
2.916605694e-05
2.859404057e-05
2.787735425e-05
2.710578076e-05
2.633516276e-05
2.560120525e-05
2.493804493e-05
2.44307376e-05
6.19659514e-06
8.649070268e-06
1.097554111e-05
1.30027598e-05
1.467151917e-05
1.599141819e-05
1.700505617e-05
1.776564574e-05
1.832509481e-05
1.872882536e-05
1.901425919e-05
1.921108245e-05
1.934183382e-05
1.941911992e-05
3.007237013e-06
4.198199579e-06
5.562899341e-06
7.001066037e-06
8.429563795e-06
9.789011821e-06
1.104259418e-05
1.217163872e-05
1.317058273e-05
1.404249204e-05
1.479530101e-05
1.543792974e-05
1.597185265e-05
1.635754871e-05
2.428286102e-06
3.593978643e-06
5.016716168e-06
6.565929758e-06
8.13219055e-06
9.636735145e-06
1.10296036e-05
1.228391958e-05
1.338967218e-05
1.434825013e-05
1.516812131e-05
1.586143314e-05
1.644072025e-05
1.691197617e-05
1.724661412e-05
5.491363698e-06
8.605996381e-06
1.155279084e-05
1.404308007e-05
1.601344322e-05
1.750511946e-05
1.85960138e-05
1.936839068e-05
1.989574546e-05
2.023889246e-05
2.044610418e-05
2.055484326e-05
2.059418174e-05
2.058826402e-05
2.056324407e-05
2.041751004e-05
2.967743039e-05
3.48669042e-05
3.707196857e-05
3.743395418e-05
3.67650417e-05
3.557500511e-05
3.416501517e-05
3.270583093e-05
3.129014717e-05
2.996510376e-05
2.875230223e-05
2.766225529e-05
2.671489993e-05
2.600705983e-05
0.0001018167593
0.0001129632591
0.0001045776757
9.179490175e-05
7.957013297e-05
6.919863052e-05
6.074727488e-05
5.393567168e-05
4.843705958e-05
4.396771322e-05
4.030333528e-05
3.72738023e-05
3.475756984e-05
3.269754739e-05
3.121803587e-05
0.0003850342736
0.0002462325495
0.0001694675977
0.000124572288
9.678476532e-05
7.861562889e-05
6.611899781e-05
5.713203696e-05
5.042008663e-05
4.524909467e-05
4.116618213e-05
3.788852014e-05
3.5270306e-05
3.341887563e-05
0.0001129644532
0.0001045773068
9.179402215e-05
7.956913236e-05
6.919765942e-05
6.074637006e-05
5.393485221e-05
4.843631882e-05
4.396703338e-05
4.0302717e-05
3.727323272e-05
3.475703917e-05
3.269704472e-05
3.121755415e-05
2.967775293e-05
3.486673693e-05
3.707144984e-05
3.743322146e-05
3.676420551e-05
3.557412057e-05
3.416411595e-05
3.270494163e-05
3.128927877e-05
2.996425691e-05
2.875148232e-05
2.766146632e-05
2.671413248e-05
2.600630595e-05
8.60614292e-06
1.155278722e-05
1.404290739e-05
1.601311687e-05
1.75046611e-05
1.859545077e-05
1.936775038e-05
1.989504627e-05
2.023814858e-05
2.044532961e-05
2.055404809e-05
2.059337035e-05
2.058743893e-05
2.056240531e-05
3.594056795e-06
5.016751187e-06
6.56589222e-06
8.132061844e-06
9.636507406e-06
1.102927492e-05
1.228349494e-05
1.338915986e-05
1.434765929e-05
1.516745967e-05
1.586071218e-05
1.643994526e-05
1.691115378e-05
1.724574368e-05
2.086771749e-06
3.007160202e-06
4.198131904e-06
5.56286091e-06
7.001075284e-06
8.429631085e-06
9.789141489e-06
1.104278791e-05
1.217189436e-05
1.317089676e-05
1.404285967e-05
1.479571693e-05
1.543838727e-05
1.597234836e-05
1.635808715e-05
3.935458555e-06
6.196440422e-06
8.648957115e-06
1.097549616e-05
1.300279574e-05
1.467163508e-05
1.59916062e-05
1.700530392e-05
1.776593873e-05
1.832542973e-05
1.8729194e-05
1.901465139e-05
1.921149459e-05
1.934225957e-05
1.941956058e-05
1.092455818e-05
1.733391298e-05
2.256925154e-05
2.61647289e-05
2.827393402e-05
2.925194738e-05
2.945420417e-05
2.916625355e-05
2.859426238e-05
2.787759695e-05
2.710603415e-05
2.633541673e-05
2.560146501e-05
2.493829833e-05
2.443099754e-05
3.486067375e-05
4.965625391e-05
5.620154783e-05
5.723462057e-05
5.529380878e-05
5.203454687e-05
4.83877236e-05
4.482309803e-05
4.154869214e-05
3.863491061e-05
3.608514826e-05
3.387432711e-05
3.197258923e-05
3.037581548e-05
2.921039692e-05
0.0001018163548
0.0001129628073
0.0001045763021
9.179338576e-05
7.95687203e-05
6.919736977e-05
6.074617031e-05
5.393469664e-05
4.843619169e-05
4.396693686e-05
4.030262794e-05
3.727316565e-05
3.47569781e-05
3.269699423e-05
3.12175025e-05
3.486096167e-05
4.965617187e-05
5.620112712e-05
5.72339797e-05
5.529306909e-05
5.203378198e-05
4.838697712e-05
4.482238186e-05
4.154801978e-05
3.86342863e-05
3.608456247e-05
3.387378409e-05
3.197208101e-05
3.037532957e-05
2.920993215e-05
1.733455356e-05
2.25693635e-05
2.616447171e-05
2.827342635e-05
2.925128213e-05
2.945344733e-05
2.916545001e-05
2.859344056e-05
2.787677725e-05
2.71052279e-05
2.633462535e-05
2.560069236e-05
2.49375491e-05
2.443025151e-05
6.196680988e-06
8.64906101e-06
1.097543816e-05
1.300257601e-05
1.46712763e-05
1.599112921e-05
1.700473663e-05
1.776530012e-05
1.832473703e-05
1.872846069e-05
1.901388779e-05
1.921070902e-05
1.93414561e-05
1.941873929e-05
3.007258354e-06
4.198196641e-06
5.562860497e-06
7.000987561e-06
8.42944352e-06
9.788852979e-06
1.104240158e-05
1.217141503e-05
1.317033579e-05
1.404222281e-05
1.479501657e-05
1.54376321e-05
1.597154357e-05
1.635722796e-05
1.63069373e-06
2.183772222e-06
2.951624085e-06
3.900003309e-06
4.974927708e-06
6.118335037e-06
7.278347081e-06
8.414094404e-06
9.49665335e-06
1.050779976e-05
1.143778336e-05
1.228263174e-05
1.304005796e-05
1.369823187e-05
1.419028417e-05
2.441556327e-06
3.637396663e-06
5.115401535e-06
6.718589119e-06
8.311047642e-06
9.800274074e-06
1.113635124e-05
1.230167272e-05
1.329935373e-05
1.41437853e-05
1.485407055e-05
1.544983621e-05
1.594799847e-05
1.635664496e-05
1.665003603e-05
4.919316197e-06
7.890632757e-06
1.099982656e-05
1.380752621e-05
1.610274255e-05
1.784423384e-05
1.908493804e-05
1.991569843e-05
2.043229705e-05
2.071970048e-05
2.084675059e-05
2.086625576e-05
2.081783159e-05
2.07332651e-05
2.06494749e-05
1.0924527e-05
1.733378019e-05
2.256899535e-05
2.616437312e-05
2.8273505e-05
2.92514809e-05
2.94537167e-05
2.916576356e-05
2.859378009e-05
2.787712318e-05
2.710557382e-05
2.633497282e-05
2.560103993e-05
2.493788704e-05
2.443059059e-05
2.041730241e-05
2.967684064e-05
3.48659572e-05
3.707081974e-05
3.743271793e-05
3.676379707e-05
3.557378984e-05
3.41638479e-05
3.27047159e-05
3.128908593e-05
2.996409434e-05
2.875134144e-05
2.766133723e-05
2.67140169e-05
2.600619394e-05
1.092449e-05
1.733366987e-05
2.256878176e-05
2.616406317e-05
2.827312544e-05
2.925105624e-05
2.945327034e-05
2.916530456e-05
2.859332165e-05
2.787667358e-05
2.710513716e-05
2.6334549e-05
2.560062591e-05
2.493748773e-05
2.44301959e-05
4.919453517e-06
7.890720052e-06
1.099978958e-05
1.380734459e-05
1.610242998e-05
1.784381856e-05
1.90844438e-05
1.991514913e-05
2.043170651e-05
2.071908769e-05
2.084612443e-05
2.086562486e-05
2.081719909e-05
2.073263013e-05
2.064883455e-05
3.637538527e-06
5.115456994e-06
6.718546782e-06
8.310903918e-06
9.800028513e-06
1.113601229e-05
1.230125231e-05
1.329886593e-05
1.414323918e-05
1.48534769e-05
1.544920195e-05
1.594733124e-05
1.635595011e-05
1.664931409e-05
2.183850028e-06
2.951681362e-06
3.900017525e-06
4.974881697e-06
6.11821567e-06
7.278147752e-06
8.413812301e-06
9.496290393e-06
1.050735776e-05
1.143726949e-05
1.228205096e-05
1.303941547e-05
1.369753449e-05
1.418953149e-05
1.326541342e-06
1.620939906e-06
2.056233387e-06
2.634929364e-06
3.34319665e-06
4.156273251e-06
5.044361558e-06
5.977376125e-06
6.928041438e-06
7.873461401e-06
8.795475715e-06
9.679823361e-06
1.051276832e-05
1.12678735e-05
1.184987398e-05
1.638465264e-06
2.195015007e-06
2.957537662e-06
3.885686308e-06
4.92325047e-06
6.014097599e-06
7.111178273e-06
8.179650488e-06
9.196396944e-06
1.014788829e-05
1.10275983e-05
1.18332728e-05
1.256299803e-05
1.320408492e-05
1.368772684e-05
2.441554288e-06
3.637384608e-06
5.115371851e-06
6.718535037e-06
8.310967784e-06
9.800165805e-06
1.113621844e-05
1.23015176e-05
1.329917875e-05
1.414359358e-05
1.485386709e-05
1.544961994e-05
1.594777317e-05
1.635641291e-05
1.664979626e-05
3.93545316e-06
6.19638544e-06
8.648826162e-06
1.097528051e-05
1.300249646e-05
1.467126125e-05
1.599117076e-05
1.700482229e-05
1.776542359e-05
1.832488688e-05
1.872863235e-05
1.901407678e-05
1.921091376e-05
1.93416729e-05
1.941896565e-05
5.491319149e-06
8.605815028e-06
1.155244167e-05
1.404256972e-05
1.601279799e-05
1.750437071e-05
1.859518663e-05
1.936751127e-05
1.989482938e-05
2.023795088e-05
2.044514941e-05
2.055387904e-05
2.059321604e-05
2.058729916e-05
2.056227252e-05
3.935428657e-06
6.196334972e-06
8.648738364e-06
1.097514936e-05
1.300232353e-05
1.467105337e-05
1.599093312e-05
1.700456141e-05
1.776514587e-05
1.832459678e-05
1.872833376e-05
1.901377188e-05
1.921060578e-05
1.934136289e-05
1.941865084e-05
2.44155807e-06
3.637376477e-06
5.115325722e-06
6.718434443e-06
8.310804758e-06
9.799940946e-06
1.113593489e-05
1.23011845e-05
1.329880289e-05
1.414318139e-05
1.485342404e-05
1.544915288e-05
1.594728673e-05
1.635590933e-05
1.664927584e-05
1.638494528e-06
2.195044228e-06
2.957546365e-06
3.885656463e-06
4.923169817e-06
6.013958567e-06
7.110978162e-06
8.179387921e-06
9.196073834e-06
1.014751071e-05
1.102717034e-05
1.183279847e-05
1.256248056e-05
1.32035275e-05
1.36871379e-05
1.620984943e-06
2.056264652e-06
2.634936486e-06
3.343168248e-06
4.156199068e-06
5.044232577e-06
5.977186216e-06
6.927786097e-06
7.873139117e-06
8.795088531e-06
9.679372912e-06
1.051225603e-05
1.126730351e-05
1.184924633e-05
1.190522012e-06
1.365831551e-06
1.63795433e-06
2.021585988e-06
2.521176644e-06
3.131065454e-06
3.837477055e-06
4.621337884e-06
5.461091646e-06
6.335005784e-06
7.222686385e-06
8.105371215e-06
8.963177161e-06
9.761032782e-06
1.038700335e-05
1.326542151e-06
1.620939839e-06
2.056230958e-06
2.634922394e-06
3.343182954e-06
4.156250477e-06
5.044328327e-06
5.977331394e-06
6.927983206e-06
7.873389697e-06
8.79539068e-06
9.679726433e-06
1.051265794e-05
1.12677499e-05
1.184973301e-05
1.630695646e-06
2.183768653e-06
2.951608378e-06
3.899967611e-06
4.974866254e-06
6.118242665e-06
7.278220516e-06
8.413932814e-06
9.496456535e-06
1.050756929e-05
1.143752307e-05
1.228234177e-05
1.30397422e-05
1.369789223e-05
1.418991659e-05
2.086773125e-06
3.007142739e-06
4.198077323e-06
5.562753452e-06
7.000904348e-06
8.429391275e-06
9.78883316e-06
1.10424122e-05
1.217145742e-05
1.317040627e-05
1.404231891e-05
1.479513498e-05
1.543777018e-05
1.597169913e-05
1.635739909e-05
2.428275966e-06
3.593923341e-06
5.016587974e-06
6.565709235e-06
8.131868828e-06
9.6363099e-06
1.10290791e-05
1.228330577e-05
1.338897758e-05
1.434748694e-05
1.516729545e-05
1.586055567e-05
1.643979642e-05
1.691101301e-05
1.724560734e-05
2.086764849e-06
3.007124605e-06
4.198043404e-06
5.562698714e-06
7.000824575e-06
8.42928473e-06
9.788700569e-06
1.104225587e-05
1.217127809e-05
1.317020585e-05
1.404210229e-05
1.479490145e-05
1.543752367e-05
1.597144142e-05
1.6357132e-05
1.630691047e-06
2.183757307e-06
2.951580649e-06
3.899915195e-06
4.974779872e-06
6.118116158e-06
7.278051477e-06
8.413721432e-06
9.496203683e-06
1.050727652e-05
1.143719308e-05
1.228198009e-05
1.303935071e-05
1.369747363e-05
1.418947473e-05
1.326544227e-06
1.620941389e-06
2.056223565e-06
2.634896445e-06
3.343127964e-06
4.156158527e-06
5.044192481e-06
5.977147053e-06
6.927748065e-06
7.873103558e-06
8.79505337e-06
9.67934019e-06
1.051222575e-05
1.12672739e-05
1.184921955e-05
1.190530753e-06
1.365843234e-06
1.637962356e-06
2.021582372e-06
2.521151879e-06
3.131009535e-06
3.837381187e-06
4.621193911e-06
5.460892477e-06
6.334746988e-06
7.222366584e-06
8.104990197e-06
8.962734492e-06
9.760528518e-06
1.038643881e-05
)
;

boundaryField
{
    top
    {
        type            zeroGradient;
    }
    bottom
    {
        type            zeroGradient;
    }
    side-walls
    {
        type            zeroGradient;
    }
    inlet
    {
        type            zeroGradient;
    }
    outlet
    {
        type            zeroGradient;
    }
    procBoundary1to0
    {
        type            processor;
        value           nonuniform List<scalar> 
97
(
1.190531213e-06
1.190531213e-06
1.326543342e-06
1.630681547e-06
2.086730591e-06
2.428210306e-06
2.086714349e-06
1.630661144e-06
1.326524025e-06
1.19051242e-06
1.152175761e-06
1.638497889e-06
1.638497889e-06
1.638497889e-06
2.441547189e-06
3.93535184e-06
5.491075765e-06
3.935295548e-06
2.441478378e-06
1.638430191e-06
1.326524951e-06
1.290164677e-06
1.646528294e-06
4.919460141e-06
4.919460141e-06
4.919460141e-06
1.09243036e-05
2.041598232e-05
1.092392098e-05
4.919075377e-06
2.44147534e-06
1.630663356e-06
1.492032221e-06
2.273905283e-06
5.004112807e-06
3.486107237e-05
3.486107237e-05
3.486107237e-05
0.0001018070229
3.485846074e-05
1.092395566e-05
3.93530269e-06
2.086722241e-06
1.635913442e-06
2.864699613e-06
8.030236415e-06
2.843797121e-05
0.0006501899278
0.0006501899278
0.0006501899278
0.0001018075955
0.0001018075955
2.041608312e-05
5.491094965e-06
2.428215287e-06
1.492035433e-06
2.273918014e-06
5.004209929e-06
1.292647498e-05
2.843831736e-05
1.292618229e-05
1.092482839e-05
1.092482839e-05
1.092482839e-05
3.935430948e-06
2.08674582e-06
1.290167711e-06
1.646545822e-06
2.689265752e-06
5.004201592e-06
8.030201898e-06
5.00413897e-06
2.689226247e-06
2.441617937e-06
2.441617937e-06
2.441617937e-06
1.630697761e-06
1.152178752e-06
1.292923959e-06
1.64654549e-06
2.273917604e-06
2.864688869e-06
2.273899872e-06
1.646533182e-06
1.292919047e-06
1.326559154e-06
1.326559154e-06
1.326559154e-06
1.089633623e-06
1.15217913e-06
1.290168942e-06
1.492037194e-06
1.635911085e-06
1.492032077e-06
1.290164183e-06
1.152176898e-06
1.089633019e-06
)
;
    }
}


// ************************************************************************* //
