/*--------------------------------*- C++ -*----------------------------------*\
| =========                 |                                                 |
| \\      /  F ield         | OpenFOAM: The Open Source CFD Toolbox           |
|  \\    /   O peration     | Version:  4.x                                   |
|   \\  /    A nd           | Web:      www.OpenFOAM.org                      |
|    \\/     M anipulation  |                                                 |
\*---------------------------------------------------------------------------*/
FoamFile
{
    version     2.0;
    format      ascii;
    class       volScalarField;
    location    "9000";
    object      molarConc;
}
// * * * * * * * * * * * * * * * * * * * * * * * * * * * * * * * * * * * * * //

dimensions      [0 -3 0 0 1 0 0];

internalField   nonuniform List<scalar> 
1174
(
9.963258456
9.963257974
9.963257297
9.963254966
9.963251865
9.963249257
9.963245779
9.963242927
9.963239928
9.963236759
9.963235046
9.963232177
9.963230615
9.963227477
9.963266951
9.963265078
9.963261718
9.963258537
9.963255387
9.963252508
9.963249435
9.963244569
9.963240269
9.963236331
9.963232884
9.963229454
9.963226959
9.963224529
9.963258246
9.963255985
9.963251273
9.963248545
9.963244711
9.963240511
9.963236585
9.963233524
9.963230154
9.963227293
9.963223894
9.963221098
9.96321802
9.963216547
9.963242264
9.963236637
9.963231345
9.963226629
9.963222007
9.963218264
9.963213844
9.963210641
9.963206017
9.963202871
9.96320067
9.963198635
9.963197192
9.963195874
9.963238484
9.963233188
9.963225912
9.963220992
9.963216806
9.963211744
9.963207969
9.963202915
9.963199697
9.963195476
9.963192911
9.963190348
9.963188411
9.963186435
9.96332003
9.963315372
9.963308875
9.963302819
9.963297159
9.963290794
9.963286016
9.963281536
9.963278961
9.963275171
9.963272585
9.963270335
9.963269593
9.963267924
9.963315896
9.963313802
9.963309891
9.963304986
9.963300348
9.963295529
9.963291686
9.963287878
9.96328351
9.963278881
9.963275623
9.963274497
9.963271257
9.963270237
9.963273223
9.963270959
9.963267814
9.963265646
9.963263711
9.963260352
9.963257586
9.963255636
9.963251662
9.963248082
9.963243831
9.963240698
9.963238523
9.963235837
9.9632719
9.963271571
9.963269013
9.963268071
9.96326583
9.963262016
9.963259484
9.963256125
9.963252729
9.963250107
9.963247448
9.963243214
9.963241017
9.963237705
9.963281318
9.963281577
9.963280264
9.963277834
9.963276103
9.963273835
9.963271445
9.963268452
9.963264955
9.963261515
9.963259316
9.963256128
9.96325218
9.963249441
9.963248196
9.963233032
9.963229724
9.963224734
9.963220332
9.96321685
9.963213957
9.963210856
9.963208605
9.963205059
9.963200929
9.963197265
9.963193671
9.96319084
9.963189398
9.963234427
9.963228318
9.963223042
9.963217688
9.963213348
9.963208351
9.963204158
9.963201352
9.963198637
9.963196216
9.9631949
9.963192334
9.963191128
9.96318996
9.963266911
9.963257868
9.963250613
9.96324396
9.963238013
9.963233913
9.963230342
9.963227834
9.96322748
9.963226315
9.963225108
9.963223362
9.963223508
9.963223058
9.963242624
9.96323159
9.963222144
9.963213837
9.963207297
9.963203756
9.963202427
9.963200422
9.963199255
9.963197802
9.963196405
9.963197103
9.963197013
9.963198688
9.963212079
9.9632038
9.963196163
9.963190058
9.963184813
9.96318016
9.963176024
9.963173571
9.963171995
9.963171533
9.963170025
9.963170899
9.963169811
9.963170554
9.963189362
9.963184145
9.963179472
9.963174535
9.963169635
9.963164415
9.963161733
9.963158635
9.963155436
9.963153176
9.963152887
9.963150574
9.963148912
9.963149566
9.963311441
9.963309149
9.963306437
9.963303243
9.963298369
9.963296073
9.963292965
9.963288946
9.963285085
9.963282107
9.963279843
9.963276891
9.963273301
9.963270872
9.963265682
9.963264565
9.963262976
9.963259099
9.963256088
9.96325312
9.963250343
9.963246777
9.963243515
9.963239513
9.963236633
9.96323228
9.963230984
9.963230003
9.963260746
9.963257257
9.963254027
9.963250231
9.963247428
9.963243018
9.963239319
9.963234801
9.96323226
9.963228619
9.963225746
9.96322178
9.96321963
9.963216795
9.963214488
9.963292961
9.963287846
9.963283043
9.963278265
9.963273366
9.963267363
9.963262191
9.96325969
9.963255057
9.963251297
9.963249592
9.963247811
9.963245278
9.963243174
9.963242214
9.963273162
9.963260778
9.963251177
9.963242012
9.96323605
9.963230878
9.963227953
9.963225687
9.963224246
9.963223104
9.963221883
9.963221574
9.963221327
9.963219978
9.9632233
9.963205162
9.96319009
9.963182347
9.96317862
9.963178137
9.963177942
9.963180188
9.963183147
9.963186583
9.963189407
9.963192711
9.963194107
9.963194634
9.963127967
9.963110707
9.963103322
9.963102585
9.963105753
9.963109287
9.96311361
9.96311886
9.963124789
9.963128357
9.963132135
9.96313526
9.963138539
9.963142019
9.963264787
9.96324499
9.963232252
9.963224847
9.963222257
9.963223134
9.963224328
9.96322458
9.96322757
9.963229702
9.963233689
9.963235822
9.963237748
9.963239856
9.963266536
9.963255759
9.963246355
9.963237867
9.963230042
9.963224651
9.963222756
9.963221039
9.96322162
9.963222702
9.963222815
9.963222573
9.963224003
9.963223534
9.963256641
9.963251694
9.96324651
9.963242047
9.963236011
9.963231574
9.963226972
9.963222991
9.963220413
9.963216021
9.963214981
9.963214107
9.963212748
9.963211257
9.963295216
9.963292264
9.96328813
9.963283864
9.963281446
9.963277319
9.963273522
9.963268654
9.963265321
9.963262172
9.963258405
9.963256262
9.963254005
9.96325161
9.963288612
9.963285601
9.963282564
9.963277619
9.963272744
9.963267598
9.963261375
9.963256523
9.963252433
9.963248917
9.963247224
9.963243905
9.963241413
9.963239062
9.963237498
9.963277327
9.963269174
9.963260213
9.963252153
9.963245485
9.96323773
9.963233446
9.963229369
9.963226654
9.963224059
9.963221815
9.963221038
9.963219467
9.963220329
9.963219935
9.963298712
9.96327621
9.963255045
9.963242383
9.963236477
9.963233811
9.963233852
9.963236173
9.963236807
9.963240573
9.963243752
9.963246874
9.963250814
9.963254098
9.963254348
9.963099717
9.963075671
9.96307267
9.963079426
9.96309159
9.96310439
9.963117436
9.963129691
9.963139048
9.963147442
9.963156255
9.963162353
9.963168227
9.96317102
9.962885686
9.962916794
9.962962776
9.963007522
9.963045391
9.963075552
9.963099983
9.963121069
9.963137992
9.963151151
9.963162111
9.963168938
9.963175577
9.96318224
9.963100924
9.963078343
9.963074216
9.963080811
9.963092918
9.963106769
9.963119236
9.96313105
9.963141196
9.963151324
9.963157705
9.963165187
9.963170347
9.963175977
9.963222417
9.963202999
9.963189231
9.963181524
9.963178224
9.963177041
9.963176711
9.963178986
9.96318132
9.963183512
9.963185796
9.963187615
9.963189895
9.963191203
9.96324315
9.963235556
9.963227548
9.963221158
9.963214076
9.963208173
9.963204262
9.963202864
9.963200509
9.963199503
9.96319936
9.963198318
9.963198123
9.963197077
9.963249035
9.963245034
9.963240225
9.963233911
9.963228323
9.963224258
9.963219571
9.963215167
9.963211605
9.963208472
9.963206091
9.963203299
9.963201856
9.963200248
9.963259377
9.963255546
9.963249545
9.9632441
9.963237088
9.963230844
9.963226273
9.963222081
9.963217768
9.963214905
9.963211624
9.963209843
9.963209183
9.963207479
9.963205848
9.963272887
9.963261101
9.963251373
9.96324189
9.96323388
9.963228282
9.963225796
9.963222532
9.963221302
9.96322065
9.963220513
9.963220368
9.963220213
9.963220822
9.963223134
9.963103664
9.96307138
9.963051693
9.963043541
9.963042013
9.963042818
9.963046622
9.963050696
9.963056629
9.963063224
9.963068647
9.963072513
9.963076995
9.96308164
9.963083306
9.962908594
9.962868083
9.962900414
9.962945419
9.962990343
9.96302786
9.963059341
9.963084002
9.963103622
9.963119333
9.96313156
9.963142578
9.963153612
9.963160618
9.963166063
9.989831857
9.99035013
9.990645358
9.990824566
9.990942822
9.991026729
9.991089121
9.991139606
9.991180301
9.991215611
9.991248292
9.991278343
9.99130524
9.991327971
9.962865473
9.962895473
9.962942466
9.962986231
9.963024754
9.963054998
9.963079426
9.963098634
9.963114904
9.963129062
9.963138673
9.963147495
9.963153383
9.96315792
9.963177926
9.963160705
9.963151167
9.963149435
9.963152021
9.963157228
9.963162483
9.963168694
9.963172946
9.963176893
9.963181784
9.963187256
9.963191291
9.963193727
9.963270293
9.963258585
9.963248873
9.963241455
9.963235612
9.963232466
9.963228912
9.963227287
9.963225622
9.963224166
9.963225523
9.963225317
9.963224616
9.963224946
9.96328909
9.963284926
9.963279004
9.963273033
9.963268063
9.963263057
9.963257569
9.963254126
9.963250448
9.96324762
9.96324511
9.963243279
9.963241427
9.963240772
9.96328886
9.963284092
9.963279195
9.963275611
9.963271045
9.963266269
9.963262692
9.963258685
9.963257377
9.963253544
9.963251398
9.963248319
9.963245
9.963242377
9.96324224
9.963297588
9.963290585
9.963280412
9.963272141
9.963265712
9.963261398
9.96325677
9.963252369
9.963249292
9.963247742
9.963245428
9.963245412
9.963243298
9.96324332
9.963243824
9.963250073
9.963228195
9.963210571
9.963198602
9.96319082
9.963185432
9.963184637
9.963185981
9.963185785
9.963188787
9.963192053
9.963194006
9.963196589
9.963196743
9.963199059
9.963169176
9.96311652
9.963091425
9.963087803
9.963095457
9.963107121
9.963121382
9.963134628
9.963146847
9.963158995
9.963168881
9.963177474
9.963183734
9.963190767
9.963195614
9.962939662
9.962897478
9.962927722
9.962975221
9.963019338
9.963056568
9.963087125
9.963110525
9.963129696
9.963146757
9.963159674
9.963172153
9.963182533
9.963189775
9.963195837
9.963181939
9.963128667
9.963105173
9.96310157
9.963108045
9.963120358
9.963133358
9.963146203
9.963157177
9.963168007
9.963178554
9.963187003
9.96319412
9.963199507
9.963204207
9.963215431
9.963198754
9.963186231
9.963180319
9.963175639
9.963174634
9.96317542
9.963176928
9.963179423
9.963182478
9.963184923
9.963187866
9.963191947
9.963193218
9.963271843
9.963261332
9.963252921
9.963245354
9.963239007
9.963235232
9.963230745
9.963227614
9.96322522
9.963225415
9.963224701
9.963222217
9.963221132
9.963221133
9.963292265
9.963287298
9.963283917
9.963278373
9.963272417
9.963267356
9.963261705
9.963256965
9.963253185
9.963249879
9.963247699
9.963244272
9.963241796
9.963238828
9.963307199
9.963306525
9.963302289
9.963299735
9.963295874
9.963293475
9.963289431
9.963285532
9.963282196
9.963279408
9.963275018
9.963272228
9.963270411
9.963267453
9.963265372
9.963243064
9.963239582
9.963232983
9.963227537
9.963221296
9.963215265
9.963210658
9.963205633
9.96320118
9.963197311
9.963195394
9.963192739
9.96319
9.963188583
9.963188004
9.963186005
9.963174684
9.963163232
9.963153368
9.963145099
9.963139037
9.96313587
9.963134024
9.963132998
9.963131278
9.963129317
9.963129408
9.963129872
9.963130038
9.963129786
9.963239036
9.963216426
9.963196979
9.963183516
9.963174459
9.963171299
9.963170482
9.963171793
9.963173659
9.963175106
9.963177362
9.963181287
9.963185944
9.96318839
9.963188942
9.96324129
9.963208681
9.963189003
9.963181713
9.963181172
9.963183025
9.963188119
9.963194866
9.963200198
9.963206657
9.963211392
9.963215129
9.963218334
9.963221227
9.963222402
9.963238816
9.96321479
9.963195898
9.963183855
9.96317602
9.963173108
9.963172624
9.963171947
9.96317415
9.963175283
9.963178431
9.96318114
9.963186094
9.963188412
9.963190343
9.963266516
9.963254921
9.963243987
9.963234172
9.963225013
9.96321954
9.963214676
9.963211034
9.963208323
9.963207068
9.963205544
9.963206212
9.963205427
9.963205696
9.963205179
9.963294442
9.963289658
9.963283252
9.963277433
9.963270113
9.963264718
9.963259926
9.963256916
9.963252837
9.963250173
9.963247504
9.963245623
9.963244386
9.963244114
9.963244082
9.963240363
9.963236877
9.963233538
9.963228838
9.963225598
9.963221647
9.963217871
9.963214303
9.963210751
9.963207895
9.963204791
9.963202039
9.963200964
9.963254925
9.96325357
9.963251024
9.963250347
9.963247213
9.963245486
9.963241913
9.963238414
9.963236038
9.963231356
9.963228283
9.96322371
9.963218991
9.963216979
9.963214104
9.963269583
9.963266851
9.963263693
9.963259477
9.96325715
9.963254331
9.963250535
9.963246987
9.963245358
9.963242389
9.963238386
9.963235991
9.963234001
9.963231764
9.963228914
9.963260667
9.963256405
9.963251205
9.963245399
9.963238016
9.963231931
9.963228052
9.963223285
9.963219997
9.963216009
9.963214002
9.963212869
9.963211374
9.963208819
9.963208313
9.963258059
9.963250641
9.963241419
9.963232802
9.963225427
9.963218666
9.963213265
9.96321123
9.963208917
9.9632058
9.96320527
9.963203564
9.96320254
9.963203476
9.963202187
9.963239371
9.963228759
9.963217964
9.963208622
9.96320172
9.963195018
9.963189861
9.963188382
9.96318635
9.963183501
9.963183847
9.963184696
9.96318603
9.963184903
9.963185018
9.963276162
9.963268863
9.963260429
9.963249511
9.963242824
9.963235613
9.963230567
9.963227026
9.963224919
9.963222521
9.96322168
9.963220332
9.963218962
9.96321986
9.963218842
9.963277812
9.963272501
9.963267565
9.963262477
9.963256475
9.963252289
9.963248542
9.963245093
9.963241242
9.963236855
9.963233028
9.963229453
9.963228023
9.96322612
9.963224559
9.963263002
9.963262171
9.963259156
9.96325544
9.963251338
9.963248548
9.963244461
9.963238956
9.963235332
9.963232261
9.963228705
9.963227737
9.963225623
9.963222393
9.963222071
9.963239016
9.963238155
9.963237029
9.963235057
9.963232678
9.963230551
9.963229008
9.963225915
9.963222145
9.963219286
9.963216523
9.963213533
9.963211172
9.963207803
9.963289151
9.963288571
9.963287356
9.963284849
9.963282486
9.963280088
9.963278576
9.963275931
9.963273571
9.963270798
9.963267284
9.963264235
9.963260912
9.963259058
9.963257577
9.96325599
9.963255608
9.963252816
9.963251121
9.963248498
9.963244588
9.963242161
9.963239585
9.963235752
9.963232266
9.963230203
9.963225957
9.963222558
9.963219978
9.963219272
9.963281947
9.963278982
9.963276958
9.963274063
9.963270238
9.963264935
9.963261355
9.963256368
9.963252629
9.963250452
9.9632462
9.963242658
9.963239347
9.963237731
9.96323603
9.963241101
9.963236748
9.963231244
9.96322627
9.963221425
9.96321785
9.963213232
9.963206784
9.963202545
9.963198146
9.963194587
9.963192666
9.963189828
9.963186538
9.963185506
9.96327823
9.963274
9.963268266
9.96326152
9.963255646
9.963248804
9.963243349
9.963238542
9.963235304
9.96323275
9.963230302
9.963227926
9.963226159
9.963224917
9.963224163
9.963215951
9.963213017
9.963208902
9.963204532
9.963199796
9.963195263
9.963190872
9.96318596
9.963183237
9.963179655
9.963175148
9.963172346
9.963169718
9.963166533
9.963166025
9.963276159
9.963273401
9.963270306
9.963266759
9.963263876
9.963259109
9.963253361
9.963249965
9.963245831
9.963243034
9.963239109
9.963236431
9.963233199
9.963230027
9.96322776
9.963295957
9.963295662
9.963294073
9.963292218
9.963290758
9.963287044
9.963283755
9.963279969
9.963276751
9.963273385
9.963270208
9.963266414
9.963264084
9.96326204
9.963259565
9.963278551
9.963277679
9.963276375
9.963274528
9.963273011
9.963270251
9.96326805
9.963264625
9.963260463
9.963257239
9.963254058
9.963251459
9.963248613
9.963247088
9.963243843
)
;

boundaryField
{
    top
    {
        type            calculated;
        value           nonuniform List<scalar> 
127
(
9.963278551
9.9632719
9.963265682
9.963295216
9.963249035
9.96328909
9.963292265
9.963244082
9.963239016
9.963277679
9.963271571
9.963264565
9.963292264
9.963245034
9.963284926
9.963287298
9.963240363
9.963238155
9.963276375
9.963269013
9.963262976
9.96328813
9.963240225
9.963279004
9.963283917
9.963236877
9.963237029
9.963274528
9.963268071
9.963259099
9.963283864
9.963233911
9.963273033
9.963278373
9.963233538
9.963235057
9.963273011
9.96326583
9.963256088
9.963281446
9.963228323
9.963268063
9.963272417
9.963228838
9.963232678
9.963270251
9.963262016
9.96325312
9.963277319
9.963224258
9.963263057
9.963267356
9.963225598
9.963230551
9.96326805
9.963259484
9.963250343
9.963273522
9.963219571
9.963257569
9.963261705
9.963221647
9.963229008
9.963264625
9.963256125
9.963246777
9.963268654
9.963215167
9.963254126
9.963256965
9.963217871
9.963225915
9.963260463
9.963252729
9.963243515
9.963265321
9.963211605
9.963250448
9.963253185
9.963214303
9.963222145
9.963257239
9.963250107
9.963239513
9.963262172
9.963208472
9.96324762
9.963249879
9.963210751
9.963219286
9.963254058
9.963247448
9.963236633
9.963258405
9.963206091
9.96324511
9.963247699
9.963207895
9.963216523
9.963251459
9.963243214
9.96323228
9.963256262
9.963203299
9.963243279
9.963244272
9.963204791
9.963213533
9.963248613
9.963241017
9.963230984
9.963254005
9.963201856
9.963241427
9.963241796
9.963202039
9.963211172
9.963247088
9.963237705
9.963230003
9.96325161
9.963200248
9.963240772
9.963238828
9.963200964
9.963207803
9.963243843
)
;
    }
    bottom
    {
        type            calculated;
        value           nonuniform List<scalar> 
134
(
9.963281318
9.963260746
9.963288612
9.963259377
9.96328886
9.963307199
9.963254925
9.963289151
9.963258456
9.963281577
9.963257257
9.963285601
9.963255546
9.963284092
9.963306525
9.96325357
9.963288571
9.963257974
9.963280264
9.963254027
9.963282564
9.963249545
9.963279195
9.963302289
9.963251024
9.963287356
9.963257297
9.963277834
9.963250231
9.963277619
9.9632441
9.963275611
9.963299735
9.963250347
9.963284849
9.963254966
9.963276103
9.963247428
9.963272744
9.963237088
9.963271045
9.963295874
9.963247213
9.963282486
9.963251865
9.963273835
9.963243018
9.963267598
9.963230844
9.963266269
9.963293475
9.963245486
9.963280088
9.963249257
9.963271445
9.963239319
9.963261375
9.963226273
9.963262692
9.963289431
9.963241913
9.963278576
9.963245779
9.963268452
9.963234801
9.963256523
9.963222081
9.963258685
9.963285532
9.963238414
9.963275931
9.963242927
9.963264955
9.96323226
9.963252433
9.963217768
9.963257377
9.963282196
9.963236038
9.963273571
9.963239928
9.963261515
9.963228619
9.963248917
9.963214905
9.963253544
9.963279408
9.963231356
9.963270798
9.963236759
9.963259316
9.963225746
9.963247224
9.963211624
9.963251398
9.963275018
9.963228283
9.963267284
9.963235046
9.963256128
9.96322178
9.963243905
9.963209843
9.963248319
9.963272228
9.96322371
9.963264235
9.963232177
9.96325218
9.96321963
9.963241413
9.963209183
9.963245
9.963270411
9.963218991
9.963260912
9.963230615
9.963249441
9.963216795
9.963239062
9.963207479
9.963242377
9.963267453
9.963216979
9.963259058
9.963227477
9.963248196
9.963214488
9.963237498
9.963205848
9.96324224
9.963265372
9.963214104
9.963257577
)
;
    }
    side-walls
    {
        type            calculated;
        value           nonuniform List<scalar> 
261
(
9.963258456
9.963266951
9.963258246
9.963242264
9.963238484
9.96332003
9.963315896
9.963273223
9.9632719
9.963257974
9.963265078
9.963255985
9.963236637
9.963233188
9.963315372
9.963313802
9.963270959
9.963271571
9.963257297
9.963261718
9.963251273
9.963231345
9.963225912
9.963308875
9.963309891
9.963267814
9.963269013
9.963254966
9.963258537
9.963248545
9.963226629
9.963220992
9.963302819
9.963304986
9.963265646
9.963268071
9.963251865
9.963255387
9.963244711
9.963222007
9.963216806
9.963297159
9.963300348
9.963263711
9.96326583
9.963249257
9.963252508
9.963240511
9.963218264
9.963211744
9.963290794
9.963295529
9.963260352
9.963262016
9.963245779
9.963249435
9.963236585
9.963213844
9.963207969
9.963286016
9.963291686
9.963257586
9.963259484
9.963242927
9.963244569
9.963233524
9.963210641
9.963202915
9.963281536
9.963287878
9.963255636
9.963256125
9.963239928
9.963240269
9.963230154
9.963206017
9.963199697
9.963278961
9.96328351
9.963251662
9.963252729
9.963236759
9.963236331
9.963227293
9.963202871
9.963195476
9.963275171
9.963278881
9.963248082
9.963250107
9.963235046
9.963232884
9.963223894
9.96320067
9.963192911
9.963272585
9.963275623
9.963243831
9.963247448
9.963232177
9.963229454
9.963221098
9.963198635
9.963190348
9.963270335
9.963274497
9.963240698
9.963243214
9.963230615
9.963226959
9.96321802
9.963197192
9.963188411
9.963269593
9.963271257
9.963238523
9.963241017
9.963227477
9.963224529
9.963216547
9.963195874
9.963186435
9.963267924
9.963270237
9.963235837
9.963237705
9.963289151
9.96325599
9.963281947
9.963241101
9.96327823
9.963215951
9.963276159
9.963295957
9.963278551
9.963288571
9.963255608
9.963278982
9.963236748
9.963274
9.963213017
9.963273401
9.963295662
9.963277679
9.963287356
9.963252816
9.963276958
9.963231244
9.963268266
9.963208902
9.963270306
9.963294073
9.963276375
9.963284849
9.963251121
9.963274063
9.96322627
9.96326152
9.963204532
9.963266759
9.963292218
9.963274528
9.963282486
9.963248498
9.963270238
9.963221425
9.963255646
9.963199796
9.963263876
9.963290758
9.963273011
9.963280088
9.963244588
9.963264935
9.96321785
9.963248804
9.963195263
9.963259109
9.963287044
9.963270251
9.963278576
9.963242161
9.963261355
9.963213232
9.963243349
9.963190872
9.963253361
9.963283755
9.96326805
9.963275931
9.963239585
9.963256368
9.963206784
9.963238542
9.96318596
9.963249965
9.963279969
9.963264625
9.963273571
9.963235752
9.963252629
9.963202545
9.963235304
9.963183237
9.963245831
9.963276751
9.963260463
9.963270798
9.963232266
9.963250452
9.963198146
9.96323275
9.963179655
9.963243034
9.963273385
9.963257239
9.963267284
9.963230203
9.9632462
9.963194587
9.963230302
9.963175148
9.963239109
9.963270208
9.963254058
9.963264235
9.963225957
9.963242658
9.963192666
9.963227926
9.963172346
9.963236431
9.963266414
9.963251459
9.963260912
9.963222558
9.963239347
9.963189828
9.963226159
9.963169718
9.963233199
9.963264084
9.963248613
9.963259058
9.963219978
9.963237731
9.963186538
9.963224917
9.963166533
9.963230027
9.96326204
9.963247088
9.963257577
9.963219272
9.96323603
9.963185506
9.963224163
9.963166025
9.96322776
9.963259565
9.963243843
)
;
    }
    inlet
    {
        type            calculated;
        value           nonuniform 0();
    }
    outlet
    {
        type            calculated;
        value           nonuniform List<scalar> 
81
(
9.963227477
9.963224529
9.963216547
9.963195874
9.963186435
9.963267924
9.963270237
9.963235837
9.963237705
9.963248196
9.963189398
9.96318996
9.963223058
9.963198688
9.963170554
9.963149566
9.963270872
9.963230003
9.963214488
9.963242214
9.963219978
9.963194634
9.963142019
9.963239856
9.963223534
9.963211257
9.96325161
9.963237498
9.963219935
9.963254348
9.96317102
9.96318224
9.963175977
9.963191203
9.963197077
9.963200248
9.963205848
9.963223134
9.963083306
9.963166063
9.991327971
9.96315792
9.963193727
9.963224946
9.963240772
9.96324224
9.963243824
9.963199059
9.963195614
9.963195837
9.963204207
9.963193218
9.963221133
9.963238828
9.963265372
9.963188004
9.963129786
9.963188942
9.963222402
9.963190343
9.963205179
9.963244114
9.963200964
9.963214104
9.963228914
9.963208313
9.963202187
9.963185018
9.963218842
9.963224559
9.963222071
9.963207803
9.963257577
9.963219272
9.96323603
9.963185506
9.963224163
9.963166025
9.96322776
9.963259565
9.963243843
)
;
    }
    procBoundary1to0
    {
        type            processor;
        value           nonuniform List<scalar> 
97
(
9.963259393
9.963259393
9.963269351
9.963260674
9.963246719
9.963241514
9.96332293
9.963318084
9.963274204
9.963272677
9.963281869
9.963236087
9.963236087
9.963236087
9.963238055
9.963274151
9.963253037
9.963218945
9.963194635
9.963311176
9.963266865
9.963262173
9.963293743
9.963283588
9.963283588
9.963283588
9.963247202
9.963163785
9.963286169
9.963278238
9.963260693
9.963297234
9.963290944
9.963286773
9.963319952
9.96315286
9.96315286
9.96315286
9.962925752
9.963153658
9.9632468
9.963250816
9.963252342
9.963260636
9.963282856
9.963150246
9.96316159
9.988885407
9.988885407
9.988885407
9.962905
9.962905
9.96321169
9.963280991
9.963292444
9.963291938
9.963304557
9.963270385
9.963247554
9.963195241
9.963259756
9.96323904
9.96323904
9.96323904
9.963282205
9.963294379
9.963308935
9.963245675
9.963192268
9.963260057
9.96328599
9.963263125
9.963274149
9.963299963
9.963299963
9.963299963
9.96324538
9.963253713
9.9632701
9.963262122
9.963265074
9.963248698
9.963281471
9.963281479
9.963264309
9.963240358
9.963240358
9.963240358
9.963289806
9.96325602
9.963281721
9.963243693
9.963280523
9.963217119
9.963277542
9.96329622
9.963278012
)
;
    }
}


// ************************************************************************* //
