/*--------------------------------*- C++ -*----------------------------------*\
| =========                 |                                                 |
| \\      /  F ield         | OpenFOAM: The Open Source CFD Toolbox           |
|  \\    /   O peration     | Version:  4.x                                   |
|   \\  /    A nd           | Web:      www.OpenFOAM.org                      |
|    \\/     M anipulation  |                                                 |
\*---------------------------------------------------------------------------*/
FoamFile
{
    version     2.0;
    format      ascii;
    class       volScalarField;
    location    "9000";
    object      N2;
}
// * * * * * * * * * * * * * * * * * * * * * * * * * * * * * * * * * * * * * //

dimensions      [0 0 0 0 0 0 0];

internalField   nonuniform List<scalar> 
1174
(
0.6030932889
0.6030928298
0.6030921824
0.6030913394
0.6030903102
0.6030891181
0.6030877953
0.603086378
0.6030849031
0.6030834049
0.6030819151
0.6030804671
0.6030791204
0.6030780637
0.6030928585
0.603092124
0.6030911476
0.6030899524
0.6030885804
0.6030870817
0.6030855071
0.6030839028
0.6030823071
0.603080751
0.6030792583
0.6030778523
0.6030765776
0.6030755951
0.6030919089
0.6030906133
0.6030890131
0.6030871992
0.6030852698
0.6030833122
0.6030813956
0.6030795686
0.603077862
0.6030762923
0.6030748662
0.6030735876
0.6030724765
0.6030716457
0.6030905197
0.6030885102
0.6030862074
0.6030837806
0.60308137
0.6030790758
0.6030769601
0.6030750546
0.6030733684
0.6030718966
0.6030706257
0.6030695407
0.6030686391
0.6030679877
0.6030895297
0.6030871291
0.6030845151
0.6030818723
0.6030793334
0.6030769829
0.6030748661
0.6030729999
0.603071382
0.603069998
0.6030688276
0.6030678495
0.6030670538
0.6030664886
0.6030905197
0.6030885102
0.6030862075
0.6030837807
0.6030813701
0.6030790759
0.6030769602
0.6030750547
0.6030733685
0.6030718967
0.6030706258
0.6030695408
0.6030686392
0.6030679879
0.6030919089
0.6030906133
0.6030890131
0.6030871993
0.6030852699
0.6030833123
0.6030813957
0.6030795687
0.6030778622
0.6030762925
0.6030748664
0.6030735879
0.6030724767
0.603071646
0.6030928586
0.6030921241
0.6030911476
0.6030899525
0.6030885804
0.6030870818
0.6030855073
0.6030839029
0.6030823073
0.6030807512
0.6030792585
0.6030778525
0.6030765779
0.6030755954
0.603093289
0.6030928298
0.6030921825
0.6030913394
0.6030903103
0.6030891182
0.6030877953
0.6030863782
0.6030849033
0.6030834051
0.6030819153
0.6030804674
0.6030791206
0.603078064
0.6030933553
0.6030928585
0.6030921241
0.6030911476
0.6030899524
0.6030885804
0.6030870817
0.6030855072
0.6030839028
0.6030823072
0.603080751
0.6030792583
0.6030778523
0.6030765777
0.6030755952
0.6030918899
0.6030906033
0.6030890372
0.6030872864
0.6030854456
0.6030835943
0.6030817911
0.6030800752
0.6030784692
0.6030769844
0.6030756244
0.6030743925
0.6030733102
0.6030724937
0.6030894564
0.6030869626
0.6030842575
0.6030815704
0.6030790573
0.6030768026
0.603074836
0.6030731521
0.6030717267
0.6030705277
0.6030695218
0.6030686806
0.6030679905
0.6030674949
0.6030851389
0.6030810008
0.6030770752
0.6030736544
0.6030708382
0.6030686105
0.6030668996
0.6030656156
0.6030646709
0.603063989
0.6030635066
0.6030631738
0.6030629525
0.6030628215
0.6030810738
0.6030761018
0.6030718998
0.603068575
0.6030660577
0.6030642165
0.6030629127
0.6030620222
0.6030614426
0.6030610922
0.603060908
0.603060841
0.6030608503
0.6030608919
0.6030851389
0.6030810009
0.6030770753
0.6030736544
0.6030708383
0.6030686107
0.6030668997
0.6030656157
0.6030646711
0.6030639891
0.6030635068
0.603063174
0.6030629527
0.6030628217
0.6030894564
0.6030869626
0.6030842575
0.6030815705
0.6030790575
0.6030768028
0.6030748361
0.6030731523
0.6030717269
0.6030705279
0.603069522
0.6030686809
0.6030679907
0.6030674952
0.60309189
0.6030906034
0.6030890373
0.6030872865
0.6030854458
0.6030835944
0.6030817913
0.6030800753
0.6030784695
0.6030769846
0.6030756247
0.6030743928
0.6030733106
0.603072494
0.6030928586
0.6030921241
0.6030911476
0.6030899525
0.6030885804
0.6030870818
0.6030855073
0.6030839029
0.6030823074
0.6030807512
0.6030792586
0.6030778526
0.603076578
0.6030755955
0.6030928421
0.603091909
0.6030906133
0.6030890131
0.6030871993
0.6030852698
0.6030833123
0.6030813956
0.6030795686
0.6030778621
0.6030762924
0.6030748663
0.6030735877
0.6030724766
0.6030716458
0.6030914741
0.6030894564
0.6030869626
0.6030842575
0.6030815704
0.6030790574
0.6030768027
0.603074836
0.6030731521
0.6030717268
0.6030705277
0.6030695218
0.6030686806
0.6030679905
0.6030674949
0.6030822804
0.6030770344
0.6030722968
0.6030684238
0.6030654849
0.6030633909
0.6030619885
0.6030611162
0.6030606305
0.6030604154
0.6030603818
0.6030604628
0.6030606048
0.6030607456
0.6030663482
0.6030575148
0.6030514479
0.6030478885
0.6030462375
0.6030458954
0.6030463804
0.6030473446
0.6030485529
0.6030498539
0.6030511534
0.603052391
0.6030535093
0.6030543646
0.6030455237
0.6030367675
0.6030330462
0.6030324345
0.6030335619
0.6030355687
0.6030379467
0.6030404077
0.6030427954
0.6030450302
0.6030470757
0.6030489141
0.6030505118
0.6030517055
0.6030663485
0.6030575151
0.6030514482
0.6030478888
0.6030462378
0.6030458957
0.6030463806
0.6030473448
0.6030485532
0.6030498542
0.6030511536
0.6030523913
0.6030535095
0.6030543649
0.6030822806
0.6030770346
0.6030722971
0.6030684241
0.6030654852
0.6030633912
0.6030619888
0.6030611165
0.6030606309
0.6030604158
0.6030603822
0.6030604632
0.6030606052
0.603060746
0.6030894565
0.6030869627
0.6030842576
0.6030815705
0.6030790575
0.6030768029
0.6030748362
0.6030731524
0.6030717271
0.603070528
0.6030695222
0.603068681
0.6030679909
0.6030674953
0.6030919089
0.6030906134
0.6030890131
0.6030871993
0.6030852699
0.6030833124
0.6030813958
0.6030795688
0.6030778623
0.6030762927
0.6030748666
0.6030735881
0.603072477
0.6030716463
0.6030920727
0.6030905198
0.6030885103
0.6030862075
0.6030837807
0.6030813701
0.6030790759
0.6030769602
0.6030750547
0.6030733685
0.6030718967
0.6030706258
0.6030695408
0.6030686392
0.6030679878
0.6030889538
0.603085139
0.6030810009
0.6030770753
0.6030736544
0.6030708383
0.6030686106
0.6030668997
0.6030656157
0.603064671
0.6030639891
0.6030635067
0.6030631739
0.6030629526
0.6030628216
0.6030771622
0.6030663483
0.6030575149
0.603051448
0.6030478886
0.6030462376
0.6030458955
0.6030463804
0.6030473446
0.603048553
0.603049854
0.6030511534
0.6030523911
0.6030535093
0.6030543647
0.6030118151
0.6030007713
0.602999027
0.6030023001
0.6030077977
0.6030139493
0.6030199625
0.6030254861
0.6030304013
0.6030347026
0.603038432
0.6030416399
0.6030443334
0.6030462992
0.6029050108
0.602919156
0.6029407201
0.602961343
0.6029788396
0.602993097
0.6030045882
0.6030138643
0.603021404
0.6030275857
0.6030326964
0.6030369412
0.6030404162
0.603042912
0.6030118162
0.6030007721
0.6029990277
0.6030023007
0.6030077982
0.6030139499
0.6030199629
0.6030254865
0.6030304018
0.6030347029
0.6030384323
0.6030416403
0.6030443338
0.6030462995
0.6030663485
0.6030575152
0.6030514484
0.603047889
0.6030462381
0.603045896
0.603046381
0.6030473452
0.6030485535
0.6030498545
0.603051154
0.6030523916
0.6030535098
0.6030543652
0.603085139
0.603081001
0.6030770754
0.6030736546
0.6030708385
0.603068611
0.6030669001
0.6030656161
0.6030646715
0.6030639895
0.6030635072
0.6030631744
0.6030629531
0.6030628221
0.6030905197
0.6030885103
0.6030862075
0.6030837808
0.6030813702
0.6030790761
0.6030769605
0.603075055
0.6030733689
0.6030718971
0.6030706262
0.6030695413
0.6030686397
0.6030679884
0.6030914965
0.6030895297
0.6030871292
0.6030845152
0.6030818723
0.6030793335
0.603076983
0.6030748662
0.603073
0.6030713821
0.6030699982
0.6030688277
0.6030678496
0.6030670539
0.6030664887
0.6030863288
0.6030810738
0.6030761019
0.6030718999
0.6030685751
0.6030660578
0.6030642166
0.6030629128
0.6030620223
0.6030614427
0.6030610923
0.6030609081
0.6030608411
0.6030608504
0.603060892
0.6030611471
0.6030455238
0.6030367677
0.6030330464
0.6030324346
0.6030335621
0.6030355689
0.6030379468
0.6030404078
0.6030427955
0.6030450303
0.6030470758
0.6030489142
0.6030505119
0.6030517056
0.6029238202
0.6029050116
0.6029191566
0.6029407205
0.6029613434
0.6029788399
0.6029930973
0.6030045884
0.6030138644
0.6030214041
0.6030275858
0.6030326965
0.6030369412
0.6030404163
0.603042912
0.602446005
0.6026801691
0.6028096756
0.6028854169
0.6029322963
0.6029629489
0.6029840316
0.6029991931
0.6030105166
0.6030192403
0.6030261283
0.6030316578
0.6030360747
0.6030391979
0.6029050107
0.6029191571
0.6029407213
0.6029613442
0.6029788406
0.6029930979
0.6030045889
0.603013865
0.6030214046
0.6030275863
0.6030326969
0.6030369416
0.6030404167
0.6030429124
0.6030455237
0.6030367679
0.6030330469
0.6030324353
0.6030335628
0.6030355696
0.6030379475
0.6030404085
0.6030427961
0.6030450309
0.6030470764
0.6030489147
0.6030505125
0.6030517062
0.6030810738
0.6030761019
0.6030719001
0.6030685754
0.6030660582
0.6030642171
0.6030629133
0.6030620229
0.6030614432
0.6030610929
0.6030609087
0.6030608417
0.603060851
0.6030608926
0.6030895297
0.6030871292
0.6030845153
0.6030818725
0.6030793337
0.6030769833
0.6030748666
0.6030730004
0.6030713826
0.6030699987
0.6030688283
0.6030678502
0.6030670545
0.6030664893
0.6030920727
0.6030905198
0.6030885103
0.6030862076
0.6030837808
0.6030813702
0.603079076
0.6030769604
0.6030750548
0.6030733687
0.6030718968
0.6030706259
0.6030695409
0.6030686394
0.603067988
0.6030889538
0.6030851391
0.603081001
0.6030770754
0.6030736546
0.6030708384
0.6030686108
0.6030668999
0.6030656159
0.6030646712
0.6030639893
0.6030635069
0.6030631741
0.6030629528
0.6030628218
0.6030771626
0.6030663487
0.6030575154
0.6030514485
0.6030478891
0.6030462381
0.6030458959
0.6030463808
0.603047345
0.6030485534
0.6030498544
0.6030511538
0.6030523914
0.6030535096
0.603054365
0.6030367802
0.6030118171
0.6030007728
0.6029990283
0.6030023012
0.6030077986
0.6030139502
0.6030199632
0.6030254867
0.6030304019
0.6030347031
0.6030384324
0.6030416404
0.6030443339
0.6030462996
0.6029238207
0.6029050121
0.602919158
0.6029407218
0.6029613445
0.6029788409
0.6029930981
0.6030045891
0.6030138651
0.6030214047
0.6030275863
0.603032697
0.6030369417
0.6030404167
0.6030429124
0.60303678
0.6030118172
0.6030007732
0.6029990288
0.6030023017
0.6030077992
0.6030139507
0.6030199637
0.6030254872
0.6030304024
0.6030347035
0.6030384328
0.6030416407
0.6030443342
0.6030463
0.6030663482
0.6030575153
0.6030514487
0.6030478895
0.6030462386
0.6030458965
0.6030463814
0.6030473456
0.603048554
0.6030498549
0.6030511544
0.603052392
0.6030535102
0.6030543655
0.6030851389
0.603081001
0.6030770755
0.6030736548
0.6030708387
0.6030686112
0.6030669003
0.6030656164
0.6030646717
0.6030639898
0.6030635075
0.6030631747
0.6030629534
0.6030628224
0.6030905197
0.6030885103
0.6030862076
0.6030837808
0.6030813703
0.6030790762
0.6030769607
0.6030750551
0.6030733691
0.6030718973
0.6030706265
0.6030695415
0.60306864
0.6030679886
0.6030928422
0.603091909
0.6030906134
0.6030890132
0.6030871994
0.6030852699
0.6030833124
0.6030813958
0.6030795688
0.6030778623
0.6030762926
0.6030748665
0.603073588
0.6030724768
0.6030716461
0.6030914742
0.6030894565
0.6030869627
0.6030842576
0.6030815706
0.6030790576
0.6030768029
0.6030748362
0.6030731524
0.603071727
0.603070528
0.6030695222
0.603068681
0.6030679909
0.6030674953
0.603087294
0.6030822807
0.6030770347
0.6030722972
0.6030684242
0.6030654854
0.6030633914
0.603061989
0.6030611167
0.603060631
0.6030604159
0.6030603823
0.6030604633
0.6030606053
0.6030607461
0.6030771626
0.6030663489
0.6030575156
0.6030514488
0.6030478894
0.6030462385
0.6030458963
0.6030463812
0.6030473454
0.6030485537
0.6030498547
0.6030511541
0.6030523917
0.6030535099
0.6030543653
0.6030611474
0.6030455245
0.6030367687
0.6030330475
0.6030324357
0.6030335632
0.6030355699
0.6030379477
0.6030404087
0.6030427963
0.603045031
0.6030470765
0.6030489149
0.6030505125
0.6030517062
0.6030771627
0.603066349
0.6030575158
0.6030514491
0.6030478897
0.6030462388
0.6030458966
0.6030463816
0.6030473457
0.603048554
0.603049855
0.6030511544
0.603052392
0.6030535102
0.6030543656
0.6030872939
0.6030822807
0.6030770348
0.6030722974
0.6030684245
0.6030654857
0.6030633918
0.6030619894
0.6030611171
0.6030606315
0.6030604164
0.6030603828
0.6030604638
0.6030606058
0.6030607466
0.6030894564
0.6030869627
0.6030842577
0.6030815707
0.6030790578
0.6030768032
0.6030748366
0.6030731528
0.6030717275
0.6030705285
0.6030695226
0.6030686815
0.6030679914
0.6030674958
0.6030919089
0.6030906133
0.6030890132
0.6030871994
0.60308527
0.6030833126
0.603081396
0.6030795691
0.6030778626
0.603076293
0.603074867
0.6030735884
0.6030724773
0.6030716466
0.6030933553
0.6030928586
0.6030921241
0.6030911476
0.6030899525
0.6030885805
0.6030870818
0.6030855073
0.603083903
0.6030823074
0.6030807512
0.6030792586
0.6030778526
0.603076578
0.6030755955
0.6030928291
0.60309189
0.6030906034
0.6030890373
0.6030872866
0.6030854458
0.6030835945
0.6030817914
0.6030800754
0.6030784695
0.6030769847
0.6030756248
0.6030743929
0.6030733107
0.6030724941
0.6030914742
0.6030894565
0.6030869628
0.6030842577
0.6030815706
0.6030790577
0.603076803
0.6030748364
0.6030731525
0.6030717272
0.6030705282
0.6030695223
0.6030686812
0.603067991
0.6030674955
0.6030889538
0.6030851391
0.6030810012
0.6030770756
0.6030736549
0.6030708388
0.6030686112
0.6030669003
0.6030656163
0.6030646716
0.6030639897
0.6030635074
0.6030631746
0.6030629532
0.6030628223
0.6030863289
0.6030810741
0.6030761022
0.6030719004
0.6030685757
0.6030660584
0.6030642173
0.6030629135
0.6030620231
0.6030614434
0.6030610931
0.6030609089
0.6030608418
0.6030608511
0.6030608927
0.6030889539
0.6030851392
0.6030810012
0.6030770757
0.603073655
0.6030708389
0.6030686114
0.6030669005
0.6030656165
0.6030646718
0.6030639899
0.6030635076
0.6030631748
0.6030629535
0.6030628225
0.6030914742
0.6030894565
0.6030869628
0.6030842578
0.6030815708
0.6030790578
0.6030768032
0.6030748366
0.6030731528
0.6030717275
0.6030705285
0.6030695227
0.6030686815
0.6030679914
0.6030674958
0.603092829
0.60309189
0.6030906034
0.6030890374
0.6030872866
0.6030854459
0.6030835946
0.6030817916
0.6030800757
0.6030784698
0.603076985
0.6030756251
0.6030743933
0.6030733111
0.6030724945
0.6030928585
0.6030921241
0.6030911476
0.6030899525
0.6030885805
0.6030870819
0.6030855075
0.6030839031
0.6030823076
0.6030807515
0.6030792589
0.603077853
0.6030765784
0.603075596
0.6030935848
0.603093289
0.6030928298
0.6030921825
0.6030913395
0.6030903103
0.6030891182
0.6030877954
0.6030863782
0.6030849033
0.6030834051
0.6030819153
0.6030804675
0.6030791207
0.603078064
0.6030933553
0.6030928586
0.6030921241
0.6030911476
0.6030899525
0.6030885805
0.6030870819
0.6030855074
0.603083903
0.6030823074
0.6030807513
0.6030792587
0.6030778527
0.6030765781
0.6030755956
0.6030928422
0.603091909
0.6030906134
0.6030890132
0.6030871994
0.60308527
0.6030833125
0.6030813959
0.6030795689
0.6030778624
0.6030762928
0.6030748668
0.6030735882
0.6030724771
0.6030716464
0.6030920727
0.6030905198
0.6030885104
0.6030862077
0.6030837809
0.6030813704
0.6030790762
0.6030769606
0.6030750551
0.603073369
0.6030718972
0.6030706264
0.6030695414
0.6030686398
0.6030679885
0.6030914966
0.6030895298
0.6030871293
0.6030845154
0.6030818726
0.6030793339
0.6030769835
0.6030748667
0.6030730006
0.6030713827
0.6030699988
0.6030688284
0.6030678503
0.6030670546
0.6030664894
0.6030920727
0.6030905198
0.6030885104
0.6030862077
0.603083781
0.6030813704
0.6030790763
0.6030769608
0.6030750552
0.6030733692
0.6030718974
0.6030706265
0.6030695416
0.60306864
0.6030679887
0.6030928422
0.603091909
0.6030906134
0.6030890132
0.6030871995
0.6030852701
0.6030833126
0.6030813961
0.6030795691
0.6030778626
0.603076293
0.603074867
0.6030735885
0.6030724774
0.6030716467
0.6030933553
0.6030928586
0.6030921241
0.6030911477
0.6030899526
0.6030885806
0.603087082
0.6030855075
0.6030839032
0.6030823076
0.6030807515
0.6030792589
0.603077853
0.6030765784
0.603075596
0.6030935848
0.603093289
0.6030928298
0.6030921825
0.6030913395
0.6030903103
0.6030891183
0.6030877955
0.6030863784
0.6030849035
0.6030834054
0.6030819156
0.6030804678
0.6030791211
0.6030780645
)
;

boundaryField
{
    top
    {
        type            zeroGradient;
    }
    bottom
    {
        type            zeroGradient;
    }
    side-walls
    {
        type            zeroGradient;
    }
    inlet
    {
        type            zeroGradient;
    }
    outlet
    {
        type            zeroGradient;
    }
    procBoundary1to0
    {
        type            processor;
        value           nonuniform List<scalar> 
97
(
0.6030935848
0.6030935848
0.6030933553
0.6030928422
0.6030920727
0.6030914966
0.6030920728
0.6030928422
0.6030933553
0.6030935848
0.6030936495
0.603092829
0.603092829
0.603092829
0.6030914742
0.6030889539
0.6030863291
0.6030889539
0.6030914742
0.6030928291
0.6030933553
0.6030934167
0.6030928155
0.6030872938
0.6030872938
0.6030872938
0.6030771627
0.6030611483
0.6030771631
0.6030872942
0.6030914742
0.6030928422
0.6030930761
0.603091757
0.6030871509
0.6030367794
0.6030367794
0.6030367794
0.6029238268
0.6030367817
0.603077163
0.6030889539
0.6030920727
0.6030928334
0.6030907603
0.6030820456
0.6030476151
0.6019986008
0.6019986008
0.6019986008
0.6029238262
0.6029238262
0.6030611482
0.6030863291
0.6030914966
0.6030930761
0.603091757
0.6030871508
0.6030737853
0.603047615
0.6030737855
0.6030771623
0.6030771623
0.6030771623
0.6030889538
0.6030920727
0.6030934167
0.6030928154
0.6030910563
0.6030871508
0.6030820457
0.6030871509
0.6030910563
0.6030914741
0.6030914741
0.6030914741
0.6030928422
0.6030936495
0.603093412
0.6030928154
0.603091757
0.6030907603
0.603091757
0.6030928155
0.603093412
0.6030933553
0.6030933553
0.6030933553
0.603093755
0.6030936495
0.6030934167
0.6030930761
0.6030928334
0.6030930761
0.6030934167
0.6030936495
0.603093755
)
;
    }
}


// ************************************************************************* //
