/*--------------------------------*- C++ -*----------------------------------*\
| =========                 |                                                 |
| \\      /  F ield         | OpenFOAM: The Open Source CFD Toolbox           |
|  \\    /   O peration     | Version:  4.x                                   |
|   \\  /    A nd           | Web:      www.OpenFOAM.org                      |
|    \\/     M anipulation  |                                                 |
\*---------------------------------------------------------------------------*/
FoamFile
{
    version     2.0;
    format      ascii;
    class       surfaceScalarField;
    location    "9000";
    object      phi;
}
// * * * * * * * * * * * * * * * * * * * * * * * * * * * * * * * * * * * * * //

dimensions      [1 0 -1 0 0 0 0];

internalField   nonuniform List<scalar> 
3172
(
9.428413039e-06
-9.9766645e-12
-1.040508845e-11
9.428429859e-06
-1.025732209e-11
-1.097843267e-11
9.42844189e-06
-6.366726442e-12
-6.634969096e-12
9.428448972e-06
-4.239745308e-12
-2.7616816e-12
9.428451978e-06
-2.008019113e-12
-1.918676964e-12
9.428452066e-06
-3.589411849e-13
6.092104669e-13
9.428451038e-06
9.198503795e-13
4.514020829e-13
9.428443939e-06
1.00494874e-12
2.513769019e-13
9.428440335e-06
3.313437773e-12
1.021633774e-12
9.428435823e-06
3.341635568e-12
2.859171161e-12
9.428430271e-06
2.415696212e-12
2.783937628e-12
9.428424525e-06
2.521393814e-12
2.38763732e-12
9.428418331e-06
4.8846907e-12
4.501008859e-12
3.668492741e-12
3.766021155e-12
9.428429553e-06
-1.754190859e-11
-1.063573397e-11
9.428446984e-06
-1.542417185e-11
-1.208280893e-11
9.428452776e-06
-8.950594838e-12
-7.373274778e-12
9.42845699e-06
-4.426679473e-12
-3.381990523e-12
9.428455904e-06
-1.523805195e-12
-5.640945661e-13
9.428455129e-06
1.30030385e-12
1.78602036e-12
9.428449064e-06
1.782021262e-12
5.813094229e-13
9.428443281e-06
2.578284479e-12
1.280325894e-12
9.428434929e-06
3.266931139e-12
6.999913465e-13
9.428428597e-06
2.495495658e-12
2.403876666e-12
9.428422842e-06
3.797163404e-12
4.614682453e-12
9.428417429e-06
6.016293112e-12
4.804613328e-12
9.428410038e-06
5.699013859e-12
4.934463719e-12
4.099878938e-12
3.32978472e-12
9.428447191e-06
-1.126992911e-11
-1.675382708e-11
9.42845974e-06
-1.232530583e-11
-1.770521926e-11
9.428459717e-06
-6.630813147e-12
-5.259947268e-12
9.42845654e-06
-5.840047813e-13
5.698706345e-13
9.42844942e-06
1.057413216e-12
3.153261209e-12
9.428440193e-06
8.63242212e-13
4.078893987e-12
9.428433542e-06
3.952397932e-12
6.43326993e-12
9.428425191e-06
2.893263225e-12
5.305822067e-12
9.428417322e-06
2.432301718e-12
3.774707367e-12
9.428411332e-06
3.413247918e-12
5.428988417e-12
9.428409113e-06
3.644348107e-12
6.895504397e-12
9.428401747e-06
3.805261872e-12
3.690011922e-12
9.428396081e-06
5.637527456e-12
5.223610479e-12
5.290668679e-12
3.938538456e-12
9.42843836e-06
-4.684137165e-12
2.124323759e-13
9.428447224e-06
-2.644965467e-12
-2.234634237e-11
9.428443981e-06
1.847784608e-12
-4.319525825e-12
9.428435641e-06
3.49269228e-12
4.715183937e-12
9.42842355e-06
2.802242689e-12
7.267052501e-12
9.428415173e-06
3.094415297e-12
1.049237045e-11
9.428404794e-06
1.847054283e-12
9.567673911e-12
9.428396078e-06
3.686731498e-13
8.557411296e-12
9.428388501e-06
-2.538141779e-13
7.974983767e-12
9.428384261e-06
1.068412907e-12
9.059323901e-12
9.428382267e-06
4.75550017e-13
8.598908335e-12
9.42837814e-06
1.349974249e-13
5.941475556e-12
9.428373762e-06
1.747893126e-12
5.950066183e-12
2.466834077e-12
5.625034791e-12
9.428478672e-06
4.443932357e-12
3.368400419e-11
9.428464079e-06
1.118851063e-12
1.029276724e-11
9.428445039e-06
-1.723308984e-12
2.119542103e-11
9.428428e-06
-4.107936391e-12
2.341976759e-11
9.428414862e-06
-4.865064251e-12
1.84208982e-11
9.428402621e-06
-3.52301798e-12
1.678075783e-11
9.428391781e-06
-3.799202631e-12
1.479950244e-11
9.428385151e-06
-2.678430588e-12
1.119746992e-11
9.428380084e-06
-1.097436437e-12
9.65077304e-12
9.428372742e-06
-1.942518671e-12
8.756463762e-12
9.428370722e-06
-1.321773048e-12
8.941223684e-12
9.428368586e-06
-1.138090029e-12
5.864665393e-12
9.42836383e-06
-2.399553409e-12
6.256976137e-12
-1.983219469e-12
4.270563407e-12
9.428509791e-06
1.217777104e-11
4.29811596e-13
9.428521399e-06
1.249657053e-11
-2.164920151e-11
9.42851665e-06
4.779603003e-12
-4.208097874e-12
9.428504707e-06
-4.96082207e-13
5.296802747e-12
9.428497366e-06
-1.057981429e-12
9.30813522e-12
9.42848212e-06
-3.074043875e-12
1.063689663e-11
9.428472691e-06
-2.518797872e-12
1.136588823e-11
9.428464945e-06
-3.422604548e-12
1.086727408e-11
9.428457954e-06
-5.120386947e-12
9.291837153e-12
9.428451594e-06
-4.989227313e-12
8.740532078e-12
9.428450431e-06
-5.123863998e-12
8.429078543e-12
9.428445187e-06
-3.657045473e-12
5.144535135e-12
9.428441788e-06
-4.432054073e-12
5.804925784e-12
-2.057351437e-12
5.475717248e-12
9.428496878e-06
1.685227715e-11
-1.625740423e-11
9.428512722e-06
1.536433735e-11
-1.6364772e-11
9.428512852e-06
7.922222871e-12
-5.421026172e-12
9.428508223e-06
3.620889662e-12
1.211741931e-12
9.428501753e-06
1.597783718e-12
5.445617963e-12
9.428492728e-06
-1.806424557e-15
7.546114058e-12
9.428482453e-06
-2.483163283e-12
6.476212087e-12
9.428475861e-06
-4.797623262e-12
6.553819892e-12
9.428471052e-06
-4.495857119e-12
9.060379473e-12
9.428461966e-06
-3.512016152e-12
7.58455238e-12
9.428459386e-06
-2.555993792e-12
6.925064871e-12
9.428452116e-06
-3.693753065e-12
3.806679574e-12
9.428447967e-06
-4.685709955e-12
4.335790804e-12
-4.235990301e-12
3.840867386e-12
9.428431352e-06
9.687459518e-12
-1.07498144e-11
9.428449374e-06
8.013052709e-12
-1.217630956e-11
9.428458843e-06
4.247646844e-12
-7.43081339e-12
9.428462818e-06
1.537188856e-12
-2.851400824e-12
9.428464917e-06
-1.157409213e-13
-1.114675976e-12
9.428461814e-06
-8.307805615e-13
1.259542285e-12
9.428456344e-06
-1.90207864e-12
2.822699183e-12
9.428455093e-06
-1.317000123e-13
5.525325247e-12
9.428448016e-06
-2.123162604e-12
5.117838343e-12
9.428440582e-06
-2.353584118e-12
3.879270749e-12
9.428435665e-06
-3.056086872e-12
4.077422487e-12
9.428426995e-06
-3.195631582e-12
3.617172644e-12
9.428421323e-06
-4.296570401e-12
3.994589111e-12
-3.028148926e-12
3.024328907e-12
9.428422061e-06
-9.785366523e-12
9.428440839e-06
-8.92735073e-12
9.428452125e-06
-4.244168441e-12
9.428460248e-06
-2.265986125e-12
9.428465865e-06
-1.511152966e-12
9.428465002e-06
2.084777292e-13
9.428461423e-06
4.011048129e-13
9.428456837e-06
3.110442955e-12
9.428453344e-06
2.49754666e-12
9.42844882e-06
2.973251371e-12
9.428444419e-06
3.737080606e-12
9.428435761e-06
3.255229741e-12
9.428429018e-06
3.904244105e-12
3.473698181e-12
9.428425841e-06
-4.843316911e-11
9.428442729e-06
-7.718529878e-12
-1.652136563e-11
9.428461301e-06
-1.150415943e-11
-1.540311631e-11
9.428470839e-06
-7.212501788e-12
-8.747802153e-12
9.428473779e-06
-3.670490404e-12
-3.425944846e-12
9.428475737e-06
-5.603633595e-13
-3.535204418e-13
9.428471565e-06
1.381054928e-12
1.949708773e-12
9.428467816e-06
1.413846027e-12
1.957105518e-12
9.428462574e-06
2.09762769e-12
4.876796837e-12
9.428456074e-06
3.998967289e-12
6.066702404e-12
9.428449102e-06
4.830007971e-12
4.734103582e-12
9.428443119e-06
5.590679971e-12
5.417094114e-12
9.428438223e-06
6.128778521e-12
5.488622773e-12
9.428432525e-06
5.660193796e-12
5.937913725e-12
4.077461514e-12
3.61655676e-12
9.428408664e-06
-1.289312748e-11
-1.41525096e-11
9.428423191e-06
-1.858241545e-11
-1.925712064e-11
9.428426207e-06
-8.635736534e-12
-9.123064218e-12
9.428424378e-06
-2.480712918e-12
-2.591934439e-12
9.428418749e-06
1.675135654e-13
1.626427538e-12
9.428412006e-06
3.031659778e-12
3.297609466e-12
9.428407789e-06
6.950659898e-12
5.356902908e-12
9.428401531e-06
7.900788526e-12
6.970005888e-12
9.428397134e-06
6.676435248e-12
7.297506801e-12
9.428389091e-06
6.243952697e-12
5.50958819e-12
9.428381058e-06
6.443166876e-12
5.918248472e-12
9.428377021e-06
6.066513926e-12
5.161473676e-12
9.428371973e-06
6.990578265e-12
5.388644279e-12
6.632827795e-12
4.894061931e-12
9.428447367e-06
-6.105296871e-14
-1.684815327e-11
9.428449122e-06
-1.327209922e-11
-2.318964012e-11
9.428435934e-06
-2.945266626e-12
-2.392779011e-12
9.428422576e-06
3.946416925e-12
9.825593928e-12
9.428409816e-06
6.636301203e-12
1.384640319e-11
9.428398738e-06
8.070295138e-12
1.49873776e-11
9.428388607e-06
6.921192222e-12
1.29605996e-11
9.428382178e-06
6.345665148e-12
1.337760092e-11
9.428380465e-06
6.789994702e-12
1.2387762e-11
9.428377066e-06
6.161725038e-12
1.05832905e-11
9.428373709e-06
6.208933158e-12
9.724089232e-12
9.428373015e-06
5.978394282e-12
8.185829761e-12
9.428366643e-06
7.011928785e-12
7.693967253e-12
7.002863531e-12
6.615485111e-12
9.428476627e-06
2.060922743e-11
4.642408094e-11
9.428470968e-06
3.519856119e-12
-3.257789591e-11
9.428455528e-06
5.401121309e-12
3.225994224e-12
9.428437208e-06
7.768897616e-12
1.843853965e-11
9.428421957e-06
5.771360017e-12
2.202274386e-11
9.428410465e-06
5.969562873e-12
2.214815424e-11
9.428402707e-06
5.49089972e-12
2.122195215e-11
9.428400321e-06
2.654742386e-12
1.872224888e-11
9.428399022e-06
1.751902732e-12
1.59958474e-11
9.428397771e-06
1.617513719e-12
1.318591649e-11
9.42839668e-06
1.386500481e-12
1.12278674e-11
9.428397567e-06
-3.057279276e-13
9.842562512e-12
9.428397701e-06
2.168231718e-12
9.351016324e-12
1.086201836e-12
6.903542917e-12
9.428516544e-06
-2.105702137e-11
2.551769117e-10
9.428457227e-06
-4.73257016e-12
8.458528428e-11
9.428420898e-06
-6.147347195e-12
7.273129283e-11
9.428394674e-06
-8.004303684e-12
6.291095478e-11
9.428382318e-06
-6.47817189e-12
4.778679519e-11
9.428373652e-06
-6.199007908e-12
3.459418094e-11
9.428367969e-06
-5.657228241e-12
2.567750701e-11
9.42836805e-06
-2.761986841e-12
2.309311867e-11
9.42836847e-06
-2.571076198e-12
1.798466011e-11
9.428368157e-06
-3.215181949e-12
1.354511935e-11
9.428369646e-06
-2.834556646e-12
1.111752213e-11
9.428374012e-06
-3.279410344e-12
1.107999101e-11
9.428372844e-06
-4.668553967e-12
1.007260013e-11
-2.602490845e-12
8.744341196e-12
9.428423119e-06
1.139026231e-12
4.660913236e-11
9.428421348e-06
1.3769149e-11
-2.880476582e-11
9.42840419e-06
1.007058432e-12
3.90068783e-12
9.428385838e-06
-4.642918245e-12
1.961128218e-11
9.428371816e-06
-6.11826316e-12
2.323692046e-11
9.428359034e-06
-7.386284108e-12
2.095434739e-11
9.428351975e-06
-7.926303864e-12
2.026955498e-11
9.428347261e-06
-8.158505728e-12
1.866496796e-11
9.428346447e-06
-6.721453496e-12
1.618610333e-11
9.428345746e-06
-6.558847025e-12
1.371465842e-11
9.428345743e-06
-7.232229504e-12
1.094219058e-11
9.428349258e-06
-5.763660881e-12
1.047577009e-11
9.428348185e-06
-6.603848584e-12
1.054428802e-11
-4.528406259e-12
9.578002778e-12
9.428402431e-06
1.230635606e-11
-1.669439236e-11
9.428404921e-06
1.903322312e-11
-2.2741839e-11
9.428393714e-06
8.6474111e-12
2.814529379e-13
9.428381562e-06
1.460856435e-12
1.075270847e-11
9.428367945e-06
-2.109397412e-12
1.396196833e-11
9.428355937e-06
-4.453708441e-12
1.365665678e-11
9.428347888e-06
-6.185028992e-12
1.468543262e-11
9.428343987e-06
-5.918550176e-12
1.543532646e-11
9.428336882e-06
-7.917489431e-12
1.241314822e-11
9.42833486e-06
-7.15473083e-12
1.174987069e-11
9.428333983e-06
-5.962841843e-12
1.019185958e-11
9.428333335e-06
-3.624523799e-12
8.975395491e-12
9.428330238e-06
-5.281766445e-12
9.422102824e-12
-4.482740001e-12
7.146792005e-12
9.428481814e-06
8.842515669e-12
-1.402845189e-11
9.428496391e-06
1.2068577e-11
-1.908456588e-11
9.428502186e-06
6.931682833e-12
-7.996664323e-12
9.428502407e-06
1.977970749e-12
8.395452299e-14
9.428498707e-06
-1.330139065e-14
2.603532579e-12
9.428490057e-06
-1.996316564e-12
5.493352804e-12
9.428484131e-06
-4.064696283e-12
6.74843369e-12
9.428477145e-06
-3.585170125e-12
7.624582009e-12
9.42847157e-06
-5.485545826e-12
8.296763748e-12
9.428466895e-06
-3.718416709e-12
8.324064669e-12
9.428463405e-06
-3.493001113e-12
6.702419502e-12
9.428456812e-06
-3.452601617e-12
5.791682278e-12
9.428451628e-06
-4.339304565e-12
7.032394546e-12
-2.525020834e-12
6.480291627e-12
9.428426871e-06
-1.642832044e-11
9.428444525e-06
-1.66691087e-11
9.428452975e-06
-7.472702342e-12
9.428458274e-06
-1.431070512e-12
9.428459088e-06
4.137863245e-13
9.42845352e-06
1.104340694e-12
9.428450523e-06
3.320579343e-12
9.428443887e-06
3.661515735e-12
9.42844066e-06
6.124694155e-12
9.428434594e-06
6.753178109e-12
9.428427763e-06
6.27446747e-12
9.428420933e-06
4.88989121e-12
9.428416931e-06
5.889019542e-12
4.487802372e-12
9.428432332e-06
-8.298488184e-11
-6.115917013e-11
9.428442698e-06
-1.466768426e-11
-1.18069967e-11
9.428458021e-06
-1.542831988e-11
-1.198576554e-11
9.428459143e-06
-4.1044224e-12
-6.208190884e-12
9.428454767e-06
1.603132113e-12
-2.343950283e-12
9.428446968e-06
2.913253651e-12
2.739133613e-13
9.42843641e-06
5.145399579e-12
1.124394357e-12
9.428434078e-06
6.26605864e-12
4.309196874e-12
9.428424292e-06
6.23317218e-12
2.824104662e-12
9.428416367e-06
7.091416808e-12
3.109406024e-12
9.428411235e-06
6.535726011e-12
3.149043439e-12
9.428405555e-06
6.388947203e-12
4.305734093e-12
9.428400036e-06
6.048065509e-12
4.517301684e-12
9.428393768e-06
6.70787057e-12
5.166933688e-12
5.773774705e-12
5.819342918e-12
9.42851087e-06
-1.125691787e-10
9.428498733e-06
-1.476880629e-11
-8.525507773e-13
9.428497788e-06
-2.270714158e-11
-1.393591397e-11
9.428487611e-06
-1.113988732e-12
-3.515073609e-12
9.428474459e-06
1.017708629e-11
1.878334867e-12
9.428459981e-06
1.272088636e-11
5.204243792e-12
9.428447192e-06
1.450329848e-11
5.922647286e-12
9.428442167e-06
1.486441492e-11
8.078154834e-12
9.428434541e-06
1.386333951e-11
8.606254184e-12
9.428428853e-06
1.139253406e-11
6.940634362e-12
9.428426233e-06
1.185047143e-11
5.520891464e-12
9.42842263e-06
1.027777307e-11
5.273199442e-12
9.428419995e-06
9.276357992e-12
5.410896012e-12
9.428415887e-06
8.676095037e-12
5.489519033e-12
8.508830918e-12
5.536126137e-12
9.428551538e-06
2.660866802e-11
2.447824585e-11
9.428503021e-06
3.425595335e-13
-9.768885097e-13
9.428459009e-06
2.212943308e-11
1.962044657e-11
9.428425598e-06
2.54089948e-11
2.42830813e-11
9.42840468e-06
2.160840699e-11
2.145699954e-11
9.428393418e-06
1.875620545e-11
1.820594344e-11
9.428390263e-06
1.708950917e-11
1.626528489e-11
9.428388031e-06
1.339546291e-11
1.348993978e-11
9.428390386e-06
1.064681404e-11
1.060052814e-11
9.428389341e-06
9.098232416e-12
7.945671129e-12
9.428390805e-06
8.653020529e-12
7.717970445e-12
9.428394308e-06
8.257867314e-12
5.874854783e-12
9.428396099e-06
8.103358475e-12
7.455841066e-12
7.366957025e-12
5.962193346e-12
9.428482374e-06
9.841820427e-11
2.099845362e-10
9.428411631e-06
3.747960674e-11
3.976599238e-12
9.428361564e-06
3.334270801e-11
4.040161172e-11
9.42833383e-06
2.744036482e-11
4.573163309e-11
9.428321701e-06
1.837585793e-11
3.561834901e-11
9.428325168e-06
1.33836237e-11
2.959233654e-11
9.428329322e-06
9.165860551e-12
2.382661744e-11
9.428337293e-06
6.980463896e-12
1.834386904e-11
9.428345428e-06
5.618255427e-12
1.378913318e-11
9.428353499e-06
4.122241866e-12
1.015150161e-11
9.428358531e-06
2.132004308e-12
6.724858672e-12
9.428365992e-06
2.838832919e-12
7.104504441e-12
9.428372075e-06
4.009532995e-12
8.972123481e-12
2.849493742e-12
7.186251799e-12
9.428510002e-06
-9.786980719e-11
1.085459308e-09
9.428290792e-06
-3.534606735e-11
3.745765917e-10
9.428228013e-06
-3.288271981e-11
2.0174331e-10
9.428218547e-06
-2.687098963e-11
1.257449814e-10
9.428226347e-06
-1.796702085e-11
7.142180364e-11
9.428244364e-06
-1.349193354e-11
4.546939194e-11
9.428262842e-06
-9.434921435e-12
3.034942269e-11
9.428275708e-06
-6.915712611e-12
2.076462542e-11
9.428288088e-06
-4.76838534e-12
1.561368745e-11
9.428299679e-06
-3.728297928e-12
1.092235613e-11
9.428307308e-06
-3.157620245e-12
8.944962542e-12
9.428315932e-06
-3.148710648e-12
7.427691968e-12
9.428322773e-06
-4.877669245e-12
7.918648368e-12
-2.674972262e-12
6.586073661e-12
9.428522392e-06
-2.517336405e-11
2.105381533e-10
9.428450214e-06
-9.207045972e-13
3.494223819e-12
9.428400204e-06
-2.182782893e-11
4.10960693e-11
9.428374914e-06
-2.50845003e-11
4.544445489e-11
9.428363507e-06
-2.234344417e-11
3.679239079e-11
9.428367449e-06
-1.878143853e-11
3.11717871e-11
9.428374701e-06
-1.593905898e-11
2.444714269e-11
9.428379868e-06
-1.414349315e-11
1.871287283e-11
9.428386859e-06
-1.168503239e-11
1.504051632e-11
9.428392931e-06
-9.192596059e-12
1.125950631e-11
9.428401971e-06
-8.412688199e-12
9.90845166e-12
9.428408359e-06
-8.964758801e-12
7.909731009e-12
9.428416778e-06
-8.084779432e-12
8.812426094e-12
-6.707805829e-12
6.214299557e-12
9.42854583e-06
1.59196391e-11
2.500311371e-11
9.428499562e-06
2.34289196e-11
-8.220690588e-13
9.428451994e-06
1.309435153e-12
2.124170179e-11
9.428420625e-06
-9.381514736e-12
2.587595106e-11
9.428400429e-06
-1.332043899e-11
2.47356879e-11
9.428389873e-06
-1.404410883e-11
2.018437927e-11
9.428385869e-06
-1.428557994e-11
1.601462137e-11
9.428385155e-06
-1.30056555e-11
1.383438472e-11
9.428387647e-06
-1.17849491e-11
1.042616019e-11
9.428388204e-06
-1.151366508e-11
7.460860347e-12
9.428391783e-06
-1.021644412e-11
8.371921052e-12
9.428397682e-06
-7.754266429e-12
8.115789006e-12
9.428397608e-06
-8.666012638e-12
8.244298938e-12
-5.967680937e-12
6.403923029e-12
9.428467006e-06
1.591008498e-11
1.638452089e-15
9.428467865e-06
1.475079217e-11
-1.368681993e-11
9.428456564e-06
4.306504932e-12
-2.433013008e-12
9.428441982e-06
-2.721511601e-12
3.264566544e-12
9.428431985e-06
-4.660576756e-12
5.24429487e-12
9.428418443e-06
-7.158413396e-12
6.379630158e-12
9.428410108e-06
-7.653175919e-12
6.701511593e-12
9.428403768e-06
-7.780733388e-12
6.705933316e-12
9.428397696e-06
-7.261409611e-12
5.567219707e-12
9.428394084e-06
-5.781156714e-12
6.537306496e-12
9.428393593e-06
-4.453258409e-12
6.159588137e-12
9.428390222e-06
-4.597318783e-12
6.348202315e-12
9.428388412e-06
-5.601344466e-12
6.346210917e-12
-4.293517059e-12
4.539267741e-12
9.428477622e-06
-1.038550551e-11
9.428493952e-06
-1.081525467e-11
9.428492585e-06
-4.504260748e-12
9.428487958e-06
5.49414301e-13
9.428482778e-06
2.133967602e-12
9.42847427e-06
1.599294743e-12
9.428467459e-06
3.160242138e-12
9.428458714e-06
4.791155562e-12
9.428452249e-06
4.025459059e-12
9.428445879e-06
2.718996603e-12
9.428439834e-06
3.282908126e-12
9.428435806e-06
4.413305013e-12
9.428430985e-06
5.125406186e-12
4.298739691e-12
9.42848936e-06
-1.205311855e-10
-5.515151754e-11
9.428479787e-06
1.424104174e-12
-4.153943112e-12
9.428489885e-06
-1.972373482e-11
-1.456838053e-12
9.428488086e-06
-2.261998379e-12
2.003680449e-12
9.428479885e-06
5.524245906e-12
2.551982905e-12
9.428467049e-06
9.23917192e-12
3.044330193e-12
9.428455367e-06
9.27838538e-12
2.328539512e-12
9.428445063e-06
9.688656846e-12
1.785200113e-12
9.428436605e-06
1.102334469e-11
1.304839052e-12
9.428428644e-06
9.861276497e-12
3.054537263e-13
9.428423543e-06
6.912393657e-12
4.825862535e-13
9.428421829e-06
6.90567771e-12
8.837410199e-13
9.428415655e-06
5.483959119e-12
8.346717566e-13
9.42841137e-06
5.978957234e-12
2.739507262e-12
4.865421802e-12
2.018869169e-12
9.428546195e-06
-2.766021254e-10
-1.099953183e-10
9.428478345e-06
4.96456678e-11
1.934270488e-11
9.428471303e-06
-3.023435397e-11
3.226045465e-12
9.428454216e-06
2.48929569e-12
5.215156196e-12
9.428437359e-06
2.126770991e-11
7.4986757e-12
9.428419922e-06
2.241962974e-11
4.625805943e-12
9.428409925e-06
2.380055357e-11
5.202805544e-12
9.42840432e-06
2.190849833e-11
4.78719189e-12
9.428398334e-06
1.773350109e-11
1.528977837e-12
9.428394381e-06
1.464881567e-11
7.542640627e-13
9.428393273e-06
1.44346503e-11
3.286423173e-12
9.428392262e-06
1.25437685e-11
3.329785783e-12
9.428393069e-06
9.071782569e-12
2.588318716e-12
9.428393416e-06
1.046383941e-11
3.892199151e-12
9.277770435e-12
2.218538163e-12
9.428768391e-06
-3.334998552e-10
9.428530328e-06
2.090171063e-10
9.304836504e-11
9.428457478e-06
4.141465299e-12
3.452782607e-11
9.428411189e-06
4.140504868e-11
3.092219959e-11
9.428385019e-06
4.531675937e-11
2.388471631e-11
9.428375257e-06
3.566444095e-11
1.699798306e-11
9.428377441e-06
2.975018081e-11
1.244819369e-11
9.428384189e-06
2.534914225e-11
8.685902732e-12
9.428390239e-06
1.854212601e-11
6.131758866e-12
9.428399546e-06
1.433115995e-11
4.729584292e-12
9.428407707e-06
1.071335124e-11
3.842894747e-12
9.428414241e-06
7.692429527e-12
2.403803474e-12
9.428421859e-06
8.688265593e-12
1.456216008e-12
9.428429035e-06
1.001986138e-11
2.093350585e-12
8.150749169e-12
3.301814676e-12
9.428150212e-06
4.31138665e-10
4.295248745e-10
9.428166509e-06
-1.987381335e-12
-2.625525182e-12
9.428175711e-06
3.866601604e-11
3.761626441e-11
9.428189699e-06
3.795652931e-11
3.755115991e-11
9.42821671e-06
2.498733888e-11
2.453838344e-11
9.428246006e-06
1.763738678e-11
1.776417298e-11
9.428269387e-06
1.097103764e-11
1.052071568e-11
9.428290217e-06
8.100815956e-12
7.082786166e-12
9.428307793e-06
6.903385704e-12
6.27520204e-12
9.428323129e-06
4.38747319e-12
5.390322354e-12
9.428336793e-06
4.271970317e-12
4.605600759e-12
9.428345378e-06
2.922241272e-12
2.880730207e-12
9.428356794e-06
3.355747084e-12
3.586073439e-12
3.225174205e-12
3.43515139e-12
9.427827221e-06
-4.305092056e-10
3.383894315e-09
9.427871109e-06
2.567306408e-12
3.284423248e-10
9.427994753e-06
-3.708164217e-11
1.509566079e-10
9.428094349e-06
-3.791105422e-11
1.021306173e-10
9.428167942e-06
-2.327094462e-11
4.951787595e-11
9.428222752e-06
-1.58784934e-11
2.657805799e-11
9.428263843e-06
-1.17553067e-11
1.490678792e-11
9.4282935e-06
-7.422365477e-12
9.458396819e-12
9.428315048e-06
-6.366147375e-12
8.54999477e-12
9.428333408e-06
-4.169962632e-12
5.350862556e-12
9.428348381e-06
-3.170533244e-12
4.507972516e-12
9.428359263e-06
-3.708032294e-12
3.79947115e-12
9.428372052e-06
-4.429884459e-12
3.306461727e-12
-3.166363402e-12
2.889077632e-12
9.428153762e-06
-2.111276591e-10
4.296254965e-10
9.428168896e-06
-5.650881359e-12
-1.870064444e-12
9.428175106e-06
-4.155767968e-11
3.545084981e-11
9.428193144e-06
-4.470064253e-11
3.73471458e-11
9.428217265e-06
-3.493597349e-11
2.37646027e-11
9.428244947e-06
-2.883632685e-11
1.794610582e-11
9.428272545e-06
-2.392695678e-11
1.173878017e-11
9.428291638e-06
-1.942467184e-11
8.92489124e-12
9.428309442e-06
-1.560127675e-11
6.705228257e-12
9.428325144e-06
-1.165563119e-11
5.328475946e-12
9.428339315e-06
-1.019802355e-11
4.72630391e-12
9.428349508e-06
-8.4583465e-12
4.46884036e-12
9.428361172e-06
-8.347719644e-12
3.607439002e-12
-6.855454376e-12
4.284364353e-12
9.428480383e-06
-4.712550847e-11
9.721845354e-11
9.428410143e-06
3.113074021e-11
3.589072787e-11
9.428358978e-06
-4.144428228e-12
3.214828196e-11
9.428332558e-06
-2.042814212e-11
2.484239478e-11
9.428320567e-06
-2.631068003e-11
1.580069351e-11
9.428321984e-06
-2.443655602e-11
1.406320984e-11
9.428329223e-06
-2.19170472e-11
9.04449308e-12
9.428335134e-06
-1.853630445e-11
6.192630412e-12
9.428343727e-06
-1.491459966e-11
5.720132678e-12
9.428350009e-06
-1.175133592e-11
4.969651347e-12
9.428356145e-06
-1.134119783e-11
4.317107092e-12
9.428363894e-06
-8.098360219e-12
4.221029023e-12
9.428368585e-06
-9.983984861e-12
2.343605204e-12
-8.244825517e-12
2.3663055e-12
9.428453415e-06
-6.620124214e-13
2.155148621e-11
9.428447911e-06
1.999290911e-11
4.783187706e-12
9.428432979e-06
4.108716916e-12
6.566970471e-12
9.428410937e-06
-5.972440015e-12
7.552040943e-12
9.428397723e-06
-7.307720304e-12
6.399520582e-12
9.428385544e-06
-1.180992718e-11
5.143833497e-12
9.428381126e-06
-1.156333658e-11
4.626512382e-12
9.428375063e-06
-1.052732941e-11
3.039204738e-12
9.428373845e-06
-9.023668547e-12
3.368830633e-12
9.428371343e-06
-8.441326162e-12
2.457506172e-12
9.428372178e-06
-7.222902993e-12
3.349969984e-12
9.428373699e-06
-5.779783487e-12
3.036021446e-12
9.428371453e-06
-6.15033923e-12
3.03006906e-12
-5.3869437e-12
2.245850938e-12
9.428443329e-06
-4.242842498e-12
9.428454292e-06
-8.967622488e-13
9.42845144e-06
1.347997672e-12
9.428441118e-06
3.565259937e-12
9.428428645e-06
3.806074669e-12
9.428420298e-06
3.540160664e-12
9.428411805e-06
2.37889311e-12
9.428400559e-06
6.609274296e-13
9.428393576e-06
3.037765976e-12
9.42838776e-06
1.606915996e-12
9.428386222e-06
2.404224605e-12
9.428380768e-06
1.167921806e-12
9.428377686e-06
2.763674946e-12
2.540418591e-12
9.428531995e-06
-3.181699309e-10
5.653591133e-11
9.428493198e-06
3.409721312e-11
4.398426589e-12
9.428478518e-06
1.081914196e-11
2.693168616e-12
9.428460508e-06
2.192664981e-11
-1.422802489e-12
9.42844359e-06
2.364448225e-11
-3.358306059e-12
9.428427133e-06
1.978558319e-11
-3.223037136e-12
9.42841422e-06
1.621293779e-11
-4.430752959e-12
9.428407252e-06
1.585335094e-11
-3.011595369e-12
9.428399139e-06
1.212708423e-11
-4.723861528e-12
9.42839532e-06
1.155656525e-11
-3.436692562e-12
9.428390067e-06
9.79660466e-12
-2.632508025e-12
9.428386498e-06
9.52106598e-12
-1.651814235e-12
9.428385307e-06
6.867993417e-12
-1.130572153e-12
9.428379448e-06
7.681275775e-12
-1.637259694e-12
6.482351165e-12
-1.42021853e-12
9.428713788e-06
-8.778553834e-10
1.108741726e-10
9.428536449e-06
2.55581372e-10
-2.053788308e-11
9.428473336e-06
8.323401844e-11
-4.201233754e-12
9.428438013e-06
7.110980519e-11
-7.462108632e-12
9.428413872e-06
6.304926568e-11
-7.975936531e-12
9.428398991e-06
4.691888148e-11
-7.324962084e-12
9.428393507e-06
3.650389271e-11
-5.070394179e-12
9.428388687e-06
2.815128367e-11
-5.997436192e-12
9.428388975e-06
2.219976305e-11
-5.298076985e-12
9.428391047e-06
1.886746768e-11
-3.373121111e-12
9.428389511e-06
1.452314147e-11
-2.195240642e-12
9.428389775e-06
1.083067005e-11
-2.943263782e-12
9.428393145e-06
8.380903081e-12
-2.887104167e-12
9.428394237e-06
9.075663671e-12
-2.234676467e-12
9.705730403e-12
-1.660585217e-12
9.429094027e-06
-2.37247804e-09
3.330927938e-10
9.428455182e-06
1.086973925e-09
-9.612965689e-11
9.42823124e-06
3.752928792e-10
-3.644896401e-11
9.428171652e-06
2.034739636e-10
-3.285762186e-11
9.428160941e-06
1.2736315e-10
-2.645149024e-11
9.428170486e-06
7.300801585e-11
-1.860659598e-11
9.428186125e-06
4.654042365e-11
-1.254240163e-11
9.428201852e-06
3.043412035e-11
-9.110664879e-12
9.428216772e-06
2.129108792e-11
-7.163985884e-12
9.428231568e-06
1.585405537e-11
-5.088441766e-12
9.428241555e-06
1.279406993e-11
-3.011199761e-12
9.428249403e-06
9.237124927e-12
-3.645898397e-12
9.42825977e-06
9.287955207e-12
-1.995651743e-12
9.428268769e-06
1.058499222e-11
-2.861953304e-12
8.730084527e-12
-1.869385266e-12
9.42924565e-06
5.446358014e-10
9.427811099e-06
3.385957037e-09
-4.281555864e-10
9.42785281e-06
3.288081604e-10
3.005253256e-12
9.427977818e-06
1.510490258e-10
-3.981420027e-11
9.428077776e-06
1.017552608e-10
-3.968753685e-11
9.428152423e-06
4.949437927e-11
-2.480033097e-11
9.428207559e-06
2.641944293e-11
-1.716577633e-11
9.428246778e-06
1.515315793e-11
-1.198927481e-11
9.428276181e-06
1.037030076e-11
-8.775735258e-12
9.428298125e-06
8.757361511e-12
-6.607620511e-12
9.428314307e-06
5.091437298e-12
-4.495866564e-12
9.428331529e-06
4.318848164e-12
-3.359283061e-12
9.428343818e-06
4.236910089e-12
-4.207924838e-12
9.428356482e-06
3.486595341e-12
-4.288589071e-12
2.815951588e-12
-2.955192525e-12
9.451979994e-06
-3.385169507e-09
-3.384276958e-09
9.453320388e-06
-3.287972534e-10
-3.290418867e-10
9.453940695e-06
-1.519907809e-10
-1.529788544e-10
9.4543706e-06
-1.021617423e-10
-1.034334094e-10
9.45458319e-06
-4.879385094e-11
-4.923333856e-11
9.454702426e-06
-2.520974616e-11
-2.583295352e-11
9.454780597e-06
-1.465889376e-11
-1.485624775e-11
9.454834999e-06
-7.98012531e-12
-9.880542917e-12
9.454873704e-06
-7.776336787e-12
-7.192872697e-12
9.454912585e-06
-5.006166298e-12
-3.954317242e-12
9.45494608e-06
-3.658825509e-12
-3.92985817e-12
9.454973635e-06
-3.326224003e-12
-4.010575107e-12
9.455005923e-06
-3.325715438e-12
-2.969757588e-12
-1.738367706e-12
-2.60794591e-12
9.427808347e-06
-1.086289954e-09
-4.303085572e-10
9.427850332e-06
-3.758222821e-10
1.435294464e-12
9.427974362e-06
-2.0124405e-10
-3.789026455e-11
9.428075598e-06
-1.256236691e-10
-3.814189055e-11
9.428148888e-06
-7.314375142e-11
-2.507942103e-11
9.42820238e-06
-4.610227445e-11
-1.85457637e-11
9.428243319e-06
-3.152632981e-11
-1.31616734e-11
9.428270083e-06
-2.33026251e-11
-9.952909093e-12
9.428293809e-06
-1.68631197e-11
-6.582615574e-12
9.428311938e-06
-1.24143886e-11
-6.163240225e-12
9.428325896e-06
-9.691444336e-12
-3.287543811e-12
9.428337765e-06
-7.488793588e-12
-2.030768339e-12
9.428350969e-06
-9.308003968e-12
-3.379191694e-12
-8.017411508e-12
-3.034989048e-12
9.428553935e-06
-2.546213002e-10
-9.814320706e-11
9.428334817e-06
-8.313624228e-11
-3.701361514e-11
9.428271414e-06
-7.211553745e-11
-3.38960252e-11
9.428261977e-06
-6.324577401e-11
-2.648072132e-11
9.428274562e-06
-4.823577881e-11
-2.065595792e-11
9.428288404e-06
-3.7515004e-11
-1.431990643e-11
9.428308974e-06
-2.884447846e-11
-8.042239552e-12
9.428322494e-06
-2.227154063e-11
-7.775114517e-12
9.428336349e-06
-1.744752646e-11
-5.408342525e-12
9.428346126e-06
-1.345195919e-11
-4.585057084e-12
9.428356103e-06
-1.157175616e-11
-3.716445629e-12
9.428364459e-06
-9.582417355e-12
-2.28759084e-12
9.428372604e-06
-9.542176464e-12
-2.874958605e-12
-8.838023116e-12
-2.350779662e-12
9.42853912e-06
-3.493781759e-11
-2.236631261e-11
9.428478722e-06
-1.170439405e-11
-4.250165569e-12
9.42844441e-06
-2.233279842e-11
-6.060886227e-12
9.42841852e-06
-2.436534148e-11
-7.582242489e-12
9.428407172e-06
-1.87777077e-11
-6.783493502e-12
9.428399106e-06
-1.802126606e-11
-5.999206947e-12
9.4283971e-06
-1.514317854e-11
-4.838191689e-12
9.428393937e-06
-1.316884919e-11
-4.58801532e-12
9.428393709e-06
-9.847560136e-12
-2.616915631e-12
9.42839449e-06
-8.885260714e-12
-2.368383591e-12
9.428394566e-06
-8.160795731e-12
-3.002099412e-12
9.428398302e-06
-6.969582961e-12
-2.031153738e-12
9.428398107e-06
-6.899401908e-12
-2.760188995e-12
-5.551390866e-12
-1.890860685e-12
9.428524553e-06
2.515360647e-12
9.428511058e-06
1.413355753e-12
9.42849372e-06
-1.419207572e-12
9.428475838e-06
-3.381240041e-12
9.428459667e-06
-4.894793239e-12
9.428449796e-06
-3.55350816e-12
9.428442893e-06
-2.679780358e-12
9.428435691e-06
-2.056242331e-12
9.428428436e-06
-1.67450853e-12
9.428424026e-06
-2.219404134e-12
9.428420224e-06
-3.233495106e-12
9.428417376e-06
-1.25273509e-12
9.428414858e-06
-1.620870517e-12
-2.514030602e-12
9.428487392e-06