/*--------------------------------*- C++ -*----------------------------------*\
| =========                 |                                                 |
| \\      /  F ield         | OpenFOAM: The Open Source CFD Toolbox           |
|  \\    /   O peration     | Version:  4.x                                   |
|   \\  /    A nd           | Web:      www.OpenFOAM.org                      |
|    \\/     M anipulation  |                                                 |
\*---------------------------------------------------------------------------*/
FoamFile
{
    version     2.0;
    format      ascii;
    class       volScalarField;
    location    "9000";
    object      rhoeps;
}
// * * * * * * * * * * * * * * * * * * * * * * * * * * * * * * * * * * * * * //

dimensions      [1 -3 0 0 0 0 0];

internalField   nonuniform List<scalar> 
1174
(
0.2777044916
0.2777046914
0.2777049588
0.2777052823
0.2777056937
0.2777061487
0.2777066644
0.277707245
0.2777078322
0.2777084347
0.2777090679
0.2777096336
0.2777102396
0.2777106475
0.2777049196
0.2777051963
0.277705565
0.2777060402
0.2777065907
0.2777071814
0.2777078205
0.2777084489
0.2777090663
0.2777096479
0.2777102506
0.2777107828
0.2777113055
0.2777116917
0.2777051141
0.277705636
0.2777062727
0.2777069984
0.2777078116
0.2777085887
0.2777093608
0.2777101389
0.2777107907
0.2777114567
0.2777120005
0.2777125079
0.2777129186
0.2777132805
0.2777053423
0.2777061047
0.2777069872
0.277707998
0.2777089693
0.2777099169
0.2777107872
0.2777115606
0.2777121959
0.2777127891
0.2777133031
0.2777137683
0.2777141306
0.2777143849
0.277705662
0.2777066191
0.2777076339
0.2777087152
0.277709758
0.2777107097
0.2777115609
0.2777122855
0.2777129303
0.2777134752
0.2777139191
0.277714312
0.2777146135
0.2777148383
0.2777074962
0.2777082789
0.2777091658
0.2777101053
0.277711069
0.2777119386
0.2777127853
0.2777135373
0.2777142368
0.2777148022
0.2777153248
0.2777157567
0.2777161399
0.2777164063
0.2777067226
0.2777072517
0.2777078934
0.2777086146
0.2777093564
0.2777101204
0.2777109056
0.277711611
0.277712267
0.2777128734
0.27771348
0.2777140271
0.2777144476
0.2777147884
0.2777051027
0.2777053835
0.2777057547
0.2777062137
0.2777068266
0.2777074165
0.2777080313
0.2777087037
0.2777093618
0.2777099808
0.277710569
0.2777111498
0.2777116513
0.2777120104
0.2777048761
0.2777050759
0.2777053135
0.2777056714
0.2777060631
0.277706516
0.2777070531
0.2777076219
0.2777081984
0.2777088152
0.2777093956
0.2777099792
0.2777105109
0.2777109375
0.2777051011
0.2777053223
0.2777056186
0.2777060228
0.277706519
0.2777070625
0.2777077159
0.2777083575
0.2777089973
0.2777096476
0.2777103088
0.277710882
0.2777114325
0.2777119349
0.2777123418
0.2777044505
0.2777049315
0.2777055059
0.2777062107
0.2777069686
0.2777077245
0.2777084665
0.277709142
0.2777098178
0.2777103947
0.2777109311
0.2777114213
0.277711807
0.2777121041
0.2777055998
0.2777065542
0.2777076725
0.2777087349
0.2777097807
0.2777106919
0.2777114902
0.277712177
0.2777127569
0.2777132277
0.2777136266
0.2777139614
0.2777142476
0.277714489
0.2777084801
0.2777101412
0.2777117469
0.2777131395
0.2777142434
0.2777151634
0.2777158726
0.2777164019
0.2777167849
0.2777171152
0.2777173116
0.2777173871
0.2777175039
0.27771753
0.2777096627
0.2777116292
0.2777133182
0.2777146389
0.2777156174
0.2777163348
0.2777169474
0.2777172537
0.2777174991
0.2777176295
0.277717676
0.2777176919
0.2777177255
0.2777177213
0.2777069706
0.2777086133
0.2777102247
0.2777116176
0.2777127568
0.2777136719
0.2777143646
0.2777148859
0.2777152671
0.2777155512
0.2777157545
0.2777158961
0.2777159657
0.2777160333
0.2777043188
0.277705337
0.2777064425
0.2777075186
0.2777085586
0.2777094838
0.2777102863
0.2777109963
0.2777115555
0.2777120312
0.2777124623
0.2777127969
0.2777130798
0.2777133328
0.2777065971
0.2777071243
0.2777077932
0.2777084895
0.277709224
0.2777099817
0.2777107461
0.2777114354
0.2777120518
0.2777126456
0.2777131952
0.2777137078
0.277714102
0.2777144204
0.2777048875
0.2777051908
0.2777055883
0.2777060389
0.277706584
0.2777071913
0.2777078485
0.277708488
0.2777091126
0.2777097259
0.277710333
0.2777108762
0.277711419
0.2777118379
0.277704764
0.2777051063
0.277705612
0.2777062248
0.2777069694
0.2777077592
0.2777085607
0.2777092998
0.2777100796
0.2777107609
0.2777113915
0.2777119592
0.2777124798
0.2777129107
0.2777132266
0.2777062851
0.2777070428
0.2777081082
0.2777092003
0.2777102837
0.2777112914
0.2777121862
0.2777130154
0.277713686
0.2777142626
0.2777147261
0.2777151394
0.2777154724
0.2777157419
0.2777159185
0.2777099807
0.2777120611
0.2777139751
0.2777154941
0.2777166732
0.27771751
0.2777180819
0.2777183883
0.2777185641
0.2777186463
0.2777186379
0.2777185726
0.2777184872
0.2777184135
0.2777159087
0.2777194452
0.2777218675
0.2777232972
0.2777239506
0.2777240641
0.2777238602
0.2777234679
0.2777229834
0.2777224965
0.2777219778
0.2777214948
0.2777210129
0.2777206831
0.2777228909
0.2777264149
0.2777279134
0.2777281869
0.2777277545
0.2777269306
0.2777259436
0.2777249602
0.2777240021
0.277723086
0.2777222499
0.2777214968
0.2777208629
0.2777203979
0.2777170674
0.2777206079
0.2777230212
0.2777244611
0.2777251284
0.2777253263
0.2777251399
0.2777246902
0.2777242301
0.2777237258
0.2777232072
0.2777227072
0.2777222275
0.2777218781
0.2777098089
0.2777119056
0.2777138179
0.2777153849
0.2777164825
0.2777173196
0.2777179215
0.2777182734
0.2777184903
0.2777186252
0.2777186541
0.2777186221
0.2777185722
0.2777185391
0.2777062109
0.2777072322
0.27770831
0.2777094259
0.2777104197
0.2777113334
0.2777121086
0.277712789
0.2777133704
0.2777137757
0.277714197
0.2777145766
0.277714869
0.2777150601
0.2777061675
0.2777066608
0.2777072967
0.2777080386
0.2777088242
0.2777096002
0.2777103848
0.2777110929
0.2777118134
0.2777124454
0.2777129831
0.2777134934
0.2777139354
0.2777142704
0.2777059062
0.2777065387
0.277707343
0.2777082851
0.2777092553
0.277710244
0.277711108
0.2777119789
0.2777127266
0.2777134159
0.2777140379
0.2777145351
0.2777149614
0.2777153091
0.277715574
0.2777070543
0.2777085761
0.2777101961
0.2777117905
0.2777131701
0.2777142633
0.2777151534
0.2777158241
0.2777163271
0.2777166743
0.2777169531
0.2777171659
0.277717285
0.2777173738
0.2777174411
0.2777130302
0.2777173816
0.2777208871
0.2777233206
0.2777247839
0.2777254529
0.2777256287
0.277725436
0.2777250719
0.2777246065
0.2777240748
0.2777235577
0.2777230744
0.2777226753
0.2777222919
0.2777375786
0.2777419989
0.2777427134
0.2777414242
0.2777392032
0.2777367497
0.2777343517
0.277732125
0.2777301124
0.2777283794
0.2777268845
0.2777255975
0.2777245196
0.2777237029
0.2777808197
0.2777751907
0.2777665354
0.2777582758
0.2777512458
0.27774554
0.2777409126
0.2777372258
0.2777342035
0.277731732
0.2777296915
0.2777279694
0.2777265479
0.2777255474
0.2777376106
0.2777420624
0.2777427715
0.2777414535
0.2777392762
0.2777368079
0.2777344076
0.2777321773
0.2777301589
0.2777284762
0.2777269526
0.2777256464
0.2777246074
0.2777237953
0.2777158858
0.2777194203
0.2777218408
0.2777232543
0.277723942
0.2777240333
0.2777238103
0.2777234417
0.277722923
0.2777223791
0.277721893
0.2777213369
0.2777209125
0.2777205489
0.2777078253
0.2777094994
0.2777110944
0.2777124859
0.2777135962
0.2777144795
0.2777151239
0.2777157087
0.2777160834
0.2777163345
0.2777165633
0.277716679
0.277716791
0.277716837
0.2777055092
0.2777063182
0.2777072539
0.2777081683
0.2777091391
0.2777100565
0.2777109213
0.2777117044
0.2777123648
0.277712966
0.2777134635
0.2777139024
0.2777142717
0.2777145245
0.2777053583
0.2777061341
0.2777070934
0.2777081209
0.2777091511
0.2777101779
0.2777111424
0.2777119542
0.277712702
0.2777133305
0.2777139147
0.2777144038
0.2777148206
0.2777151611
0.2777153893
0.2777080765
0.2777102162
0.2777122105
0.2777138788
0.2777151853
0.2777162065
0.2777169674
0.2777174938
0.2777178502
0.2777180948
0.2777182591
0.2777183561
0.2777183765
0.2777183859
0.2777184001
0.2777149821
0.2777212601
0.2777247646
0.2777262379
0.277726467
0.2777259708
0.2777251469
0.2777241866
0.2777232298
0.2777222872
0.2777214182
0.2777205989
0.2777198556
0.2777192523
0.2777187441
0.2777727993
0.2777803394
0.277774709
0.2777660721
0.2777577763
0.2777507826
0.2777450762
0.2777404549
0.2777367449
0.2777337201
0.2777312375
0.2777291428
0.277727484
0.2777261234
0.2777251261
0.278744266
0.2786504116
0.278598752
0.2785687964
0.2785504282
0.2785385895
0.2785305966
0.2785249969
0.2785209378
0.2785178572
0.2785155804
0.2785138536
0.2785125777
0.2785117856
0.2777802254
0.2777745624
0.2777659453
0.2777576644
0.2777506875
0.2777449375
0.2777403449
0.277736653
0.2777335939
0.2777311503
0.2777290386
0.2777273376
0.2777259138
0.2777249017
0.2777242494
0.2777277762
0.27772926
0.2777294732
0.2777290259
0.2777282481
0.2777272921
0.2777263269
0.2777253685
0.2777244377
0.2777236158
0.2777229338
0.2777223249
0.2777218822
0.2777104405
0.277712427
0.2777140667
0.277715398
0.2777163879
0.2777171142
0.2777176421
0.2777180019
0.2777182219
0.2777183831
0.2777184929
0.2777185094
0.2777184687
0.2777184753
0.2777070878
0.2777080653
0.2777090894
0.27771014
0.2777111766
0.2777121244
0.2777129414
0.277713713
0.2777143512
0.2777148989
0.2777153949
0.2777157709
0.2777160944
0.2777163385
0.2777059163
0.2777064851
0.2777072867
0.2777082099
0.2777092117
0.2777102202
0.2777111344
0.2777120165
0.2777128352
0.2777135224
0.2777141509
0.2777146458
0.2777150581
0.2777153985
0.2777156693
0.2777075898
0.2777091339
0.2777107788
0.2777123374
0.2777137506
0.2777148948
0.2777158273
0.2777164739
0.2777169808
0.2777173677
0.2777176302
0.2777178398
0.2777179574
0.2777180351
0.2777180822
0.277711707
0.2777160402
0.2777196372
0.2777220639
0.277723517
0.27772414
0.2777242771
0.2777240827
0.2777236505
0.27772317
0.2777226459
0.2777221078
0.2777216135
0.2777211096
0.2777207787
0.2777280404
0.2777380328
0.2777424403
0.2777431326
0.2777418449
0.2777396407
0.27773721
0.277734811
0.2777326249
0.2777306494
0.2777289693
0.2777274744
0.2777261758
0.2777251493
0.2777243597
0.2777736663
0.2777811799
0.2777754855
0.2777668712
0.2777585966
0.2777515726
0.2777458596
0.2777412094
0.2777374814
0.2777344864
0.277731989
0.2777299968
0.2777283075
0.2777269327
0.277725916
0.2777283691
0.277738377
0.2777428543
0.2777435162
0.2777422259
0.2777399987
0.2777375559
0.2777351062
0.277732888
0.2777309264
0.2777292161
0.2777277649
0.2777264882
0.2777253842
0.2777246368
0.2777157129
0.2777192718
0.2777217439
0.2777231991
0.2777238193
0.2777239603
0.2777237661
0.2777233576
0.2777228881
0.2777223971
0.2777218477
0.2777213496
0.2777209537
0.277720594
0.2777086369
0.2777102627
0.2777118382
0.277713154
0.2777143092
0.277715189
0.2777158806
0.2777163699
0.2777167552
0.2777170472
0.277717262
0.2777173718
0.2777174335
0.2777174914
0.2777066878
0.2777075023
0.277708445
0.2777094253
0.2777103566
0.2777112562
0.2777120985
0.2777128335
0.2777135407
0.2777140973
0.2777146257
0.2777150622
0.2777154122
0.2777156088
0.2777060541
0.2777064484
0.2777069762
0.2777076272
0.2777083471
0.2777091549
0.2777099354
0.2777107103
0.2777114528
0.2777121722
0.2777127838
0.2777133549
0.2777138788
0.2777143234
0.2777146439
0.2777049247
0.277705726
0.2777067065
0.2777077787
0.2777088193
0.2777098565
0.2777107684
0.2777115253
0.2777121559
0.2777127362
0.2777132
0.2777136185
0.2777139548
0.2777142093
0.2777144168
0.2777052252
0.2777072418
0.2777093219
0.2777112385
0.2777128067
0.2777139633
0.2777148319
0.2777154083
0.2777158146
0.2777159883
0.2777160467
0.2777160308
0.2777160066
0.2777159489
0.2777159171
0.2777113812
0.2777157229
0.2777192428
0.2777216685
0.2777230685
0.2777237447
0.2777238692
0.2777236911
0.2777232945
0.2777227732
0.277722228
0.2777217325
0.2777213047
0.2777208448
0.277720505
0.2777188163
0.2777250939
0.2777285798
0.2777301016
0.2777303556
0.2777298933
0.2777291207
0.2777282084
0.2777272319
0.2777262793
0.2777254048
0.2777245722
0.2777237974
0.2777231599
0.2777226413
0.27771136
0.2777156938
0.2777192189
0.2777216614
0.2777230905
0.2777237745
0.277723929
0.2777236957
0.2777232976
0.2777227824
0.2777222568
0.2777217498
0.2777212835
0.2777208615
0.2777205136
0.277707464
0.2777094668
0.2777115902
0.2777134817
0.2777150132
0.2777162114
0.2777170521
0.2777175947
0.2777179161
0.2777180977
0.2777181552
0.2777181788
0.2777181671
0.277718053
0.2777179974
0.2777072586
0.2777082407
0.2777093343
0.2777104234
0.2777113982
0.2777122563
0.2777130045
0.2777137078
0.2777142812
0.2777147475
0.2777151452
0.2777154817
0.2777157491
0.2777159505
0.2777047161
0.2777052372
0.2777058596
0.277706593
0.2777073676
0.2777081638
0.2777089317
0.2777097006
0.2777103656
0.2777109944
0.2777115618
0.2777120508
0.2777125049
0.2777128342
0.277704344
0.2777045358
0.2777048326
0.2777052483
0.27770575
0.2777063022
0.2777068894
0.2777075193
0.277708178
0.2777088094
0.2777094234
0.2777099685
0.2777105135
0.2777110019
0.2777114088
0.2777050096
0.2777053972
0.2777058507
0.277706466
0.277707209
0.2777079934
0.2777087401
0.2777094749
0.2777102452
0.277710862
0.2777114466
0.2777119817
0.2777124896
0.2777129635
0.2777132487
0.2777053679
0.277706199
0.2777072262
0.2777082774
0.2777093365
0.2777103198
0.2777112552
0.2777120285
0.2777126703
0.2777132444
0.2777137523
0.277714165
0.2777145008
0.2777147572
0.2777149548
0.277706502
0.2777080312
0.2777096647
0.2777112506
0.2777126455
0.2777137303
0.2777146192
0.2777152873
0.2777158361
0.2777162135
0.2777164782
0.2777166608
0.2777168065
0.2777169126
0.2777169645
0.2777071723
0.2777092818
0.2777112958
0.2777129537
0.2777142572
0.277715274
0.2777159837
0.2777165277
0.277716884
0.2777170874
0.2777172662
0.277717343
0.2777173901
0.2777173975
0.2777173895
0.2777069767
0.2777085235
0.277710193
0.2777117221
0.2777130773
0.2777141945
0.2777150762
0.2777157447
0.2777162972
0.2777166679
0.27771695
0.2777171411
0.2777172957
0.2777174019
0.2777174482
0.2777058753
0.2777066755
0.2777076761
0.277708756
0.2777098408
0.2777108694
0.2777117941
0.2777126164
0.2777132768
0.2777138307
0.2777142753
0.2777146397
0.2777149772
0.2777152478
0.2777154313
0.2777048216
0.2777052381
0.2777057392
0.2777063391
0.2777070471
0.2777078217
0.2777085855
0.277709254
0.2777099216
0.2777105741
0.2777111949
0.2777117594
0.277712263
0.2777126885
0.2777130457
0.2777041516
0.2777044846
0.277704888
0.2777053729
0.2777059372
0.2777065453
0.2777072326
0.2777078987
0.2777085148
0.2777091783
0.2777097806
0.2777103387
0.2777108759
0.2777112579
0.2777051966
0.2777053171
0.2777055249
0.277705746
0.277706075
0.2777064863
0.277706977
0.2777075009
0.277708086
0.2777087016
0.2777092913
0.277709884
0.2777104637
0.277711027
0.2777114711
0.2777044011
0.2777045951
0.2777048892
0.2777052838
0.2777057724
0.277706275
0.2777068804
0.2777075438
0.2777081745
0.2777088087
0.2777094471
0.2777100503
0.2777105964
0.2777110934
0.2777115127
0.2777053493
0.2777057217
0.2777062607
0.2777068824
0.2777076132
0.2777084082
0.2777091627
0.2777099198
0.2777106423
0.2777113546
0.2777119912
0.2777125199
0.2777130455
0.277713507
0.2777138277
0.2777045643
0.2777051697
0.2777059364
0.2777068412
0.2777078436
0.2777088504
0.2777097767
0.2777105831
0.2777113402
0.2777120083
0.2777125585
0.2777130807
0.2777135192
0.2777138767
0.2777141023
0.2777058592
0.2777066399
0.2777076056
0.277708626
0.2777096743
0.2777106594
0.2777115898
0.2777124227
0.2777131841
0.2777138704
0.2777144325
0.2777149185
0.277715292
0.2777156338
0.2777158576
0.2777038753
0.2777045232
0.2777053332
0.2777062564
0.2777072432
0.2777082233
0.2777091573
0.2777100165
0.2777107967
0.2777114722
0.2777120581
0.2777125304
0.2777129452
0.2777132897
0.2777135506
0.2777051912
0.277705554
0.2777060236
0.2777067183
0.2777074537
0.2777082146
0.2777089594
0.2777097465
0.277710475
0.2777111576
0.2777117694
0.2777123511
0.277712864
0.2777132958
0.2777136055
0.277705512
0.277705723
0.27770602
0.2777064583
0.2777069256
0.2777074472
0.2777080346
0.2777086821
0.2777093162
0.2777099701
0.2777105893
0.2777111937
0.2777117751
0.2777122768
0.2777126709
0.2777049163
0.2777050271
0.2777052109
0.2777054652
0.2777058102
0.2777061968
0.2777066857
0.2777071947
0.2777077261
0.2777083063
0.2777089264
0.2777095541
0.2777101462
0.27771069
0.2777110903
)
;

boundaryField
{
    top
    {
        type            calculated;
        value           nonuniform List<scalar> 
127
(
0.2777049163
0.2777048761
0.2777048875
0.2777061675
0.2777055092
0.2777070878
0.2777066878
0.2777047161
0.2777041516
0.2777050271
0.2777050759
0.2777051908
0.2777066608
0.2777063182
0.2777080653
0.2777075023
0.2777052372
0.2777044846
0.2777052109
0.2777053135
0.2777055883
0.2777072967
0.2777072539
0.2777090894
0.277708445
0.2777058596
0.277704888
0.2777054652
0.2777056714
0.2777060389
0.2777080386
0.2777081683
0.27771014
0.2777094253
0.277706593
0.2777053729
0.2777058102
0.2777060631
0.277706584
0.2777088242
0.2777091391
0.2777111766
0.2777103566
0.2777073676
0.2777059372
0.2777061968
0.277706516
0.2777071913
0.2777096002
0.2777100565
0.2777121244
0.2777112562
0.2777081638
0.2777065453
0.2777066857
0.2777070531
0.2777078485
0.2777103848
0.2777109213
0.2777129414
0.2777120985
0.2777089317
0.2777072326
0.2777071947
0.2777076219
0.277708488
0.2777110929
0.2777117044
0.277713713
0.2777128335
0.2777097006
0.2777078987
0.2777077261
0.2777081984
0.2777091126
0.2777118134
0.2777123648
0.2777143512
0.2777135407
0.2777103656
0.2777085148
0.2777083063
0.2777088152
0.2777097259
0.2777124454
0.277712966
0.2777148989
0.2777140973
0.2777109944
0.2777091783
0.2777089264
0.2777093956
0.277710333
0.2777129831
0.2777134635
0.2777153949
0.2777146257
0.2777115618
0.2777097806
0.2777095541
0.2777099792
0.2777108762
0.2777134934
0.2777139024
0.2777157709
0.2777150622
0.2777120508
0.2777103387
0.2777101462
0.2777105109
0.277711419
0.2777139354
0.2777142717
0.2777160944
0.2777154122
0.2777125049
0.2777108759
0.27771069
0.2777109375
0.2777118379
0.2777142704
0.2777145245
0.2777163385
0.2777156088
0.2777128342
0.2777112579
0.2777110903
)
;
    }
    bottom
    {
        type            calculated;
        value           nonuniform List<scalar> 
134
(
0.2777051011
0.277704764
0.2777059062
0.2777053583
0.2777059163
0.2777060541
0.277704344
0.2777051966
0.2777044916
0.2777053223
0.2777051063
0.2777065387
0.2777061341
0.2777064851
0.2777064484
0.2777045358
0.2777053171
0.2777046914
0.2777056186
0.277705612
0.277707343
0.2777070934
0.2777072867
0.2777069762
0.2777048326
0.2777055249
0.2777049588
0.2777060228
0.2777062248
0.2777082851
0.2777081209
0.2777082099
0.2777076272
0.2777052483
0.277705746
0.2777052823
0.277706519
0.2777069694
0.2777092553
0.2777091511
0.2777092117
0.2777083471
0.27770575
0.277706075
0.2777056937
0.2777070625
0.2777077592
0.277710244
0.2777101779
0.2777102202
0.2777091549
0.2777063022
0.2777064863
0.2777061487
0.2777077159
0.2777085607
0.277711108
0.2777111424
0.2777111344
0.2777099354
0.2777068894
0.277706977
0.2777066644
0.2777083575
0.2777092998
0.2777119789
0.2777119542
0.2777120165
0.2777107103
0.2777075193
0.2777075009
0.277707245
0.2777089973
0.2777100796
0.2777127266
0.277712702
0.2777128352
0.2777114528
0.277708178
0.277708086
0.2777078322
0.2777096476
0.2777107609
0.2777134159
0.2777133305
0.2777135224
0.2777121722
0.2777088094
0.2777087016
0.2777084347
0.2777103088
0.2777113915
0.2777140379
0.2777139147
0.2777141509
0.2777127838
0.2777094234
0.2777092913
0.2777090679
0.277710882
0.2777119592
0.2777145351
0.2777144038
0.2777146458
0.2777133549
0.2777099685
0.277709884
0.2777096336
0.2777114325
0.2777124798
0.2777149614
0.2777148206
0.2777150581
0.2777138788
0.2777105135
0.2777104637
0.2777102396
0.2777119349
0.2777129107
0.2777153091
0.2777151611
0.2777153985
0.2777143234
0.2777110019
0.277711027
0.2777106475
0.2777123418
0.2777132266
0.277715574
0.2777153893
0.2777156693
0.2777146439
0.2777114088
0.2777114711
)
;
    }
    side-walls
    {
        type            calculated;
        value           nonuniform List<scalar> 
261
(
0.2777044916
0.2777049196
0.2777051141
0.2777053423
0.277705662
0.2777074962
0.2777067226
0.2777051027
0.2777048761
0.2777046914
0.2777051963
0.277705636
0.2777061047
0.2777066191
0.2777082789
0.2777072517
0.2777053835
0.2777050759
0.2777049588
0.277705565
0.2777062727
0.2777069872
0.2777076339
0.2777091658
0.2777078934
0.2777057547
0.2777053135
0.2777052823
0.2777060402
0.2777069984
0.277707998
0.2777087152
0.2777101053
0.2777086146
0.2777062137
0.2777056714
0.2777056937
0.2777065907
0.2777078116
0.2777089693
0.277709758
0.277711069
0.2777093564
0.2777068266
0.2777060631
0.2777061487
0.2777071814
0.2777085887
0.2777099169
0.2777107097
0.2777119386
0.2777101204
0.2777074165
0.277706516
0.2777066644
0.2777078205
0.2777093608
0.2777107872
0.2777115609
0.2777127853
0.2777109056
0.2777080313
0.2777070531
0.277707245
0.2777084489
0.2777101389
0.2777115606
0.2777122855
0.2777135373
0.277711611
0.2777087037
0.2777076219
0.2777078322
0.2777090663
0.2777107907
0.2777121959
0.2777129303
0.2777142368
0.277712267
0.2777093618
0.2777081984
0.2777084347
0.2777096479
0.2777114567
0.2777127891
0.2777134752
0.2777148022
0.2777128734
0.2777099808
0.2777088152
0.2777090679
0.2777102506
0.2777120005
0.2777133031
0.2777139191
0.2777153248
0.27771348
0.277710569
0.2777093956
0.2777096336
0.2777107828
0.2777125079
0.2777137683
0.277714312
0.2777157567
0.2777140271
0.2777111498
0.2777099792
0.2777102396
0.2777113055
0.2777129186
0.2777141306
0.2777146135
0.2777161399
0.2777144476
0.2777116513
0.2777105109
0.2777106475
0.2777116917
0.2777132805
0.2777143849
0.2777148383
0.2777164063
0.2777147884
0.2777120104
0.2777109375
0.2777051966
0.2777044011
0.2777053493
0.2777045643
0.2777058592
0.2777038753
0.2777051912
0.277705512
0.2777049163
0.2777053171
0.2777045951
0.2777057217
0.2777051697
0.2777066399
0.2777045232
0.277705554
0.277705723
0.2777050271
0.2777055249
0.2777048892
0.2777062607
0.2777059364
0.2777076056
0.2777053332
0.2777060236
0.27770602
0.2777052109
0.277705746
0.2777052838
0.2777068824
0.2777068412
0.277708626
0.2777062564
0.2777067183
0.2777064583
0.2777054652
0.277706075
0.2777057724
0.2777076132
0.2777078436
0.2777096743
0.2777072432
0.2777074537
0.2777069256
0.2777058102
0.2777064863
0.277706275
0.2777084082
0.2777088504
0.2777106594
0.2777082233
0.2777082146
0.2777074472
0.2777061968
0.277706977
0.2777068804
0.2777091627
0.2777097767
0.2777115898
0.2777091573
0.2777089594
0.2777080346
0.2777066857
0.2777075009
0.2777075438
0.2777099198
0.2777105831
0.2777124227
0.2777100165
0.2777097465
0.2777086821
0.2777071947
0.277708086
0.2777081745
0.2777106423
0.2777113402
0.2777131841
0.2777107967
0.277710475
0.2777093162
0.2777077261
0.2777087016
0.2777088087
0.2777113546
0.2777120083
0.2777138704
0.2777114722
0.2777111576
0.2777099701
0.2777083063
0.2777092913
0.2777094471
0.2777119912
0.2777125585
0.2777144325
0.2777120581
0.2777117694
0.2777105893
0.2777089264
0.277709884
0.2777100503
0.2777125199
0.2777130807
0.2777149185
0.2777125304
0.2777123511
0.2777111937
0.2777095541
0.2777104637
0.2777105964
0.2777130455
0.2777135192
0.277715292
0.2777129452
0.277712864
0.2777117751
0.2777101462
0.277711027
0.2777110934
0.277713507
0.2777138767
0.2777156338
0.2777132897
0.2777132958
0.2777122768
0.27771069
0.2777114711
0.2777115127
0.2777138277
0.2777141023
0.2777158576
0.2777135506
0.2777136055
0.2777126709
0.2777110903
)
;
    }
    inlet
    {
        type            calculated;
        value           nonuniform 0();
    }
    outlet
    {
        type            calculated;
        value           nonuniform List<scalar> 
81
(
0.2777106475
0.2777116917
0.2777132805
0.2777143849
0.2777148383
0.2777164063
0.2777147884
0.2777120104
0.2777109375
0.2777123418
0.2777121041
0.277714489
0.27771753
0.2777177213
0.2777160333
0.2777133328
0.2777144204
0.2777118379
0.2777132266
0.2777159185
0.2777184135
0.2777206831
0.2777203979
0.2777218781
0.2777185391
0.2777150601
0.2777142704
0.277715574
0.2777174411
0.2777222919
0.2777237029
0.2777255474
0.2777237953
0.2777205489
0.277716837
0.2777145245
0.2777153893
0.2777184001
0.2777187441
0.2777251261
0.2785117856
0.2777249017
0.2777218822
0.2777184753
0.2777163385
0.2777156693
0.2777180822
0.2777207787
0.2777243597
0.277725916
0.2777246368
0.277720594
0.2777174914
0.2777156088
0.2777146439
0.2777144168
0.2777159171
0.277720505
0.2777226413
0.2777205136
0.2777179974
0.2777159505
0.2777128342
0.2777114088
0.2777132487
0.2777149548
0.2777169645
0.2777173895
0.2777174482
0.2777154313
0.2777130457
0.2777112579
0.2777114711
0.2777115127
0.2777138277
0.2777141023
0.2777158576
0.2777135506
0.2777136055
0.2777126709
0.2777110903
)
;
    }
    procBoundary1to0
    {
        type            processor;
        value           nonuniform List<scalar> 
97
(
0.2777043782
0.2777043782
0.2777047837
0.2777047584
0.2777047078
0.2777048519
0.2777068482
0.2777063879
0.2777049007
0.2777047546
0.2777049545
0.2777040652
0.2777040652
0.2777040652
0.2777047507
0.2777069314
0.2777075832
0.2777053788
0.2777035429
0.2777061583
0.2777047081
0.2777045247
0.277705697
0.2777079698
0.2777079698
0.2777079698
0.2777116113
0.2777166272
0.2777127109
0.2777078141
0.277705395
0.2777057905
0.2777055135
0.277705987
0.2777090442
0.2777275913
0.2777275913
0.2777275913
0.277773286
0.2777275849
0.2777116082
0.2777062655
0.2777048965
0.277704776
0.2777063228
0.2777066404
0.2777228209
0.2775671036
0.2775671036
0.2775671036
0.2777727225
0.2777727225
0.2777179862
0.2777083344
0.2777062886
0.277705516
0.2777064578
0.2777076907
0.2777131511
0.2777237574
0.2777135213
0.2777113592
0.2777113592
0.2777113592
0.2777071214
0.277706052
0.277705841
0.2777043733
0.277703678
0.2777073802
0.277710422
0.2777074402
0.2777059557
0.2777064773
0.2777064773
0.2777064773
0.2777043231
0.2777041932
0.2777047377
0.2777048311
0.2777053527
0.2777053819
0.2777058411
0.2777053381
0.2777046059
0.2777039735
0.2777039735
0.2777039735
0.277705157
0.27770428
0.2777050901
0.2777041888
0.277705325
0.2777034624
0.2777049725
0.2777054156
0.2777048415
)
;
    }
}


// ************************************************************************* //
