/*--------------------------------*- C++ -*----------------------------------*\
| =========                 |                                                 |
| \\      /  F ield         | OpenFOAM: The Open Source CFD Toolbox           |
|  \\    /   O peration     | Version:  4.x                                   |
|   \\  /    A nd           | Web:      www.OpenFOAM.org                      |
|    \\/     M anipulation  |                                                 |
\*---------------------------------------------------------------------------*/
FoamFile
{
    version     2.0;
    format      ascii;
    class       volVectorField;
    location    "9000";
    object      U;
}
// * * * * * * * * * * * * * * * * * * * * * * * * * * * * * * * * * * * * * //

dimensions      [0 1 -1 0 0 0 0];

internalField   nonuniform List<vector> 
1174
(
(0.01100019864 -3.680509551e-09 -3.280967588e-09)
(0.01100020438 -5.388369679e-09 -4.23316739e-09)
(0.0110002144 -3.498421325e-09 -3.178010587e-09)
(0.01100021017 -2.822316822e-09 -5.839565232e-10)
(0.01100019874 -1.006895508e-09 -1.316493637e-09)
(0.01100018393 -2.792155432e-10 1.085893089e-09)
(0.01100016172 1.551412019e-10 -8.176278904e-10)
(0.01100013431 -3.952505346e-10 5.51080143e-10)
(0.01100010545 2.704753987e-09 5.806174948e-10)
(0.01100007753 7.800140197e-10 3.496291001e-09)
(0.0110000437 1.510099496e-09 3.843855461e-09)
(0.0110000151 1.567793525e-09 2.742248668e-09)
(0.01099998826 3.407642257e-09 4.808430642e-09)
(0.01099995751 2.666396783e-09 2.195454991e-09)
(0.01100020822 -2.455147915e-08 -2.549275667e-09)
(0.01100020106 -2.013786267e-08 -5.54070858e-09)
(0.01100020813 -1.245820384e-08 -4.348120125e-09)
(0.01100019186 -6.859159233e-09 -2.479721765e-09)
(0.011000172 -3.262547907e-09 -1.025728292e-09)
(0.0110001467 3.240016852e-10 1.582283856e-10)
(0.01100011648 1.0246037e-09 3.816606021e-10)
(0.0110000864 4.234812158e-09 -3.279749139e-11)
(0.01100005263 4.278530715e-09 1.91149053e-10)
(0.01100002207 4.189850409e-09 1.052610375e-09)
(0.01099999064 4.739468441e-09 3.06015056e-09)
(0.01099996007 5.695710484e-09 3.952323137e-09)
(0.01099993638 6.192543502e-09 2.698102641e-09)
(0.01099990708 5.401230211e-09 1.270223741e-09)
(0.01100023302 -1.338834159e-08 -6.345125709e-09)
(0.0110002002 -1.85190111e-08 -9.651233261e-09)
(0.01100019265 -1.225362971e-08 -5.333640726e-09)
(0.01100015481 -5.570211392e-09 -3.136808625e-09)
(0.0110001202 -2.086827682e-09 1.448988121e-09)
(0.01100007831 6.554542454e-10 5.498507526e-10)
(0.01100003722 3.832180829e-09 1.759224641e-09)
(0.01099999869 3.56195113e-09 -7.646421036e-10)
(0.01099996252 3.355364234e-09 3.876646542e-10)
(0.01099992888 3.985350065e-09 1.419944864e-09)
(0.01099990177 4.223259599e-09 1.174412127e-09)
(0.01099987557 6.907606594e-09 -8.403929281e-11)
(0.01099985504 9.034639457e-09 1.50914236e-09)
(0.01099983006 6.234065423e-09 2.221318822e-10)
(0.01100024009 -1.931727256e-08 6.230618196e-09)
(0.01100016272 -1.123156719e-08 -1.394458164e-08)
(0.01100014913 -1.966337384e-10 -6.593175768e-09)
(0.01100009527 5.050918422e-09 -1.343624764e-09)
(0.01100004586 5.68130313e-09 -4.584281655e-10)
(0.01099999686 5.122420032e-09 3.033388882e-09)
(0.01099994854 5.128988222e-09 3.52313374e-09)
(0.01099990772 4.275115422e-09 3.999312959e-09)
(0.01099987347 3.717061421e-09 4.072431628e-09)
(0.01099984316 4.210495555e-09 5.722037827e-09)
(0.01099981923 4.356430645e-09 5.775541391e-09)
(0.01099979575 3.019718184e-09 4.469482317e-09)
(0.0109997784 4.898708788e-09 4.515071433e-09)
(0.0109997626 5.665069639e-09 3.198143109e-09)
(0.01100031672 -1.213924421e-09 2.120198723e-08)
(0.0110001682 4.379432863e-11 4.81202672e-10)
(0.01100012985 7.34744307e-11 5.005339364e-09)
(0.01100006165 2.834653958e-10 5.914320682e-09)
(0.01100000399 -1.491383856e-09 4.596803303e-09)
(0.01099995203 3.534537414e-10 5.904620746e-09)
(0.01099990371 -1.248938834e-09 5.202098986e-09)
(0.01099986597 -1.430181158e-09 3.920532036e-09)
(0.01099983172 -1.292524839e-09 3.628119378e-09)
(0.01099980527 -2.086578998e-09 5.769799509e-09)
(0.01099978164 -2.993075133e-10 3.866399056e-09)
(0.01099976257 -9.557635851e-10 1.56943813e-09)
(0.01099974905 -3.22868555e-10 2.217508785e-09)
(0.01099973541 -1.813563242e-10 -7.999280809e-10)
(0.01100023775 1.980788883e-08 8.372227409e-09)
(0.01100016248 7.905070819e-09 -1.200037371e-08)
(0.01100014685 7.52290171e-10 -5.250597962e-09)
(0.01100009551 -5.238762833e-09 -6.293589753e-10)
(0.01100004511 -7.250158483e-09 3.138721299e-09)
(0.01099999831 -6.512813069e-09 3.908191721e-09)
(0.01099994896 -6.546941802e-09 6.312032367e-09)
(0.0109999099 -5.836181972e-09 6.434260328e-09)
(0.010999872 -5.43060282e-09 4.317387173e-09)
(0.0109998442 -3.530751746e-09 5.102329408e-09)
(0.0109998182 -4.706673642e-09 5.145929825e-09)
(0.01099979609 -3.980501255e-09 2.607859015e-09)
(0.01099977847 -5.300163418e-09 2.873193613e-09)
(0.01099976453 -4.127284732e-09 2.351654343e-09)
(0.01100023015 1.497739775e-08 -4.639744679e-09)
(0.01100019623 1.944141223e-08 -7.894046118e-09)
(0.0110001891 9.728383356e-09 -3.532607307e-09)
(0.01100015461 3.832409809e-09 -1.057287711e-09)
(0.01100011844 1.960867127e-09 2.223122282e-09)
(0.01100007978 -1.745079029e-09 4.515474138e-09)
(0.01100003535 -3.184703542e-09 3.466098132e-09)
(0.01099999739 -6.909609091e-09 4.389436987e-09)
(0.01099996361 -7.011392992e-09 5.111036089e-09)
(0.01099993423 -5.554109137e-09 4.173643899e-09)
(0.01099990239 -4.715586943e-09 4.25753459e-09)
(0.0109998736 -4.240308912e-09 1.173754276e-09)
(0.01099985422 -5.807292907e-09 2.668636905e-09)
(0.01099983125 -2.830050077e-09 2.466535811e-09)
(0.01100020587 2.370866663e-08 -2.87427539e-09)
(0.0110001968 2.020508752e-08 -6.674646313e-09)
(0.01100020524 1.110324577e-08 -5.225064949e-09)
(0.01100019246 3.939608887e-09 -1.172551306e-09)
(0.01100017105 1.489814408e-09 -2.347324319e-09)
(0.01100014637 7.961875474e-10 -9.244509512e-10)
(0.01100011593 -3.038637325e-09 2.156534061e-09)
(0.0110000865 -3.583890681e-09 3.302727528e-09)
(0.01100005366 -4.060808443e-09 3.59898504e-09)
(0.01100002274 -4.387381814e-09 2.012608316e-09)
(0.01099999431 -4.360231795e-09 2.094319435e-09)
(0.01099995996 -5.212253078e-09 1.691125755e-09)
(0.01099993531 -7.075643366e-09 1.850293502e-09)
(0.01099990808 -6.168385977e-09 2.283830834e-09)
(0.01100019726 3.035332095e-09 -2.800153355e-09)
(0.01100019989 2.519556396e-09 -5.721812591e-09)
(0.01100021409 1.630592227e-09 -3.265983136e-09)
(0.01100020715 2.001133043e-09 -2.31191138e-09)
(0.01100020105 1.129440601e-10 -4.585346716e-09)
(0.01100018506 -1.376146541e-09 -1.264399783e-09)
(0.01100015942 9.275576771e-10 -1.236064068e-10)
(0.01100013461 2.128219773e-09 4.074765971e-10)
(0.01100010652 -1.260303659e-09 1.74837239e-09)
(0.0110000756 -2.650902547e-09 1.255117743e-09)
(0.01100004826 -3.494287787e-09 1.942714301e-09)
(0.01100001609 -2.615422998e-09 1.816966366e-09)
(0.0109999894 -3.315871416e-09 2.34875306e-09)
(0.01099995735 -1.420746357e-09 2.281907757e-09)
(0.01100015681 -1.880944148e-08 -5.301114717e-08)
(0.0110002065 -2.105096346e-10 -2.450844128e-08)
(0.01100020251 -5.61558126e-09 -2.137461982e-08)
(0.01100020743 -5.343273482e-09 -1.307430958e-08)
(0.01100019211 -2.807051482e-09 -6.518729155e-09)
(0.01100017424 -1.462659162e-09 -2.547794337e-09)
(0.01100014734 -3.337362001e-10 2.596991132e-10)
(0.01100011558 1.350851976e-10 2.130174682e-09)
(0.0110000859 3.280667917e-10 2.930204251e-09)
(0.01100005359 2.950693285e-09 5.761371948e-09)
(0.01100001925 2.569548039e-09 5.948796198e-09)
(0.01099999098 3.494458106e-09 5.607982478e-09)
(0.01099996031 3.826471629e-09 5.70226802e-09)
(0.0109999357 4.375912127e-09 6.29076952e-09)
(0.01099990504 2.232424217e-09 5.896037298e-09)
(0.01100021786 -2.385330537e-08 -2.594671257e-08)
(0.01100018263 -2.362112704e-08 -2.454658463e-08)
(0.01100018182 -1.201137253e-08 -1.300513409e-08)
(0.0110001499 -5.266070156e-09 -5.065679778e-09)
(0.0110001177 -1.081450193e-09 -3.880289104e-10)
(0.01100007766 3.794980411e-09 3.178251086e-09)
(0.0110000422 4.95236021e-09 3.037272658e-09)
(0.01100000836 6.473070601e-09 6.329622086e-09)
(0.01099997528 8.211266565e-09 7.125927738e-09)
(0.01099994571 7.269755924e-09 6.711344013e-09)
(0.01099991563 8.972911753e-09 7.379180366e-09)
(0.01099988984 7.919085217e-09 6.962995932e-09)
(0.01099986899 8.279313981e-09 8.52894587e-09)
(0.01099984839 8.440527686e-09 6.168682679e-09)
(0.01100024864 -3.522727712e-09 -3.840725656e-08)
(0.0110001502 -2.574314966e-08 -3.358266421e-08)
(0.01100011728 -1.346900964e-08 -9.197746658e-09)
(0.01100005259 -3.439600978e-09 5.482025226e-09)
(0.01099999732 2.640957768e-09 9.85916981e-09)
(0.01099994804 5.360715719e-09 1.253804629e-08)
(0.01099990132 9.466367762e-09 1.362847307e-08)
(0.01099986675 1.032684005e-08 1.464800466e-08)
(0.01099983877 7.79952802e-09 1.235577642e-08)
(0.01099981606 9.005797543e-09 1.238141698e-08)
(0.01099979502 8.523575256e-09 1.361860635e-08)
(0.01099978096 8.633411008e-09 9.931486476e-09)
(0.01099976634 1.058902955e-08 1.063777702e-08)
(0.0109997534 9.555726161e-09 8.729386768e-09)
(0.01100021882 7.337136486e-09 -7.400716195e-09)
(0.01100001883 3.63326588e-10 -3.888525021e-08)
(0.01099998211 9.506454792e-09 -1.036132898e-09)
(0.01099989817 1.540035381e-08 1.449571637e-08)
(0.01099983514 1.399080392e-08 1.927054521e-08)
(0.01099978288 1.30035138e-08 2.252691881e-08)
(0.01099974497 1.150739185e-08 2.333400488e-08)
(0.01099971569 8.273852155e-09 2.032590422e-08)
(0.01099970166 7.564983609e-09 1.859777889e-08)
(0.01099968561 7.063499954e-09 1.605138015e-08)
(0.01099967709 6.524343661e-09 1.443968232e-08)
(0.0109996736 5.627738763e-09 1.176942796e-08)
(0.01099966965 7.192989812e-09 1.195434861e-08)
(0.01099966778 4.5755743e-09 9.992874071e-09)
(0.01100034838 -2.876791278e-10 7.535973828e-08)
(0.01099994446 -2.413622937e-10 3.532164979e-08)
(0.01099988458 6.107515527e-10 5.596410937e-08)
(0.01099979276 -4.887917337e-10 5.482271932e-08)
(0.01099973097 -1.388131873e-09 4.423900425e-08)
(0.01099969226 -3.221475473e-10 3.562430019e-08)
(0.01099965784 -2.566385819e-11 3.020805471e-08)
(0.01099964599 -2.719991949e-10 2.454633714e-08)
(0.01099963448 4.535332047e-10 2.075347892e-08)
(0.01099963147 -2.382794381e-09 1.638422507e-08)
(0.01099962809 -2.422595501e-09 1.512264697e-08)
(0.01099963115 -3.696626065e-09 1.33235771e-08)
(0.01099963206 -2.689758543e-09 1.365869835e-08)
(0.010999633 -4.802355576e-10 1.080396819e-08)
(0.0110002163 -6.95333993e-09 -7.648927538e-09)
(0.01100001818 -1.362230286e-09 -3.627660332e-08)
(0.01099998348 -1.218021664e-08 -1.573039058e-09)
(0.01099989876 -1.459482003e-08 1.483487176e-08)
(0.01099983412 -1.3289687e-08 2.092458551e-08)
(0.01099978286 -1.272531571e-08 2.201442846e-08)
(0.0109997443 -1.166397826e-08 2.124219874e-08)
(0.01099971786 -9.860024243e-09 2.060566609e-08)
(0.01099970017 -8.036747035e-09 1.916481045e-08)
(0.01099968643 -7.53630885e-09 1.680286787e-08)
(0.01099967829 -6.542594435e-09 1.350404361e-08)
(0.01099967414 -5.452747787e-09 1.06894662e-08)
(0.0109996724 -7.452702544e-09 1.300984266e-08)
(0.01099966977 -4.668843551e-09 1.02316803e-08)
(0.01100024733 4.491934467e-09 -3.885494835e-08)
(0.01100014571 2.591748848e-08 -3.218946644e-08)
(0.01100011391 1.191221291e-08 -6.526316517e-09)
(0.01100005226 3.757121549e-10 5.551261142e-09)
(0.01099999759 -3.905238656e-09 1.081147858e-08)
(0.01099994564 -6.716812326e-09 1.306169336e-08)
(0.01099990157 -9.131517599e-09 1.523933833e-08)
(0.01099986667 -9.238019208e-09 1.45104502e-08)
(0.01099983822 -9.948122391e-09 1.510767659e-08)
(0.0109998137 -8.9013328e-09 1.441669619e-08)
(0.010999794 -9.303297516e-09 1.0427974e-08)
(0.01099978245 -6.92163385e-09 1.103648216e-08)
(0.01099976776 -8.88868136e-09 9.741631879e-09)
(0.01099975463 -6.680118083e-09 7.613407908e-09)
(0.01100021575 2.276205768e-08 -2.611641141e-08)
(0.01100018077 2.457654007e-08 -2.498182209e-08)
(0.01100017806 1.266668153e-08 -1.267662085e-08)
(0.01100014948 4.330552019e-09 -4.307645905e-09)
(0.01100011774 3.853282897e-10 -1.586013919e-09)
(0.01100008117 -3.30544291e-09 4.081121601e-09)
(0.01100004138 -7.30013593e-09 6.266439894e-09)
(0.01100000798 -6.943744812e-09 9.000858994e-09)
(0.01099997532 -8.545968637e-09 8.82302128e-09)
(0.01099994497 -6.750419881e-09 8.640275459e-09)
(0.01099991807 -6.780376182e-09 7.929146826e-09)
(0.01099989201 -5.999118021e-09 6.443487037e-09)
(0.01099987196 -6.836727215e-09 8.356177222e-09)
(0.01099984974 -5.927603131e-09 5.749722319e-09)
(0.01100020592 1.852808686e-09 -2.39939156e-08)
(0.0110001993 5.670217421e-09 -1.930839913e-08)
(0.01100020474 5.123771404e-09 -9.459144861e-09)
(0.01100019204 2.379742169e-09 -4.134433176e-09)
(0.01100017435 -1.433676838e-11 2.120432561e-10)
(0.01100014701 -1.502440107e-09 -6.737544854e-10)
(0.01100011613 -1.342826081e-09 2.268569239e-09)
(0.01100008575 -1.110727899e-09 4.913272916e-09)
(0.01100005219 -3.657902265e-09 5.455407236e-09)
(0.01100002334 -2.568656652e-09 7.322095864e-09)
(0.01099999381 -3.113433912e-09 6.102271084e-09)
(0.01099996159 -1.723052219e-09 5.201618702e-09)
(0.01099993735 -3.107676325e-09 6.296378687e-09)
(0.01099990931 -2.2148159e-09 5.076975239e-09)
(0.01100016028 -3.855646859e-08 -6.189495454e-08)
(0.01100023184 -1.824859968e-09 -1.390208314e-08)
(0.01100019744 -7.792150297e-09 -1.872756668e-08)
(0.01100019141 -1.881465655e-09 -1.18783115e-08)
(0.01100015569 1.525595471e-09 -5.291307543e-09)
(0.01100012018 -5.434984637e-10 -8.129455805e-10)
(0.01100007485 2.290898336e-09 1.402936398e-09)
(0.01100003844 4.656680007e-09 4.109783658e-09)
(0.01099999997 5.296170658e-09 6.263653882e-09)
(0.01099996224 6.632220282e-09 5.079609652e-09)
(0.01099992916 5.892524559e-09 4.971464485e-09)
(0.01099990319 5.70723625e-09 6.07959469e-09)
(0.01099987217 6.797561639e-09 6.718279798e-09)
(0.01099985318 6.919518565e-09 8.395447201e-09)
(0.01099982988 5.747820189e-09 6.807312829e-09)
(0.01100016914 -1.832626633e-07 -9.887040015e-08)
(0.01100025122 -3.715884219e-08 -4.376596418e-09)
(0.01100014503 -3.148815497e-08 -2.72302215e-08)
(0.01100011369 -7.143402256e-09 -1.348752913e-08)
(0.01100005313 5.297954998e-09 -4.849403704e-09)
(0.01099999648 8.970697317e-09 3.324487501e-09)
(0.010999945 1.195317237e-08 5.504239057e-09)
(0.01099990143 1.353563846e-08 8.9448049e-09)
(0.01099986888 1.300901026e-08 1.04168817e-08)
(0.010999839 1.268417153e-08 9.301650821e-09)
(0.01099981379 1.18358471e-08 6.793028156e-09)
(0.01099979467 1.124894163e-08 8.080025912e-09)
(0.01099977859 1.044397049e-08 6.599581377e-09)
(0.01099976454 1.103121727e-08 6.742627413e-09)
(0.01099975375 9.861896464e-09 7.703369523e-09)
(0.01100028375 5.973582234e-09 2.219469706e-09)
(0.01100000499 -3.256257798e-08 -3.353888236e-08)
(0.01099991134 -1.125931166e-10 -1.775891493e-09)
(0.01099979743 1.523089334e-08 1.50966335e-08)
(0.01099971933 1.835127493e-08 1.893492943e-08)
(0.01099967032 2.025374458e-08 2.046413666e-08)
(0.01099963917 2.164656815e-08 1.83402263e-08)
(0.01099962271 1.873362756e-08 1.722605646e-08)
(0.01099961728 1.514556831e-08 1.496720908e-08)
(0.01099961591 1.486219061e-08 1.228062447e-08)
(0.01099961625 1.357800344e-08 1.096048794e-08)
(0.01099962003 1.187327452e-08 9.861788577e-09)
(0.01099962886 1.11303339e-08 9.27146976e-09)
(0.01099963293 1.146247651e-08 8.083537454e-09)
(0.0110000996 9.170513137e-08 1.049011201e-07)
(0.01099956503 5.570062935e-08 -7.510512158e-08)
(0.0109994912 6.415618042e-08 -2.053816736e-10)
(0.01099937669 5.71459505e-08 2.778187413e-08)
(0.01099932872 4.077823547e-08 3.126774069e-08)
(0.01099932187 3.079722187e-08 3.153560571e-08)
(0.01099933568 2.366992585e-08 2.819839121e-08)
(0.01099935668 1.639455363e-08 2.401127113e-08)
(0.01099938699 1.309419854e-08 1.983740746e-08)
(0.01099941532 1.084531861e-08 1.555079262e-08)
(0.01099944517 8.734477591e-09 1.225540499e-08)
(0.0109994699 8.100280184e-09 1.124493291e-08)
(0.01099949732 9.386679859e-09 1.21074589e-08)
(0.01099951855 7.000060977e-09 1.005460187e-08)
(0.01100028004 3.270802339e-10 5.881171106e-07)
(0.01099912324 2.06271191e-09 7.031434431e-08)
(0.01099908829 8.465659517e-10 9.55372654e-08)
(0.01099903609 -1.922251986e-10 8.958028994e-08)
(0.01099905396 9.236643494e-10 6.537673967e-08)
(0.01099910873 -4.869767949e-11 4.911608656e-08)
(0.0109991684 -1.212174217e-09 3.539637054e-08)
(0.01099922387 1.684592375e-10 3.032653471e-08)
(0.01099927786 2.640014556e-10 2.224780427e-08)
(0.01099932965 1.123741134e-10 1.704874251e-08)
(0.01099937157 -1.415874847e-09 1.336618538e-08)
(0.01099941255 -5.678901069e-10 1.258293318e-08)
(0.01099944399 -6.869738082e-10 1.200250743e-08)
(0.01099947522 -9.239402618e-11 1.111048325e-08)
(0.01100009842 -9.098467152e-08 1.056126035e-07)
(0.01099956557 -5.69673004e-08 -7.437394842e-08)
(0.01099949018 -6.397462269e-08 1.395367994e-09)
(0.01099937678 -5.626500867e-08 2.882407421e-08)
(0.01099932965 -4.118286937e-08 3.31692276e-08)
(0.0109993209 -3.013520675e-08 3.247517403e-08)
(0.01099933349 -2.222346366e-08 2.925194068e-08)
(0.01099936003 -1.749978019e-08 2.430963595e-08)
(0.01099938798 -1.314462528e-08 2.139952839e-08)
(0.01099941461 -1.059545176e-08 1.684608776e-08)
(0.0109994447 -8.358730261e-09 1.526707919e-08)
(0.01099947286 -8.253743729e-09 1.370277834e-08)
(0.01099949904 -9.048693901e-09 1.362448426e-08)
(0.01099952187 -5.705213741e-09 1.149271844e-08)
(0.01100028277 -3.305609491e-09 2.539626635e-09)
(0.01100000643 3.372925515e-08 -3.401894046e-08)
(0.01099990964 8.96162006e-10 -8.6055604e-10)
(0.01099979623 -1.39497367e-08 1.579326051e-08)
(0.01099972039 -1.802194826e-08 2.127333249e-08)
(0.01099967192 -1.963024794e-08 2.023357221e-08)
(0.01099964071 -2.041876777e-08 1.970349044e-08)
(0.01099962576 -1.794534443e-08 1.982332452e-08)
(0.01099961555 -1.541768878e-08 1.600171711e-08)
(0.01099961485 -1.399985917e-08 1.27510635e-08)
(0.01099961432 -1.293344035e-08 1.397475974e-08)
(0.01099962304 -1.193370473e-08 1.166627881e-08)
(0.01099962821 -1.121273172e-08 1.294095007e-08)
(0.01099963205 -9.965723827e-09 9.391401406e-09)
(0.01100024608 3.716623865e-08 -4.104792961e-09)
(0.01100014547 3.119982285e-08 -2.678041983e-08)
(0.01100011523 7.267682691e-09 -1.255067195e-08)
(0.01100004906 -6.655672659e-09 -2.016451046e-09)
(0.01099999543 -1.152436624e-08 3.552235199e-09)
(0.01099994584 -1.370528229e-08 7.615960969e-09)
(0.010999902 -1.445252882e-08 7.854409453e-09)
(0.01099986717 -1.464889856e-08 9.17712465e-09)
(0.01099983656 -1.339554917e-08 1.062153634e-08)
(0.01099981497 -1.164514246e-08 9.732989859e-09)
(0.01099979605 -1.080916987e-08 8.868307183e-09)
(0.01099977776 -9.057297746e-09 9.420144056e-09)
(0.01099976671 -1.071458962e-08 9.477199683e-09)
(0.01099975197 -7.502998473e-09 7.305463688e-09)
(0.01100022931 4.736015812e-09 -1.343433791e-08)
(0.01100019779 7.731218732e-09 -1.904939768e-08)
(0.01100019106 3.612377519e-09 -9.106194399e-09)
(0.0110001534 1.797012736e-09 -2.903539734e-09)
(0.01100011559 -8.776999387e-10 -1.516214484e-10)
(0.0110000786 -4.039834162e-09 2.301769221e-09)
(0.01100003596 -3.588141078e-09 3.969451659e-09)
(0.01099999976 -3.71141085e-09 5.402955995e-09)
(0.01099996206 -4.607567762e-09 7.224314563e-09)
(0.01099993185 -3.983158373e-09 6.932716564e-09)
(0.01099990044 -3.035144228e-09 7.343399189e-09)
(0.01099987589 -3.077682369e-09 7.053377645e-09)
(0.01099985421 -3.518644267e-09 8.462597221e-09)
(0.01099982939 -3.49078047e-09 5.471682137e-09)
(0.01100017182 -5.193212371e-08 -1.069184085e-07)
(0.01100023925 8.605797024e-09 -1.900974722e-08)
(0.0110001619 -1.119126816e-08 -1.017199512e-08)
(0.01100014676 -3.886283254e-09 -2.618095427e-10)
(0.01100009738 -1.245787815e-09 3.226548129e-09)
(0.01100004551 4.585976613e-09 5.113819488e-09)
(0.01099999843 3.697140653e-09 5.029422485e-09)
(0.01099994911 5.173450984e-09 5.745573963e-09)
(0.01099990998 6.469934e-09 3.484137628e-09)
(0.01099987322 5.248141097e-09 3.299122646e-09)
(0.01099983957 3.567062011e-09 3.506584245e-09)
(0.01099981778 4.960077218e-09 3.962322589e-09)
(0.01099979573 4.462892817e-09 3.463216501e-09)
(0.01099977675 4.01833293e-09 5.498162409e-09)
(0.01099975653 3.450059859e-09 4.578485387e-09)
(0.01100018373 -2.700542251e-07 -2.171228793e-07)
(0.01100021963 -3.947075921e-09 5.6946951e-09)
(0.01100001788 -3.680500674e-08 3.958650965e-10)
(0.01099997956 -3.257233089e-10 9.445684682e-09)
(0.01099989851 1.714722617e-08 1.453352093e-08)
(0.01099983165 1.951341166e-08 1.33463059e-08)
(0.01099978245 2.222605416e-08 1.110560946e-08)
(0.01099974546 2.17915815e-08 1.150942054e-08)
(0.01099971988 2.022567731e-08 9.081476989e-09)
(0.01099969911 1.76044207e-08 6.231361719e-09)
(0.0109996866 1.549574327e-08 6.73950673e-09)
(0.01099967626 1.275091566e-08 6.693093762e-09)
(0.01099967291 1.082471177e-08 6.239277586e-09)
(0.01099967069 1.137013157e-08 6.293265203e-09)
(0.01099966765 1.124327377e-08 5.264841687e-09)
(0.01100014902 -3.304386631e-07 -6.416289794e-07)
(0.01100009891 1.054748691e-07 8.711864843e-08)
(0.01099956226 -7.286941664e-08 5.450959093e-08)
(0.0109994884 -6.917094608e-10 6.10889555e-08)
(0.01099937659 2.91052399e-08 5.238797753e-08)
(0.0109993285 3.181034088e-08 3.981492589e-08)
(0.01099932037 3.348906306e-08 2.899868043e-08)
(0.01099933547 3.125215114e-08 2.284020488e-08)
(0.01099935812 2.505237185e-08 1.741709586e-08)
(0.01099938437 2.015208672e-08 1.336546421e-08)
(0.01099941769 1.78871448e-08 1.053835697e-08)
(0.01099944577 1.475357605e-08 7.86894047e-09)
(0.01099947077 1.232821533e-08 6.418910968e-09)
(0.01099949643 1.506246805e-08 7.761405094e-09)
(0.01099952112 1.200794793e-08 5.952282932e-09)
(0.01099899403 5.911692255e-07 5.898184267e-07)
(0.01099820073 1.047086482e-07 1.056001422e-07)
(0.01099845132 1.086089306e-07 1.069566178e-07)
(0.01099847178 9.254815664e-08 9.284109436e-08)
(0.0109985796 6.400340278e-08 6.350003602e-08)
(0.01099871592 4.459829603e-08 4.594734445e-08)
(0.01099884013 3.083026861e-08 3.12082651e-08)
(0.01099895538 2.225093896e-08 2.186468598e-08)
(0.01099905437 1.659852349e-08 1.669458589e-08)
(0.01099914398 1.207641295e-08 1.300480649e-08)
(0.01099921925 9.918683715e-09 9.270445552e-09)
(0.01099928357 8.932608355e-09 8.326192798e-09)
(0.01099933584 1.004821038e-08 9.446906194e-09)
(0.01099938647 8.418606541e-09 7.048741743e-09)
(0.01099799017 6.655736608e-10 3.616117875e-06)
(0.0109961292 2.816780229e-10 9.779140301e-07)
(0.01099726021 1.143063637e-09 4.27569589e-07)
(0.01099766775 1.942356761e-10 2.437691999e-07)
(0.01099802328 7.978844614e-10 1.249197707e-07)
(0.01099832873 1.366890254e-09 6.919699612e-08)
(0.01099856642 9.176357255e-10 4.119116243e-08)
(0.01099875105 5.379634835e-10 2.503407276e-08)
(0.01099890065 7.015961908e-10 1.957789089e-08)
(0.0109990208 4.76353354e-10 1.229879908e-08)
(0.01099912047 6.545229067e-11 9.886419585e-09)
(0.0109992053 -5.168038599e-11 8.728721936e-09)
(0.01099927063 -1.220545209e-09 8.469268065e-09)
(0.01099933442 -1.008761349e-09 6.767972261e-09)
(0.01099899676 -5.920626927e-07 5.902848972e-07)
(0.01099820082 -1.049583506e-07 1.048000028e-07)
(0.01099845002 -1.075516692e-07 1.050260339e-07)
(0.01099847294 -9.261372876e-08 9.221872434e-08)
(0.01099857924 -6.150699422e-08 6.412265813e-08)
(0.01099871374 -4.406400121e-08 4.554696281e-08)
(0.01099883974 -3.244662018e-08 3.191861234e-08)
(0.01099895515 -2.276627993e-08 2.435220645e-08)
(0.0109990559 -1.686429007e-08 1.671084635e-08)
(0.01099914362 -1.227506187e-08 1.313757237e-08)
(0.01099921749 -1.029024208e-08 9.982240421e-09)
(0.01099928674 -9.240907882e-09 8.816923076e-09)
(0.0109993359 -8.532552869e-09 8.878235077e-09)
(0.01099938969 -6.692996268e-09 7.499843964e-09)
(0.01100009928 -1.053124943e-07 9.039356697e-08)
(0.01099956408 7.275565892e-08 5.537789732e-08)
(0.01099948871 -7.481045569e-10 6.381902365e-08)
(0.01099937712 -2.770476397e-08 5.526557409e-08)
(0.01099932573 -3.434276062e-08 4.164764277e-08)
(0.01099932107 -3.359468354e-08 3.169930393e-08)
(0.01099933519 -3.02124119e-08 2.333718478e-08)
(0.01099935657 -2.498232146e-08 1.754450362e-08)
(0.01099938753 -2.109390758e-08 1.303371227e-08)
(0.01099941834 -1.642214234e-08 9.992648904e-09)
(0.01099944257 -1.454520437e-08 9.285599018e-09)
(0.01099947628 -1.123480937e-08 8.672891135e-09)
(0.01099949673 -1.394527956e-08 7.720303952e-09)
(0.0109995213 -1.095447469e-08 6.657643929e-09)
(0.01100021629 6.05419251e-09 8.076333003e-09)
(0.01100001622 3.781700217e-08 2.222648416e-09)
(0.01099998011 3.148725081e-10 1.080267641e-08)
(0.01099989635 -1.68618219e-08 1.547846155e-08)
(0.01099983178 -2.040744266e-08 1.414966056e-08)
(0.0109997815 -2.422731902e-08 1.127890924e-08)
(0.0109997445 -2.285301525e-08 1.184710337e-08)
(0.01099971887 -2.147193003e-08 1.03264458e-08)
(0.01099969784 -1.742356388e-08 7.167883215e-09)
(0.01099968796 -1.47947939e-08 7.790265273e-09)
(0.0109996763 -1.336458796e-08 6.568633483e-09)
(0.01099967424 -1.082735023e-08 6.489481905e-09)
(0.01099966993 -1.128486882e-08 5.496752221e-09)
(0.010999666 -9.941644621e-09 5.210333723e-09)
(0.01100023854 -7.150515733e-09 -1.819432332e-08)
(0.01100016169 1.178470538e-08 -8.251581363e-09)
(0.0110001445 6.259736479e-09 -4.89113662e-10)
(0.01100009639 3.2390531e-11 5.583275737e-09)
(0.01100004273 -2.661088511e-09 6.053540486e-09)
(0.01099999662 -6.301160004e-09 5.320803825e-09)
(0.01099995108 -6.126709628e-09 6.620783658e-09)
(0.01099990997 -6.051000871e-09 5.855583743e-09)
(0.01099987333 -5.386552081e-09 5.143633154e-09)
(0.01099984041 -5.429863634e-09 3.300647703e-09)
(0.01099981796 -3.806475554e-09 4.498525949e-09)
(0.01099979605 -3.86669193e-09 5.146830151e-09)
(0.01099977699 -4.128843282e-09 5.522242575e-09)
(0.01099976077 -3.558873975e-09 5.742777508e-09)
(0.01100019426 -1.44852592e-07 -3.052551931e-10)
(0.01100031522 2.694724906e-08 -3.878776426e-10)
(0.01100016788 2.176997512e-09 1.571351676e-09)
(0.01100012784 7.979133675e-09 3.340396177e-10)
(0.01100006402 1.057204186e-08 -5.448837239e-11)
(0.01100000449 1.039199764e-08 -7.078463475e-10)
(0.01099994839 9.050242743e-09 -1.277690627e-09)
(0.01099990492 1.022070142e-08 -2.020564473e-09)
(0.01099986559 8.193100593e-09 -1.712062327e-09)
(0.0109998325 8.080005827e-09 -1.75233621e-09)
(0.01099980637 6.563277753e-09 -1.515878407e-09)
(0.01099978209 7.791890537e-09 -4.125282026e-10)
(0.01099976156 5.954511505e-09 -3.640355886e-11)
(0.01099974534 6.394260018e-09 2.278199814e-10)
(0.01099973001 5.91143068e-09 1.400260007e-09)
(0.01100024789 -7.023080164e-07 -4.069793235e-10)
(0.01100034887 7.4082799e-08 -1.192402585e-09)
(0.01099994367 3.381900485e-08 -1.219245834e-09)
(0.01099988051 5.462752936e-08 -1.655903208e-09)
(0.0109997931 5.375653085e-08 -1.020868302e-09)
(0.01099972893 4.261298184e-08 -1.33523674e-09)
(0.01099968875 3.447460704e-08 1.002794924e-09)
(0.01099966209 3.178960771e-08 -4.426317026e-10)
(0.01099964458 2.488285506e-08 -3.064983259e-09)
(0.01099963566 2.202214352e-08 -2.156431605e-09)
(0.01099963189 1.686247567e-08 1.287763057e-09)
(0.0109996269 1.567868454e-08 3.031835417e-10)
(0.01099962853 1.260633754e-08 2.474257275e-10)
(0.01099962991 1.213445448e-08 9.728301196e-10)
(0.01099963087 1.147394314e-08 6.163695933e-11)
(0.01100017993 -1.278222119e-06 1.009350267e-09)
(0.01100028045 5.881312283e-07 -2.219052304e-09)
(0.01099912043 6.977971507e-08 -1.65567828e-09)
(0.01099908662 9.508996801e-08 -5.949327408e-10)
(0.010999037 9.171516866e-08 -1.230107653e-09)
(0.01099905778 6.596761504e-08 -8.71453362e-12)
(0.0109991106 5.121501411e-08 -5.945848161e-10)
(0.01099916837 3.710830239e-08 2.759031799e-10)
(0.01099922426 2.930893539e-08 -1.423512663e-09)
(0.01099927755 2.360962665e-08 -1.641382011e-10)
(0.01099932747 1.902159514e-08 2.318949162e-10)
(0.01099936988 1.323096745e-08 -2.871959802e-10)
(0.01099941074 1.130356888e-08 -7.225404554e-11)
(0.0109994431 1.35166339e-08 -2.359864127e-10)
(0.01099947534 1.284991679e-08 1.855432997e-09)
(0.01099807188 -6.220696816e-06 -4.791513635e-10)
(0.01099798519 3.62041953e-06 2.515692657e-10)
(0.01099612797 9.798279268e-07 -1.069233861e-09)
(0.01099725997 4.296580098e-07 -1.487366716e-09)
(0.01099766661 2.448546258e-07 2.499693876e-11)
(0.01099802407 1.267470707e-07 5.940691595e-10)
(0.01099832871 7.050416774e-08 1.266439218e-10)
(0.01099856466 3.969178038e-08 -1.728436932e-09)
(0.01099875134 2.623167261e-08 -6.946973048e-11)
(0.01099890074 1.902768461e-08 -3.418646863e-10)
(0.01099902081 1.387709476e-08 -4.270525949e-10)
(0.01099912002 9.823232335e-09 2.012250934e-10)
(0.01099920611 1.011157657e-08 -1.828577289e-09)
(0.01099927027 9.800492845e-09 -4.599148968e-10)
(0.01099932983 8.122445781e-09 4.204107615e-10)
(0.01099572511 1.295700033e-09 -8.530533057e-11)
(0.01098892743 -4.675198273e-10 -1.945557942e-10)
(0.01099428073 -1.450480989e-10 -2.007783389e-09)
(0.0109961531 -2.291511265e-10 -6.527838395e-11)
(0.01099713709 8.859122102e-11 3.205304285e-10)
(0.01099778695 1.629188889e-10 -4.100137678e-10)
(0.01099820907 1.600248085e-09 -7.198998973e-10)
(0.01099850451 2.238719166e-09 -2.872129268e-10)
(0.0109987172 6.372435347e-10 2.051451422e-09)
(0.01099888225 -6.980064829e-10 1.109382713e-09)
(0.01099901124 2.774407838e-10 2.713209998e-10)
(0.01099911737 5.049167642e-10 -3.456998924e-10)
(0.01099919621 2.839189073e-10 2.57986827e-11)
(0.01099927711 1.443166163e-09 -2.006345191e-10)
(0.01099798776 -3.61939312e-06 -1.82387623e-09)
(0.01099612945 -9.788630937e-07 -4.463113301e-10)
(0.01099725864 -4.285174176e-07 -1.146598816e-09)
(0.01099766887 -2.440672707e-07 3.450429739e-10)
(0.01099802232 -1.2537829e-07 -1.03693079e-09)
(0.01099833044 -6.893914241e-08 -1.087280226e-09)
(0.01099856493 -4.103605052e-08 -9.437877289e-10)
(0.01099875024 -2.607864967e-08 -1.150556386e-09)
(0.01099890106 -1.898694299e-08 7.195162323e-10)
(0.01099901925 -1.319411232e-08 -7.148108607e-10)
(0.01099912006 -9.865261313e-09 7.225622908e-10)
(0.01099920611 -7.911364559e-09 2.173386917e-09)
(0.01099927207 -9.550869157e-09 1.6233124e-10)
(0.01099933211 -8.083003035e-09 -1.81763598e-10)
(0.0110002762 -5.867175725e-07 -9.501038274e-10)
(0.0109991195 -6.979152853e-08 -3.880563835e-11)
(0.01099908674 -9.333863924e-08 -2.520023218e-10)