/*--------------------------------*- C++ -*----------------------------------*\
| =========                 |                                                 |
| \\      /  F ield         | OpenFOAM: The Open Source CFD Toolbox           |
|  \\    /   O peration     | Version:  4.x                                   |
|   \\  /    A nd           | Web:      www.OpenFOAM.org                      |
|    \\/     M anipulation  |                                                 |
\*---------------------------------------------------------------------------*/
FoamFile
{
    version     2.0;
    format      ascii;
    class       volScalarField;
    location    "9000";
    object      X_H2;
}
// * * * * * * * * * * * * * * * * * * * * * * * * * * * * * * * * * * * * * //

dimensions      [0 0 0 0 0 0 0];

internalField   nonuniform List<scalar> 
1174
(
0.02997670873
0.02997628772
0.02997569419
0.02997492127
0.02997397771
0.02997288484
0.02997167217
0.02997037305
0.02996902113
0.02996764794
0.02996628253
0.02996495564
0.02996372152
0.02996275328
0.02997631403
0.02997564055
0.02997474521
0.02997364942
0.02997239149
0.02997101754
0.02996957411
0.02996810342
0.0299666409
0.02996521463
0.02996384668
0.0299625583
0.02996139037
0.02996049019
0.02997544319
0.02997425514
0.02997278779
0.02997112468
0.02996935565
0.02996756098
0.02996580391
0.02996412919
0.02996256502
0.02996112648
0.0299598197
0.02995864823
0.02995763033
0.02995686937
0.02997416916
0.02997232639
0.02997021481
0.02996798958
0.02996577936
0.02996367604
0.02996173659
0.02995998991
0.02995844459
0.02995709589
0.02995593151
0.02995493766
0.029954112
0.02995351558
0.02997326115
0.02997105975
0.02996866272
0.02996623939
0.02996391162
0.02996175672
0.02995981627
0.02995810576
0.02995662303
0.02995535496
0.02995428276
0.02995338701
0.02995265841
0.02995214107
0.02997416918
0.02997232642
0.02997021484
0.02996798962
0.02996577941
0.02996367609
0.02996173664
0.02995998996
0.02995844464
0.02995709594
0.02995593157
0.02995493772
0.02995411206
0.02995351563
0.02997544321
0.02997425517
0.02997278783
0.02997112472
0.0299693557
0.02996756104
0.02996580397
0.02996412926
0.0299625651
0.02996112656
0.02995981979
0.02995864832
0.02995763042
0.02995686946
0.02997631404
0.02997564057
0.02997474524
0.02997364945
0.02997239153
0.02997101759
0.02996957417
0.02996810349
0.02996664097
0.02996521472
0.02996384678
0.0299625584
0.02996139048
0.02996049031
0.02997670874
0.02997628773
0.02997569421
0.02997492129
0.02997397774
0.02997288488
0.02997167221
0.02997037311
0.02996902119
0.02996764802
0.02996628261
0.02996495573
0.02996372162
0.02996275339
0.02997676952
0.02997631403
0.02997564056
0.02997474522
0.02997364943
0.0299723915
0.02997101755
0.02996957413
0.02996810344
0.02996664091
0.02996521465
0.0299638467
0.02996255832
0.02996139039
0.02996049021
0.02997542578
0.02997424598
0.02997280992
0.0299712046
0.02996951689
0.02996781957
0.02996616658
0.02996459367
0.02996312178
0.02996176101
0.02996051483
0.02995938619
0.02995839471
0.02995764673
0.02997319396
0.02997090702
0.02996842644
0.02996596251
0.02996365839
0.02996159132
0.02995978853
0.0299582452
0.02995693905
0.02995584052
0.02995491922
0.02995414896
0.02995351721
0.02995306365
0.02996923408
0.02996543911
0.02996183919
0.02995870241
0.02995612042
0.02995407836
0.02995251029
0.02995133387
0.02995046874
0.02994984461
0.02994940357
0.02994909964
0.02994889793
0.02994877879
0.02996550536
0.0299609455
0.02995709221
0.0299540436
0.02995173583
0.02995004833
0.02994885377
0.02994803841
0.02994750811
0.02994718819
0.02994702064
0.02994696048
0.0299469703
0.02994700951
0.02996923411
0.02996543915
0.02996183923
0.02995870246
0.02995612047
0.02995407841
0.02995251034
0.02995133392
0.0299504688
0.02994984467
0.02994940362
0.0299490997
0.02994889799
0.02994877885
0.02997319399
0.02997090706
0.02996842647
0.02996596255
0.02996365844
0.02996159137
0.02995978859
0.02995824527
0.02995693913
0.02995584059
0.0299549193
0.02995414905
0.02995351729
0.02995306374
0.02997542581
0.02997424601
0.02997280996
0.02997120465
0.02996951694
0.02996781964
0.02996616665
0.02996459375
0.02996312187
0.0299617611
0.02996051493
0.0299593863
0.02995839483
0.02995764685
0.02997631404
0.02997564057
0.02997474524
0.02997364946
0.02997239154
0.02997101759
0.02996957418
0.02996810351
0.02996664099
0.02996521473
0.0299638468
0.02996255843
0.0299613905
0.02996049033
0.02997629895
0.0299754432
0.02997425516
0.02997278781
0.0299711247
0.02996935568
0.02996756101
0.02996580394
0.02996412922
0.02996256505
0.02996112651
0.02995981974
0.02995864827
0.02995763036
0.0299568694
0.02997504433
0.02997319398
0.02997090705
0.02996842646
0.02996596254
0.02996365843
0.02996159135
0.02995978856
0.02995824523
0.02995693908
0.02995584054
0.02995491924
0.02995414899
0.02995351723
0.02995306367
0.02996661237
0.02996180116
0.02995745657
0.02995390513
0.02995121065
0.02994929123
0.02994800625
0.02994720749
0.02994676342
0.02994656752
0.02994653804
0.02994661368
0.0299467452
0.02994687534
0.02995199845
0.02994389659
0.02993833276
0.02993506926
0.02993355652
0.02993324441
0.02993369096
0.02993457708
0.02993568706
0.02993688196
0.02993807535
0.02993921195
0.02994023892
0.02994102448
0.02993289466
0.0299248635
0.02992145168
0.02992089258
0.02992192902
0.02992377196
0.02992595523
0.02992821455
0.02993040645
0.02993245799
0.02993433574
0.02993602345
0.02993749025
0.02993858616
0.02995199864
0.02994389679
0.02993833294
0.02993506942
0.02993355666
0.02993324454
0.02993369108
0.02993457718
0.02993568716
0.02993688205
0.02993807543
0.02993921202
0.02994023899
0.02994102456
0.02996661251
0.02996180128
0.02995745669
0.02995390525
0.02995121078
0.02994929136
0.02994800638
0.02994720762
0.02994676355
0.02994656765
0.02994653817
0.02994661381
0.02994674532
0.02994687547
0.02997319401
0.02997090708
0.02996842651
0.02996596259
0.02996365849
0.02996159143
0.02995978865
0.02995824532
0.02995693918
0.02995584065
0.02995491936
0.02995414911
0.02995351736
0.0299530638
0.02997544321
0.02997425517
0.02997278784
0.02997112474
0.02996935572
0.02996756107
0.02996580401
0.02996412931
0.02996256515
0.02996112662
0.02995981986
0.02995864839
0.0299576305
0.02995686954
0.02997559329
0.02997416918
0.02997232642
0.02997021485
0.02996798962
0.02996577941
0.02996367609
0.02996173665
0.02995998996
0.02995844464
0.02995709594
0.02995593156
0.02995493771
0.02995411205
0.02995351562
0.02997273274
0.0299692341
0.02996543915
0.02996183923
0.02995870245
0.02995612046
0.0299540784
0.02995251033
0.02995133391
0.02995046878
0.02994984465
0.0299494036
0.02994909967
0.02994889796
0.02994877882
0.02996191725
0.02995199848
0.02994389665
0.02993833281
0.02993506931
0.02993355655
0.02993324444
0.02993369099
0.0299345771
0.02993568708
0.02993688198
0.02993807536
0.02993921196
0.02994023893
0.0299410245
0.0299019697
0.02989183919
0.02989024155
0.02989324739
0.02989829393
0.02990394013
0.02990945882
0.02991452805
0.02991903888
0.02992298615
0.02992640867
0.02992935271
0.02993182465
0.02993362875
0.02980395482
0.02981694274
0.02983673783
0.0298556669
0.02987172513
0.02988480961
0.02989535494
0.02990386728
0.02991078606
0.0299164586
0.02992114834
0.02992504347
0.02992823238
0.02993052259
0.02990197029
0.0298918396
0.02989024187
0.02989324765
0.02989829415
0.02990394032
0.02990945898
0.02991452819
0.02991903901
0.02992298626
0.02992640878
0.02992935281
0.02993182474
0.02993362884
0.02995199862
0.02994389681
0.029938333
0.02993506951
0.02993355676
0.02993324464
0.02993369119
0.02993457729
0.02993568726
0.02993688215
0.02993807553
0.02993921212
0.02994023909
0.02994102465
0.02996923413
0.02996543919
0.02996183929
0.02995870254
0.02995612057
0.02995407852
0.02995251046
0.02995133405
0.02995046893
0.0299498448
0.02994940376
0.02994909983
0.02994889812
0.02994877898
0.02997416918
0.02997232643
0.02997021487
0.02996798966
0.02996577946
0.02996367616
0.02996173673
0.02995999006
0.02995844476
0.02995709607
0.0299559317
0.02995493785
0.02995411221
0.02995351578
0.02997506485
0.02997326116
0.02997105978
0.02996866276
0.02996623942
0.02996391166
0.02996175677
0.02995981632
0.02995810581
0.02995662308
0.02995535502
0.02995428281
0.02995338706
0.02995265846
0.02995214112
0.02997032505
0.02996550536
0.02996094553
0.02995709224
0.02995404363
0.02995173587
0.02995004837
0.02994885381
0.02994803845
0.02994750816
0.02994718823
0.02994702068
0.02994696052
0.02994697034
0.02994700954
0.02994722577
0.02993289456
0.02992486351
0.02992145172
0.02992089263
0.02992192908
0.02992377203
0.0299259553
0.02992821461
0.02993040651
0.02993245805
0.0299343358
0.0299360235
0.0299374903
0.02993858621
0.02982121413
0.02980395508
0.02981694298
0.02983673804
0.02985566708
0.02987172527
0.02988480973
0.02989535503
0.02990386736
0.02991078612
0.02991645866
0.02992114839
0.02992504351
0.02992823241
0.02993052262
0.02938231658
0.02959750683
0.02971644706
0.02978598452
0.02982901525
0.02985714766
0.0298764953
0.02989040836
0.02990079896
0.02990880378
0.02991512412
0.02992019787
0.02992425077
0.02992711663
0.02980395477
0.02981694331
0.02983673838
0.02985566736
0.0298717255
0.02988480992
0.02989535519
0.0299038675
0.02991078625
0.02991645877
0.02992114849
0.02992504361
0.0299282325
0.02993052271
0.02993289472
0.02992486375
0.029921452
0.0299208929
0.02992192933
0.02992377225
0.0299259555
0.0299282148
0.02993040668
0.02993245821
0.02993433595
0.02993602365
0.02993749044
0.02993858635
0.02996550541
0.02996094561
0.02995709236
0.02995404378
0.02995173604
0.02995004855
0.029948854
0.02994803863
0.02994750834
0.02994718841
0.02994702087
0.0299469607
0.02994697052
0.02994700973
0.02997326117
0.0299710598
0.0299686628
0.02996623949
0.02996391175
0.02996175688
0.02995981645
0.02995810595
0.02995662323
0.02995535518
0.02995428298
0.02995338724
0.02995265864
0.02995214131
0.02997559329
0.02997416919
0.02997232644
0.02997021487
0.02996798965
0.02996577945
0.02996367613
0.02996173669
0.02995999001
0.02995844469
0.02995709599
0.02995593162
0.02995493776
0.02995411211
0.02995351568
0.02997273277
0.02996923415
0.02996543921
0.0299618393
0.02995870253
0.02995612053
0.02995407847
0.0299525104
0.02995133398
0.02995046885
0.02994984472
0.02994940368
0.02994909975
0.02994889804
0.02994877889
0.02996191745
0.02995199868
0.02994389687
0.02993833303
0.0299350695
0.02993355674
0.02993324461
0.02993369115
0.02993457725
0.02993568723
0.02993688211
0.02993807549
0.02993921208
0.02994023905
0.02994102461
0.02992487184
0.02990197064
0.02989183996
0.02989024216
0.02989324787
0.02989829432
0.02990394045
0.02990945909
0.02991452828
0.02991903908
0.02992298632
0.02992640883
0.02992935286
0.02993182478
0.02993362888
0.02982121445
0.02980395539
0.02981694369
0.02983673859
0.02985566748
0.02987172556
0.02988480996
0.02989535521
0.02990386752
0.02991078626
0.02991645878
0.02992114849
0.02992504361
0.0299282325
0.02993052271
0.02992487178
0.02990197079
0.02989184016
0.02989024236
0.02989324806
0.02989829449
0.0299039406
0.02990945922
0.0299145284
0.0299190392
0.02992298643
0.02992640893
0.02992935295
0.02993182487
0.02993362896
0.02995199849
0.02994389685
0.02993833311
0.02993506965
0.02993355691
0.02993324479
0.02993369133
0.02993457743
0.0299356874
0.02993688228
0.02993807565
0.02993921223
0.02994023919
0.02994102475
0.0299692341
0.02996543919
0.02996183932
0.02995870259
0.02995612063
0.02995407859
0.02995251054
0.02995133413
0.02995046901
0.02994984488
0.02994940384
0.02994909992
0.02994889821
0.02994877906
0.02997416918
0.02997232644
0.02997021489
0.02996798969
0.0299657795
0.02996367621
0.02996173679
0.02995999013
0.02995844482
0.02995709613
0.02995593177
0.02995493793
0.02995411228
0.02995351586
0.02997629896
0.02997544322
0.02997425518
0.02997278785
0.02997112474
0.02996935573
0.02996756107
0.02996580401
0.0299641293
0.02996256513
0.0299611266
0.02995981983
0.02995864836
0.02995763046
0.0299568695
0.02997504436
0.02997319401
0.02997090709
0.02996842651
0.0299659626
0.02996365849
0.02996159142
0.02995978864
0.02995824531
0.02995693917
0.02995584064
0.02995491935
0.02995414909
0.02995351734
0.02995306378
0.02997121042
0.02996661252
0.02996180131
0.02995745672
0.02995390528
0.02995121082
0.0299492914
0.02994800642
0.02994720766
0.0299467636
0.0299465677
0.02994653822
0.02994661385
0.02994674537
0.02994687551
0.02996191751
0.0299519988
0.02994389703
0.0299383332
0.02993506969
0.02993355691
0.02993324478
0.0299336913
0.02993457739
0.02993568735
0.02993688223
0.0299380756
0.02993921218
0.02994023914
0.0299410247
0.02994722609
0.0299328951
0.0299248641
0.02992145228
0.02992089312
0.0299219295
0.02992377238
0.02992595561
0.02992821488
0.02993040675
0.02993245827
0.029934336
0.02993602369
0.02993749047
0.02993858638
0.02996191754
0.02995199886
0.0299438971
0.02993833329
0.02993506978
0.029933557
0.02993324487
0.02993369139
0.02993457748
0.02993568743
0.02993688231
0.02993807568
0.02993921226
0.02994023921
0.02994102477
0.02997121039
0.02996661252
0.02996180135
0.0299574568
0.02995390539
0.02995121094
0.02994929153
0.02994800656
0.0299472078
0.02994676373
0.02994656783
0.02994653835
0.02994661398
0.02994674549
0.02994687563
0.02997319398
0.02997090709
0.02996842654
0.02996596265
0.02996365857
0.02996159152
0.02995978876
0.02995824544
0.02995693931
0.02995584078
0.02995491949
0.02995414925
0.02995351749
0.02995306394
0.0299754432
0.02997425517
0.02997278784
0.02997112475
0.02996935575
0.02996756111
0.02996580407
0.02996412937
0.02996256522
0.0299611267
0.02995981995
0.02995864849
0.0299576306
0.02995686965
0.02997676952
0.02997631405
0.02997564058
0.02997474525
0.02997364946
0.02997239154
0.0299710176
0.02996957419
0.02996810351
0.02996664099
0.02996521473
0.0299638468
0.02996255843
0.0299613905
0.02996049033
0.02997628693
0.02997542582
0.02997424602
0.02997280997
0.02997120467
0.02996951696
0.02996781966
0.02996616667
0.02996459378
0.0299631219
0.02996176113
0.02996051496
0.02995938633
0.02995839485
0.02995764688
0.02997504436
0.02997319402
0.02997090711
0.02996842654
0.02996596263
0.02996365852
0.02996159146
0.02995978868
0.02995824536
0.02995693922
0.02995584069
0.0299549194
0.02995414915
0.02995351739
0.02995306384
0.02997273279
0.02996923419
0.02996543928
0.02996183939
0.02995870263
0.02995612066
0.0299540786
0.02995251054
0.02995133412
0.02995046899
0.02994984486
0.02994940381
0.02994909988
0.02994889817
0.02994877903
0.02997032513
0.02996550551
0.02996094573
0.02995709249
0.0299540439
0.02995173614
0.02995004864
0.02994885408
0.02994803871
0.02994750841
0.02994718847
0.02994702092
0.02994696075
0.02994697056
0.02994700977
0.0299727328
0.02996923422
0.02996543931
0.02996183943
0.02995870268
0.02995612071
0.02995407866
0.0299525106
0.02995133418
0.02995046905
0.02994984492
0.02994940388
0.02994909995
0.02994889823
0.02994877909
0.02997504437
0.02997319404
0.02997090713
0.02996842658
0.02996596268
0.02996365859
0.02996159155
0.02995978877
0.02995824546
0.02995693932
0.0299558408
0.0299549195
0.02995414926
0.0299535175
0.02995306395
0.02997628692
0.02997542581
0.02997424602
0.02997280999
0.0299712047
0.029969517
0.02996781971
0.02996616674
0.02996459386
0.02996312199
0.02996176123
0.02996051507
0.02995938645
0.02995839498
0.02995764701
0.02997631403
0.02997564057
0.02997474524
0.02997364947
0.02997239156
0.02997101763
0.02996957423
0.02996810356
0.02996664106
0.02996521481
0.02996384689
0.02996255853
0.02996139061
0.02996049045
0.02997697996
0.02997670874
0.02997628774
0.02997569422
0.0299749213
0.02997397775
0.02997288489
0.02997167223
0.02997037313
0.02996902121
0.02996764804
0.02996628263
0.02996495575
0.02996372165
0.02996275341
0.02997676952
0.02997631405
0.02997564058
0.02997474525
0.02997364947
0.02997239155
0.02997101761
0.0299695742
0.02996810352
0.02996664101
0.02996521475
0.02996384681
0.02996255845
0.02996139052
0.02996049035
0.02997629896
0.02997544322
0.02997425519
0.02997278786
0.02997112476
0.02996935575
0.0299675611
0.02996580404
0.02996412934
0.02996256518
0.02996112665
0.02995981989
0.02995864842
0.02995763053
0.02995686957
0.0299755933
0.0299741692
0.02997232646
0.02997021491
0.02996798971
0.02996577951
0.02996367621
0.02996173678
0.02995999011
0.0299584448
0.02995709611
0.02995593174
0.02995493789
0.02995411224
0.02995351582
0.02997506487
0.02997326121
0.02997105985
0.02996866285
0.02996623955
0.0299639118
0.02996175693
0.0299598165
0.029958106
0.02995662327
0.02995535522
0.02995428302
0.02995338727
0.02995265867
0.02995214134
0.0299755933
0.02997416921
0.02997232647
0.02997021492
0.02996798972
0.02996577953
0.02996367624
0.02996173681
0.02995999015
0.02995844484
0.02995709615
0.02995593179
0.02995493794
0.02995411229
0.02995351587
0.02997629896
0.02997544323
0.0299742552
0.02997278787
0.02997112478
0.02996935578
0.02996756114
0.02996580409
0.02996412939
0.02996256524
0.02996112672
0.02995981996
0.0299586485
0.02995763062
0.02995686966
0.02997676953
0.02997631405
0.02997564058
0.02997474526
0.02997364949
0.02997239158
0.02997101765
0.02996957425
0.02996810358
0.02996664108
0.02996521483
0.02996384691
0.02996255855
0.02996139063
0.02996049047
0.02997697995
0.02997670874
0.02997628773
0.02997569422
0.02997492131
0.02997397776
0.02997288491
0.02997167226
0.02997037317
0.02996902127
0.0299676481
0.02996628271
0.02996495584
0.02996372175
0.02996275352
)
;

boundaryField
{
    top
    {
        type            calculated;
        value           nonuniform List<scalar> 
127
(
0.02997697995
0.02997670874
0.02997631404
0.02997544321
0.02997416918
0.02997326117
0.02997416918
0.0299754432
0.02997631403
0.02997670874
0.02997628773
0.02997564057
0.02997425517
0.02997232643
0.0299710598
0.02997232644
0.02997425517
0.02997564057
0.02997628773
0.02997569421
0.02997474524
0.02997278784
0.02997021487
0.0299686628
0.02997021489
0.02997278784
0.02997474524
0.02997569422
0.02997492129
0.02997364946
0.02997112474
0.02996798966
0.02996623949
0.02996798969
0.02997112475
0.02997364947
0.02997492131
0.02997397774
0.02997239154
0.02996935572
0.02996577946
0.02996391175
0.0299657795
0.02996935575
0.02997239156
0.02997397776
0.02997288488
0.02997101759
0.02996756107
0.02996367616
0.02996175688
0.02996367621
0.02996756111
0.02997101763
0.02997288491
0.02997167221
0.02996957418
0.02996580401
0.02996173673
0.02995981645
0.02996173679
0.02996580407
0.02996957423
0.02997167226
0.02997037311
0.02996810351
0.02996412931
0.02995999006
0.02995810595
0.02995999013
0.02996412937
0.02996810356
0.02997037317
0.02996902119
0.02996664099
0.02996256515
0.02995844476
0.02995662323
0.02995844482
0.02996256522
0.02996664106
0.02996902127
0.02996764802
0.02996521473
0.02996112662
0.02995709607
0.02995535518
0.02995709613
0.0299611267
0.02996521481
0.0299676481
0.02996628261
0.0299638468
0.02995981986
0.0299559317
0.02995428298
0.02995593177
0.02995981995
0.02996384689
0.02996628271
0.02996495573
0.02996255843
0.02995864839
0.02995493785
0.02995338724
0.02995493793
0.02995864849
0.02996255853
0.02996495584
0.02996372162
0.0299613905
0.0299576305
0.02995411221
0.02995265864
0.02995411228
0.0299576306
0.02996139061
0.02996372175
0.02996275339
0.02996049033
0.02995686954
0.02995351578
0.02995214131
0.02995351586
0.02995686965
0.02996049045
0.02996275352
)
;
    }
    bottom
    {
        type            calculated;
        value           nonuniform List<scalar> 
134
(
0.02997676952
0.02997629895
0.02997559329
0.02997506485
0.02997559329
0.02997629896
0.02997676952
0.02997697996
0.02997670873
0.02997631403
0.0299754432
0.02997416918
0.02997326116
0.02997416919
0.02997544322
0.02997631405
0.02997670874
0.02997628772
0.02997564056
0.02997425516
0.02997232642
0.02997105978
0.02997232644
0.02997425518
0.02997564058
0.02997628774
0.02997569419
0.02997474522
0.02997278781
0.02997021485
0.02996866276
0.02997021487
0.02997278785
0.02997474525
0.02997569422
0.02997492127
0.02997364943
0.0299711247
0.02996798962
0.02996623942
0.02996798965
0.02997112474
0.02997364946
0.0299749213
0.02997397771
0.0299723915
0.02996935568
0.02996577941
0.02996391166
0.02996577945
0.02996935573
0.02997239154
0.02997397775
0.02997288484
0.02997101755
0.02996756101
0.02996367609
0.02996175677
0.02996367613
0.02996756107
0.0299710176
0.02997288489
0.02997167217
0.02996957413
0.02996580394
0.02996173665
0.02995981632
0.02996173669
0.02996580401
0.02996957419
0.02997167223
0.02997037305
0.02996810344
0.02996412922
0.02995998996
0.02995810581
0.02995999001
0.0299641293
0.02996810351
0.02997037313
0.02996902113
0.02996664091
0.02996256505
0.02995844464
0.02995662308
0.02995844469
0.02996256513
0.02996664099
0.02996902121
0.02996764794
0.02996521465
0.02996112651
0.02995709594
0.02995535502
0.02995709599
0.0299611266
0.02996521473
0.02996764804
0.02996628253
0.0299638467
0.02995981974
0.02995593156
0.02995428281
0.02995593162
0.02995981983
0.0299638468
0.02996628263
0.02996495564
0.02996255832
0.02995864827
0.02995493771
0.02995338706
0.02995493776
0.02995864836
0.02996255843
0.02996495575
0.02996372152
0.02996139039
0.02995763036
0.02995411205
0.02995265846
0.02995411211
0.02995763046
0.0299613905
0.02996372165
0.02996275328
0.02996049021
0.0299568694
0.02995351562
0.02995214112
0.02995351568
0.0299568695
0.02996049033
0.02996275341
)
;
    }
    side-walls
    {
        type            calculated;
        value           nonuniform List<scalar> 
261
(
0.02997670873
0.02997631403
0.02997544319
0.02997416916
0.02997326115
0.02997416918
0.02997544321
0.02997631404
0.02997670874
0.02997628772
0.02997564055
0.02997425514
0.02997232639
0.02997105975
0.02997232642
0.02997425517
0.02997564057
0.02997628773
0.02997569419
0.02997474521
0.02997278779
0.02997021481
0.02996866272
0.02997021484
0.02997278783
0.02997474524
0.02997569421
0.02997492127
0.02997364942
0.02997112468
0.02996798958
0.02996623939
0.02996798962
0.02997112472
0.02997364945
0.02997492129
0.02997397771
0.02997239149
0.02996935565
0.02996577936
0.02996391162
0.02996577941
0.0299693557
0.02997239153
0.02997397774
0.02997288484
0.02997101754
0.02996756098
0.02996367604
0.02996175672
0.02996367609
0.02996756104
0.02997101759
0.02997288488
0.02997167217
0.02996957411
0.02996580391
0.02996173659
0.02995981627
0.02996173664
0.02996580397
0.02996957417
0.02997167221
0.02997037305
0.02996810342
0.02996412919
0.02995998991
0.02995810576
0.02995998996
0.02996412926
0.02996810349
0.02997037311
0.02996902113
0.0299666409
0.02996256502
0.02995844459
0.02995662303
0.02995844464
0.0299625651
0.02996664097
0.02996902119
0.02996764794
0.02996521463
0.02996112648
0.02995709589
0.02995535496
0.02995709594
0.02996112656
0.02996521472
0.02996764802
0.02996628253
0.02996384668
0.0299598197
0.02995593151
0.02995428276
0.02995593157
0.02995981979
0.02996384678
0.02996628261
0.02996495564
0.0299625583
0.02995864823
0.02995493766
0.02995338701
0.02995493772
0.02995864832
0.0299625584
0.02996495573
0.02996372152
0.02996139037
0.02995763033
0.029954112
0.02995265841
0.02995411206
0.02995763042
0.02996139048
0.02996372162
0.02996275328
0.02996049019
0.02995686937
0.02995351558
0.02995214107
0.02995351563
0.02995686946
0.02996049031
0.02996275339
0.02997697996
0.02997676952
0.02997629896
0.0299755933
0.02997506487
0.0299755933
0.02997629896
0.02997676953
0.02997697995
0.02997670874
0.02997631405
0.02997544322
0.0299741692
0.02997326121
0.02997416921
0.02997544323
0.02997631405
0.02997670874
0.02997628774
0.02997564058
0.02997425519
0.02997232646
0.02997105985
0.02997232647
0.0299742552
0.02997564058
0.02997628773
0.02997569422
0.02997474525
0.02997278786
0.02997021491
0.02996866285
0.02997021492
0.02997278787
0.02997474526
0.02997569422
0.0299749213
0.02997364947
0.02997112476
0.02996798971
0.02996623955
0.02996798972
0.02997112478
0.02997364949
0.02997492131
0.02997397775
0.02997239155
0.02996935575
0.02996577951
0.0299639118
0.02996577953
0.02996935578
0.02997239158
0.02997397776
0.02997288489
0.02997101761
0.0299675611
0.02996367621
0.02996175693
0.02996367624
0.02996756114
0.02997101765
0.02997288491
0.02997167223
0.0299695742
0.02996580404
0.02996173678
0.0299598165
0.02996173681
0.02996580409
0.02996957425
0.02997167226
0.02997037313
0.02996810352
0.02996412934
0.02995999011
0.029958106
0.02995999015
0.02996412939
0.02996810358
0.02997037317
0.02996902121
0.02996664101
0.02996256518
0.0299584448
0.02995662327
0.02995844484
0.02996256524
0.02996664108
0.02996902127
0.02996764804
0.02996521475
0.02996112665
0.02995709611
0.02995535522
0.02995709615
0.02996112672
0.02996521483
0.0299676481
0.02996628263
0.02996384681
0.02995981989
0.02995593174
0.02995428302
0.02995593179
0.02995981996
0.02996384691
0.02996628271
0.02996495575
0.02996255845
0.02995864842
0.02995493789
0.02995338727
0.02995493794
0.0299586485
0.02996255855
0.02996495584
0.02996372165
0.02996139052
0.02995763053
0.02995411224
0.02995265867
0.02995411229
0.02995763062
0.02996139063
0.02996372175
0.02996275341
0.02996049035
0.02995686957
0.02995351582
0.02995214134
0.02995351587
0.02995686966
0.02996049047
0.02996275352
)
;
    }
    inlet
    {
        type            calculated;
        value           nonuniform 0();
    }
    outlet
    {
        type            calculated;
        value           nonuniform List<scalar> 
81
(
0.02996275328
0.02996049019
0.02995686937
0.02995351558
0.02995214107
0.02995351563
0.02995686946
0.02996049031
0.02996275339
0.02996049021
0.02995764673
0.02995306365
0.02994877879
0.02994700951
0.02994877885
0.02995306374
0.02995764685
0.02996049033
0.0299568694
0.02995306367
0.02994687534
0.02994102448
0.02993858616
0.02994102456
0.02994687547
0.0299530638
0.02995686954
0.02995351562
0.02994877882
0.0299410245
0.02993362875
0.02993052259
0.02993362884
0.02994102465
0.02994877898
0.02995351578
0.02995214112
0.02994700954
0.02993858621
0.02993052262
0.02992711663
0.02993052271
0.02993858635
0.02994700973
0.02995214131
0.02995351568
0.02994877889
0.02994102461
0.02993362888
0.02993052271
0.02993362896
0.02994102475
0.02994877906
0.02995351586
0.0299568695
0.02995306378
0.02994687551
0.0299410247
0.02993858638
0.02994102477
0.02994687563
0.02995306394
0.02995686965
0.02996049033
0.02995764688
0.02995306384
0.02994877903
0.02994700977
0.02994877909
0.02995306395
0.02995764701
0.02996049045
0.02996275341
0.02996049035
0.02995686957
0.02995351582
0.02995214134
0.02995351587
0.02995686966
0.02996049047
0.02996275352
)
;
    }
    procBoundary1to0
    {
        type            processor;
        value           nonuniform List<scalar> 
97
(
0.02997697995
0.02997697995
0.02997676952
0.02997629895
0.0299755933
0.02997506487
0.02997559331
0.02997629897
0.02997676953
0.02997697996
0.02997703926
0.02997628692
0.02997628692
0.02997628692
0.02997504435
0.02997273279
0.02997032514
0.02997273281
0.02997504438
0.02997628694
0.02997676953
0.02997682578
0.02997627439
0.02997121036
0.02997121036
0.02997121036
0.02996191745
0.02994722616
0.02996191764
0.02997121051
0.02997504439
0.02997629897
0.02997651345
0.02997530366
0.02997107887
0.02992487118
0.02992487118
0.02992487118
0.02982121546
0.02992487215
0.02996191761
0.02997273282
0.02997559331
0.02997629083
0.02997438948
0.02996639595
0.02993481051
0.02897065712
0.02897065712
0.02897065712
0.02982121515
0.02982121515
0.02994722617
0.02997032516
0.02997506489
0.02997651345
0.02997530366
0.02997107888
0.02995881899
0.02993481059
0.02995881904
0.02996191735
0.02996191735
0.02996191735
0.02997273278
0.02997559331
0.02997682578
0.02997627439
0.02997466101
0.0299710789
0.02996639608
0.02997107892
0.02997466102
0.02997504434
0.02997504434
0.02997504434
0.02997629895
0.02997703926
0.02997682151
0.02997627439
0.02997530367
0.02997438951
0.02997530368
0.0299762744
0.02997682151
0.02997676952
0.02997676952
0.02997676952
0.02997713602
0.02997703926
0.02997682578
0.02997651345
0.02997629083
0.02997651345
0.02997682578
0.02997703926
0.02997713602
)
;
    }
}


// ************************************************************************* //
