/*--------------------------------*- C++ -*----------------------------------*\
| =========                 |                                                 |
| \\      /  F ield         | OpenFOAM: The Open Source CFD Toolbox           |
|  \\    /   O peration     | Version:  4.x                                   |
|   \\  /    A nd           | Web:      www.OpenFOAM.org                      |
|    \\/     M anipulation  |                                                 |
\*---------------------------------------------------------------------------*/
FoamFile
{
    version     2.0;
    format      ascii;
    class       volScalarField;
    location    "9000";
    object      X_H2O;
}
// * * * * * * * * * * * * * * * * * * * * * * * * * * * * * * * * * * * * * //

dimensions      [0 0 0 0 0 0 0];

internalField   nonuniform List<scalar> 
1174
(
2.113336439e-06
2.534432055e-06
3.1280853e-06
3.901183681e-06
4.84497045e-06
5.938130927e-06
7.151151712e-06
8.450675143e-06
9.803071191e-06
1.117678273e-05
1.254277268e-05
1.387026984e-05
1.510500203e-05
1.607374707e-05
2.508113702e-06
3.181710904e-06
4.07721757e-06
5.173235923e-06
6.431451872e-06
7.805755429e-06
9.249592018e-06
1.072075231e-05
1.218380547e-05
1.361064869e-05
1.497921324e-05
1.626823414e-05
1.743680328e-05
1.833749086e-05
3.379078959e-06
4.567297138e-06
6.034875223e-06
7.698286086e-06
9.467683954e-06
1.126279162e-05
1.302036285e-05
1.469563635e-05
1.626040541e-05
1.769958686e-05
1.900702277e-05
2.017917516e-05
2.119773537e-05
2.19592233e-05
4.653225551e-06
6.496197861e-06
8.608060288e-06
1.083365338e-05
1.304431442e-05
1.514814884e-05
1.70881708e-05
1.88354768e-05
2.038145264e-05
2.173083883e-05
2.289591286e-05
2.389047191e-05
2.471680045e-05
2.531375056e-05
5.561258635e-06
7.762860591e-06
1.016019118e-05
1.258392014e-05
1.49121614e-05
1.706760009e-05
1.90086474e-05
2.071979873e-05
2.220320705e-05
2.34719654e-05
2.454487696e-05
2.54413328e-05
2.617060943e-05
2.668846969e-05
4.653193072e-06
6.496151537e-06
8.607996864e-06
1.083356931e-05
1.304421075e-05
1.514801909e-05
1.708801949e-05
1.883530045e-05
2.038125874e-05
2.173062265e-05
2.289567859e-05
2.38902212e-05
2.471653564e-05
2.5313475e-05
3.379039135e-06
4.567243438e-06
6.034804027e-06
7.698192372e-06
9.46755925e-06
1.126263111e-05
1.302016312e-05
1.469539531e-05
1.626012247e-05
1.769926242e-05
1.900666189e-05
2.017877829e-05
2.119730473e-05
2.195876123e-05
2.508079981e-06
3.181669734e-06
4.077164626e-06
5.173163781e-06
6.431353068e-06
7.805620846e-06
9.249414467e-06
1.072052838e-05
1.218353072e-05
1.36103204e-05
1.497882933e-05
1.626779807e-05
1.743631432e-05
1.833695389e-05
2.113312827e-06
2.534407162e-06
3.128053924e-06
3.901139832e-06
4.844905144e-06
5.938034844e-06
7.151016291e-06
8.450492347e-06
9.802833396e-06
1.117648442e-05
1.254241007e-05
1.386984092e-05
1.510450396e-05
1.607318049e-05
2.052518075e-06
2.50808816e-06
3.181685074e-06
4.077190493e-06
5.173206791e-06
6.431420457e-06
7.805722429e-06
9.249557252e-06
1.072071775e-05
1.218377218e-05
1.361061669e-05
1.497917898e-05
1.626820154e-05
1.743677127e-05
1.833746046e-05
3.396506588e-06
4.576462719e-06
6.012733211e-06
7.618338027e-06
9.306414015e-06
1.100415537e-05
1.265763923e-05
1.423108734e-05
1.570356421e-05
1.706496335e-05
1.831179686e-05
1.94410982e-05
2.043322708e-05
2.118171453e-05
5.628564922e-06
7.915706076e-06
1.039658714e-05
1.286089622e-05
1.516548214e-05
1.723309096e-05
1.903646947e-05
2.058043345e-05
2.188724227e-05
2.298645792e-05
2.390844665e-05
2.467939304e-05
2.531181014e-05
2.576586899e-05
9.588586734e-06
1.338378894e-05
1.698408852e-05
2.012135299e-05
2.270392389e-05
2.474662943e-05
2.631538258e-05
2.749250947e-05
2.835835466e-05
2.898320819e-05
2.942497001e-05
2.972959887e-05
2.993196873e-05
3.005159617e-05
1.331714936e-05
1.787725758e-05
2.173098479e-05
2.478015943e-05
2.708857347e-05
2.877677557e-05
2.997206669e-05
3.078817034e-05
3.131920221e-05
3.163986517e-05
3.180813257e-05
3.186900311e-05
3.185983845e-05
3.182111246e-05
9.588499183e-06
1.338368305e-05
1.698395794e-05
2.012119415e-05
2.270373366e-05
2.474641028e-05
2.631513301e-05
2.749223324e-05
2.83580579e-05
2.898289032e-05
2.94246395e-05
2.972925846e-05
2.993161594e-05
3.005123812e-05
5.628466244e-06
7.915603267e-06
1.039646525e-05
1.286074104e-05
1.516527889e-05
1.723283773e-05
1.903616526e-05
2.058007643e-05
2.188683333e-05
2.298600645e-05
2.39079596e-05
2.467887058e-05
2.531126079e-05
2.576528948e-05
3.396436258e-06
4.57639542e-06
6.012651106e-06
7.618224546e-06
9.3062559e-06
1.100394226e-05
1.265736652e-05
1.423075158e-05
1.570316527e-05
1.706450305e-05
1.831127765e-05
1.944052358e-05
2.043260195e-05
2.118104566e-05
2.508082404e-06
3.181670025e-06
4.077159675e-06
5.173149741e-06
6.431325885e-06
7.805578724e-06
9.249356174e-06
1.072044888e-05
1.218343126e-05
1.361019851e-05
1.49786862e-05
1.626763255e-05
1.743612979e-05
1.833674377e-05
2.523153392e-06
3.379014547e-06
4.567225742e-06
6.034797913e-06
7.698204333e-06
9.467597511e-06
1.126270202e-05
1.302027008e-05
1.469554277e-05
1.626031289e-05
1.769949621e-05
1.900693425e-05
2.017909117e-05
2.119765372e-05
2.195914345e-05
3.77798101e-06
5.628473643e-06
7.915622375e-06
1.039650566e-05
1.286081616e-05
1.516540145e-05
1.723301178e-05
1.903639536e-05
2.058035941e-05
2.188717199e-05
2.298639114e-05
2.390838534e-05
2.467933476e-05
2.53117575e-05
2.576581502e-05
1.221058058e-05
1.702195217e-05
2.136690633e-05
2.491886787e-05
2.761396668e-05
2.953407998e-05
3.081978413e-05
3.161928221e-05
3.206408506e-05
3.226071734e-05
3.229091189e-05
3.221596842e-05
3.208509583e-05
3.195542824e-05
2.682441247e-05
3.492639573e-05
4.049073372e-05
4.375496926e-05
4.5268561e-05
4.558155733e-05
4.513588594e-05
4.425062416e-05
4.314145611e-05
4.194733815e-05
4.075468662e-05
3.961878682e-05
3.85924426e-05
3.780732589e-05
4.592653439e-05
5.395812362e-05
5.737087606e-05
5.793108826e-05
5.689578372e-05
5.505392856e-05
5.287167069e-05
5.061329474e-05
4.842226554e-05
4.637153631e-05
4.449453517e-05
4.280752635e-05
4.134136148e-05
4.024589439e-05
2.68239299e-05
3.49259277e-05
4.049025659e-05
4.375447526e-05
4.526804613e-05
4.558103373e-05
4.513534965e-05
4.425007402e-05
4.314091637e-05
4.194680555e-05
4.075416228e-05
3.961827029e-05
3.859193849e-05
3.780682457e-05
1.221023664e-05
1.70216545e-05
2.136657388e-05
2.491846398e-05
2.761347553e-05
2.953351296e-05
3.08191531e-05
3.161860026e-05
3.206336695e-05
3.225997188e-05
3.229014577e-05
3.221519031e-05
3.208430795e-05
3.195462746e-05
5.62845702e-06
7.915569253e-06
1.039639631e-05
1.286063169e-05
1.51651286e-05
1.723264605e-05
1.903593724e-05
2.057981784e-05
2.188655201e-05
2.298570266e-05
2.390763733e-05
2.467853581e-05
2.53109102e-05
2.576492521e-05
3.379044621e-06
4.567235313e-06
6.034770579e-06
7.698120968e-06
9.467442797e-06
1.126246152e-05
1.301993866e-05
1.469511434e-05
1.625979084e-05
1.769888033e-05
1.900622975e-05
2.017830443e-05
2.119679064e-05
2.1958201e-05
3.228879705e-06
4.653118076e-06
6.496074557e-06
8.607924463e-06
1.083350612e-05
1.304416075e-05
1.514798737e-05
1.708800847e-05
1.883531388e-05
2.038129608e-05
2.173068725e-05
2.289576432e-05
2.389032975e-05
2.471666686e-05
2.531362132e-05
6.089628914e-06
9.588403127e-06
1.338360589e-05
1.698390985e-05
2.01211795e-05
2.270375345e-05
2.474646801e-05
2.631522405e-05
2.749235836e-05
2.83582116e-05
2.898307131e-05
2.942484408e-05
2.972947912e-05
2.993185289e-05
3.005149023e-05
1.690555729e-05
2.682405467e-05
3.492611941e-05
4.049050854e-05
4.375478307e-05
4.526840494e-05
4.558142228e-05
4.513576417e-05
4.425051442e-05
4.314136091e-05
4.194724699e-05
4.075460418e-05
3.961871358e-05
3.859238173e-05
3.780725938e-05
7.685117886e-05
8.698153915e-05
8.858025402e-05
8.557588394e-05
8.053082929e-05
7.488602825e-05
6.936859336e-05
6.430046577e-05
5.979059915e-05
5.584421543e-05
5.242247585e-05
4.94791391e-05
4.700782228e-05
4.520413442e-05
0.0001748546963
0.0001618704516
0.0001420793431
0.0001231536295
0.000107098081
9.401570793e-05
8.347206792e-05
7.496109744e-05
6.804346205e-05
6.237188819e-05
5.768299705e-05
5.378859955e-05
5.060032517e-05
4.831052771e-05
7.684955746e-05
8.698037349e-05
8.857916346e-05
8.557480332e-05
8.052979123e-05
7.488502759e-05
6.936764286e-05
6.429956562e-05
5.978975125e-05
5.58434182e-05
5.242171681e-05
4.947842324e-05
4.700714472e-05
4.520348539e-05
2.682398606e-05
3.492580012e-05
4.048994534e-05
4.375401167e-05
4.526748707e-05
4.558040049e-05
4.513468712e-05
4.424941098e-05
4.314024732e-05
4.19461413e-05
4.075351775e-05
3.961763798e-05
3.859132404e-05
3.780621529e-05
9.588508804e-06
1.338359427e-05
1.698374417e-05
2.01208478e-05
2.270326688e-05
2.474583664e-05
2.631447362e-05
2.749151295e-05
2.835728581e-05
2.898207938e-05
2.942380161e-05
2.972839957e-05
2.993074226e-05
3.005034755e-05
4.653209153e-06
6.496126392e-06
8.607903795e-06
1.083338268e-05
1.304391801e-05
1.514761858e-05
1.708750953e-05
1.883469162e-05
2.038055533e-05
2.172984012e-05
2.289482361e-05
2.38893044e-05
2.471556255e-05
2.531243787e-05
3.757333977e-06
5.56114255e-06
7.762721693e-06
1.016003322e-05
1.258374482e-05
1.491197375e-05
1.70674044e-05
1.900844619e-05
2.071959721e-05
2.220300603e-05
2.347176703e-05
2.454468456e-05
2.544114791e-05
2.617043075e-05
2.66882953e-05
8.497206805e-06
1.33169396e-05
1.787703043e-05
2.173074682e-05
2.477991913e-05
2.708833594e-05
2.877654313e-05
2.997183782e-05
3.078795172e-05
3.131899403e-05
3.163966695e-05
3.180794539e-05
3.18688275e-05
3.185967016e-05
3.182095621e-05
3.159541117e-05
4.592610094e-05
5.395767251e-05
5.737045426e-05
5.793070144e-05
5.689542398e-05
5.505360566e-05
5.287137946e-05
5.061303838e-05
4.842203473e-05
4.637132393e-05
4.449434266e-05
4.280735781e-05
4.134120817e-05
4.024574226e-05
0.0001575946412
0.0001748529767
0.0001618693324
0.000142078562
0.0001231530454
0.000107097634
9.401535551e-05
8.347179146e-05
7.496087167e-05
6.804327728e-05
6.237172573e-05
5.768285189e-05
5.378847578e-05
5.06002212e-05
4.831043181e-05
0.0005964394526
0.0003812796377
0.0002623562759
0.0001928286448
0.0001498039225
0.000121675426
0.0001023304675
8.841935171e-05
7.803023174e-05
7.002657116e-05
6.370719126e-05
5.863425665e-05
5.458203354e-05
5.171660592e-05
0.0001748548249
0.0001618687701
0.0001420771961
0.0001231514992
0.0001070961254
9.401395952e-05
8.347052341e-05
7.495972204e-05
6.804222294e-05
6.237076781e-05
5.768196443e-05
5.378765309e-05
5.059944342e-05
4.830968867e-05
4.592659896e-05
5.395741741e-05
5.736965028e-05
5.792957252e-05
5.689412543e-05
5.50522395e-05
5.286999039e-05
5.061166143e-05
4.842068732e-05
4.637001314e-05
4.449307621e-05
4.280613316e-05
4.134001808e-05
4.024457374e-05
1.33171661e-05
1.78770243e-05
2.173048115e-05
2.477941443e-05
2.708762827e-05
2.877567624e-05
2.997084697e-05
3.078687115e-05
3.131784353e-05
3.163846863e-05
3.180671714e-05
3.186757379e-05
3.185839163e-05
3.181965528e-05
5.561263391e-06
7.762776108e-06
1.015997498e-05
1.25835469e-05
1.491162158e-05
1.706689673e-05
1.900779067e-05
2.071880501e-05
2.220209e-05
2.347074284e-05
2.454356802e-05
2.543994825e-05
2.616915854e-05
2.668694963e-05
3.228872399e-06
4.653090053e-06
6.496021942e-06
8.607844046e-06
1.083339691e-05
1.304402125e-05
1.514781857e-05
1.708780932e-05
1.883508868e-05
2.038104314e-05
2.173041111e-05
2.289546436e-05
2.389001128e-05
2.471632933e-05
2.531327121e-05
6.089555089e-06
9.588268649e-06
1.338341867e-05
1.698367464e-05
2.012090238e-05
2.270344485e-05
2.474612547e-05
2.631485557e-05
2.749196953e-05
2.835780603e-05
2.898264717e-05
2.942440946e-05
2.972903731e-05
2.993140379e-05
3.005103284e-05
1.690484617e-05
2.682338629e-05
3.492538675e-05
4.048974293e-05
4.375399769e-05
4.52676075e-05
4.558063016e-05
4.513498429e-05
4.424975052e-05
4.314061886e-05
4.194652978e-05
4.075390883e-05
3.961803915e-05
3.859171748e-05
3.78066172e-05
5.39480297e-05
7.684793746e-05
8.69790405e-05
8.85781155e-05
8.557398991e-05
8.052913825e-05
7.488450004e-05
6.936720521e-05
6.429921415e-05
5.978945565e-05
5.584315717e-05
5.242149397e-05
4.947822683e-05
4.700696767e-05
4.520331494e-05
0.0001575940442
0.0001748522776
0.0001618672141
0.0001420762226
0.0001231508572
0.0001070956832
9.401364662e-05
8.347028042e-05
7.495952685e-05
6.804206748e-05
6.23706297e-05
5.768186376e-05
5.378756363e-05
5.059936556e-05
4.830961773e-05
5.394848185e-05
7.684780656e-05
8.697839451e-05
8.857712778e-05
8.557285086e-05
8.052795249e-05
7.488334875e-05
6.936610343e-05
6.429816915e-05
5.978848669e-05
5.584225386e-05
5.242065063e-05
4.947743688e-05
4.700621722e-05
4.520259262e-05
2.682437706e-05
3.492556383e-05
4.048934314e-05
4.375321323e-05
4.526658083e-05
4.557946137e-05
4.513374218e-05
4.424848516e-05
4.313935099e-05
4.194528118e-05
4.07526835e-05
3.961684241e-05
3.859055693e-05
3.780546228e-05
9.588640871e-06
1.338357942e-05
1.698358397e-05
2.012056304e-05
2.270288901e-05
2.474538891e-05
2.631397978e-05
2.74909782e-05
2.835673287e-05
2.898151573e-05
2.942322952e-05
2.972782131e-05
2.993016077e-05
3.004975868e-05
4.653242743e-06
6.49612238e-06
8.607843669e-06
1.083326109e-05
1.304373201e-05
1.514737351e-05
1.708721125e-05
1.883434646e-05
2.038017408e-05
2.172942491e-05
2.28943826e-05
2.388884124e-05
2.471508233e-05
2.531194082e-05
2.523135754e-06
3.378971755e-06
4.567152783e-06
6.034690874e-06
7.69805678e-06
9.467406542e-06
1.126246208e-05
1.301998038e-05
1.469520281e-05
1.625992619e-05
1.769906024e-05
1.900645444e-05
2.017856963e-05
2.119709592e-05
2.195855384e-05
3.777868173e-06
5.62832828e-06
7.915430127e-06
1.039626429e-05
1.286051902e-05
1.516504561e-05
1.723259515e-05
1.903591842e-05
2.057982947e-05
2.188659284e-05
2.298576821e-05
2.390772711e-05
2.467864563e-05
2.531103888e-05
2.576507103e-05
7.612001436e-06
1.220994302e-05
1.702132416e-05
2.136622476e-05
2.491811019e-05
2.7613128e-05
2.953317885e-05
3.081882992e-05
3.161829794e-05
3.206307486e-05
3.225969116e-05
3.228988093e-05
3.221494247e-05
3.208407157e-05
3.195439671e-05
1.690479993e-05
2.682317877e-05
3.49249904e-05
4.048919125e-05
4.375333229e-05
4.526688323e-05
4.557987736e-05
4.513422946e-05
4.424900644e-05
4.313988743e-05
4.194581957e-05
4.075322605e-05
3.96173778e-05
3.859108052e-05
3.780599119e-05
3.159508795e-05
4.59251855e-05
5.395621091e-05
5.736867372e-05
5.792879018e-05
5.689349862e-05
5.505172565e-05
5.286957407e-05
5.061130843e-05
4.842039007e-05
4.63697624e-05
4.449285637e-05
4.280593395e-05
4.133983894e-05
4.024440315e-05
1.690474294e-05
2.682300842e-05
3.492465841e-05
4.048871217e-05
4.3752745e-05
4.526622958e-05
4.557918665e-05
4.513351637e-05
4.424830196e-05
4.313919193e-05
4.194514019e-05
4.075256361e-05
3.961674226e-05
3.859046504e-05
3.780538191e-05
7.612213919e-06
1.221007938e-05
1.702126802e-05
2.136594499e-05
2.491762904e-05
2.761248929e-05
2.953241539e-05
3.081797877e-05
3.161738333e-05
3.206212441e-05
3.225872235e-05
3.228890416e-05
3.221395948e-05
3.208308872e-05
3.195340811e-05
5.628547902e-06
7.915516992e-06
1.039619966e-05
1.286029508e-05
1.51646659e-05
1.723207162e-05
1.903526919e-05
2.057907466e-05
2.188574809e-05
2.298485106e-05
2.390674807e-05
2.467761315e-05
2.530996225e-05
2.576395693e-05
3.379091892e-06
4.567241556e-06
6.034713616e-06
7.697986026e-06
9.467221008e-06
1.126215392e-05
1.301954452e-05
1.469464107e-05
1.62592418e-05
1.769826484e-05
1.900555673e-05
2.017757621e-05
2.119601805e-05
2.195738646e-05
2.052490569e-06
2.508042957e-06
3.181617413e-06
4.077095948e-06
5.173077989e-06
6.43124968e-06
7.805501303e-06
9.249280919e-06
1.072038202e-05
1.218337455e-05
1.361015349e-05
1.497865468e-05
1.626761562e-05
1.743612837e-05
1.833676816e-05
2.535161585e-06
3.396368772e-06
4.576304146e-06
6.012536342e-06
7.618089486e-06
9.306104495e-06
1.100377642e-05
1.265718776e-05
1.423056658e-05
1.570297205e-05
1.706430447e-05
1.831107615e-05
1.944032207e-05
2.043240193e-05
2.118084017e-05
3.777865532e-06
5.628309383e-06
7.915383918e-06
1.039618118e-05
1.286039474e-05
1.516487895e-05
1.723239102e-05
1.903567873e-05
2.057956132e-05
2.188629574e-05
2.298545267e-05
2.390739492e-05
2.467829848e-05
2.531067891e-05
2.576470043e-05
6.089546246e-06
9.588184172e-06
1.338321668e-05
1.698334118e-05
2.012044044e-05
2.27028658e-05
2.474545298e-05
2.631411003e-05
2.749117108e-05
2.835696619e-05
2.898178161e-05
2.942352206e-05
2.972813934e-05
2.993049626e-05
3.005011015e-05
8.497137748e-06
1.331665877e-05
1.78764885e-05
2.172995701e-05
2.47789217e-05
2.708717708e-05
2.877526267e-05
2.997047595e-05
3.078653343e-05
3.131753574e-05
3.16381884e-05
3.180645815e-05
3.186733894e-05
3.185817628e-05
3.181944533e-05
6.0895088e-06
9.588106176e-06
1.338308132e-05
1.698313814e-05
2.012017378e-05
2.270254524e-05
2.474508508e-05
2.631370633e-05
2.749074037e-05
2.835651632e-05
2.898131853e-05
2.942304991e-05
2.972766136e-05
2.993001477e-05
3.004962311e-05
3.777871113e-06
5.62829715e-06
7.91531223e-06
1.03960253e-05
1.28601432e-05
1.51645305e-05
1.723195237e-05
1.903516335e-05
2.057897771e-05
2.188565786e-05
2.298476779e-05
2.390666975e-05
2.467754529e-05
2.530990104e-05
2.576389289e-05
2.535206845e-06
3.396414055e-06
4.576316999e-06
6.012490929e-06
7.617965511e-06
9.305890032e-06
1.100346634e-05
1.265678162e-05
1.423006527e-05
1.570238761e-05
1.706364175e-05
1.831034097e-05
1.943952091e-05
2.043153816e-05
2.117992952e-05
2.50811242e-06
3.181665657e-06
4.077106919e-06
5.173034219e-06
6.431134432e-06
7.805302209e-06
9.248988019e-06
1.071998768e-05
1.218287638e-05
1.36095551e-05
1.497795667e-05
1.626682361e-05
1.743524608e-05
1.833579487e-05
1.842014412e-06
2.113288162e-06
2.53437097e-06
3.128003759e-06
3.901073848e-06
4.844823047e-06
5.937937416e-06
7.150902525e-06
8.45036386e-06
9.802692263e-06
1.117632964e-05
1.2542244e-05
1.386966686e-05
1.510432448e-05
1.607299863e-05
2.052491617e-06
2.508042663e-06
3.181613664e-06
4.077085196e-06
5.173056803e-06
6.43121374e-06
7.805450204e-06
9.249211762e-06
1.072029185e-05
1.218326376e-05
1.361002374e-05
1.497850373e-05
1.626744504e-05
1.743593673e-05
1.833654995e-05
2.523138829e-06
3.378966263e-06
4.567128329e-06
6.034636154e-06
7.697962111e-06
9.467262814e-06
1.12622654e-05
1.301972999e-05
1.469489846e-05
1.625957027e-05
1.769865732e-05
1.900600676e-05
2.017808171e-05
2.119657005e-05
2.195798268e-05
3.228874738e-06
4.653063297e-06
6.495937607e-06
8.607677817e-06
1.083313217e-05
1.304365049e-05
1.514734134e-05
1.708722778e-05
1.883441147e-05
2.038028124e-05
2.172957248e-05
2.289456555e-05
2.388905686e-05
2.471532463e-05
2.531220698e-05
3.757318581e-06
5.561057127e-06
7.762523103e-06
1.015969149e-05
1.258324669e-05
1.491131611e-05
1.706659373e-05
1.900749592e-05
2.071852101e-05
2.220182178e-05
2.34704895e-05
2.454332449e-05
2.54397171e-05
2.616894203e-05
2.668673689e-05
3.228861567e-06
4.653035025e-06
6.495884826e-06
8.607592739e-06
1.083300996e-05
1.304348612e-05
1.514713695e-05
1.708698502e-05
1.883413436e-05
2.037997165e-05
2.172923685e-05
2.289420425e-05
2.388867366e-05
2.471492388e-05
2.531179293e-05
2.523131611e-06
3.378948548e-06
4.56708615e-06
6.034554486e-06
7.697828085e-06
9.467067497e-06
1.126200408e-05
1.301940335e-05
1.46945072e-05
1.625911622e-05
1.769814497e-05
1.900544603e-05
2.017747528e-05
2.119592365e-05
2.195729951e-05
2.052495035e-06
2.508045149e-06
3.181602033e-06
4.077044805e-06
5.172972078e-06
6.431071583e-06
7.805239624e-06
9.248926083e-06
1.071992807e-05
1.218281998e-05
1.360950069e-05
1.497790562e-05
1.626677555e-05
1.74352002e-05
1.833575216e-05
1.84202789e-06
2.113306189e-06
2.534383402e-06
3.127998109e-06
3.901035613e-06
4.844736807e-06
5.937788951e-06
7.150679382e-06
8.450055288e-06
9.802291979e-06
1.117583538e-05
1.254165466e-05
1.386898137e-05
1.51035432e-05
1.607212339e-05
)
;

boundaryField
{
    top
    {
        type            calculated;
        value           nonuniform List<scalar> 
127
(
1.84202789e-06
2.113312827e-06
2.508082404e-06
3.379044621e-06
4.653209153e-06
5.561263391e-06
4.653242743e-06
3.379091892e-06
2.50811242e-06
2.113306189e-06
2.534407162e-06
3.181670025e-06
4.567235313e-06
6.496126392e-06
7.762776108e-06
6.49612238e-06
4.567241556e-06
3.181665657e-06
2.534383402e-06
3.128053924e-06
4.077159675e-06
6.034770579e-06
8.607903795e-06
1.015997498e-05
8.607843669e-06
6.034713616e-06
4.077106919e-06
3.127998109e-06
3.901139832e-06
5.173149741e-06
7.698120968e-06
1.083338268e-05
1.25835469e-05
1.083326109e-05
7.697986026e-06
5.173034219e-06
3.901035613e-06
4.844905144e-06
6.431325885e-06
9.467442797e-06
1.304391801e-05
1.491162158e-05
1.304373201e-05
9.467221008e-06
6.431134432e-06
4.844736807e-06
5.938034844e-06
7.805578724e-06
1.126246152e-05
1.514761858e-05
1.706689673e-05
1.514737351e-05
1.126215392e-05
7.805302209e-06
5.937788951e-06
7.151016291e-06
9.249356174e-06
1.301993866e-05
1.708750953e-05
1.900779067e-05
1.708721125e-05
1.301954452e-05
9.248988019e-06
7.150679382e-06
8.450492347e-06
1.072044888e-05
1.469511434e-05
1.883469162e-05
2.071880501e-05
1.883434646e-05
1.469464107e-05
1.071998768e-05
8.450055288e-06
9.802833396e-06
1.218343126e-05
1.625979084e-05
2.038055533e-05
2.220209e-05
2.038017408e-05
1.62592418e-05
1.218287638e-05
9.802291979e-06
1.117648442e-05
1.361019851e-05
1.769888033e-05
2.172984012e-05
2.347074284e-05
2.172942491e-05
1.769826484e-05
1.36095551e-05
1.117583538e-05
1.254241007e-05
1.49786862e-05
1.900622975e-05
2.289482361e-05
2.454356802e-05
2.28943826e-05
1.900555673e-05
1.497795667e-05
1.254165466e-05
1.386984092e-05
1.626763255e-05
2.017830443e-05
2.38893044e-05
2.543994825e-05
2.388884124e-05
2.017757621e-05
1.626682361e-05
1.386898137e-05
1.510450396e-05
1.743612979e-05
2.119679064e-05
2.471556255e-05
2.616915854e-05
2.471508233e-05
2.119601805e-05
1.743524608e-05
1.51035432e-05
1.607318049e-05
1.833674377e-05
2.1958201e-05
2.531243787e-05
2.668694963e-05
2.531194082e-05
2.195738646e-05
1.833579487e-05
1.607212339e-05
)
;
    }
    bottom
    {
        type            calculated;
        value           nonuniform List<scalar> 
134
(
2.052518075e-06
2.523153392e-06
3.228879705e-06
3.757333977e-06
3.228872399e-06
2.523135754e-06
2.052490569e-06
1.842014412e-06
2.113336439e-06
2.50808816e-06
3.379014547e-06
4.653118076e-06
5.56114255e-06
4.653090053e-06
3.378971755e-06
2.508042957e-06
2.113288162e-06
2.534432055e-06
3.181685074e-06
4.567225742e-06
6.496074557e-06
7.762721693e-06
6.496021942e-06
4.567152783e-06
3.181617413e-06
2.53437097e-06
3.1280853e-06
4.077190493e-06
6.034797913e-06
8.607924463e-06
1.016003322e-05
8.607844046e-06
6.034690874e-06
4.077095948e-06
3.128003759e-06
3.901183681e-06
5.173206791e-06
7.698204333e-06
1.083350612e-05
1.258374482e-05
1.083339691e-05
7.69805678e-06
5.173077989e-06
3.901073848e-06
4.84497045e-06
6.431420457e-06
9.467597511e-06
1.304416075e-05
1.491197375e-05
1.304402125e-05
9.467406542e-06
6.43124968e-06
4.844823047e-06
5.938130927e-06
7.805722429e-06
1.126270202e-05
1.514798737e-05
1.70674044e-05
1.514781857e-05
1.126246208e-05
7.805501303e-06
5.937937416e-06
7.151151712e-06
9.249557252e-06
1.302027008e-05
1.708800847e-05
1.900844619e-05
1.708780932e-05
1.301998038e-05
9.249280919e-06
7.150902525e-06
8.450675143e-06
1.072071775e-05
1.469554277e-05
1.883531388e-05
2.071959721e-05
1.883508868e-05
1.469520281e-05
1.072038202e-05
8.45036386e-06
9.803071191e-06
1.218377218e-05
1.626031289e-05
2.038129608e-05
2.220300603e-05
2.038104314e-05
1.625992619e-05
1.218337455e-05
9.802692263e-06
1.117678273e-05
1.361061669e-05
1.769949621e-05
2.173068725e-05
2.347176703e-05
2.173041111e-05
1.769906024e-05
1.361015349e-05
1.117632964e-05
1.254277268e-05
1.497917898e-05
1.900693425e-05
2.289576432e-05
2.454468456e-05
2.289546436e-05
1.900645444e-05
1.497865468e-05
1.2542244e-05
1.387026984e-05
1.626820154e-05
2.017909117e-05
2.389032975e-05
2.544114791e-05
2.389001128e-05
2.017856963e-05
1.626761562e-05
1.386966686e-05
1.510500203e-05
1.743677127e-05
2.119765372e-05
2.471666686e-05
2.617043075e-05
2.471632933e-05
2.119709592e-05
1.743612837e-05
1.510432448e-05
1.607374707e-05
1.833746046e-05
2.195914345e-05
2.531362132e-05
2.66882953e-05
2.531327121e-05
2.195855384e-05
1.833676816e-05
1.607299863e-05
)
;
    }
    side-walls
    {
        type            calculated;
        value           nonuniform List<scalar> 
261
(
2.113336439e-06
2.508113702e-06
3.379078959e-06
4.653225551e-06
5.561258635e-06
4.653193072e-06
3.379039135e-06
2.508079981e-06
2.113312827e-06
2.534432055e-06
3.181710904e-06
4.567297138e-06
6.496197861e-06
7.762860591e-06
6.496151537e-06
4.567243438e-06
3.181669734e-06
2.534407162e-06
3.1280853e-06
4.07721757e-06
6.034875223e-06
8.608060288e-06
1.016019118e-05
8.607996864e-06
6.034804027e-06
4.077164626e-06
3.128053924e-06
3.901183681e-06
5.173235923e-06
7.698286086e-06
1.083365338e-05
1.258392014e-05
1.083356931e-05
7.698192372e-06
5.173163781e-06
3.901139832e-06
4.84497045e-06
6.431451872e-06
9.467683954e-06
1.304431442e-05
1.49121614e-05
1.304421075e-05
9.46755925e-06
6.431353068e-06
4.844905144e-06
5.938130927e-06
7.805755429e-06
1.126279162e-05
1.514814884e-05
1.706760009e-05
1.514801909e-05
1.126263111e-05
7.805620846e-06
5.938034844e-06
7.151151712e-06
9.249592018e-06
1.302036285e-05
1.70881708e-05
1.90086474e-05
1.708801949e-05
1.302016312e-05
9.249414467e-06
7.151016291e-06
8.450675143e-06
1.072075231e-05
1.469563635e-05
1.88354768e-05
2.071979873e-05
1.883530045e-05
1.469539531e-05
1.072052838e-05
8.450492347e-06
9.803071191e-06
1.218380547e-05
1.626040541e-05
2.038145264e-05
2.220320705e-05
2.038125874e-05
1.626012247e-05
1.218353072e-05
9.802833396e-06
1.117678273e-05
1.361064869e-05
1.769958686e-05
2.173083883e-05
2.34719654e-05
2.173062265e-05
1.769926242e-05
1.36103204e-05
1.117648442e-05
1.254277268e-05
1.497921324e-05
1.900702277e-05
2.289591286e-05
2.454487696e-05
2.289567859e-05
1.900666189e-05
1.497882933e-05
1.254241007e-05
1.387026984e-05
1.626823414e-05
2.017917516e-05
2.389047191e-05
2.54413328e-05
2.38902212e-05
2.017877829e-05
1.626779807e-05
1.386984092e-05
1.510500203e-05
1.743680328e-05
2.119773537e-05
2.471680045e-05
2.617060943e-05
2.471653564e-05
2.119730473e-05
1.743631432e-05
1.510450396e-05
1.607374707e-05
1.833749086e-05
2.19592233e-05
2.531375056e-05
2.668846969e-05
2.5313475e-05
2.195876123e-05
1.833695389e-05
1.607318049e-05
1.842014412e-06
2.052491617e-06
2.523138829e-06
3.228874738e-06
3.757318581e-06
3.228861567e-06
2.523131611e-06
2.052495035e-06
1.84202789e-06
2.113288162e-06
2.508042663e-06
3.378966263e-06
4.653063297e-06
5.561057127e-06
4.653035025e-06
3.378948548e-06
2.508045149e-06
2.113306189e-06
2.53437097e-06
3.181613664e-06
4.567128329e-06
6.495937607e-06
7.762523103e-06
6.495884826e-06
4.56708615e-06
3.181602033e-06
2.534383402e-06
3.128003759e-06
4.077085196e-06
6.034636154e-06
8.607677817e-06
1.015969149e-05
8.607592739e-06
6.034554486e-06
4.077044805e-06
3.127998109e-06
3.901073848e-06
5.173056803e-06
7.697962111e-06
1.083313217e-05
1.258324669e-05
1.083300996e-05
7.697828085e-06
5.172972078e-06
3.901035613e-06
4.844823047e-06
6.43121374e-06
9.467262814e-06
1.304365049e-05
1.491131611e-05
1.304348612e-05
9.467067497e-06
6.431071583e-06
4.844736807e-06
5.937937416e-06
7.805450204e-06
1.12622654e-05
1.514734134e-05
1.706659373e-05
1.514713695e-05
1.126200408e-05
7.805239624e-06
5.937788951e-06
7.150902525e-06
9.249211762e-06
1.301972999e-05
1.708722778e-05
1.900749592e-05
1.708698502e-05
1.301940335e-05
9.248926083e-06
7.150679382e-06
8.45036386e-06
1.072029185e-05
1.469489846e-05
1.883441147e-05
2.071852101e-05
1.883413436e-05
1.46945072e-05
1.071992807e-05
8.450055288e-06
9.802692263e-06
1.218326376e-05
1.625957027e-05
2.038028124e-05
2.220182178e-05
2.037997165e-05
1.625911622e-05
1.218281998e-05
9.802291979e-06
1.117632964e-05
1.361002374e-05
1.769865732e-05
2.172957248e-05
2.34704895e-05
2.172923685e-05
1.769814497e-05
1.360950069e-05
1.117583538e-05
1.2542244e-05
1.497850373e-05
1.900600676e-05
2.289456555e-05
2.454332449e-05
2.289420425e-05
1.900544603e-05
1.497790562e-05
1.254165466e-05
1.386966686e-05
1.626744504e-05
2.017808171e-05
2.388905686e-05
2.54397171e-05
2.388867366e-05
2.017747528e-05
1.626677555e-05
1.386898137e-05
1.510432448e-05
1.743593673e-05
2.119657005e-05
2.471532463e-05
2.616894203e-05
2.471492388e-05
2.119592365e-05
1.74352002e-05
1.51035432e-05
1.607299863e-05
1.833654995e-05
2.195798268e-05
2.531220698e-05
2.668673689e-05
2.531179293e-05
2.195729951e-05
1.833575216e-05
1.607212339e-05
)
;
    }
    inlet
    {
        type            calculated;
        value           nonuniform 0();
    }
    outlet
    {
        type            calculated;
        value           nonuniform List<scalar> 
81
(
1.607374707e-05
1.833749086e-05
2.19592233e-05
2.531375056e-05
2.668846969e-05
2.5313475e-05
2.195876123e-05
1.833695389e-05
1.607318049e-05
1.833746046e-05
2.118171453e-05
2.576586899e-05
3.005159617e-05
3.182111246e-05
3.005123812e-05
2.576528948e-05
2.118104566e-05
1.833674377e-05
2.195914345e-05
2.576581502e-05
3.195542824e-05
3.780732589e-05
4.024589439e-05
3.780682457e-05
3.195462746e-05
2.576492521e-05
2.1958201e-05
2.531362132e-05
3.005149023e-05
3.780725938e-05
4.520413442e-05
4.831052771e-05
4.520348539e-05
3.780621529e-05
3.005034755e-05
2.531243787e-05
2.66882953e-05
3.182095621e-05
4.024574226e-05
4.831043181e-05
5.171660592e-05
4.830968867e-05
4.024457374e-05
3.181965528e-05
2.668694963e-05
2.531327121e-05
3.005103284e-05
3.78066172e-05
4.520331494e-05
4.830961773e-05
4.520259262e-05
3.780546228e-05
3.004975868e-05
2.531194082e-05
2.195855384e-05
2.576507103e-05
3.195439671e-05
3.780599119e-05
4.024440315e-05
3.780538191e-05
3.195340811e-05
2.576395693e-05
2.195738646e-05
1.833676816e-05
2.118084017e-05
2.576470043e-05
3.005011015e-05
3.181944533e-05
3.004962311e-05
2.576389289e-05
2.117992952e-05
1.833579487e-05
1.607299863e-05
1.833654995e-05
2.195798268e-05
2.531220698e-05
2.668673689e-05
2.531179293e-05
2.195729951e-05
1.833575216e-05
1.607212339e-05
)
;
    }
    procBoundary1to0
    {
        type            processor;
        value           nonuniform List<scalar> 
97
(
1.842028697e-06
1.842028697e-06
2.052493472e-06
2.523116974e-06
3.228809003e-06
3.757216909e-06
3.228783699e-06
2.523085346e-06
2.052463634e-06
1.841999542e-06
1.782677621e-06