/*--------------------------------*- C++ -*----------------------------------*\
| =========                 |                                                 |
| \\      /  F ield         | OpenFOAM: The Open Source CFD Toolbox           |
|  \\    /   O peration     | Version:  4.x                                   |
|   \\  /    A nd           | Web:      www.OpenFOAM.org                      |
|    \\/     M anipulation  |                                                 |
\*---------------------------------------------------------------------------*/
FoamFile
{
    version     2.0;
    format      ascii;
    class       volScalarField;
    location    "7000";
    object      CO;
}
// * * * * * * * * * * * * * * * * * * * * * * * * * * * * * * * * * * * * * //

dimensions      [0 0 0 0 0 0 0];

internalField   nonuniform List<scalar> 
1174
(
0.3101797331
0.3101783642
0.3101764516
0.3101739814
0.310170989
0.310167548
0.3101637556
0.3101597185
0.3101555423
0.3101513244
0.3101471528
0.3101431202
0.3101393905
0.310136484
0.3101784745
0.3101763195
0.3101734791
0.3101700296
0.3101660978
0.3101618315
0.3101573763
0.3101528622
0.3101483962
0.3101440616
0.3101399229
0.3101360421
0.3101325407
0.3101298585
0.3101757255
0.3101719845
0.3101674033
0.3101622511
0.3101568096
0.3101513251
0.3101459872
0.3101409268
0.3101362233
0.3101319165
0.3101280196
0.3101245393
0.3101215272
0.3101192876
0.3101717564
0.3101660243
0.3101595097
0.3101526965
0.310145977
0.3101396242
0.3101338019
0.3101285877
0.3101239984
0.3101200119
0.3101165851
0.3101136717
0.3101112614
0.3101095295
0.3101689719
0.3101621665
0.3101548101
0.3101474248
0.3101403779
0.3101338957
0.3101280938
0.3101230089
0.310118625
0.310114895
0.3101117563
0.310109146
0.3101070324
0.3101055402
0.3101717565
0.3101660244
0.3101595099
0.3101526967
0.3101459772
0.3101396244
0.3101338021
0.3101285879
0.3101239986
0.3101200122
0.3101165854
0.3101136721
0.3101112617
0.3101095298
0.3101757256
0.3101719847
0.3101674035
0.3101622513
0.3101568099
0.3101513254
0.3101459876
0.3101409272
0.3101362237
0.3101319169
0.3101280201
0.3101245398
0.3101215278
0.3101192882
0.3101784746
0.3101763197
0.3101734792
0.3101700298
0.3101660981
0.3101618318
0.3101573767
0.3101528626
0.3101483966
0.3101440621
0.3101399235
0.3101360427
0.3101325414
0.3101298592
0.3101797332
0.3101783643
0.3101764517
0.3101739815
0.3101709892
0.3101675483
0.3101637559
0.3101597189
0.3101555428
0.3101513249
0.3101471533
0.3101431208
0.3101393911
0.3101364848
0.3101799459
0.3101784745
0.3101763196
0.3101734791
0.3101700296
0.3101660979
0.3101618315
0.3101573763
0.3101528622
0.3101483962
0.3101440616
0.310139923
0.3101360421
0.3101325407
0.3101298585
0.3101756841
0.3101719777
0.3101675033
0.3101625383
0.3101573528
0.3101521682
0.3101471449
0.3101423867
0.3101379517
0.3101338658
0.3101301358
0.3101267678
0.3101238193
0.3101216063
0.3101687559
0.310161699
0.3101541109
0.3101466341
0.3101396932
0.3101335066
0.3101281413
0.3101235698
0.3101197156
0.3101164835
0.3101137786
0.3101115206
0.3101096716
0.3101083486
0.3101566491
0.310145106
0.3101342546
0.310124883
0.3101172354
0.310111237
0.3101066674
0.3101032651
0.3101007813
0.3100990019
0.310097753
0.3100968979
0.3100963337
0.3100960025
0.3101454564
0.3101316993
0.3101201664
0.3101111209
0.3101043368
0.3100994245
0.3100959842
0.3100936648
0.3100921796
0.3100913038
0.3100908647
0.3100907292
0.3100907875
0.3100909199
0.3101566495
0.3101451065
0.3101342552
0.3101248836
0.3101172359
0.3101112375
0.3101066679
0.3101032655
0.3101007817
0.3100990024
0.3100977534
0.3100968983
0.3100963341
0.3100960029
0.3101687564
0.3101616995
0.3101541114
0.3101466347
0.3101396938
0.3101335073
0.310128142
0.3101235705
0.3101197163
0.3101164842
0.3101137793
0.3101115213
0.3101096723
0.3101083493
0.3101756844
0.310171978
0.3101675036
0.3101625386
0.3101573532
0.3101521686
0.3101471455
0.3101423872
0.3101379523
0.3101338664
0.3101301365
0.3101267685
0.3101238201
0.3101216071
0.3101784746
0.3101763197
0.3101734793
0.3101700298
0.3101660981
0.3101618318
0.3101573767
0.3101528627
0.3101483967
0.3101440622
0.3101399236
0.3101360428
0.3101325415
0.3101298594
0.3101784456
0.3101757255
0.3101719846
0.3101674033
0.3101622511
0.3101568097
0.3101513252
0.3101459873
0.3101409268
0.3101362233
0.3101319165
0.3101280197
0.3101245393
0.3101215273
0.3101192877
0.3101745198
0.3101687559
0.310161699
0.3101541109
0.3101466341
0.3101396932
0.3101335067
0.3101281414
0.3101235699
0.3101197157
0.3101164836
0.3101137787
0.3101115207
0.3101096716
0.3101083486
0.3101486354
0.3101340786
0.3101210728
0.3101105606
0.3101026808
0.3100971418
0.310093491
0.3100912673
0.3100900703
0.3100895811
0.3100895584
0.3100898236
0.3100902348
0.3100906271
0.3101047091
0.3100806227
0.3100643265
0.3100549869
0.3100508671
0.3100502701
0.3100518565
0.3100546746
0.3100580914
0.3100617059
0.3100652736
0.3100686405
0.3100716583
0.3100739481
0.3100484253
0.3100248554
0.3100151012
0.3100138248
0.3100172345
0.3100229606
0.3100296157
0.3100364246
0.3100429755
0.3100490656
0.3100546072
0.3100595612
0.3100638432
0.3100670215
0.3101047125
0.3100806257
0.3100643289
0.3100549889
0.3100508686
0.3100502714
0.3100518575
0.3100546754
0.310058092
0.3100617065
0.3100652742
0.310068641
0.3100716589
0.3100739486
0.3101486377
0.3101340804
0.3101210745
0.3101105621
0.3101026822
0.310097143
0.3100934921
0.3100912684
0.3100900713
0.310089582
0.3100895593
0.3100898245
0.3100902357
0.3100906279
0.3101687564
0.3101616995
0.3101541115
0.3101466349
0.310139694
0.3101335075
0.3101281422
0.3101235707
0.3101197166
0.3101164845
0.3101137796
0.3101115217
0.3101096727
0.3101083496
0.3101757256
0.3101719848
0.3101674036
0.3101622514
0.3101568101
0.3101513256
0.3101459878
0.3101409275
0.3101362241
0.3101319173
0.3101280206
0.3101245403
0.3101215283
0.3101192888
0.3101762262
0.3101717564
0.3101660244
0.3101595098
0.3101526966
0.3101459771
0.3101396243
0.310133802
0.3101285878
0.3101239985
0.310120012
0.3101165852
0.3101136719
0.3101112615
0.3101095296
0.3101673885
0.3101566488
0.310145106
0.3101342546
0.310124883
0.3101172354
0.310111237
0.3101066675
0.3101032652
0.3101007814
0.310099002
0.3100977531
0.310096898
0.3100963338
0.3100960026
0.3101345258
0.3101047091
0.3100806229
0.3100643266
0.310054987
0.3100508672
0.3100502703
0.3100518567
0.3100546747
0.3100580915
0.310061706
0.3100652737
0.3100686406
0.3100716584
0.3100739482
0.3099567735
0.3099275448
0.3099236244
0.3099332092
0.3099486451
0.3099656653
0.3099821497
0.3099971868
0.3100104921
0.3100220789
0.3100320826
0.3100406531
0.3100478183
0.310053018
0.3096729957
0.3097117834
0.3097701082
0.3098257478
0.3098728927
0.3099112518
0.3099421097
0.3099669662
0.3099871249
0.3100036155
0.3100172181
0.3100284881
0.3100376862
0.3100442603
0.3099567932
0.3099275566
0.3099236325
0.3099332146
0.3099486486
0.3099656675
0.309982151
0.3099971877
0.3100104928
0.3100220795
0.3100320831
0.3100406536
0.3100478187
0.3100530184
0.3101047126
0.310080627
0.3100643305
0.3100549904
0.3100508699
0.3100502723
0.3100518583
0.3100546761
0.3100580927
0.3100617072
0.3100652748
0.3100686416
0.3100716595
0.3100739492
0.3101566496
0.3101451071
0.310134256
0.3101248844
0.3101172367
0.3101112383
0.3101066687
0.3101032663
0.3101007825
0.3100990032
0.3100977543
0.3100968991
0.310096335
0.3100960038
0.3101717566
0.3101660246
0.3101595102
0.3101526971
0.3101459776
0.310139625
0.3101338028
0.3101285886
0.3101239994
0.310120013
0.3101165863
0.310113673
0.3101112626
0.3101095308
0.3101745916
0.3101689719
0.3101621666
0.3101548102
0.3101474249
0.310140378
0.3101338958
0.310128094
0.310123009
0.3101186252
0.3101148952
0.3101117565
0.3101091461
0.3101070326
0.3101055404
0.3101601043
0.3101454565
0.3101316998
0.3101201668
0.3101111212
0.310104337
0.3100994248
0.3100959845
0.310093665
0.3100921798
0.310091304
0.3100908649
0.3100907294
0.3100907877
0.3100909201
0.3100909334
0.3100484267
0.3100248574
0.3100151025
0.3100138256
0.310017235
0.310022961
0.310029616
0.3100364249
0.3100429758
0.3100490658
0.3100546074
0.3100595614
0.3100638433
0.3100670216
0.3097220144
0.30967301
0.3097117895
0.3097701109
0.3098257491
0.3098728934
0.3099112523
0.3099421101
0.3099669665
0.3099871251
0.3100036158
0.3100172183
0.3100284883
0.3100376864
0.3100442604
0.308471101
0.3090889465
0.3094295665
0.3096287937
0.3097523018
0.3098332023
0.3098889181
0.309929015
0.3099589676
0.3099820381
0.3100002427
0.3100148406
0.3100264781
0.3100346746
0.3096729979
0.3097117995
0.3097701227
0.3098257577
0.3098728987
0.3099112554
0.309942112
0.3099669678
0.309987126
0.3100036165
0.310017219
0.3100284889
0.310037687
0.310044261
0.3100484266
0.310024862
0.3100151082
0.3100138305
0.3100172387
0.3100229635
0.3100296179
0.3100364264
0.3100429771
0.310049067
0.3100546085
0.3100595625
0.3100638444
0.3100670227
0.3101454568
0.3101317011
0.3101201686
0.310111123
0.3101043386
0.3100994262
0.3100959857
0.3100936662
0.310092181
0.3100913052
0.3100908661
0.3100907306
0.3100907889
0.3100909214
0.310168972
0.3101621669
0.3101548107
0.3101474255
0.3101403787
0.3101338966
0.3101280948
0.3101230099
0.3101186262
0.3101148963
0.3101117576
0.3101091474
0.3101070339
0.3101055417
0.3101762262
0.3101717565
0.3101660245
0.31015951
0.3101526968
0.3101459773
0.3101396246
0.3101338023
0.3101285881
0.3101239988
0.3101200123
0.3101165855
0.3101136722
0.3101112618
0.3101095299
0.3101673892
0.3101566498
0.3101451069
0.3101342555
0.3101248838
0.3101172361
0.3101112377
0.3101066681
0.3101032658
0.310100782
0.3100990026
0.3100977537
0.3100968985
0.3100963343
0.3100960031
0.3101345323
0.3101047142
0.3100806273
0.31006433
0.3100549896
0.3100508691
0.3100502718
0.3100518579
0.3100546757
0.3100580924
0.3100617068
0.3100652744
0.3100686413
0.3100716591
0.3100739488
0.3100242379
0.3099568007
0.3099275618
0.3099236354
0.3099332163
0.3099486497
0.3099656683
0.3099821516
0.3099971883
0.3100104932
0.3100220799
0.3100320835
0.3100406539
0.310047819
0.3100530187
0.3097220186
0.3096730154
0.3097118067
0.309770126
0.3098257595
0.3098728998
0.3099112561
0.3099421126
0.3099669682
0.3099871264
0.3100036169
0.3100172192
0.3100284892
0.3100376872
0.3100442612
0.3100242344
0.3099568043
0.3099275684
0.3099236417
0.309933221
0.3099486529
0.3099656703
0.309982153
0.3099971893
0.3100104941
0.3100220807
0.3100320842
0.3100406546
0.3100478197
0.3100530193
0.3101047091
0.3100806278
0.3100643324
0.3100549921
0.3100508712
0.3100502734
0.3100518592
0.3100546769
0.3100580935
0.3100617079
0.3100652755
0.3100686423
0.3100716601
0.3100739498
0.310156649
0.3101451071
0.3101342562
0.3101248847
0.310117237
0.3101112386
0.310106669
0.3101032667
0.310100783
0.3100990037
0.3100977548
0.3100968996
0.3100963355
0.3100960043
0.3101717564
0.3101660246
0.3101595102
0.3101526972
0.3101459777
0.3101396251
0.310133803
0.3101285889
0.3101239997
0.3101200133
0.3101165866
0.3101136734
0.310111263
0.3101095312
0.3101784457
0.3101757257
0.3101719848
0.3101674036
0.3101622514
0.31015681
0.3101513256
0.3101459877
0.3101409273
0.3101362239
0.3101319171
0.3101280203
0.31012454
0.310121528
0.3101192884
0.3101745204
0.3101687565
0.3101616996
0.3101541116
0.3101466349
0.310139694
0.3101335075
0.3101281422
0.3101235707
0.3101197165
0.3101164844
0.3101137795
0.3101115215
0.3101096725
0.3101083495
0.3101626933
0.3101486383
0.3101340811
0.310121075
0.3101105626
0.3101026825
0.3100971434
0.3100934924
0.3100912687
0.3100900716
0.3100895823
0.3100895596
0.3100898247
0.3100902359
0.3100906282
0.3101345324
0.3101047152
0.310080629
0.3100643319
0.3100549913
0.3100508705
0.3100502729
0.3100518588
0.3100546765
0.3100580931
0.3100617075
0.3100652751
0.3100686419
0.3100716597
0.3100739494
0.3100909342
0.3100484319
0.3100248649
0.3100151099
0.3100138316
0.3100172394
0.3100229641
0.3100296184
0.3100364268
0.3100429775
0.3100490673
0.3100546088
0.3100595627
0.3100638446
0.3100670229
0.3101345332
0.3101047169
0.3100806312
0.3100643339
0.3100549929
0.3100508717
0.3100502737
0.3100518595
0.3100546771
0.3100580937
0.3100617081
0.3100652756
0.3100686425
0.3100716602
0.3100739499
0.310162692
0.3101486378
0.3101340814
0.3101210758
0.3101105634
0.3101026833
0.3100971441
0.3100934932
0.3100912694
0.3100900724
0.3100895831
0.3100895604
0.3100898256
0.3100902367
0.310090629
0.310168756
0.3101616995
0.3101541117
0.3101466351
0.3101396944
0.3101335079
0.3101281427
0.3101235713
0.3101197172
0.3101164852
0.3101137804
0.3101115224
0.3101096735
0.3101083505
0.3101757255
0.3101719847
0.3101674036
0.3101622515
0.3101568102
0.3101513258
0.3101459881
0.3101409278
0.3101362245
0.3101319178
0.3101280211
0.3101245409
0.3101215289
0.3101192895
0.3101799459
0.3101784746
0.3101763197
0.3101734793
0.3101700299
0.3101660982
0.3101618319
0.3101573768
0.3101528628
0.3101483968
0.3101440623
0.3101399237
0.3101360429
0.3101325416
0.3101298594
0.3101784148
0.3101756844
0.310171978
0.3101675037
0.3101625388
0.3101573533
0.3101521688
0.3101471456
0.3101423874
0.3101379525
0.3101338667
0.3101301367
0.3101267688
0.3101238203
0.3101216073
0.3101745204
0.3101687566
0.3101616997
0.3101541117
0.3101466351
0.3101396942
0.3101335077
0.3101281424
0.310123571
0.3101197168
0.3101164847
0.3101137799
0.3101115219
0.3101096729
0.3101083498
0.3101673892
0.3101566501
0.3101451076
0.3101342564
0.3101248847
0.310117237
0.3101112386
0.3101066689
0.3101032666
0.3101007828
0.3100990035
0.3100977545
0.3100968994
0.3100963352
0.310096004
0.3101601045
0.3101454578
0.3101317018
0.3101201691
0.3101111234
0.3101043389
0.3100994265
0.310095986
0.3100936665
0.3100921813
0.3100913055
0.3100908663
0.3100907308
0.3100907891
0.3100909216
0.3101673894
0.3101566505
0.3101451081
0.3101342568
0.3101248852
0.3101172374
0.3101112389
0.3101066693
0.3101032669
0.3101007831
0.3100990038
0.3100977549
0.3100968998
0.3100963356
0.3100960044
0.3101745203
0.3101687566
0.3101616999
0.310154112
0.3101466354
0.3101396945
0.3101335081
0.3101281428
0.3101235714
0.3101197173
0.3101164853
0.3101137805
0.3101115225
0.3101096735
0.3101083505
0.3101784147
0.3101756843
0.310171978
0.3101675037
0.3101625389
0.3101573535
0.310152169
0.3101471459
0.3101423878
0.3101379529
0.3101338672
0.3101301373
0.3101267695
0.3101238211
0.3101216081
0.3101784745
0.3101763197
0.3101734793
0.3101700299
0.3101660983
0.310161832
0.310157377
0.3101528631
0.3101483972
0.3101440628
0.3101399243
0.3101360436
0.3101325423
0.3101298603
0.3101806238
0.3101797332
0.3101783643
0.3101764517
0.3101739816
0.3101709893
0.3101675484
0.310163756
0.310159719
0.3101555429
0.310151325
0.3101471535
0.310143121
0.3101393913
0.310136485
0.3101799459
0.3101784746
0.3101763197
0.3101734793
0.3101700299
0.3101660982
0.3101618319
0.3101573769
0.3101528628
0.3101483969
0.3101440624
0.3101399238
0.310136043
0.3101325417
0.3101298596
0.3101784457
0.3101757257
0.3101719848
0.3101674037
0.3101622516
0.3101568102
0.3101513258
0.310145988
0.3101409277
0.3101362243
0.3101319175
0.3101280208
0.3101245405
0.3101215285
0.310119289
0.3101762263
0.3101717567
0.3101660248
0.3101595103
0.3101526973
0.3101459778
0.3101396252
0.310133803
0.3101285889
0.3101239996
0.3101200132
0.3101165865
0.3101136732
0.3101112629
0.310109531
0.3101745917
0.3101689722
0.3101621671
0.310154811
0.3101474258
0.3101403789
0.3101338968
0.3101280951
0.3101230102
0.3101186264
0.3101148965
0.3101117579
0.3101091476
0.3101070341
0.3101055419
0.3101762263
0.3101717568
0.3101660249
0.3101595105
0.3101526974
0.310145978
0.3101396254
0.3101338032
0.3101285891
0.3101239999
0.3101200135
0.3101165868
0.3101136735
0.3101112632
0.3101095314
0.3101784457
0.3101757258
0.3101719849
0.3101674038
0.3101622517
0.3101568104
0.310151326
0.3101459883
0.310140928
0.3101362247
0.310131918
0.3101280213
0.310124541
0.3101215291
0.3101192896
0.3101799459
0.3101784746
0.3101763197
0.3101734793
0.31017003
0.3101660983
0.3101618321
0.3101573771
0.3101528631
0.3101483973
0.3101440629
0.3101399243
0.3101360436
0.3101325424
0.3101298603
0.3101806238
0.3101797332
0.3101783643
0.3101764517
0.3101739816
0.3101709893
0.3101675485
0.3101637561
0.3101597192
0.3101555432
0.3101513254
0.310147154
0.3101431215
0.310139392
0.3101364857
)
;

boundaryField
{
    top
    {
        type            zeroGradient;
    }
    bottom
    {
        type            zeroGradient;
    }
    side-walls
    {
        type            zeroGradient;
    }
    inlet
    {
        type            zeroGradient;
    }
    outlet
    {
        type            zeroGradient;
    }
    procBoundary1to0
    {
        type            processor;
        value           nonuniform List<scalar> 
97
(
0.3101806237
0.3101806237
0.3101799459
0.3101784457
0.3101762264
0.3101745919
0.3101762264
0.3101784458
0.310179946
0.3101806238
0.3101808266
0.3101784146
0.3101784146
0.3101784146
0.3101745203
0.3101673895
0.3101601056
0.3101673899
0.3101745207
0.3101784149
0.310179946
0.3101801382
0.3101783931
0.3101626914
0.3101626914
0.3101626914
0.310134532
0.3100909401
0.3101345358
0.3101626944
0.3101745207
0.3101784458
0.3101791443
0.3101753613
0.3101623561
0.3100242212
0.3100242212
0.3100242212
0.3097220514
0.3100242486
0.3101345356
0.3101673899
0.3101762265
0.310178447
0.3101725583
0.3101482624
0.3100543023
0.3072818966
0.3072818966
0.3072818966
0.3097220479
0.3097220479
0.3100909398
0.3101601056
0.3101745919
0.3101791443
0.3101753614
0.3101623567
0.3101253251
0.3100543017
0.3101253256
0.3101345283
0.3101345283
0.3101345283
0.3101673891
0.3101762263
0.3101801383
0.3101783931
0.3101733553
0.3101623566
0.3101482623
0.310162357
0.3101733552
0.31017452
0.31017452
0.31017452
0.3101784457
0.3101808266
0.3101801279
0.3101783931
0.3101753614
0.3101725582
0.3101753615
0.3101783931
0.3101801279
0.3101799459
0.3101799459
0.3101799459
0.3101811418
0.3101808266
0.3101801383
0.3101791443
0.310178447
0.3101791444
0.3101801383
0.3101808266
0.3101811418
)
;
    }
}


// ************************************************************************* //
