/*--------------------------------*- C++ -*----------------------------------*\
| =========                 |                                                 |
| \\      /  F ield         | OpenFOAM: The Open Source CFD Toolbox           |
|  \\    /   O peration     | Version:  4.x                                   |
|   \\  /    A nd           | Web:      www.OpenFOAM.org                      |
|    \\/     M anipulation  |                                                 |
\*---------------------------------------------------------------------------*/
FoamFile
{
    version     2.0;
    format      ascii;
    class       volScalarField;
    location    "7000";
    object      CO2;
}
// * * * * * * * * * * * * * * * * * * * * * * * * * * * * * * * * * * * * * //

dimensions      [0 0 0 0 0 0 0];

internalField   nonuniform List<scalar> 
1174
(
0.06498341066
0.06498491984
0.06498702847
0.06498975183
0.06499305093
0.06499684473
0.06500102614
0.06500547736
0.06501008206
0.06501473298
0.06501933294
0.06502377974
0.06502789271
0.06503109787
0.06498479815
0.06498717384
0.06499030534
0.06499410831
0.06499844308
0.06500314689
0.06500805896
0.06501303618
0.06501796054
0.06502274009
0.06502730382
0.06503158345
0.06503544473
0.06503840273
0.06498782842
0.06499195251
0.06499700311
0.0650026833
0.06500868253
0.06501472941
0.06502061481
0.06502619449
0.0650313808
0.06503612995
0.06504042723
0.06504426546
0.06504758743
0.06505005756
0.06499220331
0.06499852241
0.06500570445
0.06501321594
0.06502062442
0.06502762868
0.0650340483
0.06503979773
0.06504485836
0.06504925453
0.06505303382
0.06505624707
0.06505890586
0.0650608164
0.06499527206
0.06500277447
0.06501088466
0.06501902716
0.06502679672
0.06503394385
0.06504034107
0.06504594811
0.06505078234
0.0650548958
0.06505835755
0.06506123684
0.06506356841
0.06506521472
0.06499220325
0.0649985223
0.06500570431
0.06501321577
0.06502062423
0.06502762848
0.06503404811
0.06503979753
0.06504485815
0.06504925432
0.06505303361
0.06505624687
0.06505890565
0.06506081618
0.06498782826
0.06499195231
0.06499700287
0.06500268304
0.06500868225
0.06501472911
0.06502061449
0.06502619415
0.06503138045
0.06503612959
0.06504042686
0.06504426509
0.06504758705
0.06505005718
0.06498479802
0.06498717368
0.06499030514
0.06499410809
0.06499844283
0.06500314661
0.06500805864
0.06501303583
0.06501796016
0.06502273968
0.0650273034
0.065031583
0.06503544428
0.06503840226
0.06498341061
0.06498491976
0.06498702835
0.06498975168
0.06499305074
0.06499684451
0.06500102588
0.06500547706
0.06501008171
0.0650147326
0.06501933253
0.0650237793
0.06502789224
0.06503109738
0.0649831761
0.06498479812
0.06498717382
0.06499030532
0.0649941083
0.06499844308
0.06500314689
0.06500805895
0.06501303618
0.06501796054
0.06502274008
0.06502730382
0.06503158344
0.06503544473
0.06503840272
0.064987874
0.06499196001
0.06499689282
0.0650023666
0.06500808367
0.06501379988
0.06501933838
0.06502458491
0.06502947522
0.06503398076
0.06503809411
0.06504180841
0.06504506024
0.06504750106
0.06499551029
0.06500328993
0.06501165553
0.0650198987
0.06502755135
0.06503437252
0.06504028848
0.06504532942
0.06504957969
0.06505314423
0.06505612765
0.06505861845
0.06506065837
0.06506211816
0.06500885264
0.06502157791
0.06503354195
0.06504387518
0.06505230794
0.06505892239
0.06506396165
0.06506771405
0.06507045391
0.06507241717
0.0650737957
0.06507474012
0.06507536368
0.0650757301
0.06502118402
0.06503635124
0.06504906858
0.0650590441
0.06506652618
0.06507194403
0.0650757388
0.06507829775
0.06507993688
0.06508090414
0.06508139004
0.06508154117
0.06508147855
0.06508133386
0.06500885234
0.06502157745
0.06503354146
0.06504387468
0.06505230748
0.06505892197
0.06506396127
0.06506771371
0.06507045359
0.06507241687
0.06507379541
0.06507473985
0.06507536342
0.06507572984
0.06499550986
0.06500328944
0.06501165499
0.06501989812
0.06502755077
0.06503437196
0.06504028793
0.06504532888
0.06504957917
0.06505314373
0.06505612716
0.06505861797
0.06506065791
0.0650621177
0.06498787372
0.06499195972
0.0649968925
0.06500236625
0.06500808329
0.06501379947
0.06501933795
0.06502458445
0.06502947475
0.06503398027
0.06503809361
0.0650418079
0.06504505972
0.06504750054
0.06498479801
0.06498717368
0.06499030514
0.06499410809
0.06499844283
0.0650031466
0.06500805862
0.0650130358
0.06501796013
0.06502273964
0.06502730335
0.06503158294
0.06503544421
0.06503840219
0.06498482984
0.06498782841
0.06499195249
0.06499700308
0.06500268328
0.06500868251
0.06501472939
0.06502061478
0.06502619445
0.06503138076
0.06503612992
0.0650404272
0.06504426543
0.06504758739
0.06505005753
0.06498915666
0.0649955103
0.06500328992
0.06501165553
0.06501989869
0.06502755134
0.06503437251
0.06504028846
0.0650453294
0.06504957967
0.06505314421
0.06505612763
0.06505861843
0.06506065835
0.06506211814
0.06501768388
0.06503373172
0.06504807145
0.06505966288
0.06506835221
0.06507446069
0.06507848738
0.06508094068
0.06508226207
0.06508280321
0.06508283002
0.06508253937
0.06508208771
0.06508165657
0.06506607902
0.06509263693
0.06511061192
0.06512091757
0.0651254667
0.06512612999
0.06512438492
0.06512128119
0.06511751697
0.06511353441
0.06510960341
0.06510589361
0.06510256843
0.06510004558
0.06512806226
0.06515406959
0.06516485139
0.06516628114
0.06516253704
0.06515623359
0.06514890256
0.06514140008
0.06513418121
0.06512746991
0.06512136291
0.06511590354
0.06511118483
0.06510768241
0.06506607653
0.06509263452
0.06511060985
0.06512091588
0.06512546538
0.065126129
0.06512438417
0.06512128061
0.0651175165
0.06511353401
0.06510960306
0.06510589329
0.06510256814
0.0651000453
0.06501768186
0.06503373013
0.06504806996
0.06505966151
0.065068351
0.06507445965
0.06507848648
0.0650809399
0.06508226137
0.06508280257
0.06508282943
0.06508253882
0.06508208719
0.06508165607
0.06499550985
0.06500328938
0.0650116549
0.06501989802
0.06502755067
0.06503437184
0.0650402878
0.06504532874
0.06504957902
0.06505314357
0.065056127
0.06505861781
0.06506065774
0.06506211753
0.06498782826
0.06499195228
0.06499700281
0.06500268296
0.06500868215
0.06501472899
0.06502061435
0.06502619398
0.06503138026
0.06503612938
0.06504042664
0.06504426485
0.0650475868
0.06505005692
0.06498727611
0.06499220331
0.06499852239
0.06500570444
0.06501321592
0.06502062438
0.06502762863
0.06503404826
0.06503979768
0.0650448583
0.06504925447
0.06505303377
0.06505624702
0.06505890581
0.06506081635
0.06499701502
0.06500885281
0.0650215779
0.065033542
0.06504387524
0.06505230799
0.06505892242
0.06506396167
0.06506771406
0.0650704539
0.06507241715
0.06507379567
0.06507474009
0.06507536365
0.06507573006
0.06503321623
0.06506607888
0.06509263659
0.06511061179
0.06512091753
0.06512546666
0.06512612994
0.06512438486
0.06512128112
0.0651175169
0.06511353434
0.06510960333
0.06510589353
0.06510256836
0.06510004552
0.06522900217
0.06526127359
0.06526565251
0.0652551292
0.06523813923
0.0652193914
0.06520122771
0.06518465597
0.06516999186
0.06515722124
0.06514619547
0.06513674936
0.06512885227
0.06512312148
0.06554136072
0.06549885848
0.06543475712
0.06537353675
0.06532162527
0.06527936809
0.06524536488
0.0652179707
0.06519575239
0.06517757618
0.0651625832
0.0651501612
0.06514002297
0.06513277708
0.06522898516
0.06526126447
0.06526564673
0.0652551254
0.06523813686
0.06521939
0.06520122691
0.06518465551
0.06516999157
0.06515722104
0.06514619531
0.06513674922
0.06512885213
0.06512312133
0.06506607648
0.06509263362
0.06511060884
0.06512091496
0.06512546463
0.06512612841
0.06512438369
0.06512128019
0.06511751612
0.06511353366
0.06510960272
0.06510589297
0.06510256784
0.06510004502
0.06500885224
0.06502157701
0.06503354089
0.06504387409
0.06505230691
0.06505892144
0.06506396078
0.06506771324
0.06507045313
0.06507241641
0.06507379496
0.0650747394
0.06507536298
0.06507572941
0.06499220317
0.06499852212
0.06500570407
0.06501321548
0.06502062391
0.06502762813
0.06503404773
0.06503979712
0.06504485772
0.06504925387
0.06505303314
0.06505624638
0.06505890516
0.06506081568
0.06498907739
0.06499527201
0.06500277438
0.0650108846
0.0650190271
0.06502679666
0.06503394379
0.065040341
0.06504594804
0.06505078228
0.06505489573
0.06505835748
0.06506123677
0.06506356834
0.06506521465
0.06500503877
0.06502118357
0.06503635061
0.06504906824
0.0650590439
0.06506652604
0.06507194391
0.06507573869
0.06507829764
0.06507993677
0.06508090404
0.06508138994
0.06508154107
0.06508147847
0.06508133378
0.06508120977
0.06512806029
0.06515406682
0.06516485
0.06516628052
0.06516253673
0.06515623339
0.06514890239
0.06514139994
0.06513418108
0.06512746978
0.06512136279
0.06511590343
0.06511118472
0.06510768232
0.06548719482
0.06554134889
0.06549885291
0.06543475491
0.06537353583
0.0653216248
0.06527936778
0.06524536464
0.0652179705
0.06519575221
0.06517757603
0.06516258307
0.06515016109
0.06514002286
0.06513277698
0.06686372607
0.06618441052
0.06580975909
0.06559050785
0.06545451154
0.06536539214
0.06530399801
0.06525980711
0.06522679349
0.06520136424
0.06518129817
0.0651652076
0.06515238016
0.06514334571
0.06554136046
0.0654988478
0.06543474932
0.06537353195
0.0653216224
0.06527936634
0.06524536378
0.06521796996
0.06519575185
0.06517757575
0.06516258283
0.06515016087
0.06514002267
0.06513277679
0.06512806138
0.06515406499
0.0651648472
0.06516627789
0.06516253468
0.0651562319
0.06514890131
0.0651413991
0.06513418038
0.06512746918
0.06512136225
0.06511590293
0.06511118424
0.06510768185
0.06502118369
0.06503634998
0.06504906717
0.06505904274
0.06506652498
0.06507194297
0.06507573786
0.06507829688
0.06507993606
0.06508090335
0.06508138928
0.06508154043
0.06508147783
0.06508133315
0.06499527195
0.06500277415
0.06501088423
0.06501902664
0.06502679617
0.06503394326
0.06504034045
0.06504594746
0.06505078167
0.06505489511
0.06505835684
0.06506123611
0.06506356768
0.06506521398
0.06498727604
0.06499220319
0.06499852224
0.06500570428
0.06501321575
0.06502062421
0.06502762846
0.06503404808
0.06503979749
0.06504485811
0.06504925427
0.06505303356
0.06505624681
0.06505890559
0.06506081612
0.06499701435
0.06500885189
0.06502157704
0.06503354123
0.06504387455
0.06505230737
0.06505892187
0.06506396117
0.06506771361
0.06507045349
0.06507241676
0.06507379531
0.06507473975
0.06507536332
0.06507572975
0.0650332104
0.06506607433
0.06509263269
0.06511060899
0.06512091549
0.06512546516
0.06512612882
0.065124384
0.06512128043
0.06511751632
0.06511353384
0.06510960289
0.06510589313
0.06510256799
0.06510004517
0.06515464951
0.06522897797
0.06526125947
0.06526564443
0.06525512433
0.06523813623
0.06521938951
0.06520122647
0.06518465511
0.06516999121
0.06515722071
0.06514619502
0.06513674896
0.0651288519
0.06512312113
0.06548719111
0.06554134502
0.06549884099
0.06543474646
0.0653735306
0.06532162159
0.06527936576
0.06524536331
0.06521796957
0.06519575151
0.06517757546
0.06516258258
0.06515016066
0.06514002248
0.06513277663
0.06515465359
0.06522897663
0.06526125675
0.06526564188
0.06525512237
0.06523813485
0.06521938856
0.06520122581
0.06518465461
0.06516999081
0.06515722037
0.0651461947
0.06513674867
0.06512885163
0.06512312087
0.06506608032
0.06509263376
0.06511060825
0.06512091434
0.0651254641
0.06512612796
0.06512438329
0.06512127983
0.06511751578
0.06511353333
0.06510960241
0.06510589267
0.06510256754
0.06510004472
0.06500885279
0.0650215772
0.06503354092
0.06504387405
0.06505230684
0.06505892134
0.06506396066
0.06506771309
0.06507045297
0.06507241624
0.06507379478
0.06507473921
0.06507536278
0.0650757292
0.06499220327
0.0649985222
0.06500570412
0.0650132155
0.0650206239
0.0650276281
0.06503404767
0.06503979704
0.06504485762
0.06504925375
0.06505303301
0.06505624624
0.06505890501
0.06506081552
0.06498482975
0.06498782825
0.0649919523
0.06499700286
0.06500268302
0.06500868222
0.06501472908
0.06502061445
0.06502619411
0.0650313804
0.06503612954
0.0650404268
0.06504426503
0.06504758698
0.06505005712
0.06498915607
0.06499550969
0.0650032893
0.06501165491
0.06501989807
0.06502755072
0.0650343719
0.06504028786
0.06504532881
0.0650495791
0.06505314365
0.06505612708
0.06505861789
0.06506065783
0.06506211762
0.06500218902
0.06501768101
0.06503372948
0.06504806962
0.06505966131
0.06506835085
0.06507445952
0.06507848635
0.06508093976
0.06508226123
0.06508280244
0.0650828293
0.06508253869
0.06508208707
0.06508165594
0.06503321033
0.06506607374
0.06509263172
0.06511060787
0.06512091445
0.06512546431
0.06512612815
0.06512438346
0.06512127998
0.06511751592
0.06511353348
0.06510960255
0.06510589281
0.06510256768
0.06510004487
0.06508120914
0.06512805646
0.06515406239
0.06516484598
0.06516627725
0.06516253426
0.06515623156
0.06514890101
0.06514139883
0.06513418013
0.06512746895
0.06512136203
0.06511590273
0.06511118407
0.06510768169
0.06503320999
0.06506607299
0.06509263086
0.06511060707
0.06512091381
0.06512546382
0.06512612777
0.06512438315
0.06512127971
0.06511751567
0.06511353324
0.06510960233
0.06510589259
0.06510256747
0.06510004466
0.06500219051
0.06501768185
0.06503372966
0.06504806943
0.065059661
0.06506835054
0.06507445922
0.06507848605
0.06508093946
0.06508226092
0.06508280211
0.06508282896
0.06508253835
0.06508208672
0.06508165559
0.06499551026
0.06500328951
0.06501165492
0.06501989798
0.06502755058
0.06503437171
0.06504028764
0.06504532855
0.0650495788
0.06505314332
0.06505612673
0.06505861751
0.06506065742
0.0650621172
0.06498782836
0.06499195236
0.06499700287
0.06500268299
0.06500868214
0.06501472894
0.06502061427
0.06502619387
0.06503138011
0.06503612921
0.06504042644
0.06504426462
0.06504758655
0.06505005665
0.06498317604
0.06498479802
0.06498717367
0.06499030512
0.06499410806
0.06499844279
0.06500314656
0.06500805859
0.06501303577
0.06501796009
0.06502273961
0.06502730332
0.06503158292
0.06503544419
0.06503840218
0.06498486381
0.06498787368
0.06499195968
0.06499689245
0.06500236619
0.06500808322
0.0650137994
0.06501933786
0.06502458436
0.06502947466
0.06503398018
0.06503809352
0.0650418078
0.06504505963
0.06504750045
0.06498915608
0.06499550968
0.06500328924
0.06501165482
0.06501989796
0.0650275506
0.06503437177
0.06504028772
0.06504532866
0.06504957894
0.06505314349
0.06505612692
0.06505861772
0.06506065765
0.06506211744
0.06499701436
0.0650088517
0.06502157664
0.0650335407
0.06504387397
0.06505230682
0.06505892135
0.06506396069
0.06506771314
0.06507045302
0.0650724163
0.06507379485
0.06507473929
0.06507536287
0.0650757293
0.06500503858
0.06502118274
0.06503634943
0.0650490669
0.0650590426
0.06506652487
0.06507194288
0.06507573777
0.06507829679
0.06507993596
0.06508090325
0.06508138918
0.06508154033
0.06508147774
0.06508133306
0.06499701422
0.06500885151
0.06502157645
0.06503354052
0.06504387383
0.0650523067
0.06505892124
0.06506396057
0.06506771302
0.0650704529
0.06507241617
0.06507379471
0.06507473915
0.06507536272
0.06507572915
0.06498915613
0.06499550969
0.06500328919
0.06501165471
0.06501989783
0.06502755046
0.06503437162
0.06504028756
0.06504532848
0.06504957874
0.06505314326
0.06505612668
0.06505861746
0.06506065738
0.06506211716
0.0649848639
0.06498787375
0.06499195971
0.06499689245
0.06500236617
0.06500808317
0.06501379931
0.06501933774
0.06502458421
0.06502947447
0.06503397995
0.06503809326
0.06504180751
0.06504505931
0.06504750011
0.06498479806
0.0649871737
0.06499030516
0.06499410808
0.06499844279
0.06500314653
0.06500805852
0.06501303566
0.06501795995
0.06502273942
0.0650273031
0.06503158266
0.06503544389
0.06503840185
0.06498242879
0.06498341059
0.06498491973
0.06498702832
0.06498975164
0.0649930507
0.06499684445
0.06500102581
0.06500547698
0.06501008163
0.06501473252
0.06501933244
0.0650237792
0.06502789215
0.06503109729
0.06498317604
0.06498479801
0.06498717366
0.06499030511
0.06499410805
0.06499844277
0.06500314653
0.06500805855
0.06501303573
0.06501796005
0.06502273956
0.06502730326
0.06503158286
0.06503544412
0.0650384021
0.06498482974
0.06498782823
0.06499195225
0.06499700279
0.06500268293
0.06500868211
0.06501472894
0.06502061429
0.06502619392
0.06503138019
0.06503612932
0.06504042657
0.06504426478
0.06504758673
0.06505005684
0.06498727601
0.06499220309
0.06499852206
0.06500570402
0.06501321543
0.06502062385
0.06502762807
0.06503404766
0.06503979704
0.06504485764
0.06504925378
0.06505303306
0.0650562463
0.06505890507
0.0650608156
0.0649890773
0.06499527177
0.06500277401
0.06501088412
0.06501902654
0.06502679607
0.06503394317
0.06504034035
0.06504594737
0.06505078158
0.06505489502
0.06505835676
0.06506123603
0.06506356759
0.0650652139
0.06498727595
0.06499220302
0.06499852199
0.06500570395
0.06501321536
0.06502062378
0.06502762799
0.06503404757
0.06503979694
0.06504485753
0.06504925367
0.06505303293
0.06505624617
0.06505890494
0.06506081546
0.06498482968
0.06498782817
0.06499195218
0.06499700271
0.06500268283
0.06500868199
0.0650147288
0.06502061413
0.06502619374
0.06503137999
0.0650361291
0.06504042633
0.06504426453
0.06504758646
0.06505005658
0.06498317601
0.064984798
0.06498717365
0.06499030511
0.06499410803
0.06499844274
0.06500314647
0.06500805846
0.06501303561
0.0650179599
0.06502273938
0.06502730305
0.06503158262
0.06503544386
0.06503840181
0.06498242881
0.06498341061
0.06498491976
0.06498702836
0.06498975167
0.06499305072
0.06499684446
0.0650010258
0.06500547694
0.06501008156
0.06501473241
0.0650193323
0.06502377903
0.06502789193
0.06503109704
)
;

boundaryField
{
    top
    {
        type            zeroGradient;
    }
    bottom
    {
        type            zeroGradient;
    }
    side-walls
    {
        type            zeroGradient;
    }
    inlet
    {
        type            zeroGradient;
    }
    outlet
    {
        type            zeroGradient;
    }
    procBoundary1to0
    {
        type            processor;
        value           nonuniform List<scalar> 
97
(
0.06498242883
0.06498242883
0.06498317608
0.06498482977
0.06498727594
0.06498907717
0.06498727589
0.06498482967
0.06498317601
0.06498242879
0.06498220516
0.06498486399
0.06498486399
0.06498486399
0.06498915624
0.06499701414
0.06500503793
0.0649970139
0.06498915588
0.06498486373
0.06498317599
0.06498296397
0.06498488754
0.06500219088
0.06500219088
0.06500219088
0.06503321045
0.06508120516
0.06503320818
0.0650021884
0.0649891559
0.06498482967
0.06498405949
0.06498822855
0.06500255706
0.06515466342
0.06515466342
0.06515466342
0.0654871668
0.06515464233
0.06503320837
0.06499701388
0.06498727586
0.06498482797
0.06499131648
0.06501807635
0.06512151041
0.06817121037
0.06817121037
0.06817121037
0.06548717094
0.06548717094
0.0650812055
0.06500503793
0.06498907715
0.06498405947
0.06498822839
0.0650025562
0.06504333784
0.06512151065
0.06504333903
0.06503321458
0.06503321458
0.06503321458
0.06499701451
0.06498727595
0.06498296393
0.06498488743
0.06499043921
0.06500255628
0.06501807654
0.06500255619
0.06499043939
0.0649891565
0.0649891565
0.0649891565
0.06498482976
0.06498220514
0.06498297533
0.06498488744
0.06498822843
0.06499131652
0.06498822836
0.06498488743
0.06498297533
0.06498317603
0.06498317603
0.06498317603
0.0649818577
0.06498220515
0.06498296395
0.06498405949
0.06498482798
0.06498405945
0.06498296391
0.06498220513
0.06498185771
)
;
    }
}


// ************************************************************************* //
