/*--------------------------------*- C++ -*----------------------------------*\
| =========                 |                                                 |
| \\      /  F ield         | OpenFOAM: The Open Source CFD Toolbox           |
|  \\    /   O peration     | Version:  4.x                                   |
|   \\  /    A nd           | Web:      www.OpenFOAM.org                      |
|    \\/     M anipulation  |                                                 |
\*---------------------------------------------------------------------------*/
FoamFile
{
    version     2.0;
    format      ascii;
    class       volScalarField;
    location    "7000";
    object      Cpv;
}
// * * * * * * * * * * * * * * * * * * * * * * * * * * * * * * * * * * * * * //

dimensions      [0 2 -2 -1 0 0 0];

internalField   nonuniform List<scalar> 
1174
(
1277.53296
1277.532789
1277.532563
1277.532281
1277.531932
1277.531498
1277.531025
1277.530529
1277.530025
1277.52952
1277.529027
1277.528555
1277.528117
1277.527771
1277.532963
1277.532697
1277.532349
1277.531897
1277.531428
1277.530943
1277.530416
1277.52986
1277.529359
1277.528851
1277.528331
1277.527873
1277.527449
1277.52714
1277.531939
1277.531505
1277.530981
1277.530363
1277.529736
1277.529091
1277.52846
1277.527847
1277.5273
1277.5268
1277.526345
1277.525928
1277.525547
1277.525251
1277.531832
1277.531166
1277.530393
1277.529568
1277.528784
1277.528006
1277.527321
1277.526714
1277.526158
1277.525686
1277.525285
1277.524922
1277.524651
1277.52444
1277.53154
1277.530727
1277.529824
1277.52894
1277.528064
1277.527305
1277.526597
1277.525995
1277.525452
1277.525016
1277.524627
1277.524313
1277.524053
1277.523887
1277.532152
1277.531483
1277.530708
1277.529871
1277.529079
1277.528337
1277.527639
1277.527007
1277.52646
1277.525993
1277.525608
1277.525259
1277.524965
1277.524749
1277.532238
1277.531773
1277.531226
1277.530609
1277.529975
1277.529308
1277.528671
1277.528075
1277.527501
1277.527007
1277.52655
1277.526107
1277.525758
1277.525477
1277.532579
1277.532302
1277.531977
1277.531542
1277.531024
1277.530503
1277.529968
1277.529423
1277.528877
1277.528358
1277.527881
1277.527394
1277.526972
1277.526641
1277.532856
1277.532687
1277.532457
1277.532172
1277.531815
1277.531393
1277.530936
1277.53045
1277.52995
1277.52946
1277.528957
1277.528493
1277.528044
1277.527703
1277.533317
1277.533152
1277.532921
1277.532568
1277.532149
1277.531665
1277.531143
1277.530631
1277.53012
1277.529577
1277.529063
1277.528563
1277.528099
1277.527681
1277.527373
1277.532487
1277.53203
1277.53149
1277.530915
1277.530318
1277.529667
1277.529059
1277.528513
1277.527984
1277.527489
1277.52708
1277.526672
1277.52631
1277.526031
1277.532218
1277.531377
1277.530474
1277.529579
1277.528746
1277.528009
1277.527327
1277.526795
1277.526339
1277.525948
1277.525657
1277.52539
1277.525154
1277.525007
1277.529916
1277.52855
1277.527251
1277.526154
1277.525225
1277.524498
1277.523956
1277.523557
1277.523279
1277.523088
1277.522962
1277.522863
1277.522771
1277.522777
1277.529416
1277.527742
1277.526373
1277.525284
1277.524454
1277.523893
1277.523509
1277.523239
1277.523058
1277.522949
1277.522918
1277.522925
1277.522933
1277.522959
1277.530522
1277.529164
1277.527844
1277.52675
1277.525832
1277.525112
1277.524578
1277.524172
1277.523892
1277.523663
1277.523529
1277.523434
1277.523343
1277.523307
1277.53154
1277.53069
1277.529757
1277.528846
1277.528024
1277.5273
1277.526656
1277.526122
1277.525668
1277.525269
1277.524941
1277.524668
1277.52444
1277.524297
1277.532633
1277.5322
1277.531667
1277.53107
1277.530441
1277.529799
1277.529197
1277.528662
1277.52812
1277.52764
1277.527191
1277.526807
1277.526451
1277.526176
1277.533116
1277.532845
1277.532514
1277.532103
1277.531638
1277.531132
1277.5306
1277.530102
1277.52955
1277.529012
1277.528522
1277.528039
1277.527611
1277.527287
1277.53257
1277.532226
1277.531743
1277.531179
1277.530565
1277.529909
1277.529238
1277.528591
1277.52798
1277.527401
1277.526875
1277.526414
1277.526004
1277.52564
1277.525401
1277.532329
1277.531641
1277.530774
1277.529837
1277.528919
1277.528093
1277.527349
1277.526703
1277.526166
1277.525715
1277.525337
1277.525016
1277.524769
1277.52456
1277.524381
1277.529596
1277.52784
1277.526272
1277.525004
1277.524039
1277.523381
1277.522944
1277.522688
1277.522556
1277.522521
1277.522539
1277.522568
1277.522621
1277.52264
1277.523495
1277.520584
1277.518647
1277.517545
1277.517047
1277.516986
1277.517187
1277.517561
1277.517966
1277.518424
1277.518842
1277.51923
1277.519617
1277.519916
1277.517673
1277.514849
1277.513721
1277.513593
1277.514019
1277.514747
1277.515542
1277.516343
1277.51715
1277.517889
1277.51856
1277.519168
1277.519662
1277.520042
1277.523274
1277.520358
1277.51841
1277.517298
1277.516823
1277.516772
1277.516991
1277.517337
1277.51774
1277.518189
1277.518657
1277.5191
1277.519461
1277.519707
1277.528028
1277.526275
1277.52469
1277.523449
1277.522505
1277.521846
1277.521405
1277.521121
1277.520975
1277.520955
1277.520962
1277.520987
1277.521074
1277.521161
1277.532419
1277.531562
1277.530624
1277.52975
1277.528911
1277.528186
1277.527556
1277.527026
1277.526581
1277.526204
1277.525853
1277.525597
1277.525363
1277.525211
1277.532188
1277.531707
1277.531187
1277.53056
1277.529906
1277.529263
1277.528631
1277.527982
1277.527395
1277.526887
1277.526423
1277.52603
1277.525682
1277.525437
1277.531641
1277.531082
1277.530404
1277.529656
1277.528846
1277.528025
1277.527301
1277.526585
1277.525966
1277.525435
1277.524983
1277.524561
1277.524221
1277.523907
1277.523726
1277.532258
1277.530988
1277.529598
1277.528301
1277.527168
1277.526241
1277.525491
1277.524952
1277.524556
1277.524225
1277.524003
1277.523838
1277.52375
1277.523709
1277.523673
1277.528223
1277.524637
1277.521721
1277.519764
1277.518643
1277.518156
1277.51807
1277.518299
1277.518627
1277.51905
1277.519503
1277.519919
1277.520351
1277.520737
1277.520985
1277.50775
1277.5043
1277.503873
1277.505104
1277.50697
1277.509063
1277.511074
1277.512867
1277.51447
1277.515869
1277.517064
1277.518093
1277.518952
1277.519591
1277.471086
1277.475957
1277.483174
1277.489954
1277.495672
1277.500305
1277.504044
1277.507067
1277.509477
1277.51146
1277.513115
1277.514466
1277.515567
1277.516364
1277.504814
1277.501326
1277.500899
1277.502112
1277.503988
1277.506017
1277.507994
1277.509811
1277.511382
1277.512765
1277.513961
1277.51499
1277.51587
1277.516486
1277.524749
1277.521842
1277.519904
1277.51882
1277.518339
1277.518274
1277.518455
1277.518785
1277.51918
1277.519609
1277.520064
1277.520475
1277.520815
1277.521083
1277.5296
1277.528212
1277.526925
1277.525799
1277.524889
1277.524146
1277.523626
1277.523222
1277.522913
1277.522716
1277.522593
1277.52248
1277.522435
1277.522388
1277.532387
1277.531707
1277.530916
1277.530111
1277.529315
1277.528549
1277.52786
1277.527225
1277.526678
1277.526213
1277.525805
1277.525449
1277.525156
1277.52495
1277.532178
1277.5315
1277.530697
1277.529838
1277.528958
1277.528126
1277.527373
1277.526658
1277.526041
1277.525534
1277.525108
1277.524712
1277.524403
1277.524146
1277.523964
1277.531187
1277.529415
1277.527749
1277.526361
1277.525278
1277.524439
1277.523849
1277.523437
1277.523159
1277.522981
1277.522894
1277.522835
1277.522825
1277.52283
1277.522853
1277.522393
1277.517243
1277.514415
1277.513262
1277.513129
1277.513556
1277.51426
1277.515099
1277.515948
1277.516749
1277.51748
1277.518139
1277.518732
1277.519239
1277.519615
1277.4771
1277.471305
1277.4762
1277.483378
1277.490158
1277.495862
1277.500509
1277.50422
1277.507195
1277.509637
1277.511618
1277.513264
1277.514621
1277.515769
1277.516569
1276.557686
1276.630764
1276.670704
1276.693935
1276.708161
1276.717312
1276.723435
1276.727658
1276.730664
1276.732794
1276.734372
1276.735529
1276.736287
1276.736621
1277.470789
1277.475679
1277.482878
1277.489689
1277.495409
1277.50006
1277.503771
1277.506777
1277.509197
1277.511158
1277.512797
1277.514132
1277.515228
1277.516025
1277.516672
1277.513872
1277.512746
1277.512603
1277.513009
1277.513721
1277.514553
1277.515398
1277.516179
1277.516896
1277.517576
1277.518186
1277.518707
1277.519096
1277.52831
1277.526663
1277.525291
1277.524202
1277.523393
1277.522826
1277.522401
1277.522126
1277.521955
1277.521854
1277.521797
1277.521794
1277.52179
1277.521811
1277.531597
1277.530783
1277.529923
1277.529018
1277.528183
1277.527417
1277.526717
1277.526127
1277.525617
1277.525176
1277.524831
1277.5245
1277.524269
1277.524063
1277.533521
1277.532975
1277.532297
1277.531539
1277.530702
1277.529911
1277.529158
1277.528449
1277.527803
1277.527269
1277.526763
1277.526373
1277.526023
1277.525726
1277.525544
1277.531528
1277.530237
1277.528855
1277.527566
1277.526447
1277.525513
1277.524793
1277.524245
1277.523831
1277.523546
1277.523317
1277.523184
1277.523072
1277.52303
1277.522974
1277.527563
1277.523975
1277.521085
1277.519148
1277.518078
1277.517613
1277.517517
1277.517709
1277.518041
1277.518455
1277.518855
1277.519271
1277.519705
1277.520035
1277.520301
1277.514224
1277.5061
1277.502668
1277.502241
1277.503418
1277.505305
1277.507355
1277.50935
1277.511178
1277.512771
1277.514144
1277.515362
1277.516366
1277.51727
1277.517935
1277.477261
1277.471466
1277.476372
1277.483589
1277.490389
1277.496121
1277.500744
1277.504481
1277.507471
1277.509891
1277.511856
1277.513487
1277.514794
1277.515921
1277.516711
1277.514788
1277.506678
1277.503209
1277.50279
1277.503981
1277.505834
1277.507869
1277.509854
1277.51164
1277.513228
1277.51464
1277.515872
1277.516879
1277.517752
1277.518365
1277.52398
1277.521102
1277.519166
1277.518048
1277.517591
1277.517527
1277.51772
1277.518045
1277.518445
1277.518869
1277.519324
1277.519756
1277.52011
1277.520393
1277.530104
1277.528717
1277.527403
1277.526277
1277.52537
1277.524659
1277.524116
1277.523744
1277.523441
1277.52324
1277.523117
1277.523013
1277.522938
1277.522901
1277.531972
1277.531295
1277.530492
1277.529665
1277.528884
1277.528103
1277.527436
1277.526812
1277.526258
1277.525785
1277.525389
1277.525041
1277.524762
1277.524547
1277.532568
1277.53226
1277.531784
1277.531234
1277.530593
1277.52994
1277.529287
1277.528618
1277.528033
1277.527468
1277.526942
1277.526481
1277.526089
1277.52574
1277.525477
1277.532769
1277.532091
1277.531246
1277.530333
1277.529455
1277.528615
1277.527855
1277.527196
1277.526642
1277.526166
1277.525786
1277.525469
1277.525181
1277.524968
1277.524767
1277.530029
1277.528359
1277.52661
1277.525039
1277.523765
1277.522816
1277.522134
1277.52169
1277.521452
1277.521319
1277.521263
1277.521239
1277.521301
1277.521341
1277.521429
1277.527491
1277.523864
1277.521021
1277.519062
1277.517994
1277.51753
1277.517462
1277.517643
1277.518003
1277.518454
1277.518899
1277.519319
1277.519714
1277.520093
1277.520365
1277.523029
1277.517897
1277.515095
1277.513946
1277.513827
1277.514232
1277.514907
1277.515718
1277.516553
1277.517344
1277.518096
1277.518754
1277.519353
1277.519875
1277.520279
1277.527344
1277.523744
1277.520873
1277.518932
1277.517827
1277.517342
1277.517249
1277.517457
1277.517799
1277.518208
1277.518644
1277.519096
1277.519474
1277.519835
1277.520121
1277.530947
1277.529291
1277.527553
1277.526005
1277.524727
1277.523806
1277.523157
1277.522743
1277.522513
1277.522412
1277.52237
1277.522357
1277.522405
1277.522461
1277.522491
1277.532126
1277.531292
1277.530394
1277.529489
1277.528655
1277.527896
1277.527249
1277.526712
1277.526257
1277.525869
1277.525523
1277.525259
1277.525059
1277.524885
1277.532197
1277.531728
1277.531178
1277.530587
1277.52993
1277.529234
1277.528588
1277.527977
1277.527423
1277.526915
1277.526477
1277.526041
1277.525697
1277.525426
1277.532772
1277.532612
1277.532349
1277.532048
1277.531615
1277.531155
1277.530637
1277.530088
1277.52955
1277.529001
1277.52849
1277.527996
1277.527507
1277.527065
1277.526775
1277.532194
1277.531865
1277.531413
1277.530877
1277.530299
1277.529657
1277.529017
1277.528434
1277.527873
1277.527333
1277.52684
1277.526389
1277.52599
1277.525621
1277.525343
1277.53307
1277.532383
1277.531517
1277.530621
1277.529706
1277.52888
1277.528139
1277.527482
1277.526955
1277.526522
1277.526131
1277.525811
1277.525531
1277.525296
1277.525147
1277.531916
1277.530638
1277.529254
1277.52797
1277.52687
1277.525956
1277.525245
1277.5247
1277.524281
1277.523954
1277.523715
1277.523577
1277.52349
1277.523429
1277.523353
1277.530998
1277.52925
1277.527598
1277.526216
1277.52513
1277.524368
1277.52375
1277.523359
1277.523073
1277.522896
1277.522802
1277.522744
1277.522698
1277.522713
1277.522712
1277.53245
1277.531159
1277.52977
1277.5285
1277.527376
1277.526447
1277.525706
1277.525159
1277.524744
1277.524432
1277.524236
1277.524092
1277.524003
1277.523919
1277.523923
1277.531848
1277.531142
1277.53028
1277.529346
1277.528476
1277.527659
1277.526938
1277.526308
1277.525751
1277.525289
1277.524903
1277.524593
1277.524318
1277.524095
1277.523954
1277.532245
1277.53192
1277.531465
1277.530918
1277.530328
1277.529701
1277.529043
1277.528441
1277.527864
1277.527331
1277.526834
1277.526381
1277.525979
1277.525631
1277.525375
1277.53297
1277.532696
1277.532326
1277.531906
1277.531437
1277.53093
1277.530391
1277.529825
1277.52929
1277.528766
1277.528284
1277.527832
1277.527405
1277.527119
1277.532591
1277.532476
1277.532289
1277.532099
1277.531814
1277.531443
1277.531006
1277.530546
1277.530067
1277.529587
1277.529093
1277.528583
1277.528093
1277.52767
1277.527326
1277.533114
1277.532921
1277.532669
1277.532349
1277.531937
1277.531469
1277.530978
1277.53046
1277.52992
1277.529408
1277.528883
1277.528387
1277.527909
1277.527484
1277.527174
1277.532768
1277.532453
1277.531993
1277.531465
1277.530845
1277.530201
1277.529545
1277.528895
1277.528286
1277.527719
1277.527194
1277.526748
1277.52633
1277.525992
1277.52572
1277.532854
1277.532297
1277.53159
1277.530804
1277.530016
1277.529226
1277.528477
1277.527745
1277.527114
1277.526574
1277.526091
1277.525658
1277.5253
1277.525023
1277.524817
1277.531853
1277.531178
1277.530369
1277.529468
1277.52856
1277.527706
1277.526925
1277.526216
1277.525603
1277.5251
1277.524687
1277.524352
1277.524043
1277.523796
1277.523629
1277.532482
1277.531924
1277.53124
1277.530453
1277.529608
1277.528782
1277.528035
1277.52733
1277.526732
1277.526159
1277.525671
1277.525243
1277.524938
1277.524653
1277.52446
1277.531574
1277.531274
1277.530809
1277.530261
1277.529671
1277.528997
1277.528376
1277.527729
1277.527119
1277.526566
1277.526075
1277.525611
1277.525201
1277.524871
1277.524612
1277.533083
1277.532901
1277.532642
1277.532306
1277.531909
1277.531434
1277.530902
1277.53038
1277.529865
1277.529326
1277.528813
1277.528329
1277.527861
1277.527425
1277.527107
1277.533418
1277.533326
1277.533154
1277.532932
1277.532662
1277.532299
1277.531879
1277.531428
1277.530976
1277.530438
1277.529944
1277.529447
1277.528965
1277.528515
1277.528157
)
;

boundaryField
{
    top
    {
        type            calculated;
        value           nonuniform List<scalar> 
127
(
1277.533418
1277.532856
1277.533116
1277.532188
1277.532387
1277.531597
1277.531972
1277.532197
1277.53297
1277.533326
1277.532687
1277.532845
1277.531707
1277.531707
1277.530783
1277.531295
1277.531728
1277.532696
1277.533154
1277.532457
1277.532514
1277.531187
1277.530916
1277.529923
1277.530492
1277.531178
1277.532326
1277.532932
1277.532172
1277.532103
1277.53056
1277.530111
1277.529018
1277.529665
1277.530587
1277.531906
1277.532662
1277.531815
1277.531638
1277.529906
1277.529315
1277.528183
1277.528884
1277.52993
1277.531437
1277.532299
1277.531393
1277.531132
1277.529263
1277.528549
1277.527417
1277.528103
1277.529234
1277.53093
1277.531879
1277.530936
1277.5306
1277.528631
1277.52786
1277.526717
1277.527436
1277.528588
1277.530391
1277.531428
1277.53045
1277.530102
1277.527982
1277.527225
1277.526127
1277.526812
1277.527977
1277.529825
1277.530976
1277.52995
1277.52955
1277.527395
1277.526678
1277.525617
1277.526258
1277.527423
1277.52929
1277.530438
1277.52946
1277.529012
1277.526887
1277.526213
1277.525176
1277.525785
1277.526915
1277.528766
1277.529944
1277.528957
1277.528522
1277.526423
1277.525805
1277.524831
1277.525389
1277.526477
1277.528284
1277.529447
1277.528493
1277.528039
1277.52603
1277.525449
1277.5245
1277.525041
1277.526041
1277.527832
1277.528965
1277.528044
1277.527611
1277.525682
1277.525156
1277.524269
1277.524762
1277.525697
1277.527405
1277.528515
1277.527703
1277.527287
1277.525437
1277.52495
1277.524063
1277.524547
1277.525426
1277.527119
1277.528157
)
;
    }
    bottom
    {
        type            calculated;
        value           nonuniform List<scalar> 
134
(
1277.533317
1277.53257
1277.531641
1277.532178
1277.533521
1277.532568
1277.532772
1277.532591
1277.53296
1277.533152
1277.532226
1277.531082
1277.5315
1277.532975
1277.53226
1277.532612
1277.532476
1277.532789
1277.532921
1277.531743
1277.530404
1277.530697
1277.532297
1277.531784
1277.532349
1277.532289
1277.532563
1277.532568
1277.531179
1277.529656
1277.529838
1277.531539
1277.531234
1277.532048
1277.532099
1277.532281
1277.532149
1277.530565
1277.528846
1277.528958
1277.530702
1277.530593
1277.531615
1277.531814
1277.531932
1277.531665
1277.529909
1277.528025
1277.528126
1277.529911
1277.52994
1277.531155
1277.531443
1277.531498
1277.531143
1277.529238
1277.527301
1277.527373
1277.529158
1277.529287
1277.530637
1277.531006
1277.531025
1277.530631
1277.528591
1277.526585
1277.526658
1277.528449
1277.528618
1277.530088
1277.530546
1277.530529
1277.53012
1277.52798
1277.525966
1277.526041
1277.527803
1277.528033
1277.52955
1277.530067
1277.530025
1277.529577
1277.527401
1277.525435
1277.525534
1277.527269
1277.527468
1277.529001
1277.529587
1277.52952
1277.529063
1277.526875
1277.524983
1277.525108
1277.526763
1277.526942
1277.52849
1277.529093
1277.529027
1277.528563
1277.526414
1277.524561
1277.524712
1277.526373
1277.526481
1277.527996
1277.528583
1277.528555
1277.528099
1277.526004
1277.524221
1277.524403
1277.526023
1277.526089
1277.527507
1277.528093
1277.528117
1277.527681
1277.52564
1277.523907
1277.524146
1277.525726
1277.52574
1277.527065
1277.52767
1277.527771
1277.527373
1277.525401
1277.523726
1277.523964
1277.525544
1277.525477
1277.526775
1277.527326
)
;
    }
    side-walls
    {
        type            calculated;
        value           nonuniform List<scalar> 
261
(
1277.53296
1277.532963
1277.531939
1277.531832
1277.53154
1277.532152
1277.532238
1277.532579
1277.532856
1277.532789
1277.532697
1277.531505
1277.531166
1277.530727
1277.531483
1277.531773
1277.532302
1277.532687
1277.532563
1277.532349
1277.530981
1277.530393
1277.529824
1277.530708
1277.531226
1277.531977
1277.532457
1277.532281
1277.531897
1277.530363
1277.529568
1277.52894
1277.529871
1277.530609
1277.531542
1277.532172
1277.531932
1277.531428
1277.529736
1277.528784
1277.528064
1277.529079
1277.529975
1277.531024
1277.531815
1277.531498
1277.530943
1277.529091
1277.528006
1277.527305
1277.528337
1277.529308
1277.530503
1277.531393
1277.531025
1277.530416
1277.52846
1277.527321
1277.526597
1277.527639
1277.528671
1277.529968
1277.530936
1277.530529
1277.52986
1277.527847
1277.526714
1277.525995
1277.527007
1277.528075
1277.529423
1277.53045
1277.530025
1277.529359
1277.5273
1277.526158
1277.525452
1277.52646
1277.527501
1277.528877
1277.52995
1277.52952
1277.528851
1277.5268
1277.525686
1277.525016
1277.525993
1277.527007
1277.528358
1277.52946
1277.529027
1277.528331
1277.526345
1277.525285
1277.524627
1277.525608
1277.52655
1277.527881
1277.528957
1277.528555
1277.527873
1277.525928
1277.524922
1277.524313
1277.525259
1277.526107
1277.527394
1277.528493
1277.528117
1277.527449
1277.525547
1277.524651
1277.524053
1277.524965
1277.525758
1277.526972
1277.528044
1277.527771
1277.52714
1277.525251
1277.52444
1277.523887
1277.524749
1277.525477
1277.526641
1277.527703
1277.532591
1277.533114
1277.532768
1277.532854
1277.531853
1277.532482
1277.531574
1277.533083
1277.533418
1277.532476
1277.532921
1277.532453
1277.532297
1277.531178
1277.531924
1277.531274
1277.532901
1277.533326
1277.532289
1277.532669
1277.531993
1277.53159
1277.530369
1277.53124
1277.530809
1277.532642
1277.533154
1277.532099
1277.532349
1277.531465
1277.530804
1277.529468
1277.530453
1277.530261
1277.532306
1277.532932
1277.531814
1277.531937
1277.530845
1277.530016
1277.52856
1277.529608
1277.529671
1277.531909
1277.532662
1277.531443
1277.531469
1277.530201
1277.529226
1277.527706
1277.528782
1277.528997
1277.531434
1277.532299
1277.531006
1277.530978
1277.529545
1277.528477
1277.526925
1277.528035
1277.528376
1277.530902
1277.531879
1277.530546
1277.53046
1277.528895
1277.527745
1277.526216
1277.52733
1277.527729
1277.53038
1277.531428
1277.530067
1277.52992
1277.528286
1277.527114
1277.525603
1277.526732
1277.527119
1277.529865
1277.530976
1277.529587
1277.529408
1277.527719
1277.526574
1277.5251
1277.526159
1277.526566
1277.529326
1277.530438
1277.529093
1277.528883
1277.527194
1277.526091
1277.524687
1277.525671
1277.526075
1277.528813
1277.529944
1277.528583
1277.528387
1277.526748
1277.525658
1277.524352
1277.525243
1277.525611
1277.528329
1277.529447
1277.528093
1277.527909
1277.52633
1277.5253
1277.524043
1277.524938
1277.525201
1277.527861
1277.528965
1277.52767
1277.527484
1277.525992
1277.525023
1277.523796
1277.524653
1277.524871
1277.527425
1277.528515
1277.527326
1277.527174
1277.52572
1277.524817
1277.523629
1277.52446
1277.524612
1277.527107
1277.528157
)
;
    }
    inlet
    {
        type            calculated;
        value           nonuniform 0();
    }
    outlet
    {
        type            calculated;
        value           nonuniform List<scalar> 
81
(
1277.527771
1277.52714
1277.525251
1277.52444
1277.523887
1277.524749
1277.525477
1277.526641
1277.527703
1277.527373
1277.526031
1277.525007
1277.522777
1277.522959
1277.523307
1277.524297
1277.526176
1277.527287
1277.525401
1277.524381
1277.52264
1277.519916
1277.520042
1277.519707
1277.521161
1277.525211
1277.525437
1277.523726
1277.523673
1277.520985
1277.519591
1277.516364
1277.516486
1277.521083
1277.522388
1277.52495
1277.523964
1277.522853
1277.519615
1277.516569
1276.736621
1277.516025
1277.519096
1277.521811
1277.524063
1277.525544
1277.522974
1277.520301
1277.517935
1277.516711
1277.518365
1277.520393
1277.522901
1277.524547
1277.525477
1277.524767
1277.521429
1277.520365
1277.520279
1277.520121
1277.522491
1277.524885
1277.525426
1277.526775
1277.525343
1277.525147
1277.523353
1277.522712
1277.523923
1277.523954
1277.525375
1277.527119
1277.527326
1277.527174
1277.52572
1277.524817
1277.523629
1277.52446
1277.524612
1277.527107
1277.528157
)
;
    }
    procBoundary1to0
    {
        type            processor;
        value           nonuniform List<scalar> 
97
(
1277.533079
1277.533079
1277.533143
1277.532273
1277.532375
1277.532218
1277.532721
1277.532556
1277.532773
1277.532974
1277.533444
1277.532803
1277.532803
1277.532803
1277.532911
1277.531224
1277.53115
1277.531825
1277.532217
1277.532962
1277.533294
1277.532787
1277.532767
1277.531308
1277.531308
1277.531308
1277.527088
1277.522767
1277.526845
1277.529708
1277.533104
1277.532452
1277.531995
1277.533221
1277.531588
1277.515882
1277.515882
1277.515882
1277.476864
1277.512921
1277.528356
1277.530915
1277.532937
1277.53262
1277.5327
1277.529335
1277.518036
1276.414391
1276.414391
1276.414391
1277.476561
1277.476561
1277.521763
1277.530064
1277.532277
1277.533862
1277.53247
1277.530943
1277.526476
1277.518211
1277.527054
1277.527546
1277.527546
1277.527546
1277.53137
1277.532525
1277.532774
1277.53326
1277.531299
1277.530831
1277.529974
1277.530677
1277.53224
1277.532816
1277.532816
1277.532816
1277.532546
1277.53287
1277.532386
1277.533536
1277.532894
1277.532513
1277.533422
1277.532288
1277.532457
1277.533139
1277.533139
1277.533139
1277.532654
1277.533233
1277.532961
1277.5332
1277.532331
1277.532815
1277.53177
1277.533188
1277.533489
)
;
    }
}


// ************************************************************************* //
