/*--------------------------------*- C++ -*----------------------------------*\
| =========                 |                                                 |
| \\      /  F ield         | OpenFOAM: The Open Source CFD Toolbox           |
|  \\    /   O peration     | Version:  4.x                                   |
|   \\  /    A nd           | Web:      www.OpenFOAM.org                      |
|    \\/     M anipulation  |                                                 |
\*---------------------------------------------------------------------------*/
FoamFile
{
    version     2.0;
    format      ascii;
    class       volScalarField;
    location    "7000";
    object      H2;
}
// * * * * * * * * * * * * * * * * * * * * * * * * * * * * * * * * * * * * * //

dimensions      [0 0 0 0 0 0 0];

internalField   nonuniform List<scalar> 
1174
(
0.00446371455
0.004463635427
0.004463524888
0.00446338214
0.004463209238
0.00446301044
0.004462791371
0.004462558211
0.004462317063
0.004462073552
0.004461832771
0.004461600069
0.004461384891
0.00446121724
0.004463641768
0.004463517197
0.004463353016
0.004463153658
0.004462926461
0.004462679968
0.004462422617
0.004462161912
0.004461904044
0.004461653831
0.004461414989
0.00446119109
0.004460989142
0.004460834476
0.00446348277
0.00446326649
0.004463001667
0.004462703884
0.004462389437
0.004462072564
0.004461764233
0.004461472006
0.004461200473
0.004460951925
0.004460727123
0.00446052643
0.004460352813
0.004460223766
0.004463253116
0.004462921695
0.004462545112
0.00446215134
0.004461763053
0.004461396045
0.004461059775
0.004460758724
0.004460493859
0.004460263893
0.004460066318
0.004459898455
0.004459759662
0.004459659992
0.004463091869
0.004462698399
0.0044622732
0.004461846407
0.004461439247
0.004461064802
0.004460729754
0.004460436211
0.004460183255
0.004459968147
0.004459787253
0.004459636927
0.004459515312
0.004459429511
0.004463253118
0.0044629217
0.004462545118
0.004462151348
0.004461763062
0.004461396055
0.004461059785
0.004460758735
0.00446049387
0.004460263904
0.00446006633
0.004459898467
0.004459759674
0.004459660005
0.004463482774
0.004463266496
0.004463001675
0.004462703895
0.004462389451
0.004462072579
0.00446176425
0.004461472024
0.004461200492
0.004460951945
0.004460727144
0.004460526451
0.004460352835
0.004460223789
0.004463641772
0.004463517203
0.004463353023
0.004463153668
0.004462926473
0.004462679983
0.004462422633
0.004462161931
0.004461904064
0.004461653853
0.004461415013
0.004461191115
0.004460989169
0.004460834503
0.004463714554
0.004463635433
0.004463524894
0.004463382148
0.004463209247
0.004463010452
0.004462791385
0.004462558227
0.004462317082
0.004462073573
0.004461832794
0.004461600094
0.004461384918
0.004461217269
0.004463726828
0.004463641767
0.004463517196
0.004463353015
0.004463153658
0.004462926461
0.004462679968
0.004462422617
0.004462161912
0.004461904044
0.004461653831
0.004461414989
0.00446119109
0.004460989142
0.004460834476
0.004463480366
0.004463266077
0.004463007428
0.004462720468
0.004462420816
0.004462121278
0.004461831131
0.004461556364
0.004461300341
0.004461064554
0.004460849383
0.004460655174
0.004460485222
0.004460357702
0.004463079476
0.004462671431
0.00446223279
0.004461800681
0.00446139963
0.004461042264
0.004460732443
0.004460468576
0.00446024623
0.004460059891
0.004459904062
0.004459774089
0.004459667748
0.004459591714
0.004462378376
0.004461710987
0.004461083885
0.004460542472
0.004460100784
0.004459754486
0.004459490828
0.004459294691
0.004459151685
0.00445904943
0.004458977855
0.004458929047
0.004458897038
0.004458878378
0.004461729154
0.004460934115
0.004460268163
0.004459746064
0.00445935461
0.004459071305
0.004458873064
0.004458739618
0.004458654412
0.004458604445
0.004458579723
0.004458572549
0.004458576547
0.004458584705
0.004462378389
0.004461711006
0.004461083906
0.004460542494
0.004460100805
0.004459754506
0.004459490847
0.004459294709
0.004459151703
0.004459049447
0.004458977871
0.004458929063
0.004458897054
0.004458878393
0.004463079493
0.004462671452
0.004462232815
0.004461800708
0.004461399658
0.004461042293
0.004460732472
0.004460468605
0.004460246258
0.004460059919
0.00445990409
0.004459774116
0.004459667776
0.004459591741
0.004463480375
0.004463266087
0.004463007442
0.004462720485
0.004462420835
0.004462121299
0.004461831154
0.004461556389
0.004461300367
0.004461064581
0.004460849411
0.004460655204
0.004460485253
0.004460357733
0.004463641772
0.004463517203
0.004463353023
0.004463153668
0.004462926474
0.004462679984
0.004462422635
0.004462161933
0.004461904067
0.004461653856
0.004461415017
0.00446119112
0.004460989173
0.004460834509
0.004463640052
0.004463482769
0.004463266489
0.004463001667
0.004462703884
0.004462389438
0.004462072565
0.004461764234
0.004461472007
0.004461200475
0.004460951927
0.004460727125
0.004460526432
0.004460352815
0.004460223768
0.004463412866
0.004463079476
0.004462671432
0.004462232791
0.004461800682
0.004461399631
0.004461042265
0.004460732444
0.004460468577
0.004460246231
0.004460059892
0.004459904063
0.00445977409
0.004459667749
0.004459591715
0.00446191441
0.004461072743
0.004460321187
0.004459713967
0.004459258989
0.004458939363
0.004458728919
0.004458601
0.004458532454
0.004458504833
0.004458504185
0.004458520176
0.004458544572
0.004458567748
0.004459367263
0.004457975729
0.004457035821
0.004456498049
0.004456261609
0.004456228459
0.004456321293
0.004456485198
0.004456683633
0.004456893448
0.004457100505
0.004457295909
0.004457471071
0.004457603985
0.004456095104
0.004454738809
0.004454182418
0.004454114311
0.004454315135
0.004454648551
0.004455034949
0.004455429866
0.004455809663
0.004456162698
0.004456483945
0.004456771151
0.004457019427
0.004457203731
0.004459367355
0.004457975819
0.004457035901
0.004456498117
0.004456261666
0.004456228505
0.004456321331
0.004456485229
0.00445668366
0.004456893471
0.004457100526
0.004457295928
0.00445747109
0.004457604003
0.004461914481
0.004461072806
0.004460321248
0.004459714027
0.004459259045
0.004458939414
0.004458728966
0.004458601042
0.004458532493
0.00445850487
0.00445850422
0.004458520209
0.004458544604
0.004458567779
0.004463079492
0.004462671453
0.004462232818
0.004461800713
0.004461399664
0.004461042299
0.00446073248
0.004460468613
0.004460246268
0.004460059929
0.0044599041
0.004459774127
0.004459667787
0.004459591753
0.004463482775
0.004463266497
0.004463001678
0.004462703899
0.004462389456
0.004462072586
0.004461764258
0.004461472034
0.004461200504
0.004460951958
0.004460727158
0.004460526467
0.004460352852
0.004460223806
0.00446351162
0.004463253117
0.004462921697
0.004462545114
0.004462151342
0.004461763055
0.004461396048
0.004461059778
0.004460758727
0.004460493862
0.004460263896
0.004460066321
0.004459898458
0.004459759665
0.004459659995
0.004462999762
0.004462378372
0.004461710988
0.004461083884
0.00446054247
0.004460100782
0.004459754484
0.004459490827
0.004459294691
0.004459151686
0.004459049432
0.004458977857
0.004458929049
0.00445889704
0.00445887838
0.004461093402
0.004459367268
0.004457975739
0.004457035826
0.004456498051
0.004456261612
0.004456228462
0.004456321297
0.004456485202
0.004456683637
0.004456893452
0.004457100509
0.004457295913
0.004457471075
0.004457603989
0.00445077214
0.004449094682
0.004448882427
0.004449447158
0.004450346195
0.004451334193
0.004452289759
0.004453160904
0.004453931519
0.004454602555
0.004455181909
0.004455678291
0.004456093312
0.004456394514
0.004434229834
0.004436543757
0.004439969433
0.004443217382
0.004445959206
0.004448185076
0.004449973446
0.004451413097
0.004452580325
0.00445353508
0.004454322618
0.004454975141
0.00445550774
0.004455888423
0.004450772655
0.004449094986
0.00444888263
0.004449447296
0.004450346285
0.004451334251
0.004452289795
0.004453160929
0.004453931537
0.00445460257
0.004455181922
0.004455678303
0.004456093324
0.004456394527
0.004459367354
0.004457975846
0.004457035936
0.004456498152
0.004456261697
0.004456228533
0.004456321356
0.004456485253
0.004456683683
0.004456893494
0.004457100547
0.004457295949
0.00445747111
0.004457604023
0.004462378394
0.004461711023
0.004461083929
0.004460542519
0.004460100832
0.004459754533
0.004459490874
0.004459294737
0.004459151731
0.004459049476
0.004458977901
0.004458929093
0.004458897083
0.004458878423
0.00446325312
0.004462921706
0.004462545128
0.004462151361
0.004461763078
0.004461396074
0.004461059807
0.00446075876
0.004460493897
0.004460263933
0.004460066361
0.004459898499
0.004459759707
0.004459660038
0.004463416932
0.004463091874
0.004462698405
0.004462273205
0.004461846411
0.004461439251
0.004461064806
0.004460729758
0.004460436215
0.004460183259
0.004459968151
0.004459787257
0.004459636931
0.004459515316
0.004459429515
0.004462576895
0.00446172917
0.004460934136
0.004460268178
0.004459746075
0.004459354618
0.004459071312
0.00445887307
0.004458739624
0.004458654418
0.00445860445
0.004458579728
0.004458572554
0.004458576552
0.00445858471
0.004458555377
0.004456095171
0.004454738893
0.004454182468
0.004454114338
0.00445431515
0.004454648562
0.004455034958
0.004455429874
0.00445580967
0.004456162704
0.004456483951
0.004456771157
0.004457019433
0.004457203737
0.004437027995
0.004434230228
0.004436543949
0.00443996952
0.004443217424
0.004445959229
0.004448185092
0.004449973459
0.004451413108
0.004452580335
0.004453535088
0.004454322625
0.004454975147
0.004455507746
0.004455888429
0.004364000827
0.004400229896
0.004420161387
0.004431784949
0.004438970115
0.004443666117
0.00444689561
0.004449217925
0.004450952035
0.004452287503
0.004453341264
0.004454186274
0.004454859957
0.004455334467
0.004434229858
0.004436544109
0.004439969723
0.004443217573
0.004445959327
0.004448185156
0.004449973502
0.004451413139
0.00445258036
0.00445353511
0.004454322645
0.004454975166
0.004455507764
0.004455888446
0.004456095141
0.004454738968
0.004454182577
0.004454114442
0.004454315237
0.004454648632
0.004455035014
0.004455429923
0.004455809714
0.004456162745
0.004456483989
0.004456771193
0.004457019468
0.004457203771
0.004461729173
0.004460934166
0.004460268224
0.004459746125
0.004459354668
0.004459071359
0.004458873116
0.004458739669
0.004458654462
0.004458604494
0.004458579772
0.004458572598
0.004458576595
0.004458584753
0.004463091876
0.004462698415
0.004462273221
0.004461846432
0.004461439276
0.004461064834
0.004460729789
0.00446043625
0.004460183297
0.004459968191
0.004459787299
0.004459636974
0.00445951536
0.004459429561
0.00446351162
0.004463253119
0.004462921701
0.00446254512
0.004462151349
0.004461763064
0.004461396057
0.004461059787
0.004460758738
0.004460493873
0.004460263907
0.004460066334
0.004459898471
0.004459759678
0.004459660008
0.004462999781
0.004462378401
0.004461711018
0.004461083915
0.0044605425
0.004460100811
0.004459754512
0.004459490853
0.004459294715
0.004459151709
0.004459049453
0.004458977877
0.004458929069
0.00445889706
0.004458878399
0.004461093579
0.004459367415
0.004457975872
0.004457035931
0.004456498134
0.004456261677
0.004456228514
0.00445632134
0.004456485238
0.004456683669
0.004456893481
0.004457100535
0.004457295937
0.004457471098
0.004457604011
0.004454676284
0.004450772872
0.00444909514
0.004448882712
0.004449447341
0.004450346316
0.004451334276
0.004452289818
0.00445316095
0.004453931556
0.004454602588
0.004455181938
0.004455678317
0.004456093337
0.004456394538
0.004437028103
0.004434230353
0.004436544339
0.004439969833
0.004443217634
0.004445959367
0.004448185186
0.004449973527
0.004451413161
0.004452580378
0.004453535126
0.004454322658
0.004454975177
0.004455507774
0.004455888454
0.004454676157
0.004450772911
0.004449095239
0.004448882812
0.004449447422
0.004450346377
0.004451334323
0.004452289856
0.004453160981
0.004453931584
0.004454602613
0.004455181962
0.004455678339
0.004456093358
0.004456394558
0.004459367247
0.004457975848
0.004457035963
0.004456498181
0.004456261724
0.004456228559
0.004456321381
0.004456485277
0.004456683706
0.004456893517
0.00445710057
0.004457295971
0.004457471131
0.004457604044
0.004462378377
0.004461711018
0.00446108393
0.004460542523
0.004460100838
0.004459754541
0.004459490884
0.004459294748
0.004459151743
0.004459049489
0.004458977914
0.004458929107
0.004458897098
0.004458878438
0.004463253118
0.004462921706
0.004462545128
0.004462151362
0.00446176308
0.004461396078
0.004461059812
0.004460758766
0.004460493905
0.004460263942
0.004460066371
0.00445989851
0.004459759718
0.00445966005
0.004463640054
0.004463482774
0.004463266496
0.004463001676
0.004462703896
0.004462389453
0.004462072581
0.004461764252
0.004461472026
0.004461200495
0.004460951948
0.004460727147
0.004460526455
0.004460352839
0.004460223793
0.004463412882
0.004463079495
0.004462671455
0.004462232817
0.004461800711
0.004461399661
0.004461042296
0.004460732476
0.004460468609
0.004460246263
0.004460059924
0.004459904095
0.004459774121
0.004459667781
0.004459591746
0.004462727797
0.004461914504
0.004461072826
0.004460321261
0.004459714036
0.004459259053
0.004458939421
0.004458728973
0.00445860105
0.004458532501
0.004458504877
0.004458504228
0.004458520217
0.004458544611
0.004458567786
0.004461093582
0.004459367436
0.004457975907
0.004457035973
0.004456498174
0.004456261713
0.004456228546
0.004456321369
0.004456485264
0.004456683694
0.004456893504
0.004457100557
0.004457295958
0.004457471119
0.004457604031
0.004458555394
0.00445609529
0.004454739051
0.004454182621
0.004454114469
0.004454315257
0.004454648649
0.00445503503
0.004455429937
0.004455809727
0.004456162757
0.004456484001
0.004456771204
0.004457019477
0.00445720378
0.004461093592
0.004459367462
0.004457975941
0.004457036005
0.004456498202
0.004456261737
0.004456228568
0.004456321388
0.004456485283
0.004456683712
0.004456893522
0.004457100574
0.004457295975
0.004457471135
0.004457604047
0.004462727756
0.004461914481
0.004461072822
0.004460321269
0.00445971405
0.004459259069
0.004458939439
0.004458728993
0.004458601072
0.004458532524
0.004458504902
0.004458504253
0.004458520243
0.004458544638
0.004458567813
0.00446307948
0.00446267145
0.004462232819
0.004461800716
0.00446139967
0.004461042309
0.004460732492
0.004460468628
0.004460246285
0.004460059948
0.004459904121
0.00445977415
0.004459667811
0.004459591777
0.00446348277
0.004463266494
0.004463001676
0.004462703899
0.004462389458
0.004462072591
0.004461764265
0.004461472043
0.004461200516
0.004460951972
0.004460727174
0.004460526484
0.004460352871
0.004460223827
0.004463726831
0.004463641772
0.004463517203
0.004463353024
0.00446315367
0.004462926476
0.004462679986
0.004462422637
0.004462161935
0.004461904068
0.004461653857
0.004461415017
0.00446119112
0.004460989174
0.004460834508
0.004463638258
0.004463480375
0.004463266089
0.004463007444
0.004462720488
0.004462420838
0.004462121304
0.004461831159
0.004461556394
0.004461300373
0.004461064587
0.004460849417
0.00446065521
0.004460485259
0.004460357739
0.004463412882
0.004463079497
0.004462671457
0.004462232821
0.004461800716
0.004461399667
0.004461042303
0.004460732484
0.004460468618
0.004460246272
0.004460059934
0.004459904106
0.004459774133
0.004459667792
0.004459591758
0.004462999782
0.00446237841
0.004461711035
0.004461083936
0.004460542525
0.004460100837
0.004459754538
0.00445949088
0.004459294743
0.004459151737
0.004459049483
0.004458977907
0.004458929099
0.00445889709
0.004458878429
0.004462576902
0.0044617292
0.004460934182
0.004460268232
0.00445974613
0.004459354673
0.004459071364
0.004458873121
0.004458739675
0.004458654468
0.0044586045
0.004458579778
0.004458572603
0.004458576601
0.004458584759
0.004462999786
0.004462378415
0.004461711041
0.004461083943
0.004460542532
0.004460100844
0.004459754546
0.004459490889
0.004459294752
0.004459151748
0.004459049493
0.004458977918
0.004458929111
0.004458897102
0.004458878441
0.004463412882
0.004463079497
0.00446267146
0.004462232826
0.004461800723
0.004461399676
0.004461042314
0.004460732497
0.004460468632
0.004460246288
0.004460059952
0.004459904124
0.004459774152
0.004459667813
0.00445959178
0.004463638255
0.004463480373
0.004463266088
0.004463007444
0.00446272049
0.004462420843
0.00446212131
0.004461831168
0.004461556406
0.004461300388
0.004461064605
0.004460849437
0.004460655232
0.004460485283
0.004460357764
0.004463641767
0.004463517199
0.004463353022
0.004463153669
0.004462926477
0.004462679989
0.004462422643
0.004462161944
0.004461904081
0.004461653872
0.004461415036
0.004461191141
0.004460989197
0.004460834534
0.004463766031
0.004463714554
0.004463635433
0.004463524895
0.00446338215
0.00446320925
0.004463010455
0.004462791388
0.004462558231
0.004462317086
0.004462073578
0.004461832799
0.004461600099
0.004461384924
0.004461217275
0.00446372683
0.004463641771
0.004463517202
0.004463353024
0.00446315367
0.004462926477
0.004462679987
0.004462422638
0.004462161937
0.004461904071
0.004461653861
0.004461415022
0.004461191125
0.004460989179
0.004460834514
0.004463640053
0.004463482774
0.004463266497
0.004463001679
0.004462703901
0.004462389459
0.004462072589
0.004461764262
0.004461472038
0.004461200508
0.004460951962
0.004460727163
0.004460526471
0.004460352857
0.004460223811
0.004463511621
0.004463253123
0.004462921709
0.004462545131
0.004462151364
0.004461763082
0.004461396078
0.004461059812
0.004460758764
0.004460493902
0.004460263938
0.004460066366
0.004459898504
0.004459759712
0.004459660044
0.004463416934
0.004463091881
0.00446269842
0.004462273226
0.004461846437
0.004461439282
0.00446106484
0.004460729795
0.004460436256
0.004460183302
0.004459968196
0.004459787304
0.004459636979
0.004459515365
0.004459429566
0.004463511622
0.004463253125
0.004462921712
0.004462545135
0.004462151368
0.004461763087
0.004461396084
0.004461059818
0.004460758772
0.00446049391
0.004460263947
0.004460066375
0.004459898514
0.004459759723
0.004459660055
0.004463640055
0.004463482776
0.004463266501
0.004463001684
0.004462703907
0.004462389466
0.004462072599
0.004461764273
0.004461472051
0.004461200523
0.004460951978
0.00446072718
0.00446052649
0.004460352876
0.004460223831
0.00446372683
0.004463641771
0.004463517203
0.004463353025
0.004463153672
0.00446292648
0.004462679992
0.004462422646
0.004462161947
0.004461904083
0.004461653875
0.004461415038
0.004461191143
0.004460989199
0.004460834536
0.004463766029
0.004463714552
0.004463635431
0.004463524894
0.004463382148
0.00446320925
0.004463010456
0.004462791391
0.004462558236
0.004462317094
0.004462073588
0.004461832812
0.004461600115
0.004461384942
0.004461217295
)
;

boundaryField
{
    top
    {
        type            zeroGradient;
    }
    bottom
    {
        type            zeroGradient;
    }
    side-walls
    {
        type            zeroGradient;
    }
    inlet
    {
        type            zeroGradient;
    }
    outlet
    {
        type            zeroGradient;
    }
    procBoundary1to0
    {
        type            processor;
        value           nonuniform List<scalar> 
97
(
0.004463766029
0.004463766029
0.00446372683
0.004463640056
0.004463511626
0.004463416939
0.004463511628
0.004463640058
0.004463726832
0.004463766031
0.004463777749
0.004463638254
0.004463638254
0.004463638254
0.004463412879
0.00446299979
0.004462576924
0.004462999801
0.004463412893
0.004463638262
0.004463726833
0.004463737935
0.004463636951
0.004462727741
0.004462727741
0.004462727741
0.004461093573
0.004458555529
0.004461093661
0.004462727824
0.004463412892
0.004463640058
0.004463680427
0.004463461394
0.004462707478
0.004454675849
0.004454675849
0.004454675849
0.004437028893
0.004454676539
0.004461093653
0.004462999802
0.004463511628
0.004463640048
0.004463298819
0.004461888206
0.004456416304
0.004294220078
0.004294220078
0.004294220078
0.004437028784
0.004437028784
0.004458555528
0.004462576929
0.004463416941
0.004463680426
0.004463461397
0.004462707501
0.004460555985
0.00445641629
0.004460555968
0.004461093461
0.004461093461
0.004461093461
0.00446299978
0.004463511625
0.004463737934
0.004463636952
0.004463345241
0.004462707499
0.004461888199
0.004462707503
0.004463345237
0.004463412872
0.004463412872
0.004463412872
0.004463640054
0.004463777749
0.004463737334
0.004463636952
0.004463461397
0.004463298818
0.004463461398
0.004463636953
0.004463737334
0.004463726828
0.004463726828
0.004463726828
0.004463795975
0.004463777749
0.004463737934
0.004463680427
0.004463640047
0.004463680427
0.004463737934
0.004463777749
0.004463795974
)
;
    }
}


// ************************************************************************* //
