/*--------------------------------*- C++ -*----------------------------------*\
| =========                 |                                                 |
| \\      /  F ield         | OpenFOAM: The Open Source CFD Toolbox           |
|  \\    /   O peration     | Version:  4.x                                   |
|   \\  /    A nd           | Web:      www.OpenFOAM.org                      |
|    \\/     M anipulation  |                                                 |
\*---------------------------------------------------------------------------*/
FoamFile
{
    version     2.0;
    format      ascii;
    class       volScalarField;
    location    "7000";
    object      H2O;
}
// * * * * * * * * * * * * * * * * * * * * * * * * * * * * * * * * * * * * * //

dimensions      [0 0 0 0 0 0 0];

internalField   nonuniform List<scalar> 
1174
(
1.090599459e-05
1.156560429e-05
1.248711621e-05
1.367713402e-05
1.51185483e-05
1.67758771e-05
1.860225842e-05
2.054617302e-05
2.255675134e-05
2.458712154e-05
2.659481463e-05
2.853523215e-05
3.032959697e-05
3.172767691e-05
1.15126975e-05
1.255114638e-05
1.39197953e-05
1.5581688e-05
1.747569466e-05
1.95306202e-05
2.167614782e-05
2.384971252e-05
2.599973057e-05
2.808603082e-05
3.00776143e-05
3.194470867e-05
3.362884219e-05
3.491872609e-05
1.283799974e-05
1.464087242e-05
1.684841044e-05
1.933072954e-05
2.195202583e-05
2.459365448e-05
2.716419094e-05
2.9600598e-05
3.186460736e-05
3.393712325e-05
3.58117718e-05
3.74855154e-05
3.893356438e-05
4.000994881e-05
1.47521509e-05
1.751469592e-05
2.065377941e-05
2.393621291e-05
2.717302984e-05
3.023260722e-05
3.303610706e-05
3.554615746e-05
3.775468821e-05
3.9672402e-05
4.132018175e-05
4.27203496e-05
4.387818741e-05
4.470973204e-05
1.609607295e-05
1.937575518e-05
2.292005822e-05
2.647773864e-05
2.987188438e-05
3.299348885e-05
3.578683697e-05
3.823434439e-05
4.034364209e-05
4.213754274e-05
4.364631214e-05
4.490032569e-05
4.591498892e-05
4.663094224e-05
1.47520863e-05
1.751460103e-05
2.065366017e-05
2.393606571e-05
2.717285709e-05
3.023240202e-05
3.303586499e-05
3.554587822e-05
3.775437277e-05
3.967205333e-05
4.131979737e-05
4.27199353e-05
4.387774199e-05
4.470925827e-05
1.283790462e-05
1.464074313e-05
1.684824893e-05
1.933053292e-05
2.19517839e-05
2.459335773e-05
2.716383323e-05
2.960017793e-05
3.186411748e-05
3.393656545e-05
3.581114882e-05
3.748482979e-05
3.8932815e-05
4.000914708e-05
1.151261807e-05
1.255104341e-05
1.391966889e-05
1.558152927e-05
1.747549164e-05
1.953035799e-05
2.167581504e-05
2.384930045e-05
2.599923515e-05
2.808543852e-05
3.007692918e-05
3.194392899e-05
3.362797564e-05
3.491778091e-05
1.090593716e-05
1.156553495e-05
1.24870312e-05
1.367702438e-05
1.511840065e-05
1.677567624e-05
1.860198866e-05
2.054581818e-05
2.255630181e-05
2.45865649e-05
2.659414887e-05
2.853445115e-05
3.032870244e-05
3.172667915e-05
1.080359964e-05
1.151268728e-05
1.255113616e-05
1.391977493e-05
1.558165914e-05
1.747566301e-05
1.953058435e-05
2.167610894e-05
2.384967688e-05
2.599969602e-05
2.808599503e-05
3.007757853e-05
3.194467386e-05
3.362880991e-05
3.491869157e-05
1.285807027e-05
1.464432455e-05
1.680037189e-05
1.919245629e-05
2.169042872e-05
2.418754714e-05
2.660650322e-05
2.889736819e-05
3.103208971e-05
3.299822524e-05
3.479258897e-05
3.641226437e-05
3.782975419e-05
3.889339585e-05
1.619955126e-05
1.960072221e-05
2.325701541e-05
2.685895641e-05
3.020215792e-05
3.318138519e-05
3.576445177e-05
3.796460734e-05
3.981877027e-05
4.137287635e-05
4.267272186e-05
4.375708302e-05
4.464443868e-05
4.527896846e-05
2.204316045e-05
2.760576212e-05
3.283285569e-05
3.734586915e-05
4.102785996e-05
4.391495713e-05
4.611341769e-05
4.774919576e-05
4.894220236e-05
4.979559043e-05
5.039329046e-05
5.080121332e-05
5.106906566e-05
5.122541629e-05
2.74543045e-05
3.408056474e-05
3.963144826e-05
4.398350585e-05
4.724684788e-05
4.960899069e-05
5.126228357e-05
5.237561677e-05
5.308694514e-05
5.350457522e-05
5.371179201e-05
5.377272658e-05
5.374047748e-05
5.36733038e-05
2.204289761e-05
2.760543185e-05
3.283249155e-05
3.734547955e-05
4.102745297e-05
4.391453157e-05
4.61129628e-05
4.774872406e-05
4.89417018e-05
4.979506553e-05
5.039273486e-05
5.080064316e-05
5.106847873e-05
5.122481218e-05
1.619925559e-05
1.960037145e-05
2.325662177e-05
2.685851772e-05
3.020166841e-05
3.318083688e-05
3.576383703e-05
3.796392296e-05
3.981801882e-05
4.137206554e-05
4.26718508e-05
4.375615998e-05
4.464345759e-05
4.527795146e-05
1.285789931e-05
1.464412909e-05
1.680014824e-05
1.919218947e-05
2.169009842e-05
2.418713596e-05
2.660599772e-05
2.889676299e-05
3.103138227e-05
3.299741295e-05
3.479167352e-05
3.641125738e-05
3.782865829e-05
3.889222119e-05
1.151262306e-05
1.25510461e-05
1.39196642e-05
1.558151073e-05
1.747545431e-05
1.953029478e-05
2.167572294e-05
2.384917533e-05
2.599907269e-05
2.808524773e-05
3.007670439e-05
3.194367328e-05
3.362768626e-05
3.491745929e-05
1.152692201e-05
1.28379909e-05
1.464084724e-05
1.684834853e-05
1.933063855e-05
2.195192062e-05
2.459353857e-05
2.716407004e-05
2.960047718e-05
3.186448889e-05
3.393700856e-05
3.581166067e-05
3.748540735e-05
3.893345584e-05
4.000983851e-05
1.342067099e-05
1.619950739e-05
1.960070887e-05
2.325697281e-05
2.685888723e-05
3.02020737e-05
3.318129386e-05
3.576436058e-05
3.796451557e-05
3.981868533e-05
4.13727939e-05
4.267264386e-05
4.375700983e-05
4.464436056e-05
4.527889855e-05
2.591055039e-05
3.292562629e-05
3.918989944e-05
4.425131161e-05
4.804404734e-05
5.070887771e-05
5.246386885e-05
5.353114288e-05
5.410361211e-05
5.433499914e-05
5.434156782e-05
5.420943456e-05
5.400718498e-05
5.381484463e-05
4.714157202e-05
5.873847919e-05
6.657229407e-05
7.105475154e-05
7.30260751e-05
7.330339796e-05
7.253091247e-05
7.116617686e-05
6.951365791e-05
6.77662614e-05
6.604180887e-05
6.441439933e-05
6.295559537e-05
6.184863721e-05
7.441604049e-05
8.571700182e-05
9.035387219e-05
9.092169354e-05
8.924861088e-05
8.647086589e-05
8.325180999e-05
7.996183098e-05
7.67978625e-05
7.385687741e-05
7.118074521e-05
6.878824258e-05
6.67200855e-05
6.518481374e-05
4.714018371e-05
5.873703232e-05
6.657094233e-05
7.105354988e-05
7.302501096e-05
7.330243036e-05
7.253000779e-05
7.116530616e-05
6.951280669e-05
6.776543178e-05
6.604097598e-05
6.441357351e-05
6.295477495e-05
6.184781898e-05
2.59095832e-05
3.292461775e-05
3.918888489e-05
4.425029541e-05
4.804302392e-05
5.070782586e-05
5.24627727e-05
5.35299967e-05
5.410242102e-05
5.433376056e-05
5.434029836e-05
5.420813666e-05
5.400585558e-05
5.381349502e-05
1.619926655e-05
1.960034194e-05
2.325654521e-05
2.685838828e-05
3.02014776e-05
3.318058428e-05
3.576352047e-05
3.796354751e-05
3.981759157e-05
4.137158946e-05
4.267133617e-05
4.375560841e-05
4.464288006e-05
4.527734892e-05
1.283791321e-05
1.464072647e-05
1.684819354e-05
1.933042119e-05
2.195160108e-05
2.459309206e-05
2.716347703e-05
2.959972636e-05
3.186357844e-05
3.393593881e-05
3.581044234e-05
3.748404975e-05
3.893196605e-05
4.00082356e-05
1.259743118e-05
1.475215243e-05
1.751466977e-05
2.065367888e-05
2.393605131e-05
2.717283391e-05
3.023239454e-05
3.303588682e-05
3.554593284e-05
3.775447045e-05
3.967218993e-05
4.131997403e-05
4.27201467e-05
4.387799309e-05
4.470954111e-05
1.686391237e-05
2.204312349e-05
2.760581613e-05
3.283281347e-05
3.734574194e-05
4.102768196e-05
4.391476756e-05
4.611321524e-05
4.774900097e-05
4.894201295e-05
4.979540577e-05
5.039310899e-05
5.080103718e-05
5.106889844e-05
5.12252563e-05
3.275536087e-05
4.714071737e-05
5.873846373e-05
6.65722676e-05
7.105463344e-05
7.302589544e-05
7.330320027e-05
7.253070931e-05
7.116598835e-05
6.951348479e-05
6.776610399e-05
6.604165577e-05
6.441426463e-05
6.295546084e-05
6.184851175e-05
0.000118786638
0.0001327612583
0.0001345281653
0.0001298205327
0.000122327738
0.0001140943736
0.0001061317826
9.887293291e-05
9.245191106e-05
8.686071218e-05
8.203349599e-05
7.789768401e-05
7.443982152e-05
7.193026556e-05
0.000256681289
0.0002373723214
0.000208813929
0.0001817414365
0.0001588896752
0.0001403395142
0.000125436291
0.0001134395678
0.0001037132204
9.575754696e-05
8.919533511e-05
8.375823899e-05
7.932045782e-05
7.614849181e-05
0.0001187813931
0.0001327564582
0.0001345242132
0.00012981753
0.0001223255305
0.0001140926897
0.0001061304067
9.88717106e-05
9.245077248e-05
8.685962027e-05
8.203244866e-05
7.78966758e-05
7.443883244e-05
7.192928528e-05
4.714027115e-05
5.873651863e-05
6.657011705e-05
7.105261748e-05
7.302405201e-05
7.330146558e-05
7.252902857e-05
7.116431674e-05
6.951179701e-05
6.776440934e-05
6.603996122e-05
6.441256657e-05
6.295378353e-05
6.18468294e-05
2.204289999e-05
2.760518861e-05
3.283204625e-05
3.734487702e-05
4.102670253e-05
4.39136556e-05
4.611196098e-05
4.774760248e-05
4.894048275e-05
4.979376166e-05
5.039137106e-05
5.079922638e-05
5.106702114e-05
5.122332649e-05
1.475209522e-05
1.75145219e-05
2.065346811e-05
2.393574081e-05
2.71723786e-05
3.023175388e-05
3.303504656e-05
3.554489144e-05
3.775322608e-05
3.967076647e-05
4.131838185e-05
4.271840865e-05
4.387612769e-05
4.470756173e-05
1.338665757e-05
1.609607439e-05
1.9375733e-05
2.291992655e-05
2.647752e-05
2.987161196e-05
3.299318961e-05
3.578652644e-05
3.823403076e-05
4.034333459e-05
4.21372402e-05
4.364601505e-05
4.49000338e-05
4.59147112e-05
4.663066593e-05
2.038850397e-05
2.745406407e-05
3.408056386e-05
3.96312942e-05
4.398321421e-05
4.724649099e-05
4.960860858e-05
5.126190292e-05
5.237524731e-05
5.30865932e-05
5.35042408e-05
5.371147673e-05
5.377242612e-05
5.37401968e-05
5.367303176e-05
5.390973809e-05
7.441325494e-05
8.571664815e-05
9.035359908e-05
9.092128718e-05
8.924814183e-05
8.647038354e-05
8.325135417e-05
7.996141824e-05
7.679748358e-05
7.385654342e-05
7.118043648e-05
6.878796856e-05
6.67198262e-05
6.518456935e-05
0.0002333691672
0.0002566637536
0.0002373691177
0.0002088130597
0.0001817408884
0.0001588891756
0.0001403390494
0.0001254358742
0.0001134392058
0.0001037129155
9.575727957e-05
8.919511532e-05
8.375804134e-05
7.932027004e-05
7.614832173e-05
0.000842122
0.0005400581902
0.0003739067844
0.0002770215278
0.00021713629
0.000177999752
0.0001510864533
0.0001317339214
0.0001172834108
0.0001061550099
9.737418859e-05
9.03329339e-05
8.471936923e-05
8.076545078e-05
0.0002566807469
0.0002373656967
0.0002088066772
0.0001817357427
0.0001588856003
0.0001403365517
0.0001254339593
0.0001134375966
0.0001037114684
9.57559355e-05
8.919383338e-05
8.375682693e-05
7.931910995e-05
7.614718153e-05
7.441592044e-05
8.571421831e-05
9.035024487e-05
9.091825925e-05
8.9245582e-05
8.646816266e-05
8.32492984e-05
7.995942385e-05
7.679551876e-05
7.385458038e-05
7.117849646e-05
6.878604644e-05
6.67179294e-05
6.518268829e-05
2.745426978e-05
3.407981077e-05
3.963025846e-05
4.398209395e-05
4.724528876e-05
4.96072836e-05
5.126042809e-05
5.23736307e-05
5.308483045e-05
5.350236841e-05
5.370950784e-05
5.377038838e-05
5.373809187e-05
5.36708881e-05
1.609608094e-05
1.937556747e-05
2.291967013e-05
2.647714198e-05
2.987106031e-05
3.299242335e-05
3.578552658e-05
3.823279919e-05
4.034188322e-05
4.213559711e-05
4.364419614e-05
4.489805986e-05
4.591261226e-05
4.662845286e-05
1.259741955e-05
1.475210251e-05
1.751457171e-05
2.065352847e-05
2.393584807e-05
2.717258228e-05
3.023209353e-05
3.303554033e-05
3.554554566e-05
3.775403455e-05
3.967171642e-05
4.131946513e-05
4.271960176e-05
4.387741882e-05
4.470893819e-05
1.686369641e-05
2.204281096e-05
2.760538177e-05
3.283228038e-05
3.734514225e-05
4.102703852e-05
4.391409251e-05
4.611252232e-05
4.774829039e-05
4.894128178e-05
4.979466029e-05
5.039235382e-05
5.080027044e-05
5.106811982e-05
5.122446767e-05
3.275237857e-05
4.713908288e-05
5.873680617e-05
6.657058727e-05
7.105302033e-05
7.30243991e-05
7.330180752e-05
7.252940481e-05
7.116475664e-05
6.951229306e-05
6.776495328e-05
6.6040547e-05
6.441317482e-05
6.29543982e-05
6.18474669e-05
8.624389361e-05
0.0001187742456
0.0001327548376
0.0001345233363
0.0001298166716
0.000122324653
0.0001140918549
0.0001061296553
9.887103865e-05
9.245018785e-05
8.685911054e-05
8.2031995e-05
7.789626508e-05
7.443846615e-05
7.19289568e-05
0.0002333668565
0.0002566621054
0.0002373618814
0.0002088054081
0.0001817348721
0.0001588848414
0.0001403358693
0.0001254333803
0.0001134371005
0.0001037110465
9.575558034e-05
8.919352976e-05
8.375655422e-05
7.93188722e-05
7.614698326e-05
8.624808288e-05
0.0001187730653
0.0001327512048
0.0001345195665
0.0001298136202
0.00012232232
0.0001140900025
0.0001061280525
9.886958978e-05
9.244882161e-05
8.685780027e-05
8.203072699e-05
7.789504893e-05
7.443729096e-05
7.192781868e-05
4.714115406e-05
5.873604758e-05
6.656901811e-05
7.105132469e-05
7.302272318e-05
7.330012914e-05
7.252768696e-05
7.116298023e-05
6.951047647e-05
6.776310465e-05
6.603867821e-05
6.441131263e-05
6.29525474e-05
6.184561715e-05
2.204323028e-05
2.760523835e-05
3.283186571e-05
3.734452781e-05
4.102622836e-05
4.391306597e-05
4.611127896e-05
4.774685239e-05
4.893966816e-05
4.979290687e-05
5.039048218e-05
5.079830499e-05
5.106608211e-05
5.122237294e-05
1.475219494e-05
1.751456853e-05
2.065344208e-05
2.393562215e-05
2.717216468e-05
3.023144495e-05
3.303464836e-05
3.554440734e-05
3.775266908e-05
3.967014486e-05
4.131770555e-05
4.271768145e-05
4.387535843e-05
4.470676378e-05
1.152689323e-05
1.283791079e-05
1.464070064e-05
1.68481275e-05
1.933034246e-05
2.195154415e-05
2.459308364e-05
2.71635355e-05
2.959985907e-05
3.186378754e-05
3.393623005e-05
3.581080752e-05
3.748448511e-05
3.893246738e-05
4.000879695e-05
1.342043025e-05
1.619924527e-05
1.960031247e-05
2.32564389e-05
2.685823255e-05
3.020132006e-05
3.31804529e-05
3.576343842e-05
3.796351828e-05
3.981761739e-05
4.137166333e-05
4.267145924e-05
4.375577696e-05
4.464308191e-05
4.527758376e-05
1.913076892e-05
2.590932789e-05
3.292445658e-05
3.918854406e-05
4.424981275e-05
4.804246195e-05
5.070724388e-05
5.246220286e-05
5.35294484e-05
5.410189874e-05
5.433327344e-05
5.433983535e-05
5.420770219e-05
5.400544562e-05
5.381310111e-05
3.27524015e-05
4.713864266e-05
5.873592314e-05
6.656948078e-05
7.105186923e-05
7.302325716e-05
7.330069634e-05
7.252830779e-05
7.116366136e-05
6.951120087e-05
6.776387109e-05
6.603947315e-05
6.441212305e-05
6.295336726e-05
6.184644296e-05
5.390970755e-05
7.441128511e-05
8.571292159e-05
9.034943563e-05
9.091742759e-05
8.924477162e-05
8.646740232e-05
8.324861395e-05
7.995881628e-05
7.679497826e-05
7.385410458e-05
7.117807592e-05
6.87856606e-05
6.671758912e-05
6.518236882e-05
3.275213123e-05
4.713772947e-05
5.87346538e-05
6.656819637e-05
7.105070734e-05
7.302221599e-05
7.32997062e-05
7.252733218e-05
7.116267643e-05
6.951021021e-05
6.776287238e-05
6.603847659e-05
6.441113064e-05
6.29523818e-05
6.184546049e-05
1.913134519e-05
2.590941534e-05
3.292415625e-05
3.918801642e-05
4.424913394e-05
4.804164398e-05
5.070628026e-05
5.24610908e-05
5.35282101e-05
5.410055229e-05
5.433183969e-05
5.433833629e-05
5.420616144e-05
5.400387174e-05
5.381150282e-05
1.6199508e-05
1.960037398e-05
2.325636054e-05
2.685799563e-05
3.020089026e-05
3.31798122e-05
3.57625882e-05
3.796246885e-05
3.98163823e-05
4.137027277e-05
4.266993065e-05
4.375412948e-05
4.464133761e-05
4.527576001e-05
1.283802206e-05
1.464078204e-05
1.684815719e-05
1.933026619e-05
2.195131112e-05
2.459265849e-05
2.716289764e-05
2.959900243e-05
3.186271886e-05
3.393495434e-05
3.58093455e-05
3.748285396e-05
3.893068583e-05
4.00068855e-05
1.08035626e-05
1.151261443e-05
1.255100365e-05
1.391957256e-05
1.558138022e-05
1.747530017e-05
1.953013012e-05
2.167555569e-05
2.384901689e-05
2.599892867e-05
2.808512021e-05
3.007659784e-05
3.194358786e-05
3.362762423e-05
3.49174238e-05
1.154185561e-05
1.28578882e-05
1.464406562e-05
1.68000009e-05
1.919197091e-05
2.168982265e-05
2.418682223e-05
2.660565948e-05
2.889640474e-05
3.10310106e-05
3.299703377e-05
3.479129281e-05
3.641087382e-05
3.782827945e-05
3.889184175e-05
1.342043431e-05
1.619921961e-05
1.960023869e-05
2.325631195e-05
2.685804969e-05
3.020107515e-05
3.318014236e-05
3.576306608e-05
3.796308891e-05
3.981713568e-05
4.137113722e-05
4.267089812e-05
4.375518508e-05
4.464246815e-05
4.527694322e-05
1.686370547e-05
2.204263532e-05
2.760498094e-05
3.283168249e-05
3.734438859e-05
4.102615387e-05
4.39130821e-05
4.611139034e-05
4.774705234e-05
4.893995587e-05
4.97932661e-05
5.039090445e-05
5.079878277e-05
5.106659752e-05
5.122291826e-05
2.038848735e-05
2.745348686e-05
3.407942561e-05
3.962980141e-05
4.39815307e-05
4.724468008e-05
4.960668215e-05
5.12598603e-05
5.23730988e-05
5.308433771e-05
5.350190766e-05
5.370908693e-05
5.37699932e-05
5.373773013e-05
5.36705388e-05
1.686359366e-05
2.204240867e-05
2.760467457e-05
3.283133355e-05
3.734400326e-05
4.102572516e-05
4.391260293e-05
4.611085622e-05
4.774646138e-05
4.893931464e-05
4.979258147e-05
5.039018286e-05
5.079803214e-05
5.106583407e-05
5.122213732e-05
1.342043438e-05
1.619916963e-05
1.96001194e-05
2.325610844e-05
2.685774489e-05
3.020065214e-05
3.317959012e-05
3.576238218e-05
3.796227929e-05
3.981621217e-05
4.137011192e-05
4.266978413e-05
4.375399233e-05
4.464121099e-05
4.527564592e-05
1.15419154e-05
1.285793699e-05
1.464409043e-05
1.679996971e-05
1.919184626e-05
2.168957344e-05
2.418642685e-05
2.660510327e-05
2.889568564e-05
3.103013191e-05
3.299600203e-05
3.479011653e-05
3.640956464e-05
3.782685087e-05
3.889032464e-05
1.15126908e-05
1.255106883e-05
1.391960931e-05
1.558135179e-05
1.747516942e-05
1.952986422e-05
2.167513537e-05
2.384842336e-05
2.599815423e-05
2.808416266e-05
3.007546359e-05
3.194228479e-05
3.36261628e-05
3.491582581e-05
1.047679977e-05
1.090592994e-05
1.156549944e-05
1.248695456e-05
1.367690517e-05
1.5118243e-05
1.67754806e-05
1.860176222e-05
2.054556335e-05
2.255602231e-05
2.458626363e-05
2.659383055e-05
2.853411987e-05
3.03283578e-05
3.172633123e-05
1.080356396e-05
1.151261266e-05
1.255099645e-05
1.391955528e-05
1.558134462e-05
1.747524015e-05
1.953004317e-05
2.167544107e-05
2.384886941e-05
2.599874564e-05
2.808490212e-05
3.007634738e-05
3.194330719e-05
3.36273163e-05
3.491708322e-05
1.152689435e-05
1.283789399e-05
1.464065134e-05
1.684802775e-05
1.933017514e-05
2.195129545e-05
2.459274418e-05
2.716310245e-05
2.959933491e-05
3.1863176e-05
3.393553076e-05
3.581003327e-05
3.74836459e-05
3.893156623e-05
4.000783855e-05
1.259741474e-05
1.475202957e-05
1.751439478e-05
2.065321869e-05
2.393538797e-05
2.717195555e-05
3.023129822e-05
3.303457398e-05
3.554441245e-05
3.775275723e-05
3.967030184e-05
4.13179341e-05
4.271797686e-05
4.387570603e-05
4.470715404e-05
1.338664281e-05
1.609590787e-05
1.937536251e-05
2.291934119e-05
2.647671199e-05
2.98705748e-05
3.299191613e-05
3.578502271e-05
3.823230809e-05
4.034141332e-05
4.213514369e-05
4.364376883e-05
4.489765719e-05
4.591222778e-05
4.662808483e-05
1.259738107e-05
1.475196554e-05
1.751429733e-05
2.06530855e-05
2.393521318e-05
2.717172893e-05
3.023100794e-05
3.303422012e-05
3.554400201e-05
3.775228744e-05
3.966978382e-05
4.131736938e-05
4.271736874e-05
4.387506036e-05
4.470647787e-05
1.15268756e-05
1.283785899e-05
1.464058412e-05
1.684791193e-05
1.932998846e-05
2.195102233e-05
2.459236821e-05
2.716261643e-05
2.959873764e-05
3.186246585e-05
3.393471938e-05
3.580912269e-05
3.748264206e-05
3.893048881e-05
4.000669904e-05
1.080356823e-05
1.151261994e-05
1.255099394e-05
1.391952218e-05
1.558125276e-05
1.747506825e-05
1.952976068e-05
2.167503324e-05
2.384832358e-05
2.599806049e-05
2.808407545e-05
3.007538264e-05
3.194220452e-05
3.362609117e-05
3.491575853e-05
1.047681776e-05
1.090595807e-05
1.15655302e-05
1.248697077e-05
1.367688163e-05
1.511814893e-05
1.677529065e-05
1.860144964e-05
2.054511078e-05
2.255541491e-05
2.45854918e-05
2.659288991e-05
2.85330115e-05
3.032708796e-05
3.172491621e-05
)
;

boundaryField
{
    top
    {
        type            zeroGradient;
    }
    bottom
    {
        type            zeroGradient;
    }
    side-walls
    {
        type            zeroGradient;
    }
    inlet
    {
        type            zeroGradient;
    }
    outlet
    {
        type            zeroGradient;
    }
    procBoundary1to0
    {
        type            processor;
        value           nonuniform List<scalar> 
97
(
1.047681641e-05
1.047681641e-05
1.08035615e-05
1.152684217e-05
1.259726314e-05
1.3386411e-05
1.259721421e-05
1.152677527e-05
1.080350396e-05
1.047676724e-05
1.03790763e-05
1.154192643e-05
1.154192643e-05
1.154192643e-05
1.342041342e-05
1.686338441e-05
2.038774587e-05
1.686313968e-05
1.342015097e-05
1.154173999e-05
1.080350751e-05
1.071095558e-05
1.155267186e-05
1.913153457e-05
1.913153457e-05
1.913153457e-05
3.275216042e-05
5.390646281e-05
3.275052894e-05
1.913000376e-05
1.342016112e-05
1.152678323e-05
1.119030444e-05
1.301601305e-05
1.93000762e-05
8.625116301e-05
8.625116301e-05
8.625116301e-05
0.0002333421899
8.62386144e-05
3.275059818e-05
1.686314888e-05
1.25972265e-05
1.15268901e-05
1.437119284e-05
2.61296638e-05
7.174219828e-05
0.001423764234
0.001423764234
0.001423764234
0.0002333437194
0.0002333437194
5.39064173e-05
2.038773763e-05
1.338642961e-05
1.11903152e-05
1.301601825e-05
1.930020318e-05
3.723497642e-05
7.174311691e-05
3.723403609e-05
3.275435368e-05
3.275435368e-05
3.275435368e-05
1.686359229e-05
1.259732013e-05
1.071096297e-05
1.155269874e-05
1.398424562e-05
1.930022464e-05
2.612975054e-05
1.929996137e-05
1.398415519e-05
1.34206048e-05
1.34206048e-05
1.34206048e-05
1.152688742e-05
1.037908136e-05
1.071596495e-05
1.155270333e-05
1.301603219e-05
1.43712049e-05
1.301597142e-05
1.155267196e-05
1.071595598e-05
1.080359362e-05
1.080359362e-05
1.080359362e-05
1.022715378e-05
1.037908229e-05
1.071096592e-05
1.119031732e-05
1.152689311e-05
1.119030034e-05
1.071095199e-05
1.037907834e-05
1.02271544e-05
)
;
    }
}


// ************************************************************************* //
