/*--------------------------------*- C++ -*----------------------------------*\
| =========                 |                                                 |
| \\      /  F ield         | OpenFOAM: The Open Source CFD Toolbox           |
|  \\    /   O peration     | Version:  4.x                                   |
|   \\  /    A nd           | Web:      www.OpenFOAM.org                      |
|    \\/     M anipulation  |                                                 |
\*---------------------------------------------------------------------------*/
FoamFile
{
    version     2.0;
    format      ascii;
    class       volScalarField;
    location    "7000";
    object      molarConc;
}
// * * * * * * * * * * * * * * * * * * * * * * * * * * * * * * * * * * * * * //

dimensions      [0 -3 0 0 1 0 0];

internalField   nonuniform List<scalar> 
1174
(
9.963274586
9.963272523
9.96326902
9.963263928
9.963258166
9.963253226
9.963247534
9.963241114
9.963233987
9.963226585
9.963218989
9.963211416
9.963204501
9.963199382
9.963264534
9.963261147
9.963256522
9.963252395
9.963245349
9.963236549
9.963228384
9.963221227
9.963211711
9.96320358
9.96319759
9.963190519
9.963184677
9.963179453
9.963295029
9.963287643
9.963278286
9.963269249
9.963258378
9.963248131
9.963238307
9.963229795
9.963220781
9.963212481
9.963205105
9.963199106
9.963194972
9.96319255
9.963269171
9.963257952
9.963246086
9.963234481
9.963221573
9.963211244
9.963200404
9.963190392
9.963182733
9.96317556
9.963169151
9.963164892
9.963159906
9.963157154
9.963262078
9.963249877
9.963237985
9.96322492
9.963214106
9.963201836
9.963192311
9.963183123
9.963176394
9.963169406
9.963164669
9.9631603
9.963157092
9.963153935
9.963252868
9.963241812
9.96323001
9.963219059
9.963206568
9.963194412
9.963184203
9.963175487
9.963167353
9.963159893
9.963152711
9.963147743
9.963143907
9.96314142
9.963279785
9.963274019
9.963265848
9.963256724
9.963246217
9.96323709
9.963227556
9.963218165
9.963210512
9.963201877
9.963194626
9.963189955
9.963184182
9.963180981
9.963284081
9.963281236
9.963275416
9.963270465
9.963265928
9.96325891
9.963251158
9.963243461
9.963236209
9.963228612
9.963220489
9.963214881
9.96320893
9.963204781
9.963279888
9.96327772
9.963274377
9.963269472
9.963264152
9.963258612
9.963252056
9.963245101
9.963237756
9.963229627
9.963222515
9.963214561
9.963208193
9.963202808
9.963258117
9.963254915
9.96324972
9.963245374
9.963239548
9.963233288
9.963226342
9.963217411
9.963207977
9.96320061
9.963192767
9.963185806
9.963179033
9.963172881
9.963167596
9.963266806
9.963260906
9.963253195
9.96324342
9.963233034
9.963225425
9.963216945
9.963207395
9.963199513
9.963192696
9.963184329
9.963178743
9.963174154
9.963171053
9.963225879
9.963213142
9.963199441
9.963186187
9.963174045
9.963162939
9.963155577
9.963146791
9.963139803
9.963134437
9.963128142
9.963124149
9.963121807
9.963119009
9.963247526
9.963226207
9.963206945
9.963189158
9.963176354
9.963166306
9.963158114
9.963151783
9.963146591
9.963142526
9.96313931
9.963137807
9.963138248
9.963135472
9.963184444
9.96316143
9.963140521
9.963124968
9.96311397
9.963104069
9.963096752
9.963092436
9.963090137
9.963089028
9.963087363
9.963086138
9.963086379
9.963086277
9.963216673
9.963194921
9.963176766
9.963158811
9.963145491
9.963135073
9.963126404
9.963120505
9.963115377
9.963113211
9.963110434
9.963108701
9.96310912
9.96310848
9.963260372
9.963248091
9.963235878
9.963223479
9.963210733
9.963199004
9.963189658
9.963180992
9.963173923
9.963168965
9.963164555
9.963160842
9.963158078
9.963155114
9.963259378
9.963252228
9.963244145
9.963235513
9.963226767
9.9632187
9.963209913
9.963199795
9.963192606
9.963184982
9.963178656
9.963171839
9.96316689
9.963163622
9.963256737
9.963253573
9.963248109
9.963241886
9.963234695
9.963226887
9.963218987
9.963208898
9.963201922
9.963195345
9.96318786
9.963182
9.963176425
9.9631719
9.963284287
9.963280417
9.963275533
9.963268194
9.963258948
9.963249591
9.963240608
9.963231635
9.963223048
9.963215591
9.963208609
9.963201601
9.963195232
9.963190233
9.963184923
9.963265634
9.963255262
9.963243824
9.96323182
9.963219781
9.96320727
9.963196502
9.963187281
9.963178789
9.963171594
9.963165536
9.963160747
9.963155749
9.963152013
9.963150875
9.963200636
9.963175411
9.963152938
9.963134864
9.963122111
9.963112206
9.963105866
9.963101601
9.963099113
9.963097261
9.963096377
9.963097176
9.963097929
9.963100195
9.963163914
9.963122594
9.96309341
9.963076459
9.963069739
9.96306853
9.963071091
9.963074523
9.963081064
9.96308648
9.963093488
9.963100508
9.963104776
9.963107743
9.963013702
9.962972918
9.962955109
9.962952737
9.962958728
9.962967307
9.962979618
9.962992812
9.963003636
9.963014234
9.963023937
9.963032262
9.963041022
9.963046871
9.963175169
9.96313408
9.963105425
9.963088965
9.963081103
9.963079345
9.963081006
9.963085845
9.963092536
9.963098374
9.963102857
9.963107089
9.96311264
9.963118336
9.963280417
9.963255037
9.963233396
9.963213949
9.963200119
9.963190251
9.963184168
9.963181301
9.963179513
9.963176909
9.963176553
9.963177569
9.963176565
9.963175375
9.963215674
9.963203738
9.963191799
9.963177471
9.963165615
9.963153918
9.963143865
9.963135019
9.963127485
9.96312136
9.963118122
9.963113582
9.963111072
9.96310855
9.963282324
9.963277378
9.963267812
9.963259219
9.963249725
9.963239333
9.963229588
9.963222899
9.963215895
9.963207989
9.963201082
9.963193856
9.963188011
9.963182997
9.963314105
9.963307321
9.96329676
9.963283584
9.963271216
9.963260161
9.963247138
9.963237861
9.963228462
9.963219522
9.963211327
9.963205967
9.963200532
9.963197724
9.963193468
9.963212976
9.963192992
9.963172878
9.963153556
9.963137566
9.963124644
9.963115779
9.963107405
9.963100949
9.963098422
9.963095926
9.963094688
9.963092644
9.963090495
9.963089862
9.963158516
9.963105751
9.963064727
9.963036557
9.963020568
9.96301333
9.963013344
9.963014499
9.963020275
9.96302589
9.963031566
9.963038724
9.963043447
9.963047774
9.963053352
9.962792747
9.962740303
9.962734072
9.962748986
9.96277689
9.962805236
9.962833243
9.962860804
9.962884333
9.962904702
9.962922929
9.962938258
9.962951157
9.962959775
9.96239883
9.962469067
9.962571417
9.962670604
9.962754001
9.962821905
9.962875467
9.96291796
9.962954458
9.962983715
9.963006886
9.963027102
9.963043698
9.963055077
9.962942137
9.962891515
9.962885211
9.962901078
9.962928482
9.962960135
9.962989893
9.963016253
9.963041393
9.963062553
9.963080723
9.963096082
9.96310792
9.963117704
9.96310012
9.963058559
9.963029373
9.963011479
9.963003949
9.963002917
9.963006458
9.963012147
9.963019212
9.963026068
9.963031227
9.963037044
9.963043712
9.963048279
9.963263605
9.963243394
9.963223525
9.963207191
9.963193401
9.963184168
9.963174812
9.963168785
9.963165119
9.96316135
9.963157999
9.963157213
9.963155231
9.963155157
9.963240911
9.963230418
9.963219422
9.963206855
9.963194498
9.963183581
9.963172951
9.963164353
9.963156198
9.963148655
9.9631426
9.963137989
9.963134076
9.963131071
9.96327385
9.963264112
9.963251428
9.963237294
9.963223969
9.96321097
9.963198352
9.963189203
9.963180748
9.963172205
9.963164689
9.963160338
9.963155691
9.963152359
9.963150012
9.963209756
9.963184484
9.963161058
9.963141129
9.963125248
9.963114725
9.963106296
9.963100369
9.963096479
9.963094083
9.963091819
9.963091555
9.963091233
9.963091643
9.963091673
9.963108462
9.963035293
9.962995003
9.962978457
9.962976363
9.962982256
9.962992055
9.963002135
9.963012899
9.963024002
9.963035021
9.963045343
9.963054429
9.963062513
9.963068593
9.96247155
9.962386207
9.962456529
9.962561018
9.962660194
9.962744299
9.962811478
9.962866512
9.962911426
9.962946315
9.962975681
9.962999301
9.963019216
9.963033449
9.963044666
9.999261058
10.00052968
10.00124154
10.00165829
10.00192173
10.00210085
10.00223248
10.00233624
10.00242126
10.00249615
10.00256047
10.00261762
10.00267157
10.0027198
9.962413891
9.962482909
9.962586141
9.962683754
9.962767144
9.962834218
9.962889238
9.962932588
9.962968589
9.962998998
9.963022983
9.963044011
9.963060896
9.963072255
9.963064669
9.963022558
9.963004518
9.963002964
9.963009961
9.963019349
9.963029849
9.963040765
9.963052917
9.963064654
9.963073908
9.963082094
9.963089529
9.96309489
9.963240775
9.963216322
9.963195545
9.963179924
9.963167892
9.96315829
9.963153057
9.963148958
9.963146165
9.963144632
9.963144287
9.963143583
9.963144414
9.963144552
9.963259158
9.963247018
9.963232956
9.963220946
9.963208009
9.963196112
9.963186154
9.963176305
9.963167902
9.963161181
9.963154195
9.963150697
9.963145998
9.963144835
9.963218426
9.963210993
9.963200413
9.963187747
9.963176745
9.963164197
9.963152619
9.963143004
9.963134948
9.963126149
9.963120717
9.963113789
9.963108833
9.963105157
9.963100948
9.963250121
9.963231184
9.963210669
9.963190943
9.963174196
9.963161655
9.963151269
9.963143369
9.963137823
9.963132984
9.963130818
9.963127977
9.963127129
9.963125034
9.963125392
9.963191964
9.963139389
9.96309709
9.963067854
9.963049239
9.963040874
9.963041415
9.963044425
9.963050039
9.963056093
9.963064472
9.963071615
9.963076247
9.963083418
9.963088066
9.962994677
9.962876178
9.962823187
9.962816922
9.962834599
9.962861483
9.962892004
9.962920841
9.962946678
9.962970731
9.962992377
9.963009453
9.963026061
9.963036699
9.963043918
9.962463266
9.962378008
9.962447501
9.96254994
9.962648135
9.962730917
9.962799371
9.962853104
9.962897253
9.962933258
9.962963483
9.962987846
9.963010322
9.963025626
9.96303733
9.962966309
9.962846734
9.962795441
9.962788789
9.962805821
9.962834421
9.962865768
9.962895153
9.96292308
9.962947405
9.962967058
9.9629834
9.962999891
9.963012078
9.963021982
9.963139189
9.963096143
9.963066856
9.963050695
9.963041951
9.963040814
9.963043826
9.963049735
9.963056515
9.963063673
9.963068817
9.963073566
9.963079524
9.963083312
9.96323797
9.963217663
9.963199178
9.963182857
9.963168906
9.963158053
9.963149869
9.963142201
9.963138244
9.963134666
9.963131291
9.963130049
9.963129574
9.963129005
9.963262044
9.963251374
9.963241021
9.963229515
9.963216455
9.963206263
9.963194501
9.963185307
9.963177523
9.9631704
9.963163729
9.963158687
9.963154093
9.96315157
9.963284382
9.963278667
9.963273436
9.963265433
9.963257499
9.963247995
9.963238114
9.963230234
9.963220328
9.963212162
9.963205205
9.963198158
9.96319088
9.96318507
9.963180991
9.963243216
9.963232332
9.963219833
9.963206561
9.963192483
9.963180638
9.963170753
9.963162191
9.963154528
9.963148556
9.963142623
9.963137653
9.963134712
9.96313121
9.963131153
9.963289357
9.963263557
9.96323796
9.963215619
9.963197831
9.963184259
9.963175569
9.963169626
9.963164409
9.963161967
9.963161167
9.963162427
9.963161578
9.963162995
9.963161733
9.963195643
9.963145027
9.963100334
9.963072168
9.963053476
9.963045075
9.963044161
9.963047749
9.963051912
9.963056096
9.963062187
9.963069125
9.963075767
9.963080457
9.963084792
9.963076097
9.963001986
9.962960263
9.962943434
9.962940646
9.962947704
9.962958958
9.962970523
9.96298198
9.962993594
9.963003569
9.963013969
9.963022697
9.963030067
9.963034694
9.963203117
9.963151064
9.96310779
9.963078709
9.963061891
9.963054558
9.963054957
9.963057154
9.963062217
9.963068585
9.963075074
9.963080407
9.96308794
9.963093508
9.963097153
9.963242648
9.963216121
9.963189939
9.963166434
9.963148848
9.963133863
9.963123481
9.963115988
9.963110396
9.963106304
9.963104769
9.963105459
9.963105324
9.963105903
9.963107622
9.963230588
9.96321746
9.963203482
9.963190723
9.963178596
9.963168606
9.963159453
9.963150902
9.963143864
9.963138362
9.963134857
9.963130698
9.963126469
9.963125054
9.963281879
9.963276309
9.963268281
9.963257834
9.963248488
9.9632408
9.963231742
9.963223112
9.96321442
9.963206481
9.963198283
9.963193232
9.963187202
9.963183482
9.963285808
9.963282395
9.963278858
9.9632718
9.963266747
9.963259219
9.963252071
9.963245053
9.96323696
9.963229892
9.963221871
9.9632146
9.963209111
9.963204158
9.963197951
9.963303184
9.963298433
9.963292257
9.963284357
9.963274748
9.963266634
9.963258495
9.963248717
9.963239897
9.963232604
9.963225695
9.963219448
9.963213372
9.963209151
9.96320598
9.963227933
9.96321748
9.963206009
9.963191936
9.963179686
9.963167166
9.963156303
9.963147592
9.963138557
9.963130421
9.963125058
9.963120242
9.96311688
9.963114472
9.963111791
9.963230376
9.963210777
9.96319034
9.963170348
9.963152654
9.96313911
9.963128215
9.963120159
9.963114863
9.963112134
9.963110498
9.963107866
9.963105801
9.963104617
9.96310602
9.963219412
9.963192887
9.963168682
9.963148423
9.963132678
9.963118277
9.963111251
9.963104243
9.963100777
9.963098283
9.963096376
9.963096099
9.963097566
9.963097475
9.963098719
9.963203207
9.963184252
9.963164044
9.963143361
9.963126895
9.963114084
9.963104715
9.963096771
9.963091266
9.963087772
9.963083925
9.963081644
9.963079626
9.963079663
9.963076985
9.963290101
9.963280662
9.963268959
9.963256791
9.963242248
9.963229287
9.963217376
9.9632073
9.963199794
9.963193107
9.963187476
9.963182135
9.963178579
9.963175531
9.963172405
9.963300605
9.963295646
9.963289646
9.96328229
9.963273237
9.963264372
9.96325714
9.963248327
9.96324035
9.963232657
9.963225955
9.963219781
9.963213885
9.96320852
9.963204287
9.963264174
9.963261166
9.963257647
9.963251908
9.963244857
9.963237168
9.963229611
9.963222946
9.963215112
9.963207808
9.963199886
9.963192472
9.963186801
9.963180391
9.963300371
9.963299234
9.963297991
9.9632926
9.963287695
9.963283087
9.963278281
9.963271892
9.963264602
9.963256229
9.963248281
9.963241525
9.963234891
9.963227215
9.963221941
9.9632684
9.963266652
9.96326256
9.96325648
9.963250351
9.963243262
9.9632347
9.963226079
9.963218152
9.963209162
9.963201888
9.963194697
9.963188642
9.963182843
9.963177658
9.963274235
9.963268841
9.963262809
9.963253629
9.963244683
9.963234661
9.963224993
9.963216112
9.963207402
9.963199361
9.963192318
9.963184495
9.963178537
9.963172222
9.963168563
9.963252349
9.963245533
9.963236381
9.963225108
9.963211647
9.963199049
9.963187216
9.963178778
9.963169973
9.96316148
9.963154842
9.963150057
9.963145529
9.963140822
9.963137848
9.963290381
9.963280475
9.963268078
9.96325606
9.96324419
9.963232286
9.963221104
9.963211626
9.963202934
9.963194217
9.963186021
9.963178548
9.963173931
9.963170039
9.963166924
9.963271271
9.963264513
9.963254177
9.963242984
9.963232417
9.963221628
9.963209703
9.963199854
9.963189402
9.963182555
9.963176179
9.963171142
9.963163925
9.963159618
9.963155987
9.963334962
9.96332884
9.963323065
9.963314895
9.963304404
9.963295926
9.963284424
9.96327542
9.963266751
9.96325802
9.963249223
9.963242301
9.963235964
9.963229198
9.963224898
9.963269977
9.963267672
9.96326393
9.963258672
9.963251741
9.963245006
9.963238573
9.963230131
9.963220927
9.963213291
9.963205378
9.963197574
9.963191016
9.963185799
9.963180982
9.963258266
9.96325599
9.963253938
9.963250203
9.963244538
9.963239498
9.963233834
9.963227008
9.963218283
9.963212877
9.963204963
9.963197532
9.96319045
9.963184143
9.963179576
)
;

boundaryField
{
    top
    {
        type            calculated;
        value           nonuniform List<scalar> 
127
(
9.963258266
9.963279888
9.963256737
9.963282324
9.963240911
9.963259158
9.963262044
9.963281879
9.963264174
9.96325599
9.96327772
9.963253573
9.963277378
9.963230418
9.963247018
9.963251374
9.963276309
9.963261166
9.963253938
9.963274377
9.963248109
9.963267812
9.963219422
9.963232956
9.963241021
9.963268281
9.963257647
9.963250203
9.963269472
9.963241886
9.963259219
9.963206855
9.963220946
9.963229515
9.963257834
9.963251908
9.963244538
9.963264152
9.963234695
9.963249725
9.963194498
9.963208009
9.963216455
9.963248488
9.963244857
9.963239498
9.963258612
9.963226887
9.963239333
9.963183581
9.963196112
9.963206263
9.9632408
9.963237168
9.963233834
9.963252056
9.963218987
9.963229588
9.963172951
9.963186154
9.963194501
9.963231742
9.963229611
9.963227008
9.963245101
9.963208898
9.963222899
9.963164353
9.963176305
9.963185307
9.963223112
9.963222946
9.963218283
9.963237756
9.963201922
9.963215895
9.963156198
9.963167902
9.963177523
9.96321442
9.963215112
9.963212877
9.963229627
9.963195345
9.963207989
9.963148655
9.963161181
9.9631704
9.963206481
9.963207808
9.963204963
9.963222515
9.96318786
9.963201082
9.9631426
9.963154195
9.963163729
9.963198283
9.963199886
9.963197532
9.963214561
9.963182
9.963193856
9.963137989
9.963150697
9.963158687
9.963193232
9.963192472
9.96319045
9.963208193
9.963176425
9.963188011
9.963134076
9.963145998
9.963154093
9.963187202
9.963186801
9.963184143
9.963202808
9.9631719
9.963182997
9.963131071
9.963144835
9.96315157
9.963183482
9.963180391
9.963179576
)
;
    }
    bottom
    {
        type            calculated;
        value           nonuniform List<scalar> 
134
(
9.963258117
9.963284287
9.963314105
9.96327385
9.963218426
9.963284382
9.963285808
9.963300371
9.963274586
9.963254915
9.963280417
9.963307321
9.963264112
9.963210993
9.963278667
9.963282395
9.963299234
9.963272523
9.96324972
9.963275533
9.96329676
9.963251428
9.963200413
9.963273436
9.963278858
9.963297991
9.96326902
9.963245374
9.963268194
9.963283584
9.963237294
9.963187747
9.963265433
9.9632718
9.9632926
9.963263928
9.963239548
9.963258948
9.963271216
9.963223969
9.963176745
9.963257499
9.963266747
9.963287695
9.963258166
9.963233288
9.963249591
9.963260161
9.96321097
9.963164197
9.963247995
9.963259219
9.963283087
9.963253226
9.963226342
9.963240608
9.963247138
9.963198352
9.963152619
9.963238114
9.963252071
9.963278281
9.963247534
9.963217411
9.963231635
9.963237861
9.963189203
9.963143004
9.963230234
9.963245053
9.963271892
9.963241114
9.963207977
9.963223048
9.963228462
9.963180748
9.963134948
9.963220328
9.96323696
9.963264602
9.963233987
9.96320061
9.963215591
9.963219522
9.963172205
9.963126149
9.963212162
9.963229892
9.963256229
9.963226585
9.963192767
9.963208609
9.963211327
9.963164689
9.963120717
9.963205205
9.963221871
9.963248281
9.963218989
9.963185806
9.963201601
9.963205967
9.963160338
9.963113789
9.963198158
9.9632146
9.963241525
9.963211416
9.963179033
9.963195232
9.963200532
9.963155691
9.963108833
9.96319088
9.963209111
9.963234891
9.963204501
9.963172881
9.963190233
9.963197724
9.963152359
9.963105157
9.96318507
9.963204158
9.963227215
9.963199382
9.963167596
9.963184923
9.963193468
9.963150012
9.963100948
9.963180991
9.963197951
9.963221941
)
;
    }
    side-walls
    {
        type            calculated;
        value           nonuniform List<scalar> 
261
(
9.963274586
9.963264534
9.963295029
9.963269171
9.963262078
9.963252868
9.963279785
9.963284081
9.963279888
9.963272523
9.963261147
9.963287643
9.963257952
9.963249877
9.963241812
9.963274019
9.963281236
9.96327772
9.96326902
9.963256522
9.963278286
9.963246086
9.963237985
9.96323001
9.963265848
9.963275416
9.963274377
9.963263928
9.963252395
9.963269249
9.963234481
9.96322492
9.963219059
9.963256724
9.963270465
9.963269472
9.963258166
9.963245349
9.963258378
9.963221573
9.963214106
9.963206568
9.963246217
9.963265928
9.963264152
9.963253226
9.963236549
9.963248131
9.963211244
9.963201836
9.963194412
9.96323709
9.96325891
9.963258612
9.963247534
9.963228384
9.963238307
9.963200404
9.963192311
9.963184203
9.963227556
9.963251158
9.963252056
9.963241114
9.963221227
9.963229795
9.963190392
9.963183123
9.963175487
9.963218165
9.963243461
9.963245101
9.963233987
9.963211711
9.963220781
9.963182733
9.963176394
9.963167353
9.963210512
9.963236209
9.963237756
9.963226585
9.96320358
9.963212481
9.96317556
9.963169406
9.963159893
9.963201877
9.963228612
9.963229627
9.963218989
9.96319759
9.963205105
9.963169151
9.963164669
9.963152711
9.963194626
9.963220489
9.963222515
9.963211416
9.963190519
9.963199106
9.963164892
9.9631603
9.963147743
9.963189955
9.963214881
9.963214561
9.963204501
9.963184677
9.963194972
9.963159906
9.963157092
9.963143907
9.963184182
9.96320893
9.963208193
9.963199382
9.963179453
9.96319255
9.963157154
9.963153935
9.96314142
9.963180981
9.963204781
9.963202808
9.963300371
9.9632684
9.963274235
9.963252349
9.963290381
9.963271271
9.963334962
9.963269977
9.963258266
9.963299234
9.963266652
9.963268841
9.963245533
9.963280475
9.963264513
9.96332884
9.963267672
9.96325599
9.963297991
9.96326256
9.963262809
9.963236381
9.963268078
9.963254177
9.963323065
9.96326393
9.963253938
9.9632926
9.96325648
9.963253629
9.963225108
9.96325606
9.963242984
9.963314895
9.963258672
9.963250203
9.963287695
9.963250351
9.963244683
9.963211647
9.96324419
9.963232417
9.963304404
9.963251741
9.963244538
9.963283087
9.963243262
9.963234661
9.963199049
9.963232286
9.963221628
9.963295926
9.963245006
9.963239498
9.963278281
9.9632347
9.963224993
9.963187216
9.963221104
9.963209703
9.963284424
9.963238573
9.963233834
9.963271892
9.963226079
9.963216112
9.963178778
9.963211626
9.963199854
9.96327542
9.963230131
9.963227008
9.963264602
9.963218152
9.963207402
9.963169973
9.963202934
9.963189402
9.963266751
9.963220927
9.963218283
9.963256229
9.963209162
9.963199361
9.96316148
9.963194217
9.963182555
9.96325802
9.963213291
9.963212877
9.963248281
9.963201888
9.963192318
9.963154842
9.963186021
9.963176179
9.963249223
9.963205378
9.963204963
9.963241525
9.963194697
9.963184495
9.963150057
9.963178548
9.963171142
9.963242301
9.963197574
9.963197532
9.963234891
9.963188642
9.963178537
9.963145529
9.963173931
9.963163925
9.963235964
9.963191016
9.96319045
9.963227215
9.963182843
9.963172222
9.963140822
9.963170039
9.963159618
9.963229198
9.963185799
9.963184143
9.963221941
9.963177658
9.963168563
9.963137848
9.963166924
9.963155987
9.963224898
9.963180982
9.963179576
)
;
    }
    inlet
    {
        type            calculated;
        value           nonuniform 0();
    }
    outlet
    {
        type            calculated;
        value           nonuniform List<scalar> 
81
(
9.963199382
9.963179453
9.96319255
9.963157154
9.963153935
9.96314142
9.963180981
9.963204781
9.963202808
9.963167596
9.963171053
9.963119009
9.963135472
9.963086277
9.96310848
9.963155114
9.963163622
9.9631719
9.963184923
9.963150875
9.963100195
9.963107743
9.963046871
9.963118336
9.963175375
9.96310855
9.963182997
9.963193468
9.963089862
9.963053352
9.962959775
9.963055077
9.963117704
9.963048279
9.963155157
9.963131071
9.963150012
9.963091673
9.963068593
9.963044666
10.0027198
9.963072255
9.96309489
9.963144552
9.963144835
9.963100948
9.963125392
9.963088066
9.963043918
9.96303733
9.963021982
9.963083312
9.963129005
9.96315157
9.963180991
9.963131153
9.963161733
9.963084792
9.963034694
9.963097153
9.963107622
9.963125054
9.963183482
9.963197951
9.96320598
9.963111791
9.96310602
9.963098719
9.963076985
9.963172405
9.963204287
9.963180391
9.963221941
9.963177658
9.963168563
9.963137848
9.963166924
9.963155987
9.963224898
9.963180982
9.963179576
)
;
    }
    procBoundary1to0
    {
        type            processor;
        value           nonuniform List<scalar> 
97
(
9.963275542
9.963275542
9.963266955
9.963299412
9.963276736
9.96327181
9.963259102
9.963285001
9.963285787
9.9632809
9.963258573
9.963272179
9.963272179
9.963272179
9.963235997
9.963265543
9.963211613
9.96323499
9.963271334
9.963264101
9.963259271
9.963286553
9.963273824
9.963224262
9.963224262
9.963224262
9.963216146
9.963089294
9.963228457
9.963305632
9.963226172
9.963290279
9.963319032
9.963226837
9.963207166
9.962910633
9.962910633
9.962910633
9.962481921
9.963060795
9.963151581
9.963281262
9.963248121
9.963281718
9.963231171
9.963210061
9.963037772
9.996932795
9.996932795
9.996932795
9.962497335
9.962497335
9.963140396
9.963266921
9.963268792
9.963224032
9.963265045
9.963240035
9.963173924
9.963028942
9.963144402
9.963192951
9.963192951
9.963192951
9.963258121
9.963269079
9.963287219
9.963248738
9.963308825
9.963245705
9.963177582
9.963253543
9.963260899
9.963240853
9.963240853
9.963240853
9.963285537
9.963287778
9.9633069
9.963234709
9.963243452
9.963240701
9.963216619
9.963298197
9.963303288
9.963267151
9.963267151
9.963267151
9.963301247
9.963269271
9.963277727
9.963257739
9.963296428
9.963277329
9.963338318
9.963271578
9.963258732
)
;
    }
}


// ************************************************************************* //
