/*--------------------------------*- C++ -*----------------------------------*\
| =========                 |                                                 |
| \\      /  F ield         | OpenFOAM: The Open Source CFD Toolbox           |
|  \\    /   O peration     | Version:  4.x                                   |
|   \\  /    A nd           | Web:      www.OpenFOAM.org                      |
|    \\/     M anipulation  |                                                 |
\*---------------------------------------------------------------------------*/
FoamFile
{
    version     2.0;
    format      ascii;
    class       volScalarField;
    location    "7000";
    object      N2;
}
// * * * * * * * * * * * * * * * * * * * * * * * * * * * * * * * * * * * * * //

dimensions      [0 0 0 0 0 0 0];

internalField   nonuniform List<scalar> 
1174
(
0.6203622357
0.6203615149
0.620360508
0.6203592075
0.6203576323
0.6203558209
0.6203538246
0.6203516997
0.6203495018
0.620347282
0.6203450867
0.6203429648
0.6203410023
0.6203394732
0.6203615729
0.6203604383
0.6203589428
0.6203571268
0.6203550569
0.6203528111
0.620350466
0.62034809
0.6203457395
0.6203434584
0.6203412806
0.6203392387
0.6203373966
0.6203359855
0.6203601253
0.6203581556
0.6203557435
0.620353031
0.6203501664
0.6203472793
0.6203444696
0.6203418061
0.6203393308
0.6203370645
0.6203350142
0.6203331833
0.620331599
0.6203304211
0.620358035
0.6203550169
0.6203515869
0.620348
0.6203444625
0.6203411185
0.6203380539
0.6203353097
0.6203328947
0.6203307973
0.6203289946
0.6203274624
0.6203261949
0.6203252844
0.6203565681
0.6203529849
0.620349112
0.6203452239
0.6203415143
0.6203381022
0.6203350485
0.6203323725
0.6203300658
0.6203281035
0.6203264526
0.6203250799
0.6203239688
0.6203231846
0.620358035
0.620355017
0.620351587
0.6203480001
0.6203444627
0.6203411186
0.6203380541
0.6203353099
0.620332895
0.6203307975
0.6203289949
0.6203274627
0.6203261953
0.6203252848
0.6203601254
0.6203581557
0.6203557437
0.6203530312
0.6203501666
0.6203472795
0.6203444699
0.6203418065
0.6203393312
0.620337065
0.6203350147
0.6203331838
0.6203315995
0.6203304217
0.620361573
0.6203604384
0.6203589429
0.6203571269
0.6203550571
0.6203528113
0.6203504662
0.6203480903
0.6203457399
0.6203434589
0.6203412811
0.6203392393
0.6203373972
0.6203359862
0.6203622357
0.620361515
0.620360508
0.6203592076
0.6203576324
0.6203558211
0.6203538249
0.6203517
0.6203495021
0.6203472824
0.6203450872
0.6203429653
0.620341003
0.6203394739
0.6203623476
0.6203615729
0.6203604383
0.6203589428
0.6203571268
0.6203550569
0.6203528111
0.620350466
0.62034809
0.6203457395
0.6203434585
0.6203412807
0.6203392387
0.6203373966
0.6203359856
0.6203601035
0.6203581519
0.6203557961
0.6203531822
0.6203504523
0.6203477231
0.620345079
0.6203425747
0.6203402407
0.6203380907
0.6203361282
0.6203343564
0.6203328055
0.6203316415
0.6203564547
0.620352739
0.6203487438
0.6203448076
0.6203411537
0.6203378972
0.6203350733
0.6203326676
0.6203306397
0.6203289395
0.6203275169
0.6203263297
0.6203253578
0.6203246626
0.6203500768
0.6203439993
0.6203382867
0.6203333535
0.6203293281
0.6203261712
0.6203237667
0.6203219769
0.6203206709
0.6203197359
0.6203190801
0.6203186318
0.6203183365
0.6203181636
0.6203441762
0.6203369347
0.6203308654
0.6203261054
0.6203225356
0.6203199511
0.6203181416
0.6203169222
0.6203161422
0.620315683
0.6203154538
0.6203153844
0.6203154169
0.6203154882
0.6203500769
0.6203439996
0.620338287
0.6203333538
0.6203293284
0.6203261715
0.620323767
0.6203219773
0.6203206713
0.6203197363
0.6203190805
0.6203186322
0.6203183369
0.620318164
0.620356455
0.6203527393
0.6203487442
0.6203448079
0.6203411541
0.6203378976
0.6203350738
0.6203326681
0.6203306403
0.6203289401
0.6203275176
0.6203263304
0.6203253585
0.6203246633
0.6203601036
0.6203581521
0.6203557963
0.6203531824
0.6203504526
0.6203477234
0.6203450794
0.6203425752
0.6203402412
0.6203380913
0.6203361288
0.6203343571
0.6203328063
0.6203316424
0.620361573
0.6203604384
0.6203589429
0.6203571269
0.6203550571
0.6203528113
0.6203504663
0.6203480904
0.62034574
0.620343459
0.6203412813
0.6203392394
0.6203373974
0.6203359864
0.6203615576
0.6203601253
0.6203581556
0.6203557436
0.6203530311
0.6203501665
0.6203472794
0.6203444697
0.6203418062
0.6203393309
0.6203370646
0.6203350143
0.6203331834
0.620331599
0.6203304212
0.62035949
0.6203564548
0.620352739
0.6203487438
0.6203448076
0.6203411537
0.6203378972
0.6203350734
0.6203326676
0.6203306397
0.6203289395
0.620327517
0.6203263298
0.6203253579
0.6203246626
0.6203458558
0.6203381913
0.6203313446
0.6203258113
0.620321664
0.6203187493
0.6203168288
0.6203156598
0.6203150315
0.6203147759
0.6203147658
0.6203149074
0.6203151258
0.6203153338
0.6203227031
0.6203100261
0.6203014535
0.6202965427
0.6202943785
0.620294068
0.6202949063
0.6202963928
0.6202981944
0.6203000999
0.6203019807
0.6203037556
0.6203053466
0.6203065537
0.6202930013
0.6202806192
0.6202755111
0.620274858
0.6202766647
0.6202796864
0.620283195
0.6202867836
0.6202902357
0.620293445
0.6202963652
0.6202989759
0.6203012325
0.6203029076
0.6203227034
0.6203100269
0.6203014544
0.6202965436
0.6202943793
0.6202940687
0.620294907
0.6202963935
0.620298195
0.6203001005
0.6203019813
0.6203037562
0.6203053471
0.6203065543
0.6203458564
0.620338192
0.6203313454
0.620325812
0.6203216648
0.6203187501
0.6203168296
0.6203156607
0.6203150324
0.6203147768
0.6203147668
0.6203149083
0.6203151267
0.6203153347
0.620356455
0.6203527393
0.6203487442
0.620344808
0.6203411542
0.6203378978
0.620335074
0.6203326684
0.6203306405
0.6203289404
0.6203275179
0.6203263308
0.6203253589
0.6203246637
0.6203601254
0.6203581557
0.6203557437
0.6203530313
0.6203501667
0.6203472797
0.6203444701
0.6203418068
0.6203393316
0.6203370654
0.6203350152
0.6203331844
0.6203316001
0.6203304223
0.6203603887
0.620358035
0.6203550169
0.620351587
0.6203480001
0.6203444627
0.6203411186
0.6203380541
0.6203353099
0.6203328949
0.6203307974
0.6203289947
0.6203274625
0.6203261951
0.6203252846
0.6203557328
0.6203500769
0.6203439993
0.6203382867
0.6203333535
0.6203293282
0.6203261713
0.6203237668
0.6203219771
0.620320671
0.620319736
0.6203190803
0.6203186319
0.6203183366
0.6203181637
0.6203384092
0.620322704
0.6203100263
0.6203014535
0.6202965428
0.6202943787
0.6202940681
0.6202949065
0.620296393
0.6202981945
0.6203001001
0.6203019808
0.6203037557
0.6203053467
0.6203065538
0.6202446655
0.6202293257
0.6202273125
0.6202323939
0.6202405417
0.6202495147
0.6202582011
0.6202661234
0.6202731326
0.6202792366
0.6202845065
0.6202890216
0.6202927963
0.6202955358
0.6200947324
0.620115442
0.6201463514
0.6201757567
0.6202006332
0.6202208555
0.6202371156
0.6202502104
0.6202608292
0.6202695156
0.6202766808
0.6202826173
0.6202874626
0.6202909257
0.6202446676
0.6202293275
0.620227314
0.6202323951
0.6202405427
0.6202495156
0.6202582019
0.6202661241
0.6202731334
0.6202792373
0.6202845072
0.6202890222
0.620292797
0.6202955364
0.6203227033
0.620310027
0.6203014546
0.6202965439
0.6202943798
0.6202940693
0.6202949076
0.6202963941
0.6202981957
0.6203001012
0.620301982
0.6203037569
0.6203053478
0.620306555
0.6203500769
0.6203439997
0.6203382872
0.6203333541
0.6203293288
0.6203261721
0.6203237677
0.6203219781
0.6203206721
0.6203197372
0.6203190815
0.6203186331
0.6203183379
0.620318165
0.6203580351
0.620355017
0.6203515872
0.6203480003
0.620344463
0.6203411191
0.6203380547
0.6203353106
0.6203328958
0.6203307984
0.6203289959
0.6203274637
0.6203261964
0.6203252859
0.6203595274
0.6203565681
0.6203529849
0.620349112
0.6203452241
0.6203415145
0.6203381024
0.6203350487
0.6203323727
0.620330066
0.6203281037
0.6203264528
0.6203250801
0.620323969
0.6203231848
0.6203518915
0.6203441767
0.6203369349
0.6203308655
0.6203261056
0.6203225358
0.6203199514
0.6203181419
0.6203169225
0.6203161424
0.6203156833
0.620315454
0.6203153846
0.6203154171
0.6203154884
0.6203153917
0.6202930046
0.6202806202
0.6202755114
0.6202748583
0.620276665
0.6202796867
0.6202831953
0.6202867839
0.620290236
0.6202934452
0.6202963654
0.6202989761
0.6203012327
0.6203029077
0.6201203936
0.6200947471
0.6201154445
0.6201463516
0.6201757568
0.6202006334
0.6202208558
0.6202371159
0.6202502107
0.6202608294
0.6202695158
0.6202766809
0.6202826175
0.6202874627
0.6202909258
0.6194590501
0.6197863549
0.6199666062
0.620071892
0.6201370802
0.6201797397
0.6202091018
0.620230226
0.6202460035
0.6202581551
0.6202677437
0.6202754326
0.6202815624
0.6202858798
0.620094731
0.6201154429
0.6201463516
0.620175757
0.6202006339
0.6202208566
0.6202371168
0.6202502115
0.6202608303
0.6202695167
0.6202766817
0.6202826182
0.6202874635
0.6202909266
0.620293001
0.6202806198
0.6202755117
0.6202748589
0.6202766658
0.6202796878
0.6202831965
0.6202867851
0.6202902373
0.6202934465
0.6202963667
0.6202989774
0.620301234
0.620302909
0.6203441761
0.620336935
0.6203308658
0.620326106
0.6203225365
0.6203199522
0.6203181428
0.6203169236
0.6203161436
0.6203156845
0.6203154553
0.620315386
0.6203154186
0.6203154898
0.6203565681
0.620352985
0.6203491122
0.6203452243
0.6203415148
0.6203381029
0.6203350494
0.6203323736
0.620330067
0.6203281048
0.620326454
0.6203250815
0.6203239705
0.6203231863
0.6203603887
0.6203580351
0.620355017
0.6203515871
0.6203480002
0.6203444629
0.6203411188
0.6203380543
0.6203353101
0.6203328952
0.6203307978
0.6203289951
0.6203274629
0.6203261955
0.620325285
0.620355733
0.6203500771
0.6203439996
0.6203382871
0.620333354
0.6203293286
0.6203261718
0.6203237673
0.6203219776
0.6203206716
0.6203197365
0.6203190808
0.6203186324
0.6203183372
0.6203181643
0.6203384113
0.620322705
0.6203100273
0.6203014545
0.6202965438
0.6202943796
0.6202940691
0.6202949074
0.6202963939
0.6202981954
0.6203001009
0.6203019816
0.6203037565
0.6203053474
0.6203065546
0.6202801924
0.6202446742
0.6202293287
0.6202273141
0.6202323954
0.6202405431
0.6202495161
0.6202582024
0.6202661246
0.6202731338
0.6202792376
0.6202845075
0.6202890225
0.6202927973
0.6202955367
0.6201203954
0.6200947472
0.6201154461
0.6201463523
0.6201757574
0.6202006344
0.620220857
0.6202371172
0.6202502119
0.6202608307
0.620269517
0.620276682
0.6202826185
0.6202874637
0.6202909267
0.6202801878
0.6202446731
0.6202293284
0.620227314
0.6202323956
0.6202405436
0.6202495168
0.6202582032
0.6202661255
0.6202731347
0.6202792385
0.6202845084
0.6202890233
0.620292798
0.6202955374
0.6203227021
0.6203100266
0.6203014544
0.6202965441
0.6202943802
0.6202940699
0.6202949084
0.620296395
0.6202981966
0.6203001021
0.6203019828
0.6203037577
0.6203053486
0.6203065558
0.6203500766
0.6203439995
0.6203382871
0.6203333542
0.6203293291
0.6203261724
0.6203237681
0.6203219786
0.6203206727
0.6203197377
0.6203190821
0.6203186338
0.6203183386
0.6203181657
0.620358035
0.6203550169
0.6203515871
0.6203480004
0.6203444631
0.6203411193
0.6203380549
0.6203353109
0.6203328961
0.6203307988
0.6203289963
0.6203274642
0.6203261969
0.6203252865
0.6203615576
0.6203601254
0.6203581557
0.6203557438
0.6203530313
0.6203501668
0.6203472797
0.6203444701
0.6203418067
0.6203393314
0.6203370652
0.6203350149
0.6203331841
0.6203315997
0.6203304219
0.6203594902
0.620356455
0.6203527393
0.6203487442
0.6203448081
0.6203411543
0.6203378979
0.6203350741
0.6203326684
0.6203306405
0.6203289403
0.6203275178
0.6203263307
0.6203253588
0.6203246636
0.6203532591
0.6203458568
0.6203381922
0.6203313456
0.6203258123
0.6203216651
0.6203187505
0.62031683
0.6203156611
0.6203150328
0.6203147771
0.6203147671
0.6203149086
0.620315127
0.620315335
0.6203384113
0.620322705
0.6203100274
0.6203014548
0.6202965442
0.6202943802
0.6202940697
0.6202949081
0.6202963946
0.6202981961
0.6203001016
0.6203019823
0.6203037572
0.6203053481
0.6203065552
0.6203153916
0.6202930051
0.6202806207
0.6202755121
0.6202748593
0.6202766663
0.6202796883
0.620283197
0.6202867856
0.6202902377
0.6202934469
0.620296367
0.6202989777
0.6203012342
0.6203029092
0.6203384111
0.6203227049
0.6203100274
0.6203014548
0.6202965444
0.6202943805
0.6202940702
0.6202949087
0.6202963952
0.6202981967
0.6203001023
0.620301983
0.6203037578
0.6203053488
0.6203065559
0.6203532584
0.6203458564
0.620338192
0.6203313455
0.6203258124
0.6203216654
0.620318751
0.6203168307
0.6203156619
0.6203150336
0.620314778
0.6203147681
0.6203149097
0.620315128
0.6203153361
0.6203564547
0.6203527391
0.6203487442
0.6203448082
0.6203411545
0.6203378983
0.6203350746
0.6203326691
0.6203306413
0.6203289413
0.6203275188
0.6203263318
0.62032536
0.6203246648
0.6203601253
0.6203581557
0.6203557437
0.6203530313
0.6203501669
0.62034728
0.6203444705
0.6203418073
0.6203393322
0.620337066
0.6203350159
0.6203331852
0.6203316009
0.6203304232
0.6203623476
0.620361573
0.6203604384
0.620358943
0.620357127
0.6203550572
0.6203528114
0.6203504664
0.6203480905
0.6203457401
0.6203434591
0.6203412814
0.6203392395
0.6203373974
0.6203359865
0.6203615413
0.6203601036
0.6203581521
0.6203557964
0.6203531826
0.6203504528
0.6203477237
0.6203450797
0.6203425754
0.6203402415
0.6203380915
0.6203361291
0.6203343574
0.6203328065
0.6203316426
0.6203594902
0.620356455
0.6203527393
0.6203487443
0.6203448082
0.6203411544
0.6203378981
0.6203350743
0.6203326687
0.6203306409
0.6203289407
0.6203275182
0.6203263311
0.6203253592
0.620324664
0.620355733
0.6203500771
0.6203439998
0.6203382873
0.6203333544
0.6203293292
0.6203261725
0.6203237681
0.6203219784
0.6203206725
0.6203197375
0.6203190818
0.6203186334
0.6203183382
0.6203181653
0.6203518915
0.6203441768
0.6203369352
0.620330866
0.6203261063
0.6203225368
0.6203199526
0.6203181432
0.620316924
0.620316144
0.6203156849
0.6203154556
0.6203153863
0.6203154188
0.6203154901
0.620355733
0.6203500772
0.6203439998
0.6203382874
0.6203333545
0.6203293294
0.6203261727
0.6203237684
0.6203219788
0.6203206729
0.6203197379
0.6203190823
0.6203186339
0.6203183387
0.6203181658
0.6203594902
0.620356455
0.6203527393
0.6203487444
0.6203448083
0.6203411547
0.6203378984
0.6203350747
0.6203326692
0.6203306415
0.6203289414
0.620327519
0.6203263319
0.6203253601
0.6203246649
0.6203615413
0.6203601036
0.6203581521
0.6203557964
0.6203531826
0.6203504529
0.6203477239
0.62034508
0.6203425759
0.6203402421
0.6203380922
0.6203361299
0.6203343582
0.6203328075
0.6203316436
0.6203615729
0.6203604384
0.6203589429
0.620357127
0.6203550573
0.6203528116
0.6203504667
0.6203480909
0.6203457406
0.6203434597
0.6203412821
0.6203392403
0.6203373984
0.6203359875
0.6203627046
0.6203622357
0.620361515
0.6203605081
0.6203592077
0.6203576325
0.6203558212
0.620353825
0.6203517002
0.6203495023
0.6203472826
0.6203450874
0.6203429656
0.6203410032
0.6203394741
0.6203623476
0.620361573
0.6203604384
0.620358943
0.620357127
0.6203550573
0.6203528115
0.6203504665
0.6203480906
0.6203457402
0.6203434593
0.6203412815
0.6203392397
0.6203373976
0.6203359867
0.6203615576
0.6203601254
0.6203581558
0.6203557438
0.6203530314
0.6203501669
0.6203472799
0.6203444704
0.6203418071
0.6203393319
0.6203370657
0.6203350155
0.6203331846
0.6203316004
0.6203304225
0.6203603887
0.6203580351
0.6203550171
0.6203515873
0.6203480005
0.6203444633
0.6203411194
0.620338055
0.6203353109
0.6203328961
0.6203307987
0.6203289962
0.620327464
0.6203261966
0.6203252862
0.6203595275
0.6203565682
0.6203529851
0.6203491123
0.6203452246
0.6203415151
0.6203381033
0.6203350498
0.6203323739
0.6203300673
0.6203281051
0.6203264543
0.6203250818
0.6203239707
0.6203231865
0.6203603887
0.6203580351
0.6203550171
0.6203515874
0.6203480006
0.6203444634
0.6203411196
0.6203380552
0.6203353112
0.6203328964
0.6203307991
0.6203289965
0.6203274644
0.6203261971
0.6203252867
0.6203615577
0.6203601254
0.6203581558
0.6203557439
0.6203530315
0.6203501671
0.6203472802
0.6203444707
0.6203418075
0.6203393323
0.6203370662
0.6203350161
0.6203331853
0.6203316011
0.6203304233
0.6203623477
0.620361573
0.6203604384
0.620358943
0.6203571271
0.6203550574
0.6203528117
0.6203504668
0.620348091
0.6203457407
0.6203434598
0.6203412822
0.6203392404
0.6203373985
0.6203359876
0.6203627046
0.6203622357
0.620361515
0.6203605081
0.6203592077
0.6203576325
0.6203558213
0.6203538252
0.6203517005
0.6203495027
0.6203472831
0.620345088
0.6203429663
0.6203410041
0.6203394751
)
;

boundaryField
{
    top
    {
        type            zeroGradient;
    }
    bottom
    {
        type            zeroGradient;
    }
    side-walls
    {
        type            zeroGradient;
    }
    inlet
    {
        type            zeroGradient;
    }
    outlet
    {
        type            zeroGradient;
    }
    procBoundary1to0
    {
        type            processor;
        value           nonuniform List<scalar> 
97
(
0.6203627046
0.6203627046
0.6203623476
0.6203615576
0.6203603888
0.6203595276
0.6203603888
0.6203615577
0.6203623477
0.6203627046
0.6203628114
0.6203615412
0.6203615412
0.6203615412
0.6203594902
0.6203557332
0.6203518918
0.6203557332
0.6203594904
0.6203615414
0.6203623477
0.6203624489
0.6203615298
0.6203532584
0.6203532584
0.6203532584
0.6203384118
0.6203153928
0.6203384119
0.6203532594
0.6203594904
0.6203615577
0.6203619254
0.6203599327
0.6203530793
0.6202801883
0.6202801883
0.6202801883
0.6201204107
0.6202801939
0.6203384118
0.6203557332
0.6203603888
0.6203615581
0.6203584552
0.6203456433
0.6202960288
0.6188289088
0.6188289088
0.6188289088
0.6201204086
0.6201204086
0.6203153928
0.6203518918
0.6203595276
0.6203619255
0.6203599328
0.6203530794
0.6203335461
0.6202960283
0.6203335454
0.6203384093
0.6203384093
0.6203384093
0.620355733
0.6203603888
0.6203624489
0.6203615298
0.620358876
0.6203530794
0.6203456433
0.6203530794
0.620358876
0.62035949
0.62035949
0.62035949
0.6203615576
0.6203628114
0.6203624434
0.6203615298
0.6203599328
0.6203584552
0.6203599328
0.6203615298
0.6203624435
0.6203623477
0.6203623477
0.6203623477
0.6203629774
0.6203628114
0.6203624489
0.6203619254
0.6203615581
0.6203619255
0.6203624489
0.6203628114
0.6203629774
)
;
    }
}


// ************************************************************************* //
