/*--------------------------------*- C++ -*----------------------------------*\
| =========                 |                                                 |
| \\      /  F ield         | OpenFOAM: The Open Source CFD Toolbox           |
|  \\    /   O peration     | Version:  4.x                                   |
|   \\  /    A nd           | Web:      www.OpenFOAM.org                      |
|    \\/     M anipulation  |                                                 |
\*---------------------------------------------------------------------------*/
FoamFile
{
    version     2.0;
    format      ascii;
    class       volScalarField;
    location    "7000";
    object      rho;
}
// * * * * * * * * * * * * * * * * * * * * * * * * * * * * * * * * * * * * * //

dimensions      [1 -3 0 0 0 0 0];

internalField   nonuniform List<scalar> 
1174
(
0.2699634354
0.2699637048
0.2699640397
0.2699644723
0.2699650089
0.2699656493
0.2699663591
0.2699671241
0.2699678501
0.2699686523
0.2699693837
0.2699701168
0.2699707847
0.2699713064
0.2699634606
0.2699638463
0.2699643648
0.2699650458
0.2699657524
0.2699665358
0.2699673251
0.2699681424
0.269968915
0.2699697098
0.269970469
0.2699711898
0.2699717966
0.2699723051
0.2699648912
0.2699655718
0.2699663641
0.2699672839
0.2699682695
0.2699692455
0.2699702161
0.2699711278
0.2699719675
0.2699727106
0.2699733949
0.269974029
0.2699746206
0.2699750632
0.2699651221
0.2699661521
0.2699672988
0.2699685413
0.2699697408
0.2699708843
0.2699719497
0.2699728863
0.2699737073
0.2699744227
0.2699750381
0.2699755878
0.2699760126
0.2699763419
0.2699655721
0.2699668141
0.269968168
0.2699695019
0.2699707916
0.2699719663
0.2699730385
0.2699739904
0.2699747737
0.2699754446
0.2699760219
0.2699765452
0.269976889
0.269977164
0.2699646692
0.2699657059
0.2699668662
0.2699681126
0.2699693441
0.2699704899
0.2699715324
0.2699724604
0.2699733009
0.2699740112
0.2699746044
0.2699751241
0.2699755649
0.2699758858
0.2699644813
0.2699651982
0.2699660374
0.2699669765
0.2699679455
0.2699689358
0.2699698893
0.2699708249
0.2699716737
0.2699724339
0.2699731354
0.2699737803
0.2699743131
0.2699747757
0.2699639869
0.2699643669
0.2699649006
0.2699655533
0.2699663088
0.2699671043
0.2699679195
0.2699687532
0.2699696031
0.2699703649
0.2699710958
0.2699718191
0.2699724695
0.2699729657
0.2699635617
0.2699638338
0.2699641679
0.2699646099
0.2699651606
0.2699658098
0.2699664989
0.2699672325
0.2699679845
0.2699687469
0.2699694825
0.2699702086
0.2699708852
0.2699713991
0.2699629434
0.2699631974
0.2699635559
0.2699640797
0.2699647316
0.2699654492
0.26996623
0.2699670009
0.2699678301
0.2699686321
0.2699694018
0.2699701358
0.2699708476
0.2699714795
0.2699719642
0.2699641561
0.2699648443
0.2699656599
0.269966547
0.2699674724
0.2699684339
0.2699693324
0.2699701876
0.2699709819
0.2699717214
0.2699723827
0.269972963
0.2699735106
0.2699739411
0.2699646481
0.2699658952
0.2699672647
0.2699686228
0.2699699004
0.2699710296
0.2699720232
0.2699728617
0.2699735532
0.2699741278
0.2699745786
0.2699749677
0.2699753468
0.2699755474
0.2699679848
0.2699700613
0.2699720188
0.2699737052
0.2699751181
0.2699761818
0.2699770164
0.2699776042
0.2699780666
0.2699783654
0.2699785686
0.2699787213
0.2699788398
0.2699788664
0.2699688676
0.2699713615
0.2699734785
0.2699751508
0.2699763653
0.269977234
0.2699778288
0.2699782231
0.2699785107
0.2699786742
0.2699787403
0.2699787251
0.2699786976
0.2699786434
0.2699671501
0.2699692257
0.2699712275
0.2699728794
0.2699742737
0.2699753286
0.2699761442
0.2699767909
0.2699772289
0.2699775475
0.2699777447
0.2699779323
0.2699780581
0.2699781021
0.2699655514
0.269966847
0.2699682456
0.2699696221
0.269970873
0.2699720075
0.269972983
0.2699738027
0.2699744752
0.2699750909
0.2699755739
0.2699759866
0.2699763157
0.26997655
0.2699639595
0.2699646193
0.2699654091
0.269966325
0.2699672946
0.2699682548
0.2699691336
0.2699699867
0.2699708081
0.2699715428
0.2699722104
0.2699727944
0.269973326
0.269973743
0.2699632275
0.2699636291
0.2699641739
0.2699647935
0.2699654892
0.2699662492
0.2699670366
0.2699678131
0.2699686203
0.2699694499
0.2699702107
0.269970939
0.2699715632
0.2699720886
0.2699640193
0.2699645434
0.2699652229
0.2699660914
0.269967014
0.2699680104
0.2699690353
0.2699700059
0.2699709073
0.2699717843
0.2699725978
0.2699733028
0.2699739434
0.2699744917
0.2699748609
0.2699644047
0.2699654354
0.2699667536
0.2699681868
0.269969537
0.2699707704
0.2699719108
0.2699728915
0.2699736966
0.2699743871
0.2699749692
0.2699754639
0.2699758539
0.269976172
0.2699764605
0.2699685783
0.2699712011
0.2699735839
0.2699755045
0.2699769484
0.2699779266
0.2699786063
0.2699790093
0.2699792219
0.2699792865
0.2699792805
0.2699792017
0.2699791564
0.2699791134
0.2699776441
0.2699820565
0.2699849717
0.2699866438
0.2699874039
0.2699875321
0.2699872474
0.2699866861
0.2699860553
0.2699853847
0.2699847569
0.2699841467
0.2699836056
0.2699831628
0.2699865077
0.269990767
0.269992518
0.2699927428
0.2699921007
0.269991052
0.2699898344
0.2699886203
0.2699874384
0.2699863363
0.269985324
0.2699844101
0.2699836447
0.2699830678
0.2699779516
0.2699823603
0.2699853046
0.2699870147
0.2699877332
0.2699878109
0.2699875028
0.2699869715
0.2699863637
0.269985717
0.2699850191
0.2699843584
0.2699838158
0.2699834265
0.2699707133
0.2699733894
0.2699757751
0.2699776435
0.2699790893
0.2699800775
0.2699807275
0.2699811374
0.2699813897
0.2699814283
0.2699814462
0.2699813868
0.2699812852
0.269981169
0.2699643451
0.2699656359
0.2699670548
0.2699683928
0.269969652
0.2699707768
0.2699717071
0.2699725243
0.2699731955
0.2699737998
0.2699743153
0.2699747161
0.2699750648
0.2699753024
0.2699645922
0.2699652625
0.2699660917
0.2699670468
0.2699680188
0.2699690022
0.2699699741
0.2699709133
0.2699718017
0.2699725744
0.2699732902
0.2699739084
0.2699744033
0.2699747925
0.269965324
0.2699661507
0.2699671585
0.2699683019
0.2699695513
0.2699707706
0.2699719015
0.2699729661
0.2699738778
0.2699747068
0.2699754004
0.2699760399
0.2699765544
0.26997701
0.269977323
0.2699646036
0.2699665163
0.2699686427
0.2699705838
0.269972293
0.2699736847
0.2699748318
0.2699756342
0.2699762539
0.2699767695
0.26997708
0.2699773188
0.269977455
0.2699775534
0.2699776062
0.269970648
0.2699760604
0.2699804571
0.2699834459
0.269985147
0.2699858958
0.2699860106
0.2699856943
0.2699851986
0.2699845819
0.2699839109
0.2699832408
0.2699826506
0.2699820408
0.2699816447
0.2700015211
0.2700067631
0.2700074824
0.2700057215
0.2700028934
0.2699997797
0.2699967559
0.2699940543
0.2699916217
0.2699895344
0.2699877297
0.2699861772
0.2699849095
0.2699839256
0.2700560969
0.2700489948
0.2700383212
0.2700282251
0.2700196695
0.2700127089
0.2700070978
0.2700025545
0.2699988952
0.2699959181
0.2699933993
0.2699913822
0.2699897068
0.2699885066
0.2700055891
0.270010889
0.2700116082
0.2700098373
0.2700070255
0.2700039662
0.2700010226
0.2699982872
0.2699958701
0.2699937864
0.2699919888
0.2699904726
0.2699891547
0.2699881859
0.2699759181
0.2699803179
0.269983261
0.2699848939
0.269985628
0.2699857527
0.2699855093
0.269984992
0.2699843647
0.269983734
0.2699830653
0.269982453
0.2699819409
0.269981534
0.2699684197
0.2699705186
0.2699725068
0.269974168
0.2699755183
0.2699766593
0.2699774761
0.2699780802
0.269978563
0.2699788306
0.2699790228
0.2699792101
0.2699793104
0.2699793914
0.2699643529
0.2699653952
0.2699665606
0.2699677804
0.2699690248
0.2699701432
0.2699712252
0.2699721665
0.2699729916
0.2699737284
0.2699743295
0.2699748652
0.2699753199
0.2699756189
0.2699645905
0.2699656315
0.269966864
0.2699681502
0.2699694803
0.2699707231
0.2699718853
0.2699729548
0.2699738938
0.2699746799
0.2699753341
0.2699758911
0.2699763842
0.2699767664
0.2699770436
0.2699661938
0.2699688676
0.269971383
0.2699734668
0.2699751299
0.2699764013
0.2699772712
0.2699779214
0.269978312
0.2699786016
0.269978752
0.2699788437
0.2699788477
0.2699788501
0.2699788136
0.2699793355
0.2699870563
0.2699913702
0.269993133
0.2699933934
0.2699927771
0.2699917009
0.2699904665
0.2699891985
0.2699879937
0.2699868983
0.2699858675
0.2699850145
0.2699842337
0.2699836573
0.2700468882
0.2700557301
0.270048662
0.270038024
0.2700279308
0.2700194009
0.2700124207
0.2700068253
0.270002316
0.2699986528
0.2699956682
0.2699932417
0.2699911785
0.2699894316
0.2699882591
0.2713326331
0.2712238695
0.271164557
0.2711300319
0.2711087755
0.2710950588
0.2710857812
0.2710793724
0.2710748065
0.2710715153
0.2710690894
0.2710672763
0.2710660551
0.2710654573
0.2700564926
0.2700493495
0.2700386982
0.2700285812
0.2700199966
0.2700130361
0.2700074448
0.2700029381
0.2699992688
0.2699963184
0.2699938508
0.2699918436
0.2699901778
0.2699889442
0.2699878912
0.2699921195
0.2699938454
0.269994115
0.2699934858
0.269992446
0.2699912152
0.2699899538
0.2699887673
0.2699876902
0.2699866848
0.2699857693
0.2699849886
0.2699843794
0.2699703927
0.2699728762
0.2699749438
0.2699766034
0.2699778375
0.269978698
0.269979318
0.2699797522
0.2699800108
0.269980186
0.2699802454
0.2699802675
0.2699802517
0.2699802451
0.2699654865
0.2699667118
0.2699680442
0.2699693984
0.2699706419
0.2699718095
0.2699728549
0.2699737705
0.2699745552
0.2699752406
0.2699757678
0.2699762279
0.2699766184
0.2699768884
0.2699627245
0.2699635468
0.2699645803
0.2699657365
0.2699669679
0.2699681973
0.2699693297
0.2699704042
0.2699713668
0.2699721727
0.269972924
0.2699735592
0.2699740771
0.2699745391
0.2699748156
0.2699656476
0.269967552
0.2699696596
0.2699716093
0.2699733066
0.2699747051
0.2699757973
0.2699766083
0.2699772641
0.2699777106
0.2699780111
0.2699782264
0.2699784047
0.2699785034
0.269978564
0.2699715624
0.2699769509
0.2699813478
0.2699842836
0.269985913
0.2699866592
0.2699867778
0.2699865011
0.2699860196
0.2699853909
0.2699847869
0.2699841495
0.2699835035
0.2699829583
0.2699825863
0.2699915411
0.2700037678
0.2700090237
0.2700097235
0.2700080065
0.2700051977
0.2700021302
0.2699991413
0.2699963815
0.2699939725
0.2699918805
0.269990068
0.2699885294
0.2699872304
0.2699862154
0.2700466725
0.2700555147
0.2700483733
0.270037724
0.2700276323
0.2700190532
0.2700120707
0.2700064594
0.2700019719
0.2699983026
0.2699953676
0.2699929191
0.2699908971
0.2699892066
0.2699880413
0.2699907763
0.2700030193
0.2700082911
0.270008986
0.2700072296
0.2700044607
0.2700014212
0.2699984287
0.2699957552
0.2699933472
0.2699912354
0.2699893795
0.2699878433
0.2699865501
0.269985614
0.2699769726
0.2699813161
0.2699842321
0.2699859505
0.2699866694
0.2699867796
0.269986496
0.2699859939
0.2699853798
0.2699847426
0.2699840713
0.2699834514
0.2699828924
0.269982505
0.269967747
0.2699698456
0.2699718232
0.2699735256
0.2699749037
0.2699759808
0.2699767796
0.2699774019
0.2699778279
0.2699781376
0.2699783418
0.2699784929
0.2699785938
0.2699786737
0.2699649246
0.2699659318
0.2699671828
0.2699683892
0.2699696179
0.2699707522
0.2699718243
0.2699727362
0.2699735796
0.2699743149
0.2699749094
0.2699754202
0.2699758553
0.2699761645
0.2699640068
0.2699644758
0.2699651752
0.2699660074
0.269966974
0.2699679627
0.2699689745
0.2699699643
0.2699708425
0.2699717004
0.2699725171
0.2699732191
0.2699738198
0.2699743473
0.2699747567
0.2699637867
0.2699648103
0.2699661079
0.2699674725
0.2699687853
0.2699700393
0.2699711932
0.2699722142
0.2699730491
0.2699737739
0.269974357
0.2699748522
0.2699752732
0.2699755895
0.2699758908
0.2699677633
0.2699702866
0.2699729418
0.2699752993
0.2699772224
0.2699786573
0.2699796777
0.2699803467
0.2699807066
0.269980937
0.269981027
0.2699810476
0.269980963
0.2699809028
0.269980804
0.2699716732
0.2699771005
0.2699814518
0.2699843804
0.2699860549
0.269986723
0.2699868601
0.2699865796
0.2699860738
0.2699854031
0.2699847453
0.2699840961
0.2699834871
0.2699829313
0.2699825268
0.2699784386
0.2699861586
0.2699904144
0.2699922032
0.2699923948
0.2699918173
0.2699908062
0.2699896229
0.2699883558
0.2699871561
0.2699860414
0.2699850481
0.2699840998
0.2699833732
0.2699827363
0.2699718596
0.2699772635
0.2699816217
0.2699845746
0.2699862786
0.2699870346
0.2699871309
0.2699868378
0.2699863245
0.2699857049
0.2699850668
0.2699844393
0.2699838343
0.269983272
0.2699828326
0.2699664788
0.2699690221
0.2699716117
0.2699739419
0.2699758598
0.2699773042
0.2699782731
0.2699788928
0.2699792492
0.2699794308
0.2699795028
0.2699795029
0.2699794662
0.2699793762
0.2699793203
0.2699647461
0.2699660325
0.2699674273
0.2699687729
0.2699700262
0.269971167
0.2699721424
0.2699729662
0.2699736268
0.2699742524
0.2699747462
0.2699751609
0.2699754991
0.269975724
0.2699645525
0.2699652524
0.2699660772
0.2699669925
0.2699679993
0.2699690382
0.2699700097
0.2699709137
0.2699717635
0.2699725445
0.2699732397
0.2699738929
0.2699744118
0.2699748172
0.2699637124
0.2699639728
0.2699643386
0.2699648168
0.2699654459
0.2699661624
0.2699669338
0.2699677414
0.269968566
0.2699693847
0.2699701782
0.2699709594
0.2699716789
0.2699723092
0.2699727931
0.269964532
0.2699650166
0.2699656809
0.2699664996
0.2699674446
0.2699683532
0.2699692957
0.2699702025
0.2699710506
0.2699718768
0.2699726114
0.2699733039
0.2699739061
0.2699744532
0.2699748557
0.2699633918
0.2699644331
0.2699656961
0.2699670783
0.2699684598
0.2699697134
0.2699708163
0.2699718063
0.2699726191
0.2699732984
0.2699738679
0.2699743561
0.2699747995
0.2699751534
0.2699753577
0.2699650714
0.2699669901
0.2699690844
0.2699710212
0.2699727136
0.2699740916
0.2699751909
0.269976003
0.2699766381
0.2699771164
0.2699774622
0.2699776978
0.2699778578
0.2699779448
0.2699780113
0.2699664287
0.269969092
0.2699715913
0.2699736836
0.2699752981
0.2699765
0.2699774
0.2699780172
0.2699784579
0.2699787141
0.2699788525
0.2699789703
0.2699790229
0.2699790175
0.2699789875
0.2699643416
0.2699662821
0.2699683824
0.269970314
0.2699719872
0.2699734235
0.269974539
0.2699753742
0.269976005
0.2699764781
0.2699767767
0.2699769765
0.2699771184
0.2699772656
0.2699772878
0.2699650702
0.2699661176
0.2699674373
0.269968828
0.2699701439
0.2699713849
0.2699724884
0.2699734409
0.269974259
0.2699749776
0.2699755385
0.2699760533
0.2699764486
0.2699767853
0.2699770554
0.269964438
0.2699649284
0.2699656082
0.2699664381
0.2699673716
0.2699682845
0.2699692734
0.2699702166
0.2699710731
0.2699718905
0.2699726216
0.2699733154
0.2699739036
0.2699744474
0.2699748558
0.2699634601
0.2699638561
0.2699643844
0.2699650339
0.2699657648
0.2699665209
0.2699673656
0.2699682057
0.2699689907
0.2699697899
0.269970533
0.2699712404
0.2699718563
0.269972338
0.2699639256
0.2699641107
0.2699643684
0.269964691
0.2699651133
0.2699656891
0.2699663113
0.2699670197
0.2699677387
0.2699684896
0.2699692442
0.2699700007
0.2699707535
0.2699713913
0.2699719305
0.2699632222
0.2699635062
0.269963898
0.2699644167
0.2699650012
0.2699656994
0.2699664593
0.2699672669
0.2699680851
0.2699688708
0.2699696388
0.2699703855
0.2699710982
0.2699717289
0.269972231
0.2699637477
0.26996421
0.269964907
0.2699657028
0.2699666366
0.2699676062
0.2699685866
0.2699695876
0.2699704932
0.2699713621
0.2699721332
0.2699728279
0.2699734912
0.269974011
0.2699744102
0.2699636426
0.2699644834
0.2699655726
0.2699667306
0.2699679453
0.2699691219
0.2699702773
0.2699713638
0.2699723053
0.2699731441
0.2699738545
0.2699745143
0.2699750983
0.2699754977
0.2699758233
0.2699650551
0.2699660702
0.2699672978
0.2699686739
0.2699700446
0.2699713377
0.2699724893
0.2699735618
0.2699744984
0.2699752788
0.2699759053
0.2699764357
0.269976867
0.269977241
0.2699775066
0.2699641814
0.269964997
0.2699660419
0.2699672137
0.2699684844
0.2699697184
0.2699708635
0.2699719201
0.2699728653
0.2699737086
0.2699744595
0.2699750891
0.2699755996
0.2699759992
0.2699763053
0.2699653743
0.2699658557
0.2699665374
0.2699673686
0.2699682648
0.2699692752
0.2699702337
0.2699712147
0.2699721405
0.2699729635
0.269973718
0.2699744176
0.2699750249
0.2699755398
0.2699759279
0.269963264
0.2699635636
0.2699639342
0.2699644545
0.2699650303
0.269965782
0.2699665536
0.2699673509
0.2699681454
0.2699689465
0.2699697278
0.2699704718
0.2699711627
0.2699718382
0.2699723464
0.2699627925
0.2699629484
0.2699631899
0.2699635233
0.2699639505
0.2699644898
0.2699651284
0.2699658155
0.2699665181
0.2699673019
0.269968065
0.2699688119
0.2699695648
0.2699702187
0.2699707392
)
;

boundaryField
{
    top
    {
        type            calculated;
        value           nonuniform List<scalar> 
127
(
0.2699627925
0.2699635617
0.2699632275
0.2699645922
0.2699643529
0.2699654865
0.2699649246
0.2699645525
0.2699634601
0.2699629484
0.2699638338
0.2699636291
0.2699652625
0.2699653952
0.2699667118
0.2699659318
0.2699652524
0.2699638561
0.2699631899
0.2699641679
0.2699641739
0.2699660917
0.2699665606
0.2699680442
0.2699671828
0.2699660772
0.2699643844
0.2699635233
0.2699646099
0.2699647935
0.2699670468
0.2699677804
0.2699693984
0.2699683892
0.2699669925
0.2699650339
0.2699639505
0.2699651606
0.2699654892
0.2699680188
0.2699690248
0.2699706419
0.2699696179
0.2699679993
0.2699657648
0.2699644898
0.2699658098
0.2699662492
0.2699690022
0.2699701432
0.2699718095
0.2699707522
0.2699690382
0.2699665209
0.2699651284
0.2699664989
0.2699670366
0.2699699741
0.2699712252
0.2699728549
0.2699718243
0.2699700097
0.2699673656
0.2699658155
0.2699672325
0.2699678131
0.2699709133
0.2699721665
0.2699737705
0.2699727362
0.2699709137
0.2699682057
0.2699665181
0.2699679845
0.2699686203
0.2699718017
0.2699729916
0.2699745552
0.2699735796
0.2699717635
0.2699689907
0.2699673019
0.2699687469
0.2699694499
0.2699725744
0.2699737284
0.2699752406
0.2699743149
0.2699725445
0.2699697899
0.269968065
0.2699694825
0.2699702107
0.2699732902
0.2699743295
0.2699757678
0.2699749094
0.2699732397
0.269970533
0.2699688119
0.2699702086
0.269970939
0.2699739084
0.2699748652
0.2699762279
0.2699754202
0.2699738929
0.2699712404
0.2699695648
0.2699708852
0.2699715632
0.2699744033
0.2699753199
0.2699766184
0.2699758553
0.2699744118
0.2699718563
0.2699702187
0.2699713991
0.2699720886
0.2699747925
0.2699756189
0.2699768884
0.2699761645
0.2699748172
0.269972338
0.2699707392
)
;
    }
    bottom
    {
        type            calculated;
        value           nonuniform List<scalar> 
134
(
0.2699629434
0.2699640193
0.269965324
0.2699645905
0.2699627245
0.2699640068
0.2699637124
0.2699639256
0.2699634354
0.2699631974
0.2699645434
0.2699661507
0.2699656315
0.2699635468
0.2699644758
0.2699639728
0.2699641107
0.2699637048
0.2699635559
0.2699652229
0.2699671585
0.269966864
0.2699645803
0.2699651752
0.2699643386
0.2699643684
0.2699640397
0.2699640797
0.2699660914
0.2699683019
0.2699681502
0.2699657365
0.2699660074
0.2699648168
0.269964691
0.2699644723
0.2699647316
0.269967014
0.2699695513
0.2699694803
0.2699669679
0.269966974
0.2699654459
0.2699651133
0.2699650089
0.2699654492
0.2699680104
0.2699707706
0.2699707231
0.2699681973
0.2699679627
0.2699661624
0.2699656891
0.2699656493
0.26996623
0.2699690353
0.2699719015
0.2699718853
0.2699693297
0.2699689745
0.2699669338
0.2699663113
0.2699663591
0.2699670009
0.2699700059
0.2699729661
0.2699729548
0.2699704042
0.2699699643
0.2699677414
0.2699670197
0.2699671241
0.2699678301
0.2699709073
0.2699738778
0.2699738938
0.2699713668
0.2699708425
0.269968566
0.2699677387
0.2699678501
0.2699686321
0.2699717843
0.2699747068
0.2699746799
0.2699721727
0.2699717004
0.2699693847
0.2699684896
0.2699686523
0.2699694018
0.2699725978
0.2699754004
0.2699753341
0.269972924
0.2699725171
0.2699701782
0.2699692442
0.2699693837
0.2699701358
0.2699733028
0.2699760399
0.2699758911
0.2699735592
0.2699732191
0.2699709594
0.2699700007
0.2699701168
0.2699708476
0.2699739434
0.2699765544
0.2699763842
0.2699740771
0.2699738198
0.2699716789
0.2699707535
0.2699707847
0.2699714795
0.2699744917
0.26997701
0.2699767664
0.2699745391
0.2699743473
0.2699723092
0.2699713913
0.2699713064
0.2699719642
0.2699748609
0.269977323
0.2699770436
0.2699748156
0.2699747567
0.2699727931
0.2699719305
)
;
    }
    side-walls
    {
        type            calculated;
        value           nonuniform List<scalar> 
261
(
0.2699634354
0.2699634606
0.2699648912
0.2699651221
0.2699655721
0.2699646692
0.2699644813
0.2699639869
0.2699635617
0.2699637048
0.2699638463
0.2699655718
0.2699661521
0.2699668141
0.2699657059
0.2699651982
0.2699643669
0.2699638338
0.2699640397
0.2699643648
0.2699663641
0.2699672988
0.269968168
0.2699668662
0.2699660374
0.2699649006
0.2699641679
0.2699644723
0.2699650458
0.2699672839
0.2699685413
0.2699695019
0.2699681126
0.2699669765
0.2699655533
0.2699646099
0.2699650089
0.2699657524
0.2699682695
0.2699697408
0.2699707916
0.2699693441
0.2699679455
0.2699663088
0.2699651606
0.2699656493
0.2699665358
0.2699692455
0.2699708843
0.2699719663
0.2699704899
0.2699689358
0.2699671043
0.2699658098
0.2699663591
0.2699673251
0.2699702161
0.2699719497
0.2699730385
0.2699715324
0.2699698893
0.2699679195
0.2699664989
0.2699671241
0.2699681424
0.2699711278
0.2699728863
0.2699739904
0.2699724604
0.2699708249
0.2699687532
0.2699672325
0.2699678501
0.269968915
0.2699719675
0.2699737073
0.2699747737
0.2699733009
0.2699716737
0.2699696031
0.2699679845
0.2699686523
0.2699697098
0.2699727106
0.2699744227
0.2699754446
0.2699740112
0.2699724339
0.2699703649
0.2699687469
0.2699693837
0.269970469
0.2699733949
0.2699750381
0.2699760219
0.2699746044
0.2699731354
0.2699710958
0.2699694825
0.2699701168
0.2699711898
0.269974029
0.2699755878
0.2699765452
0.2699751241
0.2699737803
0.2699718191
0.2699702086
0.2699707847
0.2699717966
0.2699746206
0.2699760126
0.269976889
0.2699755649
0.2699743131
0.2699724695
0.2699708852
0.2699713064
0.2699723051
0.2699750632
0.2699763419
0.269977164
0.2699758858
0.2699747757
0.2699729657
0.2699713991
0.2699639256
0.2699632222
0.2699637477
0.2699636426
0.2699650551
0.2699641814
0.2699653743
0.269963264
0.2699627925
0.2699641107
0.2699635062
0.26996421
0.2699644834
0.2699660702
0.269964997
0.2699658557
0.2699635636
0.2699629484
0.2699643684
0.269963898
0.269964907
0.2699655726
0.2699672978
0.2699660419
0.2699665374
0.2699639342
0.2699631899
0.269964691
0.2699644167
0.2699657028
0.2699667306
0.2699686739
0.2699672137
0.2699673686
0.2699644545
0.2699635233
0.2699651133
0.2699650012
0.2699666366
0.2699679453
0.2699700446
0.2699684844
0.2699682648
0.2699650303
0.2699639505
0.2699656891
0.2699656994
0.2699676062
0.2699691219
0.2699713377
0.2699697184
0.2699692752
0.269965782
0.2699644898
0.2699663113
0.2699664593
0.2699685866
0.2699702773
0.2699724893
0.2699708635
0.2699702337
0.2699665536
0.2699651284
0.2699670197
0.2699672669
0.2699695876
0.2699713638
0.2699735618
0.2699719201
0.2699712147
0.2699673509
0.2699658155
0.2699677387
0.2699680851
0.2699704932
0.2699723053
0.2699744984
0.2699728653
0.2699721405
0.2699681454
0.2699665181
0.2699684896
0.2699688708
0.2699713621
0.2699731441
0.2699752788
0.2699737086
0.2699729635
0.2699689465
0.2699673019
0.2699692442
0.2699696388
0.2699721332
0.2699738545
0.2699759053
0.2699744595
0.269973718
0.2699697278
0.269968065
0.2699700007
0.2699703855
0.2699728279
0.2699745143
0.2699764357
0.2699750891
0.2699744176
0.2699704718
0.2699688119
0.2699707535
0.2699710982
0.2699734912
0.2699750983
0.269976867
0.2699755996
0.2699750249
0.2699711627
0.2699695648
0.2699713913
0.2699717289
0.269974011
0.2699754977
0.269977241
0.2699759992
0.2699755398
0.2699718382
0.2699702187
0.2699719305
0.269972231
0.2699744102
0.2699758233
0.2699775066
0.2699763053
0.2699759279
0.2699723464
0.2699707392
)
;
    }
    inlet
    {
        type            calculated;
        value           nonuniform 0();
    }
    outlet
    {
        type            calculated;
        value           nonuniform List<scalar> 
81
(
0.2699713064
0.2699723051
0.2699750632
0.2699763419
0.269977164
0.2699758858
0.2699747757
0.2699729657
0.2699713991
0.2699719642
0.2699739411
0.2699755474
0.2699788664
0.2699786434
0.2699781021
0.26997655
0.269973743
0.2699720886
0.2699748609
0.2699764605
0.2699791134
0.2699831628
0.2699830678
0.2699834265
0.269981169
0.2699753024
0.2699747925
0.269977323
0.2699776062
0.2699816447
0.2699839256
0.2699885066
0.2699881859
0.269981534
0.2699793914
0.2699756189
0.2699770436
0.2699788136
0.2699836573
0.2699882591
0.2710654573
0.2699889442
0.2699843794
0.2699802451
0.2699768884
0.2699748156
0.269978564
0.2699825863
0.2699862154
0.2699880413
0.269985614
0.269982505
0.2699786737
0.2699761645
0.2699747567
0.2699758908
0.269980804
0.2699825268
0.2699827363
0.2699828326
0.2699793203
0.269975724
0.2699748172
0.2699727931
0.2699748557
0.2699753577
0.2699780113
0.2699789875
0.2699772878
0.2699770554
0.2699748558
0.269972338
0.2699719305
0.269972231
0.2699744102
0.2699758233
0.2699775066
0.2699763053
0.2699759279
0.2699723464
0.2699707392
)
;
    }
    procBoundary1to0
    {
        type            processor;
        value           nonuniform List<scalar> 
97
(
0.2699632578
0.2699632578
0.2699631854
0.2699644051
0.2699642752
0.2699645571
0.2699638597
0.2699640225
0.2699637112
0.2699634093
0.2699627642
0.2699636679
0.2699636679
0.2699636679
0.2699635985
0.2699660147
0.2699662231
0.2699652094
0.2699645733
0.2699634514
0.269962978
0.26996364
0.2699637243
0.2699660089
0.2699660089
0.2699660089
0.2699722282
0.2699787897
0.2699725553
0.2699681734
0.2699633343
0.2699641571
0.2699647917
0.2699631426
0.2699656166
0.2699892903
0.2699892903
0.2699892903
0.2700471897
0.2699933233
0.2699704819
0.2699664658
0.2699635322
0.2699639206
0.2699639071
0.2699688984
0.2699858151
0.2715458259
0.2715458259
0.2715458259
0.270047582
0.270047582
0.2699801687
0.2699677363
0.2699644644
0.2699622304
0.2699641864
0.2699665412
0.2699731621
0.2699855821
0.2699724131
0.2699716038
0.2699716038
0.2699716038
0.2699658372
0.2699640938
0.2699636842
0.2699630691
0.2699658097
0.2699666416
0.2699680249
0.2699668358
0.2699645308
0.2699637298
0.2699637298
0.2699637298
0.2699640614
0.2699635264
0.2699642049
0.2699626979
0.2699636106
0.2699641728
0.2699629018
0.2699643875
0.2699641355
0.269963199
0.269963199
0.269963199
0.2699638311
0.269963055
0.2699634399
0.2699631133
0.269964325
0.2699636683
0.2699650809
0.2699631256
0.2699626801
)
;
    }
}


// ************************************************************************* //
