/*--------------------------------*- C++ -*----------------------------------*\
| =========                 |                                                 |
| \\      /  F ield         | OpenFOAM: The Open Source CFD Toolbox           |
|  \\    /   O peration     | Version:  4.x                                   |
|   \\  /    A nd           | Web:      www.OpenFOAM.org                      |
|    \\/     M anipulation  |                                                 |
\*---------------------------------------------------------------------------*/
FoamFile
{
    version     2.0;
    format      ascii;
    class       volScalarField;
    location    "7000";
    object      T;
}
// * * * * * * * * * * * * * * * * * * * * * * * * * * * * * * * * * * * * * //

dimensions      [0 0 0 1 0 0 0];

internalField   nonuniform List<scalar> 
1174
(
1223.150652
1223.150852
1223.15132
1223.151923
1223.152597
1223.153265
1223.153984
1223.154706
1223.155749
1223.156489
1223.157501
1223.158361
1223.159202
1223.159852
1223.151844
1223.152334
1223.152932
1223.153426
1223.154305
1223.155182
1223.156228
1223.157208
1223.15834
1223.159235
1223.160086
1223.160844
1223.161725
1223.162201
1223.148217
1223.149016
1223.150181
1223.15136
1223.152542
1223.15381
1223.154951
1223.15607
1223.157143
1223.158243
1223.159183
1223.159917
1223.160358
1223.160674
1223.151292
1223.152575
1223.154141
1223.155582
1223.157121
1223.158531
1223.159744
1223.16091
1223.161949
1223.162841
1223.163604
1223.164133
1223.164705
1223.165006
1223.152145
1223.153582
1223.155083
1223.156703
1223.158172
1223.159576
1223.160737
1223.161698
1223.162695
1223.163522
1223.164159
1223.164492
1223.165122
1223.165421
1223.153344
1223.154597
1223.156101
1223.157525
1223.158918
1223.160318
1223.161635
1223.162839
1223.16379
1223.164705
1223.165569
1223.166233
1223.166733
1223.167072
1223.150074
1223.150708
1223.151661
1223.152753
1223.154009
1223.155213
1223.156432
1223.157442
1223.158474
1223.159496
1223.160358
1223.161044
1223.161752
1223.161976
1223.14946
1223.149975
1223.150505
1223.151127
1223.151784
1223.152606
1223.153535
1223.154441
1223.155222
1223.156266
1223.157246
1223.157993
1223.158676
1223.159208
1223.15008
1223.150268
1223.150739
1223.1513
1223.151909
1223.152538
1223.15335
1223.154215
1223.15514
1223.15606
1223.157054
1223.157945
1223.158747
1223.159432
1223.152661
1223.153037
1223.153649
1223.154224
1223.15485
1223.155678
1223.156568
1223.157697
1223.158623
1223.159622
1223.16063
1223.161596
1223.162395
1223.163162
1223.163746
1223.15159
1223.152319
1223.153268
1223.154401
1223.15559
1223.156613
1223.157753
1223.158815
1223.159815
1223.160702
1223.161573
1223.162435
1223.163009
1223.163352
1223.156555
1223.15823
1223.159901
1223.161507
1223.162921
1223.164224
1223.165288
1223.16623
1223.167093
1223.16784
1223.168599
1223.169175
1223.169371
1223.169831
1223.154013
1223.156587
1223.15898
1223.161064
1223.162597
1223.164
1223.164957
1223.16582
1223.166298
1223.166785
1223.167155
1223.167344
1223.167387
1223.167605
1223.161649
1223.164627
1223.167001
1223.168806
1223.170339
1223.171497
1223.172367
1223.172982
1223.173214
1223.173377
1223.173526
1223.173729
1223.173787
1223.17389
1223.157795
1223.160373
1223.162565
1223.164805
1223.166422
1223.167865
1223.168908
1223.169505
1223.170093
1223.170491
1223.170887
1223.170919
1223.170929
1223.171068
1223.152462
1223.153917
1223.155456
1223.156979
1223.158514
1223.159793
1223.160939
1223.161966
1223.162916
1223.163476
1223.16409
1223.164559
1223.164982
1223.165289
1223.152481
1223.153339
1223.154404
1223.155407
1223.156395
1223.157424
1223.158654
1223.159725
1223.160603
1223.161511
1223.162353
1223.163199
1223.163846
1223.16425
1223.152901
1223.153318
1223.153797
1223.154569
1223.155497
1223.156481
1223.157535
1223.1587
1223.159675
1223.160412
1223.161257
1223.161981
1223.162783
1223.163182
1223.149344
1223.149793
1223.150597
1223.151416
1223.152583
1223.153715
1223.154763
1223.155903
1223.157069
1223.157974
1223.158754
1223.1596
1223.160305
1223.160943
1223.16159
1223.151674
1223.152988
1223.154341
1223.155723
1223.157365
1223.158979
1223.160231
1223.161354
1223.162447
1223.163315
1223.164027
1223.164589
1223.16516
1223.165633
1223.165694
1223.159647
1223.162875
1223.165577
1223.167783
1223.169416
1223.170728
1223.171432
1223.171909
1223.172182
1223.17239
1223.172435
1223.17251
1223.172283
1223.172065
1223.16423
1223.169236
1223.172927
1223.17503
1223.175848
1223.175876
1223.175509
1223.175117
1223.174419
1223.173697
1223.17283
1223.172092
1223.171404
1223.171028
1223.182648
1223.18777
1223.189902
1223.190163
1223.189502
1223.188289
1223.186882
1223.185302
1223.183846
1223.182508
1223.181333
1223.180323
1223.179338
1223.178647
1223.162836
1223.167858
1223.171418
1223.173348
1223.174356
1223.174612
1223.174351
1223.173824
1223.173022
1223.172192
1223.171642
1223.171133
1223.170452
1223.169834
1223.149973
1223.152959
1223.155648
1223.158091
1223.159716
1223.160983
1223.161822
1223.162267
1223.16236
1223.162687
1223.162623
1223.16261
1223.162638
1223.162752
1223.157928
1223.159404
1223.160852
1223.162549
1223.164046
1223.165369
1223.16672
1223.167758
1223.168713
1223.169326
1223.169793
1223.170315
1223.170649
1223.170941
1223.149571
1223.150417
1223.151415
1223.152434
1223.153677
1223.154913
1223.156047
1223.157041
1223.157895
1223.15886
1223.159657
1223.160464
1223.161343
1223.161901
1223.145737
1223.146631
1223.148015
1223.149596
1223.151006
1223.152455
1223.153922
1223.15514
1223.156418
1223.157421
1223.158411
1223.159066
1223.159754
1223.160186
1223.160561
1223.158181
1223.160667
1223.163014
1223.165482
1223.167462
1223.169092
1223.170116
1223.171219
1223.171938
1223.172174
1223.172608
1223.172817
1223.173082
1223.173215
1223.173315
1223.164957
1223.171406
1223.176482
1223.17984
1223.181811
1223.182681
1223.182769
1223.182545
1223.181856
1223.181095
1223.180374
1223.179699
1223.17887
1223.178494
1223.177906
1223.20997
1223.216473
1223.21717
1223.215112
1223.211845
1223.208248
1223.204811
1223.201422
1223.198617
1223.196034
1223.193815
1223.191943
1223.19024
1223.189294
1223.258512
1223.24983
1223.237178
1223.224885
1223.214559
1223.206197
1223.199541
1223.194294
1223.189927
1223.186281
1223.18356
1223.180989
1223.179023
1223.177629
1223.191529
1223.197776
1223.198477
1223.196465
1223.193124
1223.189281
1223.18548
1223.182246
1223.17937
1223.17677
1223.174519
1223.172483
1223.171008
1223.169993
1223.172048
1223.177111
1223.180676
1223.182956
1223.183893
1223.183937
1223.183383
1223.182792
1223.182079
1223.181176
1223.180494
1223.179766
1223.178947
1223.178408
1223.152043
1223.154515
1223.156768
1223.158967
1223.160783
1223.161836
1223.162874
1223.163664
1223.164049
1223.164677
1223.165097
1223.16513
1223.165255
1223.165227
1223.154777
1223.156004
1223.157485
1223.159029
1223.160365
1223.161889
1223.163027
1223.164171
1223.165192
1223.165986
1223.166815
1223.167407
1223.167844
1223.168282
1223.150758
1223.151876
1223.153356
1223.155163
1223.156801
1223.158483
1223.159943
1223.161116
1223.162136
1223.16312
1223.164023
1223.164751
1223.165221
1223.165678
1223.165967
1223.158552
1223.161649
1223.164529
1223.167054
1223.168901
1223.170177
1223.171328
1223.171948
1223.172579
1223.172803
1223.173024
1223.173058
1223.173174
1223.173097
1223.173119
1223.170993
1223.180162
1223.185035
1223.187115
1223.187215
1223.186438
1223.185349
1223.184018
1223.182682
1223.18133
1223.179962
1223.17887
1223.177584
1223.17667
1223.175976
1223.249607
1223.260173
1223.251335
1223.238523
1223.226218
1223.215776
1223.207502
1223.200775
1223.195374
1223.191025
1223.187413
1223.184274
1223.181912
1223.180269
1223.178751
1218.753067
1218.597843
1218.509913
1218.458087
1218.425493
1218.403309
1218.387313
1218.374614
1218.364138
1218.355057
1218.347124
1218.340168
1218.333615
1218.32782
1223.256719
1223.248218
1223.235467
1223.223271
1223.213077
1223.204715
1223.197969
1223.192556
1223.188234
1223.184468
1223.181515
1223.178899
1223.176889
1223.175647
1223.176379
1223.18164
1223.183887
1223.183945
1223.183226
1223.181973
1223.180626
1223.179261
1223.177826
1223.176374
1223.175168
1223.174165
1223.17325
1223.172705
1223.154739
1223.157764
1223.160361
1223.162225
1223.163669
1223.164864
1223.16562
1223.166054
1223.166418
1223.166527
1223.166708
1223.166742
1223.166747
1223.166635
1223.152533
1223.154045
1223.155643
1223.157172
1223.15885
1223.160286
1223.161569
1223.162694
1223.163685
1223.164446
1223.16531
1223.16593
1223.166349
1223.16667
1223.157515
1223.158429
1223.159696
1223.161219
1223.162711
1223.164114
1223.165575
1223.166747
1223.167794
1223.168902
1223.169631
1223.170305
1223.170977
1223.171381
1223.171921
1223.153451
1223.155974
1223.158406
1223.160835
1223.16287
1223.164468
1223.165742
1223.166806
1223.167361
1223.16791
1223.16839
1223.168705
1223.168779
1223.168911
1223.168976
1223.16081
1223.167368
1223.172443
1223.176043
1223.17834
1223.179222
1223.179293
1223.178889
1223.178137
1223.177429
1223.176406
1223.175582
1223.175006
1223.174337
1223.17364
1223.185118
1223.199779
1223.206223
1223.207013
1223.204758
1223.201405
1223.197599
1223.194003
1223.190879
1223.187967
1223.185405
1223.183221
1223.181286
1223.179726
1223.17892
1223.250583
1223.261147
1223.252636
1223.239878
1223.227569
1223.21735
1223.209088
1223.202433
1223.196934
1223.192612
1223.188775
1223.185736
1223.183187
1223.181289
1223.179738
1223.188584
1223.203169
1223.209542
1223.210354
1223.208278
1223.204744
1223.20081
1223.197232
1223.193717
1223.1908
1223.188328
1223.186341
1223.184395
1223.182808
1223.181646
1223.167274
1223.172588
1223.176276
1223.17817
1223.179175
1223.179285
1223.178913
1223.178253
1223.17748
1223.176606
1223.175937
1223.175243
1223.174636
1223.174009
1223.155091
1223.157564
1223.159866
1223.161877
1223.163568
1223.16491
1223.16603
1223.166737
1223.16738
1223.167818
1223.168183
1223.16838
1223.168502
1223.168479
1223.152187
1223.153573
1223.154666
1223.156271
1223.157677
1223.15913
1223.160313
1223.16159
1223.162528
1223.16333
1223.164188
1223.164893
1223.165418
1223.165811
1223.1494
1223.150099
1223.150813
1223.151797
1223.152764
1223.153932
1223.155038
1223.156092
1223.157362
1223.158354
1223.15912
1223.159979
1223.160865
1223.161597
1223.162062
1223.154474
1223.15582
1223.157266
1223.158959
1223.160771
1223.162292
1223.163483
1223.164422
1223.165381
1223.166093
1223.166801
1223.16736
1223.167791
1223.168272
1223.168276
1223.148743
1223.151906
1223.154987
1223.157804
1223.159999
1223.161673
1223.162794
1223.163547
1223.164219
1223.164412
1223.164505
1223.164429
1223.16453
1223.16437
1223.164406
1223.160308
1223.16669
1223.171972
1223.175604
1223.177696
1223.178933
1223.17892
1223.178534
1223.177891
1223.177374
1223.176594
1223.175824
1223.175081
1223.17446
1223.17391
1223.175056
1223.184227
1223.189363
1223.191326
1223.191738
1223.190786
1223.189402
1223.18784
1223.186501
1223.185125
1223.183844
1223.182583
1223.181729
1223.180569
1223.180149
1223.159464
1223.165951
1223.171202
1223.174724
1223.176683
1223.177521
1223.177693
1223.177365
1223.176756
1223.176007
1223.175138
1223.17427
1223.173508
1223.172916
1223.172525
1223.154564
1223.157635
1223.161014
1223.163954
1223.166173
1223.167803
1223.169158
1223.170135
1223.170822
1223.171236
1223.171411
1223.171428
1223.171312
1223.171287
1223.171128
1223.156111
1223.157608
1223.159164
1223.160827
1223.162351
1223.163601
1223.164748
1223.165757
1223.16676
1223.167276
1223.167841
1223.1683
1223.168682
1223.169032
1223.149751
1223.150463
1223.15148
1223.152681
1223.153766
1223.15475
1223.155886
1223.15704
1223.158068
1223.158996
1223.159886
1223.160535
1223.161305
1223.161789
1223.149177
1223.149524
1223.150103
1223.150884
1223.151614
1223.152447
1223.153379
1223.154342
1223.155289
1223.156212
1223.157112
1223.157865
1223.158628
1223.159402
1223.15999
1223.147053
1223.147691
1223.148528
1223.149463
1223.150334
1223.151599
1223.152708
1223.153811
1223.154904
1223.155761
1223.156669
1223.157399
1223.158162
1223.158739
1223.159209
1223.156263
1223.157529
1223.159132
1223.160745
1223.162245
1223.163768
1223.16519
1223.166271
1223.167329
1223.168247
1223.169017
1223.169608
1223.169937
1223.170248
1223.170691
1223.156062
1223.158519
1223.161013
1223.163499
1223.165556
1223.167248
1223.168489
1223.169548
1223.170197
1223.170603
1223.170877
1223.1711
1223.171257
1223.171443
1223.17148
1223.157487
1223.160632
1223.163585
1223.166071
1223.168139
1223.169729
1223.170745
1223.171514
1223.171919
1223.172293
1223.172569
1223.172485
1223.172381
1223.172339
1223.172332
1223.159368
1223.161727
1223.164193
1223.166703
1223.168847
1223.170275
1223.171443
1223.172397
1223.173066
1223.173495
1223.173983
1223.174368
1223.174607
1223.17452
1223.174759
1223.148658
1223.149897
1223.151243
1223.152818
1223.154615
1223.156195
1223.157614
1223.158865
1223.159899
1223.16064
1223.161448
1223.161919
1223.162466
1223.162854
1223.163
1223.147479
1223.148091
1223.148858
1223.149742
1223.150665
1223.15191
1223.152809
1223.153747
1223.154802
1223.155699
1223.156624
1223.157348
1223.158174
1223.158766
1223.159208
1223.151847
1223.152289
1223.152843
1223.15348
1223.154249
1223.15525
1223.156045
1223.156921
1223.157997
1223.158872
1223.159797
1223.160616
1223.161455
1223.162053
1223.147507
1223.147593
1223.147846
1223.148369
1223.149019
1223.149515
1223.150266
1223.150991
1223.151921
1223.152851
1223.153807
1223.154706
1223.155477
1223.156454
1223.157024
1223.151398
1223.151638
1223.152099
1223.152697
1223.153628
1223.154545
1223.155529
1223.156492
1223.157468
1223.15854
1223.159556
1223.160465
1223.16126
1223.162032
1223.162537
1223.150574
1223.151303
1223.152028
1223.153177
1223.154293
1223.155547
1223.156796
1223.157798
1223.158945
1223.159887
1223.160859
1223.161752
1223.162354
1223.163121
1223.163632
1223.153355
1223.154185
1223.1552
1223.156715
1223.158283
1223.159925
1223.161281
1223.162399
1223.163542
1223.164501
1223.165416
1223.165978
1223.166351
1223.167038
1223.167356
1223.148653
1223.149888
1223.15139
1223.15279
1223.154245
1223.155698
1223.157206
1223.158366
1223.159397
1223.160407
1223.161435
1223.162284
1223.163034
1223.163529
1223.163869
1223.150914
1223.151858
1223.153074
1223.154526
1223.15584
1223.157222
1223.158626
1223.159879
1223.161005
1223.161944
1223.162675
1223.163374
1223.16408
1223.164766
1223.165173
1223.143204
1223.143847
1223.144641
1223.14563
1223.146916
1223.147985
1223.149333
1223.150427
1223.151482
1223.152631
1223.153679
1223.15455
1223.155406
1223.156195
1223.156757
1223.151208
1223.151378
1223.151935
1223.152526
1223.153496
1223.154171
1223.155102
1223.156111
1223.157195
1223.158198
1223.159153
1223.160074
1223.160968
1223.161537
1223.162015
1223.152641
1223.152859
1223.153185
1223.153659
1223.154287
1223.154949
1223.155626
1223.156447
1223.157452
1223.158232
1223.15915
1223.160092
1223.160863
1223.161767
1223.162422
)
;

boundaryField
{
    top
    {
        type            zeroGradient;
    }
    bottom
    {
        type            zeroGradient;
    }
    side-walls
    {
        type            zeroGradient;
    }
    inlet
    {
        type            zeroGradient;
    }
    outlet
    {
        type            zeroGradient;
    }
    procBoundary1to0
    {
        type            processor;
        value           nonuniform List<scalar> 
97
(
1223.150533
1223.150533
1223.151564
1223.147596
1223.150489
1223.15091
1223.152371
1223.149329
1223.149182
1223.149846
1223.152558
1223.150968
1223.150968
1223.150968
1223.155326
1223.151787
1223.158418
1223.155436
1223.15091
1223.151949
1223.152504
1223.149305
1223.150735
1223.156693
1223.156693
1223.156693
1223.157794
1223.173463
1223.156311
1223.146885
1223.156523
1223.148719
1223.145119
1223.15652
1223.158825
1223.195323
1223.195323
1223.195323
1223.248234
1223.17704
1223.165705
1223.149743
1223.153855
1223.14979
1223.15597
1223.158621
1223.179832
1219.036687
1219.036687
1219.036687
1223.246459
1223.246459
1223.167216
1223.151562
1223.15133
1223.156724
1223.151791
1223.154636
1223.16316
1223.180888
1223.166555
1223.160625
1223.160625
1223.160625
1223.152592
1223.15131
1223.149105
1223.153704
1223.146519
1223.154181
1223.162579
1223.153301
1223.152314
1223.154732
1223.154732
1223.154732
1223.149153
1223.149105
1223.146756
1223.155386
1223.154399
1223.154766
1223.157611
1223.14773
1223.147071
1223.151503
1223.151503
1223.151503
1223.147398
1223.151241
1223.150212
1223.152723
1223.147958
1223.150209
1223.142777
1223.150921
1223.152612
)
;
    }
}


// ************************************************************************* //
