/*--------------------------------*- C++ -*----------------------------------*\
| =========                 |                                                 |
| \\      /  F ield         | OpenFOAM: The Open Source CFD Toolbox           |
|  \\    /   O peration     | Version:  4.x                                   |
|   \\  /    A nd           | Web:      www.OpenFOAM.org                      |
|    \\/     M anipulation  |                                                 |
\*---------------------------------------------------------------------------*/
FoamFile
{
    version     2.0;
    format      ascii;
    class       volVectorField;
    location    "7000";
    object      U;
}
// * * * * * * * * * * * * * * * * * * * * * * * * * * * * * * * * * * * * * //

dimensions      [0 1 -1 0 0 0 0];

internalField   nonuniform List<vector> 
1174
(
(0.01100028489 -9.297687634e-09 -9.117727429e-09)
(0.01100030715 -9.885749659e-09 -9.289100673e-09)
(0.01100033593 -6.576445643e-09 -6.24871775e-09)
(0.01100033744 -4.976591742e-09 -2.986363763e-09)
(0.01100033076 -2.214995206e-09 -1.847544913e-09)
(0.01100030798 4.986740715e-10 -1.104165049e-09)
(0.01100027801 2.616691041e-09 5.22199805e-10)
(0.01100023984 1.140666892e-09 2.148369472e-09)
(0.01100020332 3.35444879e-09 3.675774863e-09)
(0.01100016057 2.124926417e-09 6.669935236e-09)
(0.01100011627 4.160809621e-09 5.96111919e-09)
(0.01100007433 3.195459023e-09 3.146040788e-09)
(0.01100004041 3.689565983e-09 4.028269864e-09)
(0.01099999759 4.045347537e-09 3.364731075e-09)
(0.01100029454 -4.537205031e-08 -1.144547443e-08)
(0.01100030396 -3.797965015e-08 -1.19443279e-08)
(0.01100032388 -2.489449918e-08 -7.039619772e-09)
(0.01100031056 -1.58536201e-08 -3.439971517e-09)
(0.01100029068 -7.701843297e-09 -1.058302683e-09)
(0.01100025436 -1.82329487e-09 6.478810517e-10)
(0.01100021432 2.334010277e-09 1.814984473e-09)
(0.01100017098 6.238399176e-09 4.01859579e-09)
(0.01100012802 9.135699274e-09 4.176619229e-09)
(0.01100008281 7.743680159e-09 5.789673479e-09)
(0.01100003946 1.005976118e-08 5.226848162e-09)
(0.01099999708 1.12583263e-08 4.002053471e-09)
(0.01099996549 1.127479174e-08 5.582651125e-09)
(0.01099992617 9.780438587e-09 3.511422292e-09)
(0.01100031958 -3.846004749e-08 -2.156420544e-08)
(0.01100029877 -3.578090934e-08 -2.208975064e-08)
(0.0110002996 -2.272824317e-08 -1.107558126e-08)
(0.01100026186 -9.800416898e-09 -4.85292177e-09)
(0.01100021432 -1.760258565e-09 2.144051818e-09)
(0.01100015844 1.905525256e-09 1.592707441e-09)
(0.01100010262 5.772158997e-09 3.591213718e-09)
(0.01100004959 8.28696924e-09 4.4089375e-09)
(0.01100000011 9.41008533e-09 4.749670605e-09)
(0.01099995808 1.121854614e-08 3.867502783e-09)
(0.01099992004 1.222624619e-08 4.989430974e-09)
(0.01099987958 1.132664027e-08 3.986335301e-09)
(0.01099984871 1.235847548e-08 4.877671676e-09)
(0.01099981822 1.14139867e-08 2.695586762e-09)
(0.01100033291 -4.726571541e-08 -7.939211496e-09)
(0.01100025704 -2.965566826e-08 -2.261218847e-08)
(0.01100023971 -9.354831209e-09 -1.030850161e-08)
(0.01100017808 1.245501328e-09 -4.47743865e-10)
(0.01100011076 3.650096542e-09 3.121009873e-09)
(0.01100004394 6.171175494e-09 7.390985387e-09)
(0.01099998019 7.704645049e-09 1.070124738e-08)
(0.01099992662 8.138065645e-09 1.053544103e-08)
(0.0109998773 8.26844527e-09 1.030340056e-08)
(0.01099983935 1.06034668e-08 8.711300722e-09)
(0.01099980178 1.012907701e-08 7.692475968e-09)
(0.01099976714 9.712957385e-09 5.007352826e-09)
(0.01099974826 1.091730251e-08 7.834751572e-09)
(0.01099972478 7.51560799e-09 6.308971528e-09)
(0.01100041598 8.16661675e-10 -5.753775378e-09)
(0.01100026563 1.099783923e-09 -1.30528008e-08)
(0.01100021727 1.857945856e-09 5.922927396e-10)
(0.01100013254 1.207274384e-09 8.704179379e-09)
(0.01100005496 -1.762739292e-10 1.038032814e-08)
(0.01099998409 1.943505957e-09 1.341538481e-08)
(0.01099992138 1.577423952e-09 1.185541627e-08)
(0.01099986653 2.750236979e-10 1.064937693e-08)
(0.01099982106 1.277767344e-09 9.089473111e-09)
(0.0109997823 2.03761431e-09 1.011543424e-08)
(0.01099975237 2.096110861e-09 7.275190366e-09)
(0.01099972076 -1.012396517e-10 5.165528691e-09)
(0.01099970503 2.621889375e-10 6.870096543e-09)
(0.01099968836 -3.572157018e-10 4.301762751e-09)
(0.01100033079 4.827660032e-08 -7.11773691e-09)
(0.01100025709 3.014849542e-08 -2.281884339e-08)
(0.01100024029 1.242365671e-08 -9.547258562e-09)
(0.01100017418 1.122009456e-09 -7.747311152e-11)
(0.01100011154 -3.648578292e-09 5.181809151e-09)
(0.01100004224 -6.850699562e-09 8.209224341e-09)
(0.01099997952 -7.480962333e-09 9.956185121e-09)
(0.01099992663 -6.776018549e-09 1.136136471e-08)
(0.01099987609 -7.897540565e-09 1.082504072e-08)
(0.01099983632 -8.182227771e-09 8.197522513e-09)
(0.0109998028 -8.908367495e-09 6.826214701e-09)
(0.0109997697 -7.194488466e-09 6.427742115e-09)
(0.01099974715 -6.577102882e-09 6.485736278e-09)
(0.01099972677 -6.284836474e-09 7.149017097e-09)
(0.011000321 4.063213154e-08 -1.99383857e-08)
(0.01100029878 3.752422468e-08 -1.952411054e-08)
(0.01100029822 2.222491053e-08 -9.60732556e-09)
(0.01100025914 1.196942309e-08 -3.337917193e-09)
(0.01100021018 3.099095795e-09 1.03558918e-09)
(0.01100015749 -3.473783572e-09 6.01548084e-09)
(0.01100010391 -5.491999345e-09 7.881710712e-09)
(0.01100005147 -7.278754762e-09 8.437342329e-09)
(0.01100000243 -7.843326591e-09 7.592187541e-09)
(0.01099995922 -1.007506786e-08 7.744035486e-09)
(0.01099991628 -1.076756332e-08 6.461621629e-09)
(0.01099987943 -9.353810619e-09 5.137957065e-09)
(0.01099985015 -1.341473617e-08 6.544302265e-09)
(0.01099981742 -9.672884029e-09 3.617140304e-09)
(0.01100029269 4.388216215e-08 -1.031990894e-08)
(0.01100030321 3.714447659e-08 -1.17002766e-08)
(0.01100032225 2.498791174e-08 -9.048680061e-09)
(0.01100030937 1.449846975e-08 -4.006699069e-09)
(0.01100028798 7.784116662e-09 -3.505948755e-09)
(0.01100025378 1.786361806e-09 2.091883166e-09)
(0.01100021654 -3.23974296e-09 3.923623252e-09)
(0.0110001742 -4.675565335e-09 4.152319178e-09)
(0.01100012687 -7.78722597e-09 4.154774891e-09)
(0.01100008287 -8.941378279e-09 3.928551453e-09)
(0.01100003995 -9.619568173e-09 5.962914282e-09)
(0.01099999775 -9.829986067e-09 4.341901502e-09)
(0.01099996245 -1.077304969e-08 5.023904082e-09)
(0.01099992162 -1.035313499e-08 4.103301483e-09)
(0.01100028196 1.001217808e-08 -1.079987869e-08)
(0.01100030815 9.799701052e-09 -1.154056279e-08)
(0.01100033428 7.414728865e-09 -7.577688907e-09)
(0.0110003371 5.302623121e-09 -4.752769817e-09)
(0.01100032654 2.574866307e-09 -3.25583925e-09)
(0.01100030534 1.554379496e-09 -6.154462385e-10)
(0.01100027738 -3.775928324e-10 6.192100614e-10)
(0.01100024359 -2.681089104e-09 1.632045585e-09)
(0.01100020267 -4.30613095e-09 1.463336641e-09)
(0.01100016016 -2.814256983e-09 2.890810836e-09)
(0.0110001182 -2.552050152e-09 3.766770031e-09)
(0.01100007408 -3.448883073e-09 4.39119093e-09)
(0.0110000365 -4.429516053e-09 5.889673799e-09)
(0.010999996 -4.198320068e-09 4.438709132e-09)
(0.01100020729 -3.07979231e-08 -7.630041408e-08)
(0.01100029262 -1.071036518e-08 -4.341313515e-08)
(0.0110003038 -1.246102759e-08 -3.550580727e-08)
(0.0110003239 -8.420425589e-09 -2.3712221e-08)
(0.01100030954 -4.309417569e-09 -1.361897979e-08)
(0.01100028865 -1.70648274e-09 -6.989445993e-09)
(0.01100025479 2.047317096e-09 -4.985130537e-10)
(0.01100021454 2.444977055e-09 4.905661136e-09)
(0.01100017233 3.559034106e-09 6.491782238e-09)
(0.01100012547 3.777637822e-09 8.282304809e-09)
(0.01100008112 4.922293701e-09 1.003879481e-08)
(0.01100004137 5.98357899e-09 1.132487238e-08)
(0.01099999713 6.473194298e-09 1.244249785e-08)
(0.01099996474 6.314021942e-09 1.315367124e-08)
(0.01099992664 5.783815895e-09 9.874531528e-09)
(0.01100030673 -5.457627724e-08 -5.302886173e-08)
(0.01100028002 -4.844679948e-08 -4.746006504e-08)
(0.0110002846 -2.901403004e-08 -2.804393826e-08)
(0.01100025047 -1.341086713e-08 -1.193305529e-08)
(0.01100020786 -1.477988009e-09 -3.298282266e-09)
(0.01100015942 5.160099248e-09 3.589082429e-09)
(0.01100010878 9.886718748e-09 8.998457696e-09)
(0.0110000629 1.163290707e-08 1.058215676e-08)
(0.01100001524 1.370619388e-08 1.294220643e-08)
(0.01099997446 1.369265759e-08 1.230471682e-08)
(0.01099993505 1.441064868e-08 1.374022661e-08)
(0.01099990198 1.297773597e-08 1.358843033e-08)
(0.0109998731 1.444267124e-08 1.536495504e-08)
(0.01099984215 1.286333729e-08 1.230506102e-08)
(0.01100033775 -3.454165436e-08 -8.940512092e-08)
(0.01100023101 -4.870279263e-08 -6.906774254e-08)
(0.01100019696 -2.506885281e-08 -2.91712545e-08)
(0.01100011668 -8.130232774e-09 -3.249423239e-09)
(0.01100004217 4.428260829e-09 9.950276175e-09)
(0.01099997295 1.212286902e-08 1.75320267e-08)
(0.01099991418 1.601898865e-08 2.083023492e-08)
(0.01099986792 1.648388501e-08 2.347793645e-08)
(0.01099982797 1.706789798e-08 2.256486384e-08)
(0.01099979587 1.652964538e-08 2.078006906e-08)
(0.01099976969 1.673602691e-08 2.013843658e-08)
(0.01099974807 1.659587465e-08 1.720321005e-08)
(0.01099972823 1.65891035e-08 1.919214623e-08)
(0.01099971529 1.399527593e-08 1.385481883e-08)
(0.01100030321 -3.548558359e-08 -6.685708582e-08)
(0.01100006386 -1.919276913e-08 -7.664042745e-08)
(0.01100001029 3.58939455e-09 -1.773273734e-08)
(0.01099990217 1.498205886e-08 1.48025295e-08)
(0.01099981286 1.76750077e-08 2.751679385e-08)
(0.0109997482 1.789747448e-08 3.556147758e-08)
(0.01099969486 1.839459816e-08 3.663035659e-08)
(0.01099966387 1.552501822e-08 3.417253604e-08)
(0.01099963894 1.403677409e-08 3.081367563e-08)
(0.01099962071 1.223844485e-08 2.678966434e-08)
(0.01099960896 1.177500018e-08 2.379599173e-08)
(0.01099960252 1.04025405e-08 2.055576014e-08)
(0.01099960067 1.214873318e-08 2.049846785e-08)
(0.01099959788 9.641547107e-09 1.5540691e-08)
(0.0110004444 8.40781753e-10 -3.665401954e-08)
(0.01099997894 6.577265919e-10 -1.971510733e-08)
(0.01099988289 1.976450045e-09 3.771885746e-08)
(0.01099976182 2.344242646e-09 5.650660015e-08)
(0.01099967783 1.939318321e-11 5.679282842e-08)
(0.01099962338 7.375042204e-10 5.350568295e-08)
(0.01099958322 9.961239212e-10 4.674985975e-08)
(0.01099956281 8.596033071e-10 4.010870171e-08)
(0.01099954878 7.896829854e-10 3.542312653e-08)
(0.01099954277 1.126228103e-09 2.868676079e-08)
(0.01099954268 8.482541419e-10 2.584881725e-08)
(0.01099954098 -4.347985208e-10 2.080969204e-08)
(0.01099954574 6.874878069e-11 2.072731859e-08)
(0.01099955066 4.361829643e-11 1.656929146e-08)
(0.01100029981 3.549966646e-08 -6.708411645e-08)
(0.01100006631 2.152723733e-08 -7.545895894e-08)
(0.01100000682 -1.591072141e-09 -1.883475677e-08)
(0.01099989921 -1.44846945e-08 1.387063548e-08)
(0.01099981256 -1.863884354e-08 2.88018048e-08)
(0.01099974773 -1.791953871e-08 3.495434341e-08)
(0.01099969772 -1.692003485e-08 3.632199668e-08)
(0.01099966141 -1.522683176e-08 3.385442863e-08)
(0.01099963759 -1.344514002e-08 3.088540534e-08)
(0.01099961889 -1.121489567e-08 2.713839637e-08)
(0.01099961164 -1.224803259e-08 2.511432691e-08)
(0.01099960239 -1.100055296e-08 2.205595164e-08)
(0.01099959888 -1.062719782e-08 2.130427906e-08)
(0.01099959734 -8.783042728e-09 1.766846941e-08)
(0.01100033561 3.723735647e-08 -8.961749751e-08)
(0.01100023116 5.000038658e-08 -6.889448138e-08)
(0.01100019359 2.548529813e-08 -2.873276293e-08)
(0.01100011335 7.513653817e-09 -3.275923648e-09)
(0.01100004299 -3.762433158e-09 1.105586364e-08)
(0.0109999743 -1.115419501e-08 2.002099715e-08)
(0.01099991408 -1.304817966e-08 2.253387081e-08)
(0.01099986814 -1.486972523e-08 2.261892459e-08)
(0.01099982657 -1.653143818e-08 2.27655026e-08)
(0.0109997962 -1.554705538e-08 2.017600472e-08)
(0.01099976754 -1.444709112e-08 2.035109989e-08)
(0.01099974628 -1.26047556e-08 1.836613962e-08)
(0.0109997292 -1.55419051e-08 1.622850878e-08)
(0.0109997131 -1.441250131e-08 1.483317965e-08)
(0.01100030274 5.476119697e-08 -5.589945451e-08)
(0.01100027936 4.664709841e-08 -4.858249108e-08)
(0.01100028462 2.815421053e-08 -2.795391817e-08)
(0.0110002506 1.503264075e-08 -1.475577223e-08)
(0.01100020801 5.395687849e-09 -3.327645742e-09)
(0.01100015797 -4.05911157e-09 7.132047533e-09)
(0.0110001098 -1.080952341e-08 9.056459471e-09)
(0.0110000635 -1.335923412e-08 1.219485843e-08)
(0.01100001724 -1.294042666e-08 1.218387416e-08)
(0.01099997425 -1.416764718e-08 1.228453803e-08)
(0.01099993363 -1.282679717e-08 1.395875389e-08)
(0.01099989988 -1.169107476e-08 1.533584358e-08)
(0.01099987135 -1.164069767e-08 1.460376126e-08)
(0.0109998399 -1.129518642e-08 1.132386188e-08)
(0.01100029415 1.030517679e-08 -4.426868025e-08)
(0.01100030434 1.302084419e-08 -3.866366536e-08)
(0.01100032193 9.375984918e-09 -2.413552722e-08)
(0.01100030869 5.903790734e-09 -1.463471989e-08)
(0.01100028878 1.963168311e-09 -6.6950114e-09)
(0.01100025395 -1.034268895e-09 1.332605343e-10)
(0.01100021325 -2.425901105e-09 4.12287292e-09)
(0.01100017225 -3.933735626e-09 4.755960042e-09)
(0.01100012859 -5.076011001e-09 8.772667201e-09)
(0.01100008503 -4.049062976e-09 8.196071983e-09)
(0.01100004169 -4.449607583e-09 1.010725035e-08)
(0.01099999617 -3.619773467e-09 1.17989441e-08)
(0.01099996502 -5.269387278e-09 1.190780793e-08)
(0.01099992318 -3.103046545e-09 1.014171685e-08)
(0.01100020209 -5.992882356e-08 -9.630572975e-08)
(0.01100031898 -1.629747103e-08 -3.764389583e-08)
(0.01100029898 -1.768168728e-08 -3.688573646e-08)
(0.01100029806 -7.086057587e-09 -2.312206697e-08)
(0.01100026033 -3.258081846e-11 -1.108328315e-08)
(0.0110002114 4.118941137e-10 -2.190547031e-09)
(0.01100015604 6.142463193e-09 4.029585834e-09)
(0.01100010071 7.503018595e-09 6.581513838e-09)
(0.01100005225 9.415456437e-09 7.105232411e-09)
(0.01100000177 1.062625059e-08 1.015130689e-08)
(0.01099995423 8.5383643e-09 1.023669772e-08)
(0.0109999179 9.982943115e-09 1.221964035e-08)
(0.01099987792 9.770695517e-09 1.376425601e-08)
(0.01099985077 1.092302723e-08 1.475153868e-08)
(0.01099981634 8.464723943e-09 1.479767313e-08)
(0.0110002009 -2.575625548e-07 -1.534411391e-07)
(0.01100033582 -8.925161038e-08 -3.662048802e-08)
(0.01100022865 -6.961080878e-08 -4.733774191e-08)
(0.0110001927 -2.790122498e-08 -2.642506436e-08)
(0.01100011373 -1.472923716e-09 -7.815411535e-09)
(0.01100004055 1.024729749e-08 4.632907489e-09)
(0.01099997218 1.862287207e-08 1.240740905e-08)
(0.010999914 2.159741997e-08 1.503711744e-08)
(0.01099986986 2.330361097e-08 1.577231405e-08)
(0.01099982795 2.094894907e-08 1.57752415e-08)
(0.01099979514 2.120465996e-08 1.478527497e-08)
(0.01099977004 2.004149629e-08 1.354820676e-08)
(0.0109997467 1.759285206e-08 1.51640293e-08)
(0.01099973021 1.672357299e-08 1.77421671e-08)
(0.01099971205 1.482134655e-08 1.409631694e-08)
(0.01100035124 -5.249380778e-08 -5.613623366e-08)
(0.01100003449 -6.862905256e-08 -7.055444838e-08)
(0.01099991416 -1.369860838e-08 -1.432137132e-08)
(0.01099976486 1.382681261e-08 1.459867522e-08)
(0.01099966243 2.843653036e-08 2.847291276e-08)
(0.01099959832 3.283064063e-08 3.346024086e-08)
(0.01099955557 3.528640174e-08 3.278357727e-08)
(0.01099953596 3.229200538e-08 2.963412002e-08)
(0.01099952648 2.953439716e-08 2.715394929e-08)
(0.01099952632 2.668914827e-08 2.519169646e-08)
(0.01099952899 2.218739802e-08 2.148577966e-08)
(0.01099953474 1.791238784e-08 2.158082711e-08)
(0.0109995424 2.059515459e-08 2.014092486e-08)
(0.01099954836 1.600867381e-08 1.503307198e-08)
(0.01100010279 -7.063700454e-10 6.376448968e-08)
(0.01099944897 1.973620845e-08 -9.65477818e-08)
(0.0109993347 5.656963293e-08 1.553927979e-09)
(0.01099918738 6.292509784e-08 4.644668822e-08)
(0.0109991297 5.359328389e-08 5.523181634e-08)
(0.01099911955 4.480824359e-08 5.743175412e-08)
(0.01099913749 3.709628682e-08 5.225348359e-08)
(0.01099917371 2.98714419e-08 4.602648402e-08)
(0.01099921323 2.448092919e-08 3.792881842e-08)
(0.01099925602 1.822140701e-08 3.139348934e-08)
(0.01099929602 1.68452207e-08 2.501793681e-08)
(0.01099933504 1.527591471e-08 2.299205138e-08)
(0.01099936813 1.317322465e-08 2.316103652e-08)
(0.01099939851 1.144506938e-08 1.775078567e-08)
(0.01100024238 1.296443384e-09 5.078715394e-07)
(0.01099890665 1.393375768e-09 5.899927576e-08)
(0.01099882211 1.662610726e-09 1.107795621e-07)
(0.01099875179 1.608341153e-09 1.225647741e-07)
(0.01099877387 5.349244676e-10 1.004939696e-07)
(0.0109988423 1.283277067e-09 8.021289838e-08)
(0.01099891781 9.962865814e-11 6.495524857e-08)
(0.01099899739 6.225720034e-11 5.358462239e-08)
(0.01099907005 9.164598897e-10 4.233854071e-08)
(0.01099913568 8.281887019e-10 3.328464129e-08)
(0.01099919866 2.349841235e-09 2.855196073e-08)
(0.01099925075 1.778385303e-09 2.479713779e-08)
(0.0109992974 9.245728095e-10 2.273488339e-08)
(0.01099934092 4.408108711e-10 1.806204974e-08)
(0.01100010317 1.661829514e-09 6.267032179e-08)
(0.01099944975 -1.890655066e-08 -9.477923431e-08)
(0.0109993325 -5.520977423e-08 2.511017427e-09)
(0.01099918607 -6.177084366e-08 4.570371381e-08)
(0.01099912811 -5.225847448e-08 5.609061214e-08)
(0.01099912232 -4.296450641e-08 5.830471398e-08)
(0.01099913804 -3.333200362e-08 5.399542834e-08)
(0.01099917387 -2.779247339e-08 4.689243258e-08)
(0.01099921498 -2.174532207e-08 3.868302981e-08)
(0.01099925495 -1.772163221e-08 3.239049314e-08)
(0.01099929818 -1.581878938e-08 2.862373963e-08)
(0.01099933544 -1.396994137e-08 2.418200346e-08)
(0.01099936785 -1.379651681e-08 2.341163575e-08)
(0.01099940075 -1.06978204e-08 1.708033063e-08)
(0.01100035375 5.430294156e-08 -5.526707765e-08)
(0.0110000359 6.925070191e-08 -7.054433555e-08)
(0.01099991188 1.433184641e-08 -1.295433565e-08)
(0.01099976385 -1.610602844e-08 1.530920602e-08)
(0.01099966424 -2.793602174e-08 2.776763848e-08)
(0.01099959809 -3.281397178e-08 3.174135382e-08)
(0.010999556 -3.424440767e-08 3.533715374e-08)
(0.01099953848 -3.028221556e-08 3.304534398e-08)
(0.01099952459 -2.671045735e-08 2.841762168e-08)
(0.01099952642 -2.363042963e-08 2.474412729e-08)
(0.01099952808 -2.158515572e-08 2.274606891e-08)
(0.01099953524 -1.812671138e-08 2.063990524e-08)
(0.01099954234 -1.887578441e-08 2.188595285e-08)
(0.01099954765 -1.643441839e-08 1.651802588e-08)
(0.01100033599 9.028749743e-08 -3.757492725e-08)
(0.0110002312 6.859851582e-08 -4.994265575e-08)
(0.01100019381 2.899849214e-08 -2.547508967e-08)
(0.01100011364 5.436475263e-09 -7.003654668e-09)
(0.01100004156 -1.0037837e-08 3.901187366e-09)
(0.01099997365 -1.82514662e-08 1.055125426e-08)
(0.01099991381 -2.115255015e-08 1.712395373e-08)
(0.01099986901 -2.251897891e-08 1.661409638e-08)
(0.01099982848 -2.261035304e-08 1.813811912e-08)
(0.01099979581 -2.023206268e-08 1.548730561e-08)
(0.01099976728 -1.914726489e-08 1.551458436e-08)
(0.01099974601 -1.615682324e-08 1.557224318e-08)
(0.01099972827 -1.732657309e-08 1.566666957e-08)
(0.010999709 -1.48137714e-08 1.286896196e-08)
(0.01100031994 1.97802664e-08 -3.888499213e-08)
(0.01100029979 1.831122533e-08 -3.668522724e-08)
(0.01100030164 1.078655777e-08 -2.361178395e-08)
(0.01100025756 2.938343904e-09 -1.207104317e-08)
(0.01100021178 -9.142692378e-10 -3.619682167e-09)
(0.01100015728 -3.97461684e-09 3.251403131e-09)
(0.01100010283 -4.723571812e-09 8.980206315e-09)
(0.0110000498 -7.728136509e-09 1.037007689e-08)
(0.01100000085 -7.64117635e-09 1.117018776e-08)
(0.01099995776 -7.160887437e-09 1.272794106e-08)
(0.0109999165 -5.672223002e-09 1.337745725e-08)
(0.01099987681 -5.912253649e-09 1.142214541e-08)
(0.01099985219 -6.92142942e-09 1.366734559e-08)
(0.01099981778 -4.912338703e-09 1.208578652e-08)
(0.01100020934 -8.466376254e-08 -1.50474423e-07)
(0.01100033095 -7.999411478e-09 -4.762931853e-08)
(0.01100025527 -2.140505192e-08 -2.792187089e-08)
(0.01100024245 -8.567073967e-09 -1.046203229e-08)
(0.01100017774 -1.111959203e-09 -1.556928462e-09)
(0.0110001085 6.144853734e-09 5.411167847e-09)
(0.01100004425 8.814160665e-09 7.43624875e-09)
(0.0109999778 1.066455435e-08 8.571697462e-09)
(0.01099992682 1.190407722e-08 9.81847126e-09)
(0.01099987538 1.102449165e-08 1.061394319e-08)
(0.01099983459 9.84367011e-09 7.548830993e-09)
(0.01099980037 7.344755793e-09 8.441676949e-09)
(0.01099977168 7.822934023e-09 6.905817737e-09)
(0.01099974697 8.498728964e-09 8.474268608e-09)
(0.010999724 6.506091029e-09 8.001572856e-09)
(0.01100020624 -3.905691398e-07 -3.014628727e-07)
(0.0110003036 -6.703645786e-08 -3.72816815e-08)
(0.01100006361 -7.617284005e-08 -2.165676943e-08)
(0.01100000739 -1.763389111e-08 1.21448679e-09)
(0.01099990103 1.497455554e-08 1.300445537e-08)
(0.01099981455 2.833189997e-08 1.707604031e-08)
(0.01099974491 3.472017919e-08 1.780109696e-08)
(0.01099969455 3.512397761e-08 1.709514381e-08)
(0.0109996622 3.301022699e-08 1.622907418e-08)
(0.01099963552 3.169280091e-08 1.578835963e-08)
(0.01099961853 2.843888786e-08 1.405898867e-08)
(0.01099961074 2.478432942e-08 1.168165809e-08)
(0.01099960513 2.218892725e-08 1.012045892e-08)
(0.01099960138 2.101536878e-08 1.002025537e-08)
(0.0109995973 1.645869572e-08 8.540974654e-09)
(0.01100008455 -5.291331447e-07 -8.616338295e-07)
(0.01100010279 6.544638604e-08 -3.513421993e-09)
(0.0109994498 -9.583071503e-08 1.817784441e-08)
(0.01099933334 2.885722033e-09 5.491612981e-08)
(0.01099918634 4.641592849e-08 6.051206817e-08)
(0.01099912695 5.694897216e-08 5.254234693e-08)
(0.01099911955 5.792491201e-08 4.306073999e-08)
(0.01099913868 5.397169338e-08 3.602177594e-08)
(0.01099917437 4.58709349e-08 2.947299785e-08)
(0.01099921295 3.724340732e-08 2.331973034e-08)
(0.01099925454 3.251419507e-08 1.979363506e-08)
(0.01099929682 2.993079062e-08 1.482297918e-08)
(0.01099933351 2.317783732e-08 1.405002871e-08)
(0.01099936946 2.364692486e-08 1.372319066e-08)
(0.01099939944 1.892035826e-08 1.160044016e-08)
(0.01099866077 5.27325427e-07 5.241205932e-07)
(0.01099762672 1.082088224e-07 1.07085861e-07)
(0.01099789527 1.316444362e-07 1.305942884e-07)
(0.01099794957 1.265855795e-07 1.248469639e-07)
(0.01099810861 9.493343147e-08 9.528739951e-08)
(0.01099829633 7.087939965e-08 7.148508325e-08)
(0.01099847027 5.370195619e-08 5.218913519e-08)
(0.01099863019 4.182517062e-08 3.76750223e-08)
(0.01099876841 3.089177155e-08 3.212007659e-08)
(0.01099888935 2.427919317e-08 2.379519387e-08)
(0.01099898919 2.05569973e-08 2.188299697e-08)
(0.01099908441 1.709914795e-08 1.751149778e-08)
(0.01099915164 1.596856946e-08 1.682592333e-08)
(0.01099921998 1.285210018e-08 1.361767482e-08)
(0.01099722016 6.658866213e-10 3.351511903e-06)
(0.01099504657 1.071029626e-09 9.831674337e-07)
(0.01099634254 2.161848478e-09 4.655158508e-07)
(0.01099690097 4.681017372e-10 2.917612542e-07)
(0.01099738013 3.431139805e-10 1.673526385e-07)
(0.01099778897 5.907563997e-10 1.00744174e-07)
(0.010998105 6.739432788e-10 6.662568167e-08)
(0.01099835928 1.310663264e-09 4.666137033e-08)
(0.01099855913 7.360864206e-10 3.294574888e-08)
(0.01099872607 -5.913177863e-10 2.55035875e-08)
(0.01099886452 1.407254802e-09 2.048723583e-08)
(0.01099897494 6.516238156e-10 1.741004455e-08)
(0.01099906301 1.439345154e-09 1.776898804e-08)
(0.01099915163 7.165745039e-10 1.14303212e-08)
(0.01099866288 -5.259541236e-07 5.265950784e-07)
(0.01099762686 -1.070788503e-07 1.060463445e-07)
(0.0109978915 -1.309589807e-07 1.289138718e-07)
(0.01099795129 -1.255769127e-07 1.241967071e-07)
(0.01099811019 -9.364276763e-08 9.337463846e-08)
(0.01099829766 -7.059319382e-08 7.036516323e-08)
(0.01099846909 -5.079333116e-08 5.23327088e-08)
(0.01099863011 -3.820573002e-08 4.151841762e-08)
(0.01099876689 -2.925854833e-08 3.162984944e-08)
(0.01099889054 -2.357865494e-08 2.282501146e-08)
(0.01099899328 -1.894336925e-08 1.910229032e-08)
(0.01099908249 -1.670553155e-08 1.655909201e-08)
(0.01099914955 -1.691105671e-08 1.776727265e-08)
(0.01099922226 -1.334230697e-08 1.264756505e-08)
(0.01100010302 -6.523394006e-08 -4.347196048e-10)
(0.01099944968 9.46773636e-08 1.845215652e-08)
(0.01099933217 -3.104159827e-09 5.526288213e-08)
(0.01099918724 -4.613070957e-08 6.259325637e-08)
(0.01099913083 -5.576945398e-08 5.334972175e-08)
(0.01099912142 -5.664594479e-08 4.526739872e-08)
(0.01099913766 -5.196958708e-08 3.685707258e-08)
(0.01099917196 -4.627232211e-08 2.958751279e-08)
(0.01099921267 -3.712643028e-08 2.28382828e-08)
(0.01099925447 -2.989164191e-08 1.926049671e-08)
(0.01099929604 -2.695631883e-08 1.676539836e-08)
(0.01099933637 -2.171223482e-08 1.369902781e-08)
(0.0109993651 -2.245049661e-08 1.537001095e-08)
(0.01099939737 -1.792174866e-08 1.137801436e-08)
(0.01100030246 6.816293568e-08 -3.691171238e-08)
(0.01100006527 7.517360094e-08 -1.967943089e-08)
(0.01100000723 1.795455115e-08 1.908145687e-09)
(0.01099990007 -1.485321146e-08 1.563800374e-08)
(0.01099981658 -2.836998253e-08 1.974189353e-08)
(0.01099974955 -3.430784458e-08 1.961143591e-08)
(0.01099969379 -3.480955039e-08 1.912356165e-08)
(0.01099966321 -3.31444051e-08 1.681208911e-08)
(0.01099963334 -2.974823109e-08 1.434756871e-08)
(0.01099962098 -2.632938959e-08 1.360990098e-08)
(0.01099961086 -2.288986014e-08 1.253762445e-08)
(0.01099960313 -2.044590369e-08 1.007109798e-08)
(0.0109995995 -1.976026072e-08 1.056560446e-08)
(0.01099959366 -1.736434266e-08 9.719502938e-09)
(0.011000332 7.770776279e-09 -4.862406961e-08)
(0.0110002563 2.344868656e-08 -2.935867355e-08)
(0.01100023978 1.018791804e-08 -1.03903044e-08)
(0.01100017951 8.024093495e-10 9.296436367e-10)
(0.01100010847 -3.024174117e-09 6.230596595e-09)
(0.01100004568 -8.29070775e-09 7.429195681e-09)
(0.01099997836 -1.026051902e-08 8.348383558e-09)
(0.01099992435 -1.044233829e-08 9.282809427e-09)
(0.01099987571 -1.032344266e-08 9.291448863e-09)
(0.01099983352 -8.853805176e-09 9.813985374e-09)
(0.01099980083 -7.940967323e-09 8.771491904e-09)
(0.0109997687 -5.592539676e-09 6.307508261e-09)
(0.01099974458 -6.573595597e-09 9.050034477e-09)
(0.0109997212 -5.242954187e-09 7.276744382e-09)
(0.01100022297 -2.055620215e-07 -9.865107842e-10)
(0.0110004169 -2.904860649e-09 -1.022794734e-09)
(0.01100026267 -1.119774704e-08 1.020248245e-11)
(0.01100021683 4.57035669e-09 1.052656678e-09)
(0.0110001331 1.234600717e-08 -2.052661988e-09)
(0.01100005624 1.585098831e-08 -6.896560528e-10)
(0.01099998576 1.59735608e-08 -1.364659182e-09)
(0.01099991931 1.576053468e-08 1.163267515e-09)
(0.01099986489 1.459258944e-08 -1.287539755e-09)
(0.01099982019 1.238968685e-08 -5.916928451e-10)
(0.01099978111 8.409888569e-09 1.841252493e-09)
(0.01099975087 1.077201211e-08 1.397827797e-09)
(0.01099972426 9.633942001e-09 -6.499709177e-11)
(0.01099970312 1.056586316e-08 -4.83421039e-10)
(0.01099968651 8.472349743e-09 -7.409311821e-10)
(0.01100023065 -9.511651973e-07 1.291820816e-09)
(0.01100044497 -3.709937826e-08 1.269951123e-09)
(0.01099997663 -2.224527674e-08 1.687342222e-10)
(0.01099988142 3.831609694e-08 -1.844102051e-10)
(0.01099976153 5.824592867e-08 -1.995660841e-09)
(0.01099967634 5.731262596e-08 -3.72659294e-11)
(0.01099962261 5.320836008e-08 -1.046132021e-09)
(0.01099958475 4.70771087e-08 1.845923722e-10)
(0.01099956314 4.190082047e-08 5.059022808e-10)
(0.01099955064 3.542247195e-08 -7.047377839e-10)
(0.01099954329 3.115457755e-08 1.919257571e-09)
(0.01099954033 2.603312606e-08 2.669693754e-09)
(0.01099954378 2.304661891e-08 6.69563834e-10)
(0.01099954688 2.221894419e-08 -6.932199992e-10)
(0.01099955073 1.82230601e-08 -1.092482589e-09)
(0.0109999237 -1.826365177e-06 8.768423592e-10)
(0.01100024354 5.085626601e-07 9.677921029e-10)
(0.01099890591 5.925056644e-08 1.72087622e-09)
(0.01099882097 1.111813747e-07 1.093482572e-09)
(0.01099875327 1.250558379e-07 8.291988059e-10)
(0.01099877259 1.022232087e-07 4.347266288e-10)
(0.0109988395 8.3170975e-08 8.306587438e-10)
(0.01099891728 6.529492362e-08 5.008529526e-10)
(0.0109989969 5.163584189e-08 1.233802649e-09)
(0.01099907067 4.239518941e-08 -1.426762726e-10)
(0.0109991363 3.482968748e-08 5.065010462e-10)
(0.01099919887 2.988143618e-08 2.025962538e-09)
(0.01099924963 2.53737368e-08 -1.40568627e-09)
(0.01099929625 2.515093143e-08 -6.520976853e-10)
(0.01099933906 1.926765523e-08 -8.294233275e-11)
(0.01099670816 -8.346554162e-06 1.566249524e-09)
(0.01099721951 3.352723977e-06 -1.557913871e-09)
(0.01099504694 9.832638706e-07 -7.327141464e-10)
(0.01099634109 4.65970718e-07 -4.916645388e-10)
(0.01099690049 2.914620564e-07 -1.305962646e-09)
(0.01099737973 1.653883854e-07 -8.496091155e-10)
(0.01099778841 1.008774199e-07 -6.242393654e-10)
(0.01099810489 6.71319831e-08 8.149973122e-10)
(0.01099835975 4.619097074e-08 1.825965308e-09)
(0.01099856273 3.191509891e-08 5.324541219e-10)
(0.01099872857 2.453222037e-08 3.008362705e-10)
(0.01099885972 2.176144859e-08 -7.620015062e-11)
(0.01099897525 1.828769791e-08 4.794559382e-10)
(0.01099906488 1.7605232e-08 2.523919059e-10)
(0.01099914904 1.234194439e-08 -1.778224662e-10)
(0.01099368392 1.639336508e-09 -1.135087194e-09)
(0.01098670578 1.262428854e-10 2.560405691e-10)
(0.01099268439 3.095932346e-10 -8.928869719e-10)
(0.01099500318 -7.152929944e-10 3.397026998e-11)
(0.01099625568 -1.274760709e-09 -8.368686288e-10)
(0.01099708978 5.68492605e-10 3.165528932e-10)
(0.01099764451 5.935475861e-11 -3.547106978e-10)
(0.01099803472 1.891965326e-09 8.889939125e-10)
(0.01099832052 1.430105246e-09 9.580016748e-11)
(0.01099854417 1.650050395e-09 1.083054934e-09)
(0.0109987159 2.665892629e-09 9.135948367e-10)
(0.01099885798 1.450340425e-09 5.328097934e-10)
(0.01099896659 1.786999016e-09 -9.308606774e-10)
(0.01099907637 2.882683444e-10 7.709458652e-10)
(0.01099721863 -3.350778604e-06 -9.946823015e-10)
(0.01099504672 -9.832325801e-07 -1.602502532e-09)
(0.01099634241 -4.652205391e-07 8.996108007e-11)
(0.01099690158 -2.8947857e-07 9.239273669e-11)
(0.01099738244 -1.666637101e-07 -7.79204423e-10)
(0.01099778992 -1.002391883e-07 -1.143035743e-09)
(0.01099810621 -6.407403574e-08 -8.984355078e-10)
(0.01099835844 -4.373448659e-08 1.14799589e-09)
(0.01099856267 -3.119688373e-08 9.320257473e-10)
(0.01099872627 -2.449080848e-08 2.242788287e-09)
(0.0109988611 -2.094944392e-08 1.804354619e-09)
(0.01099897321 -1.663605172e-08 1.633738054e-09)
(0.01099906274 -1.70672945e-08 -8.612792943e-10)
(0.01099914947 -1.27025795e-08 -8.56234381e-10)
(0.01100023987 -5.096794323e-07 3.063254782e-10)
(0.01099890471 -5.888127097e-08 3.423730887e-10)
(0.01099882358 -1.097665314e-07 -1.546181724e-09)
(0.01099874919 -1.226299868e-07 -7.963091527e-11)