/*--------------------------------*- C++ -*----------------------------------*\
| =========                 |                                                 |
| \\      /  F ield         | OpenFOAM: The Open Source CFD Toolbox           |
|  \\    /   O peration     | Version:  4.x                                   |
|   \\  /    A nd           | Web:      www.OpenFOAM.org                      |
|    \\/     M anipulation  |                                                 |
\*---------------------------------------------------------------------------*/
FoamFile
{
    version     2.0;
    format      ascii;
    class       volScalarField;
    location    "7000";
    object      X_CO2;
}
// * * * * * * * * * * * * * * * * * * * * * * * * * * * * * * * * * * * * * //

dimensions      [0 0 0 0 0 0 0];

internalField   nonuniform List<scalar> 
1174
(
0.04000865899
0.04000963481
0.04001099823
0.04001275913
0.04001489229
0.04001734533
0.04002004899
0.04002292712
0.04002590448
0.04002891174
0.04003188605
0.04003476131
0.04003742073
0.04003949317
0.0400095562
0.04001109232
0.04001311712
0.04001557609
0.04001837892
0.04002142038
0.0400245965
0.04002781477
0.04003099886
0.04003408931
0.04003704021
0.0400398074
0.04004230409
0.04004421671
0.04001151585
0.04001418253
0.04001744821
0.04002112096
0.04002500002
0.04002890992
0.04003271544
0.0400363233
0.0400396768
0.04004274764
0.04004552627
0.04004800807
0.04005015603
0.0400517532
0.04001434558
0.04001843164
0.04002307541
0.04002793211
0.04003272227
0.04003725117
0.04004140212
0.04004511975
0.04004839201
0.04005123461
0.04005367832
0.04005575599
0.04005747512
0.04005871042
0.04001633122
0.04002118243
0.04002642607
0.04003169047
0.04003671388
0.04004133501
0.0400454714
0.04004909694
0.0400522228
0.04005488259
0.04005712096
0.04005898267
0.0400604902
0.04006155465
0.04001434554
0.04001843157
0.04002307532
0.04002793201
0.04003272216
0.04003725105
0.040041402
0.04004511962
0.04004839188
0.04005123449
0.04005367819
0.04005575586
0.04005747499
0.04005871029
0.04001151574
0.0400141824
0.04001744806
0.0400211208
0.04002499984
0.04002890973
0.04003271524
0.04003632309
0.04003967659
0.04004274741
0.04004552604
0.04004800784
0.0400501558
0.04005175296
0.04000955612
0.04001109221
0.040013117
0.04001557595
0.04001837876
0.0400214202
0.0400245963
0.04002781455
0.04003099862
0.04003408906
0.04003703995
0.04003980713
0.04004230381
0.04004421642
0.04000865896
0.04000963476
0.04001099816
0.04001275903
0.04001489217
0.04001734518
0.04002004882
0.04002292692
0.04002590427
0.0400289115
0.04003188579
0.04003476104
0.04003742044
0.04003949287
0.04000850736
0.04000955618
0.0400110923
0.04001311711
0.04001557608
0.04001837892
0.04002142038
0.0400245965
0.04002781477
0.04003099886
0.04003408931
0.04003704021
0.0400398074
0.04004230409
0.04004421671
0.04001154537
0.04001418744
0.04001737695
0.04002091622
0.04002461281
0.04002830889
0.04003189008
0.04003528251
0.0400384446
0.0400413579
0.04004401759
0.04004641924
0.04004852185
0.04005010006
0.04001648477
0.04002151532
0.04002692428
0.04003225391
0.04003720181
0.04004161221
0.04004543741
0.04004869688
0.04005144512
0.04005374995
0.040055679
0.04005728948
0.04005860842
0.04005955224
0.04002511831
0.04003334688
0.04004108148
0.04004776115
0.04005321237
0.04005748842
0.04006074636
0.04006317244
0.04006494388
0.04006621319
0.04006710439
0.04006771487
0.04006811787
0.04006835464
0.04003310255
0.04004290947
0.04005112857
0.04005757433
0.04006240897
0.04006591019
0.04006836285
0.04007001691
0.04007107644
0.0400717016
0.04007201553
0.04007211298
0.04007207224
0.04007197847
0.04002511812
0.04003334661
0.04004108118
0.04004776086
0.04005321209
0.04005748817
0.04006074614
0.04006317223
0.04006494369
0.040066213
0.04006710421
0.0400677147
0.04006811771
0.04006835448
0.04001648452
0.04002151502
0.04002692395
0.04003225356
0.04003720145
0.04004161186
0.04004543707
0.04004869655
0.0400514448
0.04005374963
0.04005567869
0.04005728919
0.04005860813
0.04005955196
0.0400115452
0.04001418726
0.04001737676
0.040020916
0.04002461258
0.04002830863
0.04003188981
0.04003528222
0.04003844431
0.0400413576
0.04004401728
0.04004641893
0.04004852153
0.04005009974
0.04000955611
0.04001109221
0.040013117
0.04001557595
0.04001837876
0.04002142019
0.04002459629
0.04002781453
0.0400309986
0.04003408903
0.04003703992
0.04003980709
0.04004230377
0.04004421638
0.04000957685
0.04001151584
0.04001418252
0.0400174482
0.04002112095
0.04002500001
0.04002890991
0.04003271543
0.04003632328
0.04003967679
0.04004274762
0.04004552625
0.04004800805
0.04005015601
0.04005175318
0.04001237571
0.04001648478
0.04002151533
0.04002692428
0.04003225391
0.0400372018
0.0400416122
0.0400454374
0.04004869687
0.04005144511
0.04005374994
0.04005567898
0.04005728947
0.04005860841
0.04005955223
0.04003083247
0.0400412098
0.04005047998
0.04005797241
0.04006358884
0.04006753726
0.04007014016
0.04007172602
0.0400725801
0.04007292971
0.04007294675
0.04007275852
0.04007246618
0.04007218716
0.04006216594
0.04007933802
0.04009094992
0.04009760125
0.04010053331
0.04010095623
0.04009982437
0.0400978154
0.04009538005
0.04009280388
0.0400902612
0.04008786167
0.04008571095
0.04008407917
0.04010232441
0.04011913063
0.04012606975
0.04012696258
0.04012451949
0.04012043054
0.04011568303
0.04011082788
0.04010615769
0.04010181646
0.04009786637
0.04009433527
0.04009128326
0.04008901795
0.04006216452
0.04007933661
0.0400909487
0.04009760026
0.04010053255
0.04010095566
0.04009982393
0.04009781505
0.04009537977
0.04009280363
0.04009026099
0.04008786148
0.04008571077
0.04008407901
0.04003083134
0.04004120887
0.0400504791
0.0400579716
0.04006358813
0.04006753665
0.04007013962
0.04007172554
0.04007257968
0.04007292932
0.04007294639
0.04007275819
0.04007246587
0.04007218686
0.04001648451
0.04002151499
0.0400269239
0.04003225351
0.04003720139
0.04004161179
0.04004543699
0.04004869647
0.04005144471
0.04005374954
0.0400556786
0.04005728909
0.04005860803
0.04005955186
0.04001151575
0.04001418238
0.04001744803
0.04002112075
0.04002499978
0.04002890966
0.04003271516
0.04003632299
0.04003967647
0.04004274729
0.04004552591
0.0400480077
0.04005015566
0.04005175281
0.0400111592
0.04001434559
0.04001843164
0.04002307541
0.0400279321
0.04003272225
0.04003725114
0.04004140209
0.04004511972
0.04004839198
0.04005123458
0.04005367829
0.04005575596
0.04005747509
0.04005871039
0.04001746122
0.04002511846
0.04003334694
0.04004108155
0.04004776121
0.04005321241
0.04005748844
0.04006074638
0.04006317245
0.04006494388
0.04006621318
0.04006710437
0.04006771485
0.04006811785
0.04006835462
0.04004089997
0.04006216593
0.04007933794
0.04009094991
0.04009760125
0.04010053329
0.0401009562
0.04009982433
0.04009781535
0.04009538001
0.04009280383
0.04009026116
0.04008786163
0.0400857109
0.04008407913
0.04016771822
0.04018856553
0.04019133349
0.04018446696
0.04017343749
0.0401612889
0.04014952956
0.04013880598
0.04012931917
0.04012105836
0.04011392667
0.04010781694
0.04010270921
0.04009900265
0.04037020707
0.04034258279
0.04030091835
0.04026115933
0.04022748492
0.0402001023
0.04017808546
0.04016035672
0.04014598174
0.04013422375
0.04012452573
0.04011649108
0.04010993374
0.04010524723
0.04016770817
0.04018856015
0.04019133011
0.0401844648
0.04017343619
0.04016128815
0.04014952914
0.04013880574
0.04012931902
0.04012105826
0.04011392659
0.04010781687
0.04010270914
0.04009900258
0.04006216451
0.04007933612
0.04009094817
0.04009759978
0.04010053216
0.04010095534
0.04009982366
0.04009781481
0.04009537954
0.04009280342
0.04009026079
0.0400878613
0.04008571059
0.04008407884
0.04002511807
0.04003334637
0.04004108088
0.04004776054
0.04005321178
0.04005748787
0.04006074585
0.04006317195
0.04006494341
0.04006621273
0.04006710394
0.04006771444
0.04006811745
0.04006835422
0.04001434549
0.04001843147
0.04002307519
0.04002793185
0.04003272198
0.04003725084
0.04004140177
0.04004511938
0.04004839162
0.04005123421
0.04005367791
0.04005575557
0.0400574747
0.04005871
0.04001232486
0.04001633122
0.0400211824
0.04002642605
0.04003169044
0.04003671384
0.04004133498
0.04004547137
0.0400490969
0.04005222276
0.04005488255
0.04005712092
0.04005898263
0.04006049017
0.04006155461
0.0400226571
0.04003310239
0.04004290921
0.04005112844
0.04005757424
0.04006240889
0.04006591012
0.04006836278
0.04007001685
0.04007107638
0.04007170154
0.04007201547
0.04007211293
0.04007207219
0.04007197842
0.04007199305
0.04010232358
0.04011912931
0.04012606913
0.0401269623
0.04012451934
0.04012043043
0.04011568294
0.0401108278
0.04010615761
0.04010181639
0.0400978663
0.04009433521
0.0400912832
0.04008901789
0.04033504424
0.04037019976
0.04034258008
0.04030091737
0.0402611589
0.04022748468
0.04020010211
0.04017808531
0.04016035659
0.04014598163
0.04013422366
0.04012452565
0.04011649101
0.04010993368
0.04010524717
0.04122815973
0.040787316
0.04054410445
0.0404017801
0.04031355414
0.04025578945
0.04021602716
0.04018742301
0.04016606128
0.04014961034
0.04013663038
0.04012622261
0.04011792579
0.0401120824
0.04037020687
0.04034257627
0.04030091399
0.04026115677
0.04022748342
0.04020010138
0.04017808488
0.04016035632
0.04014598144
0.04013422351
0.04012452552
0.04011649089
0.04010993357
0.04010524706
0.04010232389
0.040119128
0.04012606746
0.04012696085
0.04012451824
0.04012042963
0.04011568234
0.04011082733
0.04010615722
0.04010181604
0.04009786598
0.04009433491
0.04009128292
0.04008901762
0.04003310237
0.04004290878
0.04005112781
0.04005757359
0.0400624083
0.04006590959
0.0400683623
0.0400700164
0.04007107595
0.04007170113
0.04007201508
0.04007211254
0.04007207181
0.04007197805
0.04001633116
0.04002118225
0.04002642583
0.04003169018
0.04003671355
0.04004133467
0.04004547104
0.04004909655
0.0400522224
0.04005488218
0.04005712054
0.04005898224
0.04006048977
0.04006155421
0.04001115916
0.04001434552
0.04001843155
0.04002307531
0.040027932
0.04003272215
0.04003725104
0.04004140198
0.04004511961
0.04004839186
0.04005123446
0.04005367816
0.04005575583
0.04005747496
0.04005871026
0.04001746084
0.04002511794
0.04003334645
0.0400410811
0.0400477608
0.04005321204
0.04005748811
0.04006074607
0.04006317217
0.04006494363
0.04006621294
0.04006710415
0.04006771465
0.04006811765
0.04006835442
0.0400408966
0.04006216349
0.04007933583
0.04009094838
0.04009760011
0.04010053244
0.04010095556
0.04009982383
0.04009781494
0.04009537966
0.04009280353
0.04009026089
0.04008786139
0.04008571068
0.04008407892
0.04011957057
0.04016770446
0.04018855784
0.04019132912
0.04018446433
0.04017343587
0.04016128787
0.04014952888
0.0401388055
0.0401293188
0.04012105805
0.04011392641
0.04010781671
0.040102709
0.04009900245
0.04033504217
0.04037019774
0.04034257292
0.04030091263
0.04026115608
0.04022748296
0.04020010103
0.04017808459
0.04016035607
0.04014598122
0.04013422332
0.04012452537
0.04011649076
0.04010993345
0.04010524696
0.04011957298
0.04016770325
0.04018855613
0.04019132769
0.04018446329
0.04017343515
0.04016128738
0.04014952852
0.04013880523
0.04012931858
0.04012105786
0.04011392623
0.04010781654
0.04010270884
0.0400990023
0.0400621666
0.04007933623
0.04009094792
0.0400975995
0.0401005319
0.04010095511
0.04009982345
0.04009781461
0.04009537935
0.04009280324
0.04009026061
0.04008786112
0.04008571042
0.04008407867
0.04002511837
0.0400333465
0.04004108093
0.04004776054
0.04005321176
0.04005748782
0.04006074579
0.04006317187
0.04006494332
0.04006621263
0.04006710384
0.04006771433
0.04006811734
0.04006835411
0.04001434555
0.04001843152
0.04002307522
0.04002793187
0.04003272198
0.04003725083
0.04004140174
0.04004511934
0.04004839157
0.04005123415
0.04005367784
0.04005575549
0.04005747461
0.04005870991
0.04000957679
0.04001151575
0.0400141824
0.04001744806
0.04002112079
0.04002499983
0.04002890972
0.04003271522
0.04003632306
0.04003967656
0.04004274738
0.04004552601
0.04004800781
0.04005015576
0.04005175293
0.04001237538
0.04001648445
0.04002151498
0.04002692392
0.04003225354
0.04003720142
0.04004161183
0.04004543703
0.04004869651
0.04005144476
0.04005374959
0.04005567865
0.04005728914
0.04005860809
0.04005955192
0.04002080946
0.04003083097
0.04004120862
0.04005047897
0.04005797152
0.04006358805
0.04006753657
0.04007013955
0.04007172546
0.0400725796
0.04007292924
0.04007294632
0.04007275811
0.04007246579
0.04007218679
0.04004089658
0.04006216317
0.0400793353
0.04009094776
0.04009759956
0.04010053199
0.0401009552
0.04009982353
0.04009781469
0.04009537943
0.04009280331
0.04009026069
0.0400878612
0.0400857105
0.04008407875
0.04007199278
0.04010232137
0.04011912686
0.04012606694
0.04012696054
0.04012451801
0.04012042943
0.04011568217
0.04011082716
0.04010615706
0.0401018159
0.04009786585
0.04009433479
0.04009128281
0.04008901753
0.04004089632
0.04006216271
0.04007933482
0.04009094735
0.04009759923
0.04010053174
0.040100955
0.04009982337
0.04009781454
0.04009537929
0.04009280318
0.04009026056
0.04008786107
0.04008571038
0.04008407863
0.04002081025
0.04003083138
0.0400412087
0.04005047889
0.04005797138
0.04006358791
0.04006753643
0.04007013939
0.0400717253
0.04007257942
0.04007292906
0.04007294613
0.04007275791
0.04007246559
0.04007218659
0.04001648474
0.04002151509
0.04002692394
0.04003225351
0.04003720136
0.04004161173
0.04004543691
0.04004869637
0.04005144459
0.0400537494
0.04005567844
0.04005728892
0.04005860785
0.04005955167
0.04001151581
0.04001418244
0.04001744807
0.04002112078
0.04002499979
0.04002890964
0.04003271512
0.04003632293
0.04003967639
0.04004274719
0.0400455258
0.04004800757
0.04005015551
0.04005175266
0.04000850733
0.04000955612
0.04001109221
0.04001311699
0.04001557593
0.04001837874
0.04002142017
0.04002459627
0.04002781452
0.04003099858
0.04003408901
0.0400370399
0.04003980708
0.04004230376
0.04004421638
0.04000959886
0.04001154519
0.04001418724
0.04001737673
0.04002091597
0.04002461254
0.04002830859
0.04003188976
0.04003528217
0.04003844426
0.04004135754
0.04004401723
0.04004641887
0.04004852148
0.04005009969
0.04001237539
0.04001648445
0.04002151495
0.04002692388
0.04003225348
0.04003720136
0.04004161175
0.04004543695
0.04004869643
0.04005144467
0.0400537495
0.04005567855
0.04005728904
0.04005860798
0.04005955181
0.04001746085
0.04002511784
0.04003334624
0.04004108081
0.04004776049
0.04005321174
0.04005748782
0.0400607458
0.04006317189
0.04006494335
0.04006621267
0.04006710388
0.04006771438
0.04006811739
0.04006835416
0.04002265701
0.04003310194
0.04004290857
0.04005112771
0.04005757353
0.04006240826
0.04006590955
0.04006836226
0.04007001635
0.0400710759
0.04007170108
0.04007201502
0.04007211249
0.04007207176
0.04007197799
0.04001746077
0.04002511774
0.04003334614
0.04004108073
0.04004776043
0.04005321168
0.04005748777
0.04006074574
0.04006317183
0.04006494328
0.04006621259
0.0400671038
0.0400677143
0.0400681173
0.04006835407
0.04001237541
0.04001648445
0.04002151492
0.04002692383
0.04003225342
0.04003720129
0.04004161167
0.04004543686
0.04004869632
0.04005144455
0.04005374937
0.04005567841
0.0400572889
0.04005860783
0.04005955165
0.0400095989
0.04001154523
0.04001418727
0.04001737674
0.04002091596
0.04002461251
0.04002830854
0.0400318897
0.04003528208
0.04003844415
0.04004135741
0.04004401708
0.04004641871
0.0400485213
0.04005009949
0.04000955613
0.04001109223
0.04001311701
0.04001557595
0.04001837874
0.04002142016
0.04002459624
0.04002781446
0.0400309985
0.04003408891
0.04003703978
0.04003980693
0.04004230359
0.04004421619
0.04000802412
0.04000865895
0.04000963475
0.04001099814
0.04001275901
0.04001489214
0.04001734515
0.04002004878
0.04002292688
0.04002590422
0.04002891145
0.04003188574
0.04003476099
0.04003742039
0.04003949281
0.04000850733
0.04000955611
0.0400110922
0.04001311698
0.04001557592
0.04001837873
0.04002142016
0.04002459625
0.04002781449
0.04003099855
0.04003408898
0.04003703987
0.04003980704
0.04004230372
0.04004421633
0.04000957678
0.04001151574
0.04001418238
0.04001744802
0.04002112074
0.04002499976
0.04002890964
0.04003271513
0.04003632295
0.04003967644
0.04004274725
0.04004552587
0.04004800766
0.04005015561
0.04005175277
0.04001115914
0.04001434546
0.04001843145
0.04002307517
0.04002793183
0.04003272195
0.04003725081
0.04004140173
0.04004511934
0.04004839158
0.04005123417
0.04005367786
0.04005575553
0.04005747465
0.04005870995
0.04001232481
0.04001633109
0.0400211822
0.04002642578
0.04003169013
0.0400367135
0.04004133461
0.04004547098
0.0400490965
0.04005222235
0.04005488213
0.04005712049
0.04005898219
0.04006048972
0.04006155416
0.04001115911
0.04001434542
0.04001843141
0.04002307513
0.04002793179
0.04003272191
0.04003725077
0.04004140168
0.04004511928
0.04004839152
0.0400512341
0.04005367779
0.04005575545
0.04005747457
0.04005870987
0.04000957674
0.0400115157
0.04001418234
0.04001744798
0.04002112068
0.04002499969
0.04002890955
0.04003271503
0.04003632285
0.04003967632
0.04004274712
0.04004552574
0.04004800751
0.04005015546
0.04005175261
0.04000850731
0.0400095561
0.0400110922
0.04001311698
0.04001557592
0.04001837871
0.04002142012
0.04002459621
0.04002781443
0.04003099847
0.04003408888
0.04003703975
0.04003980691
0.04004230357
0.04004421617
0.04000802414
0.04000865896
0.04000963477
0.04001099816
0.04001275903
0.04001489216
0.04001734516
0.04002004878
0.04002292686
0.04002590419
0.0400289114
0.04003188566
0.04003476089
0.04003742027
0.04003949268
)
;

boundaryField
{
    top
    {
        type            calculated;
        value           nonuniform List<scalar> 
127
(
0.04000802414
0.04000865896
0.04000955611
0.04001151575
0.04001434549
0.04001633116
0.04001434555
0.04001151581
0.04000955613
0.04000865896
0.04000963476
0.04001109221
0.04001418238
0.04001843147
0.04002118225
0.04001843152
0.04001418244
0.04001109223
0.04000963477
0.04001099816
0.040013117
0.04001744803
0.04002307519
0.04002642583
0.04002307522
0.04001744807
0.04001311701
0.04001099816
0.04001275903
0.04001557595
0.04002112075
0.04002793185
0.04003169018
0.04002793187
0.04002112078
0.04001557595
0.04001275903
0.04001489217
0.04001837876
0.04002499978
0.04003272198
0.04003671355
0.04003272198
0.04002499979
0.04001837874
0.04001489216
0.04001734518
0.04002142019
0.04002890966
0.04003725084
0.04004133467
0.04003725083
0.04002890964
0.04002142016
0.04001734516
0.04002004882
0.04002459629
0.04003271516
0.04004140177
0.04004547104
0.04004140174
0.04003271512
0.04002459624
0.04002004878
0.04002292692
0.04002781453
0.04003632299
0.04004511938
0.04004909655
0.04004511934
0.04003632293
0.04002781446
0.04002292686
0.04002590427
0.0400309986
0.04003967647
0.04004839162
0.0400522224
0.04004839157
0.04003967639
0.0400309985
0.04002590419
0.0400289115
0.04003408903
0.04004274729
0.04005123421
0.04005488218
0.04005123415
0.04004274719
0.04003408891
0.0400289114
0.04003188579
0.04003703992
0.04004552591
0.04005367791
0.04005712054
0.04005367784
0.0400455258
0.04003703978
0.04003188566
0.04003476104
0.04003980709
0.0400480077
0.04005575557
0.04005898224
0.04005575549
0.04004800757
0.04003980693
0.04003476089
0.04003742044
0.04004230377
0.04005015566
0.0400574747
0.04006048977
0.04005747461
0.04005015551
0.04004230359
0.04003742027
0.04003949287
0.04004421638
0.04005175281
0.04005871
0.04006155421
0.04005870991
0.04005175266
0.04004421619
0.04003949268
)
;
    }
    bottom
    {
        type            calculated;
        value           nonuniform List<scalar> 
134
(
0.04000850736
0.04000957685
0.0400111592
0.04001232486
0.04001115916
0.04000957679
0.04000850733
0.04000802412
0.04000865899
0.04000955618
0.04001151584
0.04001434559
0.04001633122
0.04001434552
0.04001151575
0.04000955612
0.04000865895
0.04000963481
0.0400110923
0.04001418252
0.04001843164
0.0400211824
0.04001843155
0.0400141824
0.04001109221
0.04000963475
0.04001099823
0.04001311711
0.0400174482
0.04002307541
0.04002642605
0.04002307531
0.04001744806
0.04001311699
0.04001099814
0.04001275913
0.04001557608
0.04002112095
0.0400279321
0.04003169044
0.040027932
0.04002112079
0.04001557593
0.04001275901
0.04001489229
0.04001837892
0.04002500001
0.04003272225
0.04003671384
0.04003272215
0.04002499983
0.04001837874
0.04001489214
0.04001734533
0.04002142038
0.04002890991
0.04003725114
0.04004133498
0.04003725104
0.04002890972
0.04002142017
0.04001734515
0.04002004899
0.0400245965
0.04003271543
0.04004140209
0.04004547137
0.04004140198
0.04003271522
0.04002459627
0.04002004878
0.04002292712
0.04002781477
0.04003632328
0.04004511972
0.0400490969
0.04004511961
0.04003632306
0.04002781452
0.04002292688
0.04002590448
0.04003099886
0.04003967679
0.04004839198
0.04005222276
0.04004839186
0.04003967656
0.04003099858
0.04002590422
0.04002891174
0.04003408931
0.04004274762
0.04005123458
0.04005488255
0.04005123446
0.04004274738
0.04003408901
0.04002891145
0.04003188605
0.04003704021
0.04004552625
0.04005367829
0.04005712092
0.04005367816
0.04004552601
0.0400370399
0.04003188574
0.04003476131
0.0400398074
0.04004800805
0.04005575596
0.04005898263
0.04005575583
0.04004800781
0.04003980708
0.04003476099
0.04003742073
0.04004230409
0.04005015601
0.04005747509
0.04006049017
0.04005747496
0.04005015576
0.04004230376
0.04003742039
0.04003949317
0.04004421671
0.04005175318
0.04005871039
0.04006155461
0.04005871026
0.04005175293
0.04004421638
0.04003949281
)
;
    }
    side-walls
    {
        type            calculated;
        value           nonuniform List<scalar> 
261
(
0.04000865899
0.0400095562
0.04001151585
0.04001434558
0.04001633122
0.04001434554
0.04001151574
0.04000955612
0.04000865896
0.04000963481
0.04001109232
0.04001418253
0.04001843164
0.04002118243
0.04001843157
0.0400141824
0.04001109221
0.04000963476
0.04001099823
0.04001311712
0.04001744821
0.04002307541
0.04002642607
0.04002307532
0.04001744806
0.040013117
0.04001099816
0.04001275913
0.04001557609
0.04002112096
0.04002793211
0.04003169047
0.04002793201
0.0400211208
0.04001557595
0.04001275903
0.04001489229
0.04001837892
0.04002500002
0.04003272227
0.04003671388
0.04003272216
0.04002499984
0.04001837876
0.04001489217
0.04001734533
0.04002142038
0.04002890992
0.04003725117
0.04004133501
0.04003725105
0.04002890973
0.0400214202
0.04001734518
0.04002004899
0.0400245965
0.04003271544
0.04004140212
0.0400454714
0.040041402
0.04003271524
0.0400245963
0.04002004882
0.04002292712
0.04002781477
0.0400363233
0.04004511975
0.04004909694
0.04004511962
0.04003632309
0.04002781455
0.04002292692
0.04002590448
0.04003099886
0.0400396768
0.04004839201
0.0400522228
0.04004839188
0.04003967659
0.04003099862
0.04002590427
0.04002891174
0.04003408931
0.04004274764
0.04005123461
0.04005488259
0.04005123449
0.04004274741
0.04003408906
0.0400289115
0.04003188605
0.04003704021
0.04004552627
0.04005367832
0.04005712096
0.04005367819
0.04004552604
0.04003703995
0.04003188579
0.04003476131
0.0400398074
0.04004800807
0.04005575599
0.04005898267
0.04005575586
0.04004800784
0.04003980713
0.04003476104
0.04003742073
0.04004230409
0.04005015603
0.04005747512
0.0400604902
0.04005747499
0.0400501558
0.04004230381
0.04003742044
0.04003949317
0.04004421671
0.0400517532
0.04005871042
0.04006155465
0.04005871029
0.04005175296
0.04004421642
0.04003949287
0.04000802412
0.04000850733
0.04000957678
0.04001115914
0.04001232481
0.04001115911
0.04000957674
0.04000850731
0.04000802414
0.04000865895
0.04000955611
0.04001151574
0.04001434546
0.04001633109
0.04001434542
0.0400115157
0.0400095561
0.04000865896
0.04000963475
0.0400110922
0.04001418238
0.04001843145
0.0400211822
0.04001843141
0.04001418234
0.0400110922
0.04000963477
0.04001099814
0.04001311698
0.04001744802
0.04002307517
0.04002642578
0.04002307513
0.04001744798
0.04001311698
0.04001099816
0.04001275901
0.04001557592
0.04002112074
0.04002793183
0.04003169013
0.04002793179
0.04002112068
0.04001557592
0.04001275903
0.04001489214
0.04001837873
0.04002499976
0.04003272195
0.0400367135
0.04003272191
0.04002499969
0.04001837871
0.04001489216
0.04001734515
0.04002142016
0.04002890964
0.04003725081
0.04004133461
0.04003725077
0.04002890955
0.04002142012
0.04001734516
0.04002004878
0.04002459625
0.04003271513
0.04004140173
0.04004547098
0.04004140168
0.04003271503
0.04002459621
0.04002004878
0.04002292688
0.04002781449
0.04003632295
0.04004511934
0.0400490965
0.04004511928
0.04003632285
0.04002781443
0.04002292686
0.04002590422
0.04003099855
0.04003967644
0.04004839158
0.04005222235
0.04004839152
0.04003967632
0.04003099847
0.04002590419
0.04002891145
0.04003408898
0.04004274725
0.04005123417
0.04005488213
0.0400512341
0.04004274712
0.04003408888
0.0400289114
0.04003188574
0.04003703987
0.04004552587
0.04005367786
0.04005712049
0.04005367779
0.04004552574
0.04003703975
0.04003188566
0.04003476099
0.04003980704
0.04004800766
0.04005575553
0.04005898219
0.04005575545
0.04004800751
0.04003980691
0.04003476089
0.04003742039
0.04004230372
0.04005015561
0.04005747465
0.04006048972
0.04005747457
0.04005015546
0.04004230357
0.04003742027
0.04003949281
0.04004421633
0.04005175277
0.04005870995
0.04006155416
0.04005870987
0.04005175261
0.04004421617
0.04003949268
)
;
    }
    inlet
    {
        type            calculated;
        value           nonuniform 0();
    }
    outlet
    {
        type            calculated;
        value           nonuniform List<scalar> 
81
(
0.04003949317
0.04004421671
0.0400517532
0.04005871042
0.04006155465
0.04005871029
0.04005175296
0.04004421642
0.04003949287
0.04004421671
0.04005010006
0.04005955224
0.04006835464
0.04007197847
0.04006835448
0.04005955196
0.04005009974
0.04004421638
0.04005175318
0.04005955223
0.04007218716
0.04008407917
0.04008901795
0.04008407901
0.04007218686
0.04005955186
0.04005175281
0.04005871039
0.04006835462
0.04008407913
0.04009900265
0.04010524723
0.04009900258
0.04008407884
0.04006835422
0.04005871
0.04006155461
0.04007197842
0.04008901789
0.04010524717
0.0401120824
0.04010524706
0.04008901762
0.04007197805
0.04006155421
0.04005871026
0.04006835442
0.04008407892
0.04009900245
0.04010524696
0.0400990023
0.04008407867
0.04006835411
0.04005870991
0.04005175293
0.04005955192
0.04007218679
0.04008407875
0.04008901753
0.04008407863
0.04007218659
0.04005955167
0.04005175266
0.04004421638
0.04005009969
0.04005955181
0.04006835416
0.04007197799
0.04006835407
0.04005955165
0.04005009949
0.04004421619
0.04003949281
0.04004421633
0.04005175277
0.04005870995
0.04006155416
0.04005870987
0.04005175261
0.04004421617
0.04003949268
)
;
    }
    procBoundary1to0
    {
        type            processor;
        value           nonuniform List<scalar> 
97
(
0.04000802414
0.04000802414
0.04000850736
0.04000957681
0.04001115911
0.04001232473
0.04001115908
0.04000957674
0.04000850731
0.04000802412
0.04000787953
0.04000959896
0.04000959896
0.04000959896
0.04001237549
0.04001746072
0.04002265662
0.04001746058
0.04001237527
0.0400095988
0.0400085073
0.04000837025
0.04000961447
0.04002081048
0.04002081048
0.04002081048
0.04004089655
0.04007199036
0.0400408953
0.0400208091
0.04001237529
0.04000957674
0.04000907884
0.0400117763
0.04002105172
0.04011957904
0.04011957904
0.04011957904
0.04033502603
0.04011956627
0.04004089541
0.04001746056
0.04001115904
0.04000957607
0.04001377556
0.04003110512
0.04009811892
0.04207697658
0.04207697658
0.04207697658
0.04033502838
0.04033502838
0.04007199045
0.0400226566
0.04001232471
0.04000907882
0.0400117762
0.04002105125
0.04004746714
0.04009811917
0.04004746784
0.04004089891
0.04004089891
0.04004089891
0.04001746089
0.0400111591
0.04000837022
0.0400096144
0.04001320667
0.04002105129
0.04003110525
0.04002105121
0.04001320676
0.04001237562
0.04001237562
0.04001237562
0.04000957679
0.04000787952
0.04000837761
0.04000961441
0.04001177623
0.04001377559
0.04001177618
0.0400096144
0.04000837761
0.04000850731
0.04000850731
0.04000850731
0.04000765485
0.04000787953
0.04000837023
0.04000907884
0.04000957608
0.04000907881
0.0400083702
0.04000787952
0.04000765486
)
;
    }
}


// ************************************************************************* //
