/*--------------------------------*- C++ -*----------------------------------*\
| =========                 |                                                 |
| \\      /  F ield         | OpenFOAM: The Open Source CFD Toolbox           |
|  \\    /   O peration     | Version:  4.x                                   |
|   \\  /    A nd           | Web:      www.OpenFOAM.org                      |
|    \\/     M anipulation  |                                                 |
\*---------------------------------------------------------------------------*/
FoamFile
{
    version     2.0;
    format      ascii;
    class       volScalarField;
    location    "7000";
    object      X_H2O;
}
// * * * * * * * * * * * * * * * * * * * * * * * * * * * * * * * * * * * * * //

dimensions      [0 0 0 0 0 0 0];

internalField   nonuniform List<scalar> 
1174
(
1.640361874e-05
1.739591135e-05
1.878218286e-05
2.057238373e-05
2.274078401e-05
2.523401118e-05
2.798157443e-05
3.090597018e-05
3.393067794e-05
3.698517816e-05
4.00055911e-05
4.292480966e-05
4.56243194e-05
4.772765814e-05
1.731631821e-05
1.88785352e-05
2.093746029e-05
2.343753199e-05
2.628680725e-05
2.937818486e-05
3.260589116e-05
3.587580507e-05
3.911031948e-05
4.224899874e-05
4.524521126e-05
4.80541524e-05
5.058786036e-05
5.25284455e-05
1.931010986e-05
2.202233641e-05
2.534325865e-05
2.907756146e-05
3.302097804e-05
3.699502861e-05
4.086217684e-05
4.45275812e-05
4.793365266e-05
5.105165755e-05
5.387200417e-05
5.639011224e-05
5.856867662e-05
6.018809079e-05
2.218993693e-05
2.63459546e-05
3.106825377e-05
3.600620756e-05
4.087561848e-05
4.547847517e-05
4.969615521e-05
5.347241153e-05
5.67950847e-05
5.968025714e-05
6.215933151e-05
6.426588767e-05
6.600787191e-05
6.725895345e-05
2.421209433e-05
2.914615999e-05
3.44779881e-05
3.982993897e-05
4.493598183e-05
4.963213863e-05
5.383455497e-05
5.75167347e-05
6.069013985e-05
6.338905618e-05
6.565901141e-05
6.754568804e-05
6.907228157e-05
7.014945546e-05
2.218982743e-05
2.634580697e-05
3.106807376e-05
3.600599213e-05
4.08753589e-05
4.547816669e-05
4.969579444e-05
5.347199539e-05
5.679461248e-05
5.967973138e-05
6.215875357e-05
6.426526037e-05
6.600719944e-05
6.725824582e-05
1.9309958e-05
2.202213869e-05
2.534301564e-05
2.907726501e-05
3.302061427e-05
3.699458687e-05
4.086164339e-05
4.452694791e-05
4.793291782e-05
5.105081967e-05
5.387106582e-05
5.638907644e-05
5.856754726e-05
6.018688683e-05
1.731619414e-05
1.887837986e-05
2.093727043e-05
2.34372939e-05
2.628650318e-05
2.937779323e-05
3.260539378e-05
3.5875186e-05
3.910956906e-05
4.224810801e-05
4.524417653e-05
4.805297704e-05
5.058655119e-05
5.25270239e-05
1.640352788e-05
1.73958065e-05
1.878205644e-05
2.057221993e-05
2.274056232e-05
2.523370749e-05
2.798116614e-05
3.090543571e-05
3.393000051e-05
3.698434143e-05
4.00045869e-05
4.292363215e-05
4.562297283e-05
4.772616665e-05
1.624957716e-05
1.731632598e-05
1.887851813e-05
2.093742441e-05
2.343748408e-05
2.628675434e-05
2.93781302e-05
3.260583576e-05
3.587574898e-05
3.91102651e-05
4.224894463e-05
4.524515698e-05
4.805409966e-05
5.058781018e-05
5.252839476e-05
1.934032971e-05
2.202754264e-05
2.527099419e-05
2.886954018e-05
3.262741877e-05
3.638406217e-05
4.002316207e-05
4.346959454e-05
4.668114964e-05
4.963910044e-05
5.233864668e-05
5.477540449e-05
5.6907988e-05
5.850823319e-05
2.436762201e-05
2.948443822e-05
3.498478995e-05
4.040337424e-05
4.543280732e-05
4.991478042e-05
5.380084732e-05
5.711089486e-05
5.990044824e-05
6.223858789e-05
6.419420783e-05
6.582564369e-05
6.716067364e-05
6.811536499e-05
3.316050946e-05
4.152935788e-05
4.93925451e-05
5.618139201e-05
6.172026211e-05
6.606353407e-05
6.937095106e-05
7.183193898e-05
7.36268186e-05
7.491076231e-05
7.581001831e-05
7.642375771e-05
7.682675627e-05
7.706201869e-05
4.130424333e-05
5.127363486e-05
5.962317829e-05
6.616904597e-05
7.107751202e-05
7.46306821e-05
7.711775699e-05
7.879265869e-05
7.986281372e-05
8.049113608e-05
8.080289755e-05
8.089457373e-05
8.084605497e-05
8.074501795e-05
3.316005668e-05
4.152884445e-05
4.93920098e-05
5.618083305e-05
6.171967353e-05
6.606290858e-05
6.937028488e-05
7.183122886e-05
7.362606348e-05
7.490996936e-05
7.580919015e-05
7.642289716e-05
7.682586819e-05
7.706111133e-05
2.436714023e-05
2.948390353e-05
3.498421007e-05
4.040273249e-05
4.543208568e-05
4.991396551e-05
5.379992838e-05
5.710986987e-05
5.989931869e-05
6.223736262e-05
6.419289593e-05
6.582425069e-05
6.715920677e-05
6.811383919e-05
1.934004787e-05
2.202724833e-05
2.527066772e-05
2.886914942e-05
3.262693103e-05
3.63834502e-05
4.002240622e-05
4.346868574e-05
4.668008377e-05
4.96378775e-05
5.233727255e-05
5.477388467e-05
5.690633299e-05
5.850646936e-05
1.731620082e-05
1.887838303e-05
2.0937263e-05
2.343726596e-05
2.628644503e-05
2.937769773e-05
3.260525422e-05
3.587499895e-05
3.910933364e-05
4.224782451e-05
4.524384461e-05
4.805259732e-05
5.058612498e-05
5.252655729e-05
1.733776664e-05
1.93101463e-05
2.20222924e-05
2.534315187e-05
2.907741445e-05
3.302081057e-05
3.6994853e-05
4.08619958e-05
4.452740007e-05
4.793347606e-05
5.105148584e-05
5.387183625e-05
5.6389948e-05
5.856851413e-05
6.018792777e-05
2.01868605e-05
2.4367697e-05
2.948442166e-05
3.498470835e-05
4.040325638e-05
4.543267279e-05
4.991464288e-05
5.380070995e-05
5.71107605e-05
5.990031805e-05
6.223846485e-05
6.419409158e-05
6.582553068e-05
6.71605621e-05
6.811525814e-05
3.897994534e-05
4.953407355e-05
5.895750672e-05
6.657120837e-05
7.227655783e-05
7.628535567e-05
7.89255477e-05
8.053119487e-05
8.139245481e-05
8.174056683e-05
8.175043988e-05
8.155164127e-05
8.124733203e-05
8.095797138e-05
7.093320394e-05
8.838241776e-05
0.0001001647786
0.0001069044394
0.0001098671714
0.0001102824746
0.0001091191574
0.0001070652641
0.000104578616
0.0001019493368
9.935463471e-05
9.690598469e-05
9.47110328e-05
9.304551923e-05
0.0001119918809
0.0001289973244
0.0001359631037
0.0001368062274
0.0001342811193
0.0001300972232
0.0001252514665
0.0001203001624
0.0001155390151
0.0001111136459
0.0001070869181
0.0001034870243
0.0001003751861
9.806520681e-05
7.093076255e-05
8.838025147e-05
0.0001001629136
0.0001069028069
0.0001098656985
0.0001102811015
0.0001091178424
0.0001070639826
0.0001045773493
0.0001019480823
9.93533839e-05
9.690474187e-05
9.470980153e-05
9.304429912e-05
3.897822444e-05
4.953256967e-05
5.895609142e-05
6.65697991e-05
7.22751066e-05
7.628382849e-05
7.892392889e-05
8.052948636e-05
8.139066827e-05
8.173871307e-05
8.17485298e-05
8.154968608e-05
8.124533583e-05
8.095594068e-05
2.436715218e-05
2.948387125e-05
3.498411525e-05
4.040255558e-05
4.543181495e-05
4.991359329e-05
5.379945583e-05
5.710930581e-05
5.98986728e-05
6.223664362e-05
6.419211399e-05
6.582341406e-05
6.715832472e-05
6.811292202e-05
1.930996673e-05
2.20221174e-05
2.534293895e-05
2.907710312e-05
3.302034274e-05
3.699418618e-05
4.086110441e-05
4.452627071e-05
4.793210453e-05
5.104987774e-05
5.387000462e-05
5.638790565e-05
5.85662791e-05
6.018553777e-05
1.894838412e-05
2.219004885e-05
2.634590326e-05
3.106807406e-05
3.600594491e-05
4.087530978e-05
4.547814609e-05
4.969582117e-05
5.347207961e-05
5.67947583e-05
5.96799391e-05
6.21590222e-05
6.426558594e-05
6.600757837e-05
6.725866581e-05
2.536824445e-05
3.316093626e-05
4.152945496e-05
4.939244074e-05
5.618116865e-05
6.171998032e-05
6.606323102e-05
6.937064493e-05
7.183163854e-05
7.362652744e-05
7.491048263e-05
7.580975149e-05
7.64234993e-05
7.682650287e-05
7.706177566e-05
4.928346354e-05
7.093405358e-05
8.838268431e-05
0.0001001647258
0.0001069042194
0.0001098668776
0.0001102821627
0.0001091188547
0.0001070649834
0.0001045783501
0.0001019490915
9.935440769e-05
9.690577283e-05
9.471083546e-05
9.304533977e-05
0.0001787954309
0.0001998248498
0.0002024618344
0.0001953559053
0.0001840658582
0.0001716679993
0.0001596819001
0.0001487571258
0.0001390942704
0.0001306806539
0.0001234169341
0.0001171937357
0.0001119907231
0.0001082147188
0.0003864696973
0.0003573932015
0.0003143403063
0.0002735355185
0.0002391074345
0.0002111718375
0.0001887354343
0.0001706784369
0.0001560405762
0.0001440683944
0.0001341936374
0.0001260121749
0.0001193345717
0.0001145617719
0.0001787843111
0.0001998177427
0.0002024568812
0.0001953523046
0.0001840631319
0.0001716657958
0.0001596799823
0.0001487553544
0.0001390925892
0.0001306790378
0.0001234153681
0.0001171922139
0.0001119892379
0.0001082132556
7.093081028e-05
8.837969363e-05
0.000100162015
0.0001069017058
0.0001098644678
0.0001102797681
0.0001091164244
0.0001070625001
0.0001045758294
0.0001019465512
9.935185504e-05
9.690322586e-05
9.470830187e-05
9.304281092e-05
3.316003001e-05
4.152855741e-05
4.939147054e-05
5.618004197e-05
6.171863535e-05
6.606163571e-05
6.93687941e-05
7.182955071e-05
7.362423121e-05
7.490800755e-05
7.580712782e-05
7.642075763e-05
7.68236674e-05
7.705886866e-05
2.218982885e-05
2.634570482e-05
3.106781757e-05
3.600553164e-05
4.087465825e-05
4.547720477e-05
4.969456468e-05
5.347050884e-05
5.679288909e-05
5.967779496e-05
6.215662964e-05
6.426297191e-05
6.600476848e-05
6.725570423e-05
2.013597734e-05
2.421228026e-05
2.914611368e-05
3.447775693e-05
3.982958273e-05
4.493555573e-05
4.963167971e-05
5.383408567e-05
5.751626737e-05
6.068967929e-05
6.338860591e-05
6.56585711e-05
6.754525701e-05
6.90718608e-05
7.014904473e-05
3.067316735e-05
4.130490367e-05
5.127370378e-05
5.96228924e-05
6.616855774e-05
7.107693612e-05
7.463008325e-05
7.711717282e-05
7.879210033e-05
7.986228218e-05
8.049063268e-05
8.080242358e-05
8.089412675e-05
8.084562751e-05
8.074460491e-05
8.113010679e-05
0.0001119940624
0.0001289976785
0.0001359627439
0.0001368055496
0.0001342803477
0.0001300964704
0.0001252507714
0.0001202995336
0.0001155384481
0.000111113137
0.0001070864597
0.0001034866032
0.0001003747946
9.806483351e-05
0.0003513187442
0.0003864699938
0.0003573930309
0.0003143397557
0.0002735347609
0.0002391066406
0.0002111711002
0.0001887347974
0.0001706779001
0.0001560401132
0.0001440679989
0.0001341932981
0.0001260118747
0.000119334296
0.0001145615153
0.001269124359
0.0008136161761
0.0005631077088
0.0004170608076
0.0003268195482
0.0002678686827
0.0002273441895
0.0001982118719
0.000176462469
0.0001597148564
0.0001465010331
0.0001359054282
0.0001274584175
0.000121508913
0.0003864684673
0.0003573850437
0.0003143324616
0.0002735294329
0.0002391028238
0.0002111681506
0.0001887322961
0.0001706756359
0.0001560379998
0.0001440659952
0.0001341913885
0.0001260100489
0.0001193325472
0.0001145598186
0.0001119913226
0.0001289940594
0.0001359591394
0.0001368022972
0.0001342773675
0.000130093594
0.0001252478933
0.0001202966255
0.0001155355197
0.0001111102054
0.0001070835385
0.0001034837096
0.0001003719392
9.806200752e-05
4.130409123e-05
5.127274711e-05
5.962179229e-05
6.616727009e-05
7.107539235e-05
7.462824583e-05
7.711503488e-05
7.878969089e-05
7.985964826e-05
8.048781253e-05
8.079945334e-05
8.089104466e-05
8.084246112e-05
8.074137814e-05
2.421208151e-05
2.914593053e-05
3.447749144e-05
3.982911741e-05
4.49347946e-05
4.963056695e-05
5.383260161e-05
5.751442215e-05
6.06875004e-05
6.338612827e-05
6.565582989e-05
6.754229143e-05
6.906870188e-05
7.014573627e-05
1.894835712e-05
2.218995866e-05
2.634574508e-05
3.106784337e-05
3.600564127e-05
4.087493279e-05
4.547769695e-05
4.969530283e-05
5.347149294e-05
5.679410504e-05
5.967922686e-05
6.215825355e-05
6.426476566e-05
6.600671014e-05
6.725775781e-05
2.536795035e-05
3.316040998e-05
4.152877637e-05
4.939164005e-05
5.618027841e-05
6.171902912e-05
6.60622336e-05
6.936961255e-05
7.183057463e-05
7.362543196e-05
7.490936439e-05
7.580861121e-05
7.642234328e-05
7.682533611e-05
7.70605965e-05
4.928111638e-05
7.093179238e-05
8.838023135e-05
0.000100162333
0.0001069019319
0.0001098647246
0.0001102801362
0.0001091169301
0.000107063134
0.0001045765701
0.000101947373
9.935273588e-05
9.690414378e-05
9.470924487e-05
9.304376855e-05
0.0001298074542
0.0001787856772
0.0001998173264
0.0002024557808
0.000195350941
0.0001840617423
0.0001716644964
0.0001596788199
0.00014875434
0.0001390917044
0.0001306782609
0.0001234146852
0.0001171916092
0.0001119886921
0.0001082127518
0.0003513175409
0.0003864674562
0.000357384163
0.0003143313295
0.0002735281865
0.0002391016342
0.0002111671074
0.0001887314072
0.0001706748901
0.00015603737
0.0001440654571
0.0001341909261
0.0001260096482
0.0001193321944
0.0001145595043
0.0001298070109
0.0001787824756
0.0001998132644
0.0002024520768
0.0001953478818
0.0001840591713
0.0001716621938
0.0001596766527
0.0001487522546
0.0001390896835
0.0001306762983
0.0001234127835
0.0001171897693
0.0001119869221
0.0001082110334
7.093301167e-05
8.837965347e-05
0.0001001609705
0.0001069002082
0.0001098627327
0.0001102779055
0.0001091144883
0.0001070605322
0.0001045738599
0.0001019445947
9.934992962e-05
9.690133466e-05
9.470644888e-05
9.30409857e-05
3.316058802e-05
4.152874726e-05
4.939132619e-05
5.617961903e-05
6.171797891e-05
6.606078492e-05
6.936778975e-05
7.182842284e-05
7.362300965e-05
7.490671634e-05
7.580578393e-05
7.641937411e-05
7.682225643e-05
7.705743692e-05
2.218998477e-05
2.634579718e-05
3.10678006e-05
3.60053769e-05
4.087435345e-05
4.547674987e-05
4.9693969e-05
5.346978495e-05
5.679205114e-05
5.967685724e-05
6.215560617e-05
6.426187765e-05
6.600361557e-05
6.725450772e-05
1.733772111e-05
1.931001555e-05
2.202206164e-05
2.53428135e-05
2.907696482e-05
3.302024488e-05
3.699416767e-05
4.086119024e-05
4.452646908e-05
4.793241985e-05
5.105031178e-05
5.387055008e-05
5.638855512e-05
5.856702456e-05
6.018636296e-05
2.018662912e-05
2.436728626e-05
2.948379963e-05
3.498389682e-05
4.040227739e-05
4.543154655e-05
4.991338333e-05
5.379932742e-05
5.710926288e-05
5.989871357e-05
6.223676527e-05
6.419230736e-05
6.582367331e-05
6.715864002e-05
6.811328594e-05
2.877929908e-05
3.89785628e-05
4.953237e-05
5.89555163e-05
6.656901127e-05
7.227422855e-05
7.628293768e-05
7.892306268e-05
8.052865571e-05
8.138988009e-05
8.173797443e-05
8.174783506e-05
8.154902722e-05
8.124471509e-05
8.095534843e-05
4.928106577e-05
7.093126959e-05
8.837923134e-05
0.0001001610319
0.0001069004922
0.0001098632105
0.0001102785756
0.0001091153345
0.0001070615152
0.000104574939
0.0001019457449
9.935112615e-05
9.690256114e-05
9.470768684e-05
9.304222974e-05
8.112981183e-05
0.0001119914576
0.00012899348
0.0001359580691
0.0001368010112
0.0001342760799
0.0001300924125
0.0001252468514
0.0001202957077
0.0001155347124
0.0001111094913
0.0001070829062
0.000103483145
0.0001003714292
9.806153678e-05
4.928044949e-05
7.093023389e-05
8.837800142e-05
0.0001001597857
0.000106899261
0.0001098619571
0.0001102772588
0.0001091139438
0.0001070600687
0.0001045734599
0.0001019442462
9.934962023e-05
9.690105925e-05
9.47061985e-05
9.304075362e-05
2.877969609e-05
3.897875512e-05
4.953225559e-05
5.895509748e-05
6.656828436e-05
7.227318805e-05
7.628159147e-05
7.89214431e-05
8.052681207e-05
8.138786047e-05
8.173581905e-05
8.174558301e-05
8.154670731e-05
8.124234319e-05
8.095294413e-05
2.436757606e-05
2.948398363e-05
3.498389994e-05
4.040201732e-05
4.543096657e-05
4.991245819e-05
5.379806251e-05
5.710768471e-05
5.989685809e-05
6.223466591e-05
6.418999903e-05
6.582118467e-05
6.715600154e-05
6.811053187e-05
1.931013501e-05
2.202221208e-05
2.53428993e-05
2.907688373e-05
3.301991668e-05
3.699353968e-05
4.086023395e-05
4.452518332e-05
4.793081238e-05
5.104839788e-05
5.386835426e-05
5.638610472e-05
5.856434625e-05
6.018350649e-05
1.624953232e-05
1.731620991e-05
1.88783106e-05
2.093711443e-05
2.343706201e-05
2.628620771e-05
2.937744653e-05
3.260500459e-05
3.587476061e-05
3.910911404e-05
4.224762933e-05
4.524367872e-05
4.805246388e-05
5.058602517e-05
5.252648948e-05
1.736023879e-05
1.934008414e-05
2.202714079e-05
2.527042536e-05
2.886880133e-05
3.262650718e-05
3.638297415e-05
4.002189287e-05
4.346814642e-05
4.667952644e-05
4.963731e-05
5.233669935e-05
5.477330992e-05
5.690575938e-05
5.850589869e-05
2.018663073e-05
2.436725316e-05
2.948370587e-05
3.498372478e-05
4.040201455e-05
4.54311854e-05
4.991292172e-05
5.379876852e-05
5.710861456e-05
5.989798777e-05
6.223597433e-05
6.419146058e-05
6.582277912e-05
6.715770863e-05
6.811232121e-05
2.536793729e-05
3.316019627e-05
4.152829234e-05
4.939087842e-05
5.61792576e-05
6.171776694e-05
6.606075019e-05
6.936792886e-05
7.182872024e-05
7.362343899e-05
7.490725997e-05
7.580642044e-05
7.642008741e-05
7.6823031e-05
7.705825715e-05
3.0673051e-05
4.130418522e-05
5.127237837e-05
5.962108016e-05
6.616637887e-05
7.107445013e-05
7.462732662e-05
7.711416658e-05
7.878888305e-05
7.985889925e-05
8.048711955e-05
8.079881393e-05
8.089045497e-05
8.084190855e-05
8.074085148e-05
2.536779048e-05
3.315996725e-05
4.152799337e-05
4.939050901e-05
5.617880115e-05
6.171720582e-05
6.606007386e-05
6.936714179e-05
7.182783739e-05
7.362247697e-05
7.490622977e-05
7.580533888e-05
7.641896673e-05
7.682187843e-05
7.705708085e-05
2.018662903e-05
2.436723437e-05
2.948361606e-05
3.498351004e-05
4.040162937e-05
4.543059788e-05
4.99121168e-05
5.379774996e-05
5.710740184e-05
5.989660133e-05
6.223442949e-05
6.418978195e-05
6.582098722e-05
6.71558197e-05
6.811036136e-05
1.736029565e-05
1.934017014e-05
2.202721086e-05
2.52704134e-05
2.886864366e-05
3.262615071e-05
3.638238562e-05
4.002105788e-05
4.34670622e-05
4.66782001e-05
4.963575072e-05
5.233492326e-05
5.477133539e-05
5.690360636e-05
5.850360582e-05
1.731630855e-05
1.88784205e-05
2.09371858e-05
2.343703141e-05
2.628601724e-05
2.937704996e-05
3.260436795e-05
3.587386514e-05
3.91079469e-05
4.224619015e-05
4.524197229e-05
4.805050056e-05
5.058382372e-05
5.252409535e-05
1.575796162e-05
1.640352882e-05
1.739574756e-05
1.878193298e-05
2.057203503e-05
2.274032056e-05
2.523341419e-05
2.798082603e-05
3.090505235e-05
3.392957919e-05
3.698388885e-05
4.000410747e-05
4.29231319e-05
4.562245554e-05
4.772563764e-05
1.624953393e-05
1.731620814e-05
1.887829926e-05
2.093708633e-05
2.343700817e-05
2.628611903e-05
2.937731622e-05
3.260482759e-05
3.587453511e-05
3.910883879e-05
4.22473051e-05
4.524330859e-05
4.805204829e-05
5.058556599e-05
5.252599348e-05
1.73377204e-05
1.930999186e-05
2.202199049e-05
2.534266739e-05
2.907671796e-05
3.301987448e-05
3.699366064e-05
4.08605412e-05
4.452568007e-05
4.79314987e-05
5.104926501e-05
5.386938981e-05
5.638729613e-05
5.856567466e-05
6.018493988e-05
1.894834151e-05
2.218985922e-05
2.6345503e-05
3.106740808e-05
3.60049743e-05
4.087401013e-05
4.547650842e-05
4.969385029e-05
5.346979364e-05
5.679218097e-05
5.967710186e-05
6.215595546e-05
6.426231965e-05
6.60041375e-05
6.725509127e-05
2.01359326e-05
2.421205755e-05
2.914563182e-05
3.447696039e-05
3.982843906e-05
4.493404292e-05
4.962979206e-05
5.383183434e-05
5.751367793e-05
6.068678602e-05
6.338544665e-05
6.565518585e-05
6.754168168e-05
6.906812456e-05
7.014518238e-05
1.894829612e-05
2.218978474e-05
2.634539008e-05
3.106724076e-05
3.600473556e-05
4.087368479e-05
4.547608548e-05
4.969332726e-05
5.346917488e-05
5.679147554e-05
5.967631798e-05
6.215510148e-05
6.426140401e-05
6.600316956e-05
6.725408025e-05
1.733769598e-05
1.930995112e-05
2.202191028e-05
2.534251328e-05
2.907645336e-05
3.301947218e-05
3.6993099e-05
4.085980932e-05
4.452477883e-05
4.793043142e-05
5.104803937e-05
5.386802015e-05
5.638579242e-05
5.856405419e-05
6.01832304e-05
1.624954081e-05
1.731622443e-05
1.887830538e-05
2.093704614e-05
2.343687905e-05
2.628586042e-05
2.937689388e-05
3.260421534e-05
3.587371687e-05
3.91078068e-05
4.224605751e-05
4.524184901e-05
4.805038481e-05
5.058371505e-05
5.252399203e-05
1.575798414e-05
1.64035728e-05
1.739579985e-05
1.878196363e-05
2.057200316e-05
2.274018238e-05
2.523312878e-05
2.798035708e-05
3.090437226e-05
3.3928667e-05
3.698273173e-05
4.000269795e-05
4.292147087e-05
4.562055268e-05
4.772353469e-05
)
;

boundaryField
{
    top
    {
        type            calculated;
        value           nonuniform List<scalar> 
127
(
1.575798414e-05
1.640352788e-05
1.731620082e-05
1.930996673e-05
2.218982885e-05
2.421208151e-05
2.218998477e-05
1.931013501e-05
1.731630855e-05
1.64035728e-05
1.73958065e-05
1.887838303e-05
2.20221174e-05
2.634570482e-05
2.914593053e-05
2.634579718e-05
2.202221208e-05
1.88784205e-05
1.739579985e-05
1.878205644e-05
2.0937263e-05
2.534293895e-05
3.106781757e-05
3.447749144e-05
3.10678006e-05
2.53428993e-05
2.09371858e-05
1.878196363e-05
2.057221993e-05
2.343726596e-05
2.907710312e-05
3.600553164e-05
3.982911741e-05
3.60053769e-05
2.907688373e-05
2.343703141e-05
2.057200316e-05
2.274056232e-05
2.628644503e-05
3.302034274e-05
4.087465825e-05
4.49347946e-05
4.087435345e-05
3.301991668e-05
2.628601724e-05
2.274018238e-05
2.523370749e-05
2.937769773e-05
3.699418618e-05
4.547720477e-05
4.963056695e-05
4.547674987e-05
3.699353968e-05
2.937704996e-05
2.523312878e-05
2.798116614e-05
3.260525422e-05
4.086110441e-05
4.969456468e-05
5.383260161e-05
4.9693969e-05
4.086023395e-05
3.260436795e-05
2.798035708e-05
3.090543571e-05
3.587499895e-05
4.452627071e-05
5.347050884e-05
5.751442215e-05
5.346978495e-05
4.452518332e-05
3.587386514e-05
3.090437226e-05
3.393000051e-05
3.910933364e-05
4.793210453e-05
5.679288909e-05
6.06875004e-05
5.679205114e-05
4.793081238e-05
3.91079469e-05
3.3928667e-05
3.698434143e-05
4.224782451e-05
5.104987774e-05
5.967779496e-05
6.338612827e-05
5.967685724e-05
5.104839788e-05
4.224619015e-05
3.698273173e-05
4.00045869e-05
4.524384461e-05
5.387000462e-05
6.215662964e-05
6.565582989e-05
6.215560617e-05
5.386835426e-05
4.524197229e-05
4.000269795e-05
4.292363215e-05
4.805259732e-05
5.638790565e-05
6.426297191e-05
6.754229143e-05
6.426187765e-05
5.638610472e-05
4.805050056e-05
4.292147087e-05
4.562297283e-05
5.058612498e-05
5.85662791e-05
6.600476848e-05
6.906870188e-05
6.600361557e-05
5.856434625e-05
5.058382372e-05
4.562055268e-05
4.772616665e-05
5.252655729e-05
6.018553777e-05
6.725570423e-05
7.014573627e-05
6.725450772e-05
6.018350649e-05
5.252409535e-05
4.772353469e-05
)
;
    }
    bottom
    {
        type            calculated;
        value           nonuniform List<scalar> 
134
(
1.624957716e-05
1.733776664e-05
1.894838412e-05
2.013597734e-05
1.894835712e-05
1.733772111e-05
1.624953232e-05
1.575796162e-05
1.640361874e-05
1.731632598e-05
1.93101463e-05
2.219004885e-05
2.421228026e-05
2.218995866e-05
1.931001555e-05
1.731620991e-05
1.640352882e-05
1.739591135e-05
1.887851813e-05
2.20222924e-05
2.634590326e-05
2.914611368e-05
2.634574508e-05
2.202206164e-05
1.88783106e-05
1.739574756e-05
1.878218286e-05
2.093742441e-05
2.534315187e-05
3.106807406e-05
3.447775693e-05
3.106784337e-05
2.53428135e-05
2.093711443e-05
1.878193298e-05
2.057238373e-05
2.343748408e-05
2.907741445e-05
3.600594491e-05
3.982958273e-05
3.600564127e-05
2.907696482e-05
2.343706201e-05
2.057203503e-05
2.274078401e-05
2.628675434e-05
3.302081057e-05
4.087530978e-05
4.493555573e-05
4.087493279e-05
3.302024488e-05
2.628620771e-05
2.274032056e-05
2.523401118e-05
2.93781302e-05
3.6994853e-05
4.547814609e-05
4.963167971e-05
4.547769695e-05
3.699416767e-05
2.937744653e-05
2.523341419e-05
2.798157443e-05
3.260583576e-05
4.08619958e-05
4.969582117e-05
5.383408567e-05
4.969530283e-05
4.086119024e-05
3.260500459e-05
2.798082603e-05
3.090597018e-05
3.587574898e-05
4.452740007e-05
5.347207961e-05
5.751626737e-05
5.347149294e-05
4.452646908e-05
3.587476061e-05
3.090505235e-05
3.393067794e-05
3.91102651e-05
4.793347606e-05
5.67947583e-05
6.068967929e-05
5.679410504e-05
4.793241985e-05
3.910911404e-05
3.392957919e-05
3.698517816e-05
4.224894463e-05
5.105148584e-05
5.96799391e-05
6.338860591e-05
5.967922686e-05
5.105031178e-05
4.224762933e-05
3.698388885e-05
4.00055911e-05
4.524515698e-05
5.387183625e-05
6.21590222e-05
6.56585711e-05
6.215825355e-05
5.387055008e-05
4.524367872e-05
4.000410747e-05
4.292480966e-05
4.805409966e-05
5.6389948e-05
6.426558594e-05
6.754525701e-05
6.426476566e-05
5.638855512e-05
4.805246388e-05
4.29231319e-05
4.56243194e-05
5.058781018e-05
5.856851413e-05
6.600757837e-05
6.90718608e-05
6.600671014e-05
5.856702456e-05
5.058602517e-05
4.562245554e-05
4.772765814e-05
5.252839476e-05
6.018792777e-05
6.725866581e-05
7.014904473e-05
6.725775781e-05
6.018636296e-05
5.252648948e-05
4.772563764e-05
)
;
    }
    side-walls
    {
        type            calculated;
        value           nonuniform List<scalar> 
261
(
1.640361874e-05
1.731631821e-05
1.931010986e-05
2.218993693e-05
2.421209433e-05
2.218982743e-05
1.9309958e-05
1.731619414e-05
1.640352788e-05
1.739591135e-05
1.88785352e-05
2.202233641e-05
2.63459546e-05
2.914615999e-05
2.634580697e-05
2.202213869e-05
1.887837986e-05
1.73958065e-05
1.878218286e-05
2.093746029e-05
2.534325865e-05
3.106825377e-05
3.44779881e-05
3.106807376e-05
2.534301564e-05
2.093727043e-05
1.878205644e-05
2.057238373e-05
2.343753199e-05
2.907756146e-05
3.600620756e-05
3.982993897e-05
3.600599213e-05
2.907726501e-05
2.34372939e-05
2.057221993e-05
2.274078401e-05
2.628680725e-05
3.302097804e-05
4.087561848e-05
4.493598183e-05
4.08753589e-05
3.302061427e-05
2.628650318e-05
2.274056232e-05
2.523401118e-05
2.937818486e-05
3.699502861e-05
4.547847517e-05
4.963213863e-05
4.547816669e-05
3.699458687e-05
2.937779323e-05
2.523370749e-05
2.798157443e-05
3.260589116e-05
4.086217684e-05
4.969615521e-05
5.383455497e-05
4.969579444e-05
4.086164339e-05
3.260539378e-05
2.798116614e-05
3.090597018e-05
3.587580507e-05
4.45275812e-05
5.347241153e-05
5.75167347e-05
5.347199539e-05
4.452694791e-05
3.5875186e-05
3.090543571e-05
3.393067794e-05
3.911031948e-05
4.793365266e-05
5.67950847e-05
6.069013985e-05
5.679461248e-05
4.793291782e-05
3.910956906e-05
3.393000051e-05
3.698517816e-05
4.224899874e-05
5.105165755e-05
5.968025714e-05
6.338905618e-05
5.967973138e-05
5.105081967e-05
4.224810801e-05
3.698434143e-05
4.00055911e-05
4.524521126e-05
5.387200417e-05
6.215933151e-05
6.565901141e-05
6.215875357e-05
5.387106582e-05
4.524417653e-05
4.00045869e-05
4.292480966e-05
4.80541524e-05
5.639011224e-05
6.426588767e-05
6.754568804e-05
6.426526037e-05
5.638907644e-05
4.805297704e-05
4.292363215e-05
4.56243194e-05
5.058786036e-05
5.856867662e-05
6.600787191e-05
6.907228157e-05
6.600719944e-05
5.856754726e-05
5.058655119e-05
4.562297283e-05
4.772765814e-05
5.25284455e-05
6.018809079e-05
6.725895345e-05
7.014945546e-05
6.725824582e-05
6.018688683e-05
5.25270239e-05
4.772616665e-05
1.575796162e-05
1.624953393e-05
1.73377204e-05
1.894834151e-05
2.01359326e-05
1.894829612e-05
1.733769598e-05
1.624954081e-05
1.575798414e-05
1.640352882e-05
1.731620814e-05
1.930999186e-05
2.218985922e-05
2.421205755e-05
2.218978474e-05
1.930995112e-05
1.731622443e-05
1.64035728e-05
1.739574756e-05
1.887829926e-05
2.202199049e-05
2.6345503e-05
2.914563182e-05
2.634539008e-05
2.202191028e-05
1.887830538e-05
1.739579985e-05
1.878193298e-05
2.093708633e-05
2.534266739e-05
3.106740808e-05
3.447696039e-05
3.106724076e-05
2.534251328e-05
2.093704614e-05
1.878196363e-05
2.057203503e-05
2.343700817e-05
2.907671796e-05
3.60049743e-05
3.982843906e-05
3.600473556e-05
2.907645336e-05
2.343687905e-05
2.057200316e-05
2.274032056e-05
2.628611903e-05
3.301987448e-05
4.087401013e-05
4.493404292e-05
4.087368479e-05
3.301947218e-05
2.628586042e-05
2.274018238e-05
2.523341419e-05
2.937731622e-05
3.699366064e-05
4.547650842e-05
4.962979206e-05
4.547608548e-05
3.6993099e-05
2.937689388e-05
2.523312878e-05
2.798082603e-05
3.260482759e-05
4.08605412e-05
4.969385029e-05
5.383183434e-05
4.969332726e-05
4.085980932e-05
3.260421534e-05
2.798035708e-05
3.090505235e-05
3.587453511e-05
4.452568007e-05
5.346979364e-05
5.751367793e-05
5.346917488e-05
4.452477883e-05
3.587371687e-05
3.090437226e-05
3.392957919e-05
3.910883879e-05
4.79314987e-05
5.679218097e-05
6.068678602e-05
5.679147554e-05
4.793043142e-05
3.91078068e-05
3.3928667e-05
3.698388885e-05
4.22473051e-05
5.104926501e-05
5.967710186e-05
6.338544665e-05
5.967631798e-05
5.104803937e-05
4.224605751e-05
3.698273173e-05
4.000410747e-05
4.524330859e-05
5.386938981e-05
6.215595546e-05
6.565518585e-05
6.215510148e-05
5.386802015e-05
4.524184901e-05
4.000269795e-05
4.29231319e-05
4.805204829e-05
5.638729613e-05
6.426231965e-05
6.754168168e-05
6.426140401e-05
5.638579242e-05
4.805038481e-05
4.292147087e-05
4.562245554e-05
5.058556599e-05
5.856567466e-05
6.60041375e-05
6.906812456e-05
6.600316956e-05
5.856405419e-05
5.058371505e-05
4.562055268e-05
4.772563764e-05
5.252599348e-05
6.018493988e-05
6.725509127e-05
7.014518238e-05
6.725408025e-05
6.01832304e-05
5.252399203e-05
4.772353469e-05
)
;
    }
    inlet
    {
        type            calculated;
        value           nonuniform 0();
    }
    outlet
    {
        type            calculated;
        value           nonuniform List<scalar> 
81
(
4.772765814e-05
5.25284455e-05
6.018809079e-05
6.725895345e-05
7.014945546e-05
6.725824582e-05
6.018688683e-05
5.25270239e-05
4.772616665e-05
5.252839476e-05
5.850823319e-05
6.811536499e-05
7.706201869e-05
8.074501795e-05
7.706111133e-05
6.811383919e-05
5.850646936e-05
5.252655729e-05
6.018792777e-05
6.811525814e-05
8.095797138e-05
9.304551923e-05
9.806520681e-05
9.304429912e-05
8.095594068e-05
6.811292202e-05
6.018553777e-05
6.725866581e-05
7.706177566e-05
9.304533977e-05
0.0001082147188
0.0001145617719
0.0001082132556
9.304281092e-05
7.705886866e-05
6.725570423e-05
7.014904473e-05
8.074460491e-05
9.806483351e-05
0.0001145615153
0.000121508913
0.0001145598186
9.806200752e-05
8.074137814e-05
7.014573627e-05
6.725775781e-05
7.70605965e-05
9.304376855e-05
0.0001082127518
0.0001145595043
0.0001082110334
9.30409857e-05
7.705743692e-05
6.725450772e-05
6.018636296e-05
6.811328594e-05
8.095534843e-05
9.304222974e-05
9.806153678e-05
9.304075362e-05
8.095294413e-05
6.811053187e-05
6.018350649e-05
5.252648948e-05
5.850589869e-05
6.811232121e-05
7.705825715e-05
8.074085148e-05
7.705708085e-05
6.811036136e-05
5.850360582e-05
5.252409535e-05
4.772563764e-05
5.252599348e-05
6.018493988e-05
6.725509127e-05
7.014518238e-05
6.725408025e-05
6.01832304e-05
5.252399203e-05
4.772353469e-05
)
;
    }
    procBoundary1to0
    {
        type            processor;
        value           nonuniform List<scalar> 
97
(
1.575798061e-05
1.575798061e-05
1.624952849e-05
1.733764103e-05
1.89481116e-05
2.013556919e-05
1.894803089e-05
1.733753783e-05
1.624944295e-05
1.575791189e-05
1.561095512e-05
1.736030433e-05
1.736030433e-05