/*--------------------------------*- C++ -*----------------------------------*\
| =========                 |                                                 |
| \\      /  F ield         | OpenFOAM: The Open Source CFD Toolbox           |
|  \\    /   O peration     | Version:  4.x                                   |
|   \\  /    A nd           | Web:      www.OpenFOAM.org                      |
|    \\/     M anipulation  |                                                 |
\*---------------------------------------------------------------------------*/
FoamFile
{
    version     2.0;
    format      ascii;
    class       volScalarField;
    location    "7000";
    object      X_H2;
}
// * * * * * * * * * * * * * * * * * * * * * * * * * * * * * * * * * * * * * //

dimensions      [0 0 0 0 0 0 0];

internalField   nonuniform List<scalar> 
1174
(
0.05987532753
0.05987433558
0.05987294976
0.05987116015
0.0598689925
0.0598665002
0.05986375375
0.05986083065
0.0598578074
0.05985475452
0.05985173587
0.0598488185
0.05984612084
0.05984401902
0.05987441504
0.05987285329
0.05987079496
0.05986829563
0.05986544727
0.05986235699
0.05985913057
0.05985586212
0.05985262921
0.05984949228
0.05984649792
0.05984369091
0.0598411591
0.05983922006
0.05987242155
0.05986971
0.05986638991
0.0598626566
0.05985871436
0.05985474168
0.05985087608
0.05984721237
0.05984380811
0.05984069201
0.05983787365
0.05983535755
0.05983318094
0.05983156309
0.05986954192
0.0598653868
0.05986066557
0.05985572887
0.05985086089
0.05984625964
0.05984204373
0.05983826935
0.05983494865
0.0598320655
0.05982958849
0.059827484
0.05982574399
0.05982449447
0.05986751972
0.05986258665
0.05985725602
0.05985190544
0.05984680093
0.05984210648
0.0598379059
0.05983422566
0.05983105427
0.05982835741
0.05982608953
0.05982420492
0.05982268029
0.05982160467
0.05986954196
0.05986538686
0.05986066565
0.05985572896
0.059850861
0.05984625977
0.05984204386
0.05983826949
0.0598349488
0.05983206566
0.05982958865
0.05982748416
0.05982574415
0.05982449464
0.0598724216
0.05986971008
0.05986639002
0.05986265674
0.05985871454
0.05985474188
0.0598508763
0.0598472126
0.05984380836
0.05984069228
0.05983787392
0.05983535784
0.05983318123
0.05983156339
0.05987441509
0.05987285336
0.05987079505
0.05986829575
0.05986544742
0.05986235718
0.05985913079
0.05985586236
0.05985262948
0.05984949257
0.05984649824
0.05984369124
0.05984115945
0.05983922042
0.05987532758
0.05987433564
0.05987294984
0.05987116025
0.05986899262
0.05986650035
0.05986375393
0.05986083086
0.05985780765
0.0598547548
0.05985173617
0.05984881883
0.0598461212
0.0598440194
0.05987548144
0.05987441503
0.05987285328
0.05987079495
0.05986829562
0.05986544727
0.05986235699
0.05985913057
0.05985586212
0.05985262922
0.05984949228
0.05984649793
0.05984369091
0.0598411591
0.05983922006
0.05987239138
0.05986970479
0.05986646211
0.0598628645
0.05985910775
0.05985535242
0.05985171481
0.05984827001
0.05984506021
0.05984210412
0.05983940651
0.05983697172
0.05983484106
0.05983324236
0.05986736457
0.05986224872
0.05985674949
0.05985133219
0.05984630423
0.05984182389
0.0598379396
0.05983463143
0.05983184382
0.05982950767
0.05982755407
0.05982592464
0.05982459153
0.05982363836
0.05985857182
0.05985020433
0.05984234268
0.05983555551
0.05983001845
0.05982567712
0.05982237172
0.0598199128
0.05981812001
0.05981683814
0.05981594095
0.05981532922
0.05981492811
0.05981469433
0.05985042734
0.05984045966
0.05983211203
0.05982556812
0.05982066167
0.05981711058
0.05981462563
0.05981295287
0.05981188484
0.05981125862
0.05981094892
0.05981085924
0.05981090962
0.05981101212
0.05985857199
0.05985020457
0.05984234295
0.05983555578
0.05983001872
0.05982567737
0.05982237197
0.05981991304
0.05981812024
0.05981683837
0.05981594116
0.05981532943
0.05981492832
0.05981469453
0.05986736478
0.05986224898
0.0598567498
0.05985133253
0.05984630458
0.05984182426
0.05983793997
0.0598346318
0.05983184419
0.05982950805
0.05982755444
0.05982592501
0.0598245919
0.05982363873
0.05987239149
0.05986970493
0.05986646228
0.05986286471
0.05985910799
0.0598553527
0.05985171511
0.05984827034
0.05984506056
0.05984210449
0.05983940689
0.05983697212
0.05983484147
0.05983324278
0.05987441509
0.05987285336
0.05987079505
0.05986829575
0.05986544743
0.05986235719
0.05985913081
0.05985586239
0.05985262952
0.05984949262
0.05984649829
0.0598436913
0.05984115952
0.0598392205
0.05987439345
0.05987242153
0.05986970999
0.05986638991
0.05986265661
0.05985871438
0.0598547417
0.0598508761
0.05984721239
0.05984380813
0.05984069204
0.05983787367
0.05983535758
0.05983318096
0.05983156312
0.05987154469
0.05986736457
0.05986224873
0.0598567495
0.0598513322
0.05984630424
0.0598418239
0.05983793961
0.05983463144
0.05983184384
0.05982950769
0.05982755409
0.05982592466
0.05982459155
0.05982363838
0.05985275315
0.05984220042
0.05983277856
0.0598251666
0.05981946315
0.05981545639
0.0598128183
0.05981121478
0.05981035563
0.05981000959
0.05981000176
0.05981020253
0.05981050867
0.05981079947
0.05982079901
0.05980335213
0.05979157229
0.05978483512
0.05978187486
0.05978146202
0.05978262777
0.059784684
0.05978717288
0.05978980427
0.05979240099
0.05979485154
0.05979704822
0.05979871507
0.05977973432
0.05976273348
0.0597557722
0.05975493279
0.05975746106
0.05976164782
0.05976649624
0.05977145002
0.05977621346
0.05978064097
0.0597846697
0.05978827147
0.059791385
0.05979369628
0.05982080011
0.0598033532
0.05979157326
0.05978483594
0.05978187554
0.05978146259
0.05978262823
0.05978468439
0.05978717322
0.05978980458
0.05979240127
0.0597948518
0.05979704848
0.05979871532
0.05985275398
0.05984220117
0.0598327793
0.05982516733
0.05981946384
0.05981545702
0.05981281889
0.05981121533
0.05981035614
0.05981001008
0.05981000222
0.05981020298
0.05981050911
0.0598107999
0.05986736476
0.05986224899
0.05985674983
0.05985133258
0.05984630465
0.05984182434
0.05983794007
0.05983463191
0.05983184432
0.05982950818
0.05982755459
0.05982592517
0.05982459206
0.0598236389
0.0598724216
0.0598697101
0.05986639005
0.05986265679
0.05985871461
0.05985474197
0.05985087641
0.05984721274
0.05984380852
0.05984069246
0.05983787413
0.05983535806
0.05983318147
0.05983156364
0.05987278301
0.05986954193
0.05986538682
0.0598606656
0.0598557289
0.05985086093
0.05984625968
0.05984204376
0.05983826939
0.05983494869
0.05983206555
0.05982958854
0.05982748404
0.05982574403
0.05982449451
0.05986636357
0.05985857174
0.05985020432
0.05984234266
0.05983555548
0.05983001843
0.0598256771
0.05982237172
0.05981991281
0.05981812002
0.05981683816
0.05981594097
0.05981532925
0.05981492814
0.05981469436
0.05984244843
0.05982079893
0.05980335219
0.05979157233
0.05978483514
0.05978187489
0.05978146207
0.05978262782
0.05978468405
0.05978717294
0.05978980433
0.05979240105
0.05979485159
0.05979704828
0.05979871512
0.05971292998
0.05969190561
0.05968927387
0.05969638417
0.05970767794
0.05972007912
0.05973206823
0.05974299571
0.05975266099
0.05976107678
0.05976834247
0.05977456747
0.05977977208
0.05978354928
0.05950521641
0.05953431538
0.05957738485
0.05961819989
0.05965263457
0.05968057491
0.05970301505
0.05972107513
0.05973571561
0.05974769005
0.05975756679
0.05976575003
0.0597724292
0.05977720316
0.05971293633
0.05969190926
0.05968927627
0.05969638578
0.05970767899
0.0597200798
0.05973206868
0.05974299603
0.05975266124
0.05976107699
0.05976834267
0.05977456765
0.05977977226
0.05978354947
0.05982080009
0.05980335351
0.05979157364
0.05978483633
0.05978187591
0.05978146293
0.05978262856
0.05978468472
0.05978717354
0.05978980489
0.05979240157
0.05979485209
0.05979704876
0.05979871559
0.05985857205
0.05985020476
0.05984234321
0.05983555609
0.05983001905
0.05982567772
0.05982237233
0.05981991341
0.05981812063
0.05981683877
0.05981594157
0.05981532984
0.05981492873
0.05981469495
0.05986954199
0.05986538693
0.05986066577
0.05985572913
0.05985086121
0.05984626002
0.05984204415
0.05983826982
0.05983494916
0.05983206605
0.05982958907
0.0598274846
0.05982574461
0.05982449511
0.05987159547
0.05986751976
0.05986258671
0.05985725608
0.0598519055
0.05984680099
0.05984210654
0.05983790596
0.05983422572
0.05983105433
0.05982835747
0.05982608959
0.05982420498
0.05982268034
0.05982160472
0.05986105838
0.05985042743
0.05984045986
0.05983211218
0.05982556824
0.05982066178
0.05981711068
0.05981462573
0.05981295296
0.05981188493
0.0598112587
0.05981094899
0.05981085931
0.05981090969
0.05981101219
0.05981059771
0.05977973464
0.0597627343
0.0597557727
0.05975493307
0.05975746125
0.05976164797
0.05976649636
0.05977145013
0.05977621357
0.05978064107
0.05978466979
0.05978827155
0.05979138508
0.05979369636
0.05954036198
0.05950522018
0.05953431728
0.05957738572
0.05961820033
0.05965263484
0.05968057512
0.05970301522
0.05972107528
0.05973571574
0.05974769016
0.05975756689
0.05976575012
0.05977242928
0.05977720323
0.05862237429
0.05907801216
0.05932858272
0.05947465935
0.05956491571
0.05962387517
0.05966440522
0.05969354153
0.05971529402
0.05973204413
0.05974526006
0.05975585749
0.05976430606
0.05977025671
0.05950521678
0.05953431988
0.05957738827
0.05961820205
0.05965263594
0.05968057585
0.05970301574
0.05972107568
0.05973571608
0.05974769047
0.05975756717
0.05976575039
0.05977242953
0.05977720348
0.0597797348
0.0597627354
0.05975577403
0.05975493427
0.05975746225
0.0597616488
0.05976649708
0.05977145077
0.05977621416
0.05978064163
0.05978467032
0.05978827206
0.05979138558
0.05979369684
0.05985042759
0.05984046027
0.05983211272
0.05982556882
0.05982066237
0.05981711127
0.05981462631
0.05981295355
0.05981188552
0.0598112593
0.0598109496
0.05981085991
0.05981091029
0.05981101279
0.05986751981
0.05986258684
0.05985725627
0.05985190575
0.0598468013
0.0598421069
0.05983790637
0.05983422618
0.05983105483
0.05982835801
0.05982609016
0.05982420557
0.05982268096
0.05982160536
0.05987278301
0.05986954195
0.05986538687
0.05986066567
0.05985572899
0.05985086103
0.0598462598
0.0598420439
0.05983826953
0.05983494884
0.05983206571
0.0598295887
0.05982748422
0.05982574421
0.0598244947
0.05986636377
0.05985857206
0.05985020468
0.05984234304
0.05983555587
0.0598300188
0.05982567746
0.05982237205
0.05981991313
0.05981812033
0.05981683846
0.05981594125
0.05981532952
0.0598149284
0.05981469462
0.05984245041
0.05982080055
0.05980335368
0.05979157352
0.05978483611
0.05978187568
0.05978146272
0.05978262837
0.05978468453
0.05978717336
0.05978980472
0.0597924014
0.05979485192
0.05979704859
0.05979871542
0.0597619161
0.05971293816
0.05969191074
0.05968927707
0.05969638625
0.05970767935
0.05972008012
0.05973206898
0.05974299631
0.05975266149
0.05976107723
0.05976834288
0.05977456784
0.05977977243
0.05978354962
0.05954036308
0.05950522154
0.05953432217
0.05957738941
0.05961820272
0.05965263642
0.05968057623
0.05970301607
0.05972107596
0.05973571632
0.05974769067
0.05975756735
0.05976575054
0.05977242966
0.05977720359
0.05976191489
0.05971293899
0.05969191206
0.05968927823
0.05969638716
0.05970768005
0.05972008068
0.05973206945
0.05974299673
0.05975266187
0.05976107758
0.05976834321
0.05977456815
0.05977977272
0.05978354991
0.05982079886
0.05980335351
0.05979157391
0.05978483665
0.05978187623
0.05978146326
0.05978262889
0.05978468505
0.05978717387
0.05978980522
0.05979240189
0.05979485241
0.05979704906
0.05979871589
0.05985857186
0.0598502047
0.05984234321
0.05983555612
0.05983001912
0.05982567782
0.05982237246
0.05981991357
0.0598181208
0.05981683895
0.05981594177
0.05981533005
0.05981492894
0.05981469516
0.05986954196
0.05986538692
0.05986066577
0.05985572914
0.05985086124
0.05984626007
0.05984204423
0.05983826992
0.05983494928
0.05983206618
0.05982958922
0.05982748476
0.05982574478
0.05982449529
0.05987439347
0.05987242158
0.05986971008
0.05986639003
0.05986265677
0.05985871457
0.05985474192
0.05985087634
0.05984721265
0.05984380841
0.05984069233
0.05983787398
0.0598353579
0.05983318129
0.05983156346
0.05987154485
0.05986736477
0.059862249
0.05985674982
0.05985133257
0.05984630463
0.05984182431
0.05983794003
0.05983463186
0.05983184426
0.05982950811
0.05982755451
0.05982592509
0.05982459197
0.0598236388
0.05986295264
0.05985275415
0.05984220134
0.05983277943
0.05982516744
0.05981946394
0.05981545713
0.059812819
0.05981121544
0.05981035626
0.0598100102
0.05981000233
0.05981020308
0.05981050921
0.0598108
0.05984245044
0.0598208008
0.05980335409
0.05979157401
0.05978483658
0.05978187612
0.05978146312
0.05978262874
0.05978468488
0.0597871737
0.05978980504
0.05979240171
0.05979485222
0.05979704888
0.0597987157
0.05981059787
0.05977973609
0.05976273614
0.05975577446
0.05975493458
0.05975746251
0.05976164903
0.05976649729
0.05977145097
0.05977621435
0.0597806418
0.05978467048
0.0597882722
0.0597913857
0.05979369696
0.05984245061
0.05982080115
0.05980335448
0.05979157436
0.0597848369
0.0597818764
0.05978146338
0.059782629
0.05978468514
0.05978717395
0.05978980529
0.05979240195
0.05979485246
0.05979704911
0.05979871594
0.05986295222
0.05985275393
0.05984220131
0.05983277951
0.05982516758
0.05981946414
0.05981545736
0.05981281927
0.05981121574
0.05981035659
0.05981001054
0.0598100027
0.05981020346
0.05981050959
0.05981080038
0.05986736463
0.05986224895
0.05985674983
0.05985133262
0.05984630474
0.05984182447
0.05983794025
0.05983463213
0.05983184457
0.05982950846
0.05982755489
0.0598259255
0.0598245924
0.05982363925
0.05987242155
0.05986971005
0.05986639002
0.05986265679
0.05985871464
0.05985474204
0.05985087652
0.05984721288
0.0598438087
0.05984069267
0.05983787436
0.05983535831
0.05983318175
0.05983156393
0.05987548148
0.05987441508
0.05987285336
0.05987079507
0.05986829578
0.05986544746
0.05986235722
0.05985913084
0.05985586241
0.05985262954
0.05984949263
0.0598464983
0.05984369131
0.05984115952
0.0598392205
0.05987437093
0.05987239148
0.05986970494
0.05986646231
0.05986286475
0.05985910805
0.05985535276
0.05985171518
0.05984827041
0.05984506064
0.05984210457
0.05983940697
0.05983697221
0.05983484156
0.05983324286
0.05987154486
0.05986736479
0.05986224903
0.05985674987
0.05985133263
0.05984630471
0.0598418244
0.05983794014
0.05983463199
0.0598318444
0.05982950826
0.05982755467
0.05982592525
0.05982459214
0.05982363898
0.0598663638
0.05985857217
0.05985020487
0.05984234329
0.05983555616
0.05983001912
0.0598256778
0.05982237242
0.05981991351
0.05981812072
0.05981683886
0.05981594166
0.05981532994
0.05981492882
0.05981469504
0.05986105846
0.05985042778
0.05984046038
0.0598321128
0.0598255689
0.05982066244
0.05981711135
0.0598146264
0.05981295364
0.05981188561
0.05981125939
0.05981094968
0.05981086
0.05981091038
0.05981101287
0.05986636384
0.05985857223
0.05985020493
0.05984234336
0.05983555624
0.05983001921
0.05982567791
0.05982237254
0.05981991364
0.05981812087
0.05981683902
0.05981594183
0.0598153301
0.059814929
0.05981469522
0.05987154486
0.0598673648
0.05986224906
0.05985674992
0.05985133271
0.05984630482
0.05984182455
0.05983794031
0.05983463219
0.05983184462
0.05982950851
0.05982755493
0.05982592553
0.05982459244
0.05982363928
0.05987437091
0.05987239146
0.05986970492
0.05986646231
0.05986286478
0.0598591081
0.05985535285
0.05985171531
0.05984827058
0.05984506085
0.05984210482
0.05983940726
0.05983697252
0.0598348419
0.05983324323
0.05987441502
0.05987285332
0.05987079503
0.05986829577
0.05986544748
0.05986235727
0.05985913093
0.05985586255
0.05985262972
0.05984949286
0.05984649857
0.05984369161
0.05984115986
0.05983922087
0.05987597294
0.05987532758
0.05987433565
0.05987294986
0.05987116027
0.05986899266
0.0598665004
0.05986375398
0.05986083092
0.05985780771
0.05985475487
0.05985173625
0.05984881891
0.05984612128
0.05984401949
0.05987548146
0.05987441507
0.05987285335
0.05987079506
0.05986829578
0.05986544747
0.05986235724
0.05985913086
0.05985586245
0.05985262958
0.05984949269
0.05984649837
0.05984369138
0.0598411596
0.05983922058
0.05987439345
0.05987242158
0.05986971009
0.05986639006
0.05986265682
0.05985871465
0.05985474202
0.05985087647
0.0598472128
0.05984380859
0.05984069253
0.05983787419
0.05983535813
0.05983318154
0.05983156371
0.05987278303
0.059869542
0.05986538696
0.05986066581
0.05985572918
0.05985086127
0.05984626009
0.05984204422
0.0598382699
0.05983494924
0.05983206613
0.05982958915
0.05982748468
0.05982574469
0.05982449519
0.05987159549
0.05986751985
0.05986258688
0.05985725633
0.05985190582
0.05984680138
0.05984210699
0.05983790646
0.05983422627
0.05983105492
0.05982835809
0.05982609024
0.05982420565
0.05982268104
0.05982160543
0.05987278304
0.05986954202
0.05986538699
0.05986066585
0.05985572923
0.05985086134
0.05984626016
0.05984204431
0.05983827
0.05983494935
0.05983206626
0.05982958929
0.05982748483
0.05982574484
0.05982449535
0.05987439348
0.05987242161
0.05986971014
0.05986639012
0.0598626569
0.05985871475
0.05985474215
0.05985087662
0.05984721298
0.05984380879
0.05984069275
0.05983787444
0.05983535839
0.05983318181
0.059831564
0.05987548147
0.05987441507
0.05987285336
0.05987079507
0.05986829581
0.05986544752
0.05986235731
0.05985913097
0.05985586258
0.05985262975
0.05984949289
0.0598464986
0.05984369165
0.05984115989
0.0598392209
0.05987597292
0.05987532756
0.05987433562
0.05987294983
0.05987116026
0.05986899266
0.05986650042
0.05986375403
0.059860831
0.05985780783
0.05985475502
0.05985173644
0.05984881914
0.05984612154
0.05984401978
)
;

boundaryField
{
    top
    {
        type            calculated;
        value           nonuniform List<scalar> 
127
(
0.05987597292
0.05987532758
0.05987441509
0.0598724216
0.05986954199
0.05986751981
0.05986954196
0.05987242155
0.05987441502
0.05987532756
0.05987433564
0.05987285336
0.0598697101
0.05986538693
0.05986258684
0.05986538692
0.05986971005
0.05987285332
0.05987433562
0.05987294984
0.05987079505
0.05986639005
0.05986066577
0.05985725627
0.05986066577
0.05986639002
0.05987079503
0.05987294983
0.05987116025
0.05986829575
0.05986265679
0.05985572913
0.05985190575
0.05985572914
0.05986265679
0.05986829577
0.05987116026
0.05986899262
0.05986544743
0.05985871461
0.05985086121
0.0598468013
0.05985086124
0.05985871464
0.05986544748
0.05986899266
0.05986650035
0.05986235719
0.05985474197
0.05984626002
0.0598421069
0.05984626007
0.05985474204
0.05986235727
0.05986650042
0.05986375393
0.05985913081
0.05985087641
0.05984204415
0.05983790637
0.05984204423
0.05985087652
0.05985913093
0.05986375403
0.05986083086
0.05985586239
0.05984721274
0.05983826982
0.05983422618
0.05983826992
0.05984721288
0.05985586255
0.059860831
0.05985780765
0.05985262952
0.05984380852
0.05983494916
0.05983105483
0.05983494928
0.0598438087
0.05985262972
0.05985780783
0.0598547548
0.05984949262
0.05984069246
0.05983206605
0.05982835801
0.05983206618
0.05984069267
0.05984949286
0.05985475502
0.05985173617
0.05984649829
0.05983787413
0.05982958907
0.05982609016
0.05982958922
0.05983787436
0.05984649857
0.05985173644
0.05984881883
0.0598436913
0.05983535806
0.0598274846
0.05982420557
0.05982748476
0.05983535831
0.05984369161
0.05984881914
0.0598461212
0.05984115952
0.05983318147
0.05982574461
0.05982268096
0.05982574478
0.05983318175
0.05984115986
0.05984612154
0.0598440194
0.0598392205
0.05983156364
0.05982449511
0.05982160536
0.05982449529
0.05983156393
0.05983922087
0.05984401978
)
;
    }
    bottom
    {
        type            calculated;
        value           nonuniform List<scalar> 
134
(
0.05987548144
0.05987439345
0.05987278301
0.05987159547
0.05987278301
0.05987439347
0.05987548148
0.05987597294
0.05987532753
0.05987441503
0.05987242153
0.05986954193
0.05986751976
0.05986954195
0.05987242158
0.05987441508
0.05987532758
0.05987433558
0.05987285328
0.05986970999
0.05986538682
0.05986258671
0.05986538687
0.05986971008
0.05987285336
0.05987433565
0.05987294976
0.05987079495
0.05986638991
0.0598606656
0.05985725608
0.05986066567
0.05986639003
0.05987079507
0.05987294986
0.05987116015
0.05986829562
0.05986265661
0.0598557289
0.0598519055
0.05985572899
0.05986265677
0.05986829578
0.05987116027
0.0598689925
0.05986544727
0.05985871438
0.05985086093
0.05984680099
0.05985086103
0.05985871457
0.05986544746
0.05986899266
0.0598665002
0.05986235699
0.0598547417
0.05984625968
0.05984210654
0.0598462598
0.05985474192
0.05986235722
0.0598665004
0.05986375375
0.05985913057
0.0598508761
0.05984204376
0.05983790596
0.0598420439
0.05985087634
0.05985913084
0.05986375398
0.05986083065
0.05985586212
0.05984721239
0.05983826939
0.05983422572
0.05983826953
0.05984721265
0.05985586241
0.05986083092
0.0598578074
0.05985262922
0.05984380813
0.05983494869
0.05983105433
0.05983494884
0.05984380841
0.05985262954
0.05985780771
0.05985475452
0.05984949228
0.05984069204
0.05983206555
0.05982835747
0.05983206571
0.05984069233
0.05984949263
0.05985475487
0.05985173587
0.05984649793
0.05983787367
0.05982958854
0.05982608959
0.0598295887
0.05983787398
0.0598464983
0.05985173625
0.0598488185
0.05984369091
0.05983535758
0.05982748404
0.05982420498
0.05982748422
0.0598353579
0.05984369131
0.05984881891
0.05984612084
0.0598411591
0.05983318096
0.05982574403
0.05982268034
0.05982574421
0.05983318129
0.05984115952
0.05984612128
0.05984401902
0.05983922006
0.05983156312
0.05982449451
0.05982160472
0.0598244947
0.05983156346
0.0598392205
0.05984401949
)
;
    }
    side-walls
    {
        type            calculated;
        value           nonuniform List<scalar> 
261
(
0.05987532753
0.05987441504
0.05987242155
0.05986954192
0.05986751972
0.05986954196
0.0598724216
0.05987441509
0.05987532758
0.05987433558
0.05987285329
0.05986971
0.0598653868
0.05986258665
0.05986538686
0.05986971008
0.05987285336
0.05987433564
0.05987294976
0.05987079496
0.05986638991
0.05986066557
0.05985725602
0.05986066565
0.05986639002
0.05987079505
0.05987294984
0.05987116015
0.05986829563
0.0598626566
0.05985572887
0.05985190544
0.05985572896
0.05986265674
0.05986829575
0.05987116025
0.0598689925
0.05986544727
0.05985871436
0.05985086089
0.05984680093
0.059850861
0.05985871454
0.05986544742
0.05986899262
0.0598665002
0.05986235699
0.05985474168
0.05984625964
0.05984210648
0.05984625977
0.05985474188
0.05986235718
0.05986650035
0.05986375375
0.05985913057
0.05985087608
0.05984204373
0.0598379059
0.05984204386
0.0598508763
0.05985913079
0.05986375393
0.05986083065
0.05985586212
0.05984721237
0.05983826935
0.05983422566
0.05983826949
0.0598472126
0.05985586236
0.05986083086
0.0598578074
0.05985262921
0.05984380811
0.05983494865
0.05983105427
0.0598349488
0.05984380836
0.05985262948
0.05985780765
0.05985475452
0.05984949228
0.05984069201
0.0598320655
0.05982835741
0.05983206566
0.05984069228
0.05984949257
0.0598547548
0.05985173587
0.05984649792
0.05983787365
0.05982958849
0.05982608953
0.05982958865
0.05983787392
0.05984649824
0.05985173617
0.0598488185
0.05984369091
0.05983535755
0.059827484
0.05982420492
0.05982748416
0.05983535784
0.05984369124
0.05984881883
0.05984612084
0.0598411591
0.05983318094
0.05982574399
0.05982268029
0.05982574415
0.05983318123
0.05984115945
0.0598461212
0.05984401902
0.05983922006
0.05983156309
0.05982449447
0.05982160467
0.05982449464
0.05983156339
0.05983922042
0.0598440194
0.05987597294
0.05987548146
0.05987439345
0.05987278303
0.05987159549
0.05987278304
0.05987439348
0.05987548147
0.05987597292
0.05987532758
0.05987441507
0.05987242158
0.059869542
0.05986751985
0.05986954202
0.05987242161
0.05987441507
0.05987532756
0.05987433565
0.05987285335
0.05986971009
0.05986538696
0.05986258688
0.05986538699
0.05986971014
0.05987285336
0.05987433562
0.05987294986
0.05987079506
0.05986639006
0.05986066581
0.05985725633
0.05986066585
0.05986639012
0.05987079507
0.05987294983
0.05987116027
0.05986829578
0.05986265682
0.05985572918
0.05985190582
0.05985572923
0.0598626569
0.05986829581
0.05987116026
0.05986899266
0.05986544747
0.05985871465
0.05985086127
0.05984680138
0.05985086134
0.05985871475
0.05986544752
0.05986899266
0.0598665004
0.05986235724
0.05985474202
0.05984626009
0.05984210699
0.05984626016
0.05985474215
0.05986235731
0.05986650042
0.05986375398
0.05985913086
0.05985087647
0.05984204422
0.05983790646
0.05984204431
0.05985087662
0.05985913097
0.05986375403
0.05986083092
0.05985586245
0.0598472128
0.0598382699
0.05983422627
0.05983827
0.05984721298
0.05985586258
0.059860831
0.05985780771
0.05985262958
0.05984380859
0.05983494924
0.05983105492
0.05983494935
0.05984380879
0.05985262975
0.05985780783
0.05985475487
0.05984949269
0.05984069253
0.05983206613
0.05982835809
0.05983206626
0.05984069275
0.05984949289
0.05985475502
0.05985173625
0.05984649837
0.05983787419
0.05982958915
0.05982609024
0.05982958929
0.05983787444
0.0598464986
0.05985173644
0.05984881891
0.05984369138
0.05983535813
0.05982748468
0.05982420565
0.05982748483
0.05983535839
0.05984369165
0.05984881914
0.05984612128
0.0598411596
0.05983318154
0.05982574469
0.05982268104
0.05982574484
0.05983318181
0.05984115989
0.05984612154
0.05984401949
0.05983922058
0.05983156371
0.05982449519
0.05982160543
0.05982449535
0.059831564
0.0598392209
0.05984401978
)
;
    }
    inlet
    {
        type            calculated;
        value           nonuniform 0();
    }
    outlet
    {
        type            calculated;
        value           nonuniform List<scalar> 
81
(
0.05984401902
0.05983922006
0.05983156309
0.05982449447
0.05982160467
0.05982449464
0.05983156339
0.05983922042
0.0598440194
0.05983922006
0.05983324236
0.05982363836
0.05981469433
0.05981101212
0.05981469453
0.05982363873
0.05983324278
0.0598392205
0.05983156312
0.05982363838
0.05981079947
0.05979871507
0.05979369628
0.05979871532
0.0598107999
0.0598236389
0.05983156364
0.05982449451
0.05981469436
0.05979871512
0.05978354928
0.05977720316
0.05978354947
0.05979871559
0.05981469495
0.05982449511
0.05982160472
0.05981101219
0.05979369636
0.05977720323
0.05977025671
0.05977720348
0.05979369684
0.05981101279
0.05982160536
0.0598244947
0.05981469462
0.05979871542
0.05978354962
0.05977720359
0.05978354991
0.05979871589
0.05981469516
0.05982449529
0.05983156346
0.0598236388
0.0598108
0.0597987157
0.05979369696
0.05979871594
0.05981080038
0.05982363925
0.05983156393
0.0598392205
0.05983324286
0.05982363898
0.05981469504
0.05981101287
0.05981469522
0.05982363928
0.05983324323
0.05983922087
0.05984401949
0.05983922058
0.05983156371
0.05982449519
0.05982160543
0.05982449535
0.059831564
0.0598392209
0.05984401978
)
;
    }
    procBoundary1to0
    {
        type            processor;
        value           nonuniform List<scalar> 
97
(
0.05987597292
0.05987597292
0.05987548147
0.05987439349
0.05987278309
0.05987159555
0.05987278311
0.05987439352
0.0598754815
0.05987597295
0.05987611984
0.0598743709
0.0598743709
0.0598743709
0.05987154483
0.0598663639
0.05986105874
0.05986636404
0.05987154499
0.05987437099
0.0598754815
0.05987562066
0.05987435443
0.05986295204
0.05986295204
0.05986295204
0.05984245039
0.05981059956
0.05984245144
0.05986295298
0.05987154498
0.05987439352
0.05987489959
0.05987215276
0.05986269593
0.05976191072
0.05976191072
0.05976191072
0.05954037251
0.05976191925
0.05984245135
0.05986636405
0.05987278311
0.0598743932
0.05987011334
0.05985241565
0.05978374394
0.0577437791
0.0577437791
0.0577437791
0.05954037124
0.05954037124
0.05981059956
0.05986105881
0.05987159558
0.05987489957
0.05987215279
0.05986269618
0.05983569981
0.05978374375
0.0598356996
0.05984244914
0.05984244914
0.05984244914
0.0598663638
0.05987278308
0.05987562065
0.05987435443
0.0598706961
0.05986269616
0.05985241556
0.05986269622
0.05987069608
0.05987154477
0.05987154477
0.05987154477
0.05987439347
0.05987611985
0.05987561313
0.05987435443
0.05987215279
0.05987011333
0.0598721528
0.05987435445
0.05987561312
0.05987548143
0.05987548143
0.05987548143
0.05987634835
0.05987611984
0.05987562065
0.05987489958
0.05987439319
0.05987489958
0.05987562065
0.05987611984
0.05987634834
)
;
    }
}


// ************************************************************************* //
