/*--------------------------------*- C++ -*----------------------------------*\
| =========                 |                                                 |
| \\      /  F ield         | OpenFOAM: The Open Source CFD Toolbox           |
|  \\    /   O peration     | Version:  4.0                                   |
|   \\  /    A nd           | Web:      www.OpenFOAM.org                      |
|    \\/     M anipulation  |                                                 |
\*---------------------------------------------------------------------------*/
FoamFile
{
    version     2.0;
    format      ascii;
    class       surfaceScalarField;
    location    "-1.66363e-11";
    object      phi;
}
// * * * * * * * * * * * * * * * * * * * * * * * * * * * * * * * * * * * * * //

dimensions      [1 0 -1 0 0 0 0];

internalField   nonuniform List<scalar> 
55552
(
-6.76199e-08
3.34018e-07
4.10052e-06
-8.22139e-08
8.25221e-07
3.55793e-06
-4.15855e-07
8.06907e-07
3.89479e-06
-3.48136e-07
6.19935e-07
3.68015e-06
-2.73235e-07
4.46595e-07
3.84534e-06
-3.06849e-07
4.66519e-07
3.94142e-06
-2.47986e-07
3.03254e-07
4.00697e-06
-1.74457e-07
1.25783e-08
4.2728e-06
3.33981e-08
-1.20255e-08
4.1738e-06
-6.1052e-07
3.82245e-08
4.97655e-06
-9.95024e-07
-4.95e-08
4.80688e-06
-8.3711e-07
1.7235e-07
4.03646e-06
-4.03758e-07
6.60101e-08
3.87085e-06
1.93504e-07
1.50571e-07
3.62118e-06
6.2087e-07
-4.76742e-08
3.99102e-06
7.19633e-07
-1.30504e-07
4.39912e-06
1.38927e-06
1.21539e-07
3.57932e-06
1.97378e-06
-2.06878e-10
3.78568e-06
1.60218e-06
8.44641e-08
4.66323e-06
9.41071e-07
4.55559e-07
4.57833e-06
2.66145e-07
-2.26635e-07
5.27804e-06
-6.81905e-09
1.42871e-07
4.50189e-06
-9.65188e-08
-8.73253e-09
4.46779e-06
-1.18756e-07
-2.4607e-07
4.6394e-06
-1.86762e-07
-1.65649e-07
4.60317e-06
-6.51724e-07
-2.69968e-07
5.10338e-06
-6.94727e-07
-1.47969e-07
4.5523e-06
-5.9749e-07
3.2926e-08
4.23083e-06
-6.44093e-07
-3.72412e-08
4.44922e-06
-2.21566e-07
-5.29397e-08
3.98989e-06
2.47445e-07
-2.03942e-07
4.09568e-06
-4.32917e-07
5.04544e-06
4.75887e-07
-3.35866e-08
4.26158e-06
4.62249e-08
3.82863e-07
5.24196e-06
-6.55027e-07
3.38543e-07
5.54056e-06
-6.19519e-07
3.86228e-07
4.5683e-06
-1.64566e-07
6.77505e-07
3.68467e-06
-5.47066e-07
4.83551e-08
5.16898e-06
-5.97582e-07
9.39077e-08
4.6325e-06
-2.93146e-07
2.17668e-08
4.04555e-06
-1.13899e-07
-4.15203e-08
4.2109e-06
-5.69364e-07
6.12708e-07
4.25531e-06
-7.90124e-07
2.894e-07
4.25646e-06
-8.53318e-07
1.08407e-07
4.49449e-06
-4.58085e-07
5.73652e-08
3.98424e-06
4.32762e-08
-3.31492e-08
4.05253e-06
6.4716e-07
-8.72417e-08
3.80548e-06
9.09788e-07
-2.93257e-07
4.26753e-06
1.69789e-06
2.36564e-08
3.67815e-06
2.27108e-06
-1.15306e-07
3.90593e-06
1.84906e-06
-2.89018e-08
4.90927e-06
7.04438e-07
3.72326e-07
5.59947e-06
3.41404e-07
8.13868e-08
4.42289e-06
7.23823e-09
2.80387e-07
4.57105e-06
-1.75638e-07
2.93347e-07
4.25507e-06
-1.07171e-07
8.53192e-10
4.05504e-06
-3.27035e-07
3.84194e-08
4.38528e-06
-6.35867e-07
1.066e-07
4.30629e-06
-4.24749e-07
8.93862e-08
3.91677e-06
-4.74626e-07
3.56955e-07
4.09027e-06
-8.2515e-07
-2.22725e-07
4.90111e-06
-6.08269e-07
-3.24675e-07
4.42141e-06
-6.04704e-08
-1.93847e-07
3.80641e-06
-2.96592e-07
4.17251e-06
8.38849e-07
-1.66362e-07
3.65542e-06
2.86004e-07
-7.92222e-08
5.3842e-06
-4.77878e-07
-1.20616e-07
5.59261e-06
-4.16479e-07
2.82398e-08
4.66756e-06
-6.69782e-07
1.77938e-07
5.12257e-06
-6.02297e-07
-3.51426e-08
4.38537e-06
-5.7365e-07
-3.32161e-07
4.76159e-06
-2.02153e-07
-4.13714e-08
4.05901e-06
3.90149e-07
1.12498e-07
3.61965e-06
-5.53856e-07
4.41883e-07
5.48571e-06
-1.026e-06
1.36859e-07
4.99628e-06
-9.41307e-07
1.52179e-07
4.23898e-06
-5.32818e-07
2.46121e-07
3.77192e-06
-2.70166e-08
2.63956e-08
3.80119e-06
4.63846e-07
4.4128e-08
3.74483e-06
1.01259e-06
2.08698e-07
3.3186e-06
1.36425e-06
-1.62453e-07
4.19851e-06
2.01846e-06
3.70895e-08
3.56523e-06
2.10777e-06
2.36813e-08
4.22768e-06
9.80821e-07
2.02311e-07
5.66745e-06
4.34748e-07
2.91784e-07
4.70596e-06
-1.66483e-07
-4.22503e-08
5.29244e-06
-5.89406e-07
1.63081e-07
4.92077e-06
-2.00082e-07
3.30435e-07
3.65377e-06
-2.74929e-07
2.35363e-07
4.24669e-06
-6.87783e-07
4.56655e-08
4.84006e-06
-7.2121e-07
2.34821e-07
4.25958e-06
-8.60664e-07
7.93614e-07
4.0681e-06
-7.49474e-07
8.72274e-08
3.94236e-06
-3.2136e-07
6.12031e-08
3.53968e-06
-6.58515e-08
-3.54112e-08
3.94549e-06
8.51607e-08
3.92254e-06
7.92312e-07
3.4103e-06
2.20757e-07
4.86096e-06
-3.62007e-07
4.83233e-06
-3.86067e-07
4.42134e-06
-7.97513e-07
4.95815e-06
-7.72709e-07
4.30376e-06
-2.57498e-07
3.51553e-06
8.65842e-08
3.97651e-06
3.56667e-07
4.20227e-06
-6.02488e-07
5.77344e-06
-7.72439e-07
4.67393e-06
-8.06197e-07
4.55411e-06
-6.70651e-07
4.47964e-06
2.78432e-08
3.69659e-06
5.74324e-07
3.86678e-06
5.62177e-07
4.58896e-06
9.78488e-07
3.79043e-06
1.97291e-06
3.41574e-06
2.026e-06
4.33922e-06
8.1829e-07
5.78202e-06
3.14365e-07
5.16577e-06
6.17761e-08
4.58027e-06
-1.6795e-07
4.76194e-06
-2.66428e-07
4.80379e-06
-3.7849e-07
4.71939e-06
-2.7713e-07
4.31257e-06
-2.85342e-07
4.61248e-06
-8.23161e-07
5.69834e-06
-8.66175e-07
4.50276e-06
-5.30904e-07
4.09003e-06
4.98597e-08
3.75003e-06
4.50151e-06
3.96791e-07
3.79056e-07
3.3245e-06
2.91128e-07
2.51881e-07
3.41313e-06
-4.56077e-08
3.79352e-07
3.85789e-06
-6.54406e-08
2.59538e-07
3.44349e-06
1.95009e-07
3.42662e-07
3.24313e-06
3.92823e-08
3.02949e-07
3.79579e-06
-2.63373e-07
1.88508e-07
4.1209e-06
-2.56349e-07
1.5584e-07
4.11125e-06
-3.73777e-07
3.89311e-07
3.90424e-06
-9.85983e-07
2.52621e-07
5.33294e-06
-1.15122e-06
1.78255e-07
4.79375e-06
-8.45918e-07
3.81935e-08
3.69127e-06
-3.52673e-07
-1.55812e-09
3.37817e-06
6.3036e-08
1.14896e-08
3.19295e-06
4.85172e-07
-1.49505e-07
3.71985e-06
1.13167e-06
1.97458e-07
3.55546e-06
1.07936e-06
-2.91692e-07
3.92198e-06
1.59278e-06
-5.68509e-08
3.3286e-06
1.65098e-06
-1.46561e-07
4.74869e-06
1.54142e-06
-1.08592e-07
4.79512e-06
5.0394e-07
-2.90169e-07
6.60222e-06
-7.6412e-07
-2.65891e-07
6.03249e-06
-1.54798e-06
-2.99681e-07
5.54985e-06
-1.29504e-06
-2.16326e-07
4.60368e-06
-7.90835e-07
-4.21114e-07
4.51693e-06
-1.01711e-06
-9.02505e-07
6.23078e-06
-1.23652e-06
-5.45624e-07
5.31608e-06
-1.00588e-06
-3.10967e-07
4.30833e-06
-9.00581e-07
-1.12322e-07
4.45668e-06
-2.0583e-07
-2.06573e-09
3.29846e-06
3.48935e-07
-3.78921e-08
3.5808e-06
1.05808e-07
5.2923e-06
5.69466e-07
-1.49432e-07
4.22282e-06
6.33204e-07
-1.98763e-07
5.62919e-06
-1.74508e-07
-2.71311e-07
6.99912e-06
-1.63033e-07
7.62548e-08
4.74018e-06
1.12735e-07
5.65315e-07
3.18637e-06
-2.3762e-07
1.26724e-07
5.69563e-06
-2.29136e-07
3.20132e-07
4.4925e-06
3.34729e-08
2.74349e-07
3.66463e-06
-3.53654e-07
1.92928e-07
4.79466e-06
-8.54378e-07
2.77946e-07
4.73065e-06
-1.07659e-06
4.96195e-07
4.16085e-06
-8.06804e-07
4.10311e-07
3.85252e-06
-3.3702e-07
7.02983e-08
3.4426e-06
-2.00885e-08
1.89868e-09
3.74507e-06
3.94154e-07
-8.48901e-08
3.32648e-06
8.04325e-07
2.94751e-07
3.76004e-06
1.17645e-06
8.75088e-08
2.92686e-06
1.73133e-06
6.49731e-08
3.22922e-06
1.94533e-06
5.78562e-08
4.4908e-06
1.23841e-06
-1.67288e-08
6.21455e-06
-8.26293e-10
-2.44572e-07
5.61663e-06
-8.67449e-07
-1.86121e-07
5.3577e-06
-1.60001e-06
-6.33632e-08
4.75133e-06
-1.35721e-06
2.13024e-07
3.38292e-06
-8.96864e-07
-4.31182e-08
3.54699e-06
-7.14762e-07
-2.38759e-07
3.46063e-06
-8.1817e-07
-2.58732e-07
3.73345e-06
-6.56091e-07
-1.3183e-08
3.63054e-06
-7.59261e-07
1.83199e-07
4.70898e-06
-3.03444e-07
-2.02744e-08
3.98373e-06
3.22232e-07
2.765e-08
3.11519e-06
1.66463e-07
4.4323e-06
8.9766e-07
-2.11816e-07
2.82191e-06
1.11574e-06
-2.4134e-07
5.20887e-06
4.06074e-07
-4.90358e-07
6.52144e-06
2.71305e-07
-7.67388e-09
4.88635e-06
9.71835e-08
3.4599e-07
5.51613e-06
-5.60255e-08
-4.00629e-08
4.7055e-06
-2.17676e-07
6.06243e-08
5.1829e-06
-1.0002e-07
1.81528e-07
4.03429e-06
-5.24561e-07
3.11383e-08
4.20609e-06
-1.15918e-06
2.39236e-07
6.15906e-06
-1.46712e-06
2.82269e-07
5.51805e-06
-1.12138e-06
3.5096e-07
3.95253e-06
-4.24518e-07
2.46744e-07
2.89854e-06
6.49049e-08
1.29179e-07
3.1844e-06
4.26664e-07
-1.60714e-08
3.31407e-06
8.08104e-07
6.32576e-08
3.16839e-06
1.23409e-06
2.52702e-07
3.6073e-06
1.26565e-06
1.28732e-07
3.46994e-06
1.56038e-06
5.01359e-08
3.94067e-06
1.53016e-06
3.38354e-07
5.34252e-06
2.66101e-07
-3.98084e-07
6.12342e-06
-7.87355e-07
-3.34973e-07
6.49455e-06
-1.15968e-06
4.06691e-07
4.823e-06
-1.56861e-06
-1.90867e-08
4.29474e-06
-1.35125e-06
-5.73123e-08
4.04373e-06
-9.51438e-07
-3.06343e-08
4.23233e-06
-8.78487e-07
-5.77436e-08
3.98559e-06
-7.19507e-07
3.07638e-07
3.58818e-06
-7.57505e-07
6.67938e-07
3.49596e-06
-1.12077e-07
1.88752e-07
2.68533e-06
4.12846e-07
1.52751e-07
3.29544e-06
3.8668e-07
4.11466e-06
7.72423e-07
2.42967e-06
9.13573e-07
4.47966e-06
4.30497e-07
4.82607e-06
3.04821e-07
4.53959e-06
-1.72844e-08
5.62744e-06
-5.7886e-08
4.30765e-06
-6.05997e-08
3.58216e-06
-2.11182e-07
4.31126e-06
-6.68958e-07
4.68861e-06
-1.13392e-06
6.47527e-06
-1.44927e-06
5.26928e-06
-1.32619e-06
4.77529e-06
-6.68134e-07
4.06418e-06
-8.82999e-08
3.24484e-06
7.09515e-07
3.05255e-06
1.23198e-06
4.12917e-06
1.31798e-06
3.9568e-06
1.3534e-06
3.50999e-06
1.73777e-06
4.00059e-06
1.12448e-06
6.73445e-06
4.02397e-07
5.48916e-06
-1.9917e-07
4.8493e-06
-1.67641e-06
6.64441e-06
-1.95371e-06
5.05548e-06
-1.27789e-06
3.9871e-06
-7.77087e-07
3.78255e-06
-4.45876e-07
4.22377e-06
-3.25167e-07
5.88459e-06
-8.92907e-07
5.7378e-06
-2.64662e-07
3.65152e-06
4.62781e-07
3.17693e-06
5.35505e-06
4.60097e-07
-1.65303e-07
3.0313e-06
3.52717e-07
-1.21302e-06
4.7322e-06
4.66814e-07
-7.6016e-07
4.50487e-06
4.56171e-07
-7.73635e-07
4.22815e-06
5.20693e-07
-2.36302e-07
3.41605e-06
3.1075e-07
3.8195e-08
3.96805e-06
3.05556e-07
-1.35964e-07
4.26188e-06
1.04741e-07
2.95758e-07
4.01679e-06
-8.26597e-07
-2.00985e-07
5.03733e-06
-6.01433e-07
5.50896e-07
4.55945e-06
-4.42917e-07
3.68332e-07
4.26766e-06
-5.14657e-07
-2.22576e-08
3.78884e-06
-3.35e-08
1.36317e-07
2.7629e-06
4.32659e-08
-3.56964e-08
3.15255e-06
2.68813e-07
1.95643e-07
3.30144e-06
1.14409e-06
1.22694e-07
2.55686e-06
1.14357e-06
-1.16862e-07
4.04142e-06
1.39884e-06
1.77583e-07
2.89421e-06
1.28837e-06
2.12003e-07
4.6494e-06
6.60922e-07
8.51109e-08
5.33804e-06
-8.48333e-09
-1.11281e-07
7.38537e-06
-1.18423e-06
-4.4944e-07
7.65942e-06
-1.95042e-06
-3.93576e-08
6.35723e-06
-2.42162e-06
-1.64415e-07
5.24089e-06
-2.39658e-06
1.14631e-07
4.37797e-06
-1.95585e-06
-1.59911e-07
5.95122e-06
-1.56273e-06
-4.82356e-07
5.40671e-06
-1.15836e-06
-3.42479e-07
4.24544e-06
-6.45741e-07
-3.41888e-07
4.28471e-06
-2.21505e-07
6.66982e-08
2.80676e-06
3.04876e-07
3.01544e-07
2.75364e-06
3.982e-07
5.19804e-06
1.99942e-07
-1.56355e-07
4.01572e-06
1.18949e-06
-9.73671e-07
4.40103e-06
1.09029e-06
-1.35997e-06
7.69832e-06
7.94896e-07
-5.29858e-07
4.7919e-06
6.09068e-07
-2.982e-07
3.43431e-06
4.61789e-07
9.03794e-07
4.97747e-06
3.23696e-07
3.44747e-08
4.46028e-06
-4.10314e-07
4.2635e-07
4.26803e-06
-8.74641e-07
2.67002e-09
5.05592e-06
-5.14967e-07
5.42929e-07
4.37926e-06
-6.56135e-07
3.04039e-07
4.36662e-06
-4.56226e-07
9.0826e-08
3.53968e-06
1.12475e-07
3.28315e-07
2.68197e-06
2.33869e-07
-2.57842e-08
3.61373e-06
3.29487e-07
2.40095e-07
3.18631e-06
7.09314e-07
1.28852e-07
3.37404e-06
7.24102e-07
-1.5389e-07
2.9491e-06
8.33987e-07
1.06267e-07
3.19052e-06
7.89448e-07
1.95519e-07
4.55186e-06
4.18742e-07
-4.1849e-08
6.71254e-06
-3.30979e-07
-3.61946e-07
6.61722e-06
-1.23435e-06
-8.42812e-07
6.65443e-06
-1.67062e-06
-7.63663e-08
5.22439e-06
-1.62707e-06
-1.75155e-07
3.35007e-06
-1.57065e-06
-1.26045e-07
3.73132e-06
-1.29408e-06
-1.64614e-07
3.18885e-06
-1.19638e-06
-5.63102e-07
3.71677e-06
-9.94659e-07
-3.65366e-07
3.45159e-06
-3.89581e-07
-2.03792e-07
3.96584e-06
2.16101e-07
3.22858e-07
3.12198e-06
4.5372e-07
2.77902e-07
2.90123e-06
3.77324e-07
4.90858e-06
-1.57775e-08
6.1362e-08
2.62384e-06
9.01343e-07
-4.3687e-07
3.75528e-06
1.44865e-06
-5.54547e-07
5.16884e-06
1.15554e-06
-1.12724e-07
4.76247e-06
1.06674e-06
3.05808e-07
5.00091e-06
4.30052e-07
1.03296e-06
5.21329e-06
3.65994e-07
5.77112e-07
4.70467e-06
-3.74169e-07
4.59889e-07
4.74109e-06
-1.03942e-06
1.23009e-07
4.75099e-06
-6.71316e-07
3.78323e-07
5.95624e-06
-5.99264e-07
2.40824e-07
5.50924e-06
-2.16291e-07
1.53981e-08
3.64505e-06
-2.19654e-08
1.15065e-07
2.91744e-06
2.86853e-07
-5.89208e-08
2.90868e-06
4.02768e-07
1.0379e-07
3.33414e-06
5.63399e-07
-1.21846e-07
3.25818e-06
1.0618e-06
-2.91856e-08
2.98431e-06
1.20148e-06
-9.52965e-08
3.53194e-06
4.46572e-07
1.23325e-07
4.76788e-06
-8.53169e-08
-9.53547e-08
5.92808e-06
-3.49787e-07
-1.74242e-07
6.20041e-06
-6.82249e-07
-1.69597e-07
6.15402e-06
-1.84629e-06
7.00712e-08
5.84043e-06
-2.38469e-06
-3.70991e-07
5.02878e-06
-1.94646e-06
-7.52385e-08
3.55466e-06
-1.57774e-06
-1.53494e-07
3.85263e-06
-9.72817e-07
-3.99104e-07
3.21696e-06
-4.69719e-07
-4.96922e-07
3.21607e-06
3.43362e-08
-1.17176e-07
2.90486e-06
-7.26983e-09
9.99112e-08
2.94984e-06
3.0737e-07
4.22612e-07
2.83593e-06
4.46683e-07
4.35909e-06
-2.93783e-07
2.78812e-06
7.15309e-07
3.03435e-06
1.40979e-06
3.57583e-06
1.74038e-06
4.09608e-06
1.53099e-06
6.14274e-06
3.81073e-07
6.49277e-06
-8.60442e-08
4.62773e-06
-3.50383e-07
5.03506e-06
-6.50772e-07
5.11196e-06
-7.27524e-07
6.92974e-06
-8.6796e-07
5.65106e-06
-4.07952e-07
4.32997e-06
-1.51723e-07
3.92313e-06
1.94844e-07
2.83935e-06
2.44458e-07
3.10509e-06
7.81609e-07
3.47115e-06
1.23539e-06
3.47175e-06
1.34823e-06
3.30497e-06
6.22365e-07
4.85389e-06
1.48084e-07
7.11765e-06
-3.04149e-07
5.76902e-06
-1.39003e-06
5.76684e-06
-2.58038e-06
7.90569e-06
-2.02572e-06
4.13146e-06
-1.46737e-06
3.35524e-06
-1.51486e-06
3.67807e-06
-1.12486e-06
3.43674e-06
-1.53464e-08
4.28196e-06
8.48639e-07
4.75942e-06
6.09006e-07
3.991e-06
2.75287e-07
3.93322e-06
6.08284e-06
-5.49161e-08
1.92627e-07
2.89839e-06
-3.95845e-07
-3.48819e-07
5.42115e-06
-1.5738e-07
-3.11509e-07
4.57847e-06
1.66946e-07
-1.95699e-07
4.09968e-06
3.71534e-07
-6.93424e-08
3.27959e-06
3.93657e-07
-2.4711e-07
4.19108e-06
2.37177e-07
-3.3343e-07
4.74919e-06
1.72809e-07
-9.95067e-08
4.17808e-06
1.35719e-07
-6.21683e-07
5.69354e-06
6.04413e-07
3.43722e-08
4.05486e-06
9.57581e-07
-5.62401e-08
3.97217e-06
8.8112e-07
-6.0641e-08
3.92577e-06
8.05442e-07
-2.25446e-08
2.86175e-06
6.57787e-07
-3.43166e-07
3.64126e-06
5.31579e-07
-8.96306e-08
3.51357e-06
4.00494e-07
-2.56163e-07
2.94154e-06
6.52026e-07
1.5648e-07
3.63308e-06
1.06033e-06
1.62447e-07
2.32545e-06
1.07342e-06
5.94052e-07
4.04586e-06
-3.92883e-07
3.41314e-07
6.4656e-06
-1.37398e-06
-2.10894e-07
8.5783e-06
-1.38824e-06
-3.75956e-07
8.0507e-06
-1.49377e-06
3.3473e-07
6.13025e-06
-2.24603e-06
-1.8943e-07
6.18285e-06
-2.26228e-06
4.10797e-07
3.9853e-06
-1.71887e-06
5.55105e-07
4.85833e-06
-9.20833e-07
4.97773e-07
4.11492e-06
-4.28283e-07
2.10877e-07
3.54374e-06
1.72646e-07
2.18894e-09
3.68106e-06
4.78129e-07
2.0345e-07
2.29876e-06
4.9618e-07
-1.54698e-08
2.75074e-06
-3.20414e-07
6.01378e-06
-3.20047e-07
3.11491e-07
4.21812e-06
-3.1125e-07
2.7111e-08
4.01623e-06
-5.71204e-08
-1.29638e-07
7.26235e-06
1.59952e-07
1.06407e-07
4.27279e-06
2.06629e-07
7.68525e-08
3.24145e-06
4.49064e-07
4.23003e-07
4.06511e-06
3.71895e-07
2.29342e-08
4.18109e-06
2.80044e-07
2.63236e-07
3.99671e-06
5.17164e-07
-1.1673e-08
4.20877e-06
8.85912e-07
1.47652e-07
3.89749e-06
1.0482e-06
1.07995e-07
4.04017e-06
7.76528e-07
1.05681e-08
3.74013e-06
6.91565e-07
4.30116e-08
2.70094e-06
8.15337e-07
5.09351e-09
3.14163e-06
7.32893e-07
1.39186e-07
3.03984e-06
8.13657e-07
-8.71161e-08
3.12401e-06
8.67304e-07
4.76998e-08
3.00461e-06
1.19167e-06
1.01953e-07
2.92682e-06
5.46067e-07
3.37189e-07
5.45435e-06
-1.32314e-06
-1.43392e-07
9.06675e-06
-1.65565e-06
-2.4359e-07
6.98283e-06
-9.8365e-07
-5.11818e-08
5.65795e-06
-9.12407e-07
-2.95965e-08
5.51742e-06
-1.50733e-06
-3.89305e-07
4.14479e-06
-1.7849e-06
2.4051e-07
4.17908e-06
-1.55263e-06
2.73846e-07
3.23742e-06
-1.26065e-06
2.63916e-07
3.65913e-06
-8.10483e-07
-9.2203e-09
3.22162e-06
1.369e-07
2.66278e-07
2.75439e-06
4.9208e-07
3.98965e-07
2.57138e-06
3.79159e-07
5.16677e-08
2.94701e-06
-2.19757e-07
5.19328e-06
-3.38472e-07
2.1722e-07
3.05781e-06
-3.46937e-07
3.26423e-08
3.75828e-06
6.1131e-09
1.92091e-07
4.49414e-06
2.27386e-07
2.46969e-07
4.4007e-06
3.19376e-07
1.91511e-07
4.79435e-06
3.20961e-07
1.1014e-06
4.53354e-06
2.70937e-07
5.75906e-07
4.20195e-06
2.03803e-07
5.34472e-07
4.53718e-06
4.50153e-07
5.08286e-07
3.98505e-06
8.47775e-07
1.2606e-07
5.58013e-06
1.24929e-06
4.16216e-07
4.79972e-06
1.23547e-06
6.97877e-08
3.59965e-06
9.38592e-07
-8.16808e-08
3.33887e-06
7.97505e-07
1.71192e-07
2.88351e-06
5.98619e-07
3.48805e-07
3.32266e-06
6.57687e-07
1.03437e-07
3.00755e-06
8.07237e-07
1.11122e-08
2.87228e-06
1.32463e-06
1.39843e-07
2.97709e-06
3.46008e-07
2.54755e-07
5.8291e-06
-1.49423e-06
-3.252e-07
7.95031e-06
-1.31584e-06
2.46346e-07
5.53241e-06
-1.09263e-06
3.62584e-07
5.51722e-06
-1.38605e-06
-1.42647e-07
6.2468e-06
-1.38548e-06
-2.17348e-07
4.85634e-06
-1.56614e-06
2.3887e-07
3.73691e-06
-1.29747e-06
3.39735e-07
3.51813e-06
-7.34154e-07
7.61273e-08
2.84175e-06
-2.4545e-07
-3.20281e-07
3.03833e-06
2.5466e-07
-3.63183e-07
3.03402e-06
8.84126e-08
-2.23035e-07
3.73799e-06
-1.00818e-07
-1.09393e-07
3.18626e-06
-2.91135e-07
4.34212e-06
-3.42771e-07
3.35549e-06
-1.58779e-07
2.8846e-06
-3.09121e-08
3.63934e-06
3.27726e-07
3.98428e-06
9.8158e-07
5.68041e-06
6.32361e-07
7.94269e-06
2.55292e-08
5.8091e-06
-3.38719e-08
5.62825e-06
-3.33358e-08
5.6186e-06
5.35415e-07
6.48704e-06
9.26634e-07
5.67648e-06
1.17007e-06
4.15458e-06
1.18916e-06
3.82038e-06
8.49552e-07
3.35117e-06
5.40967e-07
3.76333e-06
6.38165e-07
3.47513e-06
8.81632e-07
3.23859e-06
1.18755e-06
3.13835e-06
3.5717e-07
5.94125e-06
-9.46657e-07
8.09561e-06
-1.34417e-06
6.41016e-06
-1.76554e-06
6.54949e-06
-1.3084e-06
7.30518e-06
-8.32234e-07
3.43716e-06
-1.47309e-06
4.23322e-06
-1.60051e-06
4.14474e-06
-1.1882e-06
3.1005e-06
-4.67445e-07
3.24229e-06
7.27563e-07
3.20514e-06
7.48058e-07
3.75065e-06
1.04262e-07
4.47074e-06
5.90269e-06
-2.17065e-08
3.12647e-07
2.61387e-06
6.1357e-10
3.08825e-07
5.09487e-06
5.84644e-08
7.99858e-08
4.44046e-06
2.48436e-07
2.10364e-07
3.70028e-06
2.83856e-07
4.79695e-08
3.19707e-06
-4.29082e-08
-4.16802e-07
4.93238e-06
-6.39234e-07
-5.31528e-07
5.87597e-06
-7.22181e-07
-3.61399e-07
4.62042e-06
4.91794e-07
2.16695e-07
4.26273e-06
1.03126e-06
-4.50945e-07
3.96483e-06
1.02817e-06
-4.7719e-07
4.45291e-06
1.32061e-06
-1.69402e-07
3.8031e-06
8.65885e-07
-2.14127e-07
3.53076e-06
7.18405e-07
-8.22256e-08
3.86799e-06
5.0895e-07
2.66138e-08
3.69195e-06
2.82085e-07
-4.6509e-08
3.21203e-06
1.31054e-07
-5.05379e-08
3.83696e-06
-2.4866e-07
1.90681e-09
2.70491e-06
-1.40186e-07
2.92766e-07
3.64506e-06
-5.33387e-07
5.04559e-07
6.35557e-06
-1.01391e-06
5.34262e-07
8.52666e-06
-1.33079e-06
1.79036e-07
8.19085e-06
-1.4235e-06
-1.75899e-07
6.40034e-06
-1.23533e-06
5.22387e-07
5.47472e-06
-1.25916e-06
1.59331e-07
3.85193e-06
-1.06676e-06
1.78106e-07
4.4879e-06
-8.60077e-07
8.63453e-08
3.82257e-06
-6.28052e-07
8.0734e-08
3.23109e-06
6.77441e-08
1.99525e-07
2.7862e-06
2.10128e-07
2.50217e-09
2.15315e-06
-1.95227e-08
-3.13024e-07
3.29241e-06
-1.95164e-07
6.19806e-06
-1.68162e-07
3.77247e-07
4.3226e-06
-1.59121e-07
4.68039e-07
3.84795e-06
3.07163e-07
7.79489e-07
6.09659e-06
1.1541e-07
1.87546e-07
4.48739e-06
-1.95771e-07
-1.88682e-07
3.7894e-06
-2.26988e-08
-2.15866e-07
3.69125e-06
7.78802e-09
-1.50981e-10
3.6194e-06
-1.12323e-07
-3.02239e-07
4.0574e-06
3.03844e-07
1.98951e-07
3.81039e-06
8.07037e-07
-7.65492e-07
3.70921e-06
1.23128e-06
-4.69754e-07
3.60877e-06
1.32857e-06
-2.5619e-07
3.72925e-06
7.89136e-07
-3.49929e-07
3.3759e-06
5.55452e-07
5.6122e-08
3.23716e-06
2.1114e-07
-1.24902e-07
3.53599e-06
5.50882e-08
-5.02045e-08
3.2841e-06
7.29276e-08
-6.60252e-09
2.94303e-06
-5.18372e-08
1.17663e-08
3.0418e-06
2.86347e-07
2.78033e-07
5.13072e-06
-4.75999e-07
1.31447e-07
1.02028e-05
-1.2136e-06
2.12275e-07
8.04284e-06
-1.34137e-06
-4.32686e-08
6.0084e-06
-1.10669e-06
-1.19728e-10
5.10712e-06
-1.26366e-06
4.69235e-07
4.35486e-06
-1.24184e-06
5.90192e-07
3.72663e-06
-1.09284e-06
1.16222e-07
3.15015e-06
-9.06852e-07
2.94399e-07
3.265e-06
-5.56771e-07
3.66302e-08
2.91586e-06
-7.80502e-08
2.88246e-07
2.18684e-06
-3.41563e-08
-2.63058e-07
2.79284e-06
-1.34929e-08
-2.67092e-07
2.88013e-06
-2.14083e-07
5.20323e-06
9.97328e-08
1.01326e-07
3.23531e-06
6.97901e-08
3.15637e-07
3.94065e-06
-1.80579e-07
5.25588e-07
4.99848e-06
-2.86105e-07
1.87073e-07
4.50672e-06
-6.69717e-09
-2.14647e-08
4.34794e-06
6.97665e-08
-6.04832e-07
4.84595e-06
-2.38083e-07
-1.16487e-07
4.62606e-06
-3.17725e-07
-3.5717e-07
4.67159e-06
-2.83029e-07
8.61802e-08
4.06334e-06
6.42243e-07
-3.55448e-07
4.24514e-06
1.21161e-06
-2.56222e-07
4.01735e-06
1.30713e-06
-1.17557e-07
3.36522e-06
9.65421e-07
-2.17079e-07
3.54734e-06
5.49869e-07
1.08283e-07
3.24673e-06
3.4707e-07
-7.62845e-08
3.47686e-06
5.46891e-08
-1.64256e-08
3.26623e-06
1.35201e-08
1.24989e-07
2.78247e-06
8.52998e-08
1.27463e-07
2.78972e-06
-4.84021e-08
2.15473e-08
6.2194e-06
-8.14643e-07
-2.46718e-07
9.095e-06
-1.39462e-06
1.06512e-07
6.21836e-06
-1.37663e-06
2.43242e-07
5.21269e-06
-8.06084e-07
2.29121e-07
5.44735e-06
-9.51939e-07
5.45565e-07
4.92583e-06
-1.23003e-06
5.80688e-07
4.02468e-06
-9.33747e-07
1.66878e-07
3.17129e-06
-8.19393e-07
1.94334e-07
2.82753e-06
-5.69475e-07
4.83792e-09
2.82037e-06
-3.22711e-07
1.3624e-07
2.93913e-06
3.30669e-08
-4.432e-07
3.56228e-06
1.99017e-07
-3.87842e-07
3.14102e-06
-7.4668e-07
5.08008e-06
3.34599e-07
3.12228e-06
1.13455e-07
3.42009e-06
-3.85203e-07
4.6581e-06
-7.63034e-07
4.54882e-06
-5.62952e-07
5.45924e-06
2.3873e-07
6.54302e-06
-2.65203e-07
6.20011e-06
-6.13524e-07
5.6231e-06
-6.58751e-07
5.75184e-06
5.84229e-07
4.89253e-06
1.40015e-06
4.60711e-06
1.2675e-06
4.17302e-06
1.32891e-06
3.54044e-06
8.39623e-07
3.94943e-06
5.12665e-07
4.01328e-06
3.48859e-07
3.62095e-06
1.59238e-07
3.55542e-06
-1.04288e-08
3.43252e-06
-1.06453e-07
6.05841e-06
-4.59387e-07
8.20164e-06
-1.11505e-06
7.17217e-06
-1.28144e-06
6.95893e-06
-5.86288e-07
6.83936e-06
-1.17302e-06
4.56854e-06
-1.75486e-06
5.39575e-06
-1.31074e-06
3.86903e-06
-9.98663e-07
2.98329e-06
-6.7021e-07
2.91855e-06
-4.92536e-07
3.16461e-06
-8.87341e-08
2.9061e-06
-4.01763e-08
4.038e-06
5.12054e-06
1.55628e-08
1.20651e-07
2.48097e-06
5.25734e-07
4.22093e-07
4.16469e-06
7.8784e-07
3.53474e-07
3.82402e-06
6.07418e-08
3.22314e-07
4.10419e-06
-3.22295e-07
2.79294e-07
3.30144e-06
-4.18802e-07
1.86022e-07
4.84363e-06
-6.892e-08
3.67048e-07
5.16024e-06
6.57579e-08
-1.53465e-07
4.63905e-06
9.04657e-07
1.24386e-07
3.30089e-06
1.29691e-06
-2.80733e-07
3.85254e-06
1.12932e-06
-2.00023e-07
4.82089e-06
1.14891e-06
1.21664e-07
3.66109e-06
6.65946e-07
1.68998e-07
3.84275e-06
4.24017e-07
2.92399e-07
3.81786e-06
1.04689e-07
7.13388e-08
3.93537e-06
-1.04064e-07
1.86833e-07
3.23085e-06
-5.52119e-07
-1.07828e-07
4.39156e-06
-1.19944e-06
-1.31398e-07
3.48096e-06
-1.25119e-06
3.01238e-08
3.66884e-06
-9.86772e-07
3.3776e-07
5.75399e-06
-7.98152e-07
6.39001e-07
7.70002e-06
-1.16975e-06
7.23026e-07
7.84121e-06
-1.2427e-06
8.94685e-08
6.38606e-06
-8.19713e-07
3.35561e-07
4.71744e-06
-8.47894e-07
-7.01509e-08
3.95069e-06
-1.93073e-07
3.75432e-07
3.45932e-06
-2.33112e-07
-8.1152e-08
3.94574e-06
-3.33987e-07
4.7514e-08
3.28476e-06
-1.34337e-07
6.81402e-08
2.51854e-06
-2.57665e-07
-1.81914e-07
2.45789e-06
-1.66071e-07
-1.86805e-07
3.38713e-06
-1.91773e-07
6.23252e-06
3.36029e-07
3.76566e-07
3.73397e-06
7.04096e-07
5.30498e-07
3.37158e-06
1.25281e-06
7.46814e-07
5.15457e-06
1.55521e-07
-5.57489e-08
5.96283e-06
-2.94841e-07
2.41738e-08
4.49495e-06
-1.22325e-07
-4.11799e-07
4.11654e-06
-7.75962e-08
-3.32614e-07
4.27438e-06
8.96527e-08
-4.69502e-07
4.20668e-06
6.97169e-07
2.97049e-09
3.32425e-06
1.04061e-06
-4.18434e-07
3.50366e-06
1.18515e-06
-1.56508e-07
3.42057e-06
1.17434e-06
-7.82584e-08
3.93977e-06
6.82314e-07
-9.14933e-08
4.12877e-06
3.53705e-07
1.28406e-07
3.73003e-06
-3.54067e-08
-1.40695e-07
4.13763e-06
-4.69909e-07
-9.54309e-09
3.91554e-06
-8.02381e-07
-1.00786e-07
3.26839e-06
-1.39177e-06
1.54687e-08
3.48453e-06
-1.16737e-06
2.94756e-07
4.64193e-06
-1.77353e-07
1.17286e-06
8.37781e-06
-3.77438e-07
7.21397e-07
8.16068e-06
-1.18732e-06
3.94774e-07
7.14683e-06
-1.19001e-06
-1.63349e-08
5.21589e-06
-8.25228e-07
3.62262e-07
3.96348e-06
-5.91406e-07
9.79558e-08
3.3249e-06
-3.67745e-07
1.51638e-07
3.15068e-06
-1.67041e-07
3.38037e-08
2.94891e-06
-2.25242e-07
-1.81297e-09
3.02336e-06
-3.93279e-07
-1.27956e-07
2.55078e-06
-3.50297e-07
-2.28563e-07
2.79644e-06
-8.28133e-08
-2.37164e-07
2.66329e-06
-2.00121e-07
5.1378e-06
1.55761e-07
1.20141e-08
3.448e-06
6.26848e-07
3.6388e-07
3.63625e-06
8.79997e-07
4.74767e-07
5.01736e-06
-4.6116e-08
-4.93494e-07
5.87068e-06
-4.1238e-07
-2.33833e-07
4.97225e-06
-4.76073e-07
-9.38422e-07
5.43602e-06
-3.22407e-07
-9.64651e-07
5.1042e-06
-1.10394e-08
-6.08888e-07
4.49954e-06
3.40593e-07
-3.15352e-07
4.02971e-06
1.21375e-06
-2.15627e-07
3.16993e-06
1.21013e-06
-1.51731e-07
4.01629e-06
1.12905e-06
-4.21103e-08
3.40978e-06
8.71807e-07
-8.72617e-08
3.80025e-06
2.45688e-07
-4.50571e-08
4.04644e-06
2.69897e-08
-5.46492e-08
3.61016e-06
-3.31005e-07
-1.44276e-07
3.76048e-06
-6.72885e-07
-5.82797e-08
3.08087e-06
-1.33828e-06
-5.64885e-08
3.52668e-06
-9.36832e-07
3.80768e-07
5.73224e-06
-6.74622e-07
5.66882e-07
9.43925e-06
-1.07746e-06
6.93508e-08
7.27344e-06
-1.21813e-06
1.11356e-07
5.63692e-06
-1.03637e-06
-6.76477e-08
5.31715e-06
-8.72707e-07
2.53215e-07
4.87118e-06
-6.64849e-07
6.79052e-08
3.84707e-06
-3.72e-07
-1.1718e-08
3.04194e-06
-3.58085e-07
-4.81728e-08
2.89557e-06
-4.68613e-07
-1.06744e-08
2.93989e-06
-3.25476e-07
-3.22873e-09
2.67112e-06
-1.20049e-07
-7.32329e-08
3.20155e-06
2.78102e-07
-2.76585e-07
2.78234e-06
-4.92006e-07
5.65525e-06
3.56842e-07
2.78233e-06
2.68071e-07
3.87177e-06
2.26444e-07
5.17191e-06
-6.62513e-07
4.94672e-06
-1.18021e-06
5.74605e-06
-5.86499e-07
5.01689e-06
-4.51811e-08
4.69826e-06
1.56743e-07
4.81711e-06
5.18913e-07
5.07761e-06
1.27798e-06
3.92018e-06
1.33716e-06
4.39682e-06
1.19208e-06
4.27649e-06
8.03818e-07
3.84089e-06
2.88254e-07
4.41724e-06
2.12686e-08
4.22634e-06
-3.36126e-07
3.83551e-06
-7.11931e-07
3.87529e-06
-9.90933e-07
3.65259e-06
-9.99944e-07
6.44836e-06
-9.39005e-07
8.70817e-06
-1.15241e-06
7.45644e-06
-1.42908e-06
7.34793e-06
-1.06176e-06
6.40558e-06
-1.1668e-06
4.92732e-06
-1.03475e-06
5.33365e-06
-4.73856e-07
3.29942e-06
-2.78409e-07
2.74045e-06
-4.47365e-07
3.07634e-06
-4.467e-07
3.16093e-06
-3.03049e-07
2.68955e-06
2.41797e-08
3.43675e-06
4.66071e-06
-4.00543e-07
-2.11469e-07
3.09705e-06
1.35477e-07
1.67213e-07
3.46086e-06
9.37035e-07
-2.59502e-07
3.27723e-06
7.81665e-07
-3.05053e-07
4.56225e-06
2.25981e-07
-3.95178e-07
4.24843e-06
5.88995e-07
5.28186e-08
4.42625e-06
1.24081e-06
1.525e-08
4.49252e-06
1.2748e-06
-2.86608e-07
4.8919e-06
1.00424e-06
-3.19388e-07
3.89061e-06
9.01578e-07
-6.37618e-08
4.01884e-06
1.01756e-06
2.12581e-07
4.48962e-06
9.9803e-07
2.37487e-07
3.44355e-06
6.40736e-07
-5.68162e-09
4.20345e-06
3.24385e-07
7.90436e-09
4.12732e-06
-1.07837e-07
-1.32271e-07
4.49805e-06
-8.57969e-07
-2.21813e-07
4.19781e-06
-1.38441e-06
3.6757e-08
4.88322e-06
-1.81655e-06
-3.54229e-07
4.2673e-06
-1.77282e-06
-3.44887e-07
3.97098e-06
-9.61052e-07
-4.41224e-07
5.38428e-06
-7.239e-07
-8.37618e-08
7.54627e-06
-3.79053e-07
1.19085e-07
7.37661e-06
1.53152e-08
4.10111e-07
5.58506e-06
-5.04695e-08
-3.68372e-08
4.82063e-06
-2.31637e-07
1.14706e-07
4.01744e-06
-1.13489e-07
1.96104e-07
3.14736e-06
1.39106e-07
2.88103e-07
3.4075e-06
1.71716e-07
1.34649e-07
3.11864e-06
-2.48363e-07
-7.67142e-08
3.0172e-06
-6.54717e-07
-1.72192e-07
3.03702e-06
-5.13009e-07
-3.83091e-08
3.28169e-06
-1.18554e-07
5.8421e-06
-6.44114e-08
1.58001e-07
3.43427e-06
4.23976e-09
7.33072e-08
3.39681e-06
1.18352e-06
-2.83228e-08
3.74412e-06
1.24182e-06
-1.97855e-07
5.79735e-06
8.39869e-07
-3.83742e-07
4.88542e-06
9.68506e-07
-3.12492e-07
4.35336e-06
9.46846e-07
-5.39429e-07
4.85034e-06
9.18179e-07
-4.55928e-07
4.40492e-06
1.25868e-06
-4.04807e-07
3.06917e-06
1.16955e-06
-1.52584e-07
3.68149e-06
1.07396e-06
-1.15321e-07
3.84356e-06
9.84671e-07
-6.1496e-08
4.32775e-06
6.0791e-07
-1.41074e-07
4.64074e-06
9.54268e-08
-1.52732e-07
4.40276e-06
-3.3864e-07
-7.5929e-08
4.51483e-06
-6.24271e-07
1.01568e-07
3.87789e-06
-1.31518e-06
-1.44131e-07
4.14029e-06
-2.0653e-06
-3.57753e-07
4.23864e-06
-1.8532e-06
-3.728e-07
4.4583e-06
-4.70717e-07
2.29923e-07
6.32412e-06
-9.67373e-08
4.27199e-08
7.66017e-06
1.71725e-07
3.86212e-07
6.61118e-06
-1.11556e-08
-4.42639e-09
5.81364e-06
-2.46399e-08
-1.87683e-07
4.12831e-06
-3.70525e-08
-1.08935e-07
3.56093e-06
-1.26158e-07
6.94357e-08
3.36655e-06
-1.05821e-07
2.27688e-07
2.98877e-06
-1.50627e-07
6.01341e-08
3.14262e-06
-3.09813e-07
-7.4121e-08
2.70734e-06
-4.96338e-07
-1.07969e-07
2.91879e-06
-3.73719e-07
4.70153e-08
2.4557e-06
-1.42422e-07
4.79716e-06
-2.91196e-07
2.70993e-07
3.62722e-06
2.76561e-08
1.60604e-07
3.23012e-06
1.09985e-06
3.90146e-08
3.87778e-06
8.21702e-07
-3.88538e-07
6.33963e-06
3.2544e-07
-4.56747e-07
5.54161e-06
5.28851e-07
-2.11705e-07
5.13188e-06
6.85814e-07
-4.71732e-07
4.87947e-06
1.12464e-06
-5.96194e-08
3.66427e-06
1.39566e-06
-3.40947e-07
3.69473e-06
1.07553e-06
-2.75294e-07
3.61233e-06
1.07731e-06
-1.15671e-07
4.01386e-06
8.50262e-07
-1.7861e-07
3.75353e-06
5.69744e-07
-5.95981e-08
3.99935e-06
2.79022e-07
2.49041e-08
4.15914e-06
-1.24919e-07
1.09295e-07
3.82869e-06
-7.41555e-07
1.42636e-07
4.33639e-06
-1.78029e-06
-3.93406e-07
4.36832e-06
-2.47886e-06
-1.35652e-07
4.00322e-06
-1.65002e-06
-1.02331e-07
4.63336e-06
3.15118e-08
6.65945e-07
7.32206e-06
2.39527e-07
1.65694e-08
7.09175e-06
-3.40717e-07
-3.28032e-07
6.93192e-06
-1.8723e-07
-7.50596e-08
5.23444e-06
1.7733e-07
-2.72929e-07
4.59222e-06
4.95863e-08
-3.70473e-07
4.23618e-06
1.10726e-08
4.97882e-08
3.09998e-06
-1.63095e-07
1.78767e-08
3.2795e-06
-1.95652e-07
6.12109e-08
2.97129e-06
-4.76143e-07
-2.90013e-07
3.16722e-06
-4.10758e-07
1.76049e-07
2.852e-06
-3.96796e-07
2.6733e-08
2.78872e-06
-9.5376e-08
5.21804e-06
-4.55083e-07
3.51031e-06
-4.12744e-07
3.99016e-06
4.53461e-07
4.34499e-06
5.61407e-07
4.4528e-06
5.53832e-07
5.29771e-06