/*--------------------------------*- C++ -*----------------------------------*\
| =========                 |                                                 |
| \\      /  F ield         | OpenFOAM: The Open Source CFD Toolbox           |
|  \\    /   O peration     | Version:  4.0                                   |
|   \\  /    A nd           | Web:      www.OpenFOAM.org                      |
|    \\/     M anipulation  |                                                 |
\*---------------------------------------------------------------------------*/
FoamFile
{
    version     2.0;
    format      ascii;
    class       volScalarField;
    location    "-1.66363e-11";
    object      rho;
}
// * * * * * * * * * * * * * * * * * * * * * * * * * * * * * * * * * * * * * //

dimensions      [1 -3 0 0 0 0 0];

internalField   nonuniform List<scalar> 
20480
(
1.53792
1.51766
1.51753
1.51426
1.51064
1.51672
1.51592
1.5239
1.52463
1.54176
1.54958
1.54906
1.55345
1.56574
1.57704
1.57914
1.5829
1.57911
1.57918
1.57025
1.56513
1.55844
1.55102
1.54698
1.54539
1.54452
1.53449
1.53537
1.51432
1.52166
1.51425
1.52286
1.52729
1.51926
1.50697
1.50801
1.50143
1.5097
1.51862
1.52499
1.52412
1.52586
1.53459
1.55065
1.55431
1.55635
1.56524
1.56999
1.5786
1.58071
1.56943
1.57034
1.5598
1.55443
1.53209
1.53201
1.53584
1.53414
1.52747
1.52266
1.52337
1.5184
1.50808
1.53387
1.53112
1.52091
1.51102
1.50803
1.50383
1.50744
1.51595
1.51843
1.51592
1.53178
1.53992
1.54676
1.55627
1.55772
1.5654
1.57907
1.57468
1.57949
1.57549
1.57867
1.55738
1.55113
1.54797
1.52819
1.5324
1.5428
1.52037
1.51685
1.50451
1.51148
1.51628
1.51886
1.53896
1.52635
1.5148
1.50925
1.51993
1.52032
1.52554
1.53052
1.52693
1.5474
1.54859
1.55044
1.56814
1.56779
1.57692
1.5892
1.58241
1.57732
1.58051
1.57434
1.57374
1.56366
1.5606
1.55231
1.54691
1.54385
1.53184
1.53761
1.5189
1.51312
1.51861
1.53286
1.46121
1.4548
1.45232
1.45386
1.45247
1.45419
1.4531
1.45618
1.45354
1.46905
1.47096
1.46498
1.48692
1.51147
1.50089
1.5055
1.52672
1.53098
1.51964
1.49178
1.49337
1.4728
1.46319
1.46523
1.46321
1.46611
1.45931
1.45833
1.45545
1.4518
1.455
1.46252
1.45649
1.47712
1.46405
1.45989
1.45018
1.45898
1.45696
1.45439
1.45557
1.45692
1.45896
1.47148
1.47819
1.5075
1.51507
1.52953
1.55846
1.53444
1.51497
1.49083
1.47077
1.46428
1.45238
1.45411
1.45652
1.45778
1.45475
1.45519
1.46291
1.45862
1.44901
1.4591
1.46035
1.47975
1.47666
1.46295
1.46415
1.4555
1.45677
1.45538
1.45299
1.4685
1.46423
1.46358
1.46828
1.50344
1.50899
1.51011
1.54917
1.53289
1.49464
1.49915
1.47534
1.47027
1.46267
1.45088
1.45862
1.46617
1.45904
1.45322
1.45096
1.44924
1.45428
1.45313
1.46147
1.4786
1.46792
1.4621
1.46213
1.45631
1.45382
1.45625
1.45647
1.47863
1.46847
1.47298
1.48442
1.50776
1.50061
1.49951
1.53442
1.54023
1.50215
1.51539
1.50127
1.47631
1.46967
1.46547
1.4673
1.45878
1.46136
1.47515
1.45922
1.45058
1.45207
1.45804
1.44596
1.44943
1.45013
1.45055
1.44556
1.44967
1.4488
1.44844
1.44641
1.45478
1.45015
1.44728
1.45215
1.46224
1.47752
1.47316
1.51012
1.48537
1.46449
1.45178
1.46145
1.45346
1.44891
1.4459
1.44558
1.45201
1.44711
1.44564
1.44386
1.4409
1.44174
1.44474
1.44959
1.46613
1.46918
1.46126
1.44759
1.46019
1.45484
1.44966
1.4509
1.45002
1.44745
1.44764
1.4478
1.46481
1.4837
1.48991
1.53518
1.47676
1.45728
1.45276
1.45026
1.44879
1.44349
1.44133
1.44206
1.44125
1.44222
1.44159
1.44713
1.44372
1.43966
1.44205
1.44542
1.45688
1.46996
1.45763
1.45929
1.45928
1.45767
1.4523
1.4491
1.45508
1.45026
1.4462
1.44673
1.45669
1.48174
1.48545
1.5447
1.47782
1.45305
1.45035
1.45302
1.45206
1.44589
1.4427
1.44361
1.44471
1.44194
1.44174
1.44049
1.43979
1.44085
1.44242
1.44595
1.45528
1.45342
1.45227
1.46292
1.45102
1.44862
1.45155
1.45037
1.46011
1.4528
1.4532
1.45228
1.4641
1.47842
1.48271
1.53639
1.49551
1.45578
1.4662
1.45837
1.449
1.45379
1.44604
1.4446
1.44288
1.44416
1.45377
1.44842
1.44148
1.4408
1.44545
1.44248
1.44277
1.44551
1.44489
1.44462
1.44606
1.44566
1.44398
1.4441
1.44575
1.44558
1.44338
1.44232
1.44913
1.45829
1.46319
1.51092
1.45487
1.44921
1.44657
1.45172
1.44862
1.44509
1.44308
1.44057
1.44339
1.44069
1.43979
1.43979
1.43911
1.43977
1.44078
1.44385
1.44811
1.45869
1.44958
1.44587
1.45352
1.44949
1.44962
1.45024
1.44573
1.44342
1.44291
1.44237
1.44772
1.46635
1.48272
1.50391
1.45228
1.4497
1.4475
1.44494
1.445
1.44144
1.43887
1.43909
1.43847
1.43913
1.43915
1.44016
1.43919
1.43876
1.44076
1.44265
1.44522
1.45084
1.4488
1.45038
1.45089
1.44807
1.44671
1.44786
1.45175
1.44641
1.44305
1.44445
1.44525
1.46893
1.48458
1.50332
1.45375
1.44565
1.44778
1.44531
1.44619
1.44314
1.44003
1.44079
1.44016
1.43885
1.43969
1.43958
1.43966
1.44045
1.44049
1.44204
1.44544
1.44484
1.44393
1.45371
1.45152
1.44651
1.44799
1.4474
1.4582
1.44848
1.445
1.44428
1.44769
1.46243
1.48032
1.51185
1.45935
1.44861
1.45712
1.44738
1.44348
1.44923
1.43997
1.44032
1.4394
1.43943
1.44128
1.44089
1.43948
1.44009
1.44274
1.44144
1.44263
1.44254
1.44237
1.44252
1.4421
1.44384
1.44247
1.44332
1.44331
1.44317
1.44104
1.44077
1.44387
1.45395
1.46306
1.49485
1.44462
1.44227
1.44358
1.44705
1.4447
1.44155
1.44157
1.43856
1.4393
1.43797
1.438
1.43819
1.43837
1.44001
1.43976
1.44205
1.44264
1.44791
1.44251
1.44142
1.44367
1.44317
1.44302
1.44502
1.44528
1.44516
1.44288
1.44254
1.44251
1.45712
1.48348
1.4669
1.44372
1.44331
1.44432
1.44259
1.44117
1.44029
1.4393
1.43842
1.43816
1.43854
1.43828
1.439
1.43873
1.43915
1.43959
1.44315
1.44247
1.44423
1.44388
1.44313
1.44343
1.44349
1.44299
1.44382
1.44915
1.44562
1.44437
1.44248
1.44233
1.4592
1.5101
1.46631
1.44429
1.44206
1.44354
1.44165
1.44229
1.44151
1.4402
1.43967
1.43876
1.4394
1.44001
1.44048
1.44057
1.44036
1.43939
1.4432
1.44142
1.44357
1.4442
1.44475
1.44476
1.44323
1.44312
1.44522
1.4488
1.44497
1.44289
1.4419
1.44286
1.45493
1.48375
1.47461
1.44538
1.44349
1.44834
1.44374
1.44138
1.44381
1.43897
1.43893
1.43862
1.43862
1.43992
1.43996
1.44008
1.4414
1.44105
1.44225
1.44329
1.44148
1.44055
1.44096
1.44075
1.44152
1.44096
1.44153
1.44201
1.44202
1.44338
1.44048
1.44126
1.44985
1.46883
1.47302
1.44071
1.44164
1.44196
1.44449
1.44228
1.4403
1.4396
1.43741
1.4378
1.43807
1.43733
1.43751
1.43753
1.43833
1.43882
1.44159
1.44196
1.44377
1.44077
1.44031
1.44182
1.44273
1.44295
1.44315
1.44374
1.44375
1.44303
1.44186
1.44268
1.44884
1.50284
1.45033
1.44111
1.44234
1.44456
1.44175
1.44048
1.43935
1.43827
1.43836
1.43858
1.43857
1.43828
1.43835
1.43803
1.43752
1.43816
1.44237
1.44221
1.44163
1.44102
1.44159
1.44289
1.44363
1.44402
1.44368
1.44458
1.44764
1.44393
1.4418
1.44079
1.45118
1.50237
1.44977
1.44124
1.44165
1.44384
1.4406
1.44124
1.43989
1.43888
1.43897
1.4398
1.44028
1.44016
1.43908
1.43929
1.439
1.43811
1.4436
1.44279
1.44164
1.44147
1.44192
1.44293
1.44124
1.44208
1.44267
1.44336
1.44334
1.44173
1.44322
1.44231
1.44671
1.49327
1.45456
1.44084
1.44181
1.44567
1.44139
1.44002
1.44221
1.43866
1.4396
1.43987
1.43946
1.43999
1.43943
1.43919
1.43973
1.4397
1.44285
1.44242
1.44107
1.44091
1.44115
1.44059
1.44088
1.44095
1.44128
1.4414
1.44129
1.44086
1.4407
1.44072
1.44837
1.47585
1.45402
1.43989
1.44088
1.4409
1.4422
1.44107
1.44013
1.43801
1.43703
1.43732
1.43713
1.43675
1.43687
1.43715
1.43743
1.43828
1.44233
1.44123
1.44166
1.44073
1.44091
1.44167
1.44204
1.44403
1.44347
1.44315
1.44225
1.44182
1.4414
1.44165
1.45488
1.48467
1.44386
1.44111
1.44201
1.44241
1.44195
1.44062
1.43889
1.43786
1.43858
1.43811
1.43801
1.43714
1.43754
1.43834
1.43816
1.43791
1.4418
1.44076
1.44109
1.44058
1.44222
1.44224
1.44255
1.44419
1.44634
1.44549
1.44478
1.44253
1.44197
1.44124
1.45212
1.49203
1.44414
1.44069
1.44095
1.44298
1.44109
1.44066
1.4396
1.43891
1.43934
1.43966
1.43874
1.43797
1.43782
1.43824
1.43811
1.4394
1.44329
1.44112
1.44233
1.44169
1.44214
1.4418
1.44175
1.44271
1.44369
1.44312
1.44259
1.44174
1.44276
1.44172
1.45138
1.48544
1.44384
1.44074
1.44182
1.44393
1.44161
1.4402
1.44024
1.43859
1.43902
1.43923
1.43903
1.43851
1.4381
1.43751
1.43816
1.43843
1.44179
1.443
1.44188
1.44082
1.44064
1.44092
1.44112
1.44146
1.44117
1.44049
1.44089
1.44116
1.44083
1.44115
1.44847
1.49761
1.4547
1.44036
1.44075
1.43992
1.441
1.44036
1.43853
1.43742
1.43669
1.43756
1.43805
1.43783
1.43828
1.4382
1.43852
1.43901
1.44121
1.44279
1.44063
1.44063
1.44106
1.4422
1.44547
1.44361
1.4433
1.443
1.44126
1.44121
1.44046
1.44078
1.45154
1.486
1.43963
1.44175
1.44076
1.44119
1.44027
1.44023
1.43882
1.4378
1.43847
1.43793
1.43868
1.43847
1.4398
1.44021
1.43918
1.43888
1.43988
1.44057
1.44093
1.44162
1.44146
1.44447
1.44589
1.4461
1.44483
1.4436
1.44147
1.44089
1.4409
1.44149
1.45515
1.49522
1.44041
1.44071
1.44105
1.44265
1.4407
1.44007
1.43865
1.43897
1.44073
1.43931
1.43835
1.43859
1.4389
1.43949
1.43916
1.43844
1.44237
1.44157
1.44073
1.44103
1.44138
1.44163
1.4421
1.44232
1.44303
1.44369
1.44153
1.44192
1.44258
1.44173
1.45144
1.49364
1.44269
1.44027
1.44037
1.44249
1.4408
1.43994
1.43951
1.43877
1.43863
1.43921
1.43885
1.43873
1.43914
1.43914
1.43845
1.43822
1.44143
1.44176
1.4407
1.44087
1.44032
1.44112
1.44216
1.44312
1.4409
1.44195
1.44076
1.44033
1.44064
1.44076
1.44685
1.50292
1.45623
1.43911
1.44022
1.43974
1.44007
1.43919
1.43719
1.43703
1.43855
1.4388
1.43961
1.43882
1.43992
1.4382
1.43836
1.43786
1.44074
1.44113
1.44062
1.44076
1.44199
1.4426
1.44281
1.44283
1.44325
1.4428
1.44072
1.44064
1.44136
1.44141
1.44657
1.49116
1.44485
1.4403
1.44017
1.44015
1.44074
1.43928
1.43755
1.43747
1.43834
1.43934
1.4388
1.43873
1.43871
1.43858
1.43803
1.43805
1.44174
1.44082
1.44109
1.44156
1.44319
1.44243
1.44341
1.4446
1.44593
1.44209
1.44181
1.44031
1.44064
1.44093
1.4545
1.50021
1.44034
1.44059
1.44072
1.44173
1.44037
1.43945
1.43813
1.43903
1.43988
1.43881
1.4391
1.43856
1.43833
1.43877
1.43831
1.43809
1.44261
1.44169
1.44193
1.44176
1.44201
1.44345
1.44419
1.44555
1.44364
1.44328
1.44169
1.44201
1.44181
1.44225
1.44868
1.49123
1.45103
1.43983
1.44028
1.44141
1.44079
1.43919
1.4385
1.43874
1.43996
1.43922
1.4387
1.43907
1.43849
1.43826
1.43806
1.43868
1.44219
1.44177
1.43991
1.44007
1.44008
1.43986
1.44204
1.44219
1.44147
1.44211
1.44049
1.44068
1.44008
1.44054
1.44575
1.5053
1.46055
1.44103
1.44005
1.4398
1.43944
1.43896
1.43697
1.43842
1.43889
1.43973
1.43869
1.43896
1.43898
1.43904
1.43854
1.43994
1.44019
1.44039
1.43995
1.44144
1.44266
1.44327
1.44243
1.44226
1.44269
1.44247
1.44095
1.44137
1.44273
1.44126
1.44718
1.48706
1.44875
1.44028
1.43988
1.43965
1.44016
1.43852
1.43721
1.43819
1.43913
1.43877
1.43842
1.43834
1.43863
1.43794
1.43818
1.43803
1.44043
1.44118
1.44048
1.44115
1.44076
1.44592
1.44616
1.44444
1.44507
1.44266
1.44161
1.44337
1.44165
1.44038
1.44665
1.48976
1.44115
1.44052
1.44046
1.44064
1.44056
1.43927
1.43837
1.43856
1.43931
1.43877
1.43848
1.43889
1.43867
1.43875
1.43837
1.43839
1.4416
1.441
1.44221
1.44164
1.44179
1.44297
1.44426
1.44605
1.44447
1.44181
1.44261
1.44342
1.44418
1.44142
1.44863
1.4949
1.45025
1.43981
1.44035
1.44026
1.44039
1.43876
1.43851
1.43879
1.44025
1.43918
1.43852
1.43917
1.43843
1.43806
1.43827
1.4377
1.43974
1.43914
1.44059
1.44227
1.4429
1.44454
1.44165
1.44164
1.44169
1.44031
1.44014
1.43987
1.44028
1.43988
1.44364
1.49649
1.47749
1.43936
1.44004
1.43958
1.4389
1.43825
1.43898
1.43819
1.43848
1.43863
1.43917
1.43875
1.4381
1.43802
1.43796
1.43884
1.44076
1.4396
1.44189
1.44151
1.44453
1.44941
1.44053
1.44123
1.44109
1.44101
1.44057
1.44082
1.44201
1.44124
1.44252
1.50427
1.4579
1.44167
1.43969
1.43914
1.43927
1.43847
1.43823
1.43886
1.43847
1.43828
1.43836
1.43838
1.43856
1.43959
1.43894
1.43767
1.44096
1.44064
1.44013
1.44267
1.44376
1.44313
1.4464
1.44235
1.44427
1.44128
1.44156
1.4425
1.44529
1.43987
1.44378
1.49383
1.45205
1.44383
1.43945
1.44024
1.43959
1.43889
1.43777
1.43801
1.43862
1.43826
1.43854
1.43896
1.43903
1.439
1.43898
1.43833
1.4412
1.44031
1.4422
1.44313
1.4433
1.44741
1.4475
1.44544
1.44422
1.44153
1.44152
1.44107
1.44427
1.44261
1.44385
1.5043
1.47046
1.44709
1.43951
1.44044
1.43964
1.43945
1.43825
1.43854
1.43934
1.43916
1.43898
1.43876
1.43881
1.43862
1.43787
1.43793
1.44053
1.4418
1.44078
1.44321
1.44258
1.44373
1.44303
1.44153
1.44003
1.44003
1.43998
1.4404
1.43954
1.4399
1.44094
1.47662
1.5038
1.45135
1.44016
1.43921
1.43812
1.43875
1.43936
1.4377
1.43914
1.43857
1.43857
1.43796
1.43847
1.43824
1.43782
1.43822
1.4422
1.44293
1.44499
1.4471
1.44741
1.44972
1.44309
1.44086
1.44063
1.44187
1.43983
1.44092
1.44282
1.44018
1.44205
1.47989
1.51186
1.44073
1.43837
1.43899
1.43804
1.4385
1.43829
1.43824
1.43818
1.43805
1.43833
1.43854
1.43845
1.43836
1.43837
1.43813
1.44012
1.4399
1.44209
1.4442
1.44747
1.45091
1.45085
1.44248
1.44227
1.4447
1.4403
1.44134
1.44266
1.44093
1.44043
1.50512
1.49502
1.43886
1.44042
1.43923
1.44117
1.43918
1.43892
1.43828
1.43819
1.43811
1.43889
1.43847
1.43901
1.4387
1.43884
1.43877
1.44042
1.44065
1.44054
1.44232
1.44239
1.44638
1.4483
1.4465
1.44551
1.4409
1.44221
1.44214
1.44334
1.44164
1.4402
1.49134
1.50818
1.45463
1.44126
1.43879
1.43873
1.43847
1.43811
1.43871
1.43893
1.43886
1.43861
1.43945
1.43946
1.43854
1.43812
1.43835
1.43956
1.44125
1.44088
1.44279
1.44659
1.44671
1.44473
1.4411
1.43991
1.44001
1.4398
1.43977
1.43963
1.43984
1.44164
1.45096
1.48358
1.47049
1.44095
1.43988
1.43975
1.43868
1.43732
1.43717
1.43769
1.43799
1.43792
1.43753
1.43816
1.43825
1.4382
1.43776
1.44065
1.441
1.44274
1.4476
1.4488
1.45201
1.44786
1.44188
1.43967
1.44084
1.44013
1.4404
1.44162
1.44103
1.44224
1.45717
1.47678
1.47687
1.44677
1.43912
1.44175
1.43925
1.43825
1.43839
1.43816
1.438
1.43806
1.43867
1.43885
1.43892
1.43902
1.43781
1.44028
1.44262
1.44263
1.44472
1.44957
1.45223
1.4532
1.44217
1.44112
1.4424
1.44015
1.44102
1.44083
1.44099
1.44147
1.47475
1.50305
1.4898
1.44669
1.43945
1.44088
1.4388
1.43896
1.439
1.43763
1.43838
1.43911
1.43874
1.43916
1.44103
1.43944
1.43783
1.44185
1.44216
1.44188
1.44166
1.44322
1.44573
1.4464
1.44506
1.44569
1.44188
1.44179
1.44162
1.44304
1.44116
1.44155
1.46215
1.49208
1.47025
1.4424
1.43927
1.43891
1.43794
1.4383
1.43844
1.43847
1.43925
1.43954
1.43974
1.43884
1.43907
1.43884
1.43767
1.43943
1.43905
1.43875
1.43931
1.44362
1.45157
1.44743
1.44082
1.43988
1.43952
1.43917
1.43937
1.43896
1.44085
1.44059
1.44984
1.47074
1.47483
1.43941
1.43941
1.44062
1.43895
1.43877
1.43777
1.43937
1.43862
1.43758
1.43853
1.43913
1.43884
1.43818
1.43774
1.44171
1.44074
1.44047
1.44054
1.44354
1.45056
1.44899
1.44038
1.4396
1.44049
1.43979
1.44178
1.44004
1.44156
1.44363
1.45775
1.47063
1.49612
1.44519
1.44029
1.44816
1.43989
1.43784
1.43856
1.43792
1.43767
1.43794
1.43908
1.43963
1.43955
1.43925
1.43811
1.44002
1.43979
1.44123
1.44126
1.44217
1.44917
1.452
1.44127
1.44162
1.44213
1.43998
1.44095
1.44194
1.4423
1.43996
1.46688
1.49645
1.49794
1.44641
1.43893
1.45021
1.44554
1.43816
1.43917
1.43783
1.43789
1.43859
1.44026
1.44144
1.44199
1.43953
1.439
1.44196
1.43962
1.4386
1.4385
1.43958
1.44514
1.45083
1.44855
1.4443
1.442
1.44276
1.44137
1.44067
1.44015
1.44194
1.46687
1.4967
1.48136
1.44408
1.43893
1.4389
1.44076
1.4394
1.4385
1.43808
1.43861
1.43894
1.43952
1.43885
1.43949
1.43863
1.43885
1.43899
1.44019
1.43933
1.44224
1.442
1.45137
1.45223
1.44052
1.43941
1.43935
1.43892
1.43898
1.43895
1.44096
1.44156
1.44767
1.46296
1.48971
1.45035
1.4406
1.45327
1.44819
1.44092
1.43537
1.43758
1.43761
1.43726
1.4381
1.43899
1.44055
1.44148
1.4374
1.43991
1.44088
1.44278
1.44215
1.4427
1.45019
1.45211
1.44175
1.43991
1.4402
1.43975
1.44201
1.44221
1.44114
1.44063
1.45365
1.4659
1.504
1.46595
1.44539
1.45884
1.4516
1.44523
1.43595
1.43837
1.43824
1.43791
1.43896
1.44055
1.44153
1.44098
1.43767
1.44035
1.44037
1.44024
1.44047
1.44023
1.45722
1.45287
1.44129
1.44134
1.44027
1.44133
1.44162
1.4412
1.44248
1.44069
1.46313
1.49111
1.49651
1.46853
1.44174
1.46663
1.46287
1.44097
1.43708
1.438
1.43772
1.43837
1.44004
1.44046
1.44165
1.44257
1.43853
1.43996
1.4408
1.43898
1.44136
1.43901
1.44494
1.4509
1.44752
1.44478
1.44147
1.44154
1.44124
1.44028
1.44095
1.43937
1.46097
1.48885
1.49105
1.45031
1.43982
1.45238
1.44828
1.4375
1.43751
1.43804
1.43851
1.43876
1.43903
1.43952
1.44111
1.43974
1.43854
1.4387
1.4383
1.43863
1.44077
1.44129
1.45019
1.45068
1.44488
1.43962
1.43975
1.43894
1.43971
1.43985
1.44039
1.44106
1.4461
1.45771
1.48003
1.45198
1.44186
1.44997
1.45432
1.45005
1.44267
1.43891
1.43744
1.43736
1.43974
1.43824
1.44047
1.44109
1.4388
1.44015
1.439
1.43974
1.44015
1.44349
1.44643
1.45006
1.44018
1.44068
1.44057
1.43934
1.44094
1.44053
1.44232
1.4425
1.45007
1.4626
1.50217
1.48765
1.45019
1.44893
1.44821
1.45132
1.44654
1.43763
1.43771
1.43743
1.43877
1.44182
1.44295
1.44224
1.44032
1.43952
1.44064
1.44051
1.44107
1.44337
1.44739
1.45166
1.44145
1.44291
1.44253
1.44032
1.44142
1.44192
1.44288
1.43897
1.45975
1.48309
1.50922
1.48382
1.44497
1.46002
1.45183
1.45428
1.44772
1.44008
1.43765
1.43775
1.43977
1.44305
1.44111
1.44098
1.43812
1.43959
1.44001
1.44037
1.4385
1.43962
1.44072
1.4528
1.44507
1.44459
1.44062
1.44168
1.44143
1.43995
1.44238
1.43962
1.45566
1.47658
1.49384
1.46956
1.43982
1.45374
1.45327
1.4438
1.44081
1.43785
1.43764
1.43819
1.43905
1.4423
1.44233
1.43926
1.43858
1.4398
1.4389
1.43681
1.43694
1.43787
1.44508
1.44677
1.43993
1.43938
1.43828
1.43914
1.4391
1.43946
1.44083
1.44029
1.44368
1.44823
1.46988
1.45782
1.44263
1.44649
1.44997
1.45025
1.44949
1.43851
1.43565
1.4376
1.43842
1.43985
1.44173
1.44216
1.43932
1.43872
1.43842
1.43774
1.43852
1.44348
1.44638
1.44712
1.43932
1.44024
1.4401
1.43965
1.44065
1.44047
1.44174
1.44234
1.44821
1.44684
1.4932
1.48133
1.45006
1.45069
1.44419
1.44399
1.44992
1.44713
1.43861
1.43766
1.43842
1.44204
1.43939
1.43958
1.44241
1.43947
1.4387
1.43964
1.4398
1.44649
1.44607
1.45026
1.43973
1.44288
1.44008
1.44024
1.44227
1.44306
1.44023
1.44207
1.46016
1.471
1.49927
1.49773
1.45494
1.44852
1.44668
1.44775
1.46223
1.44375
1.43609
1.43825
1.43979
1.4405
1.44099
1.43985
1.43966
1.43986
1.43891
1.44036
1.44045
1.44021
1.44289
1.45405
1.44709
1.44289
1.43997
1.44123
1.43994
1.44169
1.44385
1.4428
1.45314
1.46866
1.4936
1.48304
1.44997
1.45137
1.45723
1.44603
1.44643
1.4415
1.43908
1.438
1.43875
1.44336
1.44028
1.44112
1.43887
1.44051
1.4389
1.43974
1.44101
1.43916
1.4417
1.44604
1.43968
1.4388
1.43969
1.43873
1.43821
1.43897
1.44033
1.43976
1.44034
1.44624
1.45934
1.45179
1.44061
1.44402
1.44111
1.44613
1.44625
1.44513
1.4411
1.43632
1.43778
1.44092
1.44
1.44018
1.44054
1.43771
1.43746
1.44129
1.44177
1.44309
1.44474
1.45011
1.44022
1.44119
1.43893
1.43922
1.43961
1.4409
1.44069
1.44232
1.44424
1.44556
1.47727
1.47439
1.45002
1.44472
1.44028
1.44014
1.44306
1.44825
1.44769
1.43625
1.4381
1.44225
1.43952
1.43776
1.43999
1.43904
1.43969
1.44396
1.442
1.44522
1.44542
1.45336
1.44203
1.44158
1.43925
1.4394
1.44091
1.44204
1.44061
1.44355
1.45058
1.45159
1.47902
1.49685
1.45632
1.4482
1.44292
1.44519
1.45468
1.45684
1.44351
1.43557
1.43843
1.4414
1.44208
1.44161
1.43978
1.43957
1.43937
1.44155
1.44602
1.4456
1.44546
1.44721
1.44358
1.44098
1.43914
1.44103
1.44027
1.44131
1.44479
1.4445
1.44501
1.45287
1.48886
1.49182
1.45113
1.44858
1.45573
1.45521
1.45533
1.45074
1.4378
1.4362
1.44064
1.44271
1.44314
1.43918
1.43977
1.43801
1.43785
1.43763
1.43952
1.44085
1.45033
1.44668
1.44142
1.43891
1.43867
1.4382
1.4389
1.43823
1.43872
1.43863
1.43828
1.44016
1.45184
1.44496
1.4392
1.44478
1.43912
1.43886
1.43943
1.4406
1.44222
1.43873
1.43893
1.44012
1.43887
1.43838
1.44191
1.43857
1.44023
1.44146
1.44726
1.44167
1.44361
1.45119
1.43991
1.43942
1.43896
1.43889
1.43892
1.43966
1.44085
1.44105
1.43976
1.44789
1.46132
1.45292
1.44514
1.44751
1.43788
1.43663
1.43725
1.44077
1.44853
1.44109
1.4374
1.4401
1.43996
1.44028
1.43856
1.43958
1.43994
1.43988
1.44409
1.44247
1.44695
1.44807
1.44167
1.44147
1.43844
1.43943
1.43936
1.43985
1.44149
1.44204
1.44325
1.455
1.48051
1.48563
1.45235
1.44515
1.43854
1.43733
1.44126
1.44875
1.45652
1.44196
1.43754
1.43942
1.44078
1.44126
1.43896
1.44028
1.43794
1.44053
1.44413
1.44238
1.45102
1.44541
1.4431
1.44115
1.43832
1.43891
1.43966
1.43994
1.44008
1.4425
1.44088
1.44739
1.48314
1.48354
1.46294
1.4455
1.44356
1.4454
1.45352
1.44962
1.44447
1.44976
1.43595
1.44108
1.44384
1.44093
1.44012
1.43753
1.43865
1.43966
1.44097
1.43832
1.44702
1.44374
1.44051
1.4388
1.43802
1.4376
1.43798
1.43846
1.43798
1.4383
1.43769
1.43732
1.44939
1.4453
1.44051
1.44672
1.43971
1.43824
1.43794
1.43973
1.44222
1.43918
1.43616
1.43924
1.43853
1.43791
1.43929
1.43755
1.43843
1.4395
1.44207
1.44147
1.45294
1.44692
1.43991
1.43963
1.43869
1.43941
1.43811
1.43775
1.43763
1.4385
1.43864
1.43966
1.4465
1.44786
1.44252
1.44302
1.44314
1.44193
1.43924
1.44055
1.44493
1.4461
1.4387
1.43922
1.43929
1.44156
1.43868
1.44081
1.4396
1.44046
1.4395
1.44688
1.44797
1.44221
1.4419
1.44009
1.43757
1.43865
1.43836
1.43869
1.43669
1.43888
1.44011
1.44281
1.45559
1.45729
1.4617
1.45145
1.44434
1.44499
1.44109
1.44512
1.45435
1.45164
1.44195
1.43772
1.44273
1.44194
1.441
1.43881
1.4401
1.43982
1.44147
1.4449
1.45183
1.44389
1.44137
1.43869
1.43788
1.4385
1.43838
1.43829
1.43967
1.43937
1.4397
1.44251
1.46801
1.46517
1.46405
1.45771
1.43956
1.44222
1.44498
1.44671
1.44606
1.45138
1.44063
1.44021
1.4428
1.44335
1.43936
1.43788
1.43707
1.43769
1.43846
1.43713
1.44864
1.44369
1.43983
1.43769
1.43723
1.43785
1.43842
1.43764
1.43787
1.43683
1.43751
1.43933
1.44536
1.44857
1.44234
1.44058
1.43947
1.43812
1.43857
1.44063
1.44124
1.43906
1.44094
1.43836
1.43964
1.43784
1.44055
1.43923
1.43722
1.43957
1.44119
1.44855
1.44489
1.44567
1.44017
1.43821
1.43808
1.43786
1.43936
1.44829
1.44143
1.43824
1.4368
1.43856
1.44002
1.44642
1.44875
1.44247
1.44426
1.4411
1.43832
1.44001
1.44667
1.45042
1.4428
1.43646
1.4407
1.44017
1.43894
1.44176
1.4391
1.44046
1.43906
1.44434
1.44364
1.44236
1.44096
1.43879
1.43801
1.43775
1.43889
1.44203
1.44685
1.43777
1.43684
1.4393
1.44028
1.44084
1.44637
1.45232
1.4478
1.44253
1.44147
1.44684
1.45203
1.45187
1.45311
1.4353
1.43937
1.44205
1.4417
1.43984
1.44124
1.43917
1.43919
1.44253
1.44741
1.44634
1.44042
1.43726
1.4385
1.43767
1.43759
1.43991
1.44289
1.43988
1.43597
1.43726
1.44317
1.44213
1.44313
1.44437
1.45702
1.44494
1.44269
1.44621
1.4473
1.45316
1.44677
1.43702
1.43996
1.44064
1.44168
1.43755
1.43638
1.43716
1.43698
1.44094
1.44188
1.44516
1.441
1.43824
1.43824
1.43741
1.43786
1.43657
1.43741
1.43881
1.43777
1.43716
1.43966
1.44064
1.44055
1.43909
1.43791
1.43715
1.43798
1.44023
1.44023
1.44028
1.44385
1.43692
1.43804
1.43731
1.4389
1.43824
1.437
1.43841
1.43886
1.44454
1.43934
1.44579
1.44164
1.43992
1.43849
1.43873
1.43941
1.44362
1.44301
1.44128
1.44285
1.44001
1.44393
1.44501
1.44964
1.44123
1.44739
1.44089
1.43916
1.44292
1.44998
1.447
1.44921
1.43923
1.43849
1.43914
1.43831
1.43898
1.43838
1.44003
1.43871
1.44585
1.44284
1.44218
1.44195
1.43897
1.43678
1.4382
1.43816
1.43955
1.44305
1.44679
1.4473
1.43893
1.43863
1.43911
1.45064
1.44657
1.44357
1.44131
1.44042
1.44561
1.45543
1.45264
1.45313
1.44001
1.43872
1.44095
1.4424
1.44321
1.43788
1.43835
1.43925
1.44325
1.44228
1.4447
1.44253
1.43908
1.4374
1.43715
1.43807
1.43792
1.44011
1.44444
1.44545
1.4399
1.438
1.44388
1.4439
1.44653
1.44462
1.44141
1.44178
1.44814
1.4511
1.4564
1.44959
1.43654
1.43914
1.44177
1.44029
1.43723
1.43686
1.43698
1.43534
1.44355
1.43816
1.44477
1.44271
1.43922
1.43757
1.43779
1.43902
1.4374
1.43698
1.43839
1.43741
1.44048
1.43842
1.4385
1.4392
1.43826
1.43676
1.43753
1.43877
1.43999
1.44131
1.44251
1.44414
1.43654
1.43766
1.43738
1.43722
1.43765
1.43707
1.43838
1.43901
1.44673
1.43858
1.44464
1.44385
1.44095
1.43923
1.43802
1.4377
1.44151
1.44057
1.43911
1.44168
1.43853
1.44314
1.44421
1.44336
1.44222
1.44392
1.43909
1.43977
1.44353
1.44971
1.44957
1.4496
1.44153
1.43886
1.43857
1.44241
1.43873
1.43759
1.44215
1.44023
1.44346
1.44582
1.44346
1.44288
1.44151
1.43911
1.438
1.43814
1.43819
1.44105
1.44207
1.4425
1.44129
1.43934
1.44
1.4435
1.44075
1.44227
1.44132
1.44298
1.45134
1.45969
1.45081
1.44634
1.44534
1.43832
1.44195
1.44198
1.43982
1.43814
1.43915
1.43901
1.43937
1.44272
1.44575
1.44299
1.43937
1.43863
1.43808
1.43722
1.43787
1.43973
1.4423
1.44174
1.44378
1.44227
1.44188
1.44266
1.44264
1.44534
1.44385
1.44466
1.44985
1.45066
1.455
1.44163
1.43769
1.43992
1.44342
1.44146
1.43999
1.4371
1.43754
1.43771
1.44518
1.441
1.44218
1.44368
1.44061
1.43862
1.43727
1.438
1.43671
1.43682
1.43913
1.43779
1.44042
1.43808
1.43868
1.43752
1.4362
1.43681
1.43808
1.43867
1.44048
1.44107
1.4433
1.44263
1.43835
1.43817
1.43821
1.43694
1.43865
1.43639
1.43773
1.44036
1.44519
1.44041
1.44334
1.44353
1.44206
1.43985
1.43956
1.43859
1.44297
1.44082
1.43959
1.44173
1.43779
1.44214
1.44413
1.44214
1.44155
1.44176
1.43879
1.44053
1.44584
1.44949
1.44668
1.44518
1.44057
1.43881
1.43939
1.44109
1.43757
1.44058
1.4393
1.44012
1.44471
1.4433
1.44322
1.44253
1.44099
1.43898
1.43839
1.43838
1.43834
1.44126
1.44095
1.44231
1.44044
1.43957
1.44039
1.44267
1.44233
1.4433
1.44203
1.44469
1.45147
1.45431
1.4513
1.43969
1.4454
1.43767
1.44037
1.44301
1.44053
1.43776
1.44052
1.4405
1.4445
1.44329
1.44388
1.44407
1.44038
1.43764
1.4375
1.43812
1.43838
1.43816
1.44134
1.44247
1.44218
1.44193
1.44363
1.44173
1.44233
1.4432
1.44195
1.44505
1.45085
1.4506
1.45193
1.43976
1.43948
1.43942
1.4406
1.44024
1.43897
1.43654
1.43669
1.43952
1.43972
1.43879
1.4414
1.44415
1.44227
1.43934
1.43799
1.43846
1.43799
1.43687
1.43854
1.43791
1.44049
1.43795
1.43758
1.43626
1.43608
1.43759
1.43772
1.43915
1.4402
1.44184
1.44287
1.4396
1.43966
1.43765
1.43716
1.4366
1.43761
1.43701
1.43705
1.44222
1.44041
1.43946
1.44284
1.44488
1.44245
1.43967
1.43855
1.4374
1.44103
1.44134
1.43927
1.44079
1.43821
1.44249
1.44403
1.44155
1.44124
1.43993
1.43841
1.44202
1.44546
1.44943
1.45015
1.44994
1.45036
1.43746
1.43796
1.44137
1.4386
1.438
1.43924
1.44245
1.44236
1.44242
1.44315
1.44315
1.44165
1.44041
1.439
1.43831
1.43765
1.44041
1.44224
1.44183
1.43994
1.4384
1.44074
1.44311
1.44252
1.44225
1.44236
1.44637
1.45303
1.45348
1.44925
1.44928
1.46086
1.43746
1.44044
1.44343
1.43887
1.43803
1.43931
1.44048
1.44533
1.44496
1.44417
1.44511
1.44152
1.43929
1.43882
1.43763
1.43828
1.43804
1.44153
1.44222
1.44287
1.44157
1.44238
1.44073
1.4416
1.4429
1.44336
1.44636
1.45055
1.44907
1.45136
1.4455
1.44408
1.43825
1.43954
1.44409
1.43671
1.43692
1.43758
1.44043
1.43897
1.44019
1.44162
1.44324
1.44206
1.44065
1.43809
1.43823
1.43708
1.43742
1.43899
1.43744
1.44001
1.43861
1.43737
1.43626
1.43674
1.4381
1.43853
1.43882
1.44018
1.44041
1.44137
1.43687
1.44117
1.43694
1.43794
1.43727
1.43693
1.43777
1.43972
1.44399
1.44156
1.44037
1.44317
1.44404
1.44349
1.44115
1.44045
1.43765
1.44119
1.44137
1.43973
1.44061
1.43868
1.44172
1.4437
1.44101
1.44074
1.43923
1.4392
1.44153
1.44743
1.45081
1.4497
1.4489
1.45135
1.437
1.43843
1.43952
1.43803
1.43958
1.43839
1.44347
1.44257
1.44249
1.44334
1.44284
1.44262
1.44018
1.43919
1.43887
1.43777
1.43964
1.44158
1.44189
1.43963
1.43969
1.44075
1.44262
1.44127
1.44224
1.44324
1.44796
1.45458
1.45469
1.45126
1.45542
1.45656
1.4364
1.43967
1.44254
1.44172
1.43963
1.44177
1.44103
1.44366
1.44332
1.44342
1.4448
1.44322
1.43928
1.43827
1.43857
1.43816
1.43762
1.44138
1.44289
1.44301
1.44115
1.44084
1.44036
1.44231
1.44293
1.44285
1.44568
1.45069
1.44997
1.45163
1.45257
1.44256
1.43852
1.43907
1.44384
1.43684
1.43653
1.43932
1.4391
1.44031
1.4399
1.44181
1.44466
1.44274
1.44054
1.43892
1.43857
1.43832
1.43649
1.43769
1.43787
1.44027
1.43836
1.43799
1.43715
1.43729
1.43791
1.43856
1.4385
1.43975
1.44007
1.44061
1.43756
1.44126
1.43746
1.43741
1.43682
1.43711
1.4379
1.43994
1.44391
1.44118
1.4406
1.44292
1.44492
1.44376
1.44049
1.43936
1.43774
1.43963
1.44108
1.4392
1.44022
1.43875
1.44167
1.4425
1.44046
1.44029
1.43873
1.43938
1.44243
1.44694
1.44898
1.44412
1.44392
1.44747
1.43726
1.43915
1.43995
1.439
1.44147
1.43958
1.44486
1.44229
1.44258
1.44245
1.44348
1.44245
1.44175
1.43999
1.43936
1.43772
1.43983
1.44091
1.44041
1.43965
1.43977
1.44156
1.44261
1.4424
1.44198
1.44337
1.44865
1.45693
1.44991
1.45171
1.45306
1.45561
1.43765
1.43996
1.44168
1.43966
1.43971
1.44089
1.44225
1.44489
1.44386
1.44355
1.44488
1.44225
1.44084
1.43958
1.43765
1.43802
1.43808
1.44071
1.44168
1.44191
1.44157
1.44218
1.4427
1.4428
1.44212
1.44371
1.4487
1.45024
1.44947
1.4493
1.4518
1.43849
1.43818
1.43819
1.44071
1.43726
1.43644
1.44278
1.44078
1.44045
1.43977
1.44177
1.44247
1.44291
1.44191
1.4383
1.4385
1.43766
1.43751
1.4391
1.43732
1.43992
1.43856
1.43859
1.43736
1.4375
1.4377
1.43773
1.4377
1.43864
1.43824
1.43979
1.43753
1.43998
1.4384
1.43848
1.43857
1.43954
1.43793
1.43943
1.44749
1.44211
1.44083
1.44425
1.4454
1.4434
1.44235
1.44095
1.43772
1.44045
1.44108
1.44006
1.43906
1.43865
1.442
1.44404
1.44055
1.43954
1.43873
1.43982
1.44174
1.44803
1.44762
1.4428
1.44482
1.45301
1.43784
1.43803
1.44037
1.4392
1.44704
1.43866
1.44303
1.44232
1.44113
1.44182
1.44263
1.44195
1.44066
1.43949
1.43877
1.43769
1.43955
1.44063
1.44069
1.43911
1.43973
1.44153
1.44273
1.44126
1.44206
1.44474
1.4493
1.45367
1.44763
1.44944
1.45179
1.45237
1.43717
1.43992
1.44288
1.44152
1.44124
1.43853
1.44252
1.44792
1.44246
1.44324
1.44334
1.44362
1.43987
1.43811
1.43872
1.43823
1.43735
1.44088
1.44209
1.44089
1.4405
1.44131
1.44158
1.44187
1.44271
1.44383
1.44634
1.45059
1.45014
1.44868
1.44487
1.43955
1.43752
1.43901
1.44556
1.43854
1.43844
1.44097
1.43842
1.44251
1.44108
1.44192
1.44497
1.4425
1.4402
1.43923
1.43851
1.43831
1.43658
1.438
1.43769
1.44
1.43855
1.43855
1.43764
1.43795
1.43795
1.43749
1.43714
1.43869
1.43694
1.43911
1.43914
1.4411
1.43715
1.43727
1.43772
1.44034
1.43782
1.43941
1.44247
1.44064
1.44148
1.44302
1.44467
1.44437
1.44086
1.44039
1.43817
1.43875
1.44028
1.43904
1.43986
1.4394
1.44115
1.44212
1.43993
1.43951
1.4382
1.43989
1.44141
1.44609
1.44832
1.44164
1.4458
1.45421
1.43689
1.43888
1.44046
1.43951
1.4387
1.43892
1.44417
1.44333
1.44335
1.44204
1.44319
1.44271
1.44145
1.44011
1.43889
1.43751
1.43976
1.44051
1.44059
1.43942
1.44037
1.44213
1.44171
1.44219
1.44329
1.44433
1.44908
1.45612
1.44504
1.44626
1.44971
1.45562
1.43708
1.44133
1.44388
1.43935
1.44291
1.43796
1.44481
1.4527
1.44108
1.44421
1.4431
1.44022
1.44042
1.43925
1.43727
1.43788
1.4377
1.4405