/*--------------------------------*- C++ -*----------------------------------*\
| =========                 |                                                 |
| \\      /  F ield         | OpenFOAM: The Open Source CFD Toolbox           |
|  \\    /   O peration     | Version:  4.0                                   |
|   \\  /    A nd           | Web:      www.OpenFOAM.org                      |
|    \\/     M anipulation  |                                                 |
\*---------------------------------------------------------------------------*/
FoamFile
{
    version     2.0;
    format      ascii;
    class       volVectorField;
    location    "-1.66363e-11";
    object      U;
}
// * * * * * * * * * * * * * * * * * * * * * * * * * * * * * * * * * * * * * //

dimensions      [0 1 -1 0 0 0 0];

internalField   nonuniform List<vector> 
20480
(
(-0.0207254 0.0806884 0.679305)
(0.00118675 0.166994 0.573087)
(-0.0598474 0.169641 0.615426)
(-0.109936 0.117828 0.671984)
(-0.0533269 0.0382219 0.775832)
(-0.0699984 0.106788 0.751223)
(-0.06065 0.0491332 0.79785)
(-0.0598126 -0.00245498 0.804879)
(0.00961004 0.00830309 0.7272)
(-0.0322602 -0.0375574 0.648015)
(-0.219774 -0.0347838 0.660427)
(-0.219396 0.0314595 0.639949)
(-0.154313 0.0191383 0.64901)
(-0.0262196 0.0393373 0.668626)
(0.112896 0.000403147 0.611639)
(0.144422 0.0124627 0.641243)
(0.202017 0.0151204 0.640665)
(0.411183 0.0132877 0.61502)
(0.422919 0.0255883 0.610297)
(0.276168 0.0679797 0.567117)
(0.121982 -0.0513813 0.607176)
(0.0102144 0.000212251 0.665158)
(-0.0106933 -0.021612 0.705891)
(-0.0294314 -0.0482169 0.704205)
(-0.0111445 -0.0189203 0.782874)
(-0.0803121 -0.0609481 0.760032)
(-0.159755 -0.0323094 0.715574)
(-0.119328 -0.00270752 0.753568)
(-0.125542 0.0282214 0.691548)
(-0.118743 0.0271857 0.748163)
(0.0333852 -0.0261265 0.639904)
(0.056603 -0.0704359 0.608002)
(0.104246 0.0440225 0.54527)
(0.0992948 0.185641 0.448144)
(-0.0938548 0.175666 0.437917)
(-0.207315 0.151386 0.520357)
(-0.0706662 0.18147 0.680136)
(-0.0515095 0.0721273 0.580451)
(-0.164264 0.0785253 0.771657)
(-0.10384 0.00937855 0.866053)
(-0.010076 -0.0186272 0.737044)
(-0.0697132 0.0802652 0.663576)
(-0.158255 0.0359717 0.749441)
(-0.194969 0.0328287 0.70245)
(-0.151706 0.00307856 0.633241)
(-0.0601995 0.0120772 0.75575)
(0.095876 -0.0242243 0.66514)
(0.161823 -0.0823624 0.626249)
(0.255818 0.0367423 0.697255)
(0.452842 -0.0229879 0.666189)
(0.492842 0.00157672 0.588043)
(0.252163 0.102203 0.591193)
(0.0650005 -0.0293547 0.683184)
(0.0583025 0.0644826 0.795909)
(-0.0498563 0.0290003 0.653406)
(-0.0273265 -0.0447586 0.73338)
(-0.0114339 -0.0329004 0.831648)
(-0.118879 -0.0224839 0.791362)
(-0.114749 -0.018344 0.679953)
(-0.0605221 0.0169415 0.725091)
(-0.127654 -0.0519152 0.784429)
(-0.179315 -0.0618147 0.729052)
(-0.0522915 -0.0543045 0.729837)
(0.0169452 -0.105725 0.661)
(0.150684 -0.0473014 0.538236)
(0.191173 0.00431363 0.46703)
(-0.0760412 -0.00161053 0.401435)
(-0.122273 0.0382446 0.4758)
(-0.117986 0.113434 0.454605)
(-0.1797 -0.0254426 0.660475)
(-0.116869 -0.055086 0.666059)
(-0.141719 -0.00518194 0.744957)
(0.0891042 0.00974987 0.71876)
(0.0231657 0.162896 0.632456)
(-0.242864 0.0678544 0.602742)
(-0.23224 0.0267184 0.615863)
(-0.187028 0.0370024 0.67413)
(-0.0561698 -0.0116866 0.622975)
(0.0425915 -0.00602239 0.72512)
(0.173593 -0.0148675 0.65469)
(0.272096 -0.0363618 0.61035)
(0.363257 -0.0101887 0.604523)
(0.499886 -0.00466283 0.614905)
(0.345889 0.055028 0.607595)
(0.0834078 0.0581833 0.558825)
(0.0853096 0.0318123 0.654071)
(-0.134259 0.0738214 0.890908)
(-0.0867057 0.0528346 0.65948)
(-0.00900103 0.0424385 0.711881)
(-0.100343 0.0422015 0.8181)
(-0.14323 0.0508219 0.66823)
(-0.160212 0.130082 0.7015)
(-0.191175 -0.0148306 0.63531)
(-0.119633 -0.0406937 0.716702)
(-0.0218105 -0.0217726 0.650294)
(-0.00495086 -0.0100927 0.693303)
(0.158043 -0.0251048 0.616907)
(0.158078 -0.0279679 0.470315)
(-0.0626988 -0.041521 0.432853)
(-0.0835865 -0.0126966 0.48785)
(-0.132446 0.00103269 0.532891)
(-0.231386 0.00291653 0.614189)
(-0.115858 -0.0739614 0.686657)
(-0.0333208 -0.00987707 0.699644)
(0.112071 0.0344382 0.66176)
(-0.0148966 0.0323781 0.652177)
(-0.214474 0.00541531 0.551782)
(-0.166626 0.0335776 0.541798)
(-0.200984 0.0545921 0.645514)
(-0.0895729 0.0149899 0.639832)
(0.0999141 0.0176997 0.679891)
(0.130713 0.0784147 0.683262)
(0.158845 -0.0297526 0.479994)
(0.32664 0.0151808 0.49418)
(0.540918 0.00961234 0.654843)
(0.284859 0.0211921 0.500525)
(0.0844603 0.059004 0.757432)
(0.0370789 -0.0327335 0.679601)
(-0.0191515 -0.00779234 0.740508)
(-0.0415241 0.0685311 0.77315)
(-0.0557804 0.0469864 0.704077)
(-0.0915641 -0.0199448 0.664692)
(-0.00121183 0.0376564 0.735001)
(-0.131862 0.144045 0.728955)
(-0.183899 0.0387972 0.530549)
(-0.18476 0.0432658 0.788004)
(-0.0178892 0.00301796 0.783223)
(0.0263124 0.0303673 0.672704)
(0.0580599 0.0904616 0.852034)
(0.0978973 0.0427294 0.828253)
(0.0223897 0.0640812 0.864842)
(-0.0411432 0.0412402 0.790155)
(0.0217741 0.0434757 0.745909)
(0.0550588 0.0461635 0.82185)
(-0.0391805 0.00983288 0.804849)
(-0.0746367 0.0181151 0.866504)
(-0.0354641 0.0738827 0.963682)
(-0.125402 0.0399819 1.17554)
(-0.25368 0.00181394 1.15986)
(-0.222674 -0.0202114 1.01104)
(-0.149576 -0.00278303 0.96046)
(-0.00917527 0.00692477 0.870471)
(0.0199553 -0.0267529 1.03374)
(0.220778 0.0140749 1.08682)
(0.239894 -0.0718487 0.887785)
(0.28028 -0.015368 0.937092)
(0.361728 -0.036865 1.16794)
(0.320179 -0.0064982 1.22885)
(0.250714 -0.0631559 1.33737)
(-0.0557066 -0.0649252 1.11931)
(-0.284584 -0.0511288 1.07604)
(-0.356004 -0.082546 1.10616)
(-0.197688 -0.102753 0.959364)
(-0.135164 -0.195988 1.07406)
(-0.277934 -0.107234 1.01785)
(-0.227603 -0.0631786 0.882979)
(-0.218633 -0.0177116 1.00863)
(-0.142821 0.0139688 0.830817)
(0.0412622 -0.0057369 0.958443)
(0.0795174 0.0231537 1.26121)
(0.0276489 0.0371348 0.994191)
(0.15334 0.0366089 1.19575)
(0.0304273 0.0555023 1.28468)
(-0.0872856 0.0504141 1.07841)
(0.0408005 0.102208 0.789099)
(-0.00403042 0.0648214 1.23642)
(-0.0874561 0.0735937 1.00131)
(-0.00257924 0.0536511 0.724339)
(0.00443913 0.0840799 0.944816)
(-0.150616 0.0547548 1.00238)
(-0.224994 0.0836681 0.978102)
(-0.234536 0.0507145 1.05074)
(-0.118278 -0.000140465 1.00391)
(-0.0330268 -0.00599433 0.896302)
(0.0225186 -0.0344589 0.934195)
(0.152421 0.0735394 1.06272)
(0.207975 -0.0414333 0.845771)
(0.318751 -0.00382715 0.917333)
(0.387212 -0.0100115 1.27254)
(0.354955 -0.0342834 1.43402)
(0.096106 -0.040069 1.08063)
(-0.0860562 -0.0323431 1.005)
(-0.311809 -0.0723851 1.09055)
(-0.372614 0.0156329 0.890083)
(-0.252436 -0.0575893 0.877355)
(-0.154588 -0.134481 0.851401)
(-0.177856 -0.105527 0.873099)
(-0.158067 -0.059524 0.857386)
(-0.138247 -0.0221203 1.01035)
(-0.15411 -0.0185977 0.965842)
(0.0319526 -0.0121089 0.827029)
(0.0881409 0.0150231 1.02007)
(0.0462963 -0.0794226 0.840924)
(0.232293 -0.0832943 1.18291)
(0.0878792 -0.116555 1.23477)
(0.0436836 -0.0153431 1.1318)
(0.0362364 0.106375 1.24802)
(0.00370786 -0.0155585 0.995695)
(-0.035392 0.0452981 1.08206)
(-0.0439452 0.0678334 0.862304)
(-0.00979269 0.00954915 0.793308)
(-0.176001 0.0552095 1.29886)
(-0.268662 0.106115 1.2566)
(-0.320421 0.106687 1.10078)
(-0.165348 0.0421138 0.928378)
(-0.0409787 0.0162956 0.979717)
(0.0797736 -0.00742057 0.870231)
(0.118382 0.0439518 0.795885)
(0.260452 0.0635219 1.08015)
(0.27336 0.0301972 0.909004)
(0.276262 0.0234247 1.08281)
(0.349028 0.037038 1.41912)
(0.19549 -0.0741863 1.2667)
(-0.0823082 -0.0594876 1.29664)
(-0.235421 0.0580761 0.987257)
(-0.312145 0.0505356 0.888621)
(-0.357464 0.0150701 0.922916)
(-0.211644 0.00666382 0.941406)
(-0.193834 -0.0168896 0.96188)
(-0.155633 0.0499218 0.874063)
(-0.176853 0.105571 0.92127)
(-0.131956 0.0245243 0.760677)
(0.0729259 0.0323969 0.949793)
(0.0896389 0.0707754 0.949714)
(0.0514679 -0.0098321 0.721753)
(0.202604 0.00678168 1.08191)
(0.0817948 -0.026421 1.12145)
(0.0689098 0.0100788 1.07727)
(0.0270586 0.00908644 1.17383)
(-0.0290891 -0.0019789 1.00235)
(0.0028919 -0.0185336 0.763346)
(-0.0283073 0.0129236 0.871394)
(-0.0627718 0.00607941 1.00854)
(-0.17733 0.0284465 1.29771)
(-0.243422 0.0105121 1.20989)
(-0.316902 0.0455226 1.21367)
(-0.210512 0.054937 1.12878)
(-0.0805147 0.0331935 0.900581)
(0.0525894 -0.00037171 0.960897)
(0.244174 -0.00250014 1.12502)
(0.281795 0.0353493 1.08951)
(0.276602 0.0240341 0.934009)
(0.308254 0.00366955 1.08018)
(0.334813 0.0675273 1.50985)
(0.0712083 -0.0657629 1.15239)
(0.0947056 -0.0607234 1.11033)
(-0.20775 0.0881812 1.07293)
(-0.455269 -0.0338905 1.04141)
(-0.34202 -0.0288157 1.06428)
(-0.185938 -0.013033 0.965595)
(-0.139733 -0.00540146 0.962305)
(-0.0129197 0.0611784 1.17264)
(-0.1532 0.136284 1.13718)
(-0.173276 0.0501389 0.831425)
(0.0549571 0.0267289 0.784577)
(0.120878 0.084173 1.1124)
(0.070042 -0.00763156 0.513686)
(0.0718244 -0.153585 0.555847)
(0.0415325 -0.0178835 0.564114)
(0.0783484 -0.0927448 0.535604)
(0.0541867 0.0107111 0.53175)
(0.0829027 -0.027876 0.622346)
(0.00459476 0.000390004 0.729228)
(0.0874109 0.0371579 0.710545)
(-0.0800533 -0.0241674 0.650511)
(-0.160527 0.0631754 0.772384)
(-0.0456427 0.0534784 0.7601)
(-0.142884 -0.0121484 0.663542)
(-0.0579624 -0.000297095 0.683777)
(0.019995 -0.007998 0.741338)
(0.0129721 0.0290687 0.772609)
(0.153179 0.0122918 0.633713)
(0.328683 -0.0153995 0.921647)
(0.224515 0.0327598 0.699088)
(0.391132 0.0430348 0.836435)
(0.1761 0.0222154 0.795968)
(0.098603 0.00718303 1.06945)
(-0.0942489 -0.00724803 1.11348)
(-0.292317 0.00233893 1.04704)
(-0.432434 -0.0390804 0.828056)
(-0.476291 0.0241082 0.873872)
(-0.362788 -0.0322561 1.16052)
(-0.290182 -0.0721337 1.00682)
(-0.255327 -0.0596609 0.882301)
(-0.172326 -0.0610417 0.809436)
(-0.0980932 -0.0200796 0.68863)
(0.0217271 0.0604676 0.674918)
(0.0863723 0.0654912 0.886596)
(-0.0422626 -0.0452767 0.599698)
(0.106952 -0.201873 0.62492)
(0.196826 -0.180347 0.791168)
(0.0878622 -0.108798 0.535175)
(0.116342 -0.0775385 0.45074)
(0.0454843 0.0383608 0.63249)
(0.0675687 -0.0403961 0.643247)
(0.0217253 0.0437468 0.626493)
(-0.135531 -0.0301716 0.772237)
(-0.0921327 0.100241 0.777048)
(-0.0924404 0.0645613 0.73411)
(-0.154117 0.00788594 0.659219)
(-0.0321362 0.0770909 0.64515)
(0.0662799 -0.00605558 0.855783)
(0.0397202 0.0638405 0.723817)
(0.149913 0.052033 0.707006)
(0.193117 -0.0446787 0.649716)
(0.207525 0.0505448 0.672026)
(0.204197 0.0524117 0.649526)
(0.163629 0.00814967 0.957517)
(0.0185054 -0.0517056 1.08926)
(-0.130466 -0.154174 1.06134)
(-0.31784 -0.0196095 0.860932)
(-0.349798 -0.0198958 0.646367)
(-0.373848 0.00388673 0.734234)
(-0.298622 -0.0277772 0.690886)
(-0.257768 -0.109102 0.748025)
(-0.227934 -0.0681515 0.722158)
(-0.160063 -0.0615198 0.865528)
(0.0116634 0.0639201 0.777033)
(0.091053 0.068922 0.66055)
(0.0910193 0.0854949 0.88042)
(-0.0313003 -0.000724812 0.395325)
(0.0298329 -0.0991919 0.548282)
(0.226202 -0.165871 0.701722)
(0.171104 -0.0357993 0.55597)
(0.165816 0.00837386 0.582346)
(0.105958 0.182775 0.641014)
(0.0112051 0.05494 0.691431)
(0.077608 0.0689183 0.633025)
(-0.1775 0.0294866 0.732291)
(-0.0985606 0.0636251 0.843038)
(-0.120558 0.0472334 0.793273)
(-0.0817398 0.0222615 0.649837)
(-0.01886 0.0646917 0.550147)
(0.028847 -0.0107099 0.612974)
(0.0913887 0.0491036 0.791288)
(0.112323 0.000553608 0.819728)
(0.172597 -0.0263715 0.633318)
(0.342795 -0.00222965 0.781626)
(0.216838 0.047266 0.702457)
(0.0155229 -0.025896 0.699286)
(-0.0395953 -0.0641198 1.06906)
(-0.0666477 -0.106398 1.09123)
(-0.197236 -0.00349613 0.948752)
(-0.474962 -0.0590472 0.910789)
(-0.433948 -0.0362341 0.808653)
(-0.374395 -0.0386773 0.814096)
(-0.258307 -0.113937 0.735712)
(-0.156999 -0.0954757 0.710529)
(-0.0222827 -0.020687 0.641512)
(0.00528769 0.0608773 0.581686)
(0.0198618 0.0803351 0.604144)
(0.087309 0.0785408 0.871627)
(-0.088796 0.0216012 0.427944)
(-0.00611804 -0.0454445 0.50036)
(0.220533 0.00702794 0.515582)
(0.204942 0.00320945 0.554012)
(0.266976 0.0609719 0.657845)
(0.122703 0.0797064 0.592148)
(-0.012452 0.0872683 0.635662)
(-0.00936163 0.0521449 0.705549)
(-0.0963275 0.0023411 0.760852)
(-0.0846284 0.0488781 0.869751)
(-0.164158 0.0261285 0.787266)
(-0.126343 -0.00843473 0.758128)
(-0.0614977 0.0062553 0.682586)
(0.0262296 -0.0132917 0.724807)
(0.0393945 0.00478292 0.626662)
(0.112151 -0.0430663 0.812707)
(0.244762 0.00615716 0.754622)
(0.358173 -0.0285297 0.742228)
(0.248819 0.012447 0.732851)
(0.0785922 -0.0155933 0.968689)
(-0.0191149 -0.00499717 0.995953)
(-0.0930053 0.0345189 0.873189)
(-0.356082 0.0212004 1.24263)
(-0.488861 -0.0641567 0.960556)
(-0.333577 -0.00798979 0.676248)
(-0.339787 -0.0241103 0.692805)
(-0.304364 -0.0446145 0.797487)
(-0.133783 -0.0866658 0.988187)
(0.125878 -0.0199794 1.00507)
(0.174809 0.00145268 0.799601)
(0.0822707 0.0967221 0.724649)
(0.0346472 0.0850726 1.01903)
(0.0273408 0.0189099 0.675451)
(-0.051411 -0.0874793 1.07269)
(-0.0837118 -0.0276017 0.943943)
(0.0178239 -0.0450034 0.897045)
(0.0542288 -0.016422 0.690668)
(0.104066 -0.0579955 0.730403)
(0.055954 -0.0514377 0.684771)
(0.0589795 -0.0227892 0.693296)
(0.00343782 -0.116732 0.999448)
(0.0568118 0.00120537 0.798408)
(0.170741 -0.00328497 0.876551)
(0.202509 -0.0151418 0.888294)
(0.198316 -0.0114904 0.692292)
(0.192965 -0.0778935 0.778028)
(0.156023 -0.028223 0.79812)
(0.0931681 -0.0521881 0.700258)
(0.136295 0.0316773 0.809776)
(0.146913 0.0349463 0.694701)
(0.289435 0.0977123 0.985118)
(0.0740981 0.0678072 1.13206)
(-0.16087 0.00202911 1.23818)
(-0.243764 -0.0422085 1.224)
(-0.164961 0.0672302 1.00911)
(-0.321582 -0.016558 0.988464)
(-0.443943 0.0767415 0.758655)
(-0.406712 0.111704 0.880162)
(-0.234011 0.0856439 0.903313)
(-0.124507 0.0338318 0.739667)
(-0.0318677 -0.0534712 0.809382)
(0.106066 0.00140988 0.546861)
(0.106409 -0.0134663 0.572194)
(0.0921282 -0.0551431 1.05229)
(-0.0519192 0.0620729 0.844287)
(-0.0722647 -0.0295598 0.913894)
(-0.0410899 -0.0696642 1.42011)
(0.0283403 -0.0224498 1.05191)
(0.0285493 -0.0106742 0.761682)
(0.0606934 -0.0268554 0.883386)
(0.0994809 -0.0718829 0.805988)
(0.0505244 -0.00885272 0.757218)
(0.0537406 -0.0823973 0.783874)
(0.141933 0.0145728 0.70659)
(0.194829 -0.0122491 0.839545)
(0.201639 -0.00804094 0.840349)
(0.149256 0.00681708 0.687878)
(0.206726 -0.0634233 0.816798)
(0.181236 -0.00725368 0.826581)
(0.178658 -0.0584479 0.897227)
(0.197544 0.0285514 0.764584)
(0.196145 0.0314223 0.819205)
(0.257014 0.0960474 1.1035)
(-0.06807 0.031716 1.31623)
(-0.321385 -0.0706187 1.09685)
(-0.192378 -0.0659544 1.11911)
(-0.112955 0.0334499 0.889858)
(-0.204479 -0.0527234 0.694219)
(-0.34679 0.064677 0.744642)
(-0.340245 0.0862378 0.648743)
(-0.284052 0.0925966 0.726096)
(-0.237005 0.0475889 0.697114)
(-0.0741301 0.0786618 0.676535)
(0.117632 0.100208 0.57614)
(0.0990597 0.0117864 0.620315)
(0.0522644 -0.0476903 0.929577)
(-0.0433627 0.0694956 0.720105)
(-0.101742 0.0272533 0.89571)
(-0.0359904 0.0361469 1.05642)
(0.0309362 0.0592761 1.08629)
(0.051767 0.0364419 1.04584)
(0.0625531 0.173632 0.97104)
(0.0619736 0.0854035 0.770171)
(0.0395574 0.0988551 0.853063)
(0.0428618 0.0822035 0.75416)
(0.0985706 0.0316226 0.973638)
(0.180755 0.0470856 1.00046)
(0.268625 0.0157035 0.822605)
(0.237143 0.00382001 0.832485)
(0.20132 0.0520269 0.839714)
(0.177393 0.0807372 0.810664)
(0.133983 0.0182742 0.729969)
(0.172812 -0.000415236 0.780094)
(0.201176 0.0271161 0.819362)
(0.288089 0.0332609 1.1092)
(-0.156495 -0.0681919 1.33001)
(-0.288294 0.00417488 1.047)
(-0.152383 0.0533714 0.977234)
(-0.194877 -0.0419453 0.99522)
(-0.253174 -0.0769212 0.875111)
(-0.28088 0.0365818 0.648906)
(-0.34513 0.0469519 0.73223)
(-0.205127 0.0206283 0.594387)
(-0.115031 -0.0585644 0.6409)
(0.0168206 -0.00431964 0.594795)
(0.0696883 0.0450554 0.677179)
(-0.0284107 0.00133426 0.648486)
(-0.012292 -0.0382305 0.81146)
(-0.074802 0.0299096 0.751732)
(-0.0704792 -0.00831256 0.738482)
(-0.00908816 0.039035 0.866259)
(-0.00646429 0.0308752 0.933602)
(0.124143 0.0275829 1.19873)
(0.171467 0.175131 1.27399)
(0.0185366 0.120792 0.844175)
(0.000594653 0.0872897 0.831413)
(-0.0209739 0.0900377 0.872822)
(0.0180234 0.00791662 1.1445)
(0.14158 0.0775443 1.02012)
(0.173686 0.00588539 0.911155)
(0.297347 -0.0288005 0.974477)
(0.227842 0.0261726 0.712548)
(0.181837 0.0649962 0.873477)
(0.0991487 0.0205723 0.809857)
(0.199408 0.00561051 0.807664)
(0.203725 0.0289774 0.763364)
(0.238534 0.0416411 1.09988)
(-0.0966276 -0.0270345 1.40515)
(-0.196655 0.0652941 1.04555)
(-0.235397 0.0586546 1.09621)
(-0.293143 0.00159821 1.13982)
(-0.142934 -0.0021252 0.628284)
(-0.207541 0.0512833 0.732168)
(-0.362841 0.0715128 0.807321)
(-0.309538 0.0117281 0.623399)
(-0.232004 -0.06818 0.677471)
(0.0376163 -0.120441 0.732435)
(0.217093 -0.103271 0.760249)
(0.0617305 -0.0341219 0.817602)
(-0.0139061 -0.0534506 1.03172)
(0.0014317 0.0318064 0.651093)
(-0.00501507 0.0370075 1.00949)
(-0.00154825 -0.0492946 0.901657)
(0.0385325 0.0424341 0.818262)
(0.0778367 0.032301 0.770556)
(0.0505175 -0.105583 0.999037)
(-0.0642912 -0.129077 1.14026)
(-0.197105 -0.0661137 1.00374)
(-0.0576588 0.0289593 1.0352)
(0.257255 -0.0470346 0.887679)
(0.2131 -0.0753 0.826001)
(0.325081 -0.0201576 0.821382)
(0.286608 -0.0306098 0.800229)
(0.170118 -0.0310245 0.954097)
(0.155925 0.0167926 0.931748)
(0.0681684 -0.00874869 0.80064)
(0.0749127 -0.00450683 0.860877)
(-0.0382261 0.00359157 0.527098)
(-0.0555349 0.0315796 0.640097)
(-0.0212605 0.0657007 0.983841)
(-0.124829 0.0925058 1.30203)
(-0.195887 0.0495816 1.19484)
(-0.227974 -0.0186466 0.963943)
(-0.227858 0.0918635 0.979191)
(-0.199065 -0.00391521 0.750314)
(-0.247013 0.0398945 0.881074)
(-0.163311 -0.00565729 0.692875)
(-0.194634 0.0155838 0.705459)
(-0.0502799 0.027538 0.681422)
(0.0645066 0.00352477 0.505293)
(0.0213388 -0.0587578 0.628023)
(-0.01634 -0.0503727 1.03662)
(-0.0164459 0.107483 0.88825)
(-0.0712854 0.104751 0.801114)
(0.0265688 0.118057 1.10915)
(0.0941444 0.0544778 0.708042)
(-0.0308816 -0.0269828 0.684552)
(-0.0454289 -0.0582231 0.782403)
(0.0209068 -0.0521981 0.90589)
(-0.0242671 -0.0802982 0.868433)
(-0.00894709 0.055854 0.864711)
(0.138663 -0.158491 0.928065)
(0.239612 -0.143093 0.84751)
(0.369052 -0.0638534 0.846837)
(0.279896 -0.0869308 0.768473)
(0.177959 -0.000233051 0.806104)
(0.10924 -0.0184173 0.750631)
(0.00919183 -0.0155872 0.684084)
(0.0322663 -0.0155417 0.710562)
(-0.0208567 -0.00366341 0.58969)
(0.0175169 0.0772708 0.841653)
(0.049467 0.0799283 1.34192)
(-0.191475 0.0619097 1.09497)
(-0.249713 -0.0052089 0.771741)
(-0.215791 -0.032039 0.909024)
(-0.1787 0.0728814 0.768255)
(-0.243113 0.0666166 0.776755)
(-0.212563 0.0245618 0.662549)
(-0.204385 0.0469799 0.717362)
(-0.162465 0.0166477 0.660566)
(-0.0639161 0.0626121 0.542544)
(0.00943383 -0.00598262 0.570759)
(-0.0171635 -0.0543741 0.625631)
(0.0111941 -0.0059499 0.89523)
(0.0122945 0.0504419 0.676301)
(0.0347735 0.115096 0.757035)
(-0.0130187 0.201185 0.808174)
(-0.0744429 0.0543529 0.717109)
(-0.057498 -0.0432132 0.86987)
(0.0451563 -0.0746948 0.831362)
(-0.0251739 0.0241177 0.956954)
(-0.0599514 -0.0597124 0.888526)
(-0.095436 0.0286469 0.844661)
(0.0124037 -0.141714 1.02581)
(0.265168 -0.0838605 0.857868)
(0.341385 -0.0544283 0.80862)
(0.331573 -0.0908429 0.791061)
(0.181799 0.0280238 0.683449)
(0.134312 -0.0365857 0.849196)
(0.0354853 -0.00912555 0.821187)
(0.00363632 0.0164239 0.656926)
(-0.0138566 0.0144881 0.60543)
(0.0512874 0.0192415 0.916759)
(-0.0722267 -0.0444864 1.13474)
(-0.215301 0.0114977 0.850709)
(-0.281945 0.00474806 0.928724)
(-0.180117 0.0274376 1.00116)
(-0.100883 0.0937776 0.809454)
(-0.233837 0.129018 0.775756)
(-0.203578 0.0203467 0.681939)
(-0.17276 0.0617186 0.617347)
(-0.152065 0.00134956 0.657897)
(-0.0848262 0.0553578 0.684018)
(-0.0311206 -0.0877267 0.768983)
(0.0392429 -0.0548207 0.648712)
(0.0308084 -0.0842973 0.792625)
(0.0705283 0.00616568 0.742812)
(0.0805001 0.0395791 0.637993)
(-0.0297875 0.066143 0.746605)
(-0.152891 0.035556 0.773984)
(-0.208942 0.0177222 0.934898)
(-0.00633074 -0.136557 1.33597)
(0.035898 -0.0495329 1.23033)
(-0.0957785 -0.0703677 1.19529)
(-0.160417 0.0106104 1.14298)
(-0.0454589 -0.0140713 1.02702)
(0.290833 -0.0317231 1.07613)
(0.325981 -0.0101637 0.888802)
(0.326363 -0.0260296 0.764176)
(0.296185 0.0252763 0.981463)
(0.135254 -0.00121513 0.903852)
(0.0924772 0.00253012 0.864994)
(0.0603206 0.0325382 0.739243)
(0.00714233 0.0367922 0.712528)
(0.0018202 -0.010632 0.941572)
(-0.040978 -0.0330855 1.12331)
(-0.111492 0.0229275 1.04055)
(-0.260225 0.0661956 1.0239)
(-0.144142 0.0434592 1.12338)
(-0.0726167 0.0891061 0.699485)
(-0.313965 0.06923 0.800092)
(-0.274843 0.0378195 0.775963)
(-0.218787 0.0158877 0.695358)
(-0.165072 -0.00285209 0.707855)
(-0.126862 -0.00123309 0.646528)
(-0.0600683 -0.0712225 0.703838)
(0.00971919 -0.0747778 0.773653)
(-0.0173267 -0.151481 0.916036)
(-0.00545697 -0.0215903 0.595057)
(0.014917 0.0575708 0.986197)
(0.194538 0.0133333 0.919239)
(0.0872944 0.0456759 0.811911)
(-0.039305 0.0481678 0.714767)
(-0.102619 0.0352379 0.993386)
(-0.031612 0.0814516 1.08583)
(-0.027431 -0.0229762 0.95389)
(0.109412 0.0218083 0.842683)
(0.312747 -0.0367008 0.955608)
(0.280025 -0.0402686 1.17201)
(0.271672 0.0399447 1.01332)
(0.248359 0.052435 0.991192)
(0.121455 0.0584407 0.918468)
(0.0760792 0.0265698 0.897247)
(-0.00439474 0.0363773 0.782069)
(-0.052846 -0.0172648 0.894987)
(-0.21094 -0.0356489 0.797166)
(-0.280476 -0.00904834 0.852113)
(-0.181546 -0.0308475 1.05675)
(-0.133184 0.0531619 1.31103)
(-0.12116 0.0983774 1.30624)
(-0.250089 0.0147548 1.11814)
(-0.162195 0.0533986 0.906584)
(-0.18606 -0.0251184 0.754097)
(-0.122756 0.0770492 0.856568)
(0.0104897 -0.0275843 0.884559)
(-0.105376 0.0120882 0.71227)
(-0.0441238 0.0327841 0.628293)
(-0.0395027 -0.0213128 0.550785)
(-0.0686009 -0.0358199 0.735728)
(-0.00665738 -0.0519082 1.076)
(0.065759 0.0809117 0.867724)
(0.0492862 0.0999514 0.839587)
(0.224565 0.110665 1.17279)
(0.168557 0.063057 1.07513)
(-0.0898003 0.0568599 0.926488)
(-0.0364572 0.0279604 0.857945)
(-0.0109789 0.0485302 0.729095)
(-0.029722 -0.0484684 0.920043)
(0.0986781 0.0390348 0.858507)
(0.244494 -0.109816 0.820092)
(0.296358 -0.0459328 0.924131)
(0.324427 0.00185604 0.984113)
(0.251741 0.00997401 0.981586)
(0.116157 0.0717378 0.912111)
(0.0586185 -0.0119738 1.03463)
(-0.0756419 0.0354102 0.914997)
(-0.151612 -0.035491 0.784965)
(-0.23924 -0.0122264 0.820224)
(-0.307581 0.0244338 0.996339)
(-0.0865376 0.129324 1.45977)
(0.0359736 0.143171 1.36209)
(-0.154032 0.113055 1.17461)
(-0.244509 0.00995843 0.89127)
(-0.197428 0.0750686 0.805199)
(-0.147565 0.00281718 0.657594)
(-0.11511 0.0704549 0.68129)
(-0.050609 0.00437511 0.675801)
(-0.0359397 0.00634718 0.66036)
(-0.0802794 -0.0129872 0.561724)
(-0.108315 -0.0638975 0.700625)
(-0.0562373 -0.0486491 0.615286)
(0.0106715 -0.0110804 0.97558)
(0.0291465 0.0438354 0.729798)
(0.0250468 0.100355 0.869091)
(0.191338 0.129067 1.0634)
(0.0694227 -0.0792792 1.09592)
(-0.0746501 -0.0465605 0.961853)
(-0.0877495 -0.185585 1.12069)
(-0.0990328 -0.182581 0.956313)
(-0.0194838 -0.144664 1.02105)
(0.00579837 -0.045889 0.938523)
(0.209286 -0.0987896 0.866465)
(0.359451 -0.0422004 1.02124)
(0.28094 -0.0271052 0.902237)
(0.296201 -0.0397904 1.00579)
(0.128774 0.00060301 0.986341)
(0.0198855 -0.0351248 0.909794)
(-0.0315734 -0.0369305 0.83409)
(-0.122656 -0.0187959 0.767818)
(-0.225009 0.00579493 0.708358)
(-0.260293 0.0760735 1.15283)
(-0.051831 0.16589 1.44342)
(-0.143507 0.0621163 1.17805)
(-0.222894 0.0071986 0.906957)
(-0.215567 -0.0117352 0.870565)
(-0.163381 0.0566582 0.931243)
(-0.172239 0.0307024 0.746509)
(-0.104229 0.0045419 0.653693)
(-0.0678527 0.00250417 0.653881)
(-0.113946 -0.00446294 0.62436)
(-0.108668 -0.0328359 0.62808)
(-0.0579749 -0.0382123 0.67867)
(0.00883665 -0.0626475 0.66494)
(0.0818046 -0.0759485 1.02757)
(0.0689707 -0.030982 0.662747)
(0.0596909 0.0325708 0.819755)
(0.0473385 0.0254635 0.991375)
(0.00931424 -0.0847186 1.02644)
(-0.248854 -0.0375499 1.1638)
(-0.169145 -0.153161 1.10499)
(-0.0599262 -0.164204 1.07491)
(0.0375623 -0.0956496 1.00687)
(0.0287905 -0.0706326 1.08762)
(0.238851 -0.0159905 1.03618)
(0.353137 -0.0248042 0.993896)
(0.329322 -0.00182989 1.06212)
(0.262456 -0.00469221 1.01508)
(0.1297 -0.0134161 0.940402)
(0.0309021 6.73851e-05 0.995321)
(-0.0277822 -0.0270679 0.886483)
(-0.122142 -0.00898083 0.862891)
(-0.192617 -0.0211806 0.803304)
(-0.182526 0.0411711 1.06194)
(-0.135888 -0.0116285 1.33507)
(-0.130032 -0.0300668 1.19384)
(-0.23628 0.027293 1.16483)
(-0.205175 -0.0117979 1.1122)
(-0.158153 0.036169 0.911485)
(-0.241544 0.000334443 1.0285)
(-0.139625 -0.00809853 0.741852)
(-0.0668112 -0.0203627 0.623579)
(-0.078889 -0.000925449 0.614478)
(-0.119618 0.0171051 0.760126)
(-0.09619 -0.00130393 0.574992)
(-0.039252 -0.0566875 0.809262)
(0.0296649 -0.0939328 0.922107)
(-0.0878838 -0.0595031 0.631567)
(-0.0717793 0.0405129 0.783155)
(0.127879 -0.058743 0.760469)
(0.237704 -0.0642808 0.884736)
(0.0608519 -0.0697867 0.766219)
(0.0475448 0.0352749 0.94391)
(0.202662 0.0412205 0.974655)
(0.314152 -0.0188163 1.02598)
(0.270013 -0.054036 0.819593)
(0.22625 -0.00569545 0.928162)
(0.235356 0.060189 1.05647)
(0.282167 0.0595521 0.903555)
(0.23727 0.0122897 0.949387)
(0.113896 0.0183864 1.0462)
(0.0400437 -0.0201266 1.1021)
(-0.105035 -0.057459 0.907357)
(-0.286595 0.015334 1.12564)
(-0.394406 -0.0603682 0.879834)
(-0.472533 -0.0493839 0.801386)
(-0.30482 -0.0944313 1.0088)
(-0.0987794 -0.022597 1.24703)
(-0.119866 -0.02575 1.24213)
(-0.0234378 0.0826191 1.10234)
(0.0281521 -0.00290489 0.964005)
(-0.049965 0.0237557 0.928728)
(-0.0616446 0.0389823 0.721232)
(0.00519858 0.0514348 0.836199)
(0.0628261 0.027954 0.844516)
(0.00654964 -0.0235755 0.68055)
(-0.137391 -0.0266216 0.699055)
(-0.169113 -0.0206536 0.809266)
(-0.0655193 -0.0310611 1.21793)
(0.0165659 -0.0229184 0.766493)
(-0.0550087 0.0254804 0.663529)
(0.080606 -0.0432891 0.871455)
(0.306145 -0.0309959 1.06152)
(0.144006 -0.0774405 0.886063)
(0.180693 -0.0263159 0.887528)
(0.201554 -0.0441844 1.06959)
(0.176005 -0.107384 0.90826)
(0.279327 -0.0988013 0.793788)
(0.33978 -0.0259943 0.975482)
(0.2776 0.0168392 0.88607)
(0.276194 0.0379553 1.01763)
(0.207217 -0.0261268 1.07161)
(0.0906072 -0.0291598 1.01613)
(-0.0450601 -0.038463 1.01404)
(-0.107553 -0.0255619 0.980055)
(-0.237204 -0.00256231 0.950205)
(-0.43504 -0.110712 0.873311)
(-0.548116 -0.109525 0.942175)
(-0.229478 -0.0606365 1.1673)
(0.00159895 -0.00027332 1.24983)
(-0.000526699 0.0784849 1.15853)
(0.032817 0.0515678 1.04421)
(-0.0247379 -0.0159695 0.846327)
(0.00635248 0.0205533 0.830796)
(-0.0274357 0.0448048 0.804626)
(-0.0272225 0.082221 0.730769)
(-0.0307574 0.0267773 0.811916)
(-0.0491539 -0.0088568 0.766229)
(-0.116103 -0.0599538 0.670169)
(-0.131947 0.00399858 0.687936)
(-0.0478659 -0.0196985 1.04704)
(-0.0455284 0.0833388 0.786652)
(-0.0815153 0.0216699 0.670713)
(0.108742 0.0219259 0.809374)
(0.25955 -0.0549202 1.03923)
(0.0433766 -0.0843049 1.00757)
(0.080544 -0.0799421 1.00269)
(0.117214 -0.145845 1.05634)
(0.173463 -0.0697323 0.911125)
(0.365266 -0.101844 0.938639)
(0.304168 -0.0665445 0.83056)
(0.287218 -0.0510215 0.989203)
(0.260866 -0.055321 0.948697)
(0.189988 -0.0324118 0.998401)
(0.113515 -0.0225367 1.03969)
(0.0227294 0.00495983 0.98769)
(-0.0907349 0.0527652 1.04568)
(-0.294394 -0.085381 0.877789)
(-0.576888 -0.0652899 1.0176)
(-0.529838 -0.0500185 1.01762)
(-0.125643 0.12429 1.3383)
(0.108915 0.0113524 1.16763)
(-0.0267105 0.0274973 1.09097)
(-0.0864327 -0.035742 1.0961)
(0.0250721 -0.0602381 0.948611)
(0.0336088 -0.0706671 0.860736)
(0.00346597 0.00505631 0.775069)
(-0.0192037 0.0255825 0.74543)
(-0.0414081 0.0119867 0.816071)
(-0.0837426 -0.0515833 0.715364)
(-0.131004 0.0157659 0.842973)
(-0.0932039 0.0171424 0.695242)
(-0.0736485 -0.0294533 1.11285)
(-0.0420967 0.030395 0.643163)
(-0.154886 0.0377856 0.765407)
(0.00694993 -0.00325754 0.897508)
(0.13933 -0.0748203 0.86041)
(0.0945008 -0.0709505 0.991767)
(0.106343 -0.00720492 0.963388)
(0.140227 -0.0414839 0.890069)
(0.148679 0.024121 1.04165)
(0.253659 -0.0535738 1.10928)
(0.320603 -0.0599712 0.91704)
(0.344568 -0.011803 1.1644)
(0.272207 -0.0311217 1.05161)
(0.218624 -0.000459825 1.01852)
(0.164259 0.0164823 1.17404)
(0.0224559 0.0378208 1.08791)
(-0.247126 0.0130957 1.00593)
(-0.361586 -0.0859078 0.996003)
(-0.440279 -0.000374886 0.952097)
(-0.597747 -0.000150105 1.21031)
(-0.14255 0.0745067 1.29996)
(-0.0355976 -0.00525118 1.24859)
(-0.0419103 -0.10657 1.18534)
(-0.0794083 -0.000225976 1.12997)
(-0.0415276 -0.0455293 0.955515)
(0.0875242 -0.0717393 0.981263)
(0.0590889 0.012202 0.75551)
(-0.0165409 -0.0066062 0.721651)
(-0.117733 0.0125351 0.866598)
(-0.0436058 -0.0730868 0.74678)
(-0.0340521 0.0500948 0.767755)
(-0.131906 -0.00163406 0.793436)
(-0.0795181 -0.0154506 0.973349)
(-0.0598421 0.00187795 0.861404)
(-0.00581045 -0.00122309 0.851983)
(-0.0616818 -0.0625796 0.808784)
(-0.0359335 -0.032337 1.01118)
(0.141892 -0.0640921 1.06962)
(0.151716 -0.00772637 0.94455)
(0.223282 -0.066514 1.00312)
(0.355946 -0.0210186 1.08322)
(0.431658 -0.0288903 1.07003)
(0.3373 0.0513416 1.0546)
(0.330981 0.0413132 1.10247)
(0.273242 -0.00314437 0.969559)
(0.184632 -0.0504178 1.16066)
(0.0739299 -0.00308987 1.11487)
(0.00681242 -0.00827272 1.14126)
(-0.240821 -0.0556883 1.16602)
(-0.330488 0.0659746 1.18802)
(-0.381603 0.0122041 1.17721)
(-0.558463 -0.0332054 1.13665)
(-0.50155 -0.0227086 1.21274)
(-0.218007 -0.0103718 1.43324)
(-0.0462285 -0.0242686 1.40096)
(0.051454 -0.00561004 1.09417)
(0.133768 0.0294077 1.11066)
(0.142891 0.00327785 0.922558)
(0.0364512 -0.0454229 0.880774)
(-0.0366247 -0.00987982 0.841024)
(-0.017128 0.00510992 0.748517)
(-0.0616639 -0.00875101 0.888755)
(-0.097428 -0.00492441 0.856044)
(-0.170795 0.000640093 0.841255)
(-0.173633 0.0471991 1.1413)
(-0.0602811 -0.0237347 0.855141)
(-0.0832484 -0.000108145 0.956068)
(-0.0761547 -0.0830204 0.838352)
(0.0179201 -0.0223654 1.13021)
(0.168522 -0.0871481 1.10973)
(0.146708 -0.0377809 0.95923)
(0.220855 -0.088471 0.975391)
(0.388501 -0.0118768 1.04409)
(0.416269 -0.0318561 0.8407)
(0.371986 0.0370583 0.895256)