/*--------------------------------*- C++ -*----------------------------------*\
| =========                 |                                                 |
| \\      /  F ield         | OpenFOAM: The Open Source CFD Toolbox           |
|  \\    /   O peration     | Version:  4.x                                   |
|   \\  /    A nd           | Web:      www.OpenFOAM.org                      |
|    \\/     M anipulation  |                                                 |
\*---------------------------------------------------------------------------*/
FoamFile
{
    version     2.0;
    format      ascii;
    class       volScalarField;
    location    "0";
    object      voidfractionMean;
}
// * * * * * * * * * * * * * * * * * * * * * * * * * * * * * * * * * * * * * //

dimensions      [0 0 0 0 0 0 0];

internalField   nonuniform List<scalar> 
4725
(
0.437937
0.428136
0.434294
0.422719
0.435713
0.421849
0.440839
0.428684
0.452091
0.417883
0.407985
0.409468
0.40892
0.410242
0.408404
0.407502
0.402375
0.434778
0.414659
0.411661
0.41295
0.39986
0.411532
0.415949
0.407211
0.418464
0.446804
0.413982
0.409662
0.404922
0.408211
0.410178
0.410081
0.403987
0.407502
0.440452
0.414691
0.417109
0.408985
0.407598
0.40992
0.414433
0.406309
0.406792
0.430103
0.417529
0.407244
0.415626
0.402375
0.412177
0.408372
0.40431
0.402988
0.426137
0.413144
0.414627
0.415659
0.416336
0.415497
0.415336
0.409791
0.411693
0.419237
0.415304
0.415626
0.413047
0.412338
0.41208
0.416013
0.404761
0.414595
0.427169
0.408308
0.413692
0.414014
0.41079
0.41079
0.410178
0.412757
0.40547
0.4282
0.412112
0.408114
0.415239
0.411596
0.411274
0.412241
0.409243
0.406244
0.425299
0.413402
0.409081
0.409758
0.40489
0.408598
0.410919
0.410984
0.406599
0.43423
0.41179
0.408179
0.402891
0.410016
0.410532
0.412402
0.407437
0.407437
0.437099
0.409468
0.412273
0.407147
0.406599
0.4105
0.412048
0.406953
0.406631
0.432521
0.409694
0.410436
0.402375
0.414047
0.408694
0.412015
0.405567
0.408275
0.432714
0.41208
0.412306
0.400666
0.410081
0.411371
0.407147
0.405632
0.411048
0.437873
0.410049
0.412757
0.403342
0.412983
0.404439
0.405567
0.405406
0.410693
0.439936
0.409629
0.412338
0.402601
0.408533
0.405664
0.405599
0.406373
0.407953
0.433133
0.404568
0.411628
0.402278
0.41266
0.40734
0.404697
0.402988
0.405986
0.432843
0.407405
0.409501
0.409404
0.411919
0.409533
0.402085
0.404213
0.403149
0.434359
0.411113
0.407469
0.404987
0.410984
0.407469
0.403375
0.405696
0.403891
0.432134
0.405728
0.405245
0.40834
0.409565
0.405309
0.405245
0.401343
0.406599
0.429264
0.410855
0.403536
0.412048
0.405664
0.408694
0.40302
0.398345
0.408372
0.431328
0.409468
0.406373
0.412273
0.409533
0.414143
0.403987
0.404826
0.405889
0.430328
0.41108
0.403504
0.407631
0.409984
0.411532
0.405212
0.404213
0.408985
0.434004
0.415014
0.40647
0.407985
0.409791
0.408404
0.405922
0.405051
0.410661
0.426879
0.411564
0.408275
0.406953
0.413756
0.409629
0.40647
0.406373
0.405986
0.42604
0.411306
0.407598
0.407502
0.406276
0.409307
0.403439
0.407082
0.404954
0.426653
0.410919
0.41021
0.407244
0.407082
0.408727
0.404954
0.40734
0.404245
0.427265
0.404826
0.40892
0.402214
0.402633
0.404439
0.402278
0.405116
0.400151
0.425299
0.404245
0.401118
0.396894
0.401247
0.400924
0.401924
0.401537
0.399506
0.418109
0.403181
0.399796
0.39799
0.398732
0.392445
0.399828
0.399989
0.393767
0.417271
0.400118
0.394154
0.393444
0.39612
0.390349
0.393154
0.395927
0.394218
0.409694
0.395991
0.394057
0.388447
0.388705
0.388544
0.390123
0.393509
0.391058
0.407244
0.39425
0.388608
0.390285
0.38648
0.389156
0.389672
0.392638
0.389188
0.406115
0.390833
0.389092
0.390607
0.387222
0.390575
0.392316
0.386287
0.393444
0.407276
0.502968
0.499776
0.501904
0.498841
0.495682
0.499615
0.49652
0.503323
0.508707
0.843823
0.845596
0.847466
0.838987
0.837923
0.841115
0.852399
0.847144
0.859041
0.969242
0.973369
0.97108
0.978302
0.968146
0.972176
0.972176
0.973788
0.979204
0.98475
0.978882
0.984008
0.985911
0.990199
0.983686
0.985072
0.988264
0.989876
0.986555
0.988716
0.993584
0.990908
0.986781
0.986942
0.986975
0.990521
0.984847
0.986846
0.988458
0.98446
0.987458
0.99165
0.983912
0.989231
0.98375
0.986459
0.98633
0.980784
0.983654
0.982235
0.986813
0.991005
0.984202
0.983267
0.986072
0.983299
0.977947
0.976528
0.977625
0.98001
0.984395
0.974852
0.974658
0.971531
0.96634
0.966372
0.973401
0.96979
0.972176
0.971886
0.970564
0.964341
0.974497
0.966759
0.957022
0.963857
0.968726
0.964051
0.959376
0.965631
0.964535
0.969629
0.95828
0.958409
0.946222
0.952992
0.954056
0.952928
0.959344
0.952702
0.960601
0.955185
0.949188
0.959924
0.950961
0.955733
0.941869
0.949188
0.961117
0.954411
0.951445
0.954443
0.957055
0.949188
0.939677
0.949284
0.957216
0.945931
0.949446
0.951058
0.960633
0.9557
0.949575
0.957861
0.954733
0.959021
0.951799
0.954701
0.961117
0.957248
0.9626
0.962665
0.967759
0.963309
0.96505
0.959311
0.967243
0.970177
0.974529
0.97224
0.972885
0.976528
0.971112
0.974078
0.970886
0.967694
0.971886
0.984266
0.978173
0.981622
0.980043
0.979946
0.976141
0.977463
0.977334
0.981526
0.983976
0.981655
0.98288
0.979946
0.983944
0.975851
0.978237
0.9744
0.981848
0.982364
0.983686
0.986878
0.983331
0.986265
0.984943
0.984298
0.982557
0.980816
0.989393
0.989941
0.98878
0.983589
0.986072
0.988232
0.985814
0.980655
0.986491
0.990876
0.990424
0.988071
0.986588
0.985911
0.988329
0.990134
0.988103
0.991553
0.991456
0.990005
0.994035
0.99036
0.986588
0.989328
0.987523
0.987103
0.994422
0.989715
0.988167
0.990747
0.995261
0.993745
0.989715
0.991327
0.98978
0.991682
0.990392
0.9882
0.987684
0.997485
0.981977
0.987877
0.995454
0.987297
0.986459
0.980978
0.984685
0.986717
0.987555
0.985459
0.983492
0.989328
0.988941
0.967307
0.977109
0.974594
0.983879
0.973046
0.979752
0.977205
0.977173
0.982815
0.981203
0.974271
0.981461
0.982686
0.972144
0.971241
0.972401
0.974594
0.983428
0.978527
0.97598
0.976077
0.984653
0.978076
0.987877
0.974658
0.975335
0.985169
0.976012
0.973562
0.971692
0.98662
0.980655
0.975335
0.979398
0.979462
0.986459
0.978431
0.975497
0.976045
0.985233
0.971305
0.978592
0.975464
0.98001
0.974433
0.977076
0.979688
0.973949
0.986136
0.975013
0.978173
0.977689
0.970467
0.981332
0.977431
0.977496
0.97669
0.99094
0.968113
0.974755
0.970016
0.978463
0.983783
0.98604
0.991811
0.986362
0.990843
0.990521
0.990392
0.986717
0.987974
0.989199
1
1
1
1
1
1
1
1
1
1
1
1
1
1
1
1
1
1
1
1
1
1
1
1
1
1
1
1
1
1
1
1
1
1
1
1
1
1
1
1
1
1
1
1
1
1
1
1
1
1
1
1
1
1
1
1
1
1
1
1
1
1
1
0.427878
0.414788
0.412273
0.408598
0.412725
0.421204
0.407308
0.398925
0.438066
0.404406
0.399054
0.397732
0.395379
0.395282
0.400731
0.389253
0.389156
0.420592
0.399119
0.397926
0.399506
0.397861
0.398796
0.398055
0.395637
0.392606
0.403375
0.406953
0.397603
0.400699
0.402536
0.404826
0.39496
0.400441
0.38964
0.421913
0.40086
0.397055
0.398023
0.395089
0.397894
0.399989
0.39928
0.399828
0.409275
0.398925
0.398603
0.394444
0.398603
0.399054
0.393831
0.400666
0.398506
0.412628
0.396443
0.401021
0.392058
0.396926
0.396604
0.39122
0.395637
0.394573
0.415207
0.390897
0.392187
0.390736
0.390639
0.392767
0.393477
0.397958
0.396894
0.413498
0.392026
0.392509
0.392961
0.394734
0.395572
0.394541
0.393992
0.399538
0.417529
0.393251
0.390285
0.388511
0.392413
0.392187
0.392574
0.396507
0.395153
0.405761
0.384352
0.394025
0.391768
0.391381
0.390349
0.390897
0.395185
0.396894
0.419366
0.388544
0.389898
0.389833
0.389511
0.387254
0.392348
0.393735
0.397281
0.418367
0.383546
0.390414
0.384288
0.385513
0.390768
0.381096
0.393573
0.396056
0.422397
0.385835
0.383772
0.386416
0.386287
0.387254
0.388125
0.38748
0.391252
0.418109
0.380612
0.388028
0.388834
0.383836
0.384804
0.390156
0.385352
0.395669
0.414659
0.385803
0.386448
0.39238
0.382418
0.382321
0.38935
0.382772
0.392671
0.414562
0.388511
0.384127
0.3918
0.380483
0.385029
0.390317
0.381322
0.389446
0.411435
0.385868
0.386545
0.386255
0.385674
0.386416
0.385287
0.383385
0.387028
0.414111
0.384997
0.389833
0.385513
0.385481
0.384868
0.3859
0.384481
0.385513
0.410436
0.387931
0.393477
0.386738
0.384933
0.380935
0.386577
0.383675
0.384514
0.414917
0.385997
0.389092
0.385545
0.38403
0.38403
0.390768
0.384094
0.386512
0.412241
0.385223
0.391413
0.387093
0.388673
0.385094
0.392477
0.383514
0.382482
0.414304
0.386867
0.391671
0.388963
0.387899
0.384868
0.389446
0.384675
0.383321
0.416142
0.388802
0.389027
0.386287
0.387963
0.385158
0.388673
0.3859
0.385706
0.41395
0.385062
0.391445
0.391026
0.39238
0.389543
0.388834
0.388898
0.383579
0.416981
0.386577
0.389317
0.384804
0.393767
0.388995
0.389188
0.385094
0.384223
0.414498
0.387576
0.387641
0.389382
0.394121
0.388834
0.389543
0.385029
0.385481
0.417593
0.388253
0.387157
0.387222
0.389672
0.38935
0.38561
0.385577
0.384771
0.415368
0.383353
0.383159
0.386158
0.387738
0.385481
0.382837
0.385223
0.380193
0.407695
0.381644
0.381451
0.382515
0.387286
0.383965
0.379806
0.381709
0.380193
0.404535
0.378775
0.376647
0.376743
0.384642
0.379742
0.380032
0.379419
0.374422
0.403471
0.375841
0.377195
0.372584
0.382095
0.375873
0.378775
0.375389
0.37339
0.399699
0.373003
0.3731
0.374261
0.37597
0.371004
0.377646
0.369231
0.372359
0.397571
0.372294
0.372326
0.370392
0.37281
0.368103
0.371875
0.370746
0.371391
0.392316
0.374164
0.370102
0.371585
0.376453
0.36994
0.373326
0.370005
0.373261
0.395476
0.488363
0.485654
0.487299
0.496552
0.493199
0.486589
0.487524
0.482656
0.501549
0.844403
0.851593
0.84176
0.857558
0.849175
0.838374
0.836182
0.840631
0.850562
0.96692
0.969435
0.973401
0.971853
0.971531
0.957957
0.968565
0.962794
0.974658
0.98907
0.986007
0.983363
0.978334
0.983396
0.985008
0.987361
0.984653
0.986136
0.986491
0.984976
0.983976
0.989393
0.99194
0.985298
0.982977
0.984395
0.989715
0.987587
0.984589
0.984298
0.984814
0.98978
0.983299
0.985878
0.982751
0.987684
0.983815
0.985749
0.976303
0.98317
0.980075
0.985427
0.976561
0.97885
0.98288
0.974239
0.976528
0.975142
0.974562
0.977238
0.977109
0.982171
0.977657
0.980945
0.968919
0.964921
0.97727
0.96879
0.970209
0.967082
0.965921
0.969339
0.972627
0.961665
0.959731
0.961794
0.962116
0.959086
0.958086
0.960537
0.963857
0.963567
0.963825
0.942578
0.95512
0.952766
0.957409
0.952799
0.958022
0.953927
0.960537
0.953347
0.94864
0.947253
0.94922
0.953057
0.943578
0.94677
0.950929
0.956506
0.949961
0.950574
0.945673
0.953959
0.946254
0.952412
0.951541
0.941514
0.95109
0.954379
0.9439
0.956926
0.955894
0.953121
0.956313
0.952186
0.946028
0.963664
0.958183
0.959183
0.939451
0.960988
0.962665
0.957861
0.965534
0.961439
0.969919
0.970016
0.968823
0.959795
0.971628
0.971112
0.96289
0.967243
0.962955
0.973175
0.971886
0.977399
0.969887
0.975174
0.965018
0.976915
0.97166
0.976012
0.975529
0.974916
0.974916
0.975722
0.97669
0.973433
0.97814
0.977786
0.982686
0.98101
0.981913
0.992327
0.98259
0.977076
0.984685
0.987071
0.984008
0.977044
0.989876
0.990166
0.984976
0.985201
0.986072
0.982783
0.982654
0.984718
0.99036
0.986394
0.98346
0.987781
0.988812
0.989973
0.988877
0.9882
0.989618
0.985362
0.984234
0.993423
0.996808
0.990037
0.986201
0.991295
0.992907
0.989038
0.989199
0.985943
0.990908
0.990908
0.993777
0.991166
0.991263
0.989586
0.987748
0.993939
0.99223
0.988651
0.985717
0.992069
0.990005
0.992746
0.987942
0.98159
0.991875
0.987781
0.98749
0.979237
0.984008
0.986168
0.986491
0.982493
0.985137
0.984331
0.98749
0.970338
0.969081
0.968113
0.980333
0.967662
0.969242
0.984653
0.970854
0.972176
0.973627
0.9882
0.97253
0.984266
0.973723
0.975432
0.974626
0.97727
0.984782
0.976335
0.978656
0.967275
0.987394
0.973852
0.973369
0.977689
0.974884
0.979204
0.971241
0.974723
0.977109
0.986878
0.978979
0.970951
0.976335
0.964857
0.979495
0.964728
0.972272
0.97943
0.970241
0.978688
0.978495
0.979043
0.97885
0.974723
0.966372
0.973433
0.974465
0.982493
0.977399
0.975626
0.969467
0.973369
0.98662
0.962955
0.977044
0.970274
0.977786
0.974304
0.973756
0.978914
0.980526
0.978011
0.992488
0.985943
0.98446
0.991101
0.983073
0.986684
0.988973
0.990134
0.986168
1
1
1
1
1
1
1
1
1
1
1
1
1
1
1
1
1
1
1
1
1
1
1
1
1
1
1
1
1
1
1
1
1
1
1
1
1
1
1
1
1
1
1
1
1
1
1
1
1
1
1
1
1
1
1
1
1
1
1
1
1
1
1
0.43797
0.429103
0.420527
0.432682
0.433972
0.421462
0.43639
0.431586
0.443999
0.415207
0.404439
0.403665
0.414982
0.412467
0.418883
0.413595
0.41611
0.438808
0.41669
0.41424
0.410758
0.415594
0.406373
0.411919
0.411661
0.415401
0.435261
0.414691
0.406147
0.409501
0.408791
0.416239
0.407405
0.41108
0.403697
0.436422
0.409049
0.414143
0.412531
0.414562
0.411242
0.410242
0.407147
0.412854
0.426363
0.407824
0.409629
0.409694
0.408082
0.410758
0.413627
0.415401
0.410532
0.428297
0.418077
0.412434
0.410597
0.4046
0.412144
0.409565
0.413241
0.407179
0.428587
0.416852
0.415014
0.411661
0.407759
0.411306
0.412177
0.406824
0.411983
0.425234
0.412628
0.414401
0.408114
0.406599
0.410371
0.406857
0.41208
0.415691
0.424267
0.413402
0.41395
0.415562
0.409952
0.4105
0.408985
0.406663
0.414853
0.42862
0.412757
0.410468
0.41079
0.408275
0.410919
0.410629
0.406792
0.419463
0.425395
0.409629
0.409662
0.40676
0.410887
0.409146
0.408856
0.407663
0.418335
0.425653
0.413789
0.405148
0.410887
0.40244
0.410532
0.406857
0.404664
0.410468
0.432134
0.413724
0.405954
0.410307
0.407727
0.411854
0.40992
0.408759
0.410049
0.432843
0.411822
0.406696
0.407276
0.402246
0.412821
0.408791
0.407502
0.402311
0.433617
0.412692
0.405889
0.411693
0.403987
0.414691
0.40547
0.410242
0.405438
0.435068
0.412821
0.407921
0.408308
0.408114
0.411338
0.406147
0.409855
0.402246
0.430844
0.412692
0.403084
0.408952
0.404342
0.411306
0.410822
0.402891
0.405277
0.429877
0.412531
0.405277
0.403729
0.405535
0.410629
0.41021
0.407373
0.405277
0.430973
0.413982
0.405632
0.409049
0.406728
0.407502
0.409823
0.408146
0.401924
0.433553
0.414627
0.402053
0.405277
0.410532
0.403536
0.41021
0.40676
0.407759
0.43136
0.412273
0.404664
0.407211
0.411177
0.406663
0.411596
0.403697
0.405986
0.433649
0.408437
0.402762
0.405889
0.41208
0.405825
0.411016
0.404116
0.406921
0.433488
0.413821
0.406889
0.406986
0.407727
0.408533
0.409952
0.406663
0.406857
0.433037
0.411145
0.409017
0.410049
0.410113
0.41079
0.408952
0.402569
0.404729
0.430812
0.409468
0.407888
0.408727
0.410468
0.407211
0.407244
0.40805
0.400892
0.431038
0.406534
0.411854
0.413176
0.410403
0.403439
0.410693
0.40547
0.406663
0.430006
0.408404
0.410016
0.408888
0.408146
0.402827
0.410274
0.406599
0.40057
0.431554
0.402956
0.406663
0.410049
0.403987
0.397797
0.407018
0.401924
0.400957
0.427427
0.398732
0.404761
0.404148
0.403084
0.396668
0.404535
0.402536
0.397797
0.421559
0.396604
0.405019
0.402117
0.398796
0.392026
0.400118
0.395895
0.39367
0.419076
0.389608
0.402536
0.399022
0.395701
0.390833
0.394895
0.397249
0.386899
0.418302
0.384965
0.396153
0.396411
0.392187
0.38835
0.390801
0.395056
0.3859
0.415368
0.385545
0.392187
0.391316
0.390801
0.385642
0.387738
0.392767
0.386093
0.410726
0.388415
0.39209
0.385706
0.391187
0.392284
0.386964
0.392348
0.38719
0.412144
0.502033
0.511286
0.496133
0.513446
0.506192
0.503806
0.504999
0.496907
0.510835
0.852625
0.86162
0.861556
0.8455
0.863103
0.853238
0.844952
0.844275
0.853721
0.972272
0.969403
0.970886
0.971886
0.970886
0.974723
0.970338
0.974755
0.974884
0.98288
0.984685
0.986007
0.988071
0.98446
0.988973
0.988845
0.989586
0.986136
0.987007
0.983686
0.987781
0.985233
0.984524
0.992488
0.989457
0.985717
0.990199
0.989231
0.987716
0.985814
0.986233
0.980301
0.986168
0.98533
0.985943
0.989586
0.978334
0.976851
0.981074
0.984234
0.985846
0.983106
0.981848
0.98446
0.979656
0.974691
0.976496
0.97698
0.979075
0.976625
0.973691
0.981526
0.980687
0.981945
0.965631
0.970016
0.962536
0.9754
0.975561
0.97382
0.962761
0.968113
0.968081
0.966727
0.958602
0.964857
0.961407
0.967114
0.965566
0.962149
0.960118
0.96763
0.956023
0.956087
0.948188
0.959021
0.956184
0.955023
0.958022
0.966695
0.964083
0.951767
0.959247
0.95641
0.956635
0.941192
0.953701
0.952154
0.953701
0.959311
0.942643
0.957732
0.94577
0.953701
0.95641
0.960891
0.957022
0.952154
0.953734
0.959989
0.9508
0.95612
0.95699
0.954991
0.964019
0.965824
0.956442
0.961149
0.962794
0.965179
0.968597
0.961859
0.951187
0.967952
0.964567
0.968661
0.959247
0.976109
0.969274
0.969951
0.96692
0.966759
0.97353
0.976561
0.963503
0.974626
0.969983
0.980043
0.975755
0.975851
0.973885
0.971724
0.970693
0.965018
0.978527
0.983073
0.973594
0.98188
0.982428
0.984105
0.974368
0.979946
0.978817
0.980687
0.983041
0.988587
0.985427
0.981493
0.980462
0.982428
0.98978
0.970822
0.985427
0.97698
0.992004
0.992842
0.985685
0.986168
0.985169
0.990779
0.982654
0.983073
0.992327
0.988651
0.990005
0.98662
0.988393
0.989231
0.99194
0.992165
0.991811
0.991166
0.992778
0.990005
0.993068
0.987103
0.990424
0.989328
0.986652
0.989264
0.993358
0.99165
0.991907
0.990199
0.991714
0.989489
0.99094
0.99007
0.991843
0.991456
0.988522
0.991005
0.989296
0.990618
0.992488
0.991488
0.99439
0.989296
0.981687
0.977141
0.983428
0.985749
0.989522
0.980849
0.980558
0.98446
0.988006
0.979591
0.978882
0.969532
0.97972
0.98159
0.976464
0.979559
0.9685
0.980204
0.975529
0.978495
0.980945
0.987168
0.976593
0.981107
0.9744
0.969887
0.977979
0.977238
0.977173
0.98001
0.983106
0.972917
0.97511
0.975013
0.977754
0.97756
0.973401
0.974562
0.974175
0.987168
0.976625
0.978269
0.977915
0.979011
0.979301
0.981268
0.97511
0.977367
0.984427
0.980075
0.978205
0.981171
0.976206
0.98043
0.977689
0.976174
0.979075
0.979237
0.977496
0.977818
0.975658
0.982815
0.981622
0.979366
0.975077
0.97727
0.982396
0.971692
0.968597
0.974014
0.981429
0.984943
0.989522
0.989618
0.985685
0.994422
0.992713
0.987523
0.992939
0.985943
0.988845
1
1
1
1
1
1
1
1
1
1
1
1
1
1
1
1
1
1
1
1
1
1
1
1
1
1
1
1
1
1
1
1
1
1
1
1
1
1
1
1
1
1
1
1
1
1
1
1
1
1
1
1
1
1
1
1
1
1
1
1
1
1
1
0.476655
0.423534
0.417694
0.411572
0.413857
0.408017
0.410697
0.415352
0.40751
0.407961
0.407651
0.405591
0.409202
0.405225
0.405225
0.410077
0.407594
0.408864
0.410641
0.410415
0.40782
0.406833
0.408751
0.404576
0.406184
0.409908
0.409513
0.406381
0.403955
0.399469
0.395322
0.392135
0.391881
0.383587
0.388185
0.50859
0.856518
0.965611
0.984286
0.990098
0.987982
0.981042
0.973707
0.973199
0.964877
0.956555
0.948007
0.941518
0.95568
0.961238
0.96547
0.975033
0.978983
0.98423
0.986035
0.985302
0.990944
0.994471
0.990662
0.988574
0.974554
0.98234
0.975682
0.977882
0.979124
0.981099
0.973848
0.989252
1
1
1
1
1
1
1
0.46554
0.426468
0.413067
0.414901
0.409259
0.412898
0.413942
0.415747
0.411544
0.407792
0.408412
0.409287
0.407848
0.407171
0.411544
0.409202
0.414421
0.413942
0.408751
0.411346
0.411628
0.409146
0.410415
0.410923
0.408779
0.408328
0.409569
0.410049
0.406663
0.402742
0.397551
0.394166
0.391993
0.393319
0.391316
0.505092
0.854487
0.979067
0.9866
0.982848
0.982537
0.982255
0.975485
0.969701
0.961351
0.964087
0.961633
0.950207
0.956075
0.955652
0.974497
0.974582
0.977262
0.979716
0.98471
0.988349
0.988687
0.993342
0.990436
0.986205
0.982876
0.983017
0.983384
0.98344
0.986374
0.983327
0.97856
0.992411
1
1
1
1
1
1
1
0.475442
0.425226
0.423759
0.410839
0.413688
0.411572
0.414845
0.412193
0.412503
0.410528
0.410415
0.410303
0.410077
0.407453
0.408807
0.402206
0.405112
0.401896
0.402206
0.404801
0.404886
0.41098
0.405366
0.405112
0.406691
0.408017
0.404576
0.406071
0.400316
0.396141
0.397466
0.390837
0.392417
0.389229
0.390837
0.499816
0.840607
0.967416
0.98533
0.988321
0.986543
0.985979
0.977798
0.973115
0.969476
0.952944
0.949333
0.945101
0.955539
0.968009
0.970519
0.981437
0.983299
0.987079
0.987644
0.991762
0.993652
0.992722
0.992496
0.986487
0.981183
0.977459
0.978362
0.978954
0.979152
0.974469
0.975202
0.985612
1
1
1
1
1
1
1
0.464158
0.416396
0.401924
0.40435
0.398708
0.40277
0.401162
0.397777
0.392417
0.392812
0.393884
0.387141
0.390301
0.385646
0.387395
0.383869
0.383107
0.382768
0.384743
0.388806
0.38889
0.392163
0.389596
0.389962
0.393545
0.39174
0.39016
0.39157
0.385025
0.384574
0.377634
0.376985
0.373826
0.370017
0.370243
0.484526
0.843767
0.967783
0.987869
0.987051
0.983581
0.986459
0.969729
0.965808
0.958812
0.951392
0.938895
0.952239
0.94496
0.959432
0.959432
0.971732
0.977685
0.986938
0.990803
0.981776
0.991932
0.989929
0.993681
0.983638
0.973679
0.971817
0.971084
0.978898
0.97162
0.978503
0.973933
0.988941
1
1
1
1
1
1
1
0.453268
0.414365
0.408102
0.404152
0.396197
0.394645
0.395915
0.391486
0.394109
0.390357
0.386436
0.38748
0.385956
0.385392
0.382345
0.382176
0.379976
0.379863
0.38291
0.382148
0.383361
0.380596
0.384715
0.382966
0.383107
0.387818
0.386238
0.389793
0.384151
0.382148
0.380653
0.383304
0.378001
0.37597
0.373797
0.491494
0.839168
0.971845
0.986628
0.98454
0.984258
0.979265
0.978165
0.969504
0.960984
0.951985
0.949276
0.953762
0.95836
0.957373
0.966739
0.965159
0.977008
0.982707
0.986346
0.987474
0.990521
0.990239
0.984371
0.985161
0.977544
0.979434
0.984569
0.982171
0.981183
0.977629
0.978503
0.990295
1
1
1
1
1
1
1
0.465484
0.420346
0.405478
0.394674
0.403701
0.398144
0.398059
0.394815
0.392812
0.394053
0.389624
0.38164
0.384546
0.387734
0.390442
0.39174
0.390385
0.387593
0.389596
0.38999
0.385646
0.386097
0.384235
0.384348
0.388636
0.388947
0.386351
0.384659
0.383135
0.383192
0.377493
0.374531
0.370892
0.366773
0.369001
0.491861
0.850819
0.972043
0.986374
0.991255
0.987869
0.982566
0.980252
0.965385
0.96798
0.9497
0.945947
0.950631
0.951844
0.955229
0.967698
0.964792
0.981691
0.977967
0.984569
0.985246
0.990098
0.989816
0.987644
0.981014
0.973312
0.972607
0.976557
0.981127
0.970604
0.969447
0.976162
0.992609
1
1
1
1
1
1
1
0.478997
0.42548
0.413039
0.4217
0.412785
0.416763
0.412306
0.411036
0.409513
0.411036
0.408074
0.407792
0.4083
0.407622
0.405478
0.41002
0.405761
0.411064
0.411092
0.410049
0.411205
0.410895
0.411375
0.411882
0.41098
0.406353
0.409343
0.409484
0.403052
0.398651
0.396535
0.391006
0.387395
0.386803
0.388636
0.500494
0.852484
0.979237
0.987136
0.985838
0.986092
0.985894
0.977911
0.975795
0.964708
0.952803
0.954298
0.957768
0.963862
0.970435
0.969391
0.973594
0.977375
0.981776
0.981437
0.987587
0.989703
0.991085
0.992524
0.986825
0.976331
0.978024
0.980168
0.982142
0.979885
0.976415
0.979462
0.989731
1
1
1
1
1
1
1
0.467092
0.434903
0.412842
0.411911
0.41366
0.405055
0.410669
0.414591
0.412136
0.410246
0.408187
0.401755
0.409202
0.410895
0.411826
0.413208
0.414901
0.4105
0.410951
0.410218
0.413885
0.407989
0.413772
0.409061
0.411826
0.412362
0.406043
0.408384
0.405196
0.401162
0.397946
0.392135
0.393009
0.388157
0.386887
0.508167
0.855305
0.973312
0.986713
0.986938
0.983243
0.977516
0.977205
0.96372
0.966147
0.953875
0.943155
0.959686
0.963156
0.959686
0.964821
0.976472
0.979124
0.985217
0.98849
0.987559
0.985528
0.993935
0.995514
0.988885
0.977488
0.982876
0.983384
0.980873
0.981888
0.981183
0.975908
0.986713
1
1
1
1
1
1
1
0.479025
0.427568
0.417863
0.412644
0.415888
0.410556
0.412249
0.41555
0.410782
0.414845
0.413547
0.411741
0.405225
0.411318
0.411262
0.411008
0.406099
0.407002
0.403814
0.406325
0.406353
0.404265
0.405873
0.406776
0.408779
0.408158
0.410754
0.409879
0.405281
0.399244
0.399921
0.394815
0.393545
0.387931
0.38858
0.508252
0.856039
0.968206
0.985725
0.989336
0.991283
0.982086
0.979603
0.970463
0.965977
0.953564
0.953311
0.948345
0.950743
0.971422
0.969927
0.980365
0.98296
0.98643
0.98612
0.986769
0.989477
0.991706
0.992496
0.984484
0.975654
0.979491
0.981663
0.979603
0.975287
0.973538
0.981381
0.988236
1
1
1
1
1
1
1
0.436325
0.418947
0.411371
0.41611
0.413402
0.417077
0.41582
0.412757
0.415626
0.406986
0.410049
0.408469
0.408404
0.41108
0.408501
0.413789
0.412434
0.412854
0.410629
0.409243
0.408952
0.408146
0.40547
0.410919
0.407018
0.408114
0.406405
0.409404
0.404181
0.40115
0.3987
0.396185
0.39338
0.391703
0.393348
0.507385
0.840857
0.969725
0.983718
0.992907
0.987619
0.975497
0.976625
0.973304
0.96505
0.963213
0.949059
0.959054
0.956668
0.961697
0.970177
0.978334
0.978302
0.983331
0.988103
0.991682
0.986394
0.989167
0.994035
0.984847
0.971144
0.973401
0.982138
0.974884
0.976786
0.982654
0.970918
0.986813
1
1
1
1
1
1
1
0.429716
0.403246
0.401956
0.415239
0.409984
0.409017
0.41453
0.410629
0.408372
0.409726
0.407824
0.412467
0.41079
0.413047
0.410855
0.408308
0.406405
0.40489
0.407115
0.406438
0.403504
0.40489
0.401763
0.403181
0.40028
0.405728
0.409146
0.403794
0.402053
0.398184
0.398538
0.394863
0.390349
0.386222
0.384546
0.505289
0.848272
0.969403
0.98475
0.98562
0.989393
0.98101
0.978527
0.977721
0.964728
0.965856
0.960085
0.955604
0.957119
0.959892
0.979398
0.97511
0.973207
0.986201
0.984556
0.988683
0.993519
0.986878
0.989941
0.990489
0.973756
0.976528
0.978463
0.974691
0.970016
0.975658
0.974465
0.985008
1
1
1
1
1
1
1
0.424654
0.408791
0.405986
0.403955
0.410371
0.405857
0.409662
0.408114
0.410339
0.413241
0.409791
0.406341
0.41021
0.411435
0.410887
0.41482
0.410113
0.406341
0.408533
0.407727
0.407566
0.404535
0.405535
0.406502
0.40647
0.404826
0.410178
0.406373
0.403246
0.401956
0.400151
0.396475
0.39425
0.389253
0.39093
0.513543
0.857461
0.973369
0.984718
0.984137
0.981139
0.983331
0.979591
0.973885
0.964019
0.955152
0.955894
0.956152
0.962503
0.96073
0.973788
0.973304
0.976947
0.984685
0.98562
0.990489
0.985846
0.989876
0.98749
0.98604
0.975368
0.973756
0.979978
0.978076
0.980204
0.976496
0.978108
0.99007
1
1
1
1
1
1
1
0.425395
0.414498
0.409178
0.406986
0.407824
0.415368
0.413434
0.411306
0.409114
0.405889
0.408727
0.410274
0.406824
0.408017
0.408017
0.40921
0.402407
0.405083
0.402891
0.403955
0.40244
0.40676
0.407888
0.410016
0.409468
0.40834
0.405116
0.405309
0.401795
0.397603
0.394315
0.391091
0.392477
0.385997
0.386287
0.508643
0.851432
0.972466
0.989747
0.989135
0.987232
0.985395
0.977882
0.970145
0.970822
0.956926
0.956184
0.953605
0.949252
0.95944
0.965856
0.976657
0.982557
0.984718
0.986684
0.985008
0.991714
0.987103
0.991907
0.992907
0.986975
0.98446
0.977496
0.98288
0.984718
0.979623
0.984395
0.986942
1
1
1
1
1
1
1
0.432811
0.408437
0.420076
0.411919
0.402504
0.408694
0.409114
0.410564
0.410661
0.409791
0.404342
0.407663
0.405277
0.415143
0.406502
0.407985
0.414788
0.411725
0.409887
0.41424
0.413595
0.411435
0.412209
0.408437
0.409081
0.405535
0.407308
0.407179
0.404954
0.400183
0.399506
0.392606
0.391832
0.392219
0.388544
0.507256
0.844597
0.970918
0.985201
0.986717
0.989231
0.981332
0.972176
0.973627
0.973659
0.961053
0.94922
0.94951
0.957345
0.958086
0.973336
0.97785
0.976077
0.984685
0.987232
0.988296
0.988522
0.989683
0.985685
0.980365
0.984911
0.980365
0.977205
0.975206
0.983589
0.970531
0.980172
0.990134
1
1
1
1
1
1
1
0.436744
0.416594
0.40618
0.410855
0.41108
0.407856
0.409146
0.408275
0.412015
0.408791
0.409049
0.404632
0.408952
0.404632
0.407631
0.406567
0.406018
0.40863
0.406309
0.402859
0.403052
0.407179
0.409694
0.410049
0.411757
0.410919
0.414272
0.412177
0.407469
0.401892
0.403568
0.392638
0.39396
0.385964
0.392026
0.499422
0.84666
0.971789
0.986297
0.989844
0.987942
0.981622
0.985072
0.972917
0.965244
0.955539
0.939644
0.947479
0.95267
0.957861
0.973143
0.983428
0.981171
0.980558
0.987716
0.991585
0.991134
0.98936
0.989651
0.983686
0.977173
0.979333
0.976819
0.979817
0.97914
0.974046
0.972982
0.991714
1
1
1
1
1
1
1
0.439324
0.411242
0.407598
0.404019
0.402956
0.415626
0.411532
0.413079
0.407373
0.424718
0.414724
0.413047
0.412434
0.400151
0.403536
0.403471
0.40734
0.407631
0.407115
0.408694
0.406599
0.407276
0.408598
0.40892
0.411564
0.408598
0.411983
0.4105
0.405728
0.402375
0.397861
0.396346
0.392735
0.388447
0.388286
0.50184
0.853496
0.969532
0.988393
0.989489
0.985266
0.979914
0.976657
0.97382
0.963019
0.962826
0.945867
0.948027
0.955056
0.962987
0.972982
0.972756
0.989618
0.986555
0.987523
0.987523
0.984363
0.986749
0.989038
0.988038
0.979495
0.977334
0.9754
0.975529
0.979978
0.974723
0.9744
0.990392
1
1
1
1
1
1
1
0.433649
0.415111
0.419818
0.416142
0.417787
0.410661
0.415723
0.411499
0.419173
0.41079
0.417851
0.412725
0.413982
0.412983
0.410758
0.413144
0.408759
0.407405
0.404503
0.406728
0.408952
0.409307
0.402053
0.402794
0.403762
0.401666
0.406599
0.401376
0.397249
0.398764
0.399409
0.397732
0.389092
0.392058
0.389833
0.504064
0.843372
0.973433
0.985395
0.985975
0.988038
0.983009
0.972692
0.974529
0.96979
0.951703
0.95167
0.945029
0.963277
0.965308
0.972144
0.974723
0.98072
0.985943
0.987619
0.986684
0.991295
0.98978
0.98749
0.98417
0.97785
0.976657
0.973949
0.974046
0.971628
0.977592
0.973949
0.99065
1
1
1
1
1
1
1
0.464053
0.439291
0.437841
0.424493
0.427072
0.428297
0.428039
0.427685
0.430715
0.429684
0.426653
0.430361
0.435294
0.435326
0.436067
0.434713
0.434584
0.433069
0.436358
0.432779
0.431876
0.431167
0.4282
0.430103
0.428007
0.431554
0.427814
0.42675
0.423139
0.420463
0.414659
0.411403
0.410242
0.405664
0.4046
0.51177
0.848466
0.974916
0.985459
0.994551
0.988071
0.980752
0.979301
0.968726
0.975819
0.957216
0.958441
0.940612
0.957377
0.969016
0.978076
0.973917
0.979204
0.981526
0.983654
0.991488
0.990618
0.993681
0.994841
0.984266
0.97295
0.972498
0.981074
0.981429
0.979333
0.988458
0.984395
0.994003
1
1
1
1
1
1
1
0.431296
0.405438
0.403794
0.399602
0.399248
0.399989
0.398732
0.395733
0.392413
0.390059
0.386641
0.386577
0.38777
0.388737
0.387834
0.390091
0.389769
0.388221
0.387319
0.39093
0.387738
0.390607
0.390059
0.386512
0.388092
0.387641
0.389317
0.385062
0.378581
0.379516
0.378871
0.374906
0.375196
0.372616
0.372649
0.504774
0.85975
0.967694
0.984266
0.985201
0.9823
0.977979
0.981461
0.971434
0.969467
0.958828
0.943352
0.950735
0.955926
0.963277
0.968758
0.976141
0.987007
0.980139
0.982461
0.989038
0.992456
0.979688
0.991037
0.982364
0.970983
0.970854
0.973981
0.971789
0.974916
0.981139
0.979946
0.988425
1
1
1
1
1
1
1
0.416336
0.400699
0.397152
0.395766
0.3977
0.401763
0.396862
0.40086
0.393896
0.393412
0.392251
0.387319
0.387415
0.383611
0.385062
0.385384
0.387125
0.384642
0.38187
0.384223
0.389608
0.384449
0.388705
0.386964
0.39093
0.389543
0.389027
0.386126
0.383579
0.378871
0.379677
0.375808
0.37123
0.370295
0.372197
0.498615
0.851529
0.972015
0.983267
0.983686
0.985362
0.974691
0.982719
0.969596
0.963084
0.948349
0.943545
0.945738
0.955217
0.960569
0.973369
0.973465
0.983106
0.982235
0.978237
0.987813
0.993939
0.988973
0.992036
0.985233
0.976464
0.977109
0.981461
0.968532
0.973627
0.976657
0.977657
0.982364
1
1
1
1
1
1
1
0.418173
0.399764
0.393831
0.399022
0.402504