/*--------------------------------*- C++ -*----------------------------------*\
| =========                 |                                                 |
| \\      /  F ield         | OpenFOAM: The Open Source CFD Toolbox           |
|  \\    /   O peration     | Version:  4.x                                   |
|   \\  /    A nd           | Web:      www.OpenFOAM.org                      |
|    \\/     M anipulation  |                                                 |
\*---------------------------------------------------------------------------*/
FoamFile
{
    version     2.0;
    format      ascii;
    class       volScalarField;
    location    "3000";
    object      CO2;
}
// * * * * * * * * * * * * * * * * * * * * * * * * * * * * * * * * * * * * * //

dimensions      [0 0 0 0 0 0 0];

internalField   nonuniform List<scalar> 
1174
(
7.375194536e-06
1.288121241e-05
2.065886471e-05
3.080717887e-05
4.321985771e-05
5.76244349e-05
7.363859952e-05
9.082706264e-05
0.0001087485385
0.0001269868359
0.0001451570754
0.0001628491726
0.0001793366914
0.0001922974562
1.254564269e-05
2.137429297e-05
3.313475987e-05
4.755661151e-05
6.414466535e-05
8.229785186e-05
0.0001014057354
0.0001209121688
0.0001403479838
0.0001593390611
0.0001775897437
0.0001948135629
0.0002104589981
0.0002225417294
2.396900046e-05
3.957989041e-05
5.890119786e-05
8.084624674e-05
0.0001042381103
0.0001280193771
0.0001513522629
0.0001736397195
0.0001945019687
0.0002137321645
0.0002312417139
0.0002469762769
0.0002606816166
0.0002709513857
4.07114632e-05
6.496978545e-05
9.28275903e-05
0.0001222501386
0.0001515408584
0.0001794802407
0.0002053052815
0.0002286224328
0.0002493066809
0.0002674106934
0.0002830883978
0.0002965142592
0.0003077060292
0.0003158163394
5.267107022e-05
8.167893926e-05
0.0001133330186
0.0001454060584
0.0001762858052
0.0002049415473
0.0002308114651
0.0002536780682
0.0002735581566
0.0002906148712
0.0003050884931
0.0003172277482
0.0003271429692
0.0003342104572
4.071094742e-05
6.496902012e-05
9.282650453e-05
0.0001222486647
0.0001515389408
0.0001794778243
0.0002053023134
0.0002286189508
0.0002493026755
0.0002674061909
0.0002830833969
0.0002965088479
0.000307700247
0.0003158101295
2.396826471e-05
3.957890873e-05
5.889989333e-05
8.084449161e-05
0.0001042357436
0.0001280162682
0.0001513482509
0.0001736348227
0.0001944961091
0.0002137253398
0.0002312339345
0.0002469676831
0.0002606721801
0.0002709411518
1.254493708e-05
2.137346364e-05
3.313371721e-05
4.755519089e-05
6.414267999e-05
8.229510368e-05
0.0001014020785
0.0001209074426
0.0001403421061
0.0001593319676
0.0001775814172
0.0001948039715
0.0002104481887
0.0002225297774
7.37469514e-06
1.288071453e-05
2.065826024e-05
3.080631672e-05
4.321855096e-05
5.762247744e-05
7.363577728e-05
9.082318255e-05
0.000108743428
0.0001269803463
0.000145149112
0.0001628396498
0.0001793256075
0.0001922847595
6.586182743e-06
1.254507855e-05
2.137373937e-05
3.313419453e-05
4.755602317e-05
6.414406239e-05
8.229722912e-05
0.0001014050919
0.0001209115123
0.0001403473328
0.0001593384074
0.0001775891122
0.0001948129336
0.0002104584021
0.0002225411271
2.420573451e-05
3.971341145e-05
5.862899682e-05
7.981816291e-05
0.000102141027
0.0001246369795
0.0001465904443
0.0001675231354
0.0001871520442
0.0002053373578
0.0002220271791
0.0002371761978
0.0002505141388
0.0002605979547
5.354880195e-05
8.368994655e-05
0.0001164615668
0.0001490932662
0.0001796860104
0.0002072034295
0.0002312679531
0.0002519278592
0.0002694655364
0.0002842633404
0.0002967168638
0.0003071674978
0.0003157718513
0.0003219704437
0.0001057122383
0.0001558449071
0.0002035349482
0.000245216606
0.0002796423659
0.0003069730589
0.0003280530546
0.0003439529144
0.0003557244592
0.0003642917446
0.0003704185858
0.0003747113176
0.0003776255351
0.0003793911198
0.0001549493227
0.0002152813267
0.0002664264186
0.0003070362827
0.0003379062599
0.0003605947492
0.0003767624831
0.0003879006113
0.0003952472744
0.0003997884096
0.0004022908575
0.0004033496802
0.0004034543781
0.0004031140167
0.0001057099047
0.0001558420855
0.0002035315796
0.000245212583
0.0002796377198
0.0003069677461
0.0003280471546
0.0003439464896
0.0003557176073
0.0003642845405
0.0003704110434
0.0003747035236
0.0003776174961
0.0003793827868
5.354635805e-05
8.368731034e-05
0.000116458455
0.0001490893426
0.0001796810643
0.0002071972979
0.0002312606547
0.0002519194525
0.0002694560915
0.0002842529115
0.0002967055584
0.0003071553887
0.0003157590843
0.0003219569935
2.42042467e-05
3.971204467e-05
5.862732654e-05
7.98158134e-05
0.000102137713
0.0001246324625
0.0001465845978
0.0001675158589
0.0001871433063
0.0002053272088
0.0002220156745
0.0002371633746
0.0002505000676
0.000260582758
1.254499676e-05
2.137346976e-05
3.313359469e-05
4.755486615e-05
6.414207533e-05
8.229414257e-05
0.0001014006973
0.0001209056045
0.0001403397726
0.000159329119
0.0001775780792
0.0001948001503
0.0002104438558
0.0002225248556
1.274690469e-05
2.396765979e-05
3.957844266e-05
5.889967614e-05
8.084467988e-05
0.0001042365206
0.0001280177703
0.0001513506192
0.0001736380919
0.0001945003523
0.0002137305548
0.0002312401438
0.0002469747635
0.0002606801446
0.0002709499266
2.921625992e-05
5.35470307e-05
8.368840692e-05
0.0001164601701
0.0001490919368
0.0001796847422
0.0002072021889
0.0002312667506
0.0002519266816
0.0002694644368
0.0002842622413
0.0002967158054
0.0003071664569
0.0003157708748
0.000321969462
0.0001402502581
0.0002038561721
0.0002614789895
0.000308758284
0.0003447897665
0.0003706031626
0.0003880207709
0.0003989815841
0.0004052153819
0.0004081293521
0.0004088068199
0.0004080615426
0.0004065431781
0.0004049861766
0.000333133161
0.0004406079133
0.0005148122426
0.0005587102296
0.000579440444
0.0005842113032
0.0005788446572
0.000567562754
0.0005532315868
0.0005377054531
0.0005221434874
0.0005072892132
0.0004938472916
0.0004835506194
0.0005858513936
0.0006928848416
0.0007390090901
0.0007473352597
0.0007343998852
0.0007106295828
0.000682211912
0.0006526724122
0.0006239366047
0.0005969927068
0.0005723009764
0.0005500889067
0.0005307702689
0.0005163224136
0.0003331220559
0.0004405971477
0.0005148013025
0.0005586987753
0.0005794284315
0.0005841987955
0.000578832153
0.0005675501879
0.000553219017
0.0005376931624
0.0005221313202
0.0005072772753
0.000493835541
0.0004835388557
0.0001402424658
0.0002038494439
0.0002614714435
0.0003087490091
0.000344778564
0.0003705901789
0.0003880063319
0.0003989659574
0.00040519884
0.0004081121791
0.0004087890675
0.000408043433
0.0004065247677
0.0004049674021
5.354649618e-05
8.36870036e-05
0.0001164574338
0.0001490874189
0.0001796781718
0.0002071935172
0.0002312559739
0.0002519139586
0.0002694499074
0.0002842461662
0.0002966983436
0.0003071477774
0.0003157511138
0.0003219487248
2.396837275e-05
3.957870919e-05
5.889909935e-05
8.084282767e-05
0.0001042330094
0.0001280123255
0.0001513430467
0.0001736282826
0.000194488336
0.0002137163964
0.0002312239236
0.0002469565916
0.0002606601293
0.0002709280639
2.200275593e-05
4.070916591e-05
6.496717772e-05
9.282474121e-05
0.0001222471188
0.0001515377643
0.0001794771028
0.0002053021385
0.0002286193114
0.0002493035968
0.0002674076944
0.00028308544
0.0002965113898
0.0003077032854
0.0003158135903
5.961026263e-05
0.0001057078786
0.0001558405371
0.0002035306716
0.0002452124794
0.0002796384609
0.0003069693444
0.00032804953
0.0003439495515
0.0003557212635
0.0003642887776
0.0003704158192
0.0003747086529
0.000377622993
0.0003793886687
0.0002020706711
0.0003331245436
0.0004406011374
0.0005148067339
0.0005587055727
0.0005794365141
0.0005842078804
0.0005788417642
0.0005675601844
0.0005532292
0.0005377034198
0.0005221415909
0.0005072875339
0.000493845734
0.0004835491899
0.0009944997288
0.001130174881
0.001153102309
0.001114817918
0.001049122728
0.0009751281829
0.0009025444247
0.0008357159037
0.0007761507018
0.0007239650962
0.0006786770508
0.0006396944445
0.0006069428846
0.0005830183266
0.002292637668
0.00212475882
0.001865423455
0.001616289037
0.001404344382
0.001231309327
0.001091655354
0.0009788080812
0.000887017659
0.0008117202183
0.0007494440803
0.0006977036926
0.0006553284756
0.0006248716336
0.0009944607507
0.001130146468
0.001153076152
0.001114792484
0.001049098068
0.0009751047153
0.0009025221035
0.0008356949296
0.0007761310913
0.0007239466678
0.0006786596374
0.0006396779624
0.000606927169
0.0005830029407
0.0003331229724
0.0004405937707
0.0005147937389
0.0005586879036
0.0005794152941
0.0005841843328
0.0005788167503
0.0005675345634
0.0005532034196
0.0005376777442
0.0005221162345
0.000507262617
0.0004938212412
0.0004835247083
0.0001057103697
0.0001558403499
0.0002035269492
0.0002452049017
0.0002796271986
0.000306954792
0.0003280321567
0.0003439298379
0.0003556997297
0.000364265758
0.0003703915915
0.0003746835544
0.0003775971584
0.0003793620915
4.071125566e-05
6.496837838e-05
9.282425434e-05
0.0001222443042
0.000151532155
0.0001794685167
0.0002052905498
0.0002286048079
0.000249286395
0.0002673880122
0.0002830635252
0.0002964874592
0.0003076775085
0.0003157860055
2.895100554e-05
5.266820453e-05
8.167551065e-05
0.0001133291258
0.0001454018363
0.0001762813634
0.0002049369717
0.000230806862
0.0002536734973
0.0002735535884
0.0002906104061
0.000305084124
0.0003172234775
0.0003271388576
0.0003342064499
9.135476419e-05
0.0001549433241
0.0002152748057
0.0002664197073
0.0003070296576
0.0003378998873
0.0003605887361
0.0003767568186
0.0003878951927
0.0003952421954
0.0003997836313
0.0004022863166
0.0004033454009
0.0004034503128
0.0004031101341
0.0003961275122
0.0005858380084
0.0006928717749
0.000738997594
0.0007473252769
0.0007343912849
0.0007106221946
0.0006822056246
0.0006526668209
0.0006239316
0.0005969882596
0.0005722968959
0.0005500852303
0.0005307668419
0.000516319214
0.002060873464
0.002292598279
0.002124733708
0.001865406826
0.0016162771
0.001404335426
0.001231302563
0.001091650072
0.000978803634
0.0008870139916
0.0008117169658
0.0007494413112
0.000697701213
0.0006553263047
0.0006248696214
0.007889030275
0.005050705257
0.003475620353
0.002552010999
0.001979282089
0.001604354757
0.001346318877
0.001160707596
0.001022082814
0.0009152980844
0.000830996907
0.0007633302693
0.0007092704804
0.0006710052298
0.002292638356
0.00212471884
0.001865373442
0.001616239641
0.001404299258
0.00123126907
0.001091619535
0.000978776059
0.0008869889492
0.0008116940519
0.0007494202829
0.0006976816282
0.0006553079242
0.0006248520348
0.0005858538056
0.0006928693455
0.0007389813901
0.0007473005836
0.0007343618614
0.0007105904133
0.0006821729856
0.0006526342743
0.0006238998249
0.000596957328
0.0005722669096
0.0005500561843
0.0005307387018
0.0005162914858
0.0001549499444
0.0002152761985
0.0002664150676
0.0003070193119
0.0003378846575
0.0003605695785
0.0003767346376
0.0003878707221
0.0003952160255
0.0003997562223
0.0004022579682
0.0004033163436
0.0004034207863
0.0004030799854
5.267150224e-05
8.167741935e-05
0.0001133285451
0.000145398068
0.0001762740103
0.0002049259802
0.0002307923776
0.0002536557301
0.0002735329018
0.0002905870989
0.0003050585487
0.0003171958907
0.000327109539
0.0003341752437
2.200258405e-05
4.070851813e-05
6.496594768e-05
9.282286429e-05
0.0001222445417
0.0001515344676
0.000179473072
0.0002052974053
0.0002286139244
0.0002492975736
0.0002674011024
0.0002830783362
0.0002965038234
0.0003076953316
0.0003158052909
5.960843817e-05
0.0001057045829
0.0001558359627
0.0002035249944
0.0002452057907
0.0002796308813
0.0003069610352
0.0003280406469
0.0003439401782
0.0003557114761
0.0003642786991
0.0003704054614
0.0003746981912
0.0003776123911
0.0003793778472
0.0002020539299
0.0003331086673
0.0004405837484
0.000514788524
0.0005586870707
0.000579417924
0.0005841894146
0.0005788235235
0.0005675424132
0.0005532119665
0.0005376866435
0.0005221253424
0.000507271837
0.0004938304991
0.0004835341024
0.0006908383434
0.0009944262384
0.001130118424
0.001153053962
0.001114774735
0.001049083805
0.0009750930851
0.0009025124468
0.0008356868643
0.0007761240498
0.0007239404995
0.0006786542995
0.0006396731996
0.0006069228059
0.0005829989441
0.002060864296
0.002292584688
0.002124685198
0.001865350964
0.001616223804
0.00140428763
0.001231260327
0.001091612872
0.0009787706906
0.000886984342
0.0008116901967
0.0007494169118
0.0006976787278
0.0006553053162
0.0006248495861
0.0006908486928
0.0009944233455
0.001130103008
0.001153030584
0.001114747863
0.001049056186
0.000975066054
0.0009024866928
0.0008356624625
0.0007761014076
0.00072391937
0.0006786345355
0.0006396545697
0.0006069052078
0.0005829819177
0.0003331323707
0.0004405886946
0.0005147802238
0.0005586695971
0.0005793946609
0.0005841627133
0.0005787950945
0.0005675132746
0.000553182766
0.00053765774
0.0005220969777
0.0005072440722
0.0004938032633
0.0004835070895
0.0001057135626
0.0001558401552
0.0002035233939
0.0002451985474
0.0002796186528
0.0003069445546
0.000328020746
0.0003439176697
0.0003556869522
0.0003642526295
0.0003703782026
0.0003746700452
0.0003775835263
0.0003793483011
4.071220135e-05
6.496852896e-05
9.282318743e-05
0.000122241819
0.0001515282393
0.0001794632119
0.0002052840004
0.0002285971785
0.000249277807
0.0002673786075
0.0002830534777
0.0002964768784
0.0003076664855
0.0003157745768
1.274645881e-05
2.396658707e-05
3.957665089e-05
5.889704828e-05
8.084109203e-05
0.0001042318623
0.0001280119788
0.0001513436698
0.0001736299704
0.0001944911065
0.0002137202092
0.0002312287814
0.0002469624504
0.0002606669816
0.0002709359577
2.921326726e-05
5.354300842e-05
8.368311079e-05
0.0001164535666
0.0001490839445
0.0001796753248
0.0002071913847
0.0002312546492
0.000251913412
0.0002694500829
0.0002842469921
0.0002966997764
0.0003071497138
0.0003157535603
0.0003219515915
7.962198299e-05
0.0001402346406
0.0002038405882
0.0002614621498
0.000308739733
0.0003447695538
0.0003705815468
0.0003879980955
0.000398958179
0.000405191521
0.0004081052297
0.0004087825495
0.0004080372554
0.000406518986
0.0004049618051
0.000202053905
0.0003331053715
0.0004405762197
0.0005147773575
0.00055867316
0.0005794022971
0.0005841728214
0.0005788066365
0.0005675255827
0.0005531953666
0.0005376704763
0.0005221097255
0.0005072566046
0.0004938157131
0.0004835195672
0.0003961272206
0.000585824788
0.0006928447174
0.0007389613078
0.0007472841532
0.0007343484586
0.0007105793935
0.0006821637097
0.000652626544
0.0006238930647
0.0005969513668
0.0005722615876
0.0005500514105
0.0005307344119
0.0005162874473
0.0002020527039
0.0003331015169
0.0004405686756
0.0005147663054
0.0005586594751
0.0005793868929
0.0005841566582
0.0005787900933
0.0005675090083
0.0005531791371
0.0005376545656
0.0005220942081
0.000507241624
0.0004938010818
0.0004835050729
7.962748497e-05
0.0001402386585
0.0002038403012
0.0002614567616
0.0003087296005
0.0003447554778
0.0003705645268
0.0003879788881
0.0003989374692
0.0004051698189
0.0004080829742
0.0004087599855
0.0004080145345
0.0004064961461
0.0004049387683
5.35487627e-05
8.368605531e-05
0.0001164531954
0.0001490799791
0.0001796678253
0.000207180535
0.0002312408045
0.0002518970043
0.0002694314597
0.0002842265026
0.0002966776907
0.0003071263285
0.0003157290411
0.0003219260886
2.396942024e-05
3.95787954e-05
5.889772086e-05
8.083964129e-05
0.0001042278266
0.0001280050883
0.0001513338104
0.0001736171604
0.0001944754658
0.0002137019265
0.0002312080536
0.0002469395346
0.0002606420077
0.0002709090076
6.585519361e-06
1.254399083e-05
2.137210704e-05
3.313190667e-05
4.7552918e-05
6.413995435e-05
8.229195584e-05
0.0001013985272
0.0001209035466
0.0001403379083
0.0001593275154
0.0001775767769
0.0001947991656
0.0002104432453
0.0002225247861
1.290799221e-05
2.420249648e-05
3.970966106e-05
5.862433086e-05
7.981226418e-05
0.0001021336835
0.0001246280377
0.0001465798414
0.0001675108634
0.000187138146
0.0002053219298
0.0002220103049
0.0002371579648
0.0002504946758
0.0002605773693
2.921328993e-05
5.354271937e-05
8.368221245e-05
0.000116451826
0.0001490812652
0.0001796716908
0.0002071868084
0.0002312492382
0.0002519072697
0.0002694433056
0.0002842396885
0.0002966920106
0.0003071416258
0.0003157451624
0.0003219428751
5.960849519e-05
0.0001057030433
0.0001558318169
0.0002035177999
0.0002451955718
0.0002796179877
0.0003069458587
0.0003280236362
0.0003439218414
0.0003556921465
0.0003642586397
0.0003703848303
0.0003746771576
0.0003775910998
0.0003793562203
9.135454064e-05
0.0001549387954
0.0002152644567
0.0002664035615
0.0003070084371
0.0003378745724
0.0003605603127
0.0003767260863
0.0003878628984
0.0003952088946
0.0003997496105
0.000402251862
0.000403310716
0.0004034155362
0.000403074988
5.960778813e-05
0.0001057014776
0.0001558289453
0.0002035134287
0.000245189773
0.0002796108784
0.0003069376646
0.0003280145728
0.0003439121262
0.0003556819146
0.0003642480447
0.0003703739947
0.0003746661399
0.0003775799343
0.0003793448794
2.921368299e-05
5.354284508e-05
8.368115849e-05
0.0001164489445
0.0001490762325
0.0001796644605
0.0002071775002
0.0002312380372
0.0002518944673
0.0002694291303
0.0002842243828
0.0002966757623
0.0003071245518
0.0003157274033
0.0003219245244
1.290913849e-05
2.420372281e-05
3.971022825e-05
5.862361716e-05
7.980981632e-05
0.000102129202
0.000124621389
0.0001465709948
0.000167499881
0.0001871251056
0.0002053069988
0.0002219936411
0.0002371397051
0.0002504749749
0.0002605564756
1.254562065e-05
2.137326593e-05
3.313223869e-05
4.755200952e-05
6.413742217e-05
8.228747567e-05
0.0001013918826
0.0001208945878
0.0001403265624
0.0001593137848
0.0001775606813
0.0001947808523
0.0002104228086
0.0002225023078
3.834333705e-06
7.374088759e-06
1.287981204e-05
2.065700173e-05
3.080465931e-05
4.32164744e-05
5.761996879e-05
7.363286308e-05
9.081989034e-05
0.000108739773
0.0001269763912
0.0001451448959
0.0001628352042
0.0001793209397
0.0001922799628
6.585550592e-06
1.254399246e-05
2.137202443e-05
3.313166586e-05
4.755243745e-05
6.413915937e-05
8.229077442e-05
0.0001013969163
0.0001209014657
0.0001403353452
0.0001593244784
0.0001775732291
0.0001947951505
0.0002104387389
0.000222519651
1.274651763e-05
2.396644779e-05
3.957606722e-05
5.889575554e-05
8.083885091e-05
0.000104228497
0.0001280073648
0.0001513377732
0.0001736227967
0.0001944826762
0.0002137106494
0.0002312181239
0.0002469508153
0.0002606543983
0.000270922365
2.200261346e-05
4.070785289e-05
6.496395021e-05
9.28189596e-05
0.0001222383266
0.0001515257184
0.0001794617997
0.0002052837049
0.0002285979602
0.0002492796419
0.000267381358
0.000283057053
0.0002964811666
0.0003076714371
0.0003157801059
2.895095012e-05
5.266669447e-05
8.167150844e-05
0.0001133218828
0.0001453909426
0.0001762666909
0.0002049186533
0.000230785154
0.0002536487186
0.0002735261687
0.0002905806379
0.0003050523871
0.0003171900527
0.0003271039383
0.0003341699136
2.200230271e-05
4.070718883e-05
6.496272219e-05
9.281699403e-05
0.0001222355027
0.0001515219999
0.0001794571273
0.0002052781664
0.0002285916003
0.000249272556
0.0002673736513
0.0002830488021
0.0002964724573
0.0003076623052
0.0003157705824
1.27464098e-05
2.396614326e-05
3.957524704e-05
5.889406805e-05
8.083598821e-05
0.000104224247
0.0001280016203
0.0001513304866
0.0001736140111
0.0001944724735
0.0002136991242
0.0002312054091
0.0002469370145
0.0002606396185
0.0002709067331
6.585683074e-06
1.254414864e-05
2.137192667e-05
3.313096808e-05
4.755078011e-05
6.413623249e-05
8.228633246e-05
0.0001013907808
0.0001208935143
0.0001403255449
0.0001593128155
0.0001775597941
0.0001947799861
0.0002104220084
0.0002225015436
3.834660427e-06
7.374540268e-06
1.288016302e-05
2.065697071e-05
3.080391578e-05
4.321466271e-05
5.761676727e-05
7.362796866e-05
9.081306039e-05
0.0001087308503
0.000126965253
0.0001451314952
0.000162819559
0.0001793030847
0.0001922599629
)
;

boundaryField
{
    top
    {
        type            zeroGradient;
    }
    bottom
    {
        type            zeroGradient;
    }
    side-walls
    {
        type            zeroGradient;
    }
    inlet
    {
        type            zeroGradient;
    }
    outlet
    {
        type            zeroGradient;
    }
    procBoundary1to0
    {
        type            processor;
        value           nonuniform List<scalar> 
97
(
3.834655386e-06
3.834655386e-06
6.585603672e-06
1.274599503e-05
2.200103185e-05
2.894845228e-05
2.20006024e-05
1.274537605e-05
6.584961615e-06
3.834014602e-06
3.063693287e-06
1.290919178e-05
1.290919178e-05
1.290919178e-05
2.921316344e-05
5.960482418e-05
9.134531625e-05
5.960265938e-05
2.921060828e-05
1.290687152e-05
6.584994101e-06
5.852689319e-06
1.307298161e-05
7.962775187e-05
7.962775187e-05
7.962775187e-05
0.0002020454926
0.0003960760878
0.0002020319171
7.96141489e-05
2.921071498e-05
1.274544777e-05
9.940073435e-06
2.580574815e-05
8.130204183e-05
0.0006908510469
0.0006908510469
0.0006908510469
0.002060525166
0.0006907569455
0.0002020328611
5.960306299e-05
2.200082847e-05
1.285947019e-05
3.782170691e-05
0.0001429494949
0.0005589802731
0.01328750552
0.01328750552
0.01328750552
0.002060543081
0.002060543081
0.0003960806081
9.134619322e-05
2.894883058e-05
9.940187929e-06
2.580614298e-05
8.130523886e-05
0.0002426321085
0.0005589951592
0.0002426217405
0.0002020641532
0.0002020641532
0.0002020641532
5.960772061e-05
2.20017805e-05
5.852771815e-06
1.307339708e-05
3.423520867e-05
8.130543853e-05
0.0001429516678
8.130324947e-05
3.423412227e-05
2.921589788e-05
2.921589788e-05
2.921589788e-05
1.274664296e-05
3.06377886e-06
5.910313368e-06
1.307342325e-05
2.580625286e-05
3.782196044e-05
2.580569489e-05
1.307312312e-05
5.910183785e-06
6.586166165e-06
6.586166165e-06
6.586166165e-06
1.801399255e-06
3.063794363e-06
5.852810695e-06
9.940233888e-06
1.285952637e-05
9.940038251e-06
5.852668465e-06
3.063738797e-06
1.801386789e-06
)
;
    }
}


// ************************************************************************* //
