/*--------------------------------*- C++ -*----------------------------------*\
| =========                 |                                                 |
| \\      /  F ield         | OpenFOAM: The Open Source CFD Toolbox           |
|  \\    /   O peration     | Version:  4.x                                   |
|   \\  /    A nd           | Web:      www.OpenFOAM.org                      |
|    \\/     M anipulation  |                                                 |
\*---------------------------------------------------------------------------*/
FoamFile
{
    version     2.0;
    format      ascii;
    class       volScalarField;
    location    "3000";
    object      molarConc;
}
// * * * * * * * * * * * * * * * * * * * * * * * * * * * * * * * * * * * * * //

dimensions      [0 -3 0 0 1 0 0];

internalField   nonuniform List<scalar> 
1174
(
9.963291288
9.963291166
9.963290481
9.963290495
9.963289588
9.963288955
9.963288792
9.963289081
9.963289328
9.963289963
9.963290882
9.963291245
9.963290733
9.963290232
9.963240763
9.963239353
9.963240127
9.963240057
9.963240091
9.963240086
9.963239679
9.963239993
9.963239469
9.963239449
9.963237971
9.96323919
9.963240707
9.963241315
9.963263013
9.963261689
9.963261459
9.963262079
9.963260661
9.963260718
9.963262042
9.963261484
9.963261656
9.963261977
9.963261372
9.963260826
9.963260607
9.963260138
9.963291431
9.963291971
9.9632908
9.96328989
9.963290881
9.963289016
9.963289519
9.963289328
9.963289714
9.963288682
9.963289257
9.963290577
9.963290797
9.963291698
9.963285836
9.9632855
9.963284932
9.963283814
9.963283864
9.963282685
9.963283172
9.963283797
9.963283823
9.963283604
9.963283698
9.963284138
9.963283246
9.963283296
9.963280168
9.963279592
9.963279103
9.963279416
9.963279079
9.963279266
9.963279931
9.963278737
9.963279023
9.963278198
9.963279638
9.963279926
9.963279684
9.963280436
9.963251978
9.963252021
9.963250336
9.963249975
9.963249686
9.963249962
9.963249579
9.963250724
9.96325089
9.963250111
9.963248937
9.963249994
9.963249538
9.963247855
9.963293267
9.963292915
9.96329298
9.963293642
9.963292831
9.963292688
9.963293261
9.963292989
9.963292571
9.963292624
9.963292349
9.963292545
9.963292727
9.96329116
9.963292088
9.963292959
9.963292905
9.963292517
9.963291938
9.963291228
9.963290431
9.963289422
9.963290149
9.963289985
9.963290026
9.963289735
9.963289845
9.963290676
9.96327529
9.963274137
9.963274907
9.963274865
9.96327532
9.963275485
9.963276221
9.963273758
9.963274074
9.96327432
9.963274365
9.963274552
9.963273482
9.963272867
9.963271424
9.963316266
9.963317937
9.963318039
9.963317866
9.963315096
9.963315362
9.963316153
9.963315916
9.963314579
9.963314193
9.963314664
9.963314704
9.963313179
9.96331245
9.963290715
9.9632902
9.963290044
9.963290252
9.963289437
9.963290195
9.963289001
9.963288904
9.963287736
9.963288143
9.963287977
9.963288105
9.963288035
9.96328798
9.963287132
9.963287821
9.963288124
9.963288075
9.963286991
9.963285915
9.963288178
9.963286474
9.963286683
9.963285386
9.963285943
9.963286926
9.963287185
9.963288412
9.963220901
9.963220711
9.963219806
9.963220596
9.963222264
9.963222502
9.963223017
9.963223379
9.963223009
9.963223038
9.963222764
9.963223472
9.963222752
9.963221325
9.963267385
9.963266454
9.963266127
9.963265912
9.96326477
9.963266212
9.963266353
9.9632675
9.96326766
9.963267158
9.963266255
9.963267104
9.963267564
9.963269738
9.96327623
9.963276848
9.963276239
9.963277109
9.963276696
9.963277563
9.963277017
9.963277915
9.963277459
9.963277316
9.963276654
9.9632766
9.963276183
9.963275338
9.963280566
9.963279963
9.96327898
9.963278815
9.963279143
9.963279338
9.963279298
9.963278794
9.96327737
9.96327751
9.96327736
9.963276761
9.963276896
9.96327745
9.963266377
9.963266619
9.963266774
9.96326674
9.963266583
9.963266282
9.963265663
9.963266073
9.963264556
9.963264723
9.963263525
9.963263493
9.963264062
9.963264323
9.963275969
9.963275658
9.963274328
9.963273346
9.963273495
9.963274897
9.96327419
9.963273456
9.963273065
9.963271992
9.963272088
9.963271916
9.963271718
9.963273338
9.963272052
9.963249071
9.963248936
9.963248136
9.963247283
9.963247233
9.963245689
9.963246601
9.963247211
9.963247425
9.963247071
9.963247421
9.963247681
9.963249242
9.963248033
9.963247896
9.963291015
9.963290433
9.963291393
9.963291548
9.963292253
9.963291195
9.963289907
9.963290661
9.963290271
9.963290555
9.963291585
9.963291482
9.96329153
9.963291908
9.963249495
9.963249379
9.963248396
9.963248112
9.963247447
9.963248041
9.963247876
9.963247221
9.963248611
9.963248026
9.96324961
9.963247822
9.963246855
9.963248337
9.963252687
9.963251793
9.96325198
9.963252517
9.963253535
9.9632535
9.963252226
9.963252363
9.963251513
9.963251447
9.963252227
9.963252715
9.963253233
9.963253471
9.963288099
9.96328747
9.963286817
9.963286208
9.963284517
9.963284192
9.963286097
9.963286131
9.963286741
9.963287454
9.963287766
9.96328623
9.963284072
9.963283392
9.963250644
9.963250629
9.963250184
9.963250342
9.963250527
9.963249746
9.963251194
9.96325134
9.963251361
9.963252794
9.963251943
9.963253106
9.963252634
9.963252748
9.963262154
9.963261336
9.963261183
9.963259632
9.963261357
9.963261968
9.963263343
9.963264364
9.963263978
9.963265984
9.963266627
9.963268421
9.963268819
9.963270333
9.963285464
9.963285653
9.963286188
9.9632847
9.963285878
9.963284996
9.963284549
9.963283562
9.963283717
9.963283457
9.963284245
9.963283884
9.963284221
9.963283026
9.963276491
9.963276756
9.963277239
9.963277732
9.963277254
9.963277176
9.963276172
9.963275923
9.963273796
9.963273797
9.963273907
9.963273015
9.963273998
9.96327503
9.963274301
9.963276213
9.963276178
9.963276114
9.963273835
9.963274178
9.963274178
9.963275287
9.963274239
9.963274544
9.963273669
9.963273204
9.963274265
9.963273523
9.963272725
9.963273307
9.963287447
9.963289
9.963288554
9.963288801
9.96328799
9.963288207
9.963288021
9.96328973
9.963289718
9.963288593
9.963289038
9.963288392
9.963288202
9.963287719
9.963287996
9.963246868
9.963246533
9.963246556
9.963246908
9.963248395
9.963249253
9.963249511
9.963249758
9.963250749
9.963252444
9.963252329
9.963252911
9.963253504
9.963253075
9.963369393
9.963370495
9.963371009
9.963371903
9.963373095
9.963372857
9.963373618
9.963374979
9.96337503
9.963376519
9.963376256
9.96337696
9.963377289
9.963378195
9.963280566
9.963281242
9.963282514
9.963282108
9.963283889
9.963284869
9.963286442
9.963286336
9.963287177
9.963287819
9.963286984
9.963287029
9.963287146
9.963286537
9.963264732
9.963264005
9.963264216
9.963264352
9.963264018
9.963264325
9.963264022
9.963265512
9.963264682
9.963265215
9.963265263
9.9632648
9.963264633
9.963265179
9.963250609
9.96325135
9.963251549
9.963252259
9.96325306
9.963254026
9.963251648
9.963248746
9.963248854
9.963250508
9.963251406
9.963251757
9.963253068
9.963253532
9.963272034
9.963272119
9.963272504
9.963273191
9.963272613
9.96327275
9.963273546
9.963274356
9.963274625
9.963275212
9.963273784
9.963274338
9.963274943
9.963274712
9.963287869
9.963288163
9.963286955
9.963285111
9.963283905
9.963284504
9.963285019
9.963283082
9.963282728
9.963281413
9.963281635
9.963281294
9.963280402
9.96327914
9.963279674
9.963265798
9.963264921
9.963265497
9.963265926
9.963266463
9.963266417
9.963265859
9.963264834
9.963264044
9.963263226
9.963262282
9.96326343
9.963263529
9.963263086
9.963263673
9.963288011
9.963286364
9.96328491
9.963284494
9.963284029
9.963282443
9.963280908
9.963280251
9.963279935
9.963279214
9.963279075
9.963279019
9.963279289
9.963278502
9.963279936
9.963352862
9.96335351
9.963353588
9.963356171
9.963358593
9.963359513
9.963361025
9.96336161
9.963361977
9.963362781
9.96336314
9.963364852
9.963364898
9.963365764
9.963365998
10.03762885
10.0377262
10.03781262
10.03789473
10.03797487
10.03805384
10.03813035
10.03820769
10.03828365
10.03836076
10.03843837
10.03851592
10.03859297
10.03867019
9.963366745
9.9633686
9.963370168
9.963371282
9.963372572
9.963373493
9.963373356
9.96337374
9.96337552
9.963376199
9.963377159
9.963376372
9.963376878
9.963376916
9.963250214
9.963249659
9.963250535
9.963250665
9.963250433
9.96325079
9.963251511
9.963251433
9.963252209
9.96325253
9.963252671
9.963251553
9.963251634
9.963252429
9.963303498
9.963303813
9.963302791
9.96330148
9.963301737
9.963300601
9.963300793
9.963303378
9.963303004
9.963303308
9.963301539
9.963301429
9.96330166
9.96330239
9.963278866
9.963278719
9.96327933
9.963279369
9.963279154
9.963279423
9.963279582
9.963279568
9.963279331
9.96327816
9.963277731
9.963278369
9.963279442
9.963278803
9.963252245
9.963252177
9.963253022
9.963252702
9.963252995
9.96325353
9.963252433
9.963251291
9.963251358
9.963251357
9.96325095
9.963250065
9.963249373
9.963250365
9.963250909
9.963293479
9.96329341
9.963293012
9.963293235
9.963294211
9.96329395
9.963294601
9.963294156
9.96329382
9.963291875
9.963291925
9.963292493
9.963292858
9.963293462
9.963293402
9.963262419
9.963262125
9.963264185
9.963264694
9.963263214
9.963262873
9.963264453
9.963264867
9.963263431
9.963263951
9.963262299
9.963262003
9.963262188
9.963263962
9.963265049
9.963279508
9.963278751
9.963278598
9.963278114
9.963278153
9.963279336
9.963280465
9.963280858
9.963281997
9.963279796
9.963278693
9.963279998
9.963279886
9.963280493
9.963279757
9.963348728
9.963347734
9.963348662
9.963350244
9.963351669
9.963351292
9.963352223
9.963353711
9.963354791
9.963354735
9.963356535
9.963356808
9.963357347
9.963357103
9.963356574
9.963290544
9.963290906
9.963291235
9.963291064
9.963291926
9.963293719
9.963293265
9.963293329
9.963291667
9.963291589
9.963291993
9.963291431
9.963291088
9.963292697
9.963294277
9.963287714
9.96328526
9.963285317
9.963285082
9.963286927
9.963286225
9.963286734
9.963285999
9.96328663
9.963288521
9.963287184
9.963286706
9.96328459
9.963284318
9.963284218
9.963284869
9.96328348
9.963282747
9.963282203
9.963281403
9.963281384
9.9632821
9.963282694
9.963282393
9.963281578
9.963280484
9.963281432
9.963281495
9.963280737
9.963280299
9.963281758
9.963281127
9.963280524
9.96328034
9.963280447
9.963279511
9.963280396
9.963280669
9.963279952
9.963281233
9.963281236
9.9632822
9.96328632
9.96328559
9.963284871
9.963284268
9.963285324
9.963283868
9.963283668
9.963283499
9.963283247
9.963283477
9.963283766
9.963283731
9.963283605
9.963284323
9.963283073
9.963303465
9.963303179
9.963305088
9.963304091
9.963303631
9.963302406
9.963304509
9.963305653
9.963305937
9.963305714
9.9633056
9.963305512
9.963305783
9.963306567
9.963306107
9.963251
9.963249593
9.963250102
9.963250208
9.963250276
9.963250927
9.963249712
9.963249536
9.963250477
9.963250512
9.963251621
9.96325139
9.963252063
9.963251853
9.963251981
9.963291363
9.963290626
9.963290092
9.963289874
9.963290258
9.963290827
9.963290088
9.96329131
9.963290794
9.963290431
9.963289795
9.963290661
9.963291597
9.963291728
9.963293298
9.963257834
9.963257166
9.963257904
9.963257594
9.963257274
9.9632574
9.963257087
9.963257119
9.963258181
9.963258424
9.963256886
9.96325491
9.963254159
9.963254395
9.963253439
9.963293845
9.963292645
9.963291546
9.963291264
9.963291823
9.963291008
9.963292748
9.96329243
9.963292672
9.96329324
9.963294018
9.963294424
9.963295544
9.963296276
9.963296004
9.963272393
9.963273544
9.963273978
9.963272479
9.96327167
9.963271655
9.963271379
9.963271477
9.963272458
9.963270699
9.963270926
9.963271177
9.963269899
9.963269428
9.963270742
9.963255859
9.963255945
9.96325555
9.963254899
9.963255371
9.96325343
9.963252916
9.963252866
9.963252299
9.963250092
9.963249947
9.963249079
9.96324855
9.963251887
9.963302681
9.963301971
9.963303551
9.963303659
9.963304031
9.963304696
9.963304819
9.963303567
9.963303453
9.963303582
9.963303461
9.963303286
9.963304431
9.963304251
9.963267911
9.96326703
9.963268612
9.963268346
9.963267429
9.963267785
9.963268234
9.963269025
9.963268154
9.963267683
9.963267903
9.963268123
9.963269418
9.963269559
9.963270622
9.963266942
9.963267783
9.963267095
9.963266462
9.963265453
9.963266729
9.96326708
9.963266773
9.963267385
9.963267872
9.963267542
9.963267358
9.96326694
9.963266042
9.963265772
9.963300187
9.9632995
9.96330021
9.96329862
9.96329802
9.963298293
9.963298672
9.963297755
9.963296251
9.963294901
9.963294244
9.963294037
9.96329401
9.963295132
9.9632948
9.963265982
9.963265401
9.963266802
9.963268448
9.963268228
9.963268337
9.963269361
9.963268893
9.963270112
9.963270841
9.963269496
9.963269065
9.963268854
9.96326814
9.963268876
9.963290504
9.963290347
9.963289501
9.963289042
9.963288073
9.963288062
9.963287258
9.963287294
9.963288655
9.963290219
9.963289393
9.96328958
9.963291932
9.963291419
9.963291305
9.963265792
9.963265634
9.96326662
9.963265903
9.963266706
9.963266161
9.963268399
9.963268829
9.963267352
9.963266754
9.963268446
9.963267392
9.963266908
9.963266922
9.963266019
9.963299277
9.963299187
9.963300103
9.963299819
9.963298598
9.963299322
9.963299125
9.963299569
9.963299217
9.963298628
9.963299856
9.963299341
9.963299044
9.963298736
9.96329813
9.963332874
9.963333075
9.963331266
9.963330816
9.963331007
9.963330677
9.963331267
9.963330742
9.963330393
9.963330231
9.96333019
9.963330176
9.963330372
9.963331504
9.96333294
9.963280305
9.963280371
9.963281793
9.963280484
9.963278541
9.963278139
9.963279239
9.963279072
9.963278978
9.9632783
9.963278147
9.963277784
9.963277726
9.96327824
9.963288796
9.963289884
9.963289302
9.963288998
9.963288708
9.963289419
9.963289558
9.963288299
9.963288397
9.96328736
9.963288342
9.963287894
9.963287513
9.963286731
9.963286212
9.963256046
9.9632572
9.963257385
9.963257414
9.96325795
9.963258272
9.963257624
9.963258692
9.963258791
9.963257534
9.963258505
9.963258562
9.963258656
9.963258956
9.963259969
9.963253773
9.96325334
9.963253506
9.963252832
9.963252442
9.963251278
9.963251721
9.963252371
9.963251988
9.96325214
9.963252146
9.963251982
9.963251751
9.963250566
9.963251614
9.963268319
9.963268294
9.963268417
9.963267528
9.963267622
9.963268278
9.9632687
9.963269495
9.963268603
9.963268452
9.963268453
9.963267849
9.96326912
9.963269251
9.963270553
9.963288823
9.963288365
9.963288955
9.963289483
9.963289942
9.963289495
9.963288738
9.963287526
9.963287984
9.963286895
9.963286713
9.963285599
9.963285963
9.963284963
9.963285922
9.963278495
9.963277517
9.963276896
9.963276053
9.963275246
9.963274964
9.963273207
9.963274217
9.963273339
9.963273159
9.96327213
9.963272485
9.963272684
9.963272313
9.963271676
9.963260854
9.963260196
9.963261108
9.96326074
9.963261398
9.963261533
9.963262281
9.96326222
9.963262268
9.963262223
9.963261611
9.963261226
9.963259802
9.963258681
9.963259049
9.963266932
9.963266701
9.963267273
9.963268799
9.963268811
9.963269112
9.963268044
9.963267942
9.963266179
9.963266491
9.963266662
9.963267008
9.963265698
9.963265783
9.963266556
9.96327455
9.963273795
9.963273694
9.963273799
9.963273596
9.963273397
9.963272956
9.963273269
9.963272086
9.963272185
9.963273118
9.963273133
9.963272318
9.963271569
9.963271622
)
;

boundaryField
{
    top
    {
        type            calculated;
        value           nonuniform List<scalar> 
127
(
9.96327455
9.963292088
9.963266377
9.963285464
9.963272034
9.963278866
9.963280737
9.963302681
9.963280305
9.963273795
9.963292959
9.963266619
9.963285653
9.963272119
9.963278719
9.963280299
9.963301971
9.963280371
9.963273694
9.963292905
9.963266774
9.963286188
9.963272504
9.96327933
9.963281758
9.963303551
9.963281793
9.963273799
9.963292517
9.96326674
9.9632847
9.963273191
9.963279369
9.963281127
9.963303659
9.963280484
9.963273596
9.963291938
9.963266583
9.963285878
9.963272613
9.963279154
9.963280524
9.963304031
9.963278541
9.963273397
9.963291228
9.963266282
9.963284996
9.96327275
9.963279423
9.96328034
9.963304696
9.963278139
9.963272956
9.963290431
9.963265663
9.963284549
9.963273546
9.963279582
9.963280447
9.963304819
9.963279239
9.963273269
9.963289422
9.963266073
9.963283562
9.963274356
9.963279568
9.963279511
9.963303567
9.963279072
9.963272086
9.963290149
9.963264556
9.963283717
9.963274625
9.963279331
9.963280396
9.963303453
9.963278978
9.963272185
9.963289985
9.963264723
9.963283457
9.963275212
9.96327816
9.963280669
9.963303582
9.9632783
9.963273118
9.963290026
9.963263525
9.963284245
9.963273784
9.963277731
9.963279952
9.963303461
9.963278147
9.963273133
9.963289735
9.963263493
9.963283884
9.963274338
9.963278369
9.963281233
9.963303286
9.963277784
9.963272318
9.963289845
9.963264062
9.963284221
9.963274943
9.963279442
9.963281236
9.963304431
9.963277726
9.963271569
9.963290676
9.963264323
9.963283026
9.963274712
9.963278803
9.9632822
9.963304251
9.96327824
9.963271622
)
;
    }
    bottom
    {
        type            calculated;
        value           nonuniform List<scalar> 
134
(
9.96327529
9.963275969
9.963276491
9.963287869
9.963252245
9.96328632
9.963267911
9.963288796
9.963291288
9.963274137
9.963275658
9.963276756
9.963288163
9.963252177
9.96328559
9.96326703
9.963289884
9.963291166
9.963274907
9.963274328
9.963277239
9.963286955
9.963253022
9.963284871
9.963268612
9.963289302
9.963290481
9.963274865
9.963273346
9.963277732
9.963285111
9.963252702
9.963284268
9.963268346
9.963288998
9.963290495
9.96327532
9.963273495
9.963277254
9.963283905
9.963252995
9.963285324
9.963267429
9.963288708
9.963289588
9.963275485
9.963274897
9.963277176
9.963284504
9.96325353
9.963283868
9.963267785
9.963289419
9.963288955
9.963276221
9.96327419
9.963276172
9.963285019
9.963252433
9.963283668
9.963268234
9.963289558
9.963288792
9.963273758
9.963273456
9.963275923
9.963283082
9.963251291
9.963283499
9.963269025
9.963288299
9.963289081
9.963274074
9.963273065
9.963273796
9.963282728
9.963251358
9.963283247
9.963268154
9.963288397
9.963289328
9.96327432
9.963271992
9.963273797
9.963281413
9.963251357
9.963283477
9.963267683
9.96328736
9.963289963
9.963274365
9.963272088
9.963273907
9.963281635
9.96325095
9.963283766
9.963267903
9.963288342
9.963290882
9.963274552
9.963271916
9.963273015
9.963281294
9.963250065
9.963283731
9.963268123
9.963287894
9.963291245
9.963273482
9.963271718
9.963273998
9.963280402
9.963249373
9.963283605
9.963269418
9.963287513
9.963290733
9.963272867
9.963273338
9.96327503
9.96327914
9.963250365
9.963284323
9.963269559
9.963286731
9.963290232
9.963271424
9.963272052
9.963274301
9.963279674
9.963250909
9.963283073
9.963270622
9.963286212
)
;
    }
    side-walls
    {
        type            calculated;
        value           nonuniform List<scalar> 
261
(
9.963291288
9.963240763
9.963263013
9.963291431
9.963285836
9.963280168
9.963251978
9.963293267
9.963292088
9.963291166
9.963239353
9.963261689
9.963291971
9.9632855
9.963279592
9.963252021
9.963292915
9.963292959
9.963290481
9.963240127
9.963261459
9.9632908
9.963284932
9.963279103
9.963250336
9.96329298
9.963292905
9.963290495
9.963240057
9.963262079
9.96328989
9.963283814
9.963279416
9.963249975
9.963293642
9.963292517
9.963289588
9.963240091
9.963260661
9.963290881
9.963283864
9.963279079
9.963249686
9.963292831
9.963291938
9.963288955
9.963240086
9.963260718
9.963289016
9.963282685
9.963279266
9.963249962
9.963292688
9.963291228
9.963288792
9.963239679
9.963262042
9.963289519
9.963283172
9.963279931
9.963249579
9.963293261
9.963290431
9.963289081
9.963239993
9.963261484
9.963289328
9.963283797
9.963278737
9.963250724
9.963292989
9.963289422
9.963289328
9.963239469
9.963261656
9.963289714
9.963283823
9.963279023
9.96325089
9.963292571
9.963290149
9.963289963
9.963239449
9.963261977
9.963288682
9.963283604
9.963278198
9.963250111
9.963292624
9.963289985
9.963290882
9.963237971
9.963261372
9.963289257
9.963283698
9.963279638
9.963248937
9.963292349
9.963290026
9.963291245
9.96323919
9.963260826
9.963290577
9.963284138
9.963279926
9.963249994
9.963292545
9.963289735
9.963290733
9.963240707
9.963260607
9.963290797
9.963283246
9.963279684
9.963249538
9.963292727
9.963289845
9.963290232
9.963241315
9.963260138
9.963291698
9.963283296
9.963280436
9.963247855
9.96329116
9.963290676
9.963288796
9.963256046
9.963253773
9.963268319
9.963288823
9.963278495
9.963260854
9.963266932
9.96327455
9.963289884
9.9632572
9.96325334
9.963268294
9.963288365
9.963277517
9.963260196
9.963266701
9.963273795
9.963289302
9.963257385
9.963253506
9.963268417
9.963288955
9.963276896
9.963261108
9.963267273
9.963273694
9.963288998
9.963257414
9.963252832
9.963267528
9.963289483
9.963276053
9.96326074
9.963268799
9.963273799
9.963288708
9.96325795
9.963252442
9.963267622
9.963289942
9.963275246
9.963261398
9.963268811
9.963273596
9.963289419
9.963258272
9.963251278
9.963268278
9.963289495
9.963274964
9.963261533
9.963269112
9.963273397
9.963289558
9.963257624
9.963251721
9.9632687
9.963288738
9.963273207
9.963262281
9.963268044
9.963272956
9.963288299
9.963258692
9.963252371
9.963269495
9.963287526
9.963274217
9.96326222
9.963267942
9.963273269
9.963288397
9.963258791
9.963251988
9.963268603
9.963287984
9.963273339
9.963262268
9.963266179
9.963272086
9.96328736
9.963257534
9.96325214
9.963268452
9.963286895
9.963273159
9.963262223
9.963266491
9.963272185
9.963288342
9.963258505
9.963252146
9.963268453
9.963286713
9.96327213
9.963261611
9.963266662
9.963273118
9.963287894
9.963258562
9.963251982
9.963267849
9.963285599
9.963272485
9.963261226
9.963267008
9.963273133
9.963287513
9.963258656
9.963251751
9.96326912
9.963285963
9.963272684
9.963259802
9.963265698
9.963272318
9.963286731
9.963258956
9.963250566
9.963269251
9.963284963
9.963272313
9.963258681
9.963265783
9.963271569
9.963286212
9.963259969
9.963251614
9.963270553
9.963285922
9.963271676
9.963259049
9.963266556
9.963271622
)
;
    }
    inlet
    {
        type            calculated;
        value           nonuniform 0();
    }
    outlet
    {
        type            calculated;
        value           nonuniform List<scalar> 
81
(
9.963290232
9.963241315
9.963260138
9.963291698
9.963283296
9.963280436
9.963247855
9.96329116
9.963290676
9.963271424
9.96331245
9.96328798
9.963288412
9.963221325
9.963269738
9.963275338
9.96327745
9.963264323
9.963272052
9.963247896
9.963291908
9.963248337
9.963253471
9.963283392
9.963252748
9.963270333
9.963283026
9.963274301
9.963273307
9.963287996
9.963253075
9.963378195
9.963286537
9.963265179
9.963253532
9.963274712
9.963279674
9.963263673
9.963279936
9.963365998
10.03867019
9.963376916
9.963252429
9.96330239
9.963278803
9.963250909
9.963293402
9.963265049
9.963279757
9.963356574
9.963294277
9.963284318
9.963281495
9.9632822
9.963283073
9.963306107
9.963251981
9.963293298
9.963253439
9.963296004
9.963270742
9.963251887
9.963304251
9.963270622
9.963265772
9.9632948
9.963268876
9.963291305
9.963266019
9.96329813
9.96333294
9.96327824
9.963286212
9.963259969
9.963251614
9.963270553
9.963285922
9.963271676
9.963259049
9.963266556
9.963271622
)
;
    }
    procBoundary1to0
    {
        type            processor;
        value           nonuniform List<scalar> 
97
(
9.963290449
9.963290449
9.963240377
9.963261769
9.963291158
9.963285165
9.963279494
9.963252079
9.963293698
9.963292248
9.96327491
9.96331553
9.96331553
9.96331553
9.963290714
9.963286162
9.963221939
9.963268174
9.963275645
9.963280919
9.963266127
9.963277523
9.96324697
9.963291973
9.963291973
9.963291973
9.963251842
9.963253655
9.963287531
9.963249151
9.963263251
9.963286081
9.963275565
9.963275669
9.963288037
9.96324748
9.96324748
9.96324748
9.963368812
9.963283205
9.963265554
9.963250822
9.963272075
9.963287961
9.963264411
9.963287973
9.963274941
10.03758961
10.03758961
10.03758961
9.963365207
9.963365207
9.963250706
9.963304116
9.963279347
9.963252098
9.963293832
9.963262121
9.963280755
9.963269977
9.963291312
9.963287614
9.963287614
9.963287614
9.963283632
9.963281549
9.96328544
9.963304887
9.963249978
9.963290843
9.963258991
9.963292713
9.963271861
9.963255375
9.963255375
9.963255375
9.9633022
9.963268209
9.963266641
9.963300106
9.963267303
9.963290791
9.963267787
9.963301077
9.963333035
9.963281241
9.963281241
9.963281241
9.96328851
9.963255713
9.963254162
9.963269279
9.963288008
9.96327842
9.96326071
9.96326611
9.963273157
)
;
    }
}


// ************************************************************************* //
