/*--------------------------------*- C++ -*----------------------------------*\
| =========                 |                                                 |
| \\      /  F ield         | OpenFOAM: The Open Source CFD Toolbox           |
|  \\    /   O peration     | Version:  4.x                                   |
|   \\  /    A nd           | Web:      www.OpenFOAM.org                      |
|    \\/     M anipulation  |                                                 |
\*---------------------------------------------------------------------------*/
FoamFile
{
    version     2.0;
    format      ascii;
    class       volScalarField;
    location    "3000";
    object      N2;
}
// * * * * * * * * * * * * * * * * * * * * * * * * * * * * * * * * * * * * * //

dimensions      [0 0 0 0 0 0 0];

internalField   nonuniform List<scalar> 
1174
(
0.5999983878
0.5999971849
0.5999954857
0.5999932686
0.5999905566
0.5999874091
0.5999839097
0.5999801534
0.5999762364
0.5999722498
0.5999682776
0.5999644094
0.5999608042
0.5999579699
0.5999972583
0.5999953297
0.5999927606
0.59998961
0.5999859859
0.5999820195
0.5999778441
0.5999735811
0.599969333
0.5999651816
0.5999611914
0.5999574251
0.5999540035
0.5999513608
0.5999947632
0.5999913535
0.5999871332
0.5999823394
0.5999772292
0.5999720333
0.5999669346
0.5999620638
0.5999575036
0.5999532993
0.5999494704
0.5999460289
0.5999430306
0.5999407836
0.5999911069
0.599985809
0.5999797246
0.5999732977
0.5999668989
0.5999607945
0.5999551511
0.5999500548
0.5999455329
0.5999415741
0.5999381448
0.5999352071
0.5999327574
0.5999309818
0.5999884957
0.5999821609
0.5999752474
0.5999682417
0.5999614957
0.5999552346
0.5999495812
0.5999445831
0.5999402366
0.5999365063
0.5999333398
0.599930683
0.599928512
0.5999269641
0.5999911071
0.5999858094
0.5999797251
0.5999732984
0.5999668999
0.5999607958
0.5999551527
0.5999500567
0.5999455351
0.5999415766
0.5999381476
0.5999352101
0.5999327606
0.5999309853
0.5999947635
0.5999913539
0.5999871338
0.5999823403
0.5999772304
0.5999720349
0.5999669368
0.5999620664
0.5999575067
0.599953303
0.5999494747
0.5999460337
0.5999430358
0.5999407893
0.5999972586
0.5999953301
0.5999927611
0.5999896107
0.5999859869
0.5999820209
0.599977846
0.5999735836
0.5999693362
0.5999651854
0.5999611959
0.5999574303
0.5999540094
0.5999513674
0.599998388
0.5999971851
0.599995486
0.599993269
0.5999905572
0.5999874101
0.5999839112
0.5999801554
0.5999762391
0.5999722533
0.5999682819
0.5999644146
0.5999608102
0.5999579768
0.5999985603
0.5999972586
0.59999533
0.5999927609
0.5999896103
0.5999859862
0.5999820198
0.5999778444
0.5999735814
0.5999693334
0.5999651819
0.5999611917
0.5999574254
0.5999540038
0.5999513611
0.5999947113
0.5999913243
0.5999871927
0.5999825641
0.5999776873
0.599972772
0.5999679747
0.5999633997
0.5999591089
0.5999551329
0.5999514831
0.5999481696
0.5999452515
0.5999430453
0.599988303
0.5999817207
0.5999745634
0.5999674357
0.5999607525
0.5999547399
0.5999494808
0.5999449645
0.5999411295
0.5999378925
0.5999351672
0.5999328792
0.5999309945
0.5999296365
0.5999769134
0.5999659664
0.5999555513
0.5999464469
0.5999389258
0.5999329531
0.5999283446
0.5999248668
0.5999222901
0.599920413
0.5999190687
0.5999181249
0.5999174824
0.5999170924
0.5999661655
0.5999529916
0.5999418216
0.5999329506
0.5999262051
0.5999212453
0.5999177089
0.5999152703
0.5999136595
0.5999126612
0.5999121081
0.5999118703
0.5999118413
0.599911911
0.5999769145
0.5999659676
0.5999555529
0.5999464489
0.5999389281
0.5999329558
0.5999283477
0.5999248702
0.5999222938
0.5999204169
0.5999190728
0.5999181292
0.5999174869
0.599917097
0.5999883042
0.599981722
0.5999745649
0.5999674377
0.599960755
0.5999547432
0.5999494846
0.599944969
0.5999411347
0.5999378982
0.5999351735
0.5999328859
0.5999310016
0.599929644
0.599994712
0.5999913249
0.5999871935
0.5999825652
0.599977689
0.5999727744
0.5999679778
0.5999634036
0.5999591136
0.5999551385
0.5999514894
0.5999481766
0.5999452593
0.5999430537
0.5999972586
0.5999953301
0.5999927612
0.5999896108
0.5999859872
0.5999820214
0.5999778467
0.5999735846
0.5999693374
0.599965187
0.5999611978
0.5999574325
0.5999540118
0.5999513701
0.5999972147
0.5999947639
0.5999913543
0.599987134
0.5999823403
0.59997723
0.5999720341
0.5999669355
0.5999620646
0.5999575044
0.5999533002
0.5999494713
0.5999460297
0.5999430314
0.5999407844
0.5999936172
0.599988304
0.5999817216
0.5999745642
0.5999674365
0.5999607532
0.5999547406
0.5999494814
0.5999449651
0.5999411301
0.5999378931
0.5999351678
0.5999328797
0.599930995
0.599929637
0.5999693706
0.5999554827
0.5999428992
0.5999325725
0.5999247004
0.5999190584
0.5999152491
0.5999128493
0.5999114815
0.5999108385
0.5999106838
0.59991084
0.5999111654
0.5999115008
0.5999272615
0.5999037965
0.5998875916
0.5998780011
0.5998734674
0.5998724176
0.599873581
0.5998760361
0.5998791573
0.5998825397
0.5998859302
0.5998891666
0.5998920953
0.599894339
0.5998721036
0.5998487324
0.5998386539
0.5998368259
0.5998396394
0.5998448189
0.5998510135
0.5998574538
0.5998637192
0.599869594
0.5998749775
0.5998798202
0.5998840319
0.5998871819
0.5999272666
0.5999038014
0.5998875967
0.5998780067
0.5998734735
0.5998724241
0.5998735877
0.5998760429
0.5998791641
0.5998825464
0.5998859369
0.5998891732
0.5998921018
0.5998943455
0.5999693741
0.5999554858
0.5999429028
0.5999325771
0.5999247062
0.5999190653
0.5999152569
0.5999128578
0.5999114905
0.5999108479
0.5999106936
0.59991085
0.5999111756
0.5999115112
0.5999883041
0.5999817221
0.5999745654
0.5999674387
0.5999607566
0.5999547452
0.5999494872
0.599944972
0.5999411381
0.599937902
0.5999351774
0.5999328901
0.599931006
0.5999296486
0.5999947634
0.599991354
0.5999871342
0.5999823412
0.5999772318
0.599972037
0.5999669396
0.5999620699
0.599957511
0.5999533079
0.5999494802
0.5999460398
0.5999430425
0.5999407966
0.5999951934
0.5999911082
0.5999858104
0.5999797261
0.5999732993
0.5999669006
0.5999607962
0.5999551528
0.5999500564
0.5999455345
0.5999415757
0.5999381464
0.5999352086
0.5999327588
0.5999309833
0.5999869811
0.5999769159
0.5999659686
0.5999555535
0.599946449
0.5999389278
0.5999329549
0.5999283464
0.5999248685
0.5999222917
0.5999204145
0.5999190701
0.5999181262
0.5999174837
0.5999170936
0.5999558754
0.5999272663
0.5999038
0.5998875944
0.5998780034
0.5998734694
0.5998724193
0.5998735825
0.5998760375
0.5998791585
0.5998825407
0.5998859312
0.5998891675
0.5998920961
0.5998943397
0.599782891
0.5997532718
0.5997482564
0.5997566011
0.5997709297
0.5997870711
0.5998029059
0.5998174855
0.5998304806
0.5998418656
0.5998517455
0.5998602494
0.5998673939
0.599872613
0.5994995876
0.5995362051
0.5995927858
0.5996471456
0.5996933924
0.5997311496
0.5997616231
0.5997862469
0.5998062759
0.5998227057
0.5998362939
0.5998475828
0.5998568281
0.5998634735
0.5997829089
0.5997532851
0.5997482692
0.5997566141
0.5997709427
0.5997870838
0.5998029181
0.5998174971
0.5998304916
0.5998418759
0.5998517552
0.5998602587
0.5998674027
0.5998726217
0.599927266
0.5999038031
0.5998876007
0.5998780125
0.5998734806
0.599872432
0.5998735961
0.5998760515
0.5998791727
0.5998825549
0.5998859453
0.5998891814
0.5998921098
0.5998943534
0.5999769142
0.5999659685
0.5999555553
0.599946453
0.5999389338
0.5999329628
0.5999283559
0.5999248793
0.5999223037
0.5999204273
0.5999190836
0.5999181402
0.5999174982
0.5999171085
0.5999911069
0.5999858097
0.5999797262
0.5999733007
0.5999669035
0.5999608008
0.5999551591
0.5999500644
0.5999455441
0.5999415866
0.5999381586
0.599935222
0.5999327733
0.5999309987
0.5999936763
0.5999884973
0.5999821626
0.5999752494
0.5999682438
0.599961498
0.5999552369
0.5999495836
0.5999445854
0.5999402389
0.5999365086
0.5999333421
0.5999306852
0.5999285141
0.5999269661
0.5999800517
0.5999661687
0.5999529948
0.599941825
0.5999329539
0.5999262083
0.5999212483
0.5999177117
0.599915273
0.5999136621
0.5999126637
0.5999121104
0.5999118725
0.5999118434
0.599911913
0.5999135239
0.5998721115
0.5998487393
0.5998386599
0.5998368311
0.5998396439
0.5998448227
0.5998510168
0.5998574567
0.5998637218
0.5998695963
0.5998749797
0.5998798222
0.5998840337
0.5998871836
0.5995501919
0.5994996094
0.5995362186
0.5995927946
0.5996471519
0.599693397
0.5997311531
0.5997616258
0.5997862492
0.5998062778
0.5998227073
0.5998362953
0.5998475841
0.5998568293
0.5998634745
0.5982782826
0.598897662
0.5992413782
0.5994429282
0.5995679098
0.5996497273
0.5997060365
0.5997465409
0.5997767916
0.5998000938
0.5998184893
0.5998332546
0.5998450505
0.5998534005
0.5994995868
0.599536224
0.5995928114
0.5996471718
0.5996934168
0.5997311717
0.5997616428
0.5997862647
0.5998062919
0.5998227202
0.5998363071
0.5998475951
0.5998568396
0.5998634845
0.599872102
0.5998487399
0.5998386684
0.5998368444
0.59983966
0.5998448403
0.5998510349
0.5998574748
0.5998637396
0.5998696136
0.5998749965
0.5998798385
0.5998840495
0.5998871992
0.5999661648
0.5999529939
0.5999418274
0.5999329595
0.5999262166
0.5999212589
0.599917724
0.5999152867
0.5999136767
0.599912679
0.5999121263
0.5999118888
0.5999118599
0.5999119299
0.5999884954
0.5999821615
0.5999752496
0.5999682458
0.599961502
0.599955243
0.5999495916
0.5999445953
0.5999402505
0.5999365216
0.5999333564
0.5999307006
0.5999285305
0.5999269837
0.5999951934
0.5999911085
0.599985811
0.599979727
0.5999733006
0.5999669022
0.5999607982
0.5999551552
0.5999500593
0.5999455377
0.5999415792
0.5999381502
0.5999352127
0.5999327632
0.5999309878
0.5999869819
0.5999769174
0.5999659708
0.5999555562
0.5999464524
0.5999389316
0.5999329592
0.599928351
0.5999248734
0.599922297
0.5999204199
0.5999190757
0.5999181319
0.5999174895
0.5999170995
0.5999558837
0.599927274
0.5999038085
0.5998876035
0.5998780128
0.599873479
0.599872429
0.5998735922
0.599876047
0.5998791678
0.5998825498
0.59988594
0.5998891761
0.5998921045
0.599894348
0.5998491949
0.599782928
0.5997532999
0.5997482809
0.5997566234
0.5997709502
0.5997870899
0.5998029231
0.5998175013
0.5998304952
0.5998418791
0.599851758
0.5998602612
0.599867405
0.5998726238
0.5995501964
0.5994996157
0.5995362418
0.5995928232
0.59964718
0.5996934228
0.5997311761
0.5997616462
0.5997862674
0.5998062942
0.5998227222
0.5998363088
0.5998475966
0.599856841
0.5998634857
0.5998491892
0.5997829285
0.5997533076
0.5997482934
0.5997566382
0.5997709655
0.599787105
0.5998029376
0.5998175151
0.599830508
0.5998418911
0.5998517692
0.5998602717
0.5998674149
0.5998726334
0.5999272616
0.599903806
0.5998876082
0.5998780226
0.599873492
0.5998724439
0.5998736081
0.5998760633
0.5998791842
0.5998825661
0.599885956
0.5998891917
0.5998921198
0.5998943633
0.5999769125
0.5999659686
0.5999555572
0.5999464565
0.5999389385
0.5999329685
0.5999283622
0.5999248861
0.5999223107
0.5999204346
0.599919091
0.5999181478
0.5999175058
0.5999171162
0.5999911064
0.5999858096
0.5999797268
0.5999733021
0.5999669057
0.5999608037
0.5999551627
0.5999500687
0.5999455488
0.5999415918
0.5999381642
0.5999352279
0.5999327794
0.5999310051
0.5999972149
0.5999947644
0.5999913551
0.5999871353
0.599982342
0.5999772324
0.5999720371
0.5999669391
0.5999620688
0.5999575093
0.5999533056
0.5999494773
0.5999460363
0.5999430385
0.599940792
0.5999936187
0.5999883059
0.5999817241
0.5999745674
0.5999674404
0.5999607579
0.5999547462
0.5999494877
0.5999449721
0.5999411377
0.5999379013
0.5999351764
0.5999328888
0.5999310044
0.5999296468
0.5999826117
0.5999693784
0.5999554904
0.5999429077
0.599932582
0.5999247109
0.5999190698
0.5999152612
0.5999128618
0.5999114943
0.5999108515
0.599910697
0.5999108532
0.5999111786
0.5999115142
0.5999558836
0.5999272755
0.5999038123
0.5998876093
0.5998780202
0.5998734874
0.599872438
0.5998736014
0.5998760562
0.5998791769
0.5998825587
0.5998859487
0.5998891845
0.5998921127
0.5998943561
0.5999135239
0.5998721177
0.599848753
0.599838679
0.5998368531
0.5998396671
0.5998448461
0.5998510398
0.5998574789
0.5998637431
0.5998696167
0.5998749993
0.599879841
0.5998840518
0.5998872014
0.599955884
0.5999272774
0.5999038163
0.5998876154
0.5998780278
0.599873496
0.5998724471
0.5998736107
0.5998760656
0.5998791861
0.5998825678
0.5998859575
0.599889193
0.599892121
0.5998943643
0.5999826089
0.5999693763
0.5999554907
0.5999429108
0.5999325877
0.5999247188
0.5999190794
0.599915272
0.5999128735
0.5999115066
0.5999108641
0.5999107098
0.5999108661
0.5999111915
0.5999115272
0.599988303
0.5999817227
0.5999745678
0.5999674428
0.5999607623
0.5999547524
0.5999494956
0.5999449814
0.5999411483
0.5999379129
0.5999351889
0.599932902
0.5999310183
0.5999296612
0.5999947629
0.599991354
0.599987135
0.5999823429
0.5999772347
0.599972041
0.5999669447
0.5999620761
0.5999575181
0.599953316
0.599949489
0.5999460493
0.5999430526
0.5999408072
0.5999985606
0.5999972591
0.5999953308
0.599992762
0.5999896119
0.5999859883
0.5999820225
0.5999778478
0.5999735856
0.5999693383
0.5999651877
0.5999611983
0.5999574328
0.599954012
0.59995137
0.5999971796
0.5999947129
0.5999913262
0.599987195
0.599982567
0.599977691
0.5999727767
0.5999679803
0.5999634062
0.5999591163
0.5999551412
0.5999514922
0.5999481794
0.5999452621
0.5999430565
0.5999936186
0.5999883061
0.5999817246
0.5999745683
0.5999674419
0.5999607599
0.5999547487
0.5999494907
0.5999449755
0.5999411415
0.5999379053
0.5999351807
0.5999328933
0.5999310091
0.5999296516
0.5999869818
0.5999769181
0.5999659729
0.5999555601
0.5999464578
0.5999389386
0.5999329675
0.5999283603
0.5999248835
0.5999223076
0.599920431
0.5999190871
0.5999181436
0.5999175013
0.5999171115
0.5999800517
0.5999661709
0.5999530002
0.5999418335
0.5999329652
0.599926222
0.5999212638
0.5999177285
0.5999152908
0.5999136804
0.5999126824
0.5999121295
0.5999118917
0.5999118627
0.5999119326
0.5999869822
0.5999769189
0.5999659745
0.5999555625
0.5999464611
0.5999389426
0.5999329721
0.5999283654
0.599924889
0.5999223134
0.599920437
0.5999190932
0.5999181498
0.5999175077
0.599917118
0.5999936185
0.5999883061
0.5999817252
0.59997457
0.5999674447
0.599960764
0.599954754
0.599949497
0.5999449827
0.5999411495
0.599937914
0.5999351899
0.5999329029
0.5999310191
0.599929662
0.599997179
0.5999947123
0.5999913259
0.5999871955
0.5999825685
0.5999776936
0.5999727805
0.5999679853
0.5999634124
0.5999591237
0.5999551496
0.5999515016
0.5999481897
0.5999452732
0.5999430683
0.5999972582
0.5999953302
0.5999927619
0.5999896124
0.5999859898
0.5999820251
0.5999778516
0.5999735907
0.5999693448
0.5999651955
0.5999612074
0.5999574432
0.5999540235
0.5999513827
0.5999991616
0.5999983883
0.5999971856
0.5999954867
0.5999932698
0.5999905583
0.5999874114
0.5999839127
0.5999801571
0.5999762411
0.5999722554
0.5999682841
0.5999644169
0.5999608127
0.5999579794
0.5999985606
0.5999972591
0.5999953308
0.5999927622
0.5999896121
0.5999859887
0.5999820232
0.5999778487
0.5999735868
0.5999693398
0.5999651894
0.5999612003
0.5999574351
0.5999540145
0.5999513729
0.5999972148
0.5999947645
0.5999913554
0.599987136
0.5999823433
0.5999772342
0.5999720396
0.5999669423
0.5999620728
0.5999575139
0.599953311
0.5999494833
0.5999460428
0.5999430455
0.5999407996
0.5999951934
0.5999911088
0.599985812
0.599979729
0.5999733039
0.5999669069
0.5999608043
0.5999551627
0.599950068
0.5999455476
0.5999415901
0.599938162
0.5999352253
0.5999327764
0.5999310018
0.5999936762
0.599988498
0.5999821647
0.5999752532
0.5999682496
0.5999615058
0.5999552469
0.5999495954
0.599944599
0.599940254
0.599936525
0.5999333596
0.5999307037
0.5999285335
0.5999269865
0.5999951935
0.5999911091
0.5999858127
0.5999797301
0.5999733055
0.599966909
0.599960807
0.5999551658
0.5999500716
0.5999455516
0.5999415945
0.5999381666
0.5999352302
0.5999327816
0.5999310072
0.5999972149
0.5999947646
0.5999913559
0.5999871369
0.5999823449
0.5999772366
0.5999720428
0.5999669465
0.5999620778
0.5999575197
0.5999533175
0.5999494905
0.5999460507
0.5999430539
0.5999408084
0.5999985605
0.599997259
0.5999953309
0.5999927626
0.5999896131
0.5999859904
0.5999820257
0.5999778522
0.5999735913
0.5999693453
0.599965196
0.5999612079
0.5999574437
0.599954024
0.5999513831
0.5999991615
0.5999983881
0.5999971854
0.5999954867
0.5999932703
0.5999905593
0.5999874133
0.5999839155
0.599980161
0.5999762462
0.5999722617
0.5999682917
0.5999644258
0.5999608228
0.5999579907
)
;

boundaryField
{
    top
    {
        type            zeroGradient;
    }
    bottom
    {
        type            zeroGradient;
    }
    side-walls
    {
        type            zeroGradient;
    }
    inlet
    {
        type            zeroGradient;
    }
    outlet
    {
        type            zeroGradient;
    }
    procBoundary1to0
    {
        type            processor;
        value           nonuniform List<scalar> 
97
(
0.5999991615
0.5999991615
0.5999985606
0.5999972152
0.5999951943
0.5999936777
0.5999951945
0.5999972155
0.5999985609
0.5999991618
0.5999993302
0.599997179
0.599997179
0.599997179
0.5999936188
0.599986984
0.599980057
0.5999869851
0.5999936201
0.5999971802
0.5999985609
0.5999987209
0.5999971441
0.599982609
0.599982609
0.599982609
0.599955889
0.5999135529
0.5999558957
0.599982616
0.5999936201
0.5999972154
0.5999978282
0.5999943637
0.5999822479
0.5998491927
0.5998491927
0.5998491927
0.5995503931
0.5998492408
0.5999558952
0.5999869848
0.5999951944
0.5999971907
0.5999917402
0.5999687907
0.599877996
0.5971012438
0.5971012438
0.5971012438
0.5995503835
0.5995503835
0.5999135505
0.5999800564
0.5999936774
0.5999978281
0.5999943634
0.5999822458
0.5999470294
0.5998779871
0.5999470353
0.5999558785
0.5999558785
0.5999558785
0.5999869824
0.5999951938
0.5999987209
0.5999971438
0.5999925226
0.5999822457
0.5999687895
0.5999822469
0.5999925233
0.5999936173
0.5999936173
0.5999936173
0.5999972148
0.5999993301
0.5999987083
0.5999971438
0.5999943633
0.5999917401
0.5999943636
0.599997144
0.5999987084
0.5999985603
0.5999985603
0.5999985603
0.5999996059
0.5999993301
0.5999987209
0.5999978281
0.5999971906
0.5999978282
0.5999987209
0.5999993301
0.5999996059
)
;
    }
}


// ************************************************************************* //
