/*--------------------------------*- C++ -*----------------------------------*\
| =========                 |                                                 |
| \\      /  F ield         | OpenFOAM: The Open Source CFD Toolbox           |
|  \\    /   O peration     | Version:  4.x                                   |
|   \\  /    A nd           | Web:      www.OpenFOAM.org                      |
|    \\/     M anipulation  |                                                 |
\*---------------------------------------------------------------------------*/
FoamFile
{
    version     2.0;
    format      ascii;
    class       volScalarField;
    location    "3000";
    object      rhoeps;
}
// * * * * * * * * * * * * * * * * * * * * * * * * * * * * * * * * * * * * * //

dimensions      [1 -3 0 0 0 0 0];

internalField   nonuniform List<scalar> 
1174
(
0.2790928576
0.2790934147
0.2790941801
0.2790952045
0.2790964414
0.2790979102
0.2790995338
0.2791012642
0.2791030967
0.27910496
0.2791068038
0.2791086294
0.279110302
0.2791115837
0.2790919802
0.279092855
0.2790940431
0.2790955115
0.2790971824
0.2790990314
0.2791009504
0.2791029538
0.2791049108
0.2791068354
0.2791086461
0.2791104159
0.2791120337
0.2791132818
0.2790937141
0.2790953139
0.2790972632
0.2790994813
0.2791018381
0.2791042397
0.279106665
0.2791088999
0.2791110065
0.2791129811
0.2791147405
0.2791163055
0.2791176908
0.2791187251
0.279096263
0.2790987084
0.2791015146
0.279104487
0.2791074513
0.2791102802
0.2791128779
0.2791152337
0.2791173503
0.2791191729
0.2791207759
0.2791221811
0.2791233138
0.2791241717
0.2790973169
0.2791002405
0.279103457
0.2791066618
0.2791098041
0.2791127074
0.2791152991
0.2791176267
0.2791196571
0.2791213959
0.279122858
0.2791241225
0.2791250878
0.2791258045
0.279095931
0.2790983806
0.2791011901
0.2791041802
0.2791071481
0.2791099989
0.2791125849
0.2791149537
0.2791170515
0.2791188894
0.2791204826
0.2791218947
0.2791230271
0.2791238453
0.2790934274
0.279094973
0.2790969233
0.2790991591
0.2791015268
0.2791039609
0.2791062847
0.2791085964
0.2791107012
0.2791126515
0.2791143592
0.279116012
0.2791173887
0.2791183928
0.2790934385
0.2790943277
0.2790955502
0.2790970064
0.2790986566
0.2791004718
0.2791024392
0.2791044097
0.279106383
0.2791083234
0.2791101742
0.2791119137
0.2791135144
0.2791146843
0.2790928881
0.2790934661
0.2790942543
0.2790952799
0.2790965203
0.2790979804
0.2790995635
0.279101282
0.2791031084
0.279104949
0.2791067857
0.2791085837
0.2791102912
0.279111607
0.2790923148
0.2790929024
0.2790938285
0.2790950132
0.27909648
0.2790981787
0.2791000241
0.2791019129
0.2791038944
0.2791058675
0.2791078006
0.279109638
0.2791113642
0.2791129568
0.2791141504
0.2790952366
0.2790968667
0.2790988171
0.279100977
0.2791031795
0.2791054526
0.2791076744
0.2791097871
0.2791117676
0.2791135783
0.2791152738
0.2791168193
0.2791181544
0.279119163
0.2790975267
0.2791005718
0.2791038876
0.2791072082
0.2791102818
0.2791131011
0.2791155228
0.2791176083
0.279119364
0.2791208792
0.2791221269
0.2791232174
0.2791240507
0.27912468
0.2791027278
0.2791078302
0.2791126594
0.2791168967
0.2791203366
0.2791231261
0.2791252901
0.2791268899
0.2791280954
0.2791289135
0.2791295412
0.2791299942
0.2791303063
0.2791305258
0.2791058571
0.279111978
0.2791171502
0.2791213088
0.2791244636
0.2791267497
0.279128391
0.2791295782
0.2791303043
0.2791307472
0.2791310139
0.2791311283
0.2791311205
0.2791310741
0.2791021474
0.279107247
0.279112062
0.2791162564
0.2791197425
0.279122545
0.2791247185
0.2791263194
0.2791275456
0.2791283861
0.2791290002
0.279129457
0.2791297667
0.2791299894
0.2790971163
0.2791001757
0.2791035246
0.2791068373
0.2791099497
0.2791127186
0.2791151635
0.2791172795
0.2791190827
0.2791205795
0.279121821
0.2791228632
0.2791237312
0.279124347
0.2790942753
0.2790958457
0.2790977234
0.2790998487
0.2791021331
0.2791044023
0.2791066598
0.2791087787
0.2791107327
0.2791125651
0.2791142731
0.2791157969
0.2791171165
0.2791181515
0.279092683
0.2790935855
0.2790947719
0.2790962536
0.2790979306
0.2790997444
0.2791016909
0.2791036707
0.2791056207
0.2791075192
0.2791093594
0.2791111053
0.2791127054
0.2791139601
0.2790929738
0.2790941059
0.2790956427
0.2790975791
0.2790998199
0.2791022113
0.2791046169
0.2791069752
0.2791092261
0.2791113296
0.2791132678
0.2791150464
0.2791166444
0.279118045
0.2791190666
0.2790938784
0.2790963506
0.2790993937
0.2791027333
0.2791060119
0.2791090829
0.2791118921
0.2791143393
0.2791164224
0.2791182399
0.2791197164
0.2791209718
0.2791220658
0.2791229415
0.2791235551
0.2791063437
0.2791127705
0.2791186293
0.2791234328
0.2791271355
0.2791297275
0.2791314615
0.2791325549
0.2791331864
0.2791334647
0.2791336006
0.27913354
0.2791333837
0.2791332379
0.27912475
0.2791356401
0.2791431389
0.2791475957
0.2791496937
0.2791502162
0.2791496446
0.2791484978
0.2791470891
0.2791454692
0.2791439153
0.2791423603
0.279140965
0.2791399312
0.2791504943
0.2791613344
0.2791659871
0.2791668633
0.279165578
0.2791631684
0.2791602434
0.2791572369
0.2791543163
0.2791515679
0.2791490963
0.2791468369
0.2791448802
0.2791434363
0.2791258089
0.2791367073
0.279144237
0.2791486783
0.2791507255
0.279151178
0.2791507078
0.2791495638
0.2791481022
0.279146582
0.2791449826
0.2791434372
0.2791420329
0.2791409614
0.2791051885
0.2791116611
0.2791175101
0.2791222786
0.2791259509
0.2791285513
0.2791303583
0.2791314879
0.2791321302
0.2791324474
0.2791325037
0.2791324429
0.2791322607
0.2791321333
0.2790967496
0.2790997816
0.279103104
0.2791063773
0.2791094819
0.2791123354
0.2791147772
0.2791169036
0.2791186919
0.2791202469
0.2791215303
0.2791226351
0.2791235198
0.2791241804
0.279094386
0.2790959762
0.2790979326
0.2791001352
0.2791025189
0.2791049335
0.279107287
0.2791094977
0.2791116266
0.2791135954
0.2791153768
0.2791169661
0.2791183574
0.2791193778
0.279093912
0.279095818
0.2790983147
0.2791011445
0.2791041088
0.2791071003
0.2791099252
0.2791125148
0.2791148391
0.279116911
0.2791187565
0.2791203133
0.2791217084
0.2791228834
0.2791236638
0.2790977238
0.2791024178
0.2791074993
0.279112285
0.2791165176
0.2791200226
0.2791228029
0.279124939
0.2791265199
0.2791277071
0.2791285678
0.2791292375
0.27912963
0.2791299082
0.2791301122
0.2791125181
0.2791258038
0.2791367366
0.2791442842
0.2791486963
0.279150801
0.2791513202
0.2791508187
0.2791496797
0.2791481937
0.2791466449
0.2791450272
0.2791435133
0.2791421163
0.2791410944
0.2791918018
0.2792055753
0.2792079214
0.2792040293
0.2791973896
0.2791898591
0.2791825466
0.2791757668
0.2791697251
0.2791644635
0.2791598746
0.2791559186
0.2791526299
0.2791502426
0.2793270938
0.2793100452
0.2792837097
0.2792584587
0.2792369444
0.2792193565
0.2792052024
0.2791937932
0.2791844673
0.2791768888
0.2791705298
0.2791653137
0.2791609982
0.2791579311
0.2791927637
0.2792065257
0.2792088668
0.279204998
0.2791983671
0.2791908885
0.2791835472
0.2791767883
0.2791707792
0.2791654882
0.2791608638
0.2791568989
0.2791535737
0.2791511343
0.2791251593
0.2791360508
0.2791436088
0.2791480583
0.2791501542
0.2791506629
0.2791500795
0.2791489563
0.2791474847
0.2791459314
0.2791443562
0.2791428604
0.2791414892
0.2791404306
0.279101716
0.2791068023
0.2791116469
0.2791159016
0.27911942
0.2791222112
0.27912431
0.2791258052
0.2791270277
0.2791279014
0.2791285559
0.2791290069
0.2791293216
0.2791295552
0.2790957146
0.2790981618
0.2791009953
0.2791040076
0.2791069592
0.2791098107
0.2791124499
0.2791148232
0.2791169398
0.2791187934
0.2791203606
0.2791217345
0.2791228492
0.2791236916
0.2790949365
0.2790973569
0.2791002829
0.2791034758
0.2791066969
0.2791098253
0.2791127142
0.2791153099
0.2791176369
0.2791195987
0.2791213471
0.2791227858
0.2791240047
0.2791249831
0.279125698
0.2791006636
0.2791070889
0.2791132497
0.2791184242
0.2791225637
0.279125694
0.2791279903
0.279129612
0.2791307107
0.2791314328
0.2791318566
0.2791321077
0.2791322447
0.2791322499
0.2791322326
0.2791321906
0.279151414
0.2791622265
0.2791669123
0.2791677435
0.2791663975
0.2791639408
0.2791610715
0.279158023
0.2791550849
0.2791523615
0.2791498565
0.2791475938
0.2791455957
0.2791441563
0.2793030955
0.2793266274
0.2793095869
0.2792833306
0.2792580762
0.2792365683
0.2792190348
0.2792049007
0.2791934362
0.279184145
0.2791765284
0.2791702242
0.2791649721
0.279160701
0.2791576324
0.2819828617
0.2816940507
0.2815349911
0.2814426838
0.2813862744
0.2813501109
0.281325855
0.2813090562
0.2812969811
0.281288252
0.2812818007
0.2812770582
0.281273673
0.2812718918
0.2793270247
0.2793099891
0.2792836971
0.2792584133
0.279236934
0.2792193619
0.2792052014
0.2791937748
0.279184479
0.2791768556
0.2791705742
0.2791653022
0.2791609906
0.2791579515
0.2791504188
0.2791612825
0.279165938
0.2791668352
0.2791655358
0.2791631002
0.2791602197
0.2791571877
0.2791543341
0.2791516083
0.2791490926
0.2791468187
0.2791448612
0.2791434132
0.2791081823
0.2791143031
0.2791194636
0.2791235712
0.2791266732
0.2791289668
0.279130631
0.2791318025
0.2791325567
0.2791330094
0.2791332284
0.2791333233
0.2791333375
0.2791333139
0.2790971152
0.2791000499
0.2791032612
0.2791065426
0.2791096651
0.2791125673
0.2791152152
0.2791175256
0.279119517
0.2791212511
0.2791226979
0.279123914
0.2791249629
0.2791256427
0.2790932678
0.2790951617
0.2790976243
0.2791004555
0.2791034271
0.2791064379
0.279109248
0.2791118394
0.2791142
0.2791162712
0.2791181158
0.2791196651
0.279121032
0.2791221954
0.2791230167
0.2790982341
0.2791029025
0.2791079911
0.279112825
0.2791170635
0.2791205499
0.2791233514
0.2791255143
0.2791270748
0.2791282291
0.2791291019
0.2791297211
0.2791301919
0.2791304822
0.2791306767
0.2791118129
0.2791251201
0.2791360624
0.279143567
0.2791480277
0.2791501424
0.279150647
0.2791500799
0.2791489221
0.2791474712
0.2791458828
0.2791442753
0.2791427855
0.2791414287
0.2791404077
0.2791619017
0.2791926962
0.279206453
0.2792087913
0.2792048715
0.2791982331
0.2791907517
0.2791833891
0.2791766598
0.2791705714
0.2791652362
0.2791606687
0.2791567112
0.2791533673
0.2791509452
0.2793029562
0.2793264747
0.2793094284
0.2792831258
0.2792578382
0.2792363409
0.2792187904
0.2792046881
0.2791932664
0.2791839319
0.279176328
0.2791700126
0.2791647608
0.2791604387
0.2791573542
0.2791621909
0.2791930361
0.2792068154
0.2792091265
0.2792052353
0.2791986309
0.2791911356
0.2791837516
0.2791769125
0.2791708833
0.2791655769
0.279161014
0.2791570458
0.2791537395
0.2791513518
0.2791258023
0.2791366373
0.2791441971
0.2791486204
0.2791507487
0.2791512409
0.2791507171
0.2791495864
0.2791481398
0.2791465626
0.2791449653
0.2791434745
0.2791420475
0.2791409852
0.2791026356
0.2791077162
0.2791125235
0.2791167459
0.2791202431
0.2791229905
0.2791251272
0.279126735
0.2791279311
0.2791288059
0.2791293975
0.2791298335
0.2791301184
0.2791303221
0.2790959812
0.2790984299
0.2791012493
0.2791042253
0.2791072111
0.2791100235
0.2791126427
0.2791149997
0.2791170883
0.279118926
0.2791205253
0.2791219119
0.2791230254
0.2791238757
0.2790932666
0.2790943919
0.2790959649
0.279097905
0.279100127
0.2791024726
0.2791048787
0.2791072465
0.2791094961
0.2791116303
0.2791135704
0.2791153603
0.279116964
0.2791183784
0.2791193616
0.2790954364
0.279097896
0.2791009698
0.2791042954
0.2791075709
0.2791106581
0.279113497
0.279115963
0.2791180651
0.2791198522
0.2791213542
0.2791226309
0.2791236698
0.2791245719
0.2791252218
0.2790990434
0.2791051695
0.2791116407
0.2791174948
0.279122282
0.2791259685
0.2791285579
0.2791303119
0.2791314545
0.2791321138
0.2791323942
0.279132474
0.2791323794
0.2791322493
0.2791320881
0.2791126485
0.2791259219
0.2791367807
0.2791443107
0.2791487895
0.2791509157
0.2791513942
0.279150852
0.2791496908
0.2791481929
0.2791466266
0.2791451008
0.2791435951
0.2791422434
0.2791412223
0.2791313711
0.2791506259
0.2791614906
0.2791661656
0.279166997
0.279165696
0.2791632683
0.2791603702
0.2791574197
0.2791545127
0.2791517506
0.2791491842
0.2791468938
0.2791449372
0.2791434437
0.2791126904
0.2791259356
0.2791368216
0.2791443471
0.2791487867
0.2791508759
0.2791514259
0.2791508743
0.2791497188
0.2791483018
0.2791467257
0.2791451636
0.2791437082
0.2791423501
0.2791413181
0.279099642
0.2791058263
0.279112309
0.2791181284
0.2791228874
0.2791265365
0.2791291717
0.2791309299
0.2791320347
0.2791326548
0.2791329537
0.2791330504
0.2791329363
0.2791327666
0.2791326234
0.2790965311
0.2790996316
0.279102954
0.2791062054
0.2791093363
0.2791120717
0.2791144763
0.2791166013
0.2791183605
0.2791198286
0.2791210558
0.2791220975
0.2791229617
0.2791236567
0.2790948755
0.2790964467
0.2790984242
0.2791006543
0.2791030328
0.2791054724
0.2791078364
0.2791100669
0.279112194
0.27911413
0.2791159026
0.2791175207
0.2791189255
0.2791199428
0.2790921197
0.2790927129
0.2790936201
0.2790948276
0.2790962958
0.2790979706
0.2790998114
0.2791017505
0.2791037232
0.279105686
0.2791076211
0.2791095042
0.2791112503
0.2791128374
0.2791140793
0.2790927498
0.2790939073
0.2790954711
0.2790973677
0.279099487
0.2791017834
0.2791040778
0.279106308
0.2791084402
0.2791104393
0.2791122949
0.2791139762
0.2791154974
0.2791168462
0.2791178504
0.2790953245
0.2790978155
0.2791008597
0.2791041352
0.2791074255
0.2791105585
0.2791133271
0.2791157745
0.2791178321
0.2791195705
0.2791210474
0.2791222869
0.2791233668
0.279124265
0.2791248637
0.2790974479
0.2791021523
0.2791072586
0.2791121287
0.2791163381
0.2791198453
0.2791226256
0.2791247649
0.2791264021
0.2791276145
0.2791284916
0.2791290813
0.2791294847
0.2791297808
0.2791299516
0.2791013772
0.2791077939
0.2791139082
0.2791190743
0.2791231726
0.2791262861
0.2791286009
0.2791302121
0.2791313679
0.279132181
0.2791326294
0.2791328675
0.2791330182
0.2791330491
0.2791330011
0.2790974593
0.2791021379
0.2791072202
0.2791120421
0.2791163154
0.2791198016
0.2791225995
0.2791247474
0.2791263705
0.2791275327
0.2791284298
0.2791290275
0.2791294362
0.2791297374
0.2791298921
0.2790953423
0.2790977649
0.2791008318
0.2791041605
0.2791074597
0.2791105944
0.2791133757
0.2791157859
0.2791178887
0.2791196543
0.2791211749
0.2791224443
0.2791234948
0.2791243621
0.2791249984
0.2790945733
0.2790957375
0.279097286
0.2790991754
0.2791013255
0.27910357
0.2791058655
0.2791080903
0.2791102225
0.279112158
0.2791140193
0.2791157324
0.2791172433
0.2791186206
0.2791197161
0.279093111
0.279093989
0.2790951782
0.2790966156
0.2790982717
0.2791000791
0.2791020474
0.2791040419
0.2791060088
0.2791079339
0.2791097393
0.2791115063
0.2791130966
0.2791143369
0.2790924297
0.2790927871
0.2790933786
0.2790941468
0.2790951682
0.2790964453
0.2790978956
0.2790995175
0.2791012732
0.2791030654
0.2791049167
0.2791067533
0.2791085345
0.2791101747
0.2791114843
0.2790918007
0.2790924197
0.2790933309
0.27909454
0.2790960209
0.2790977029
0.2790995379
0.2791014848
0.2791034434
0.2791054134
0.2791073803
0.2791092195
0.2791109729
0.2791125539
0.2791137975
0.2790923509
0.2790934739
0.2790950567
0.2790970042
0.2790992234
0.2791015977
0.2791039892
0.27910638
0.2791086504
0.2791107558
0.2791127163
0.2791144542
0.2791160399
0.2791174347
0.2791184612
0.2790937051
0.279095587
0.2790980582
0.2791008822
0.2791038513
0.2791068277
0.2791096876
0.2791123189
0.2791146626
0.2791167876
0.2791186011
0.2791201894
0.2791215696
0.279122705
0.2791235488
0.2790949844
0.2790973743
0.2791003353
0.2791035752
0.2791068286
0.2791099505
0.2791128384
0.2791154395
0.2791177476
0.2791197508
0.2791214699
0.2791229198
0.2791241399
0.2791251347
0.2791258757
0.279093995
0.2790958511
0.2790982875
0.2791011119
0.2791040596
0.2791070587
0.2791098282
0.2791124595
0.2791147829
0.2791169045
0.2791187245
0.279120313
0.2791216849
0.2791227864
0.2791236173
0.2790925239
0.2790936777
0.2790952829
0.2790972362
0.279099451
0.2791018344
0.2791042538
0.2791066346
0.2791089171
0.2791110228
0.2791129731
0.2791147169
0.279116283
0.2791176553
0.2791186863
0.2790921026
0.2790926958
0.2790936155
0.2790948486
0.2790962941
0.2790979818
0.2790998177
0.2791017663
0.279103691
0.2791056574
0.279107579
0.2791094448
0.2791111542
0.2791127627
0.2791140063
0.2790920294
0.2790923712
0.2790929124
0.2790937093
0.2790947506
0.2790959761
0.2790974597
0.2790990739
0.2791008056
0.2791026246
0.2791044894
0.27910633
0.2791081279
0.2791097654
0.2791110576
)
;

boundaryField
{
    top
    {
        type            calculated;
        value           nonuniform List<scalar> 
127
(
0.2790920294
0.2790928881
0.279092683
0.279094386
0.2790957146
0.2790971152
0.2790959812
0.2790948755
0.279093111
0.2790923712
0.2790934661
0.2790935855
0.2790959762
0.2790981618
0.2791000499
0.2790984299
0.2790964467
0.279093989
0.2790929124
0.2790942543
0.2790947719
0.2790979326
0.2791009953
0.2791032612
0.2791012493
0.2790984242
0.2790951782
0.2790937093
0.2790952799
0.2790962536
0.2791001352
0.2791040076
0.2791065426
0.2791042253
0.2791006543
0.2790966156
0.2790947506
0.2790965203
0.2790979306
0.2791025189
0.2791069592
0.2791096651
0.2791072111
0.2791030328
0.2790982717
0.2790959761
0.2790979804
0.2790997444
0.2791049335
0.2791098107
0.2791125673
0.2791100235
0.2791054724
0.2791000791
0.2790974597
0.2790995635
0.2791016909
0.279107287
0.2791124499
0.2791152152
0.2791126427
0.2791078364
0.2791020474
0.2790990739
0.279101282
0.2791036707
0.2791094977
0.2791148232
0.2791175256
0.2791149997
0.2791100669
0.2791040419
0.2791008056
0.2791031084
0.2791056207
0.2791116266
0.2791169398
0.279119517
0.2791170883
0.279112194
0.2791060088
0.2791026246
0.279104949
0.2791075192
0.2791135954
0.2791187934
0.2791212511
0.279118926
0.27911413
0.2791079339
0.2791044894
0.2791067857
0.2791093594
0.2791153768
0.2791203606
0.2791226979
0.2791205253
0.2791159026
0.2791097393
0.27910633
0.2791085837
0.2791111053
0.2791169661
0.2791217345
0.279123914
0.2791219119
0.2791175207
0.2791115063
0.2791081279
0.2791102912
0.2791127054
0.2791183574
0.2791228492
0.2791249629
0.2791230254
0.2791189255
0.2791130966
0.2791097654
0.279111607
0.2791139601
0.2791193778
0.2791236916
0.2791256427
0.2791238757
0.2791199428
0.2791143369
0.2791110576
)
;
    }
    bottom
    {
        type            calculated;
        value           nonuniform List<scalar> 
134
(
0.2790923148
0.2790929738
0.279093912
0.2790949365
0.2790932678
0.2790932666
0.2790921197
0.2790924297
0.2790928576
0.2790929024
0.2790941059
0.279095818
0.2790973569
0.2790951617
0.2790943919
0.2790927129
0.2790927871
0.2790934147
0.2790938285
0.2790956427
0.2790983147
0.2791002829
0.2790976243
0.2790959649
0.2790936201
0.2790933786
0.2790941801
0.2790950132
0.2790975791
0.2791011445
0.2791034758
0.2791004555
0.279097905
0.2790948276
0.2790941468
0.2790952045
0.27909648
0.2790998199
0.2791041088
0.2791066969
0.2791034271
0.279100127
0.2790962958
0.2790951682
0.2790964414
0.2790981787
0.2791022113
0.2791071003
0.2791098253
0.2791064379
0.2791024726
0.2790979706
0.2790964453
0.2790979102
0.2791000241
0.2791046169
0.2791099252
0.2791127142
0.279109248
0.2791048787
0.2790998114
0.2790978956
0.2790995338
0.2791019129
0.2791069752
0.2791125148
0.2791153099
0.2791118394
0.2791072465
0.2791017505
0.2790995175
0.2791012642
0.2791038944
0.2791092261
0.2791148391
0.2791176369
0.2791142
0.2791094961
0.2791037232
0.2791012732
0.2791030967
0.2791058675
0.2791113296
0.279116911
0.2791195987
0.2791162712
0.2791116303
0.279105686
0.2791030654
0.27910496
0.2791078006
0.2791132678
0.2791187565
0.2791213471
0.2791181158
0.2791135704
0.2791076211
0.2791049167
0.2791068038
0.279109638
0.2791150464
0.2791203133
0.2791227858
0.2791196651
0.2791153603
0.2791095042
0.2791067533
0.2791086294
0.2791113642
0.2791166444
0.2791217084
0.2791240047
0.279121032
0.279116964
0.2791112503
0.2791085345
0.279110302
0.2791129568
0.279118045
0.2791228834
0.2791249831
0.2791221954
0.2791183784
0.2791128374
0.2791101747
0.2791115837
0.2791141504
0.2791190666
0.2791236638
0.279125698
0.2791230167
0.2791193616
0.2791140793
0.2791114843
)
;
    }
    side-walls
    {
        type            calculated;
        value           nonuniform List<scalar> 
261
(
0.2790928576
0.2790919802
0.2790937141
0.279096263
0.2790973169
0.279095931
0.2790934274
0.2790934385
0.2790928881
0.2790934147
0.279092855
0.2790953139
0.2790987084
0.2791002405
0.2790983806
0.279094973
0.2790943277
0.2790934661
0.2790941801
0.2790940431
0.2790972632
0.2791015146
0.279103457
0.2791011901
0.2790969233
0.2790955502
0.2790942543
0.2790952045
0.2790955115
0.2790994813
0.279104487
0.2791066618
0.2791041802
0.2790991591
0.2790970064
0.2790952799
0.2790964414
0.2790971824
0.2791018381
0.2791074513
0.2791098041
0.2791071481
0.2791015268
0.2790986566
0.2790965203
0.2790979102
0.2790990314
0.2791042397
0.2791102802
0.2791127074
0.2791099989
0.2791039609
0.2791004718
0.2790979804
0.2790995338
0.2791009504
0.279106665
0.2791128779
0.2791152991
0.2791125849
0.2791062847
0.2791024392
0.2790995635
0.2791012642
0.2791029538
0.2791088999
0.2791152337
0.2791176267
0.2791149537
0.2791085964
0.2791044097
0.279101282
0.2791030967
0.2791049108
0.2791110065
0.2791173503
0.2791196571
0.2791170515
0.2791107012
0.279106383
0.2791031084
0.27910496
0.2791068354
0.2791129811
0.2791191729
0.2791213959
0.2791188894
0.2791126515
0.2791083234
0.279104949
0.2791068038
0.2791086461
0.2791147405
0.2791207759
0.279122858
0.2791204826
0.2791143592
0.2791101742
0.2791067857
0.2791086294
0.2791104159
0.2791163055
0.2791221811
0.2791241225
0.2791218947
0.279116012
0.2791119137
0.2791085837
0.279110302
0.2791120337
0.2791176908
0.2791233138
0.2791250878
0.2791230271
0.2791173887
0.2791135144
0.2791102912
0.2791115837
0.2791132818
0.2791187251
0.2791241717
0.2791258045
0.2791238453
0.2791183928
0.2791146843
0.279111607
0.2790924297
0.2790918007
0.2790923509
0.2790937051
0.2790949844
0.279093995
0.2790925239
0.2790921026
0.2790920294
0.2790927871
0.2790924197
0.2790934739
0.279095587
0.2790973743
0.2790958511
0.2790936777
0.2790926958
0.2790923712
0.2790933786
0.2790933309
0.2790950567
0.2790980582
0.2791003353
0.2790982875
0.2790952829
0.2790936155
0.2790929124
0.2790941468
0.27909454
0.2790970042
0.2791008822
0.2791035752
0.2791011119
0.2790972362
0.2790948486
0.2790937093
0.2790951682
0.2790960209
0.2790992234
0.2791038513
0.2791068286
0.2791040596
0.279099451
0.2790962941
0.2790947506
0.2790964453
0.2790977029
0.2791015977
0.2791068277
0.2791099505
0.2791070587
0.2791018344
0.2790979818
0.2790959761
0.2790978956
0.2790995379
0.2791039892
0.2791096876
0.2791128384
0.2791098282
0.2791042538
0.2790998177
0.2790974597
0.2790995175
0.2791014848
0.27910638
0.2791123189
0.2791154395
0.2791124595
0.2791066346
0.2791017663
0.2790990739
0.2791012732
0.2791034434
0.2791086504
0.2791146626
0.2791177476
0.2791147829
0.2791089171
0.279103691
0.2791008056
0.2791030654
0.2791054134
0.2791107558
0.2791167876
0.2791197508
0.2791169045
0.2791110228
0.2791056574
0.2791026246
0.2791049167
0.2791073803
0.2791127163
0.2791186011
0.2791214699
0.2791187245
0.2791129731
0.279107579
0.2791044894
0.2791067533
0.2791092195
0.2791144542
0.2791201894
0.2791229198
0.279120313
0.2791147169
0.2791094448
0.27910633
0.2791085345
0.2791109729
0.2791160399
0.2791215696
0.2791241399
0.2791216849
0.279116283
0.2791111542
0.2791081279
0.2791101747
0.2791125539
0.2791174347
0.279122705
0.2791251347
0.2791227864
0.2791176553
0.2791127627
0.2791097654
0.2791114843
0.2791137975
0.2791184612
0.2791235488
0.2791258757
0.2791236173
0.2791186863
0.2791140063
0.2791110576
)
;
    }
    inlet
    {
        type            calculated;
        value           nonuniform 0();
    }
    outlet
    {
        type            calculated;
        value           nonuniform List<scalar> 
81
(
0.2791115837
0.2791132818
0.2791187251
0.2791241717
0.2791258045
0.2791238453
0.2791183928
0.2791146843
0.279111607
0.2791141504
0.279119163
0.27912468
0.2791305258
0.2791310741
0.2791299894
0.279124347
0.2791181515
0.2791139601
0.2791190666
0.2791235551
0.2791332379
0.2791399312
0.2791434363
0.2791409614
0.2791321333
0.2791241804
0.2791193778
0.2791236638
0.2791301122
0.2791410944
0.2791502426
0.2791579311
0.2791511343
0.2791404306
0.2791295552
0.2791236916
0.279125698
0.2791322326
0.2791441563
0.2791576324
0.2812718918
0.2791579515
0.2791434132
0.2791333139
0.2791256427
0.2791230167
0.2791306767
0.2791404077
0.2791509452
0.2791573542
0.2791513518
0.2791409852
0.2791303221
0.2791238757
0.2791193616
0.2791252218
0.2791320881
0.2791412223
0.2791434437
0.2791413181
0.2791326234
0.2791236567
0.2791199428
0.2791140793
0.2791178504
0.2791248637
0.2791299516
0.2791330011
0.2791298921
0.2791249984
0.2791197161
0.2791143369
0.2791114843
0.2791137975
0.2791184612
0.2791235488
0.2791258757
0.2791236173
0.2791186863
0.2791140063
0.2791110576
)
;
    }
    procBoundary1to0
    {
        type            processor;
        value           nonuniform List<scalar> 
97
(
0.2790924841
0.2790924841
0.2790913529
0.2790925863
0.279094328
0.2790949071
0.2790940085
0.2790923335
0.2790928293
0.2790925164
0.2790919898
0.2790940949
0.2790940949
0.2790940949
0.2790950621
0.2790979873
0.2790994455
0.2790974983
0.2790946474
0.2790931174
0.2790920781
0.2790923205
0.2790921811
0.2791002029
0.2791002029
0.2791002029
0.2791115025
0.279131272
0.279112513
0.2790990257
0.2790942631
0.279093271
0.2790927059
0.2790943107
0.2791002411
0.279160975
0.279160975
0.279160975
0.2793034934
0.2791619764
0.2791119126
0.2790970389
0.2790938242
0.2790933291
0.2790952144
0.2791065188
0.2791483707
0.2812194038
0.2812194038
0.2812194038
0.2793033852
0.2793033852
0.2791311572
0.2791017414
0.2790947242
0.2790919987
0.27909481
0.2790995411
0.2791164403
0.279148255
0.2791167356
0.2791125052
0.2791125052
0.2791125052
0.2790979227
0.2790940458
0.2790925286
0.2790938042
0.2790944552
0.2791003515
0.2791057132
0.2791004144
0.2790950413
0.2790941044
0.2790941044
0.2790941044
0.2790937377
0.2790917662
0.2790920348
0.2790936595
0.2790940609
0.2790959388
0.2790941028
0.2790937103
0.2790938808
0.2790924925
0.2790924925
0.2790924925
0.2790922391
0.2790914158
0.2790916677
0.2790925303
0.279093346
0.2790927494
0.2790918575
0.2790917552
0.2790918103
)
;
    }
}


// ************************************************************************* //
