/*--------------------------------*- C++ -*----------------------------------*\
| =========                 |                                                 |
| \\      /  F ield         | OpenFOAM: The Open Source CFD Toolbox           |
|  \\    /   O peration     | Version:  4.x                                   |
|   \\  /    A nd           | Web:      www.OpenFOAM.org                      |
|    \\/     M anipulation  |                                                 |
\*---------------------------------------------------------------------------*/
FoamFile
{
    version     2.0;
    format      ascii;
    class       volScalarField;
    location    "3000";
    object      T;
}
// * * * * * * * * * * * * * * * * * * * * * * * * * * * * * * * * * * * * * //

dimensions      [0 0 0 1 0 0 0];

internalField   nonuniform List<scalar> 
1174
(
1223.148583
1223.14859
1223.148695
1223.148718
1223.148817
1223.148785
1223.148791
1223.148851
1223.14879
1223.148735
1223.148735
1223.148602
1223.148604
1223.148752
1223.154728
1223.15482
1223.154843
1223.154821
1223.154874
1223.154844
1223.154931
1223.154826
1223.154892
1223.154903
1223.155085
1223.154988
1223.154856
1223.15476
1223.152209
1223.152139
1223.152188
1223.152226
1223.1523
1223.152351
1223.152098
1223.152216
1223.152262
1223.15216
1223.152237
1223.152376
1223.152401
1223.152435
1223.148483
1223.148554
1223.148644
1223.148702
1223.148736
1223.148764
1223.148865
1223.148911
1223.148834
1223.148898
1223.148846
1223.148659
1223.148672
1223.14852
1223.149183
1223.14927
1223.14925
1223.149468
1223.14943
1223.14945
1223.149597
1223.149567
1223.14951
1223.149476
1223.149506
1223.149363
1223.149543
1223.149545
1223.149938
1223.14999
1223.150065
1223.150045
1223.150064
1223.149995
1223.150148
1223.150136
1223.150142
1223.150138
1223.150129
1223.149912
1223.149926
1223.149948
1223.153465
1223.153633
1223.153678
1223.153638
1223.153663
1223.153571
1223.153763
1223.153543
1223.153597
1223.153602
1223.153904
1223.153658
1223.15372
1223.153887
1223.148336
1223.148365
1223.148237
1223.148269
1223.148413
1223.14853
1223.148405
1223.148443
1223.148438
1223.148379
1223.148384
1223.14842
1223.148363
1223.148609
1223.148449
1223.148365
1223.148369
1223.148387
1223.14847
1223.148477
1223.14866
1223.148772
1223.148737
1223.14878
1223.148811
1223.148798
1223.148647
1223.148644
1223.150611
1223.150686
1223.150553
1223.150591
1223.150576
1223.150508
1223.150493
1223.150712
1223.150703
1223.150699
1223.150673
1223.150737
1223.150832
1223.150811
1223.150954
1223.145642
1223.145394
1223.145257
1223.145215
1223.145489
1223.145531
1223.145557
1223.145607
1223.145658
1223.14581
1223.145802
1223.145766
1223.145847
1223.145912
1223.148654
1223.148712
1223.148754
1223.148713
1223.148848
1223.148731
1223.14882
1223.148869
1223.148975
1223.148916
1223.148987
1223.148855
1223.149031
1223.14903
1223.149057
1223.14899
1223.149035
1223.149003
1223.149238
1223.149169
1223.149061
1223.149122
1223.149075
1223.1493
1223.149274
1223.149198
1223.149127
1223.14895
1223.157238
1223.157245
1223.157324
1223.157161
1223.157065
1223.157137
1223.157136
1223.156887
1223.156973
1223.157052
1223.156996
1223.156966
1223.157046
1223.157098
1223.151599
1223.151545
1223.151652
1223.151807
1223.15184
1223.151713
1223.151563
1223.151619
1223.151481
1223.151608
1223.151642
1223.151549
1223.151488
1223.151297
1223.150451
1223.150446
1223.150343
1223.150337
1223.150302
1223.150404
1223.150392
1223.150306
1223.150203
1223.150224
1223.150322
1223.150402
1223.150425
1223.150483
1223.149854
1223.149868
1223.15005
1223.150158
1223.150073
1223.150132
1223.150001
1223.150023
1223.150189
1223.150245
1223.150182
1223.150241
1223.150389
1223.150338
1223.151647
1223.151618
1223.151648
1223.151568
1223.151594
1223.151717
1223.151684
1223.151681
1223.151778
1223.151902
1223.151953
1223.151961
1223.151906
1223.15178
1223.150463
1223.150491
1223.150698
1223.150804
1223.150742
1223.150664
1223.150697
1223.150738
1223.150786
1223.150845
1223.150903
1223.150896
1223.15089
1223.150848
1223.150938
1223.153822
1223.153807
1223.153874
1223.153812
1223.153955
1223.154102
1223.154029
1223.154006
1223.154065
1223.1539
1223.154011
1223.154048
1223.153901
1223.153891
1223.153958
1223.148569
1223.148691
1223.148642
1223.148619
1223.148418
1223.14854
1223.148688
1223.148771
1223.148777
1223.148853
1223.148559
1223.148493
1223.148502
1223.148449
1223.153687
1223.153765
1223.15391
1223.153906
1223.153933
1223.153766
1223.153883
1223.15389
1223.153689
1223.153881
1223.153768
1223.153975
1223.154111
1223.154061
1223.153276
1223.153386
1223.153516
1223.153381
1223.153259
1223.153243
1223.153419
1223.153453
1223.153469
1223.153527
1223.153375
1223.153396
1223.153377
1223.153278
1223.149042
1223.149084
1223.149093
1223.149157
1223.149407
1223.149546
1223.149219
1223.149214
1223.149244
1223.149
1223.149086
1223.149251
1223.149426
1223.149542
1223.153628
1223.15355
1223.153544
1223.153673
1223.153604
1223.153688
1223.153516
1223.15344
1223.153398
1223.153303
1223.153358
1223.153292
1223.153415
1223.153281
1223.152058
1223.152174
1223.152186
1223.152352
1223.15235
1223.152082
1223.152082
1223.151951
1223.151913
1223.151679
1223.151592
1223.151399
1223.151348
1223.151209
1223.149264
1223.149236
1223.149254
1223.149359
1223.149314
1223.149307
1223.149368
1223.149591
1223.149538
1223.149461
1223.149441
1223.149473
1223.14947
1223.149564
1223.150467
1223.150432
1223.150278
1223.150264
1223.150358
1223.150273
1223.150319
1223.150454
1223.150638
1223.150758
1223.150722
1223.150872
1223.150729
1223.150557
1223.150745
1223.150485
1223.150413
1223.150438
1223.150674
1223.150662
1223.150613
1223.150584
1223.150598
1223.150742
1223.150775
1223.150814
1223.150604
1223.150793
1223.15087
1223.150761
1223.149003
1223.149066
1223.148958
1223.148889
1223.149081
1223.149079
1223.148926
1223.148737
1223.14871
1223.148847
1223.148729
1223.148896
1223.148922
1223.149065
1223.148964
1223.154064
1223.154078
1223.154
1223.154019
1223.153882
1223.153957
1223.153707
1223.153684
1223.153659
1223.1535
1223.153463
1223.153457
1223.1533
1223.153119
1223.13909
1223.139034
1223.138962
1223.138701
1223.138638
1223.138699
1223.138576
1223.138359
1223.138385
1223.138094
1223.138254
1223.138094
1223.138154
1223.138046
1223.149832
1223.149902
1223.149847
1223.149764
1223.149589
1223.149437
1223.149313
1223.149199
1223.149032
1223.149002
1223.149121
1223.149155
1223.149157
1223.149205
1223.151889
1223.151959
1223.151842
1223.151869
1223.151904
1223.151796
1223.151965
1223.151868
1223.151943
1223.151843
1223.151824
1223.151772
1223.151802
1223.151862
1223.15349
1223.153492
1223.153469
1223.153358
1223.153248
1223.15317
1223.153347
1223.153865
1223.153742
1223.153723
1223.15358
1223.153512
1223.153429
1223.15319
1223.150886
1223.150948
1223.150918
1223.1508
1223.150889
1223.150816
1223.150734
1223.150702
1223.150624
1223.150551
1223.150655
1223.150604
1223.150696
1223.15061
1223.149067
1223.149006
1223.149082
1223.149166
1223.149312
1223.149335
1223.149418
1223.149548
1223.14952
1223.149764
1223.149688
1223.14982
1223.149877
1223.15
1223.15001
1223.151718
1223.151838
1223.151669
1223.151738
1223.151659
1223.15167
1223.151699
1223.151783
1223.151922
1223.152025
1223.152188
1223.152201
1223.152071
1223.152095
1223.15202
1223.149099
1223.149241
1223.149472
1223.149457
1223.14952
1223.149664
1223.149856
1223.149788
1223.150006
1223.150099
1223.150048
1223.150042
1223.150078
1223.15024
1223.150122
1223.141038
1223.141114
1223.14103
1223.140615
1223.140371
1223.140281
1223.140105
1223.139896
1223.139921
1223.139795
1223.139672
1223.139592
1223.13959
1223.139456
1223.139354
1214.091573
1214.079946
1214.069379
1214.059393
1214.049754
1214.040202
1214.030922
1214.021458
1214.012362
1214.002889
1213.993514
1213.984109
1213.974854
1213.965649
1223.139393
1223.139262
1223.138995
1223.138878
1223.138663
1223.138657
1223.138565
1223.138425
1223.138321
1223.138228
1223.138049
1223.138135
1223.138179
1223.137948
1223.153608
1223.153607
1223.153719
1223.153489
1223.153426
1223.153525
1223.153506
1223.153652
1223.153375
1223.153335
1223.153376
1223.153461
1223.153446
1223.153366
1223.147049
1223.147053
1223.147181
1223.147239
1223.147373
1223.147411
1223.147308
1223.147127
1223.147089
1223.147124
1223.147277
1223.147332
1223.147316
1223.147268
1223.150067
1223.150104
1223.150106
1223.149987
1223.150034
1223.150057
1223.149957
1223.15
1223.150113
1223.150098
1223.150194
1223.150263
1223.150075
1223.150239
1223.15329
1223.153308
1223.153303
1223.153283
1223.153344
1223.153175
1223.153284
1223.153412
1223.153437
1223.153559
1223.153526
1223.153709
1223.15369
1223.153569
1223.153576
1223.148248
1223.148288
1223.148281
1223.148305
1223.148267
1223.148298
1223.148176
1223.148073
1223.148306
1223.148483
1223.148469
1223.14848
1223.148326
1223.14835
1223.148283
1223.152086
1223.152055
1223.151904
1223.152023
1223.152002
1223.151957
1223.151868
1223.151966
1223.152022
1223.152006
1223.15206
1223.152183
1223.152105
1223.152072
1223.151966
1223.14999
1223.150113
1223.150208
1223.150167
1223.15031
1223.150169
1223.150031
1223.150001
1223.149758
1223.149939
1223.150104
1223.149973
1223.149975
1223.15006
1223.150032
1223.141644
1223.141777
1223.141702
1223.141487
1223.14139
1223.141256
1223.141157
1223.14081
1223.14065
1223.140716
1223.140538
1223.140508
1223.140506
1223.140596
1223.140564
1223.148728
1223.148622
1223.148613
1223.148689
1223.148705
1223.148414
1223.148337
1223.148402
1223.14864
1223.148563
1223.148602
1223.148451
1223.148501
1223.148421
1223.148243
1223.149075
1223.149387
1223.149259
1223.149398
1223.14929
1223.149254
1223.149162
1223.149098
1223.149063
1223.149069
1223.149147
1223.149073
1223.149348
1223.149423
1223.149461
1223.149487
1223.149626
1223.149656
1223.149637
1223.149751
1223.149761
1223.149785
1223.149778
1223.149754
1223.149886
1223.149884
1223.149931
1223.149824
1223.149718
1223.149773
1223.149804
1223.149844
1223.149784
1223.149881
1223.149886
1223.149925
1223.149969
1223.149966
1223.149928
1223.149822
1223.149919
1223.149798
1223.149179
1223.149237
1223.149285
1223.149374
1223.149395
1223.149516
1223.149547
1223.149546
1223.149598
1223.149523
1223.149572
1223.149515
1223.149484
1223.149381
1223.149639
1223.146993
1223.147032
1223.146965
1223.146963
1223.14712
1223.147195
1223.146991
1223.146885
1223.146861
1223.146828
1223.146827
1223.14677
1223.146865
1223.146739
1223.146647
1223.153601
1223.153708
1223.153635
1223.153607
1223.153654
1223.153523
1223.153655
1223.153715
1223.153583
1223.153466
1223.153533
1223.153485
1223.153568
1223.153463
1223.153477
1223.148424
1223.14854
1223.148753
1223.14876
1223.148658
1223.148561
1223.148587
1223.148576
1223.148646
1223.148836
1223.148794
1223.148559
1223.14855
1223.148495
1223.14839
1223.152689
1223.152688
1223.152684
1223.152713
1223.152772
1223.152719
1223.152783
1223.152842
1223.152632
1223.152589
1223.152709
1223.152973
1223.15313
1223.153112
1223.15323
1223.14824
1223.148478
1223.148571
1223.148595
1223.148664
1223.148729
1223.14844
1223.148471
1223.148516
1223.148351
1223.148353
1223.148277
1223.148048
1223.148021
1223.147964
1223.15098
1223.150832
1223.150706
1223.150828
1223.150996
1223.151028
1223.150958
1223.150999
1223.151031
1223.151086
1223.151072
1223.150949
1223.151117
1223.151186
1223.15112
1223.153017
1223.15283
1223.152842
1223.153102
1223.152984
1223.153232
1223.153394
1223.153268
1223.153357
1223.153503
1223.153663
1223.153745
1223.153784
1223.153494
1223.147119
1223.147174
1223.147099
1223.147083
1223.14706
1223.146942
1223.146957
1223.147092
1223.147046
1223.147112
1223.147129
1223.147035
1223.146972
1223.14708
1223.151466
1223.151516
1223.151466
1223.151403
1223.151382
1223.151418
1223.151423
1223.151421
1223.15145
1223.151491
1223.151455
1223.151318
1223.151325
1223.151327
1223.151258
1223.151516
1223.151466
1223.151508
1223.151607
1223.151742
1223.151604
1223.151552
1223.151541
1223.151505
1223.151472
1223.151427
1223.151481
1223.151551
1223.151571
1223.151655
1223.147483
1223.147385
1223.147447
1223.147665
1223.147756
1223.14763
1223.147733
1223.147709
1223.147879
1223.14806
1223.148168
1223.148274
1223.148189
1223.148079
1223.148212
1223.151694
1223.151575
1223.151489
1223.151353
1223.151441
1223.151381
1223.15135
1223.15135
1223.151246
1223.151168
1223.151134
1223.151274
1223.151416
1223.151414
1223.151451
1223.148591
1223.148746
1223.148779
1223.148882
1223.148981
1223.149065
1223.14901
1223.149139
1223.149028
1223.148732
1223.148787
1223.148856
1223.148667
1223.148578
1223.148636
1223.151643
1223.151637
1223.151656
1223.151731
1223.151538
1223.151569
1223.151461
1223.151422
1223.15138
1223.151521
1223.1514
1223.151505
1223.151624
1223.1516
1223.151707
1223.147405
1223.147607
1223.147569
1223.147553
1223.147603
1223.147469
1223.147516
1223.147654
1223.147625
1223.147686
1223.147603
1223.147577
1223.147621
1223.147646
1223.147614
1223.143525
1223.143446
1223.143555
1223.143685
1223.143683
1223.143772
1223.143715
1223.143726
1223.143689
1223.143935
1223.143864
1223.143777
1223.143892
1223.143787
1223.14347
1223.149772
1223.149849
1223.149867
1223.14998
1223.150097
1223.150247
1223.150117
1223.150049
1223.150071
1223.150078
1223.150281
1223.150195
1223.150182
1223.150119
1223.148884
1223.148892
1223.148748
1223.14884
1223.148876
1223.148798
1223.148847
1223.14886
1223.148809
1223.148924
1223.14892
1223.148951
1223.149012
1223.149156
1223.14918
1223.152864
1223.152801
1223.152733
1223.152663
1223.152586
1223.152591
1223.152621
1223.152585
1223.152675
1223.152684
1223.152509
1223.152564
1223.152539
1223.152568
1223.15249
1223.153193
1223.15326
1223.153265
1223.153321
1223.153353
1223.153349
1223.153443
1223.153341
1223.153301
1223.153352
1223.153311
1223.153481
1223.153529
1223.153511
1223.153579
1223.151374
1223.151444
1223.1514
1223.151411
1223.151482
1223.151462
1223.151353
1223.151305
1223.151402
1223.151288
1223.151391
1223.151402
1223.151324
1223.151325
1223.151234
1223.148857
1223.148929
1223.148851
1223.148727
1223.14873
1223.14878
1223.148866
1223.148971
1223.149024
1223.149085
1223.149137
1223.149219
1223.14927
1223.14932
1223.149215
1223.150103
1223.150286
1223.150395
1223.150404
1223.150568
1223.150449
1223.150734
1223.150686
1223.150872
1223.150772
1223.150847
1223.150857
1223.150815
1223.150964
1223.150929
1223.152434
1223.152367
1223.152273
1223.152304
1223.152355
1223.15231
1223.152281
1223.152222
1223.152129
1223.152177
1223.15218
1223.152324
1223.152457
1223.152537
1223.152585
1223.151541
1223.151591
1223.151486
1223.151311
1223.151388
1223.151367
1223.151393
1223.151349
1223.151587
1223.15161
1223.151633
1223.151571
1223.151738
1223.151645
1223.151567
1223.150639
1223.150715
1223.150791
1223.150757
1223.150705
1223.150854
1223.150756
1223.150802
1223.150855
1223.150851
1223.150788
1223.1508
1223.150787
1223.150941
1223.151041
)
;

boundaryField
{
    top
    {
        type            zeroGradient;
    }
    bottom
    {
        type            zeroGradient;
    }
    side-walls
    {
        type            zeroGradient;
    }
    inlet
    {
        type            zeroGradient;
    }
    outlet
    {
        type            zeroGradient;
    }
    procBoundary1to0
    {
        type            processor;
        value           nonuniform List<scalar> 
97
(
1223.148646
1223.148646
1223.154827
1223.15216
1223.148643
1223.149194
1223.150043
1223.153269
1223.148356
1223.148504
1223.150469
1223.145622
1223.145622
1223.145622
1223.148633
1223.149328
1223.157052
1223.15147
1223.150449
1223.149905
1223.151648
1223.15026
1223.154082
1223.148522
1223.148522
1223.148522
1223.153442
1223.153101
1223.149008
1223.153675
1223.152133
1223.14916
1223.150389
1223.150411
1223.149099
1223.154056
1223.154056
1223.154056
1223.139141
1223.149627
1223.15164
1223.153484
1223.150851
1223.148956
1223.151794
1223.149002
1223.15063
1214.097061
1214.097061
1214.097061
1223.139622
1223.139622
1223.153606
1223.146991
1223.149996
1223.153488
1223.148223
1223.152168
1223.149853
1223.151144
1223.148555
1223.149057
1223.149057
1223.149057
1223.149613
1223.14988
1223.149348
1223.146969
1223.153526
1223.148617
1223.152534
1223.14834
1223.150957
1223.152831
1223.152831
1223.152831
1223.147115
1223.151449
1223.151538
1223.147603
1223.151506
1223.148619
1223.151322
1223.14738
1223.143447
1223.149832
1223.149832
1223.149832
1223.148815
1223.152985
1223.153121
1223.151158
1223.148882
1223.150198
1223.152289
1223.151497
1223.150695
)
;
    }
}


// ************************************************************************* //
