/*--------------------------------*- C++ -*----------------------------------*\
| =========                 |                                                 |
| \\      /  F ield         | OpenFOAM: The Open Source CFD Toolbox           |
|  \\    /   O peration     | Version:  4.x                                   |
|   \\  /    A nd           | Web:      www.OpenFOAM.org                      |
|    \\/     M anipulation  |                                                 |
\*---------------------------------------------------------------------------*/
FoamFile
{
    version     2.0;
    format      ascii;
    class       volVectorField;
    location    "3000";
    object      U;
}
// * * * * * * * * * * * * * * * * * * * * * * * * * * * * * * * * * * * * * //

dimensions      [0 1 -1 0 0 0 0];

internalField   nonuniform List<vector> 
1174
(
(0.01100024153 -1.608917077e-08 -1.604952848e-08)
(0.01100028218 -1.579279065e-08 -1.703835666e-08)
(0.01100032646 -1.282785976e-08 -1.323417351e-08)
(0.01100033016 -9.342670775e-09 -7.518254901e-09)
(0.01100031974 -6.395022904e-09 -4.620686032e-09)
(0.01100028101 -4.473117576e-09 -3.248485363e-09)
(0.01100022785 -3.706478167e-09 -1.665117829e-09)
(0.01100016421 -1.440627755e-09 -1.091214451e-09)
(0.01100009184 1.35058214e-09 1.524334326e-09)
(0.01100001389 -9.13737075e-11 3.397033743e-09)
(0.01099993457 3.20523562e-09 4.548342672e-09)
(0.01099985233 1.006136253e-09 2.437457677e-09)
(0.01099978328 1.057737215e-09 3.371737546e-09)
(0.01099970423 3.156404356e-09 3.652596273e-09)
(0.01100025542 -7.529059325e-08 -1.780922072e-08)
(0.01100027254 -6.890936864e-08 -2.112174103e-08)
(0.01100030226 -5.294551484e-08 -1.407542657e-08)
(0.01100028268 -3.673542551e-08 -8.537204553e-09)
(0.01100024849 -2.425262126e-08 -3.632278914e-09)
(0.01100018668 -1.578363214e-08 -1.266984798e-09)
(0.01100011271 -8.55769827e-09 5.986308978e-10)
(0.01100003521 -3.026942151e-09 1.785005981e-09)
(0.01099995208 1.032647624e-09 2.62336991e-09)
(0.0109998681 3.430715273e-09 2.955796542e-09)
(0.01099978735 5.347862573e-09 3.391808989e-09)
(0.01099970846 6.942219206e-09 5.832962768e-09)
(0.01099964038 1.003938407e-08 6.858828417e-09)
(0.01099957095 9.022241308e-09 3.998154043e-09)
(0.01100027602 -6.811284124e-08 -3.888004688e-08)
(0.01100025506 -6.812332065e-08 -3.801422793e-08)
(0.01100025294 -4.964403947e-08 -2.391911858e-08)
(0.01100019234 -3.117164105e-08 -1.233679123e-08)
(0.01100010795 -1.760164457e-08 -3.566093795e-09)
(0.01100000935 -8.06881338e-09 -2.045704962e-10)
(0.01099990495 -1.91098175e-09 2.484394066e-09)
(0.01099980836 2.461803717e-09 3.724743376e-09)
(0.01099971524 5.822891972e-09 3.324100123e-09)
(0.0109996271 7.874945363e-09 3.31108284e-09)
(0.01099955184 8.332078308e-09 4.051268601e-09)
(0.01099947873 8.422187864e-09 4.411075289e-09)
(0.01099942268 1.169770792e-08 4.572892706e-09)
(0.01099936661 1.311289203e-08 3.572337949e-09)
(0.01100029356 -1.046268315e-07 -2.267092471e-08)
(0.01100018328 -7.634703358e-08 -3.644739275e-08)
(0.0110001439 -4.511894549e-08 -1.897283818e-08)
(0.01100003585 -2.453685852e-08 -6.785656794e-09)
(0.0109999151 -1.470073811e-08 6.570154726e-10)
(0.01099979075 -4.51880914e-09 6.066172033e-09)
(0.01099967151 -1.37940125e-09 7.283358948e-09)
(0.01099956927 7.53389568e-10 8.743821714e-09)
(0.01099947578 3.023359248e-09 7.738500575e-09)
(0.01099939436 4.405257758e-09 4.366847468e-09)
(0.01099932551 5.198880717e-09 5.078372718e-09)
(0.010999263 5.526574044e-09 6.653308028e-09)
(0.01099922114 9.844415673e-09 7.724137468e-09)
(0.01099917807 9.11333473e-09 5.595601019e-09)
(0.01100038147 -2.071818167e-10 -6.383384932e-08)
(0.01100018623 1.3510372e-09 -4.790692253e-08)
(0.01100010549 4.429372467e-10 -2.195210546e-08)
(0.01099996279 -8.799409292e-10 -4.65873621e-09)
(0.01099982026 -1.792219823e-09 3.706968694e-09)
(0.01099968716 -2.639671454e-09 3.107573471e-09)
(0.01099956438 -1.378105502e-09 5.923645294e-09)
(0.01099946343 -7.681825637e-10 7.3605094e-09)
(0.01099936979 -2.009036663e-09 4.675310914e-09)
(0.01099929244 -1.078629371e-09 6.121626289e-09)
(0.01099923174 -7.923928192e-10 2.915395142e-09)
(0.0109991765 3.305508403e-09 3.092133474e-09)
(0.01099913939 9.901926155e-10 3.804978593e-09)
(0.01099910288 9.767281665e-10 3.565538958e-09)
(0.0110002937 1.070271414e-07 -2.389681512e-08)
(0.0110001823 7.588297496e-08 -3.52947511e-08)
(0.01100014295 4.399566972e-08 -1.920629327e-08)
(0.01100003304 2.422281276e-08 -5.355011177e-09)
(0.01099991436 1.380890288e-08 2.326626453e-09)
(0.01099978866 4.311774746e-09 6.265834539e-09)
(0.01099967334 6.382616152e-10 8.078006625e-09)
(0.01099956884 -1.247719652e-09 7.976482185e-09)
(0.0109994742 -4.338691909e-09 7.600467052e-09)
(0.01099939303 -4.353026179e-09 6.642845848e-09)
(0.01099932846 -5.53932366e-09 6.708017712e-09)
(0.01099926519 -7.041051139e-09 4.935263981e-09)
(0.01099921933 -7.954500856e-09 5.722387478e-09)
(0.01099917698 -6.592153717e-09 5.774912275e-09)
(0.01100027452 6.636961314e-08 -3.716725813e-08)
(0.01100025537 6.656594506e-08 -3.447547359e-08)
(0.01100025526 4.912397041e-08 -2.092176274e-08)
(0.01100018838 3.235889121e-08 -1.134672115e-08)
(0.01100010565 1.870870397e-08 -4.223815087e-09)
(0.01100000611 8.112046178e-09 2.528143822e-10)
(0.01099990792 1.713153831e-09 4.30896205e-09)
(0.01099980909 -3.393256792e-09 4.480559941e-09)
(0.01099971435 -6.92966411e-09 5.345357497e-09)
(0.01099962954 -9.560318834e-09 4.617586847e-09)
(0.01099955316 -8.607538438e-09 7.103961438e-09)
(0.01099948008 -1.085517452e-08 4.858581498e-09)
(0.01099942159 -1.385706656e-08 6.886523497e-09)
(0.01099936873 -1.212647156e-08 4.93597371e-09)
(0.01100025368 7.390738538e-08 -1.85922253e-08)
(0.0110002721 6.782439205e-08 -1.970606074e-08)
(0.01100029984 5.332744213e-08 -1.406496265e-08)
(0.01100028148 3.711148054e-08 -1.000512708e-08)
(0.01100024458 2.402148033e-08 -7.176608743e-09)
(0.01100018774 1.662128211e-08 -1.412888605e-09)
(0.01100011243 1.059398166e-08 1.104589393e-09)
(0.01100003484 4.299450758e-09 1.695805199e-09)
(0.01099995045 1.396442374e-12 4.999093179e-09)
(0.0109998705 -4.330682377e-09 4.072727165e-09)
(0.01099978836 -6.38552168e-09 5.415300382e-09)
(0.01099970932 -7.986101901e-09 4.035653058e-09)
(0.01099964245 -9.348836658e-09 6.374469352e-09)
(0.01099957315 -1.047426094e-08 4.516728675e-09)
(0.01100024187 1.706624089e-08 -1.560026916e-08)
(0.01100027951 1.682035448e-08 -1.808143655e-08)
(0.01100032363 1.126527197e-08 -1.498327555e-08)
(0.01100032809 8.12322404e-09 -8.828613726e-09)
(0.01100031654 6.984096368e-09 -8.138381974e-09)
(0.01100027999 3.515706309e-09 -3.590800294e-09)
(0.01100022876 3.385066045e-09 -1.509287353e-09)
(0.01100016418 1.183825879e-09 -1.286324166e-09)
(0.01100008792 -9.925145357e-11 1.806572815e-09)
(0.01100001469 -2.796426512e-09 1.608025621e-09)
(0.01099993627 -3.883978781e-09 4.844573661e-09)
(0.01099985723 -4.254761309e-09 3.821583724e-09)
(0.01099978222 -4.685037895e-09 3.598608181e-09)
(0.01099970674 -4.959119732e-09 5.560560351e-09)
(0.01100011164 -4.608866023e-08 -1.103556193e-07)
(0.01100025572 -1.776110203e-08 -7.297168035e-08)
(0.01100027088 -2.060724066e-08 -6.727915511e-08)
(0.01100030294 -1.328175175e-08 -5.14198349e-08)
(0.01100028494 -9.863777624e-09 -3.746208996e-08)
(0.01100024661 -4.386274373e-09 -2.425125268e-08)
(0.0110001856 -2.5462134e-09 -1.450997904e-08)
(0.01100011233 1.292147844e-09 -6.257378431e-09)
(0.01100003541 2.910782685e-09 -3.387383872e-10)
(0.01099995259 3.33618512e-09 2.96015959e-09)
(0.01099986714 2.772069098e-09 5.534750686e-09)
(0.01099978926 2.792759439e-09 8.839288893e-09)
(0.01099970851 4.794928598e-09 9.024932451e-09)
(0.01099964069 4.659307804e-09 1.005610504e-08)
(0.01099956838 5.429665034e-09 1.084222365e-08)
(0.01100026875 -9.688043258e-08 -9.687155492e-08)
(0.01100023381 -9.088400214e-08 -9.062322567e-08)
(0.01100023059 -6.471145749e-08 -6.289020044e-08)
(0.01100017148 -3.989813926e-08 -4.085543402e-08)
(0.01100009805 -2.506506901e-08 -2.333790161e-08)
(0.01100000725 -1.049024493e-08 -9.472933846e-09)
(0.01099991615 -2.769774814e-09 2.127177224e-10)
(0.01099982834 4.596420048e-09 4.577563287e-09)
(0.01099974223 7.48118427e-09 6.902535066e-09)
(0.01099966202 9.424536261e-09 8.382342218e-09)
(0.01099959105 1.000416521e-08 1.089330169e-08)
(0.01099952153 1.182086394e-08 1.02060591e-08)
(0.01099946581 1.279882846e-08 1.322755327e-08)
(0.01099940739 1.230921184e-08 1.385014691e-08)
(0.01100028486 -7.33622047e-08 -1.835701615e-07)
(0.01100013141 -8.383530786e-08 -1.553350821e-07)
(0.01100005788 -5.418487381e-08 -9.209725916e-08)
(0.01099992154 -2.711496907e-08 -4.673359297e-08)
(0.01099978656 -1.088821143e-08 -1.948535567e-08)
(0.01099965915 1.731457351e-09 7.888857789e-10)
(0.01099955021 7.106299619e-09 9.865769332e-09)
(0.01099945626 1.125299979e-08 1.278125425e-08)
(0.0109993806 1.141530109e-08 1.493535011e-08)
(0.0109993176 1.11942877e-08 1.458564868e-08)
(0.01099926617 1.171133416e-08 1.360400746e-08)
(0.01099921897 1.124503974e-08 1.547985965e-08)
(0.01099918611 1.594838742e-08 1.737947897e-08)
(0.01099915791 1.539243936e-08 1.619882816e-08)
(0.0110002256 -1.338427359e-07 -1.774155707e-07)
(0.01099984273 -9.184352315e-08 -1.70981591e-07)
(0.0109997023 -4.384597902e-08 -8.334976182e-08)
(0.01099950887 -1.611932901e-08 -2.756510642e-08)
(0.01099934811 -3.005342081e-09 -2.573681388e-10)
(0.01099921803 2.605861858e-09 1.560672676e-08)
(0.01099912294 5.071744353e-09 2.262269425e-08)
(0.01099905737 7.010741131e-09 2.320483572e-08)
(0.0109990067 7.544861631e-09 2.153394254e-08)
(0.0109989727 7.636752876e-09 1.886853638e-08)
(0.01099895206 7.381611257e-09 1.720869946e-08)
(0.01099893856 7.632976189e-09 1.742254044e-08)
(0.01099893263 1.033597895e-08 2.057812122e-08)
(0.01099892674 1.006439999e-08 1.809504054e-08)
(0.01100035853 -8.006596422e-10 -3.308612865e-07)
(0.01099968418 1.531520793e-09 -2.165105769e-07)
(0.01099948397 -4.030420573e-10 -8.286152478e-08)
(0.0109992627 -3.172146922e-10 -1.431250589e-08)
(0.01099909973 -7.443066414e-10 1.054223784e-08)
(0.01099899322 -2.743465604e-09 2.208024237e-08)
(0.01099892199 1.392517673e-10 2.466300474e-08)
(0.01099887061 -3.131363892e-09 2.406202608e-08)
(0.01099884124 -1.861140159e-09 2.094367519e-08)
(0.01099882775 -5.42961931e-10 1.695029339e-08)
(0.01099882208 -3.021872225e-10 1.749481381e-08)
(0.01099881969 -1.478214697e-09 1.539896591e-08)
(0.01099882767 9.584008129e-10 2.011534213e-08)
(0.01099883375 4.450870059e-10 1.793819129e-08)
(0.0110002253 1.35792915e-07 -1.770406108e-07)
(0.01099984362 9.121152165e-08 -1.717633874e-07)
(0.01099970249 4.591253819e-08 -8.086364299e-08)
(0.01099950724 1.443520516e-08 -2.549719679e-08)
(0.01099934424 3.038283984e-09 1.626810863e-09)
(0.01099922013 -3.787374432e-09 1.614172691e-08)
(0.01099912194 -6.859085024e-09 2.295886229e-08)
(0.01099905551 -8.866392657e-09 2.407728318e-08)
(0.01099900567 -8.499283666e-09 2.178405725e-08)
(0.01099897232 -8.528720557e-09 1.950701958e-08)
(0.01099895265 -6.222397051e-09 1.727152492e-08)
(0.01099893788 -7.226175098e-09 1.526135875e-08)
(0.01099893226 -9.95206188e-09 1.97372992e-08)
(0.01099892514 -8.886388509e-09 1.732287345e-08)
(0.01100028192 7.331978235e-08 -1.843390844e-07)
(0.01100013299 8.450452762e-08 -1.53738925e-07)
(0.01100005747 5.437718355e-08 -9.006141677e-08)
(0.01099991866 2.771648208e-08 -4.632184508e-08)
(0.01099978378 1.038606208e-08 -1.944799242e-08)
(0.01099965897 -9.142034477e-10 -3.818640099e-10)
(0.01099955009 -6.825521517e-09 1.03363309e-08)
(0.01099945866 -1.007493362e-08 1.311428357e-08)
(0.01099937852 -1.156021611e-08 1.499164918e-08)
(0.01099931798 -1.277532406e-08 1.418199007e-08)
(0.01099926315 -1.210244187e-08 1.588608839e-08)
(0.01099922205 -1.235993025e-08 1.544238483e-08)
(0.01099918803 -1.559311254e-08 1.705385382e-08)
(0.01099915756 -1.424618548e-08 1.506259738e-08)
(0.01100026694 9.747766885e-08 -9.476278667e-08)
(0.01100023172 9.121615552e-08 -8.844036672e-08)
(0.01100023017 6.365290233e-08 -6.492283746e-08)
(0.01100017259 4.075360892e-08 -4.002805539e-08)
(0.01100009588 2.172797331e-08 -2.361874367e-08)
(0.01100000912 1.157471292e-08 -1.030350323e-08)
(0.01099991392 2.422517324e-09 -1.799857071e-09)
(0.01099982672 -3.153575e-09 3.666500201e-09)
(0.01099974308 -6.887297615e-09 7.641727016e-09)
(0.01099966298 -9.028323474e-09 8.749317583e-09)
(0.0109995876 -1.022530823e-08 1.167447454e-08)
(0.01099951991 -1.029319984e-08 1.316108002e-08)
(0.01099946521 -1.368374997e-08 1.370774209e-08)
(0.01099941048 -1.182565194e-08 1.252394484e-08)
(0.01100025362 1.833485021e-08 -7.33406461e-08)
(0.01100027159 2.054667256e-08 -6.734357637e-08)
(0.01100030135 1.327727937e-08 -4.935432978e-08)
(0.01100028354 9.241235694e-09 -3.491887378e-08)
(0.01100024416 6.301274644e-09 -2.452857213e-08)
(0.01100018769 1.896634774e-09 -1.563434968e-08)
(0.01100011343 4.488961373e-10 -7.853627856e-09)
(0.01100003166 -4.025425227e-11 -1.936306318e-09)
(0.01099995033 -2.320397331e-09 1.866787497e-09)
(0.01099986994 -4.332554361e-09 5.727821867e-09)
(0.01099978951 -5.243668715e-09 7.177656477e-09)
(0.01099970727 -4.057027979e-09 1.073120546e-08)
(0.0109996441 -5.996095922e-09 1.132413435e-08)
(0.01099957133 -4.815997347e-09 9.298677497e-09)
(0.01100007421 -9.443246427e-08 -1.407343271e-07)
(0.01100027596 -3.518651923e-08 -6.77147341e-08)
(0.01100025417 -3.60114809e-08 -6.789252188e-08)
(0.01100025482 -1.942094269e-08 -4.778819464e-08)
(0.01100019025 -9.301435629e-09 -2.95834886e-08)
(0.01100010478 -5.221907276e-09 -1.581557242e-08)
(0.01100000685 2.370138694e-09 -7.052761274e-09)
(0.01099990567 6.327188381e-09 -1.128343062e-09)
(0.01099980827 5.393701929e-09 4.867200418e-09)
(0.01099971457 7.882499041e-09 7.096318621e-09)
(0.01099962604 5.484844106e-09 8.234288396e-09)
(0.0109995529 6.895234929e-09 8.857388955e-09)
(0.01099947745 6.878269816e-09 9.773081598e-09)
(0.01099942178 8.680509026e-09 1.229775297e-08)
(0.01099936089 8.270652029e-09 1.246059238e-08)
(0.01100003189 -3.914017001e-07 -2.369600437e-07)
(0.01100028247 -1.845750852e-07 -7.387585956e-08)
(0.01100013144 -1.54578195e-07 -8.44223275e-08)
(0.01100005533 -9.252525833e-08 -5.332766166e-08)
(0.01099991929 -4.691476393e-08 -2.806829945e-08)
(0.01099978644 -1.865588831e-08 -1.06040661e-08)
(0.01099965778 -6.55816305e-10 1.05388962e-09)
(0.01099954776 8.57621792e-09 7.609970109e-09)
(0.01099945749 1.307547768e-08 9.939246564e-09)
(0.01099937908 1.442169838e-08 1.158878164e-08)
(0.01099931635 1.352546774e-08 1.025731405e-08)
(0.01099926228 1.478023664e-08 1.168583186e-08)
(0.01099922105 1.29868646e-08 1.119620384e-08)
(0.01099918622 1.735600504e-08 1.569164602e-08)
(0.01099915781 1.593957208e-08 1.464496651e-08)
(0.011000225 -1.512188568e-07 -1.538119615e-07)
(0.01099975284 -1.533525855e-07 -1.538810573e-07)
(0.01099952421 -7.03176268e-08 -7.057992377e-08)
(0.01099926268 -1.866276644e-08 -1.841205741e-08)
(0.0109990724 4.921958568e-09 6.199945716e-09)
(0.01099894087 1.64265463e-08 1.688579773e-08)
(0.01099886064 2.054495713e-08 2.048581798e-08)
(0.01099881371 2.031620392e-08 2.036869101e-08)
(0.01099879243 1.818990176e-08 1.801597499e-08)
(0.01099878817 1.765696632e-08 1.584250452e-08)
(0.0109987914 1.456175164e-08 1.495380942e-08)
(0.01099880081 1.650618813e-08 1.330788709e-08)
(0.01099881601 2.056763462e-08 1.894916868e-08)
(0.01099882918 1.716907159e-08 1.72915899e-08)
(0.01099973625 -2.652507648e-07 3.266766703e-08)
(0.01099868681 -1.452116511e-07 -1.473998927e-07)
(0.01099840356 -4.215435034e-08 -2.618130093e-08)
(0.01099814326 6.503703679e-09 3.177277999e-08)
(0.01099802697 1.655922678e-08 4.478379956e-08)
(0.01099800427 1.971226014e-08 4.287148834e-08)
(0.01099803616 1.629508832e-08 3.843858119e-08)
(0.01099809992 1.430463047e-08 2.809620325e-08)
(0.01099817285 1.008331947e-08 2.084719228e-08)
(0.01099825351 9.753051015e-09 1.79276656e-08)
(0.01099832979 1.089752404e-08 1.589695225e-08)
(0.01099840669 8.428557029e-09 1.400282962e-08)
(0.01099847134 1.210178123e-08 1.877423043e-08)
(0.01099853199 1.111813276e-08 1.939978497e-08)
(0.01099960386 4.349277205e-10 2.484359638e-07)
(0.01099772581 1.537482973e-09 -1.067996394e-07)
(0.01099749455 1.8022567e-09 9.796726536e-09)
(0.01099736402 3.688897638e-10 6.339641342e-08)
(0.01099738351 1.375186205e-10 5.607780518e-08)
(0.01099749113 -2.439447735e-09 4.628578417e-08)
(0.01099762411 -1.912438668e-09 3.575164944e-08)
(0.01099776402 -6.454537131e-10 2.43918997e-08)
(0.01099789878 -1.133563926e-09 1.892254179e-08)
(0.01099802402 -1.214030511e-10 1.567978586e-08)
(0.01099813717 3.461780027e-10 1.414656908e-08)
(0.01099824129 -1.068050329e-09 1.253522005e-08)
(0.01099833064 -1.11168984e-09 1.946791187e-08)
(0.01099841466 1.339271123e-09 1.902217555e-08)
(0.010999735 2.647850508e-07 3.466904262e-08)
(0.01099868912 1.460753633e-07 -1.473230431e-07)
(0.01099840141 4.199017481e-08 -2.798843559e-08)
(0.01099814134 -5.432387604e-09 3.237327666e-08)
(0.01099802347 -1.778395141e-08 4.41439115e-08)
(0.01099800646 -2.009107353e-08 4.573436018e-08)
(0.01099803786 -1.728008338e-08 3.883585532e-08)
(0.0109980991 -1.449858987e-08 3.159787462e-08)
(0.01099817601 -1.035198154e-08 2.414934347e-08)
(0.01099825267 -1.007595144e-08 1.802626127e-08)
(0.01099833032 -8.60041028e-09 1.807859034e-08)
(0.01099840393 -7.064199243e-09 1.453381954e-08)
(0.0109984739 -1.225929688e-08 1.92422475e-08)
(0.01099853402 -1.146959401e-08 1.908709579e-08)
(0.01100022689 1.546468272e-07 -1.537437931e-07)
(0.01099975348 1.541367027e-07 -1.524077543e-07)
(0.01099952158 7.127859407e-08 -6.953527588e-08)
(0.010999262 1.762580166e-08 -1.583686297e-08)
(0.0109990695 -7.389927966e-09 8.411613977e-09)
(0.01099894398 -1.865177126e-08 2.032704621e-08)
(0.01099885902 -2.021593392e-08 2.351542473e-08)
(0.01099881472 -2.20214017e-08 2.182516148e-08)
(0.01099879014 -2.016471372e-08 1.983017065e-08)
(0.01099878721 -1.681245842e-08 1.644587667e-08)
(0.01099879011 -1.596210863e-08 1.599226425e-08)
(0.01099880086 -1.294611741e-08 1.512244144e-08)
(0.01099881532 -1.785123996e-08 1.915408721e-08)
(0.01099883061 -1.724895272e-08 1.746830615e-08)
(0.01100028232 1.84602944e-07 -7.317809893e-08)
(0.01100013233 1.550792432e-07 -8.424906814e-08)
(0.01100005612 9.172733728e-08 -5.278604619e-08)
(0.01099991892 4.855264209e-08 -2.556841663e-08)
(0.01099978419 1.925615444e-08 -9.812225835e-09)
(0.01099965859 3.179696331e-09 1.138790729e-09)
(0.0109995479 -8.468109936e-09 8.235392084e-09)
(0.0109994566 -1.25805001e-08 1.283101004e-08)
(0.0109993802 -1.463883407e-08 1.259580206e-08)
(0.01099931817 -1.50838777e-08 1.356020962e-08)
(0.0109992655 -1.579584536e-08 1.222652107e-08)
(0.01099921916 -1.531161353e-08 1.281282278e-08)
(0.01099918734 -1.677126627e-08 1.484224349e-08)
(0.01099915477 -1.633916566e-08 1.338790675e-08)
(0.01100027656 3.746236382e-08 -6.772218538e-08)
(0.01100025583 3.737787959e-08 -6.580757041e-08)
(0.01100025249 2.281887817e-08 -4.797061875e-08)
(0.01100018816 1.243790417e-08 -3.020668113e-08)
(0.01100010546 4.579787742e-09 -1.627825786e-08)
(0.01100000653 -8.472960591e-10 -7.049258526e-09)
(0.01099990571 -2.822197991e-09 -1.936303136e-09)
(0.0109998077 -5.208515055e-09 2.608725481e-09)
(0.01099971567 -4.090140304e-09 6.696150829e-09)
(0.01099962863 -4.53497463e-09 1.004328372e-08)
(0.01099955094 -4.857055737e-09 1.320053966e-08)
(0.01099948009 -4.887251611e-09 1.176666836e-08)
(0.01099942233 -6.427435255e-09 1.307187156e-08)
(0.01099936472 -4.497889907e-09 9.887460441e-09)
(0.01100006229 -1.378782751e-07 -2.309879447e-07)
(0.01100029362 -2.21705121e-08 -1.076111921e-07)
(0.01100018311 -3.479157519e-08 -7.452563218e-08)
(0.01100014484 -1.767261192e-08 -4.469581837e-08)
(0.01100003495 -5.895492835e-09 -2.294698987e-08)
(0.01099991421 3.678641216e-09 -1.236920276e-08)
(0.01099978784 5.903775318e-09 -3.463599599e-09)
(0.01099967033 8.448290232e-09 -4.103839214e-10)
(0.01099956668 7.493112697e-09 2.724294709e-09)
(0.01099947399 7.719243176e-09 3.488216449e-09)
(0.01099938978 5.133001441e-09 4.301516338e-09)
(0.01099932419 6.177650341e-09 5.370365081e-09)
(0.01099926657 5.91515243e-09 6.172632609e-09)
(0.01099921666 8.518888343e-09 7.849670761e-09)
(0.01099917759 7.493952724e-09 8.063299921e-09)
(0.01100000015 -6.208036716e-07 -4.839755473e-07)
(0.01100022447 -1.760795147e-07 -1.370534287e-07)
(0.01099984255 -1.724104532e-07 -9.247962929e-08)
(0.01099970232 -8.364859138e-08 -4.661969466e-08)
(0.01099950629 -2.698752785e-08 -1.612066539e-08)
(0.0109993451 -2.020603073e-10 -3.030917392e-09)
(0.01099921815 1.461286755e-08 1.334659751e-09)
(0.01099911943 2.216141648e-08 6.323923398e-09)
(0.01099905353 2.159965389e-08 8.771535548e-09)
(0.01099900697 2.144050871e-08 6.742318781e-09)
(0.01099897281 1.846716959e-08 7.588466728e-09)
(0.01099894932 1.8762032e-08 6.209868263e-09)
(0.01099893741 1.647149455e-08 8.125162069e-09)
(0.01099893256 1.982381126e-08 1.090921596e-08)
(0.01099892626 1.948031742e-08 9.091786165e-09)
(0.01099956592 -9.079344468e-07 -1.418019851e-06)
(0.01099973479 3.303690065e-08 -2.681873512e-07)
(0.0109986861 -1.47403342e-07 -1.459343895e-07)
(0.01099840271 -2.862990569e-08 -4.180793429e-08)
(0.01099814316 3.105987344e-08 4.860990499e-09)
(0.01099802648 4.303900801e-08 1.69940202e-08)
(0.01099800431 4.400221394e-08 1.833537033e-08)
(0.01099803532 3.644824946e-08 1.806042227e-08)
(0.01099809751 2.888802683e-08 1.393359291e-08)
(0.01099817472 2.256279926e-08 1.094147435e-08)
(0.01099825295 1.885020042e-08 8.96779655e-09)
(0.01099833049 1.637569674e-08 7.380458734e-09)
(0.01099840399 1.527872911e-08 9.016107054e-09)
(0.01099847155 2.08809765e-08 1.148261735e-08)
(0.01099853133 1.959530922e-08 1.122178518e-08)
(0.01099706879 2.651086299e-07 2.638310326e-07)
(0.0109952447 -4.129642119e-08 -4.310320517e-08)
(0.01099552051 3.62649362e-08 3.738951744e-08)
(0.01099568252 6.95091051e-08 6.966922973e-08)
(0.0109959943 5.111139529e-08 5.264013718e-08)
(0.01099636155 3.392517537e-08 3.464529733e-08)
(0.01099670368 2.184485358e-08 2.410276359e-08)
(0.0109970154 1.454843399e-08 1.544692604e-08)
(0.01099728625 1.021305797e-08 1.060303344e-08)
(0.01099752367 7.650475396e-09 7.652579226e-09)
(0.0109977207 8.085323093e-09 8.047370657e-09)
(0.01099789886 8.91406338e-09 7.480351621e-09)
(0.01099804124 1.292663768e-08 1.205783343e-08)
(0.01099817033 1.409137537e-08 1.276362107e-08)
(0.01099354694 1.874038898e-09 1.872840059e-06)
(0.01099067334 8.331481203e-10 3.787808192e-07)
(0.01099259958 -6.318662347e-10 1.338142385e-07)
(0.01099371348 6.59915742e-10 1.080760234e-07)
(0.0109946296 3.805326632e-10 4.879841196e-08)
(0.01099540382 -1.747267543e-10 2.097771136e-08)
(0.01099601181 -9.936739285e-10 8.460049587e-09)
(0.01099649642 7.02162832e-10 3.989513468e-09)
(0.01099688627 4.083342193e-10 2.111118152e-09)
(0.01099720132 3.73065909e-10 1.553526167e-09)
(0.01099746522 1.451613189e-09 3.622516047e-09)
(0.01099768489 -2.870253526e-11 4.971084262e-09)
(0.01099786647 1.873450593e-10 1.125476886e-08)
(0.01099802839 -7.025463094e-10 7.679952521e-09)
(0.01099706988 -2.653720981e-07 2.641646399e-07)
(0.01099524439 4.520712671e-08 -4.358625167e-08)
(0.01099551987 -3.454688197e-08 3.703734506e-08)
(0.01099568308 -6.882077047e-08 6.844162715e-08)
(0.01099599593 -5.252923232e-08 5.173608321e-08)
(0.01099635958 -3.634224539e-08 3.574229939e-08)
(0.01099670446 -2.27375224e-08 2.33074912e-08)
(0.01099701795 -1.592427303e-08 1.475562999e-08)
(0.01099728561 -1.174177408e-08 9.544954727e-09)
(0.01099752303 -8.765363814e-09 6.867593281e-09)
(0.01099771994 -8.145069734e-09 4.921614399e-09)
(0.01099789806 -8.85888683e-09 5.892690387e-09)
(0.01099803925 -1.323010406e-08 1.148068398e-08)
(0.01099817369 -1.234724336e-08 1.284523136e-08)
(0.01099973686 -3.27710099e-08 -2.648244954e-07)
(0.01099868846 1.472743744e-07 -1.439486629e-07)
(0.01099839997 2.78441764e-08 -4.221700275e-08)
(0.0109981406 -3.16410151e-08 6.576756977e-09)
(0.01099802154 -4.333468869e-08 1.895237614e-08)
(0.01099800236 -4.373096785e-08 2.009904303e-08)
(0.0109980375 -3.777588651e-08 1.656458778e-08)
(0.01099809849 -3.132749738e-08 1.258511823e-08)
(0.01099817588 -2.389699794e-08 1.06411401e-08)
(0.01099825288 -1.873972527e-08 9.057085157e-09)
(0.01099833028 -1.617634352e-08 8.222628006e-09)
(0.01099840553 -1.303176975e-08 8.171474269e-09)
(0.01099846719 -1.917770351e-08 1.180970345e-08)
(0.01099853313 -2.007844116e-08 1.082506186e-08)
(0.01100022449 1.767016218e-07 -1.358990384e-07)
(0.01099984048 1.708334712e-07 -9.121468985e-08)
(0.0109997021 8.341945188e-08 -4.569556953e-08)
(0.01099950618 2.792286082e-08 -1.505193264e-08)
(0.01099934293 2.507328992e-10 -1.67048707e-09)
(0.01099921765 -1.568637912e-08 5.037024027e-09)
(0.01099912045 -2.19093546e-08 7.391139255e-09)
(0.0109990562 -2.170642458e-08 6.757093268e-09)
(0.01099900458 -2.170750095e-08 8.178952514e-09)
(0.01099897502 -1.871200482e-08 9.052223681e-09)
(0.01099895142 -1.704532138e-08 7.98287402e-09)
(0.01099893748 -1.638305429e-08 7.373558201e-09)
(0.01099893033 -2.105029707e-08 9.97134682e-09)
(0.01099892391 -1.837404363e-08 8.79343591e-09)
(0.01100029295 2.313326486e-08 -1.054486873e-07)
(0.01100018422 3.708565135e-08 -7.468984271e-08)
(0.01100014239 1.955444319e-08 -4.414917787e-08)
(0.0110000325 6.058055911e-09 -2.243186308e-08)
(0.01099991399 -8.459537108e-10 -1.025163546e-08)
(0.01099978828 -5.013315966e-09 -2.935061694e-09)
(0.01099967123 -6.706508348e-09 4.091897675e-10)
(0.01099956556 -7.832449043e-09 1.88691367e-09)
(0.01099947373 -6.88710392e-09 3.343910736e-09)
(0.0109993931 -5.733011512e-09 4.164401808e-09)
(0.01099932476 -5.121007428e-09 5.376104687e-09)
(0.01099926348 -3.577872752e-09 6.182066908e-09)
(0.01099921771 -7.927144464e-09 6.771880761e-09)
(0.0109991785 -7.231586066e-09 6.966659562e-09)
(0.0109999967 -3.3760889e-07 6.100236457e-10)
(0.01100038132 -5.766841535e-08 -1.048984113e-09)
(0.01100018943 -4.641235965e-08 -4.431497104e-10)
(0.01100010597 -1.915332067e-08 7.866032049e-10)
(0.01099996305 -1.535487474e-09 1.169719565e-10)
(0.01099981922 5.828159354e-09 -3.363523793e-10)
(0.01099968517 8.757233918e-09 -1.571955873e-09)
(0.01099956487 1.063876501e-08 -1.050063205e-09)
(0.01099945881 1.039261581e-08 -1.092565717e-09)
(0.01099937016 9.276179064e-09 3.568021647e-10)
(0.01099929104 6.979775362e-09 -4.177086792e-11)
(0.01099923115 7.591517413e-09 3.757966653e-10)
(0.01099917793 7.874766211e-09 1.690422321e-09)
(0.01099913611 9.606322652e-09 7.142882124e-10)
(0.01099910366 9.9847293e-09 6.243210262e-10)
(0.01099983543 -1.556164482e-06 -2.0487037e-10)
(0.01100035738 -3.294070149e-07 1.164147374e-09)
(0.010999684 -2.175388824e-07 -5.573083127e-10)
(0.01099948163 -8.454881532e-08 3.611461408e-11)
(0.01099926256 -1.745083975e-08 7.555269555e-10)
(0.01099910083 9.333004598e-09 -2.861019852e-10)
(0.01099899078 2.085405118e-08 5.821866713e-10)
(0.01099891725 2.445035349e-08 -1.517172031e-09)
(0.01099886828 1.974750008e-08 -2.083074386e-10)
(0.01099884024 1.824235403e-08 1.049878778e-09)
(0.010998827 1.543919986e-08 2.429877978e-09)
(0.01099882157 1.698437113e-08 2.988671815e-09)
(0.01099882217 1.624411998e-08 3.588901747e-09)
(0.01099882689 2.089904379e-08 -5.627676868e-10)
(0.01099883509 1.770539785e-08 3.139498662e-10)
(0.01099860472 -3.199257629e-06 1.397371456e-10)
(0.01099960725 2.49150481e-07 1.500004391e-09)
(0.01099772569 -1.056969578e-07 -2.374779006e-11)
(0.01099749374 9.835702848e-09 3.104479327e-10)
(0.01099736482 6.429727572e-08 1.281291213e-09)
(0.01099738254 5.691636245e-08 2.682646644e-10)
(0.01099749306 4.543230678e-08 -5.128265681e-10)
(0.01099762061 3.555646841e-08 -3.516490523e-10)
(0.0109977618 2.549171135e-08 -7.51526434e-10)
(0.01099789778 1.945237437e-08 7.437089205e-10)
(0.01099802382 1.613728164e-08 1.301092889e-09)
(0.01099813836 1.444778946e-08 1.653113547e-09)
(0.01099824176 1.272475766e-08 8.571149306e-10)
(0.01099833019 2.061266287e-08 3.621280132e-10)
(0.01099841443 2.064960841e-08 -6.326565936e-10)
(0.01099119673 -1.491802661e-05 1.405918592e-09)
(0.01099354256 1.872959503e-06 2.961780543e-09)
(0.01099067501 3.804712371e-07 1.7637906e-09)
(0.01099259679 1.343014633e-07 1.067191139e-09)
(0.01099371096 1.065610019e-07 -3.136193441e-11)
(0.0109946283 4.791524517e-08 -1.314711369e-09)
(0.01099540247 1.931080593e-08 -2.36561138e-10)
(0.01099600786 6.424412939e-09 3.81168346e-10)
(0.01099649261 2.986936747e-09 1.281769711e-09)
(0.01099688482 1.764915921e-09 8.733926881e-10)
(0.01099720091 2.058117423e-09 1.000965426e-09)
(0.01099746074 4.639725391e-09 -9.325244366e-11)
(0.01099768958 5.181077991e-09 2.541694456e-11)
(0.01099786279 1.227482752e-08 1.365254457e-10)
(0.01099802793 9.16618102e-09 3.313774533e-10)
(0.01098321439 6.064816262e-10 -8.66445467e-10)
(0.01097774826 -5.189185437e-11 1.332214586e-09)
(0.01098641632 -1.155375884e-09 1.591994442e-09)
(0.01099039422 -3.619452289e-11 3.157768919e-10)
(0.01099263519 -6.533098592e-10 8.793702529e-10)
(0.01099413447 -5.900662008e-10 2.510985772e-10)
(0.01099515176 -1.211218007e-09 1.89692632e-09)
(0.01099587596 3.881696483e-10 1.149811761e-09)
(0.01099642162 -8.825385756e-10 1.548717561e-09)
(0.01099684353 -1.866852168e-09 5.444470645e-10)
(0.01099717567 9.705718875e-11 9.349766467e-10)
(0.01099745481 5.673296276e-10 3.461795115e-10)
(0.01099766724 -7.505807381e-10 -3.573304927e-10)
(0.01099788236 8.093856003e-11 6.3145523e-10)
(0.01099354195 -1.872260178e-06 -8.312270503e-10)
(0.01099067112 -3.781689495e-07 3.916064404e-12)
(0.0109925976 -1.333698284e-07 6.419282824e-10)
(0.01099371163 -1.074003737e-07 -6.208878302e-10)
(0.01099463084 -4.7594167e-08 -5.545811524e-10)
(0.0109954027 -2.117974203e-08 -8.234380935e-10)
(0.01099601129 -8.632665608e-09 1.284309259e-09)
(0.01099649507 -6.592465409e-09 8.468118759e-10)
(0.01099688436 -2.847570224e-09 1.538335807e-09)
(0.01099720084 -3.263260011e-09 -4.118528299e-10)
(0.01099746125 -5.131407653e-09 1.039893753e-10)
(0.01099768638 -5.047474e-09 1.427926327e-09)
(0.01099786676 -1.140085511e-08 1.34688614e-10)
(0.01099802658 -7.563700118e-09 -3.244478334e-10)
(0.01099960361 -2.492933719e-07 4.219439151e-10)
(0.01099772316 1.080450378e-07 -8.358729089e-10)