/*--------------------------------*- C++ -*----------------------------------*\
| =========                 |                                                 |
| \\      /  F ield         | OpenFOAM: The Open Source CFD Toolbox           |
|  \\    /   O peration     | Version:  4.x                                   |
|   \\  /    A nd           | Web:      www.OpenFOAM.org                      |
|    \\/     M anipulation  |                                                 |
\*---------------------------------------------------------------------------*/
FoamFile
{
    version     2.0;
    format      ascii;
    class       volScalarField;
    location    "3000";
    object      X_CO2;
}
// * * * * * * * * * * * * * * * * * * * * * * * * * * * * * * * * * * * * * //

dimensions      [0 0 0 0 0 0 0];

internalField   nonuniform List<scalar> 
1174
(
4.695285745e-06
8.200610194e-06
1.315216211e-05
1.961301243e-05
2.751551832e-05
3.668625354e-05
4.688185519e-05
5.782522386e-05
6.923542687e-05
8.084749892e-05
9.241640516e-05
0.0001036810215
0.0001141788233
0.0001224311875
7.986971424e-06
1.360762735e-05
2.109484879e-05
3.027650861e-05
4.083740471e-05
5.239489834e-05
6.456038907e-05
7.697978815e-05
8.935442444e-05
0.0001014460638
0.0001130664632
0.0001240331967
0.00013399505
0.0001416885268
1.525952148e-05
2.519811451e-05
3.749908489e-05
5.147068512e-05
6.636366399e-05
8.150483515e-05
9.636078871e-05
0.0001105513588
0.0001238347051
0.0001360790955
0.0001472280468
0.0001572469457
0.0001659738154
0.0001725131566
2.591852275e-05
4.136270004e-05
5.909883989e-05
7.783159702e-05
9.648083209e-05
0.0001142700426
0.0001307133804
0.0001455601561
0.0001587307002
0.0001702584702
0.000180241409
0.0001887905625
0.0001959172014
0.0002010816816
3.353262304e-05
5.20008131e-05
7.215418545e-05
9.257478673e-05
0.0001122360824
0.0001304817416
0.0001469539593
0.0001615141482
0.0001741728692
0.0001850339547
0.0001942503576
0.0002019803549
0.0002082942245
0.0002127947009
2.591819622e-05
4.136220769e-05
5.909814772e-05
7.783066257e-05
9.647960887e-05
0.0001142685038
0.0001307114991
0.0001455579383
0.0001587281524
0.0001702556098
0.000180238239
0.0001887871254
0.0001959135094
0.0002010777243
1.525905241e-05
2.519749372e-05
3.749825728e-05
5.146956862e-05
6.636215982e-05
8.150285471e-05
9.6358243e-05
0.0001105482473
0.000123830985
0.0001360747419
0.0001472230918
0.0001572414586
0.0001659677984
0.0001725066423
7.986523114e-06
1.360710116e-05
2.109418366e-05
3.027560501e-05
4.083613943e-05
5.23931531e-05
6.455806009e-05
7.697679125e-05
8.935069123e-05
0.0001014415499
0.0001130611617
0.0001240270884
0.0001339881682
0.0001416809202
4.694967482e-06
8.200293237e-06
1.31517772e-05
1.9612462e-05
2.751468592e-05
3.668500489e-05
4.688005844e-05
5.782275244e-05
6.923217182e-05
8.084337021e-05
9.241133405e-05
0.0001036749649
0.0001141717561
0.000122423088
4.19297296e-06
7.986612961e-06
1.360727573e-05
2.109448862e-05
3.027613664e-05
4.083702217e-05
5.239450421e-05
6.455997513e-05
7.697938162e-05
8.935401457e-05
0.0001014456582
0.0001130660621
0.0001240327941
0.0001339946672
0.0001416881646
1.541023627e-05
2.528312228e-05
3.732578755e-05
5.08161359e-05
6.502849445e-05
7.935130082e-05
9.332893583e-05
0.0001066568729
0.0001191548804
0.0001307338871
0.0001413608315
0.0001510068043
0.0001594996561
0.0001659205642
3.409143685e-05
5.328115565e-05
7.414608206e-05
9.492242496e-05
0.0001144010426
0.0001319219379
0.0001472446092
0.0001603996872
0.000171566865
0.0001809895405
0.0001889195315
0.0001955742374
0.000201053328
0.0002050004818
6.730215501e-05
9.922115039e-05
0.0001295860559
0.0001561261927
0.0001780468931
0.0001954501895
0.0002088734969
0.0002189983333
0.000226494433
0.0002319501162
0.0002358517192
0.0002385854024
0.0002404412274
0.0002415656054
9.865091617e-05
0.0001370652598
0.0001696314761
0.0001954903523
0.0002151477561
0.0002295956654
0.0002398913561
0.0002469842236
0.0002516627258
0.0002545546541
0.0002561482906
0.0002568226259
0.0002568893487
0.0002566726191
6.730066508e-05
9.921935714e-05
0.0001295838987
0.0001561236519
0.0001780439186
0.0001954468155
0.0002088697474
0.0002189942539
0.0002264900567
0.0002319455145
0.0002358469151
0.0002385804195
0.0002404360998
0.0002415602963
3.408988039e-05
5.327947859e-05
7.414409832e-05
9.491992725e-05
0.000114397881
0.0001319180412
0.000147239967
0.0001603943334
0.0001715608498
0.000180982888
0.0001889123275
0.0001955665219
0.0002010451923
0.0002049919225
1.540928784e-05
2.528225053e-05
3.732472421e-05
5.081463946e-05
6.502639389e-05
7.934842431e-05
9.332521321e-05
0.0001066522368
0.0001191492953
0.0001307274184
0.0001413534825
0.0001509986292
0.000159490706
0.0001659108822
7.986560842e-06
1.360710341e-05
2.109410788e-05
3.027540011e-05
4.083575649e-05
5.23925404e-05
6.455717603e-05
7.697561617e-05
8.934920177e-05
0.0001014397441
0.0001130590297
0.0001240246439
0.0001339854117
0.0001416777672
8.11510047e-06
1.525866707e-05
2.519719409e-05
3.749811968e-05
5.146968925e-05
6.636265889e-05
8.150381537e-05
9.635974641e-05
0.00011055033
0.0001238336793
0.0001360780593
0.0001472270378
0.0001572459623
0.0001659728795
0.0001725122347
1.860014476e-05
3.409030907e-05
5.328017582e-05
7.414518577e-05
9.492157033e-05
0.0001144002183
0.0001319211575
0.0001472438507
0.0001603989585
0.0001715661574
0.0001809888392
0.0001889188702
0.0001955735924
0.0002010526987
0.0002049998655
8.929205052e-05
0.0001297905523
0.0001664812048
0.0001965868861
0.0002195310971
0.000235969014
0.0002470606901
0.0002540407302
0.0002580105771
0.0002598663085
0.0002602977673
0.0002598232136
0.0002588563617
0.0002578648501
0.0002121081593
0.0002805490863
0.0003278062351
0.0003557640011
0.0003689670164
0.0003720056212
0.0003685877034
0.0003614023779
0.0003522750435
0.000342386796
0.0003324758221
0.0003230156634
0.0003144550687
0.0003078976082
0.0003730497757
0.0004412222311
0.0004706017193
0.0004759053706
0.0004676659923
0.0004525252508
0.0004344246213
0.0004156098121
0.0003973073094
0.0003801464529
0.000364420333
0.0003502737651
0.0003379701747
0.0003287687677
0.0002121010842
0.0002805421986
0.0003277992643
0.0003557566716
0.0003689593348
0.0003719977071
0.0003685797338
0.0003613943699
0.0003522670599
0.0003423789723
0.0003324680828
0.0003230080708
0.0003144475715
0.0003078900951
8.928709263e-05
0.0001297862701
0.0001664763801
0.0001965809822
0.0002195239794
0.0002359607565
0.0002470515159
0.0002540307892
0.0002580000295
0.0002598553589
0.0002602864544
0.0002598116844
0.0002588446279
0.0002578528955
3.408996845e-05
5.327927714e-05
7.414343863e-05
9.491868839e-05
0.0001143960475
0.0001319156223
0.0001472369878
0.0001603908448
0.0001715569074
0.0001809786124
0.0001889077449
0.0001955616898
0.0002010401186
0.0002049866566
1.525912089e-05
2.519736414e-05
3.749775058e-05
5.146850691e-05
6.636042515e-05
8.150034252e-05
9.635492242e-05
0.0001105440803
0.0001238260319
0.0001360690451
0.000147216705
0.0001572343873
0.0001659601333
0.0001724982904
1.40077262e-05
2.591706172e-05
4.136103768e-05
5.909702531e-05
7.782967566e-05
9.647885574e-05
0.0001142680428
0.0001307113781
0.0001455581647
0.0001587287501
0.0001702565677
0.0001802395358
0.0001887887422
0.0001959154621
0.0002010799294
3.795049695e-05
6.729937878e-05
9.921837378e-05
0.0001295833217
0.0001561235734
0.0001780444034
0.0001954478065
0.0002088712501
0.0002189961989
0.0002264923844
0.0002319482024
0.000235849959
0.0002385837055
0.0002404396082
0.0002415640323
0.0001286536398
0.0002121026748
0.0002805447627
0.0003278027099
0.0003557610151
0.000368964497
0.0003720034617
0.0003685858661
0.0003614007601
0.0003522735709
0.0003423854991
0.000332474624
0.0003230146003
0.0003144540731
0.0003078966635
0.0006333569136
0.0007197987251
0.0007344072236
0.0007100143185
0.0006681580167
0.0006210163268
0.0005747758487
0.0005322039873
0.0004942608389
0.00046101988
0.0004321734805
0.0004073441126
0.0003864840801
0.0003712464056
0.00146077847
0.001353730382
0.001188390389
0.001029583219
0.0008945047932
0.0007842400123
0.0006952570523
0.0006233610638
0.0005648849203
0.0005169187091
0.0004772493539
0.000444292618
0.0004173020247
0.0003979032911
0.0006333321126
0.0007197805837
0.0007343905926
0.0007099981337
0.0006681422891
0.0006210013132
0.0005747616091
0.0005321906231
0.0004942483128
0.0004610080981
0.0004321623734
0.0004073335958
0.0003864740456
0.000371236634
0.0002121016717
0.0002805400566
0.0003277944195
0.0003557497354
0.0003689510218
0.00037198847
0.000368569921
0.0003613844079
0.0003522571295
0.0003423691412
0.0003324584861
0.0003229987195
0.0003144384708
0.0003078810959
6.730096388e-05
9.921825401e-05
0.0001295809586
0.0001561187463
0.0001780372394
0.0001954385535
0.0002088601756
0.0002189836435
0.0002264786647
0.000231933563
0.0002358345315
0.0002385677123
0.0002404231524
0.0002415471097
2.591838838e-05
4.136179832e-05
5.909671742e-05
7.782788454e-05
9.647528441e-05
0.0001142625844
0.0001307039947
0.0001455489417
0.0001587177823
0.0001702440282
0.000180225567
0.000188773494
0.0001958990424
0.0002010623599
1.843127286e-05
3.353080144e-05
5.199862893e-05
7.21517014e-05
9.257209293e-05
0.0001122332488
0.0001304788388
0.0001469510228
0.0001615112168
0.0001741699553
0.0001850311187
0.0001942475672
0.0002019776483
0.0002082916018
0.0002127921702
5.816109647e-05
9.864709398e-05
0.0001370610923
0.0001696272069
0.0001954861572
0.0002151437125
0.0002295918379
0.0002398877349
0.0002469807835
0.0002516594853
0.0002545515863
0.0002561454281
0.0002568199014
0.0002568867595
0.0002566701603
0.0002522228402
0.0003730412773
0.0004412139161
0.0004705943818
0.0004758990277
0.0004676605156
0.0004525205378
0.000434420591
0.0004156062454
0.0003973041414
0.00038014364
0.0003644177632
0.0003502714197
0.0003379679799
0.0003287667053
0.001312996351
0.00146075326
0.001353714367
0.00118837982
0.001029575591
0.0008944991197
0.0007842357095
0.0006952536159
0.0006233581727
0.0005648825541
0.0005169166515
0.0004772476194
0.0004442909783
0.0004173006413
0.0003979019921
0.005036839238
0.003221346482
0.002215484897
0.001626196822
0.001260978978
0.001021977594
0.000857527843
0.0007392542011
0.0006509314643
0.0005829011583
0.000529198397
0.0004860947781
0.0004516602729
0.0004272872407
0.001460778803
0.001353704904
0.001188358454
0.001029551738
0.0008944760785
0.0007842143388
0.0006952342104
0.0006233406142
0.0005648665748
0.0005169020443
0.0004772342237
0.0004442785235
0.0004172888962
0.0003978907508
0.0003730513486
0.0004412123545
0.0004705840611
0.0004758832768
0.0004676417015
0.000452500281
0.0004343998056
0.0004155855919
0.0003972839131
0.000380123936
0.0003643986545
0.0003502528975
0.0003379500534
0.0003287490677
9.865131177e-05
0.0001370619879
0.0001696242512
0.000195479539
0.0002151340069
0.0002295796333
0.0002398735976
0.0002469652339
0.0002516428305
0.0002545341358
0.0002561273444
0.0002568014038
0.0002568679505
0.0002566509975
3.353289824e-05
5.199984109e-05
7.215133838e-05
9.256969296e-05
0.0001122285764
0.0001304718423
0.0001469418035
0.0001614999111
0.000174156788
0.0001850162744
0.0001942312654
0.0002019600865
0.0002082729397
0.0002127723094
1.400761737e-05
2.591664902e-05
4.13602535e-05
5.909582806e-05
7.782803697e-05
9.647675955e-05
0.0001142654832
0.0001307083546
0.0001455547359
0.0001587249054
0.0001702523765
0.0001802350088
0.0001887839225
0.0001959103952
0.0002010746431
3.794933096e-05
6.729728057e-05
9.921545966e-05
0.0001295797051
0.0001561193203
0.0001780395866
0.0001954425287
0.000208865576
0.0002189902145
0.0002264861514
0.0002319418013
0.0002358433643
0.0002385770331
0.0002404328412
0.0002415571362
0.0001286429713
0.0002120925416
0.0002805336851
0.0003277911392
0.0003557492066
0.0003689526143
0.0003719916663
0.000368574254
0.0003613894102
0.000352262575
0.0003423748387
0.0003324642738
0.0003230045696
0.0003144443547
0.0003078871016
0.000439918523
0.000633310041
0.0007197626621
0.0007343763761
0.0007099868111
0.0006681332282
0.0006209939643
0.0005747554961
0.0005321854931
0.0004942438626
0.0004610041582
0.0004321589624
0.0004073305577
0.0003864713076
0.000371234089
0.001312990524
0.001460744659
0.001353683369
0.001188344146
0.001029541706
0.0008944686428
0.0007842087778
0.000695229928
0.0006233371709
0.0005648636732
0.0005168995267
0.0004772320262
0.0004442766732
0.0004172872752
0.0003978891958
0.0004399251058
0.0006333082526
0.0007197528373
0.0007343615789
0.0007099697684
0.0006681156565
0.0006209767312
0.0005747390967
0.0005321699808
0.0004942294569
0.0004609907465
0.0004321463397
0.0004073187023
0.0003864600822
0.0003712232347
0.0002121076447
0.0002805368265
0.0003277858311
0.0003557381088
0.0003689378708
0.0003719746918
0.0003685561332
0.0003613708323
0.00035224398
0.0003423564529
0.0003324462144
0.0003229868994
0.0003144270027
0.000307869879
6.730299574e-05
9.921813076e-05
0.0001295786905
0.0001561147007
0.0001780317803
0.0001954320292
0.0002088529322
0.0002189759205
0.0002264705724
0.0002319251854
0.0002358259954
0.00023855911
0.000240414487
0.000241538336
2.591899086e-05
4.136189435e-05
5.90960371e-05
7.782629803e-05
9.647278543e-05
0.0001142591993
0.0001306998211
0.0001455440716
0.0001587123104
0.0001702380437
0.0001802191843
0.0001887667647
0.0001958920214
0.0002010550926
8.11481769e-06
1.525798501e-05
2.519605188e-05
3.749644321e-05
5.146740302e-05
6.635968449e-05
8.150012943e-05
9.635532039e-05
0.0001105451612
0.0001238277906
0.0001360714784
0.0001472198062
0.0001572381267
0.0001659644911
0.000172503332
1.859823829e-05
3.408774648e-05
5.327680202e-05
7.414098663e-05
9.491648596e-05
0.0001143942329
0.0001319142778
0.0001472361502
0.0001603904942
0.0001715570339
0.0001809791315
0.0001889086563
0.0001955629258
0.0002010416821
0.0002049884696
5.06911939e-05
8.928210545e-05
0.0001297806266
0.000166470462
0.0001965750838
0.0002195182242
0.0002359552267
0.0002470462551
0.0002540258323
0.0002579953808
0.0002598509458
0.0002602823034
0.0002598077586
0.0002588409496
0.0002578493539
0.0001286429435
0.0002120904366
0.0002805288741
0.0003277840149
0.000355740346
0.0003689426965
0.0003719811439
0.0003685635043
0.0003613786887
0.0003522519983
0.0003423645082
0.0003324542977
0.0003229949089
0.0003144349644
0.0003078778288
0.0002522226115
0.0003730328427
0.0004411967097
0.0004705712563
0.0004758728502
0.0004676332117
0.000452493231
0.0004343939479
0.0004155806405
0.000397279588
0.0003801201497
0.0003643952269
0.000350249855
0.0003379472957
0.0003287464737
0.0001286421829
0.0002120879948
0.0002805240728
0.0003277769462
0.0003557316759
0.0003689329071
0.0003719708011
0.0003685529477
0.0003613681421
0.0003522416436
0.0003423543943
0.0003324444254
0.0003229853279
0.0003144256291
0.0003078685676
5.069469298e-05
8.928466563e-05
0.0001297804462
0.0001664670269
0.0001965686134
0.0002195092509
0.0002359443857
0.0002470340451
0.0002540126302
0.0002579815533
0.0002598367707
0.0002602679328
0.0002597932779
0.0002588263787
0.0002578346552
3.409141255e-05
5.327867533e-05
7.414074555e-05
9.491396142e-05
0.0001143894634
0.0001319073635
0.0001472273371
0.0001603800488
0.0001715451546
0.0001809660629
0.0001888945944
0.0001955480318
0.0002010260491
0.0002049722374
1.525978796e-05
2.51974152e-05
3.749687418e-05
5.146648255e-05
6.635712261e-05
8.149574182e-05
9.634903358e-05
0.0001105369988
0.0001238178331
0.0001360598329
0.0001472066102
0.0001572235195
0.0001659485987
0.000172486189
4.192550877e-06
7.985920098e-06
1.360623678e-05
2.109303132e-05
3.027415699e-05
4.083440363e-05
5.239114817e-05
6.455580133e-05
7.697430872e-05
8.934801086e-05
0.0001014387143
0.0001130582026
0.0001240240286
0.0001339850268
0.0001416777316
8.217653736e-06
1.540817398e-05
2.528073341e-05
3.732281748e-05
5.081238192e-05
6.502382273e-05
7.934560159e-05
9.332218131e-05
0.0001066490551
0.0001191460147
0.000130724054
0.0001413500667
0.0001509951997
0.000159487273
0.0001659074636
1.859825306e-05
3.408756161e-05
5.327622754e-05
7.413987301e-05
9.491478346e-05
0.0001143919195
0.0001319113538
0.0001472327102
0.000160386568
0.000171552711
0.0001809744789
0.0001889037208
0.0001955577614
0.0002010363208
0.0002049829464
3.794936815e-05
6.729628921e-05
9.921280586e-05
0.0001295751226
0.0001561127905
0.0001780313581
0.0001954328705
0.0002088547618
0.0002189785704
0.0002264738532
0.000231928996
0.0002358302255
0.0002385636382
0.0002404192905
0.0002415433774
5.81609496e-05
9.864421055e-05
0.0001370545156
0.0001696169175
0.0001954726272
0.0002151276033
0.0002295737296
0.000239868177
0.0002469602306
0.0002516382929
0.0002545299425
0.0002561234648
0.0002567978105
0.0002568645917
0.0002566477642
3.794891037e-05
6.729529861e-05
9.921099233e-05
0.0001295723492
0.0001561091089
0.0001780268251
0.0001954276478
0.000208848994
0.0002189723361
0.0002264673135
0.0002319222564
0.0002358233112
0.0002385566248
0.0002404122038
0.0002415361476
1.859850075e-05
3.408764308e-05
5.327555971e-05
7.413804099e-05
9.491157301e-05
0.0001143873104
0.0001319054333
0.0001472255651
0.0001603784168
0.0001715436725
0.000180964722
0.0001888933709
0.0001955469059
0.0002010250185
0.0002049712228
8.21838459e-06
1.540895521e-05
2.528109382e-05
3.732236306e-05
5.081082346e-05
6.502097073e-05
7.934137571e-05
9.331655541e-05
0.0001066420631
0.0001191377147
0.000130714551
0.000141339463
0.00015098356
0.0001594747435
0.0001658941495
7.986958022e-06
1.360697432e-05
2.109324353e-05
3.027358095e-05
4.083279449e-05
5.238829696e-05
6.455157085e-05
7.696860012e-05
8.93407897e-05
0.0001014299644
0.0001130479583
0.0001240123636
0.0001339720052
0.0001416634201
2.44105651e-06
4.694581588e-06
8.199717699e-06
1.315097565e-05
1.961140589e-05
2.751336231e-05
3.668341024e-05
4.687820354e-05
5.782065275e-05
6.922984536e-05
8.084084986e-05
9.240864452e-05
0.0001036721232
0.0001141687825
0.0001224200396
4.192570649e-06
7.985921512e-06
1.360618403e-05
2.109287727e-05
3.027384977e-05
4.08338965e-05
5.239039008e-05
6.455477138e-05
7.697297859e-05
8.934637961e-05
0.0001014367745
0.0001130559416
0.0001240214627
0.0001339821499
0.0001416744677
8.114853908e-06
1.525789636e-05
2.519568206e-05
3.749562141e-05
5.146597478e-05
6.635754047e-05
8.149718742e-05
9.63515619e-05
0.0001105405794
0.000123822422
0.0001360653776
0.0001472130262
0.0001572307095
0.0001659564718
0.0001724946846
1.400763543e-05
2.591622511e-05
4.135898391e-05
5.909333775e-05
7.782407145e-05
9.647118337e-05
0.000114258299
0.0001306996347
0.0001455445784
0.0001587134691
0.0001702397882
0.0001802214541
0.000188769509
0.000195895182
0.0002010586062
1.843123488e-05
3.352983809e-05
5.199607857e-05
7.214709158e-05
9.256516127e-05
0.0001122239188
0.0001304671711
0.0001469372102
0.0001614954536
0.0001741524989
0.0001850121654
0.0001942273589
0.0002019563437
0.0002082693674
0.0002127688927
1.400743703e-05
2.59158024e-05
4.135820202e-05
5.909208891e-05
7.782227696e-05
9.646881452e-05
0.0001142553243
0.0001306961107
0.0001455405273
0.0001587089632
0.0001702348784
0.0001802161988
0.0001887639527
0.0001958893684
0.0002010525382
8.114785875e-06
1.525770163e-05
2.519515764e-05
3.749454587e-05
5.146415631e-05
6.635484248e-05
8.149353301e-05
9.634692704e-05
0.0001105349967
0.000123815922
0.0001360580414
0.0001472049264
0.000157221916
0.0001659470711
0.0001724847288
4.192654711e-06
7.98602099e-06
1.360612047e-05
2.109243349e-05
3.027279806e-05
4.083203711e-05
5.23875639e-05
6.455086004e-05
7.696791674e-05
8.934013697e-05
0.0001014293563
0.0001130473903
0.0001240118083
0.000133971489
0.0001416629327
2.441264646e-06
4.694868884e-06
8.199942374e-06
1.315095632e-05
1.961093293e-05
2.751221017e-05
3.668137075e-05
4.687508739e-05
5.78163062e-05
6.922415912e-05
8.083376214e-05
9.240011521e-05
0.00010366216
0.0001141574056
0.0001224073056
)
;

boundaryField
{
    top
    {
        type            calculated;
        value           nonuniform List<scalar> 
127
(
2.441264646e-06
4.694967482e-06
7.986560842e-06
1.525912089e-05
2.591838838e-05
3.353289824e-05
2.591899086e-05
1.525978796e-05
7.986958022e-06
4.694868884e-06
8.200293237e-06
1.360710341e-05
2.519736414e-05
4.136179832e-05
5.199984109e-05
4.136189435e-05
2.51974152e-05
1.360697432e-05
8.199942374e-06
1.31517772e-05
2.109410788e-05
3.749775058e-05
5.909671742e-05
7.215133838e-05
5.90960371e-05
3.749687418e-05
2.109324353e-05
1.315095632e-05
1.9612462e-05
3.027540011e-05
5.146850691e-05
7.782788454e-05
9.256969296e-05
7.782629803e-05
5.146648255e-05
3.027358095e-05
1.961093293e-05
2.751468592e-05
4.083575649e-05
6.636042515e-05
9.647528441e-05
0.0001122285764
9.647278543e-05
6.635712261e-05
4.083279449e-05
2.751221017e-05
3.668500489e-05
5.23925404e-05
8.150034252e-05
0.0001142625844
0.0001304718423
0.0001142591993
8.149574182e-05
5.238829696e-05
3.668137075e-05
4.688005844e-05
6.455717603e-05
9.635492242e-05
0.0001307039947
0.0001469418035
0.0001306998211
9.634903358e-05
6.455157085e-05
4.687508739e-05
5.782275244e-05
7.697561617e-05
0.0001105440803
0.0001455489417
0.0001614999111
0.0001455440716
0.0001105369988
7.696860012e-05
5.78163062e-05
6.923217182e-05
8.934920177e-05
0.0001238260319
0.0001587177823
0.000174156788
0.0001587123104
0.0001238178331
8.93407897e-05
6.922415912e-05
8.084337021e-05
0.0001014397441
0.0001360690451
0.0001702440282
0.0001850162744
0.0001702380437
0.0001360598329
0.0001014299644
8.083376214e-05
9.241133405e-05
0.0001130590297
0.000147216705
0.000180225567
0.0001942312654
0.0001802191843
0.0001472066102
0.0001130479583
9.240011521e-05
0.0001036749649
0.0001240246439
0.0001572343873
0.000188773494
0.0002019600865
0.0001887667647
0.0001572235195
0.0001240123636
0.00010366216
0.0001141717561
0.0001339854117
0.0001659601333
0.0001958990424
0.0002082729397
0.0001958920214
0.0001659485987
0.0001339720052
0.0001141574056
0.000122423088
0.0001416777672
0.0001724982904
0.0002010623599
0.0002127723094
0.0002010550926
0.000172486189
0.0001416634201
0.0001224073056
)
;
    }
    bottom
    {
        type            calculated;
        value           nonuniform List<scalar> 
134
(
4.19297296e-06
8.11510047e-06
1.40077262e-05
1.843127286e-05
1.400761737e-05
8.11481769e-06
4.192550877e-06
2.44105651e-06
4.695285745e-06
7.986612961e-06
1.525866707e-05
2.591706172e-05
3.353080144e-05
2.591664902e-05
1.525798501e-05
7.985920098e-06
4.694581588e-06
8.200610194e-06
1.360727573e-05
2.519719409e-05
4.136103768e-05
5.199862893e-05
4.13602535e-05
2.519605188e-05
1.360623678e-05
8.199717699e-06
1.315216211e-05
2.109448862e-05
3.749811968e-05
5.909702531e-05
7.21517014e-05
5.909582806e-05
3.749644321e-05
2.109303132e-05
1.315097565e-05
1.961301243e-05
3.027613664e-05
5.146968925e-05
7.782967566e-05
9.257209293e-05
7.782803697e-05
5.146740302e-05
3.027415699e-05
1.961140589e-05
2.751551832e-05
4.083702217e-05
6.636265889e-05
9.647885574e-05
0.0001122332488
9.647675955e-05
6.635968449e-05
4.083440363e-05
2.751336231e-05
3.668625354e-05
5.239450421e-05
8.150381537e-05
0.0001142680428
0.0001304788388
0.0001142654832
8.150012943e-05
5.239114817e-05
3.668341024e-05
4.688185519e-05
6.455997513e-05
9.635974641e-05
0.0001307113781
0.0001469510228
0.0001307083546
9.635532039e-05
6.455580133e-05
4.687820354e-05
5.782522386e-05
7.697938162e-05
0.00011055033
0.0001455581647
0.0001615112168
0.0001455547359
0.0001105451612
7.697430872e-05
5.782065275e-05
6.923542687e-05
8.935401457e-05
0.0001238336793
0.0001587287501
0.0001741699553
0.0001587249054
0.0001238277906
8.934801086e-05
6.922984536e-05
8.084749892e-05
0.0001014456582
0.0001360780593
0.0001702565677
0.0001850311187
0.0001702523765
0.0001360714784
0.0001014387143
8.084084986e-05
9.241640516e-05
0.0001130660621
0.0001472270378
0.0001802395358
0.0001942475672
0.0001802350088
0.0001472198062
0.0001130582026
9.240864452e-05
0.0001036810215
0.0001240327941
0.0001572459623
0.0001887887422
0.0002019776483
0.0001887839225
0.0001572381267
0.0001240240286
0.0001036721232
0.0001141788233
0.0001339946672
0.0001659728795
0.0001959154621
0.0002082916018
0.0001959103952
0.0001659644911
0.0001339850268
0.0001141687825
0.0001224311875
0.0001416881646
0.0001725122347
0.0002010799294
0.0002127921702
0.0002010746431
0.000172503332
0.0001416777316
0.0001224200396
)
;
    }
    side-walls
    {
        type            calculated;
        value           nonuniform List<scalar> 
261
(
4.695285745e-06
7.986971424e-06
1.525952148e-05
2.591852275e-05
3.353262304e-05
2.591819622e-05
1.525905241e-05
7.986523114e-06
4.694967482e-06
8.200610194e-06
1.360762735e-05
2.519811451e-05
4.136270004e-05
5.20008131e-05
4.136220769e-05
2.519749372e-05
1.360710116e-05
8.200293237e-06
1.315216211e-05
2.109484879e-05
3.749908489e-05
5.909883989e-05
7.215418545e-05
5.909814772e-05
3.749825728e-05
2.109418366e-05
1.31517772e-05
1.961301243e-05
3.027650861e-05
5.147068512e-05
7.783159702e-05
9.257478673e-05
7.783066257e-05
5.146956862e-05
3.027560501e-05
1.9612462e-05
2.751551832e-05
4.083740471e-05
6.636366399e-05
9.648083209e-05
0.0001122360824
9.647960887e-05
6.636215982e-05
4.083613943e-05
2.751468592e-05
3.668625354e-05
5.239489834e-05
8.150483515e-05
0.0001142700426
0.0001304817416
0.0001142685038
8.150285471e-05
5.23931531e-05
3.668500489e-05
4.688185519e-05
6.456038907e-05
9.636078871e-05
0.0001307133804
0.0001469539593
0.0001307114991
9.6358243e-05
6.455806009e-05
4.688005844e-05
5.782522386e-05
7.697978815e-05
0.0001105513588
0.0001455601561
0.0001615141482
0.0001455579383
0.0001105482473
7.697679125e-05
5.782275244e-05
6.923542687e-05
8.935442444e-05
0.0001238347051
0.0001587307002
0.0001741728692
0.0001587281524
0.000123830985
8.935069123e-05
6.923217182e-05
8.084749892e-05
0.0001014460638
0.0001360790955
0.0001702584702
0.0001850339547
0.0001702556098
0.0001360747419
0.0001014415499
8.084337021e-05
9.241640516e-05
0.0001130664632
0.0001472280468
0.000180241409
0.0001942503576
0.000180238239
0.0001472230918
0.0001130611617
9.241133405e-05
0.0001036810215
0.0001240331967
0.0001572469457
0.0001887905625
0.0002019803549
0.0001887871254
0.0001572414586
0.0001240270884
0.0001036749649
0.0001141788233
0.00013399505
0.0001659738154
0.0001959172014
0.0002082942245
0.0001959135094
0.0001659677984
0.0001339881682
0.0001141717561
0.0001224311875
0.0001416885268
0.0001725131566
0.0002010816816
0.0002127947009
0.0002010777243
0.0001725066423
0.0001416809202
0.000122423088
2.44105651e-06
4.192570649e-06
8.114853908e-06
1.400763543e-05
1.843123488e-05
1.400743703e-05
8.114785875e-06
4.192654711e-06
2.441264646e-06
4.694581588e-06
7.985921512e-06
1.525789636e-05
2.591622511e-05
3.352983809e-05
2.59158024e-05
1.525770163e-05
7.98602099e-06
4.694868884e-06
8.199717699e-06
1.360618403e-05
2.519568206e-05
4.135898391e-05
5.199607857e-05
4.135820202e-05
2.519515764e-05
1.360612047e-05
8.199942374e-06
1.315097565e-05
2.109287727e-05
3.749562141e-05
5.909333775e-05
7.214709158e-05
5.909208891e-05
3.749454587e-05
2.109243349e-05
1.315095632e-05
1.961140589e-05
3.027384977e-05
5.146597478e-05
7.782407145e-05
9.256516127e-05
7.782227696e-05
5.146415631e-05
3.027279806e-05
1.961093293e-05
2.751336231e-05
4.08338965e-05
6.635754047e-05
9.647118337e-05
0.0001122239188
9.646881452e-05
6.635484248e-05
4.083203711e-05
2.751221017e-05
3.668341024e-05
5.239039008e-05
8.149718742e-05
0.000114258299
0.0001304671711
0.0001142553243
8.149353301e-05
5.23875639e-05
3.668137075e-05
4.687820354e-05
6.455477138e-05
9.63515619e-05
0.0001306996347
0.0001469372102
0.0001306961107
9.634692704e-05
6.455086004e-05
4.687508739e-05
5.782065275e-05
7.697297859e-05
0.0001105405794
0.0001455445784
0.0001614954536
0.0001455405273
0.0001105349967
7.696791674e-05
5.78163062e-05
6.922984536e-05
8.934637961e-05
0.000123822422
0.0001587134691
0.0001741524989
0.0001587089632
0.000123815922
8.934013697e-05
6.922415912e-05
8.084084986e-05
0.0001014367745
0.0001360653776
0.0001702397882
0.0001850121654
0.0001702348784
0.0001360580414
0.0001014293563
8.083376214e-05
9.240864452e-05
0.0001130559416
0.0001472130262
0.0001802214541
0.0001942273589
0.0001802161988
0.0001472049264
0.0001130473903
9.240011521e-05
0.0001036721232
0.0001240214627
0.0001572307095
0.000188769509
0.0002019563437
0.0001887639527
0.000157221916
0.0001240118083
0.00010366216
0.0001141687825
0.0001339821499
0.0001659564718
0.000195895182
0.0002082693674
0.0001958893684
0.0001659470711
0.000133971489
0.0001141574056
0.0001224200396
0.0001416744677
0.0001724946846
0.0002010586062
0.0002127688927
0.0002010525382
0.0001724847288
0.0001416629327
0.0001224073056
)
;
    }
    inlet
    {
        type            calculated;
        value           nonuniform 0();
    }
    outlet
    {
        type            calculated;
        value           nonuniform List<scalar> 
81
(
0.0001224311875
0.0001416885268
0.0001725131566
0.0002010816816
0.0002127947009
0.0002010777243
0.0001725066423
0.0001416809202
0.000122423088
0.0001416881646
0.0001659205642
0.0002050004818
0.0002415656054
0.0002566726191
0.0002415602963
0.0002049919225
0.0001659108822
0.0001416777672
0.0001725122347
0.0002049998655
0.0002578648501
0.0003078976082
0.0003287687677
0.0003078900951
0.0002578528955
0.0002049866566
0.0001724982904
0.0002010799294
0.0002415640323
0.0003078966635
0.0003712464056
0.0003979032911
0.000371236634
0.0003078810959
0.0002415471097
0.0002010623599
0.0002127921702
0.0002566701603
0.0003287667053
0.0003979019921
0.0004272872407
0.0003978907508
0.0003287490677
0.0002566509975
0.0002127723094
0.0002010746431
0.0002415571362
0.0003078871016
0.000371234089
0.0003978891958
0.0003712232347
0.000307869879
0.000241538336
0.0002010550926
0.000172503332
0.0002049884696
0.0002578493539
0.0003078778288
0.0003287464737
0.0003078685676
0.0002578346552
0.0002049722374
0.000172486189
0.0001416777316
0.0001659074636
0.0002049829464
0.0002415433774
0.0002566477642
0.0002415361476
0.0002049712228
0.0001658941495
0.0001416634201
0.0001224200396
0.0001416744677
0.0001724946846
0.0002010586062
0.0002127688927
0.0002010525382
0.0001724847288
0.0001416629327
0.0001224073056
)
;
    }
    procBoundary1to0
    {
        type            processor;
        value           nonuniform List<scalar> 
97
(
2.441261341e-06
2.441261341e-06
4.192604105e-06
8.114521676e-06
1.400662889e-05
1.842964404e-05
1.400635607e-05
8.114127238e-06
4.192195697e-06
2.44085338e-06
1.95044167e-06
8.218418044e-06