/*--------------------------------*- C++ -*----------------------------------*\
| =========                 |                                                 |
| \\      /  F ield         | OpenFOAM: The Open Source CFD Toolbox           |
|  \\    /   O peration     | Version:  4.x                                   |
|   \\  /    A nd           | Web:      www.OpenFOAM.org                      |
|    \\/     M anipulation  |                                                 |
\*---------------------------------------------------------------------------*/
FoamFile
{
    version     2.0;
    format      ascii;
    class       volScalarField;
    location    "2000";
    object      CO;
}
// * * * * * * * * * * * * * * * * * * * * * * * * * * * * * * * * * * * * * //

dimensions      [0 0 0 0 0 0 0];

internalField   nonuniform List<scalar> 
1175
(
0.3999999999
0.3999999999
0.3999999999
0.3999999999
0.3999999998
0.3999999996
0.3999999988
0.3999999961
0.3999999878
0.3999999626
0.3999998911
0.399999701
0.3999992366
0.3999982102
0.3999961889
0.3999999999
0.3999999999
0.3999999999
0.3999999999
0.3999999998
0.3999999995
0.3999999984
0.3999999947
0.3999999826
0.3999999446
0.399999832
0.3999995207
0.3999987338
0.3999969564
0.3999934559
0.3999999999
0.3999999999
0.3999999999
0.3999999999
0.3999999998
0.3999999993
0.3999999977
0.3999999921
0.399999973
0.3999999101
0.3999997145
0.3999991483
0.3999976563
0.3999941869
0.3999873367
0.3999999999
0.3999999999
0.3999999999
0.3999999999
0.3999999997
0.3999999992
0.3999999971
0.3999999894
0.3999999622
0.3999998693
0.3999995685
0.3999986583
0.3999961541
0.3999901289
0.3999781448
0.3999999999
0.3999999999
0.3999999999
0.3999999999
0.3999999997
0.3999999991
0.3999999967
0.3999999881
0.3999999568
0.399999848
0.3999994869
0.3999983623
0.3999951659
0.399987231
0.399971245
0.3999999999
0.3999999999
0.3999999999
0.3999999999
0.3999999997
0.3999999992
0.3999999971
0.3999999894
0.3999999622
0.3999998693
0.3999995685
0.3999986583
0.3999961541
0.399990129
0.3999781452
0.3999999999
0.3999999999
0.3999999999
0.3999999999
0.3999999998
0.3999999993
0.3999999977
0.3999999921
0.399999973
0.3999999101
0.3999997145
0.3999991484
0.3999976564
0.3999941871
0.3999873372
0.3999999999
0.3999999999
0.3999999999
0.3999999999
0.3999999998
0.3999999995
0.3999999984
0.3999999947
0.3999999826
0.3999999446
0.399999832
0.3999995207
0.3999987339
0.3999969567
0.3999934565
0.3999999999
0.3999999999
0.3999999999
0.3999999999
0.3999999998
0.3999999996
0.3999999988
0.3999999961
0.3999999878
0.3999999626
0.3999998911
0.399999701
0.3999992367
0.3999982104
0.3999961894
0.3999999999
0.3999999999
0.3999999999
0.3999999999
0.3999999998
0.3999999995
0.3999999984
0.3999999947
0.3999999826
0.3999999446
0.399999832
0.3999995206
0.3999987337
0.3999969561
0.3999999999
0.3999999999
0.3999999999
0.3999999999
0.3999999998
0.3999999994
0.3999999978
0.3999999924
0.3999999737
0.3999999119
0.3999997181
0.3999991523
0.3999976484
0.3999941296
0.3999871755
0.3999999999
0.3999999999
0.3999999999
0.3999999999
0.3999999997
0.3999999991
0.3999999968
0.399999988
0.3999999563
0.3999998451
0.3999994739
0.3999983171
0.3999950469
0.3999870184
0.3999709845
0.3999999999
0.3999999999
0.3999999999
0.3999999999
0.3999999997
0.3999999988
0.3999999956
0.3999999831
0.3999999354
0.3999997591
0.3999991352
0.3999970603
0.3999907805
0.399974381
0.3999408082
0.3999999999
0.3999999999
0.3999999999
0.3999999998
0.3999999996
0.3999999987
0.3999999951
0.3999999806
0.3999999241
0.399999709
0.3999989176
0.3999961534
0.3999872687
0.399962458
0.3999092909
0.3999999999
0.3999999999
0.3999999999
0.3999999999
0.3999999997
0.3999999988
0.3999999956
0.3999999831
0.3999999354
0.3999997591
0.3999991352
0.3999970604
0.3999907807
0.3999743817
0.39994081
0.3999999999
0.3999999999
0.3999999999
0.3999999999
0.3999999997
0.3999999991
0.3999999968
0.399999988
0.3999999563
0.3999998451
0.3999994739
0.3999983171
0.3999950471
0.3999870192
0.3999709865
0.3999999999
0.3999999999
0.3999999999
0.3999999999
0.3999999998
0.3999999994
0.3999999978
0.3999999924
0.3999999737
0.3999999119
0.3999997182
0.3999991523
0.3999976486
0.3999941303
0.3999871773
0.3999999999
0.3999999999
0.3999999999
0.3999999999
0.3999999998
0.3999999995
0.3999999984
0.3999999947
0.3999999826
0.3999999446
0.399999832
0.3999995207
0.3999987339
0.3999969566
0.3999934564
0.3999999999
0.3999999999
0.3999999999
0.3999999999
0.3999999998
0.3999999993
0.3999999977
0.3999999921
0.399999973
0.3999999101
0.3999997145
0.3999991483
0.399997656
0.399994186
0.3999999999
0.3999999999
0.3999999999
0.3999999999
0.3999999997
0.3999999991
0.3999999968
0.399999988
0.3999999563
0.3999998451
0.3999994739
0.399998317
0.3999950465
0.3999870169
0.3999999999
0.3999999999
0.3999999999
0.3999999998
0.3999999996
0.3999999987
0.3999999949
0.39999998
0.399999922
0.3999997031
0.3999989113
0.3999962239
0.3999879413
0.3999660132
0.3999209327
0.3999999999
0.3999999999
0.3999999999
0.3999999998
0.3999999995
0.3999999982
0.3999999928
0.3999999702
0.3999998772
0.3999995014
0.3999980314
0.3999925707
0.3999739529
0.3999193093
0.3997994135
0.3999999999
0.3999999999
0.3999999999
0.3999999998
0.3999999995
0.399999998
0.3999999917
0.3999999649
0.3999998507
0.3999993685
0.3999973686
0.3999893424
0.3999590644
0.3998581614
0.3996067952
0.3999999999
0.3999999999
0.3999999999
0.3999999998
0.3999999995
0.3999999982
0.3999999928
0.3999999702
0.3999998772
0.3999995014
0.3999980315
0.3999925709
0.3999739538
0.3999193128
0.3997994242
0.3999999999
0.3999999999
0.3999999999
0.3999999998
0.3999999996
0.3999999987
0.3999999949
0.39999998
0.399999922
0.3999997031
0.3999989113
0.3999962241
0.3999879421
0.3999660164
0.399920943
0.3999999999
0.3999999999
0.3999999999
0.3999999999
0.3999999997
0.3999999991
0.3999999968
0.399999988
0.3999999563
0.3999998451
0.3999994739
0.3999983171
0.3999950471
0.3999870191
0.3999709864
0.3999999999
0.3999999999
0.3999999999
0.3999999999
0.3999999998
0.3999999993
0.3999999977
0.3999999921
0.399999973
0.3999999101
0.3999997145
0.3999991483
0.3999976563
0.3999941871
0.3999873371
0.3999999999
0.3999999999
0.3999999999
0.3999999999
0.3999999997
0.3999999992
0.3999999971
0.3999999894
0.3999999621
0.3999998693
0.3999995684
0.3999986581
0.3999961535
0.3999901271
0.3999999999
0.3999999999
0.3999999999
0.3999999999
0.3999999997
0.3999999988
0.3999999956
0.3999999831
0.3999999354
0.3999997591
0.3999991351
0.3999970601
0.3999907794
0.399974377
0.3999999999
0.3999999999
0.3999999999
0.3999999998
0.3999999995
0.3999999982
0.3999999928
0.3999999702
0.3999998772
0.3999995014
0.3999980314
0.3999925703
0.3999739509
0.3999192995
0.3999999999
0.3999999999
0.3999999999
0.3999999998
0.3999999994
0.3999999975
0.3999999895
0.3999999537
0.3999997953
0.3999990983
0.3999960763
0.3999833765
0.3999332479
0.3997592766
0.399314363
0.3999999999
0.3999999999
0.3999999999
0.3999999998
0.3999999993
0.3999999972
0.3999999877
0.399999944
0.3999997418
0.3999987945
0.3999943188
0.399973144
0.3998746652
0.3994456233
0.3979554293
0.3999999999
0.3999999999
0.3999999999
0.3999999998
0.3999999994
0.3999999975
0.3999999895
0.3999999537
0.3999997953
0.3999990983
0.3999960764
0.399983377
0.399933251
0.3997592934
0.3993144351
0.3999999999
0.3999999999
0.3999999999
0.3999999998
0.3999999995
0.3999999982
0.3999999928
0.3999999702
0.3999998772
0.3999995014
0.3999980314
0.3999925708
0.3999739533
0.3999193117
0.3997994232
0.3999999999
0.3999999999
0.3999999999
0.3999999999
0.3999999997
0.3999999988
0.3999999956
0.3999999831
0.3999999354
0.3999997591
0.3999991352
0.3999970603
0.3999907805
0.3999743812
0.3999408095
0.3999999999
0.3999999999
0.3999999999
0.3999999999
0.3999999997
0.3999999992
0.3999999971
0.3999999894
0.3999999622
0.3999998693
0.3999995685
0.3999986583
0.399996154
0.3999901288
0.399978145
0.3999999999
0.3999999999
0.3999999999
0.3999999999
0.3999999997
0.3999999991
0.3999999967
0.3999999881
0.3999999568
0.399999848
0.3999994868
0.399998362
0.3999951651
0.3999872286
0.3999999999
0.3999999999
0.3999999999
0.3999999998
0.3999999996
0.3999999987
0.3999999951
0.3999999806
0.3999999241
0.399999709
0.3999989175
0.3999961529
0.3999872667
0.399962451
0.3999999999
0.3999999999
0.3999999999
0.3999999998
0.3999999995
0.399999998
0.3999999917
0.3999999649
0.3999998507
0.3999993684
0.3999973683
0.3999893413
0.3999590589
0.3998581362
0.3999999999
0.3999999999
0.3999999999
0.3999999998
0.3999999993
0.3999999972
0.3999999877
0.399999944
0.3999997418
0.3999987944
0.3999943185
0.3999731422
0.3998746533
0.3994455418
0.3999999999
0.3999999999
0.3999999999
0.3999999998
0.3999999992
0.3999999968
0.3999999854
0.3999999312
0.3999996646
0.3999983074
0.3999910684
0.3999501954
0.3997034759
0.3981008629
0.3868229848
0.3999999999
0.3999999999
0.3999999999
0.3999999998
0.3999999993
0.3999999972
0.3999999877
0.399999944
0.3999997418
0.3999987945
0.3999943187
0.3999731432
0.3998746615
0.3994456098
0.397955415
0.3999999999
0.3999999999
0.3999999999
0.3999999998
0.3999999995
0.399999998
0.3999999917
0.3999999649
0.3999998507
0.3999993685
0.3999973684
0.3999893419
0.3999590627
0.399858157
0.3996067914
0.3999999999
0.3999999999
0.3999999999
0.3999999998
0.3999999996
0.3999999987
0.3999999951
0.3999999806
0.3999999241
0.399999709
0.3999989175
0.3999961532
0.3999872681
0.3999624568
0.3999092901
0.3999999999
0.3999999999
0.3999999999
0.3999999999
0.3999999997
0.3999999991
0.3999999967
0.3999999881
0.3999999568
0.399999848
0.3999994868
0.3999983622
0.3999951657
0.3999872306
0.3999712446
0.3999999999
0.3999999999
0.3999999999
0.3999999999
0.3999999997
0.3999999992
0.3999999971
0.3999999894
0.3999999621
0.3999998693
0.3999995684
0.3999986581
0.3999961534
0.3999901271
0.3999999999
0.3999999999
0.3999999999
0.3999999999
0.3999999997
0.3999999988
0.3999999956
0.3999999831
0.3999999354
0.3999997591
0.3999991351
0.39999706
0.3999907792
0.3999743768
0.3999999999
0.3999999999
0.3999999999
0.3999999998
0.3999999995
0.3999999982
0.3999999928
0.3999999702
0.3999998772
0.3999995014
0.3999980312
0.39999257
0.3999739497
0.3999192979
0.3999999999
0.3999999999
0.3999999999
0.3999999998
0.3999999994
0.3999999975
0.3999999895
0.3999999537
0.3999997953
0.3999990983
0.399996076
0.3999833752
0.3999332422
0.3997592526
0.3999999999
0.3999999999
0.3999999999
0.3999999998
0.3999999993
0.3999999972
0.3999999877
0.399999944
0.3999997418
0.3999987944
0.3999943184
0.3999731414
0.3998746502
0.399445532
0.3999999999
0.3999999999
0.3999999999
0.3999999998
0.3999999994
0.3999999975
0.3999999895
0.3999999537
0.3999997953
0.3999990983
0.3999960761
0.3999833756
0.399933244
0.3997592591
0.3999999999
0.3999999999
0.3999999999
0.3999999998
0.3999999995
0.3999999982
0.3999999928
0.3999999702
0.3999998772
0.3999995014
0.3999980313
0.3999925703
0.3999739513
0.3999193045
0.3997994
0.3999999999
0.3999999999
0.3999999999
0.3999999999
0.3999999997
0.3999999988
0.3999999956
0.3999999831
0.3999999354
0.3999997591
0.3999991351
0.3999970601
0.39999078
0.3999743797
0.399940806
0.3999999999
0.3999999999
0.3999999999
0.3999999999
0.3999999997
0.3999999992
0.3999999971
0.3999999894
0.3999999621
0.3999998693
0.3999995685
0.3999986582
0.3999961538
0.3999901284
0.3999781442
0.3999999999
0.3999999999
0.3999999999
0.3999999999
0.3999999998
0.3999999993
0.3999999977
0.3999999921
0.399999973
0.39999991
0.3999997145
0.3999991482
0.3999976559
0.399994186
0.3999999999
0.3999999999
0.3999999999
0.3999999999
0.3999999997
0.3999999991
0.3999999968
0.399999988
0.3999999563
0.3999998451
0.3999994738
0.3999983169
0.3999950463
0.3999870167
0.3999999999
0.3999999999
0.3999999999
0.3999999998
0.3999999996
0.3999999987
0.3999999949
0.39999998
0.399999922
0.399999703
0.3999989112
0.3999962236
0.3999879401
0.3999660101
0.3999999999
0.3999999999
0.3999999999
0.3999999998
0.3999999995
0.3999999982
0.3999999928
0.3999999702
0.3999998772
0.3999995014
0.3999980312
0.3999925699
0.3999739495
0.3999192977
0.3999999999
0.3999999999
0.3999999999
0.3999999998
0.3999999995
0.399999998
0.3999999917
0.3999999649
0.3999998507
0.3999993684
0.3999973682
0.3999893409
0.3999590577
0.3998581348
0.3999999999
0.3999999999
0.3999999999
0.3999999998
0.3999999995
0.3999999982
0.3999999928
0.3999999702
0.3999998772
0.3999995014
0.3999980312
0.39999257
0.3999739499
0.3999192991
0.3999999999
0.3999999999
0.3999999999
0.3999999998
0.3999999996
0.3999999987
0.3999999949
0.39999998
0.399999922
0.3999997031
0.3999989112
0.3999962237
0.3999879405
0.3999660107
0.3999999999
0.3999999999
0.3999999999
0.3999999999
0.3999999997
0.3999999991
0.3999999968
0.399999988
0.3999999563
0.3999998451
0.3999994738
0.399998317
0.3999950465
0.3999870176
0.3999709825
0.3999999999
0.3999999999
0.3999999999
0.3999999999
0.3999999998
0.3999999993
0.3999999977
0.3999999921
0.399999973
0.3999999101
0.3999997145
0.3999991483
0.3999976561
0.3999941866
0.3999873362
0.3999999999
0.3999999999
0.3999999999
0.3999999999
0.3999999998
0.3999999995
0.3999999984
0.3999999947
0.3999999826
0.3999999446
0.3999998319
0.3999995206
0.3999987337
0.3999969561
0.3999999999
0.3999999999
0.3999999999
0.3999999999
0.3999999998
0.3999999994
0.3999999978
0.3999999924
0.3999999737
0.3999999119
0.3999997181
0.3999991522
0.3999976482
0.3999941291
0.3999999999
0.3999999999
0.3999999999
0.3999999999
0.3999999997
0.3999999991
0.3999999968
0.399999988
0.3999999563
0.3999998451
0.3999994738
0.3999983169
0.3999950462
0.3999870167
0.3999999999
0.3999999999
0.3999999999
0.3999999999
0.3999999997
0.3999999988
0.3999999956
0.3999999831
0.3999999354
0.3999997591
0.3999991351
0.3999970599
0.399990779
0.3999743767
0.3999999999
0.3999999999
0.3999999999
0.3999999998
0.3999999996
0.3999999987
0.3999999951
0.3999999806
0.3999999241
0.399999709
0.3999989174
0.3999961528
0.3999872664
0.3999624509
0.3999999999
0.3999999999
0.3999999999
0.3999999999
0.3999999997
0.3999999988
0.3999999956
0.3999999831
0.3999999354
0.3999997591
0.3999991351
0.3999970599
0.3999907792
0.3999743771
0.3999999999
0.3999999999
0.3999999999
0.3999999999
0.3999999997
0.3999999991
0.3999999968
0.399999988
0.3999999563
0.3999998451
0.3999994738
0.3999983169
0.3999950463
0.3999870169
0.3999999999
0.3999999999
0.3999999999
0.3999999999
0.3999999998
0.3999999994
0.3999999978
0.3999999924
0.3999999737
0.3999999119
0.3999997181
0.3999991522
0.3999976483
0.3999941292
0.3999999999
0.3999999999
0.3999999999
0.3999999999
0.3999999998
0.3999999995
0.3999999984
0.3999999947
0.3999999826
0.3999999446
0.3999998319
0.3999995206
0.3999987337
0.3999969562
0.3999934555
0.3999999999
0.3999999999
0.3999999999
0.3999999999
0.3999999998
0.3999999996
0.3999999988
0.3999999961
0.3999999878
0.3999999626
0.3999998911
0.399999701
0.3999992366
0.3999982101
0.3999999999
0.3999999999
0.3999999999
0.3999999999
0.3999999998
0.3999999995
0.3999999984
0.3999999947
0.3999999826
0.3999999446
0.3999998319
0.3999995206
0.3999987337
0.3999969561
0.3999999999
0.3999999999
0.3999999999
0.3999999999
0.3999999998
0.3999999993
0.3999999977
0.3999999921
0.399999973
0.39999991
0.3999997145
0.3999991482
0.3999976559
0.399994186
0.3999999999
0.3999999999
0.3999999999
0.3999999999
0.3999999997
0.3999999992
0.3999999971
0.3999999894
0.3999999621
0.3999998693
0.3999995684
0.3999986581
0.3999961534
0.3999901271
0.3999999999
0.3999999999
0.3999999999
0.3999999999
0.3999999997
0.3999999991
0.3999999967
0.3999999881
0.3999999568
0.399999848
0.3999994868
0.399998362
0.399995165
0.3999872286
0.3999999999
0.3999999999
0.3999999999
0.3999999999
0.3999999997
0.3999999992
0.3999999971
0.3999999894
0.3999999621
0.3999998693
0.3999995684
0.3999986581
0.3999961534
0.3999901272
0.3999999999
0.3999999999
0.3999999999
0.3999999999
0.3999999998
0.3999999993
0.3999999977
0.3999999921
0.399999973
0.39999991
0.3999997145
0.3999991482
0.399997656
0.3999941861
0.3999999999
0.3999999999
0.3999999999
0.3999999999
0.3999999998
0.3999999995
0.3999999984
0.3999999947
0.3999999826
0.3999999446
0.3999998319
0.3999995206
0.3999987337
0.3999969561
0.3999999999
0.3999999999
0.3999999999
0.3999999999
0.3999999998
0.3999999996
0.3999999988
0.3999999961
0.3999999878
0.3999999626
0.3999998911
0.399999701
0.3999992366
0.3999982101
)
;

boundaryField
{
    top
    {
        type            zeroGradient;
    }
    bottom
    {
        type            zeroGradient;
    }
    side-walls
    {
        type            zeroGradient;
    }
    inlet
    {
        type            zeroGradient;
    }
    outlet
    {
        type            zeroGradient;
    }
    procBoundary0to1
    {
        type            processor;
        value           nonuniform List<scalar> 
97
(
0.3999926689
0.3999934555
0.399987532
0.3999761843
0.3999595553
0.3999476776
0.3999595558
0.399976185
0.3999875327
0.3999926694
0.3999934555
0.3999934555
0.3999759502
0.3999709822
0.3999468089
0.3998950135
0.3998461273
0.3998950155
0.399946811
0.3999759516
0.3999875326
0.399987336
0.3999709822
0.3999709822
0.3998607234
0.399799395
0.3996692532
0.3994184171
0.3996692623
0.39986073
0.3999468109
0.3999761849
0.3999781435
0.3999408041
0.399799395
0.399799395
0.3990128896
0.3979551984
0.397724819
0.399012922
0.3996692613
0.399895015
0.3999595555
0.3999712431
0.3999092841
0.3996067595
0.3979551984
0.3979551984
0.3921693702
0.3979552052
0.3977248185
0.3993143712
0.3994184153
0.3998461267
0.3999476773
0.3999781437
0.3999408057
0.3997994085
0.3993143799
0.3979552052
0.3993143712
0.3993143712
0.3996692536
0.3999209331
0.3998950125
0.3999595547
0.3999873364
0.3999709846
0.3999209374
0.3997994087
0.3996067602
0.3997994095
0.3999209331
0.3999209331
0.3999468089
0.3999871756
0.399976184
0.399993456
0.3999871765
0.3999709846
0.3999408058
0.3999092845
0.3999408063
0.3999709843
0.3999871756
0.3999871756
0.3999875321
0.3999961889
0.3999961892
0.399993456
0.3999873364
0.3999781437
0.3999712432
0.399978144
0.3999873364
0.3999934559
0.3999961889
)
;
    }
}


// ************************************************************************* //
