/*--------------------------------*- C++ -*----------------------------------*\
| =========                 |                                                 |
| \\      /  F ield         | OpenFOAM: The Open Source CFD Toolbox           |
|  \\    /   O peration     | Version:  4.x                                   |
|   \\  /    A nd           | Web:      www.OpenFOAM.org                      |
|    \\/     M anipulation  |                                                 |
\*---------------------------------------------------------------------------*/
FoamFile
{
    version     2.0;
    format      ascii;
    class       volScalarField;
    location    "2000";
    object      CO2;
}
// * * * * * * * * * * * * * * * * * * * * * * * * * * * * * * * * * * * * * //

dimensions      [0 0 0 0 0 0 0];

internalField   nonuniform List<scalar> 
1175
(
5.632149822e-10
5.644988009e-10
5.707135074e-10
5.947730293e-10
6.819226465e-10
9.865691558e-10
2.019466326e-09
5.407277603e-09
1.609546091e-08
4.827799616e-08
1.398509762e-07
3.830827007e-07
9.773488825e-07
2.290988649e-06
4.878249616e-06
5.641407459e-10
5.65683612e-10
5.73221108e-10
6.029754234e-10
7.134597594e-10
1.110969286e-09
2.50293632e-09
7.233207112e-09
2.273855999e-08
7.134892448e-08
2.154818231e-07
6.138058766e-07
1.620674676e-06
3.895213456e-06
8.375341695e-06
5.656007401e-10
5.675619352e-10
5.772681735e-10
6.164857428e-10
7.66401229e-10
1.324017389e-09
3.349898881e-09
1.051637044e-08
3.504415191e-08
1.155384424e-07
3.657455278e-07
1.090158236e-06
2.999282067e-06
7.43867253e-06
1.620518453e-05
5.669123692e-10
5.692688185e-10
5.810474034e-10
6.294625241e-10
8.185414409e-10
1.539438537e-09
4.232582588e-09
1.406109124e-08
4.888745327e-08
1.676474387e-07
5.52542804e-07
1.717072044e-06
4.921113171e-06
1.263038752e-05
2.796570586e-05
5.674355428e-10
5.699564992e-10
5.826060322e-10
6.349425988e-10
8.410451629e-10
1.63469713e-09
4.634614507e-09
1.573598573e-08
5.57328713e-08
1.948902734e-07
6.569485671e-07
2.09575863e-06
6.185208023e-06
1.633748778e-05
3.679283571e-05
5.669043012e-10
5.69260721e-10
5.810396776e-10
6.294557211e-10
8.185375131e-10
1.539443531e-09
4.232613427e-09
1.406118484e-08
4.888764183e-08
1.676474461e-07
5.525402537e-07
1.7170546e-06
4.921033074e-06
1.263010814e-05
2.796497185e-05
5.655839736e-10
5.675454701e-10
5.772525585e-10
6.164721317e-10
7.663923892e-10
1.32402127e-09
3.34993527e-09
1.051646722e-08
3.504425279e-08
1.155377438e-07
3.657393614e-07
1.090125872e-06
2.999151011e-06
7.43824793e-06
1.62041531e-05
5.64114326e-10
5.656586328e-10
5.731983672e-10
6.029559198e-10
7.134458331e-10
1.110966396e-09
2.502952968e-09
7.233229208e-09
2.273837797e-08
7.134727148e-08
2.15472802e-07
6.13766588e-07
1.620530374e-06
3.89477217e-06
8.374315812e-06
5.631737852e-10
5.644665218e-10
5.70687372e-10
5.947532767e-10
6.819113442e-10
9.865723134e-10
2.019493474e-09
5.407316289e-09
1.609530339e-08
4.827642323e-08
1.398424868e-07
3.830464743e-07
9.772165224e-07
2.290574373e-06
4.877223843e-06
5.641411036e-10
5.656839698e-10
5.732216615e-10
6.029766158e-10
7.134637381e-10
1.110984958e-09
2.502999223e-09
7.233455678e-09
2.273952285e-08
7.13525847e-08
2.154954708e-07
6.138563181e-07
1.620862633e-06
3.895947074e-06
5.651868845e-10
5.670694699e-10
5.763843546e-10
6.140314431e-10
7.58083567e-10
1.294925586e-09
3.25137739e-09
1.020276851e-08
3.413221553e-08
1.13222882e-07
3.610958081e-07
1.085117653e-06
3.009441597e-06
7.512373664e-06
1.641238718e-05
5.668384193e-10
5.692770419e-10
5.815442622e-10
6.325275753e-10
8.345209856e-10
1.618168805e-09
4.605803138e-09
1.576445487e-08
5.633784094e-08
1.986297678e-07
6.735835928e-07
2.153632805e-06
6.337737461e-06
1.661035749e-05
3.712820438e-05
5.683283263e-10
5.712994727e-10
5.864365454e-10
6.506688876e-10
9.118654685e-10
1.956563702e-09
6.081383957e-09
2.211676525e-08
8.315053505e-08
3.086396363e-07
1.106870467e-06
3.761336034e-06
1.179553401e-05
3.277716405e-05
7.573437426e-05
5.689248873e-10
5.721203231e-10
5.88481372e-10
6.584761229e-10
9.461110823e-10
2.11145621e-09
6.785435819e-09
2.531073095e-08
9.75467766e-08
3.726971999e-07
1.385243974e-06
4.921448047e-06
1.628772679e-05
4.802867152e-05
0.0001160515733
5.683204887e-10
5.712916989e-10
5.864291364e-10
6.506626207e-10
9.118625377e-10
1.95657128e-09
6.081419023e-09
2.211684895e-08
8.315053343e-08
3.086380705e-07
1.106857919e-06
3.761263869e-06
1.179519747e-05
3.277590117e-05
7.573090447e-05
5.668224733e-10
5.692614106e-10
5.815295473e-10
6.325151113e-10
8.345146012e-10
1.618179839e-09
4.605857517e-09
1.576457975e-08
5.633782613e-08
1.986274387e-07
6.73565833e-07
2.153535891e-06
6.337307156e-06
1.66088013e-05
3.712411461e-05
5.651623252e-10
5.670463367e-10
5.763634062e-10
6.140141499e-10
7.580732185e-10
1.294930422e-09
3.251410276e-09
1.020280336e-08
3.41318561e-08
1.132195578e-07
3.610764861e-07
1.085025663e-06
3.00906315e-06
7.511038594e-06
1.640867549e-05
5.641050919e-10
5.656562631e-10
5.731999513e-10
6.029612363e-10
7.134574734e-10
1.110994349e-09
2.503031271e-09
7.233465988e-09
2.273909371e-08
7.134933754e-08
2.154783736e-07
6.137801888e-07
1.620559028e-06
3.894821284e-06
8.374374545e-06
5.656014887e-10
5.67562804e-10
5.772695364e-10
6.164892798e-10
7.664137484e-10
1.324066827e-09
3.350099585e-09
1.051717649e-08
3.50473401e-08
1.155507434e-07
3.657916995e-07
1.090325942e-06
2.999866824e-06
7.440598643e-06
5.668388947e-10
5.692776149e-10
5.815452284e-10
6.325302768e-10
8.345310555e-10
1.618210264e-09
4.605975314e-09
1.576517249e-08
5.634082219e-08
1.986419323e-07
6.736325629e-07
2.153827806e-06
6.338515932e-06
1.661356828e-05
5.687989924e-10
5.720295543e-10
5.886172272e-10
6.598666993e-10
9.53959431e-10
2.150388365e-09
6.963258567e-09
2.605184148e-08
1.002503051e-07
3.803458337e-07
1.393346923e-06
4.831499792e-06
1.542834003e-05
4.348467005e-05
0.0001011700276
5.705774682e-10
5.745790405e-10
5.95449838e-10
6.873459535e-10
1.078622949e-09
2.729922887e-09
9.662713191e-09
3.856102645e-08
1.575902866e-07
6.383130856e-07
2.518877619e-06
9.504699117e-06
3.332241741e-05
0.0001032291649
0.0002566256314
5.712935095e-10
5.756242807e-10
5.983542993e-10
6.994448222e-10
1.135529278e-09
3.006276457e-09
1.102324243e-08
4.532516114e-08
1.91463754e-07
8.083621136e-07
3.366794191e-06
1.363407115e-05
5.236621049e-05
0.000181442555
0.0005030061762
5.705701747e-10
5.745717742e-10
5.954429273e-10
6.873400013e-10
1.078620347e-09
2.729928535e-09
9.662731392e-09
3.856097583e-08
1.575893253e-07
6.383051276e-07
2.518824891e-06
9.5043956e-06
3.332086611e-05
0.0001032224384
0.0002566044355
5.687841645e-10
5.720150683e-10
5.886038047e-10
6.598562286e-10
9.539577455e-10
2.150413265e-09
6.963351408e-09
2.60520195e-08
1.002499164e-07
3.803387654e-07
1.393293789e-06
4.831186741e-06
1.542676874e-05
4.347799147e-05
0.0001011485212
5.668162969e-10
5.692562706e-10
5.815262709e-10
6.325152436e-10
8.345238301e-10
1.618219863e-09
4.606009583e-09
1.576512998e-08
5.633974586e-08
1.98633806e-07
6.735854065e-07
2.153590147e-06
6.337433048e-06
1.660902173e-05
3.712430449e-05
5.655684298e-10
5.675379914e-10
5.772506507e-10
6.164771117e-10
7.664116213e-10
1.32408268e-09
3.35013636e-09
1.051713328e-08
3.504639896e-08
1.155443125e-07
3.657579475e-07
1.090173341e-06
2.999253355e-06
7.43841953e-06
1.620432384e-05
5.66913854e-10
5.69270439e-10
5.810500374e-10
6.294693505e-10
8.185657374e-10
1.539536469e-09
4.232985124e-09
1.406273457e-08
4.889404609e-08
1.676733304e-07
5.526412995e-07
1.717430288e-06
4.922336927e-06
1.263419235e-05
5.683294733e-10
5.713007764e-10
5.86438757e-10
6.506751018e-10
9.118889543e-10
1.956663173e-09
6.081814617e-09
2.211863549e-08
8.315863974e-08
3.086744371e-07
1.107017407e-06
3.761941634e-06
1.17979367e-05
3.278606543e-05
5.705782679e-10
5.745798353e-10
5.954511108e-10
6.873496632e-10
1.078638049e-09
2.729992156e-09
9.66304063e-09
3.856259586e-08
1.575978846e-07
6.383500185e-07
2.51905772e-06
9.505577827e-06
3.332669915e-05
0.0001032502217
5.726286042e-10
5.77645929e-10
6.042920785e-10
7.249611994e-10
1.25728615e-09
3.601292272e-09
1.39506691e-08
5.975235177e-08
2.623876778e-07
1.154003303e-06
5.019991584e-06
2.126623825e-05
8.539311495e-05
0.0003079484815
0.000877146099
5.734577026e-10
5.789137548e-10
6.08104337e-10
7.418543717e-10
1.341118816e-09
4.033089883e-09
1.623046197e-08
7.208652202e-08
3.308089253e-07
1.542619811e-06
7.267925977e-06
3.435425946e-05
0.0001603228747
0.0007091202272
0.002615267481
5.7262165e-10
5.776390724e-10
6.042856167e-10
7.249562112e-10
1.257285606e-09
3.601303288e-09
1.395069528e-08
5.975221857e-08
2.623855142e-07
1.153984184e-06
5.019850904e-06
2.126528493e-05
8.53871257e-05
0.0003079148795
0.000876997987
5.70564425e-10
5.745664155e-10
5.954388743e-10
6.873409173e-10
1.078640266e-09
2.730026849e-09
9.663153396e-09
3.856272501e-08
1.575964128e-07
6.383329936e-07
2.518928917e-06
9.504750783e-06
3.332191214e-05
0.0001032246873
0.0002566062383
5.683084068e-10
5.712811002e-10
5.864215392e-10
6.506622655e-10
9.118855045e-10
1.956680716e-09
6.081858366e-09
2.211853056e-08
8.315675327e-08
3.086601219e-07
1.106931031e-06
3.761483429e-06
1.17957561e-05
3.277694679e-05
7.57317569e-05
5.668827835e-10
5.692475994e-10
5.810332066e-10
6.294596351e-10
8.185672467e-10
1.539557733e-09
4.233023769e-09
1.406262369e-08
4.889251111e-08
1.676631176e-07
5.525870656e-07
1.717180533e-06
4.921321501e-06
1.263060955e-05
2.796545002e-05
5.674376598e-10
5.699588772e-10
5.82609746e-10
6.3495233e-10
8.410799271e-10
1.634837184e-09
4.635189179e-09
1.573833844e-08
5.574235095e-08
1.949276767e-07
6.570911897e-07
2.096278225e-06
6.186973892e-06
1.63428768e-05
5.689267713e-10
5.721225302e-10
5.884849247e-10
6.584857702e-10
9.461476743e-10
2.111612325e-09
6.786121841e-09
2.531376764e-08
9.756019167e-08
3.72756032e-07
1.385498071e-06
4.922516698e-06
1.629199089e-05
4.804409002e-05
5.712950061e-10
5.756259287e-10
5.983572347e-10
6.994537224e-10
1.135566408e-09
3.006447295e-09
1.102405608e-08
4.53291069e-08
1.914831688e-07
8.084586378e-07
3.367277157e-06
1.36364868e-05
5.237808791e-05
0.0001814976075
5.73458558e-10
5.789146837e-10
6.081061201e-10
7.418603167e-10
1.34114496e-09
4.033218259e-09
1.623111534e-08
7.208996212e-08
3.308276779e-07
1.542725625e-06
7.268550603e-06
3.435811421e-05
0.0001603479799
0.0007092925098
5.743352949e-10
5.802798991e-10
6.123385629e-10
7.611024522e-10
1.439113369e-09
4.554160086e-09
1.910079011e-08
8.853528059e-08
4.294818377e-07
2.165727527e-06
1.142578296e-05
6.370794222e-05
0.0003792861933
0.00242912555
0.01685390893
5.734521196e-10
5.789084386e-10
6.081003888e-10
7.418567437e-10
1.34114918e-09
4.033248528e-09
1.623121524e-08
7.209007295e-08
3.308258563e-07
1.542700943e-06
7.268316299e-06
3.43561079e-05
0.0001603311916
0.0007091510756
0.002615297898
5.712821096e-10
5.756134364e-10
5.983457794e-10
6.994454426e-10
1.135567403e-09
3.006474368e-09
1.102412856e-08
4.532901411e-08
1.914803038e-07
8.084319201e-07
3.367079099e-06
1.363516962e-05
5.236997365e-05
0.0001814522992
0.0005030140021
5.689069696e-10
5.721041024e-10
5.88468846e-10
6.584736082e-10
9.461431826e-10
2.111621232e-09
6.786121484e-09
2.531344722e-08
9.755724282e-08
3.727360876e-07
1.385381201e-06
4.92189326e-06
1.628896931e-05
4.803123207e-05
0.0001160534901
5.674081823e-10
5.699376152e-10
5.825944819e-10
6.349437454e-10
8.410810424e-10
1.634852041e-09
4.635196005e-09
1.573808189e-08
5.574014965e-08
1.949143933e-07
6.570233232e-07
2.095968701e-06
6.1857119e-06
1.633839427e-05
3.679361911e-05
5.669070601e-10
5.692639091e-10
5.81044418e-10
6.294671699e-10
8.18576898e-10
1.539597602e-09
4.233231695e-09
1.406365336e-08
4.889730243e-08
1.676841842e-07
5.52674596e-07
1.717519612e-06
4.922521455e-06
1.263436435e-05
5.683230757e-10
5.712946593e-10
5.864337866e-10
6.506746673e-10
9.119070424e-10
1.956756157e-09
6.082208949e-09
2.212022902e-08
8.316486514e-08
3.086977551e-07
1.107099713e-06
3.762199796e-06
1.179857057e-05
3.278669573e-05
5.705723097e-10
5.745743485e-10
5.954472387e-10
6.873526944e-10
1.078671233e-09
2.730156124e-09
9.663774699e-09
3.856581063e-08
1.576118001e-07
6.384089927e-07
2.519298864e-06
9.50649147e-06
3.332962307e-05
0.0001032552178
5.72623259e-10
5.776409888e-10
6.042890007e-10
7.249668914e-10
1.257331068e-09
3.601518713e-09
1.395175108e-08
5.97575015e-08
2.624124428e-07
1.154122972e-06
5.020571478e-06
2.126902107e-05
8.540602144e-05
0.0003080036821
5.734529322e-10
5.789093639e-10
6.081021372e-10
7.418624199e-10
1.34117445e-09
4.033371583e-09
1.623184509e-08
7.20933822e-08
3.308437873e-07
1.542802163e-06
7.268912189e-06
3.435980117e-05
0.0001603552421
0.0007093162774
5.726172594e-10
5.77635092e-10
6.042835734e-10
7.249629474e-10
1.257332049e-09
3.601534099e-09
1.395179408e-08
5.975745344e-08
2.624107659e-07
1.154107444e-06
5.020457248e-06
2.126829021e-05
8.540201276e-05
0.0003079881464
5.705602581e-10
5.74562525e-10
5.954363615e-10
6.873439827e-10
1.078667552e-09
2.730161786e-09
9.663768649e-09
3.856548877e-08
1.576087925e-07
6.383879836e-07
2.519170107e-06
9.505785211e-06
3.332611832e-05
0.0001032400439
0.0002566559126
5.68304542e-10
5.712774384e-10
5.864187969e-10
6.506631264e-10
9.119010224e-10
1.956756057e-09
6.08218027e-09
2.211986488e-08
8.316220358e-08
3.086819e-07
1.107015582e-06
3.761796953e-06
1.179683564e-05
3.278019014e-05
7.573924454e-05
5.668790287e-10
5.692439924e-10
5.810304441e-10
6.294593554e-10
8.185767673e-10
1.539604951e-09
4.233214399e-09
1.406335634e-08
4.889523545e-08
1.676729221e-07
5.52620859e-07
1.717290328e-06
4.921645278e-06
1.263142812e-05
2.796699745e-05
5.655872964e-10
5.675490898e-10
5.772575567e-10
6.164831036e-10
7.664279932e-10
1.324154773e-09
3.350451809e-09
1.05184523e-08
3.505169594e-08
1.155647438e-07
3.65832919e-07
1.090431537e-06
3.000072359e-06
7.440741114e-06
5.668256321e-10
5.692648431e-10
5.815345492e-10
6.325271238e-10
8.345558694e-10
1.618343374e-09
4.606525553e-09
1.57673009e-08
5.634872754e-08
1.986700303e-07
6.737258694e-07
2.154105754e-06
6.339178056e-06
1.661426589e-05
5.687869114e-10
5.720181589e-10
5.886085934e-10
6.598691153e-10
9.540059811e-10
2.150616891e-09
6.964240154e-09
2.605590363e-08
1.002667549e-07
3.80410457e-07
1.393590363e-06
4.832357072e-06
1.543105529e-05
4.349188772e-05
5.705665336e-10
5.745688309e-10
5.954428631e-10
6.873522404e-10
1.078685641e-09
2.730230938e-09
9.66409818e-09
3.85671474e-08
1.576171115e-07
6.384293871e-07
2.519371346e-06
9.506718687e-06
3.333015843e-05
0.000103255585
5.712834977e-10
5.756150696e-10
5.983486055e-10
6.994541042e-10
1.135603441e-09
3.006639749e-09
1.102490972e-08
4.533276728e-08
1.91498625e-07
8.085221405e-07
3.367526374e-06
1.363738221e-05
5.238069616e-05
0.0001815009455
5.705609009e-10
5.745632943e-10
5.954376359e-10
6.873477894e-10
1.078683434e-09
2.730232829e-09
9.664094421e-09
3.856701556e-08
1.576159297e-07
6.384213007e-07
2.519324009e-06
9.506479926e-06
3.332913724e-05
0.000103252325
5.687756001e-10
5.720071899e-10
5.88598295e-10
6.598598635e-10
9.539983904e-10
2.150607036e-09
6.964187903e-09
2.605553638e-08
1.00264494e-07
3.803982084e-07
1.393530406e-06
4.832099837e-06
1.543015921e-05
4.349021448e-05
5.668083875e-10
5.692489252e-10
5.815207489e-10
6.32516126e-10
8.345489309e-10
1.618338915e-09
4.606495171e-09
1.576703552e-08
5.634705145e-08
1.986611033e-07
6.736841756e-07
2.153931703e-06
6.338541282e-06
1.661226213e-05
3.713259963e-05
5.655610946e-10
5.675309873e-10
5.772451885e-10
6.16476452e-10
7.664275455e-10
1.324158919e-09
3.350434556e-09
1.051823397e-08
3.505032758e-08
1.155578542e-07
3.658026071e-07
1.090312226e-06
2.999651049e-06
7.439417292e-06
1.620627049e-05
5.641179344e-10
5.656623246e-10
5.732034445e-10
6.029662386e-10
7.134766337e-10
1.111075227e-09
2.503352744e-09
7.234687407e-09
2.274356023e-08
7.136501842e-08
2.155307582e-07
6.139447488e-07
1.621037178e-06
3.896079785e-06
5.651657232e-10
5.670499997e-10
5.76368481e-10
6.140251056e-10
7.581080603e-10
1.29505975e-09
3.251908706e-09
1.02047153e-08
3.413903429e-08
1.13245661e-07
3.611673619e-07
1.085324035e-06
3.009966543e-06
7.513495351e-06
5.668192132e-10
5.692596043e-10
5.815310782e-10
6.325266874e-10
8.345634436e-10
1.618377056e-09
4.606651684e-09
1.576774644e-08
5.635023419e-08
1.986747839e-07
6.737395363e-07
2.154138745e-06
6.339236627e-06
1.661428929e-05
5.683109233e-10
5.712838045e-10
5.864257694e-10
6.506732828e-10
9.119263917e-10
1.956850259e-09
6.082584045e-09
2.21216395e-08
8.316995681e-08
3.087151347e-07
1.107153892e-06
3.762345492e-06
1.179886014e-05
3.278686577e-05
5.689088778e-10
5.721061372e-10
5.884722436e-10
6.584827718e-10
9.461776969e-10
2.111767928e-09
6.786762682e-09
2.531626323e-08
9.756956552e-08
3.727896262e-07
1.385610068e-06
4.922842447e-06
1.629270239e-05
4.804449556e-05
5.683057048e-10
5.712787179e-10
5.864207412e-10
6.506685934e-10
9.119219973e-10
1.956843838e-09
6.082557884e-09
2.212148601e-08
8.316909261e-08
3.087107195e-07
1.107133474e-06
3.762260583e-06
1.179855184e-05
3.278596421e-05
5.668088698e-10
5.69249412e-10
5.815214692e-10
6.325180847e-10
8.345560327e-10
1.618367895e-09
4.606616395e-09
1.576754004e-08
5.634911651e-08
1.986694434e-07
6.737166356e-07
2.154054125e-06
6.338984846e-06
1.661382062e-05
5.651499758e-10
5.670355117e-10
5.763558569e-10
6.14014777e-10
7.580995394e-10
1.295048104e-09
3.251863283e-09
1.020447969e-08
3.413789566e-08
1.132407e-07
3.61148052e-07
1.085258433e-06
3.009792707e-06
7.513305797e-06
5.640940215e-10
5.656466886e-10
5.731933589e-10
6.029613483e-10
7.134766895e-10
1.11107727e-09
2.50333597e-09
7.234534521e-09
2.274273204e-08
7.136131067e-08
2.155162286e-07
6.138943986e-07
1.620883174e-06
3.895660612e-06
8.3762706e-06
5.631775362e-10
5.644704543e-10
5.706923745e-10
5.947627981e-10
6.819381007e-10
9.866624679e-10
2.019811449e-09
5.408428793e-09
1.609908939e-08
4.82888154e-08
1.398810833e-07
3.831595413e-07
9.775242573e-07
2.291342749e-06
5.641085794e-10
5.656599986e-10
5.732049109e-10
6.029713989e-10
7.134874815e-10
1.111100145e-09
2.503420309e-09
7.23488557e-09
2.274413724e-08
7.136661272e-08
2.155348175e-07
6.139536653e-07
1.621052477e-06
3.89609476e-06
5.655716148e-10
5.675414187e-10
5.772554914e-10
6.164878722e-10
7.664460794e-10
1.324211144e-09
3.350632503e-09
1.051903315e-08
3.505350529e-08
1.155700224e-07
3.658469149e-07
1.090463139e-06
3.000126443e-06
7.440782923e-06
5.668855136e-10
5.69250581e-10
5.810375316e-10
6.294697959e-10
8.18602239e-10
1.539695008e-09
4.233575598e-09
1.406482853e-08
4.890114788e-08
1.676960013e-07
5.5270742e-07
1.717597209e-06
4.922655025e-06
1.26344304e-05
5.674103095e-10
5.699399303e-10
5.825979895e-10
6.349524724e-10
8.411119734e-10
1.634975872e-09
4.635703025e-09
1.574014844e-08
5.57484523e-08
1.949469434e-07
6.571466658e-07
2.096414521e-06
6.187214362e-06
1.634295799e-05
5.66880538e-10
5.692456703e-10
5.810328469e-10
6.294654701e-10
8.185985356e-10
1.53969162e-09
4.233565411e-09
1.406476493e-08
4.890078245e-08
1.676941833e-07
5.52699552e-07
1.717567119e-06
4.922554125e-06
1.263414492e-05
5.65561838e-10
5.675318289e-10
5.772464712e-10
6.164796727e-10
7.664388326e-10
1.324202946e-09
3.350608097e-09
1.051891e-08
3.505290744e-08
1.155674323e-07
3.658368551e-07
1.090429394e-06
3.000031233e-06
7.440575688e-06
5.640943283e-10
5.656469711e-10
5.731937662e-10
6.029624545e-10
7.134804108e-10
1.111091497e-09
2.503390339e-09
7.234741035e-09
2.274349595e-08
7.136407119e-08
2.155258813e-07
6.139268549e-07
1.620990273e-06
3.896018995e-06
5.631576423e-10
5.644588406e-10
5.706863486e-10
5.947617656e-10
6.819416791e-10
9.866683554e-10
2.019805139e-09
5.408338086e-09
1.609861389e-08
4.828685617e-08
1.398742628e-07
3.831397835e-07
9.774824185e-07
2.291328402e-06
)
;

boundaryField
{
    top
    {
        type            zeroGradient;
    }
    bottom
    {
        type            zeroGradient;
    }
    side-walls
    {
        type            zeroGradient;
    }
    inlet
    {
        type            zeroGradient;
    }
    outlet
    {
        type            zeroGradient;
    }
    procBoundary0to1
    {
        type            processor;
        value           nonuniform List<scalar> 
97
(
9.383112683e-06
8.376280975e-06
1.595656316e-05
3.047693274e-05
5.175375434e-05
6.695005464e-05
5.175285376e-05
3.047568307e-05
1.595543244e-05
9.382308182e-06
8.376280975e-06
8.376280975e-06
3.077670964e-05
3.713310601e-05
6.806365408e-05
0.0001343319037
0.0001968726385
0.0001343282093
6.805971527e-05
3.077428966e-05
1.595553982e-05
1.620662585e-05
3.713310601e-05
3.713310601e-05
0.0001782068942
0.0002566657907
0.0004231665391
0.0007440475789
0.0004231494233
0.0001781946464
6.805996859e-05
3.047594867e-05
2.796848124e-05
7.574313264e-05
0.0002566657907
0.0002566657907
0.001262861619
0.002615816614
0.002910568632
0.001262801014
0.0004231513246
0.0001343292465
5.175355264e-05
3.679703149e-05
0.0001160669025
0.0005030881794
0.002615816614
0.002615816614
0.01001704434
0.00261580288
0.002910570647
0.0008771439913
0.0007440521489
0.0001968743339
6.695104398e-05
2.796818179e-05
7.574024044e-05
0.0002566390542
0.0008771256496
0.00261580288
0.0008771439913
0.0008771439913
0.0004231662035
0.0001011696969
0.0001343344332
5.17551007e-05
1.62059347e-05
3.712842415e-05
0.0001011608551
0.0002566391045
0.0005030874172
0.0002566376242
0.0001011696969
0.0001011696969
6.806369484e-05
1.641232672e-05
3.047769151e-05
8.375217289e-06
1.641047316e-05
3.712842706e-05
7.574034055e-05
0.0001160665235
7.573917228e-05
3.712905459e-05
1.641232672e-05
1.641232672e-05
1.595658595e-05
4.878261886e-06
4.877731486e-06
8.375248457e-06
1.620599366e-05
2.796822992e-05
3.679692489e-05
2.796776798e-05
1.620586018e-05
8.375482851e-06
4.878261886e-06
)
;
    }
}


// ************************************************************************* //
