/*--------------------------------*- C++ -*----------------------------------*\
| =========                 |                                                 |
| \\      /  F ield         | OpenFOAM: The Open Source CFD Toolbox           |
|  \\    /   O peration     | Version:  4.x                                   |
|   \\  /    A nd           | Web:      www.OpenFOAM.org                      |
|    \\/     M anipulation  |                                                 |
\*---------------------------------------------------------------------------*/
FoamFile
{
    version     2.0;
    format      ascii;
    class       volScalarField;
    location    "2000";
    object      Cpv;
}
// * * * * * * * * * * * * * * * * * * * * * * * * * * * * * * * * * * * * * //

dimensions      [0 2 -2 -1 0 0 0];

internalField   nonuniform List<scalar> 
1175
(
1210.459692
1210.459701
1210.459689
1210.459692
1210.459693
1210.459701
1210.459722
1210.459742
1210.459735
1210.45975
1210.45976
1210.459778
1210.459808
1210.459899
1210.460054
1210.460162
1210.460149
1210.460171
1210.460149
1210.460154
1210.460129
1210.460134
1210.460125
1210.460127
1210.46013
1210.460133
1210.460181
1210.460258
1210.460431
1210.46071
1210.460144
1210.460145
1210.46016
1210.460153
1210.46016
1210.460155
1210.460181
1210.460165
1210.46017
1210.460188
1210.460211
1210.46027
1210.4604
1210.460666
1210.461214
1210.459658
1210.459646
1210.459647
1210.459643
1210.459633
1210.459641
1210.459646
1210.459685
1210.459699
1210.459707
1210.459713
1210.459781
1210.459984
1210.460469
1210.461414
1210.459625
1210.459639
1210.459656
1210.459673
1210.459665
1210.459672
1210.459667
1210.459664
1210.459672
1210.459684
1210.459696
1210.459792
1210.460053
1210.460707
1210.462005
1210.459649
1210.459663
1210.459685
1210.459663
1210.459669
1210.459681
1210.459677
1210.459675
1210.459668
1210.459667
1210.459659
1210.459736
1210.459954
1210.460454
1210.461421
1210.460129
1210.460129
1210.460112
1210.460106
1210.460108
1210.460113
1210.460114
1210.460091
1210.460092
1210.460097
1210.46007
1210.460101
1210.460226
1210.460483
1210.461055
1210.459557
1210.459553
1210.459552
1210.459578
1210.459563
1210.459552
1210.459546
1210.459566
1210.459554
1210.459575
1210.459586
1210.459608
1210.459656
1210.45981
1210.460082
1210.459593
1210.459579
1210.459584
1210.459592
1210.459606
1210.459616
1210.459623
1210.459617
1210.459634
1210.459628
1210.459649
1210.459659
1210.459695
1210.45978
1210.459944
1210.460061
1210.460073
1210.460079
1210.460081
1210.460086
1210.460085
1210.46007
1210.46007
1210.460085
1210.460077
1210.460087
1210.460109
1210.460159
1210.460303
1210.459338
1210.459342
1210.459346
1210.45935
1210.459338
1210.459328
1210.459346
1210.459367
1210.459357
1210.459385
1210.459406
1210.459454
1210.459572
1210.459881
1210.460426
1210.459723
1210.459724
1210.45972
1210.459717
1210.45972
1210.459728
1210.459717
1210.4597
1210.459707
1210.45971
1210.459712
1210.45978
1210.460047
1210.460706
1210.461989
1210.459633
1210.459606
1210.459616
1210.459648
1210.459646
1210.459636
1210.459646
1210.459631
1210.459636
1210.459635
1210.459679
1210.459849
1210.460367
1210.461707
1210.464429
1210.460267
1210.460277
1210.460305
1210.460288
1210.4603
1210.460297
1210.460298
1210.460316
1210.460323
1210.460341
1210.460402
1210.460634
1210.461339
1210.463334
1210.467657
1210.459596
1210.459619
1210.459625
1210.45965
1210.459631
1210.459648
1210.459665
1210.45969
1210.459697
1210.4597
1210.459735
1210.459885
1210.460406
1210.461716
1210.464411
1210.459819
1210.459798
1210.459782
1210.459752
1210.459753
1210.459734
1210.459733
1210.459733
1210.45975
1210.459745
1210.459789
1210.459901
1210.46016
1210.460783
1210.462059
1210.459776
1210.459798
1210.45981
1210.459821
1210.459829
1210.459843
1210.459841
1210.459843
1210.459862
1210.459841
1210.459865
1210.459933
1210.460024
1210.460313
1210.460876
1210.459943
1210.459908
1210.459926
1210.459945
1210.459923
1210.459929
1210.45991
1210.459921
1210.459923
1210.459915
1210.459925
1210.45995
1210.460002
1210.460135
1210.460396
1210.459791
1210.459798
1210.459797
1210.459798
1210.459795
1210.459777
1210.459788
1210.459791
1210.459793
1210.459804
1210.459796
1210.459839
1210.459943
1210.460213
1210.460189
1210.460188
1210.460195
1210.460183
1210.460167
1210.460165
1210.460184
1210.46018
1210.460164
1210.46018
1210.460211
1210.46033
1210.460572
1210.461204
1210.459426
1210.459423
1210.459428
1210.459413
1210.459391
1210.459382
1210.459416
1210.459424
1210.459433
1210.459483
1210.45954
1210.45975
1210.460419
1210.462219
1210.465873
1210.460244
1210.460268
1210.460253
1210.460242
1210.460236
1210.460263
1210.460248
1210.460245
1210.46024
1210.460266
1210.460374
1210.460845
1210.462352
1210.466777
1210.476486
1210.459897
1210.459862
1210.459853
1210.459866
1210.459877
1210.459862
1210.459868
1210.459846
1210.459862
1210.459919
1210.46007
1210.460676
1210.463162
1210.471323
1210.491664
1210.459473
1210.459474
1210.4595
1210.459495
1210.459499
1210.459493
1210.459466
1210.459497
1210.459545
1210.459585
1210.459723
1210.460178
1210.461681
1210.466114
1210.475789
1210.460067
1210.460071
1210.460057
1210.46009
1210.460131
1210.460129
1210.460134
1210.460108
1210.460087
1210.46011
1210.460163
1210.460395
1210.461054
1210.462837
1210.466478
1210.45977
1210.459763
1210.459757
1210.459738
1210.459773
1210.459773
1210.459771
1210.459764
1210.459735
1210.459753
1210.459804
1210.459872
1210.460146
1210.460784
1210.462088
1210.459676
1210.459685
1210.459706
1210.459715
1210.459709
1210.459718
1210.459701
1210.459675
1210.45971
1210.459712
1210.459716
1210.459754
1210.459873
1210.460159
1210.460716
1210.459679
1210.459664
1210.459668
1210.459647
1210.459667
1210.459667
1210.459668
1210.459681
1210.459731
1210.459736
1210.459748
1210.45983
1210.460032
1210.460543
1210.459924
1210.459947
1210.459919
1210.459931
1210.459919
1210.459933
1210.45996
1210.459944
1210.459921
1210.45991
1210.459978
1210.460156
1210.460663
1210.46198
1210.459542
1210.45955
1210.459541
1210.459563
1210.459587
1210.459561
1210.459549
1210.459557
1210.459595
1210.459627
1210.459748
1210.46017
1210.461675
1210.466109
1210.460061
1210.460079
1210.460109
1210.460134
1210.460144
1210.460116
1210.460122
1210.460112
1210.46014
1210.460191
1210.460443
1210.461477
1210.465522
1210.479603
1210.515604
1210.459453
1210.459451
1210.459482
1210.459476
1210.459422
1210.459427
1210.459432
1210.459433
1210.459462
1210.45953
1210.459901
1210.461619
1210.469589
1210.504317
1210.622471
1210.459438
1210.459445
1210.45941
1210.459402
1210.4594
1210.459404
1210.459413
1210.459406
1210.459422
1210.459505
1210.459716
1210.460748
1210.464812
1210.478912
1210.514911
1210.4603
1210.460305
1210.4603
1210.46031
1210.460305
1210.460304
1210.460285
1210.46027
1210.460329
1210.460372
1210.460491
1210.460926
1210.462439
1210.466864
1210.476589
1210.460193
1210.460206
1210.460209
1210.46019
1210.460202
1210.460208
1210.460206
1210.460177
1210.460194
1210.460192
1210.460237
1210.460382
1210.460894
1210.462202
1210.464921
1210.45995
1210.459941
1210.459948
1210.459934
1210.459934
1210.459952
1210.459957
1210.459985
1210.46
1210.459983
1210.460011
1210.460088
1210.460298
1210.460777
1210.461727
1210.459865
1210.459866
1210.459893
1210.459863
1210.459878
1210.459875
1210.459872
1210.459862
1210.459867
1210.459843
1210.459879
1210.459959
1210.460221
1210.460874
1210.459834
1210.459822
1210.459814
1210.459814
1210.459791
1210.459767
1210.459758
1210.459765
1210.459769
1210.459802
1210.459868
1210.46009
1210.460828
1210.462849
1210.459655
1210.459659
1210.459665
1210.459685
1210.459667
1210.459675
1210.459687
1210.459709
1210.459712
1210.459749
1210.459898
1210.460566
1210.463027
1210.471179
1210.459465
1210.459467
1210.459477
1210.459457
1210.459443
1210.459429
1210.459459
1210.45945
1210.459489
1210.459567
1210.459908
1210.461641
1210.469583
1210.504308
1210.459574
1210.45957
1210.459579
1210.459566
1210.459585
1210.459581
1210.459574
1210.459579
1210.459598
1210.45972
1210.460341
1210.463647
1210.483618
1210.613297
1209.808963
1210.459782
1210.459787
1210.459788
1210.459776
1210.459772
1210.459781
1210.459788
1210.459781
1210.459789
1210.459865
1210.460225
1210.461946
1210.469921
1210.504663
1210.622829
1210.45983
1210.459843
1210.459851
1210.459821
1210.459857
1210.45983
1210.459836
1210.459866
1210.459883
1210.459919
1210.460097
1210.460738
1210.463191
1210.471369
1210.491715
1210.4595
1210.459488
1210.459517
1210.459538
1210.459535
1210.459542
1210.459574
1210.459556
1210.459548
1210.459573
1210.459627
1210.459866
1210.460558
1210.462561
1210.46688
1210.459733
1210.459731
1210.459723
1210.459722
1210.459733
1210.459755
1210.459745
1210.459734
1210.459731
1210.459769
1210.459769
1210.459884
1210.460145
1210.460805
1210.462056
1210.460007
1210.46
1210.459978
1210.459981
1210.459979
1210.46
1210.459984
1210.459983
1210.459958
1210.45998
1210.459998
1210.460091
1210.460281
1210.460779
1210.45967
1210.459659
1210.459662
1210.459674
1210.459671
1210.459687
1210.459693
1210.459693
1210.459709
1210.459738
1210.459764
1210.459938
1210.460442
1210.461783
1210.459957
1210.459955
1210.459951
1210.459951
1210.459956
1210.459941
1210.459962
1210.459981
1210.459976
1210.459989
1210.460077
1210.46053
1210.462046
1210.466476
1210.459506
1210.459525
1210.459514
1210.459513
1210.459505
1210.459493
1210.459471
1210.459485
1210.459486
1210.45951
1210.459777
1210.460805
1210.46486
1210.478953
1210.459716
1210.459698
1210.459708
1210.459721
1210.459727
1210.459744
1210.459716
1210.459705
1210.459751
1210.45981
1210.460158
1210.461862
1210.469837
1210.504564
1210.459522
1210.459525
1210.459532
1210.459533
1210.4595
1210.459527
1210.459551
1210.459559
1210.459563
1210.459612
1210.459861
1210.460893
1210.46497
1210.479051
1210.459592
1210.459579
1210.459571
1210.459591
1210.459596
1210.459595
1210.459597
1210.459601
1210.459615
1210.459652
1210.459797
1210.460257
1210.461737
1210.466164
1210.475856
1210.459735
1210.45974
1210.45972
1210.459706
1210.459693
1210.459696
1210.459712
1210.459711
1210.459721
1210.459732
1210.459782
1210.459975
1210.460502
1210.461824
1210.464547
1210.459723
1210.459722
1210.459707
1210.459686
1210.459691
1210.459729
1210.459721
1210.459721
1210.459721
1210.459721
1210.459766
1210.459849
1210.460034
1210.460519
1210.461484
1210.45972
1210.459725
1210.459728
1210.459735
1210.459732
1210.459736
1210.459732
1210.459732
1210.459708
1210.459727
1210.459727
1210.459767
1210.459876
1210.460161
1210.459554
1210.459542
1210.459549
1210.459546
1210.459553
1210.459553
1210.459572
1210.459591
1210.459591
1210.459591
1210.459639
1210.459728
1210.459962
1210.460618
1210.460239
1210.460258
1210.460246
1210.460252
1210.460279
1210.460298
1210.460333
1210.460327
1210.460331
1210.460355
1210.460414
1210.460645
1210.461314
1210.463086
1210.45951
1210.459507
1210.45949
1210.459507
1210.459504
1210.45949
1210.459486
1210.459478
1210.459499
1210.459522
1210.459657
1210.460118
1210.461626
1210.466059
1210.460028
1210.460006
1210.460018
1210.460025
1210.460029
1210.460016
1210.460034
1210.460051
1210.460048
1210.460088
1210.460266
1210.460911
1210.463336
1210.471492
1210.45957
1210.459556
1210.45954
1210.459516
1210.459544
1210.45955
1210.459541
1210.459518
1210.459527
1210.459577
1210.459703
1210.460121
1210.461617
1210.466027
1210.459467
1210.45947
1210.459442
1210.45946
1210.459463
1210.459469
1210.459466
1210.459456
1210.459479
1210.459494
1210.459567
1210.459787
1210.460472
1210.462248
1210.460252
1210.460224
1210.46023
1210.460238
1210.460257
1210.460265
1210.460278
1210.460283
1210.46029
1210.460303
1210.46033
1210.460435
1210.460732
1210.461376
1210.46269
1210.459602
1210.459587
1210.459607
1210.459622
1210.459633
1210.459667
1210.459659
1210.459682
1210.459697
1210.45969
1210.459728
1210.459755
1210.459873
1210.460128
1210.460696
1210.459966
1210.459986
1210.459973
1210.45995
1210.459961
1210.459939
1210.459947
1210.459939
1210.459955
1210.459959
1210.459977
1210.460002
1210.460084
1210.460232
1210.45998
1210.459973
1210.459976
1210.459964
1210.459934
1210.459939
1210.459951
1210.459976
1210.459975
1210.459977
1210.459992
1210.460026
1210.460146
1210.460402
1210.459409
1210.459407
1210.4594
1210.459425
1210.459414
1210.459377
1210.459383
1210.459386
1210.459375
1210.459407
1210.459435
1210.459528
1210.459786
1210.460433
1210.460232
1210.460238
1210.460217
1210.460192
1210.460151
1210.460148
1210.460165
1210.460153
1210.460159
1210.460178
1210.460213
1210.4604
1210.460894
1210.462216
1210.459444
1210.459436
1210.459419
1210.459432
1210.459458
1210.459449
1210.459492
1210.459494
1210.459483
1210.459517
1210.45958
1210.459797
1210.460483
1210.462493
1210.459677
1210.45969
1210.459698
1210.459706
1210.459706
1210.459732
1210.459717
1210.459708
1210.459702
1210.459714
1210.459739
1210.459892
1210.460413
1210.461746
1210.45948
1210.459471
1210.459487
1210.45948
1210.459504
1210.459498
1210.459517
1210.459521
1210.459529
1210.459528
1210.459578
1210.459666
1210.4599
1210.460557
1210.458901
1210.458922
1210.45894
1210.458937
1210.458939
1210.45894
1210.458941
1210.458926
1210.458911
1210.458914
1210.458937
1210.459016
1210.459128
1210.459409
1210.459812
1210.459809
1210.459805
1210.459802
1210.459794
1210.459801
1210.459794
1210.459793
1210.45977
1210.459766
1210.459786
1210.45982
1210.459883
1210.460017
1210.460302
1210.459674
1210.45969
1210.459711
1210.459707
1210.459692
1210.459686
1210.459682
1210.45969
1210.459691
1210.45969
1210.459694
1210.459717
1210.459754
1210.459852
1210.459998
1210.46
1210.460011
1210.459991
1210.45998
1210.459967
1210.459967
1210.459943
1210.459935
1210.459932
1210.459927
1210.459949
1210.460022
1210.460167
1210.460055
1210.460061
1210.460039
1210.460029
1210.460043
1210.460039
1210.460034
1210.460039
1210.460037
1210.460033
1210.460019
1210.460065
1210.460194
1210.460439
1210.459641
1210.459624
1210.459639
1210.459645
1210.459621
1210.459628
1210.459627
1210.459629
1210.459623
1210.459614
1210.459638
1210.459687
1210.459914
1210.460403
1210.459554
1210.45956
1210.459536
1210.459551
1210.459575
1210.459587
1210.459576
1210.459576
1210.459576
1210.459595
1210.459647
1210.459749
1210.460017
1210.460648
1210.46
1210.459989
1210.459988
1210.460006
1210.460003
1210.45999
1210.459993
1210.459996
1210.459999
1210.459996
1210.460011
1210.460068
1210.460267
1210.460732
1210.460074
1210.460067
1210.460068
1210.460063
1210.460067
1210.460083
1210.460086
1210.460117
1210.460117
1210.46011
1210.460114
1210.460159
1210.460278
1210.460576
1210.459924
1210.459904
1210.45991
1210.459892
1210.459905
1210.459907
1210.459899
1210.459869
1210.459886
1210.459899
1210.459885
1210.45993
1210.460001
1210.460149
1210.459863
1210.459859
1210.459848
1210.459859
1210.459845
1210.459835
1210.459834
1210.459851
1210.459823
1210.459821
1210.459832
1210.459854
1210.459907
1210.459983
)
;

boundaryField
{
    top
    {
        type            calculated;
        value           nonuniform List<scalar> 
134
(
1210.459593
1210.459943
1210.459676
1210.45995
1210.459733
1210.459723
1210.459602
1210.459812
1210.459863
1210.459579
1210.459908
1210.459685
1210.459941
1210.459731
1210.459722
1210.459587
1210.459809
1210.459859
1210.459584
1210.459926
1210.459706
1210.459948
1210.459723
1210.459707
1210.459607
1210.459805
1210.459848
1210.459592
1210.459945
1210.459715
1210.459934
1210.459722
1210.459686
1210.459622
1210.459802
1210.459859
1210.459606
1210.459923
1210.459709
1210.459934
1210.459733
1210.459691
1210.459633
1210.459794
1210.459845
1210.459616
1210.459929
1210.459718
1210.459952
1210.459755
1210.459729
1210.459667
1210.459801
1210.459835
1210.459623
1210.45991
1210.459701
1210.459957
1210.459745
1210.459721
1210.459659
1210.459794
1210.459834
1210.459617
1210.459921
1210.459675
1210.459985
1210.459734
1210.459721
1210.459682
1210.459793
1210.459851
1210.459634
1210.459923
1210.45971
1210.46
1210.459731
1210.459721
1210.459697
1210.45977
1210.459823
1210.459628
1210.459915
1210.459712
1210.459983
1210.459769
1210.459721
1210.45969
1210.459766
1210.459821
1210.459649
1210.459925
1210.459716
1210.460011
1210.459769
1210.459766
1210.459728
1210.459786
1210.459832
1210.459659
1210.45995
1210.459754
1210.460088
1210.459884
1210.459849
1210.459755
1210.45982
1210.459854
1210.459695
1210.460002
1210.459873
1210.460298
1210.460145
1210.460034
1210.459873
1210.459883
1210.459907
1210.45978
1210.460135
1210.460159
1210.460777
1210.460805
1210.460519
1210.460128
1210.460017
1210.459983
1210.459944
1210.460396
1210.460716
1210.461727
1210.462056
1210.461484
1210.460696
1210.460302
)
;
    }
    bottom
    {
        type            calculated;
        value           nonuniform List<scalar> 
127
(
1210.459692
1210.460061
1210.459791
1210.459679
1210.459865
1210.460007
1210.45972
1210.459966
1210.459674
1210.459701
1210.460073
1210.459798
1210.459664
1210.459866
1210.46
1210.459725
1210.459986
1210.45969
1210.459689
1210.460079
1210.459797
1210.459668
1210.459893
1210.459978
1210.459728
1210.459973
1210.459711
1210.459692
1210.460081
1210.459798
1210.459647
1210.459863
1210.459981
1210.459735
1210.45995
1210.459707
1210.459693
1210.460086
1210.459795
1210.459667
1210.459878
1210.459979
1210.459732
1210.459961
1210.459692
1210.459701
1210.460085
1210.459777
1210.459667
1210.459875
1210.46
1210.459736
1210.459939
1210.459686
1210.459722
1210.46007
1210.459788
1210.459668
1210.459872
1210.459984
1210.459732
1210.459947
1210.459682
1210.459742
1210.46007
1210.459791
1210.459681
1210.459862
1210.459983
1210.459732
1210.459939
1210.45969
1210.459735
1210.460085
1210.459793
1210.459731
1210.459867
1210.459958
1210.459708
1210.459955
1210.459691
1210.45975
1210.460077
1210.459804
1210.459736
1210.459843
1210.45998
1210.459727
1210.459959
1210.45969
1210.45976
1210.460087
1210.459796
1210.459748
1210.459879
1210.459998
1210.459727
1210.459977
1210.459694
1210.459778
1210.460109
1210.459839
1210.45983
1210.459959
1210.460091
1210.459767
1210.460002
1210.459717
1210.459808
1210.460159
1210.459943
1210.460032
1210.460221
1210.460281
1210.459876
1210.460084
1210.459754
1210.459899
1210.460303
1210.460213
1210.460543
1210.460874
1210.460779
1210.460161
1210.460232
1210.459852
1210.460054
)
;
    }
    side-walls
    {
        type            calculated;
        value           nonuniform List<scalar> 
261
(
1210.459692
1210.460162
1210.460144
1210.459658
1210.459625
1210.459649
1210.460129
1210.459557
1210.459593
1210.459701
1210.460149
1210.460145
1210.459646
1210.459639
1210.459663
1210.460129
1210.459553
1210.459579
1210.459689
1210.460171
1210.46016
1210.459647
1210.459656
1210.459685
1210.460112
1210.459552
1210.459584
1210.459692
1210.460149
1210.460153
1210.459643
1210.459673
1210.459663
1210.460106
1210.459578
1210.459592
1210.459693
1210.460154
1210.46016
1210.459633
1210.459665
1210.459669
1210.460108
1210.459563
1210.459606
1210.459701
1210.460129
1210.460155
1210.459641
1210.459672
1210.459681
1210.460113
1210.459552
1210.459616
1210.459722
1210.460134
1210.460181
1210.459646
1210.459667
1210.459677
1210.460114
1210.459546
1210.459623
1210.459742
1210.460125
1210.460165
1210.459685
1210.459664
1210.459675
1210.460091
1210.459566
1210.459617
1210.459735
1210.460127
1210.46017
1210.459699
1210.459672
1210.459668
1210.460092
1210.459554
1210.459634
1210.45975
1210.46013
1210.460188
1210.459707
1210.459684
1210.459667
1210.460097
1210.459575
1210.459628
1210.45976
1210.460133
1210.460211
1210.459713
1210.459696
1210.459659
1210.46007
1210.459586
1210.459649
1210.459778
1210.460181
1210.46027
1210.459781
1210.459792
1210.459736
1210.460101
1210.459608
1210.459659
1210.459808
1210.460258
1210.4604
1210.459984
1210.460053
1210.459954
1210.460226
1210.459656
1210.459695
1210.459899
1210.460431
1210.460666
1210.460469
1210.460707
1210.460454
1210.460483
1210.45981
1210.45978
1210.460054
1210.46071
1210.461214
1210.461414
1210.462005
1210.461421
1210.461055
1210.460082
1210.459944
1210.459674
1210.459998
1210.460055
1210.459641
1210.459554
1210.46
1210.460074
1210.459924
1210.459863
1210.45969
1210.46
1210.460061
1210.459624
1210.45956
1210.459989
1210.460067
1210.459904
1210.459859
1210.459711
1210.460011
1210.460039
1210.459639
1210.459536
1210.459988
1210.460068
1210.45991
1210.459848
1210.459707
1210.459991
1210.460029
1210.459645
1210.459551
1210.460006
1210.460063
1210.459892
1210.459859
1210.459692
1210.45998
1210.460043
1210.459621
1210.459575
1210.460003
1210.460067
1210.459905
1210.459845
1210.459686
1210.459967
1210.460039
1210.459628
1210.459587
1210.45999
1210.460083
1210.459907
1210.459835
1210.459682
1210.459967
1210.460034
1210.459627
1210.459576
1210.459993
1210.460086
1210.459899
1210.459834
1210.45969
1210.459943
1210.460039
1210.459629
1210.459576
1210.459996
1210.460117
1210.459869
1210.459851
1210.459691
1210.459935
1210.460037
1210.459623
1210.459576
1210.459999
1210.460117
1210.459886
1210.459823
1210.45969
1210.459932
1210.460033
1210.459614
1210.459595
1210.459996
1210.46011
1210.459899
1210.459821
1210.459694
1210.459927
1210.460019
1210.459638
1210.459647
1210.460011
1210.460114
1210.459885
1210.459832
1210.459717
1210.459949
1210.460065
1210.459687
1210.459749
1210.460068
1210.460159
1210.45993
1210.459854
1210.459754
1210.460022
1210.460194
1210.459914
1210.460017
1210.460267
1210.460278
1210.460001
1210.459907
1210.459852
1210.460167
1210.460439
1210.460403
1210.460648
1210.460732
1210.460576
1210.460149
1210.459983
)
;
    }
    inlet
    {
        type            calculated;
        value           nonuniform List<scalar> 
81
(
1210.459692
1210.460162
1210.460144
1210.459658
1210.459625
1210.459649
1210.460129
1210.459557
1210.459593
1210.460061
1210.459338
1210.459723
1210.459633
1210.460267
1210.459596
1210.459819
1210.459776
1210.459943
1210.459791
1210.460189
1210.459426
1210.460244
1210.459897
1210.459473
1210.460067
1210.45977
1210.459676
1210.459679
1210.459924
1210.459542
1210.460061
1210.459453
1210.459438
1210.4603
1210.460193
1210.45995
1210.459865
1210.459834
1210.459655
1210.459465
1210.459574
1210.459782
1210.45983
1210.4595
1210.459733
1210.460007
1210.45967
1210.459957
1210.459506
1210.459716
1210.459522
1210.459592
1210.459735
1210.459723
1210.45972
1210.459554
1210.460239
1210.45951
1210.460028
1210.45957
1210.459467
1210.460252
1210.459602
1210.459966
1210.45998
1210.459409
1210.460232
1210.459444
1210.459677
1210.45948
1210.458901
1210.459812
1210.459674
1210.459998
1210.460055
1210.459641
1210.459554
1210.46
1210.460074
1210.459924
1210.459863
)
;
    }
    outlet
    {
        type            calculated;
        value           nonuniform 0();
    }
    procBoundary0to1
    {
        type            processor;
        value           nonuniform List<scalar> 
97
(
1210.460333
1210.460562
1210.461189
1210.462118
1210.462918
1210.46392
1210.462927
1210.461942
1210.460563
1210.460238
1210.460562
1210.460562
1210.461329
1210.462503
1210.463936
1210.468132
1210.472767
1210.468132
1210.464039
1210.461782
1210.460895
1210.46078
1210.462503
1210.462503
1210.470778
1210.475842
1210.487011
1210.50691
1210.486329
1210.471368
1210.464056
1210.461639
1210.461514
1210.464708
1210.475842
1210.475842
1210.539997
1210.622511
1210.641118
1210.539334
1210.487102
1210.468607
1210.463263
1210.462185
1210.467168
1210.491492
1210.622511
1210.622511
1209.378058
1210.622742
1210.64147
1210.515051
1210.506967
1210.471986
1210.463972
1210.461738
1210.464492
1210.476173
1210.514999
1210.622742
1210.515051
1210.515051
1210.486373
1210.465895
1210.468297
1210.46298
1210.460723
1210.461919
1210.466743
1210.475764
1210.491841
1210.475725
1210.465895
1210.465895
1210.464634
1210.459967
1210.461607
1210.460513
1210.460961
1210.461761
1210.464946
1210.466796
1210.464487
1210.461842
1210.459967
1210.459967
1210.460759
1210.460165
1210.460026
1210.460454
1210.460982
1210.461397
1210.461969
1210.461683
1210.461118
1210.460412
1210.460165
)
;
    }
}


// ************************************************************************* //
