/*--------------------------------*- C++ -*----------------------------------*\
| =========                 |                                                 |
| \\      /  F ield         | OpenFOAM: The Open Source CFD Toolbox           |
|  \\    /   O peration     | Version:  4.x                                   |
|   \\  /    A nd           | Web:      www.OpenFOAM.org                      |
|    \\/     M anipulation  |                                                 |
\*---------------------------------------------------------------------------*/
FoamFile
{
    version     2.0;
    format      ascii;
    class       volScalarField;
    location    "2000";
    object      molarConc;
}
// * * * * * * * * * * * * * * * * * * * * * * * * * * * * * * * * * * * * * //

dimensions      [0 -3 0 0 1 0 0];

internalField   nonuniform List<scalar> 
1175
(
9.963281806
9.963281269
9.963281938
9.963281794
9.963281759
9.963281302
9.963280143
9.963279042
9.963279496
9.963278777
9.963278518
9.963278379
9.963278823
9.963278391
9.96327887
9.963255995
9.963256697
9.963255498
9.963256665
9.963256436
9.9632578
9.96325753
9.963258039
9.96325795
9.963257973
9.963258294
9.963257051
9.963256346
9.963254748
9.963254941
9.963256972
9.963256883
9.96325611
9.963256478
9.963256081
9.963256358
9.963254925
9.963255826
9.963255646
9.963254951
9.963254564
9.963253815
9.963253294
9.9632541
9.963254431
9.963283665
9.963284297
9.963284248
9.963284481
9.963285013
9.963284592
9.963284353
9.96328223
9.9632816
9.96328156
9.963282547
9.963282873
9.963282862
9.963282954
9.963284323
9.963285451
9.963284703
9.963283766
9.963282828
9.963283299
9.963282884
9.963283203
9.963283364
9.963283079
9.963282889
9.963283849
9.963283593
9.963283462
9.963282784
9.963282509
9.96328413
9.963283399
9.963282163
9.963283385
9.963283049
9.963282382
9.963282629
9.96328277
9.963283256
9.963283726
9.963285525
9.963285357
9.963284473
9.96328381
9.963283938
9.963257785
9.963257793
9.96325871
9.963259048
9.963258943
9.963258683
9.96325863
9.963259907
9.963259933
9.963259955
9.963262314
9.963263085
9.963262857
9.96326418
9.963263212
9.963289178
9.963289427
9.963289482
9.963288075
9.963288882
9.963289484
9.963289826
9.963288712
9.96328946
9.963288451
9.963288336
9.963288539
9.963289393
9.963288832
9.963289422
9.96328725
9.963288009
9.963287744
9.9632873
9.963286529
9.963285954
9.96328558
9.963285938
9.963285019
9.963285474
9.963284649
9.963284941
9.963285027
9.963284895
9.963284904
9.963261504
9.963260869
9.963260518
9.963260425
9.963260123
9.963260226
9.963261048
9.963261053
9.963260259
9.963260864
9.963260835
9.963261011
9.96326174
9.963261751
9.963301209
9.96330103
9.963300822
9.963300594
9.963301215
9.963301812
9.963300822
9.963299666
9.96330028
9.963299029
9.963298731
9.963298645
9.963298844
9.963297517
9.96329848
9.963280099
9.963280021
9.963280275
9.963280391
9.963280264
9.963279791
9.963280407
9.963281412
9.963281187
9.963281481
9.963283017
9.963284416
9.963284298
9.963283766
9.963284557
9.963285032
9.963286499
9.963285964
9.963284184
9.963284307
9.963284883
9.963284328
9.963285212
9.963285178
9.963285977
9.963286322
9.963286227
9.963285686
9.96328491
9.963284574
9.963250204
9.963249686
9.96324813
9.963249072
9.963248375
9.963248544
9.963248522
9.963247604
9.963247448
9.963247458
9.963247604
9.963247118
9.963247895
9.963248479
9.963247208
9.963287084
9.963285775
9.963285461
9.963284103
9.963285145
9.96328421
9.9632833
9.963281963
9.963281787
9.963282403
9.963283246
9.963284256
9.963283518
9.963284401
9.963285538
9.963274795
9.963275992
9.963276853
9.963278484
9.963278447
9.963279492
9.963279547
9.963279609
9.963278778
9.963279586
9.963278818
9.963277782
9.963278105
9.963279507
9.963280658
9.963277157
9.963275995
9.963275289
9.963274701
9.963274255
9.963273493
9.963273596
9.963273511
9.963272583
9.963273985
9.963273518
9.963272302
9.963274006
9.96327376
9.963273718
9.963268001
9.963269916
9.963268947
9.963267907
9.963269092
9.963268785
9.963269828
9.963269213
9.963269197
9.963269814
9.963269735
9.963269764
9.963270372
9.963270956
9.963272188
9.963276376
9.963275943
9.963276024
9.963275952
9.963276157
9.963277106
9.963276506
9.963276375
9.963276344
9.963276056
9.963277373
9.963277504
9.963278432
9.963279002
9.963254515
9.963254549
9.96325414
9.963254816
9.963255702
9.963255832
9.963254778
9.963255046
9.963256042
9.963255671
9.963255624
9.963254213
9.963255454
9.963256409
9.963296418
9.963296546
9.963296316
9.963297127
9.963298327
9.963298829
9.963296979
9.963296616
9.963296346
9.963294562
9.963294952
9.963295364
9.963295446
9.963293989
9.963293549
9.963251481
9.963250138
9.963250987
9.963251563
9.963251904
9.963250452
9.963251285
9.963251535
9.963252215
9.963252467
9.963253081
9.963251432
9.963251357
9.963251013
9.963250313
9.963270515
9.963272442
9.963272958
9.963272238
9.963271636
9.963272476
9.963272153
9.963273506
9.96327309
9.963272141
9.963272729
9.963275052
9.963273018
9.963272861
9.96327206
9.963293828
9.963293767
9.963292324
9.963292597
9.963292395
9.96329273
9.96329423
9.963292618
9.963290386
9.963289881
9.963288855
9.96328808
9.963288213
9.963287414
9.963288516
9.963261171
9.963261
9.963261719
9.963259916
9.963257678
9.963257791
9.963257534
9.963259047
9.963260463
9.963260151
9.96326077
9.963259935
9.963260536
9.963260012
9.963260247
9.963277532
9.963277906
9.963278202
9.963279241
9.963277331
9.963277358
9.96327744
9.963277875
9.963279647
9.963279129
9.963277957
9.96327936
9.963278842
9.963279493
9.963279062
9.963282654
9.963282176
9.963281004
9.963280508
9.963280838
9.963280362
9.963281317
9.96328278
9.96328092
9.963281094
9.963281755
9.963282178
9.963282258
9.963281944
9.963281793
9.963282497
9.963283348
9.963283098
9.963284263
9.963283168
9.963283184
9.963283097
9.963282426
9.963279801
9.963279952
9.963280648
9.96328015
9.963280197
9.963278918
9.963269066
9.963267807
9.963269336
9.963268656
9.9632693
9.963268551
9.963267065
9.963268021
9.963269485
9.963270884
9.963269948
9.96326939
9.963269422
9.963269924
9.963290049
9.963289615
9.96329011
9.963288883
9.963287543
9.963289013
9.963289668
9.963289328
9.963287661
9.9632876
9.963287432
9.96328855
9.963288595
9.963287778
9.963261535
9.963260524
9.96325886
9.963257521
9.963256985
9.963258511
9.963258215
9.963258951
9.963258088
9.963258375
9.963257991
9.963257566
9.963258065
9.963257311
9.963256098
9.963294901
9.963295045
9.963293334
9.963293631
9.963296636
9.963296355
9.963296106
9.96329627
9.963295592
9.963296017
9.963295539
9.96329519
9.963294772
9.963292624
9.963420457
9.963295743
9.963295366
9.963297261
9.963297704
9.963297825
9.963297625
9.963297143
9.963297677
9.963297508
9.963296081
9.963297916
9.963297625
9.963296986
9.963295136
9.963293571
9.963248407
9.963248107
9.963248396
9.963247844
9.96324813
9.963248202
9.963249232
9.963250198
9.963247353
9.963246631
9.963246636
9.963247008
9.963246611
9.96324625
9.963244582
9.963254252
9.963253572
9.963253367
9.963254434
9.963253783
9.963253467
9.963253559
9.963255231
9.963254481
9.963255389
9.963255693
9.96325694
9.963256741
9.963257741
9.963257488
9.963267632
9.963268106
9.96326775
9.963268506
9.963268502
9.963267502
9.963267264
9.963265738
9.963265023
9.963266394
9.963266208
9.963266005
9.96326559
9.963266044
9.963267119
9.963272296
9.963272259
9.963270762
9.963272401
9.9632716
9.963271734
9.963271933
9.963272503
9.96327235
9.963274197
9.963273815
9.963274404
9.963274222
9.963273633
9.963274002
9.963274671
9.963275068
9.963275067
9.96327633
9.963277694
9.963278196
9.963277846
9.963277885
9.963277051
9.963276935
9.963277032
9.963275946
9.963275196
9.963283827
9.963283576
9.963283276
9.963282198
9.963283156
9.96328275
9.963282079
9.963281035
9.963281351
9.963281469
9.963282183
9.963281132
9.963280464
9.963280982
9.963294248
9.963294163
9.963293621
9.96329469
9.963295487
9.963296269
9.96329463
9.963295331
9.963294108
9.963294032
9.963295174
9.963294005
9.963295212
9.963293761
9.963288288
9.963288464
9.963288022
9.963288715
9.963287665
9.963287893
9.963288325
9.963288294
9.963288454
9.963287749
9.963285825
9.963285726
9.963284405
9.963278109
10.05751388
9.963276868
9.963276576
9.96327652
9.96327719
9.963277395
9.963276888
9.963276582
9.963277138
9.963277612
9.963277642
9.963277766
9.963277289
9.963276576
9.96327371
9.9634009
9.963274219
9.963273515
9.963273056
9.963274716
9.963272742
9.963274205
9.963273931
9.963272395
9.96327196
9.963272147
9.963271234
9.963271673
9.963271448
9.963270389
9.963269276
9.963292351
9.963293007
9.963291419
9.963290232
9.963290435
9.963290058
9.963288307
9.963289354
9.963290009
9.963289636
9.963290165
9.963289343
9.963290748
9.963290937
9.963289908
9.963279539
9.963279661
9.963280109
9.963280128
9.963279566
9.963278338
9.963278878
9.963279548
9.963279845
9.963278262
9.963279856
9.963278527
9.96327841
9.963277408
9.963279675
9.963264476
9.963264862
9.963266074
9.963265916
9.963266046
9.963264899
9.96326576
9.963265861
9.96326737
9.963266537
9.9632669
9.963265821
9.963266513
9.963265926
9.963282977
9.963283592
9.963283427
9.963282796
9.963282969
9.963282062
9.963281753
9.963281813
9.963281124
9.963280308
9.963281667
9.963281313
9.963281533
9.963280777
9.963267258
9.963267327
9.963267569
9.963267584
9.963267289
9.963268108
9.963267016
9.963266038
9.963266721
9.963267665
9.963269398
9.963268777
9.963268213
9.963267637
9.963291992
9.963290968
9.963291584
9.963291602
9.963292045
9.963292721
9.963293991
9.963293388
9.963294015
9.963295817
9.96329453
9.963294473
9.96329444
9.963293191
9.96328047
9.963281451
9.963280899
9.963280183
9.963279861
9.963278946
9.963280527
9.963281352
9.96327969
9.963280667
9.963281431
9.963281864
9.963281308
9.963279786
9.963291139
9.963290949
9.963290559
9.963290518
9.963292351
9.963290845
9.963289591
9.963289284
9.963289798
9.963290174
9.963289915
9.963289681
9.963288371
9.963287786
9.96328727
9.963287996
9.963288434
9.963287326
9.963287069
9.963287122
9.963287054
9.963286918
9.963286562
9.96328618
9.963284749
9.963283763
9.963285168
9.963284754
9.963285071
9.963279451
9.963279149
9.963280268
9.963281037
9.963281715
9.963281596
9.963280701
9.963280805
9.963280507
9.963280683
9.963280663
9.963279311
9.963278257
9.963278479
9.963278083
9.963280071
9.963280128
9.96328094
9.963282103
9.963281856
9.963279784
9.963280186
9.963280262
9.963280379
9.96328079
9.963279649
9.963279134
9.963280116
9.963280233
9.963280486
9.963280225
9.963279985
9.963279792
9.963279438
9.963279581
9.963279372
9.963279588
9.963279603
9.963281042
9.96328028
9.96328114
9.96328146
9.963282085
9.963281889
9.963289343
9.963290037
9.963289632
9.963289802
9.963289411
9.963289451
9.963288372
9.963287373
9.963287521
9.963288033
9.963287027
9.963287296
9.963288982
9.963288631
9.963251746
9.963250677
9.963251362
9.963251027
9.963249556
9.963248509
9.963246587
9.963247022
9.963247054
9.963246699
9.963246978
9.963246205
9.963246297
9.963246395
9.963291804
9.963291969
9.963292875
9.963291946
9.963292109
9.963292867
9.96329314
9.963293695
9.963292955
9.963293329
9.963292484
9.963291384
9.963291255
9.963290561
9.963263308
9.96326455
9.963263865
9.963263512
9.963263299
9.963264009
9.963263037
9.963262231
9.963262914
9.963262839
9.96326194
9.963262156
9.963263504
9.963263799
9.963288468
9.963289235
9.963290127
9.963291433
9.963289908
9.963289612
9.963290102
9.963291473
9.963291385
9.963290323
9.963289909
9.963291226
9.963291756
9.963292287
9.963294154
9.96329396
9.963295541
9.963294507
9.963294395
9.963294062
9.963294245
9.963294816
9.963293857
9.963293963
9.963293519
9.96329336
9.96329252
9.96329242
9.963251007
9.963252547
9.963252233
9.963251805
9.963250746
9.963250318
9.963249624
9.96324936
9.96324912
9.963248905
9.963249108
9.963248441
9.963246647
9.963246975
9.963246033
9.963286714
9.963287557
9.963286478
9.963285644
9.963285038
9.963283192
9.963283597
9.963282373
9.963281625
9.963282306
9.963281068
9.963282116
9.96328226
9.963283647
9.963282902
9.963266721
9.963265635
9.963266377
9.963267616
9.963267034
9.963268225
9.963267783
9.96326827
9.963267408
9.963267389
9.963266857
9.963266874
9.96326591
9.963265636
9.963265955
9.963266331
9.963266173
9.963266851
9.963268524
9.963268223
9.963267574
9.963266238
9.96326636
9.963266546
9.963266539
9.963267185
9.963267284
9.963268857
9.963297352
9.963297468
9.963297849
9.96329647
9.963297083
9.963299079
9.963298799
9.963298674
9.963299369
9.963298121
9.963298253
9.963298272
9.963298608
9.963298755
9.963252137
9.963251817
9.963252939
9.963254305
9.963256554
9.963256723
9.963255828
9.96325655
9.963256402
9.963256149
9.963256993
9.963255942
9.96325673
9.963256999
9.963295428
9.963295878
9.963296796
9.963296061
9.963294657
9.963295115
9.96329278
9.963292764
9.963293587
9.963292672
9.963292738
9.963293091
9.963294892
9.963294721
9.963282616
9.963281926
9.963281439
9.963281037
9.963281015
9.963279616
9.963280441
9.963281001
9.963281526
9.963281651
9.963283053
9.963283892
9.963283144
9.963282784
9.963293459
9.963293918
9.963293031
9.96329342
9.963292105
9.963292434
9.963291423
9.963291228
9.963290961
9.963291466
9.963290392
9.963290704
9.963292364
9.963291947
9.963325263
9.963324082
9.96332309
9.963323233
9.963323132
9.963323106
9.96332305
9.963323895
9.963324831
9.963324926
9.963324509
9.963322691
9.963323217
9.963323399
9.963275204
9.963275353
9.963275597
9.963275743
9.963276193
9.963275785
9.963276199
9.963276291
9.963277585
9.963277957
9.963277372
9.963276897
9.963276928
9.963277445
9.963277389
9.96328277
9.963281909
9.963280733
9.963280952
9.96328177
9.963282112
9.963282365
9.96328189
9.963281894
9.963282054
9.963282139
9.963281732
9.963281791
9.963280957
9.963264959
9.963264847
9.963264285
9.96326535
9.963265948
9.963266703
9.96326667
9.963268021
9.963268526
9.96326888
9.963269651
9.963269777
9.963269306
9.963269246
9.963261861
9.963261515
9.963262746
9.963263259
9.963262491
9.963262759
9.963263023
9.96326279
9.963262986
9.963263459
9.963265107
9.963265093
9.963264626
9.963266567
9.963284585
9.963285515
9.963284698
9.963284379
9.963285699
9.963285322
9.963285399
9.963285292
9.963285759
9.963286643
9.963286666
9.963288022
9.963286688
9.963286609
9.963289355
9.963289025
9.963290335
9.963289553
9.963288239
9.963287549
9.963288165
9.963288205
9.963288378
9.963287768
9.963286528
9.963285938
9.963285433
9.963286011
9.963264847
9.963265468
9.963265529
9.96326455
9.963264685
9.963265399
9.963265261
9.963265165
9.963265091
9.963265678
9.963266185
9.963267109
9.963267284
9.963268532
9.963260783
9.96326122
9.963261138
9.963261439
9.963261205
9.963260306
9.963260156
9.963258508
9.963258568
9.963259211
9.963259893
9.963259907
9.963260004
9.963259089
9.963269058
9.963270152
9.963269835
9.96327082
9.963270115
9.963269961
9.963270406
9.9632721
9.963271225
9.963270688
9.963271918
9.96327085
9.96327045
9.963270237
9.963272408
9.963272639
9.963273196
9.963272628
9.963273396
9.963273932
9.963274021
9.963273077
9.963274656
9.963274856
9.963274584
9.963274241
9.963273364
9.963273742
)
;

boundaryField
{
    top
    {
        type            calculated;
        value           nonuniform List<scalar> 
134
(
9.96328725
9.963268001
9.963282654
9.963267632
9.963279539
9.963280071
9.963286714
9.963275204
9.963272408
9.963288009
9.963269916
9.963282176
9.963268106
9.963279661
9.963280128
9.963287557
9.963275353
9.963272639
9.963287744
9.963268947
9.963281004
9.96326775
9.963280109
9.96328094
9.963286478
9.963275597
9.963273196
9.9632873
9.963267907
9.963280508
9.963268506
9.963280128
9.963282103
9.963285644
9.963275743
9.963272628
9.963286529
9.963269092
9.963280838
9.963268502
9.963279566
9.963281856
9.963285038
9.963276193
9.963273396
9.963285954
9.963268785
9.963280362
9.963267502
9.963278338
9.963279784
9.963283192
9.963275785
9.963273932
9.96328558
9.963269828
9.963281317
9.963267264
9.963278878
9.963280186
9.963283597
9.963276199
9.963274021
9.963285938
9.963269213
9.96328278
9.963265738
9.963279548
9.963280262
9.963282373
9.963276291
9.963273077
9.963285019
9.963269197
9.96328092
9.963265023
9.963279845
9.963280379
9.963281625
9.963277585
9.963274656
9.963285474
9.963269814
9.963281094
9.963266394
9.963278262
9.96328079
9.963282306
9.963277957
9.963274856
9.963284649
9.963269735
9.963281755
9.963266208
9.963279856
9.963279649
9.963281068
9.963277372
9.963274584
9.963284941
9.963269764
9.963282178
9.963266005
9.963278527
9.963279134
9.963282116
9.963276897
9.963274241
9.963285027
9.963270372
9.963282258
9.96326559
9.96327841
9.963280116
9.96328226
9.963276928
9.963273364
9.963284895
9.963270956
9.963281944
9.963266044
9.963277408
9.963280233
9.963283647
9.963277445
9.963273742
9.963284904
9.963272188
9.963281793
9.963267119
9.963279675
9.963280486
9.963282902
9.963277389
)
;
    }
    bottom
    {
        type            calculated;
        value           nonuniform List<scalar> 
127
(
9.963281806
9.963261504
9.963276376
9.963282497
9.963272296
9.963264476
9.963280225
9.963266721
9.96328277
9.963281269
9.963260869
9.963275943
9.963283348
9.963272259
9.963264862
9.963279985
9.963265635
9.963281909
9.963281938
9.963260518
9.963276024
9.963283098
9.963270762
9.963266074
9.963279792
9.963266377
9.963280733
9.963281794
9.963260425
9.963275952
9.963284263
9.963272401
9.963265916
9.963279438
9.963267616
9.963280952
9.963281759
9.963260123
9.963276157
9.963283168
9.9632716
9.963266046
9.963279581
9.963267034
9.96328177
9.963281302
9.963260226
9.963277106
9.963283184
9.963271734
9.963264899
9.963279372
9.963268225
9.963282112
9.963280143
9.963261048
9.963276506
9.963283097
9.963271933
9.96326576
9.963279588
9.963267783
9.963282365
9.963279042
9.963261053
9.963276375
9.963282426
9.963272503
9.963265861
9.963279603
9.96326827
9.96328189
9.963279496
9.963260259
9.963276344
9.963279801
9.96327235
9.96326737
9.963281042
9.963267408
9.963281894
9.963278777
9.963260864
9.963276056
9.963279952
9.963274197
9.963266537
9.96328028
9.963267389
9.963282054
9.963278518
9.963260835
9.963277373
9.963280648
9.963273815
9.9632669
9.96328114
9.963266857
9.963282139
9.963278379
9.963261011
9.963277504
9.96328015
9.963274404
9.963265821
9.96328146
9.963266874
9.963281732
9.963278823
9.96326174
9.963278432
9.963280197
9.963274222
9.963266513
9.963282085
9.96326591
9.963281791
9.963278391
9.963261751
9.963279002
9.963278918
9.963273633
9.963265926
9.963281889
9.963265636
9.963280957
9.96327887
)
;
    }
    side-walls
    {
        type            calculated;
        value           nonuniform List<scalar> 
261
(
9.963281806
9.963255995
9.963256972
9.963283665
9.963285451
9.96328413
9.963257785
9.963289178
9.96328725
9.963281269
9.963256697
9.963256883
9.963284297
9.963284703
9.963283399
9.963257793
9.963289427
9.963288009
9.963281938
9.963255498
9.96325611
9.963284248
9.963283766
9.963282163
9.96325871
9.963289482
9.963287744
9.963281794
9.963256665
9.963256478
9.963284481
9.963282828
9.963283385
9.963259048
9.963288075
9.9632873
9.963281759
9.963256436
9.963256081
9.963285013
9.963283299
9.963283049
9.963258943
9.963288882
9.963286529
9.963281302
9.9632578
9.963256358
9.963284592
9.963282884
9.963282382
9.963258683
9.963289484
9.963285954
9.963280143
9.96325753
9.963254925
9.963284353
9.963283203
9.963282629
9.96325863
9.963289826
9.96328558
9.963279042
9.963258039
9.963255826
9.96328223
9.963283364
9.96328277
9.963259907
9.963288712
9.963285938
9.963279496
9.96325795
9.963255646
9.9632816
9.963283079
9.963283256
9.963259933
9.96328946
9.963285019
9.963278777
9.963257973
9.963254951
9.96328156
9.963282889
9.963283726
9.963259955
9.963288451
9.963285474
9.963278518
9.963258294
9.963254564
9.963282547
9.963283849
9.963285525
9.963262314
9.963288336
9.963284649
9.963278379
9.963257051
9.963253815
9.963282873
9.963283593
9.963285357
9.963263085
9.963288539
9.963284941
9.963278823
9.963256346
9.963253294
9.963282862
9.963283462
9.963284473
9.963262857
9.963289393
9.963285027
9.963278391
9.963254748
9.9632541
9.963282954
9.963282784
9.96328381
9.96326418
9.963288832
9.963284895
9.96327887
9.963254941
9.963254431
9.963284323
9.963282509
9.963283938
9.963263212
9.963289422
9.963284904
9.96328277
9.963264959
9.963261861
9.963284585
9.963289355
9.963264847
9.963260783
9.963269058
9.963272408
9.963281909
9.963264847
9.963261515
9.963285515
9.963289025
9.963265468
9.96326122
9.963270152
9.963272639
9.963280733
9.963264285
9.963262746
9.963284698
9.963290335
9.963265529
9.963261138
9.963269835
9.963273196
9.963280952
9.96326535
9.963263259
9.963284379
9.963289553
9.96326455
9.963261439
9.96327082
9.963272628
9.96328177
9.963265948
9.963262491
9.963285699
9.963288239
9.963264685
9.963261205
9.963270115
9.963273396
9.963282112
9.963266703
9.963262759
9.963285322
9.963287549
9.963265399
9.963260306
9.963269961
9.963273932
9.963282365
9.96326667
9.963263023
9.963285399
9.963288165
9.963265261
9.963260156
9.963270406
9.963274021
9.96328189
9.963268021
9.96326279
9.963285292
9.963288205
9.963265165
9.963258508
9.9632721
9.963273077
9.963281894
9.963268526
9.963262986
9.963285759
9.963288378
9.963265091
9.963258568
9.963271225
9.963274656
9.963282054
9.96326888
9.963263459
9.963286643
9.963287768
9.963265678
9.963259211
9.963270688
9.963274856
9.963282139
9.963269651
9.963265107
9.963286666
9.963286528
9.963266185
9.963259893
9.963271918
9.963274584
9.963281732
9.963269777
9.963265093
9.963288022
9.963285938
9.963267109
9.963259907
9.96327085
9.963274241
9.963281791
9.963269306
9.963264626
9.963286688
9.963285433
9.963267284
9.963260004
9.96327045
9.963273364
9.963280957
9.963269246
9.963266567
9.963286609
9.963286011
9.963268532
9.963259089
9.963270237
9.963273742
)
;
    }
    inlet
    {
        type            calculated;
        value           nonuniform List<scalar> 
81
(
9.963281806
9.963255995
9.963256972
9.963283665
9.963285451
9.96328413
9.963257785
9.963289178
9.96328725
9.963261504
9.963301209
9.963280099
9.963285032
9.963250204
9.963287084
9.963274795
9.963277157
9.963268001
9.963276376
9.963254515
9.963296418
9.963251481
9.963270515
9.963293828
9.963261171
9.963277532
9.963282654
9.963282497
9.963269066
9.963290049
9.963261535
9.963294901
9.963295743
9.963248407
9.963254252
9.963267632
9.963272296
9.963274002
9.963283827
9.963294248
9.963288288
9.963276868
9.963274219
9.963292351
9.963279539
9.963264476
9.963282977
9.963267258
9.963291992
9.96328047
9.963291139
9.96328727
9.963279451
9.963280071
9.963280225
9.963289343
9.963251746
9.963291804
9.963263308
9.963288468
9.963294154
9.963251007
9.963286714
9.963266721
9.963265955
9.963297352
9.963252137
9.963295428
9.963282616
9.963293459
9.963325263
9.963275204
9.96328277
9.963264959
9.963261861
9.963284585
9.963289355
9.963264847
9.963260783
9.963269058
9.963272408
)
;
    }
    outlet
    {
        type            calculated;
        value           nonuniform 0();
    }
    procBoundary0to1
    {
        type            processor;
        value           nonuniform List<scalar> 
97
(
9.963279142
9.963263085
9.963254944
9.963254345
9.963284268
9.963282032
9.963283809
9.963264021
9.963289348
9.963284348
9.963263085
9.963263085
9.963298728
9.963256338
9.963284983
9.963284612
9.963247155
9.963284614
9.963279318
9.963273849
9.963271119
9.963278287
9.963256338
9.963256338
9.963291576
9.96328587
9.963250456
9.963271501
9.96328783
9.963259171
9.96327842
9.96328065
9.963278807
9.963269272
9.96328587
9.96328587
9.963255416
9.963420326
9.963421631
9.963291633
9.963245401
9.963258523
9.963265356
9.963272593
9.963274119
9.9632818
9.963420326
9.963420326
10.05760294
9.963407592
9.96340233
9.96328643
9.96326839
9.963290077
9.963279157
9.963266503
9.963281131
9.963267567
9.963289232
9.963407592
9.96328643
9.96328643
9.963285508
9.963292313
9.963275535
9.963280904
9.96328143
9.963288359
9.963245748
9.963290051
9.963262632
9.963292188
9.963292313
9.963292313
9.963246675
9.96332367
9.963282429
9.963265783
9.963269087
9.963297072
9.963256172
9.963294555
9.963281385
9.963292593
9.96332367
9.96332367
9.963278563
9.963272745
9.963280382
9.96326903
9.963267202
9.963285258
9.963284468
9.963269556
9.963259706
9.963271316
9.963272745
)
;
    }
}


// ************************************************************************* //
