/*--------------------------------*- C++ -*----------------------------------*\
| =========                 |                                                 |
| \\      /  F ield         | OpenFOAM: The Open Source CFD Toolbox           |
|  \\    /   O peration     | Version:  4.x                                   |
|   \\  /    A nd           | Web:      www.OpenFOAM.org                      |
|    \\/     M anipulation  |                                                 |
\*---------------------------------------------------------------------------*/
FoamFile
{
    version     2.0;
    format      ascii;
    class       volScalarField;
    location    "2000";
    object      N2;
}
// * * * * * * * * * * * * * * * * * * * * * * * * * * * * * * * * * * * * * //

dimensions      [0 0 0 0 0 0 0];

internalField   nonuniform List<scalar> 
1175
(
0.5999999995
0.5999999995
0.5999999995
0.5999999995
0.5999999995
0.5999999994
0.5999999992
0.5999999985
0.5999999961
0.5999999891
0.5999999691
0.5999999159
0.599999786
0.5999994988
0.5999989329
0.5999999995
0.5999999995
0.5999999995
0.5999999995
0.5999999995
0.5999999994
0.5999999991
0.5999999981
0.5999999947
0.599999984
0.5999999526
0.5999998655
0.5999996455
0.5999991483
0.5999981687
0.5999999995
0.5999999995
0.5999999995
0.5999999995
0.5999999995
0.5999999993
0.5999999989
0.5999999973
0.599999992
0.5999999744
0.5999999197
0.5999997615
0.5999993444
0.5999983744
0.5999964581
0.5999999995
0.5999999995
0.5999999995
0.5999999995
0.5999999995
0.5999999993
0.5999999987
0.5999999966
0.599999989
0.599999963
0.599999879
0.5999996246
0.5999989248
0.5999972407
0.5999938895
0.5999999995
0.5999999995
0.5999999995
0.5999999995
0.5999999995
0.5999999993
0.5999999986
0.5999999962
0.5999999875
0.5999999571
0.5999998562
0.599999542
0.5999986489
0.5999964315
0.5999919622
0.5999999995
0.5999999995
0.5999999995
0.5999999995
0.5999999995
0.5999999993
0.5999999987
0.5999999966
0.599999989
0.599999963
0.599999879
0.5999996246
0.5999989249
0.5999972409
0.5999938898
0.5999999995
0.5999999995
0.5999999995
0.5999999995
0.5999999995
0.5999999993
0.5999999989
0.5999999973
0.599999992
0.5999999744
0.5999999197
0.5999997615
0.5999993445
0.5999983746
0.5999964586
0.5999999995
0.5999999995
0.5999999995
0.5999999995
0.5999999995
0.5999999994
0.5999999991
0.5999999981
0.5999999947
0.5999999841
0.5999999526
0.5999998655
0.5999996456
0.5999991486
0.5999981692
0.5999999995
0.5999999995
0.5999999995
0.5999999995
0.5999999995
0.5999999994
0.5999999992
0.5999999985
0.5999999961
0.5999999891
0.5999999691
0.5999999159
0.5999997861
0.599999499
0.5999989334
0.5999999995
0.5999999995
0.5999999995
0.5999999995
0.5999999995
0.5999999994
0.5999999991
0.5999999981
0.5999999947
0.599999984
0.5999999526
0.5999998655
0.5999996454
0.5999991479
0.5999999995
0.5999999995
0.5999999995
0.5999999995
0.5999999995
0.5999999994
0.5999999989
0.5999999974
0.5999999922
0.5999999749
0.5999999208
0.5999997626
0.5999993421
0.599998358
0.5999964121
0.5999999995
0.5999999995
0.5999999995
0.5999999995
0.5999999995
0.5999999993
0.5999999986
0.5999999962
0.5999999873
0.5999999563
0.5999998525
0.5999995293
0.5999986154
0.5999963712
0.5999918873
0.5999999995
0.5999999995
0.5999999995
0.5999999995
0.5999999994
0.5999999992
0.5999999983
0.5999999948
0.5999999815
0.5999999322
0.5999997579
0.5999991783
0.5999974239
0.5999928418
0.5999834574
0.5999999995
0.5999999995
0.5999999995
0.5999999995
0.5999999994
0.5999999992
0.5999999982
0.5999999941
0.5999999783
0.5999999183
0.5999996972
0.5999989251
0.5999964436
0.5999895134
0.5999746575
0.5999999995
0.5999999995
0.5999999995
0.5999999995
0.5999999994
0.5999999992
0.5999999983
0.5999999948
0.5999999815
0.5999999322
0.5999997579
0.5999991783
0.5999974241
0.5999928424
0.5999834591
0.5999999995
0.5999999995
0.5999999995
0.5999999995
0.5999999995
0.5999999993
0.5999999986
0.5999999962
0.5999999873
0.5999999563
0.5999998525
0.5999995293
0.5999986156
0.599996372
0.5999918894
0.5999999995
0.5999999995
0.5999999995
0.5999999995
0.5999999995
0.5999999994
0.5999999989
0.5999999974
0.5999999922
0.5999999749
0.5999999208
0.5999997626
0.5999993423
0.5999983587
0.599996414
0.5999999995
0.5999999995
0.5999999995
0.5999999995
0.5999999995
0.5999999994
0.5999999991
0.5999999981
0.5999999947
0.599999984
0.5999999526
0.5999998655
0.5999996456
0.5999991485
0.5999981692
0.5999999995
0.5999999995
0.5999999995
0.5999999995
0.5999999995
0.5999999993
0.5999999989
0.5999999973
0.599999992
0.5999999744
0.5999999197
0.5999997614
0.5999993441
0.5999983734
0.5999999995
0.5999999995
0.5999999995
0.5999999995
0.5999999995
0.5999999993
0.5999999986
0.5999999962
0.5999999873
0.5999999562
0.5999998525
0.5999995292
0.599998615
0.5999963695
0.5999999995
0.5999999995
0.5999999995
0.5999999995
0.5999999994
0.5999999992
0.5999999981
0.5999999939
0.5999999777
0.5999999166
0.5999996954
0.5999989446
0.5999966304
0.5999905022
0.5999778973
0.5999999995
0.5999999995
0.5999999995
0.5999999995
0.5999999994
0.599999999
0.5999999975
0.5999999912
0.5999999652
0.5999998603
0.5999994497
0.5999979246
0.5999927247
0.5999774615
0.5999439608
0.5999999995
0.5999999995
0.5999999995
0.5999999995
0.5999999994
0.599999999
0.5999999972
0.5999999897
0.5999999578
0.5999998232
0.5999992647
0.5999970235
0.5999885694
0.5999603961
0.5998901987
0.5999999995
0.5999999995
0.5999999995
0.5999999995
0.5999999994
0.599999999
0.5999999975
0.5999999912
0.5999999652
0.5999998603
0.5999994497
0.5999979247
0.5999927254
0.5999774647
0.5999439713
0.5999999995
0.5999999995
0.5999999995
0.5999999995
0.5999999994
0.5999999992
0.5999999981
0.5999999939
0.5999999777
0.5999999166
0.5999996954
0.5999989447
0.5999966311
0.5999905056
0.5999779085
0.5999999995
0.5999999995
0.5999999995
0.5999999995
0.5999999995
0.5999999993
0.5999999986
0.5999999962
0.5999999873
0.5999999563
0.5999998525
0.5999995293
0.5999986155
0.5999963719
0.5999918893
0.5999999995
0.5999999995
0.5999999995
0.5999999995
0.5999999995
0.5999999993
0.5999999989
0.5999999973
0.599999992
0.5999999744
0.5999999197
0.5999997615
0.5999993444
0.5999983745
0.5999964585
0.5999999995
0.5999999995
0.5999999995
0.5999999995
0.5999999995
0.5999999993
0.5999999987
0.5999999966
0.599999989
0.599999963
0.5999998789
0.5999996244
0.5999989242
0.5999972387
0.5999999995
0.5999999995
0.5999999995
0.5999999995
0.5999999994
0.5999999992
0.5999999983
0.5999999948
0.5999999815
0.5999999322
0.5999997579
0.599999178
0.5999974226
0.599992837
0.5999999995
0.5999999995
0.5999999995
0.5999999995
0.5999999994
0.599999999
0.5999999975
0.5999999912
0.5999999652
0.5999998602
0.5999994496
0.5999979241
0.5999927224
0.5999774503
0.5999999995
0.5999999995
0.5999999995
0.5999999995
0.5999999994
0.5999999989
0.5999999966
0.5999999866
0.5999999423
0.5999997477
0.5999989037
0.5999953573
0.599981359
0.5999327749
0.5998084909
0.5999999995
0.5999999995
0.5999999995
0.5999999995
0.5999999993
0.5999999988
0.5999999961
0.5999999839
0.5999999274
0.5999996629
0.5999984132
0.5999925018
0.5999650119
0.5998452565
0.5994293032
0.5999999995
0.5999999995
0.5999999995
0.5999999995
0.5999999994
0.5999999989
0.5999999966
0.5999999866
0.5999999423
0.5999997477
0.5999989038
0.5999953577
0.5999813619
0.5999327917
0.5998085669
0.5999999995
0.5999999995
0.5999999995
0.5999999995
0.5999999994
0.599999999
0.5999999975
0.5999999912
0.5999999652
0.5999998603
0.5999994497
0.5999979245
0.5999927248
0.5999774636
0.5999439706
0.5999999995
0.5999999995
0.5999999995
0.5999999995
0.5999999994
0.5999999992
0.5999999983
0.5999999948
0.5999999815
0.5999999322
0.5999997579
0.5999991782
0.5999974238
0.5999928419
0.5999834587
0.5999999995
0.5999999995
0.5999999995
0.5999999995
0.5999999995
0.5999999993
0.5999999987
0.5999999966
0.599999989
0.599999963
0.5999998789
0.5999996246
0.5999989247
0.5999972406
0.5999938896
0.5999999995
0.5999999995
0.5999999995
0.5999999995
0.5999999995
0.5999999993
0.5999999986
0.5999999962
0.5999999875
0.5999999571
0.5999998561
0.5999995417
0.5999986479
0.5999964285
0.5999999995
0.5999999995
0.5999999995
0.5999999995
0.5999999994
0.5999999992
0.5999999982
0.5999999941
0.5999999783
0.5999999182
0.599999697
0.5999989245
0.5999964413
0.5999895049
0.5999999995
0.5999999995
0.5999999995
0.5999999995
0.5999999994
0.599999999
0.5999999972
0.5999999897
0.5999999578
0.5999998231
0.5999992644
0.5999970222
0.599988563
0.5999603662
0.5999999995
0.5999999995
0.5999999995
0.5999999995
0.5999999993
0.5999999988
0.5999999961
0.5999999839
0.5999999274
0.5999996628
0.5999984129
0.5999924997
0.5999649987
0.5998451657
0.5999999995
0.5999999995
0.5999999995
0.5999999995
0.5999999993
0.5999999986
0.5999999955
0.5999999803
0.5999999059
0.5999995269
0.5999975059
0.5999860966
0.5999172379
0.5994700116
0.5963231063
0.5999999995
0.5999999995
0.5999999995
0.5999999995
0.5999999993
0.5999999988
0.5999999961
0.5999999839
0.5999999274
0.5999996628
0.599998413
0.5999925007
0.5999650073
0.5998452391
0.5994292871
0.5999999995
0.5999999995
0.5999999995
0.5999999995
0.5999999994
0.599999999
0.5999999972
0.5999999897
0.5999999578
0.5999998231
0.5999992645
0.5999970229
0.5999885673
0.5999603907
0.5998901946
0.5999999995
0.5999999995
0.5999999995
0.5999999995
0.5999999994
0.5999999992
0.5999999982
0.5999999941
0.5999999783
0.5999999182
0.5999996971
0.5999989249
0.5999964429
0.5999895119
0.5999746564
0.5999999995
0.5999999995
0.5999999995
0.5999999995
0.5999999995
0.5999999993
0.5999999986
0.5999999962
0.5999999875
0.5999999571
0.5999998561
0.5999995418
0.5999986486
0.599996431
0.5999919617
0.5999999995
0.5999999995
0.5999999995
0.5999999995
0.5999999995
0.5999999993
0.5999999987
0.5999999966
0.599999989
0.599999963
0.5999998789
0.5999996244
0.599998924
0.5999972385
0.5999999995
0.5999999995
0.5999999995
0.5999999995
0.5999999994
0.5999999992
0.5999999983
0.5999999948
0.5999999815
0.5999999322
0.5999997578
0.5999991778
0.5999974223
0.5999928365
0.5999999995
0.5999999995
0.5999999995
0.5999999995
0.5999999994
0.599999999
0.5999999975
0.5999999912
0.5999999652
0.5999998602
0.5999994495
0.5999979236
0.5999927207
0.5999774469
0.5999999995
0.5999999995
0.5999999995
0.5999999995
0.5999999994
0.5999999989
0.5999999966
0.5999999866
0.5999999423
0.5999997476
0.5999989034
0.5999953557
0.5999813518
0.5999327437
0.5999999995
0.5999999995
0.5999999995
0.5999999995
0.5999999993
0.5999999988
0.5999999961
0.5999999839
0.5999999274
0.5999996628
0.5999984127
0.5999924988
0.5999649945
0.5998451517
0.5999999995
0.5999999995
0.5999999995
0.5999999995
0.5999999994
0.5999999989
0.5999999966
0.5999999866
0.5999999423
0.5999997476
0.5999989035
0.5999953561
0.599981354
0.5999327528
0.5999999995
0.5999999995
0.5999999995
0.5999999995
0.5999999994
0.599999999
0.5999999975
0.5999999912
0.5999999652
0.5999998602
0.5999994495
0.5999979239
0.5999927226
0.5999774554
0.5999439441
0.5999999995
0.5999999995
0.5999999995
0.5999999995
0.5999999994
0.5999999992
0.5999999983
0.5999999948
0.5999999815
0.5999999322
0.5999997579
0.5999991781
0.5999974232
0.5999928401
0.5999834547
0.5999999995
0.5999999995
0.5999999995
0.5999999995
0.5999999995
0.5999999993
0.5999999987
0.5999999966
0.599999989
0.599999963
0.5999998789
0.5999996245
0.5999989245
0.5999972402
0.5999938888
0.5999999995
0.5999999995
0.5999999995
0.5999999995
0.5999999995
0.5999999993
0.5999999989
0.5999999973
0.599999992
0.5999999744
0.5999999197
0.5999997614
0.599999344
0.5999983732
0.5999999995
0.5999999995
0.5999999995
0.5999999995
0.5999999995
0.5999999993
0.5999999986
0.5999999962
0.5999999873
0.5999999562
0.5999998524
0.599999529
0.5999986146
0.599996369
0.5999999995
0.5999999995
0.5999999995
0.5999999995
0.5999999994
0.5999999992
0.5999999981
0.5999999939
0.5999999777
0.5999999165
0.5999996952
0.5999989441
0.5999966288
0.599990498
0.5999999995
0.5999999995
0.5999999995
0.5999999995
0.5999999994
0.599999999
0.5999999975
0.5999999912
0.5999999652
0.5999998602
0.5999994494
0.5999979234
0.5999927204
0.5999774467
0.5999999995
0.5999999995
0.5999999995
0.5999999995
0.5999999994
0.599999999
0.5999999972
0.5999999897
0.5999999578
0.5999998231
0.5999992643
0.5999970217
0.5999885616
0.5999603643
0.5999999995
0.5999999995
0.5999999995
0.5999999995
0.5999999994
0.599999999
0.5999999975
0.5999999912
0.5999999652
0.5999998602
0.5999994494
0.5999979236
0.5999927209
0.5999774485
0.5999999995
0.5999999995
0.5999999995
0.5999999995
0.5999999994
0.5999999992
0.5999999981
0.5999999939
0.5999999777
0.5999999165
0.5999996953
0.5999989442
0.5999966293
0.5999904991
0.5999999995
0.5999999995
0.5999999995
0.5999999995
0.5999999995
0.5999999993
0.5999999986
0.5999999962
0.5999999873
0.5999999562
0.5999998525
0.5999995291
0.5999986149
0.5999963702
0.5999918849
0.5999999995
0.5999999995
0.5999999995
0.5999999995
0.5999999995
0.5999999993
0.5999999989
0.5999999973
0.599999992
0.5999999744
0.5999999197
0.5999997614
0.5999993442
0.599998374
0.5999964575
0.5999999995
0.5999999995
0.5999999995
0.5999999995
0.5999999995
0.5999999994
0.5999999991
0.5999999981
0.5999999947
0.599999984
0.5999999525
0.5999998654
0.5999996453
0.5999991478
0.5999999995
0.5999999995
0.5999999995
0.5999999995
0.5999999995
0.5999999994
0.5999999989
0.5999999974
0.5999999922
0.5999999749
0.5999999207
0.5999997625
0.5999993418
0.5999983574
0.5999999995
0.5999999995
0.5999999995
0.5999999995
0.5999999995
0.5999999993
0.5999999986
0.5999999962
0.5999999873
0.5999999562
0.5999998524
0.599999529
0.5999986145
0.599996369
0.5999999995
0.5999999995
0.5999999995
0.5999999995
0.5999999994
0.5999999992
0.5999999983
0.5999999948
0.5999999815
0.5999999322
0.5999997578
0.5999991778
0.5999974221
0.5999928364
0.5999999995
0.5999999995
0.5999999995
0.5999999995
0.5999999994
0.5999999992
0.5999999982
0.5999999941
0.5999999783
0.5999999182
0.599999697
0.5999989244
0.5999964409
0.5999895046
0.5999999995
0.5999999995
0.5999999995
0.5999999995
0.5999999994
0.5999999992
0.5999999983
0.5999999948
0.5999999815
0.5999999322
0.5999997578
0.5999991778
0.5999974223
0.5999928369
0.5999999995
0.5999999995
0.5999999995
0.5999999995
0.5999999995
0.5999999993
0.5999999986
0.5999999962
0.5999999873
0.5999999562
0.5999998525
0.599999529
0.5999986147
0.5999963693
0.5999999995
0.5999999995
0.5999999995
0.5999999995
0.5999999995
0.5999999994
0.5999999989
0.5999999974
0.5999999922
0.5999999749
0.5999999207
0.5999997625
0.5999993419
0.5999983575
0.5999999995
0.5999999995
0.5999999995
0.5999999995
0.5999999995
0.5999999994
0.5999999991
0.5999999981
0.5999999947
0.599999984
0.5999999525
0.5999998655
0.5999996454
0.5999991481
0.5999981682
0.5999999995
0.5999999995
0.5999999995
0.5999999995
0.5999999995
0.5999999994
0.5999999992
0.5999999985
0.5999999961
0.5999999891
0.5999999691
0.5999999159
0.5999997859
0.5999994986
0.5999999995
0.5999999995
0.5999999995
0.5999999995
0.5999999995
0.5999999994
0.5999999991
0.5999999981
0.5999999947
0.599999984
0.5999999525
0.5999998654
0.5999996453
0.5999991478
0.5999999995
0.5999999995
0.5999999995
0.5999999995
0.5999999995
0.5999999993
0.5999999989
0.5999999973
0.599999992
0.5999999744
0.5999999197
0.5999997613
0.599999344
0.5999983732
0.5999999995
0.5999999995
0.5999999995
0.5999999995
0.5999999995
0.5999999993
0.5999999987
0.5999999966
0.599999989
0.599999963
0.5999998789
0.5999996243
0.599998924
0.5999972385
0.5999999995
0.5999999995
0.5999999995
0.5999999995
0.5999999995
0.5999999993
0.5999999986
0.5999999962
0.5999999875
0.599999957
0.5999998561
0.5999995416
0.5999986478
0.5999964285
0.5999999995
0.5999999995
0.5999999995
0.5999999995
0.5999999995
0.5999999993
0.5999999987
0.5999999966
0.599999989
0.599999963
0.5999998789
0.5999996244
0.599998924
0.5999972386
0.5999999995
0.5999999995
0.5999999995
0.5999999995
0.5999999995
0.5999999993
0.5999999989
0.5999999973
0.599999992
0.5999999744
0.5999999197
0.5999997614
0.599999344
0.5999983733
0.5999999995
0.5999999995
0.5999999995
0.5999999995
0.5999999995
0.5999999994
0.5999999991
0.5999999981
0.5999999947
0.599999984
0.5999999525
0.5999998655
0.5999996453
0.5999991479
0.5999999995
0.5999999995
0.5999999995
0.5999999995
0.5999999995
0.5999999994
0.5999999992
0.5999999985
0.5999999961
0.5999999891
0.5999999691
0.5999999159
0.5999997859
0.5999994986
)
;

boundaryField
{
    top
    {
        type            zeroGradient;
    }
    bottom
    {
        type            zeroGradient;
    }
    side-walls
    {
        type            zeroGradient;
    }
    inlet
    {
        type            zeroGradient;
    }
    outlet
    {
        type            zeroGradient;
    }
    procBoundary0to1
    {
        type            processor;
        value           nonuniform List<scalar> 
97
(
0.599997948
0.5999981682
0.5999965114
0.5999933388
0.599988691
0.5999853723
0.5999886914
0.5999933393
0.5999965119
0.5999979483
0.5999981682
0.5999981682
0.5999932731
0.5999918847
0.5999851274
0.5999706546
0.5999570001
0.5999706563
0.5999851293
0.5999932741
0.5999965118
0.5999964574
0.5999918847
0.5999918847
0.5999610697
0.5999439392
0.5999075803
0.5998375353
0.5999075883
0.5999610753
0.5999851291
0.5999933392
0.599993888
0.5999834528
0.5999439392
0.5999439392
0.5997242488
0.599428985
0.5993646123
0.599724277
0.5999075873
0.5999706557
0.599988691
0.5999919599
0.599974649
0.5998901524
0.599428985
0.599428985
0.5978135854
0.599428992
0.5993646109
0.5998084848
0.5998375325
0.5999569989
0.5999853717
0.5999938881
0.599983454
0.5999439524
0.5998084945
0.599428992
0.5998084848
0.5998084848
0.5999075802
0.5999778972
0.5999706531
0.5999886902
0.5999964577
0.599991887
0.5999779017
0.5999439522
0.5998901523
0.5999439529
0.5999778972
0.5999778972
0.5999851274
0.5999964121
0.5999933383
0.5999981687
0.599996413
0.599991887
0.5999834539
0.599974649
0.5999834545
0.5999918867
0.5999964121
0.5999964121
0.5999965114
0.5999989328
0.5999989331
0.5999981687
0.5999964576
0.599993888
0.5999919599
0.5999938883
0.5999964577
0.5999981686
0.5999989328
)
;
    }
}


// ************************************************************************* //
