/*--------------------------------*- C++ -*----------------------------------*\
| =========                 |                                                 |
| \\      /  F ield         | OpenFOAM: The Open Source CFD Toolbox           |
|  \\    /   O peration     | Version:  4.x                                   |
|   \\  /    A nd           | Web:      www.OpenFOAM.org                      |
|    \\/     M anipulation  |                                                 |
\*---------------------------------------------------------------------------*/
FoamFile
{
    version     2.0;
    format      ascii;
    class       volScalarField;
    location    "2000";
    object      T;
}
// * * * * * * * * * * * * * * * * * * * * * * * * * * * * * * * * * * * * * //

dimensions      [0 0 0 1 0 0 0];

internalField   nonuniform List<scalar> 
1175
(
1223.149679
1223.149808
1223.149796
1223.149715
1223.149729
1223.149839
1223.149884
1223.14997
1223.150009
1223.150099
1223.150075
1223.150198
1223.150092
1223.150091
1223.150076
1223.152895
1223.152844
1223.153005
1223.15289
1223.152719
1223.152638
1223.152703
1223.152695
1223.15271
1223.152611
1223.152582
1223.152726
1223.152869
1223.153065
1223.153063
1223.152768
1223.15282
1223.152827
1223.152924
1223.152926
1223.152838
1223.152972
1223.152906
1223.152951
1223.152969
1223.153015
1223.153079
1223.153185
1223.15316
1223.153072
1223.149477
1223.149349
1223.149394
1223.149369
1223.149296
1223.149359
1223.149461
1223.149713
1223.149692
1223.149715
1223.149706
1223.149648
1223.149587
1223.149527
1223.149381
1223.149245
1223.149278
1223.149338
1223.149555
1223.149496
1223.149729
1223.149597
1223.149592
1223.149548
1223.149564
1223.149502
1223.149631
1223.149589
1223.149638
1223.149579
1223.149442
1223.149624
1223.149616
1223.149647
1223.149677
1223.149695
1223.149587
1223.149627
1223.149577
1223.149433
1223.149282
1223.149358
1223.14946
1223.149356
1223.149562
1223.152697
1223.15269
1223.152593
1223.152496
1223.152547
1223.152551
1223.152438
1223.152472
1223.152424
1223.152378
1223.152079
1223.152059
1223.151958
1223.151965
1223.151953
1223.148815
1223.148696
1223.148821
1223.148876
1223.148946
1223.14888
1223.148821
1223.148901
1223.148902
1223.148831
1223.148899
1223.148948
1223.148891
1223.148894
1223.148829
1223.14905
1223.148974
1223.149045
1223.149012
1223.14918
1223.149326
1223.149335
1223.149281
1223.149346
1223.149355
1223.149434
1223.149371
1223.149319
1223.149332
1223.149276
1223.152165
1223.152208
1223.152302
1223.152291
1223.152384
1223.152412
1223.152301
1223.152221
1223.152276
1223.152231
1223.152307
1223.152311
1223.152154
1223.152137
1223.14731
1223.147468
1223.147311
1223.147385
1223.147321
1223.147399
1223.14743
1223.147613
1223.147596
1223.147467
1223.147496
1223.147527
1223.147641
1223.147824
1223.147827
1223.149977
1223.149894
1223.149866
1223.149903
1223.149881
1223.14995
1223.149912
1223.149763
1223.149841
1223.149759
1223.149552
1223.149472
1223.149459
1223.149512
1223.14947
1223.149245
1223.14918
1223.149277
1223.149428
1223.149323
1223.149362
1223.149338
1223.149305
1223.149302
1223.149228
1223.149304
1223.149077
1223.149188
1223.149339
1223.149307
1223.153559
1223.153599
1223.153843
1223.153791
1223.153846
1223.153834
1223.153847
1223.153821
1223.153865
1223.154002
1223.15399
1223.154042
1223.153954
1223.153862
1223.153934
1223.149118
1223.149198
1223.14928
1223.149352
1223.149383
1223.149415
1223.149611
1223.149645
1223.149798
1223.149749
1223.149621
1223.149489
1223.149554
1223.149381
1223.149275
1223.150596
1223.150437
1223.150331
1223.150246
1223.150164
1223.149963
1223.1501
1223.150073
1223.150013
1223.149986
1223.149971
1223.150156
1223.150038
1223.150066
1223.149985
1223.150386
1223.150407
1223.15053
1223.150636
1223.150661
1223.150695
1223.150634
1223.15069
1223.150757
1223.150766
1223.150759
1223.150772
1223.150672
1223.150775
1223.150692
1223.15136
1223.151206
1223.151182
1223.151403
1223.151309
1223.151228
1223.151167
1223.151254
1223.1513
1223.151169
1223.151175
1223.151196
1223.151175
1223.151176
1223.150972
1223.150486
1223.150444
1223.150423
1223.15046
1223.150384
1223.150437
1223.150444
1223.150386
1223.150308
1223.150397
1223.150371
1223.150289
1223.150134
1223.150151
1223.153135
1223.153
1223.153029
1223.153059
1223.15296
1223.15279
1223.153013
1223.15309
1223.152929
1223.152918
1223.153028
1223.153216
1223.152994
1223.152954
1223.147894
1223.147984
1223.147871
1223.147867
1223.147777
1223.147616
1223.147857
1223.147886
1223.148041
1223.148131
1223.148091
1223.148119
1223.148224
1223.148334
1223.148363
1223.153576
1223.153603
1223.153605
1223.153451
1223.153483
1223.153474
1223.153411
1223.153381
1223.153312
1223.15326
1223.153257
1223.153426
1223.153566
1223.153572
1223.153572
1223.151051
1223.150858
1223.150812
1223.150824
1223.150937
1223.150865
1223.150838
1223.150743
1223.150857
1223.150877
1223.150771
1223.150636
1223.150838
1223.150869
1223.151041
1223.148234
1223.148314
1223.148356
1223.148525
1223.148415
1223.148472
1223.148293
1223.148478
1223.148553
1223.148671
1223.148901
1223.148937
1223.148933
1223.149014
1223.148932
1223.152272
1223.152321
1223.15223
1223.152387
1223.152576
1223.152411
1223.152607
1223.152522
1223.152418
1223.152434
1223.15232
1223.152376
1223.152279
1223.15249
1223.152352
1223.150202
1223.15027
1223.150083
1223.150052
1223.150199
1223.150251
1223.150167
1223.150196
1223.150062
1223.150062
1223.150091
1223.150073
1223.150129
1223.150028
1223.150106
1223.149737
1223.14964
1223.149877
1223.149925
1223.149908
1223.149881
1223.149866
1223.149852
1223.149779
1223.149811
1223.149794
1223.149649
1223.149699
1223.149664
1223.149761
1223.149588
1223.149617
1223.149507
1223.149423
1223.149557
1223.149476
1223.14945
1223.149562
1223.149868
1223.149947
1223.149815
1223.149853
1223.149934
1223.150069
1223.151321
1223.151398
1223.15135
1223.151327
1223.151327
1223.151373
1223.151361
1223.151367
1223.151251
1223.151131
1223.15125
1223.151247
1223.151297
1223.151191
1223.148562
1223.148756
1223.148849
1223.148778
1223.149025
1223.148913
1223.148811
1223.148817
1223.148891
1223.14907
1223.148945
1223.148857
1223.148915
1223.14908
1223.152213
1223.152426
1223.152499
1223.152803
1223.152782
1223.152611
1223.152709
1223.152589
1223.152663
1223.15259
1223.152699
1223.152781
1223.152663
1223.152805
1223.153013
1223.148219
1223.148138
1223.148176
1223.148123
1223.147959
1223.147953
1223.148038
1223.147952
1223.148157
1223.148057
1223.148144
1223.148106
1223.148183
1223.148519
1223.132874
1223.148024
1223.148106
1223.148008
1223.147914
1223.14778
1223.147847
1223.147858
1223.147779
1223.147826
1223.147932
1223.147749
1223.147765
1223.147834
1223.147905
1223.148473
1223.153863
1223.153853
1223.153973
1223.153913
1223.153884
1223.153955
1223.153832
1223.153873
1223.153953
1223.154023
1223.154053
1223.154073
1223.154001
1223.154138
1223.154257
1223.153108
1223.153095
1223.153089
1223.153089
1223.153248
1223.15313
1223.153043
1223.153011
1223.153083
1223.152923
1223.152956
1223.152683
1223.152889
1223.152714
1223.152684
1223.15152
1223.15146
1223.151536
1223.151358
1223.151282
1223.151477
1223.151618
1223.151723
1223.151732
1223.151677
1223.151678
1223.151756
1223.151737
1223.151606
1223.151606
1223.150954
1223.150949
1223.151019
1223.150947
1223.151032
1223.150986
1223.151018
1223.150869
1223.150901
1223.150613
1223.150679
1223.150679
1223.150637
1223.15079
1223.150731
1223.150529
1223.150624
1223.150494
1223.150484
1223.150321
1223.150288
1223.150189
1223.15021
1223.150305
1223.150354
1223.150259
1223.150347
1223.150569
1223.149416
1223.149519
1223.149501
1223.149569
1223.14951
1223.149582
1223.149797
1223.149761
1223.149861
1223.149765
1223.149707
1223.149655
1223.149801
1223.149785
1223.148326
1223.148357
1223.148281
1223.1481
1223.148137
1223.148023
1223.148104
1223.148085
1223.148153
1223.148274
1223.148077
1223.14819
1223.148209
1223.14835
1223.148953
1223.148996
1223.148969
1223.148906
1223.148958
1223.148954
1223.148905
1223.148907
1223.148928
1223.149001
1223.149188
1223.149262
1223.149432
1223.150422
1211.692966
1223.150386
1223.150332
1223.150426
1223.150248
1223.150307
1223.150308
1223.150291
1223.150195
1223.15017
1223.150199
1223.150229
1223.150326
1223.15033
1223.15072
1223.135172
1223.150641
1223.150624
1223.150757
1223.150682
1223.150837
1223.150698
1223.150872
1223.150806
1223.15094
1223.150969
1223.151134
1223.150987
1223.151038
1223.151086
1223.151332
1223.148555
1223.148311
1223.148531
1223.148636
1223.148718
1223.148701
1223.148903
1223.148898
1223.148744
1223.148855
1223.148729
1223.148652
1223.148652
1223.148614
1223.148692
1223.150029
1223.149974
1223.150018
1223.150006
1223.150088
1223.15021
1223.150118
1223.150026
1223.150078
1223.150131
1223.150073
1223.150089
1223.150117
1223.150279
1223.1501
1223.15188
1223.151759
1223.151665
1223.151739
1223.151681
1223.151679
1223.151679
1223.15155
1223.151487
1223.151606
1223.151629
1223.151712
1223.151684
1223.151594
1223.149565
1223.149452
1223.149449
1223.149599
1223.149586
1223.149596
1223.149738
1223.14969
1223.149713
1223.149895
1223.149828
1223.149755
1223.149764
1223.149785
1223.151544
1223.151433
1223.151517
1223.15159
1223.15169
1223.151583
1223.15155
1223.151702
1223.15152
1223.151461
1223.151163
1223.151308
1223.151413
1223.151528
1223.148481
1223.148549
1223.148549
1223.14849
1223.148439
1223.148332
1223.14835
1223.148333
1223.148127
1223.148019
1223.148059
1223.148124
1223.14813
1223.148327
1223.149943
1223.149891
1223.149958
1223.149925
1223.149934
1223.150069
1223.149833
1223.149757
1223.149885
1223.149878
1223.149953
1223.149727
1223.149713
1223.150116
1223.14856
1223.148572
1223.148569
1223.148498
1223.148467
1223.148536
1223.148583
1223.148671
1223.148768
1223.148673
1223.148654
1223.14869
1223.148766
1223.148899
1223.149069
1223.149014
1223.14892
1223.14894
1223.149131
1223.149115
1223.149011
1223.149202
1223.149142
1223.1492
1223.149418
1223.149322
1223.149333
1223.149443
1223.149292
1223.150027
1223.150025
1223.149865
1223.149755
1223.149751
1223.149817
1223.149864
1223.149931
1223.149882
1223.149732
1223.149885
1223.149942
1223.15018
1223.150252
1223.150269
1223.149983
1223.149947
1223.149705
1223.149772
1223.149742
1223.14983
1223.149998
1223.149925
1223.149871
1223.149804
1223.149967
1223.149955
1223.149939
1223.149855
1223.149877
1223.149917
1223.149958
1223.150024
1223.150045
1223.149945
1223.149992
1223.150066
1223.149993
1223.149999
1223.149887
1223.149936
1223.149815
1223.149612
1223.149669
1223.148817
1223.148709
1223.148719
1223.148663
1223.14884
1223.148757
1223.14898
1223.148976
1223.149038
1223.148961
1223.149084
1223.148921
1223.148908
1223.148812
1223.153471
1223.153589
1223.153589
1223.153424
1223.15358
1223.153873
1223.154091
1223.15414
1223.153981
1223.154122
1223.154067
1223.154113
1223.154014
1223.154029
1223.148484
1223.148451
1223.148498
1223.148495
1223.148524
1223.148417
1223.148335
1223.14831
1223.148406
1223.148347
1223.14838
1223.148461
1223.148594
1223.148646
1223.15204
1223.151836
1223.15198
1223.151925
1223.151972
1223.151778
1223.151958
1223.152149
1223.152035
1223.152011
1223.152189
1223.152049
1223.15202
1223.152018
1223.148848
1223.148731
1223.148697
1223.148692
1223.148698
1223.148723
1223.148856
1223.148735
1223.148578
1223.148572
1223.148723
1223.148617
1223.148556
1223.148532
1223.148269
1223.148146
1223.148042
1223.148179
1223.148111
1223.148186
1223.148185
1223.148095
1223.148109
1223.148229
1223.148305
1223.14837
1223.1483
1223.148395
1223.153511
1223.153353
1223.153313
1223.153503
1223.153576
1223.153548
1223.153522
1223.15367
1223.153708
1223.153843
1223.15373
1223.153825
1223.154002
1223.154072
1223.154167
1223.149026
1223.149102
1223.149184
1223.149223
1223.149332
1223.149545
1223.149545
1223.149592
1223.149692
1223.149725
1223.149768
1223.149655
1223.14968
1223.149551
1223.149652
1223.151535
1223.151792
1223.151638
1223.151578
1223.15153
1223.151459
1223.151486
1223.151443
1223.15147
1223.151467
1223.151583
1223.151639
1223.15162
1223.15172
1223.151699
1223.151652
1223.151611
1223.151589
1223.151362
1223.151424
1223.15145
1223.151541
1223.151578
1223.151622
1223.151628
1223.151485
1223.15159
1223.151392
1223.147962
1223.147769
1223.147741
1223.147905
1223.147975
1223.147729
1223.147578
1223.147563
1223.147577
1223.147706
1223.1477
1223.147762
1223.147669
1223.147778
1223.153345
1223.15349
1223.153322
1223.153186
1223.152934
1223.152976
1223.152912
1223.152908
1223.152917
1223.152869
1223.152868
1223.152899
1223.152855
1223.152814
1223.148093
1223.148091
1223.147918
1223.14788
1223.148172
1223.148122
1223.148361
1223.148394
1223.148334
1223.148541
1223.148437
1223.14832
1223.148173
1223.148107
1223.149687
1223.149711
1223.149908
1223.149925
1223.149807
1223.150039
1223.149887
1223.149848
1223.149711
1223.149689
1223.149616
1223.149484
1223.14956
1223.149615
1223.148284
1223.148298
1223.148301
1223.148348
1223.148491
1223.148468
1223.148545
1223.148578
1223.148714
1223.148618
1223.148762
1223.148644
1223.148436
1223.148407
1223.144453
1223.144514
1223.144663
1223.14462
1223.144546
1223.144559
1223.144644
1223.14449
1223.144413
1223.144523
1223.144539
1223.144701
1223.144802
1223.144729
1223.150605
1223.150494
1223.150488
1223.150436
1223.150371
1223.150549
1223.150389
1223.150413
1223.150242
1223.150206
1223.150372
1223.150355
1223.150308
1223.150198
1223.150287
1223.149641
1223.149638
1223.149863
1223.14982
1223.14975
1223.149697
1223.149692
1223.149702
1223.149836
1223.149776
1223.149757
1223.14975
1223.149815
1223.149854
1223.151849
1223.151775
1223.151817
1223.151717
1223.151684
1223.151743
1223.151623
1223.151415
1223.151374
1223.151292
1223.151141
1223.151134
1223.151206
1223.151268
1223.152149
1223.152106
1223.152166
1223.151983
1223.152015
1223.152153
1223.152083
1223.152063
1223.15211
1223.152033
1223.151855
1223.151889
1223.151741
1223.151655
1223.14939
1223.149315
1223.149431
1223.149464
1223.149301
1223.149253
1223.149169
1223.149173
1223.149256
1223.149138
1223.149095
1223.149018
1223.14911
1223.149199
1223.148755
1223.148777
1223.14879
1223.148815
1223.148905
1223.149008
1223.149045
1223.149116
1223.148994
1223.149034
1223.149156
1223.14923
1223.149377
1223.14921
1223.151787
1223.151715
1223.151702
1223.151818
1223.151832
1223.151773
1223.151793
1223.151715
1223.151809
1223.151846
1223.151708
1223.151481
1223.151452
1223.151352
1223.152283
1223.152295
1223.152328
1223.152295
1223.15234
1223.152375
1223.152353
1223.152517
1223.1526
1223.15249
1223.152518
1223.152405
1223.152367
1223.15251
1223.151231
1223.151234
1223.151235
1223.151107
1223.151158
1223.151249
1223.15121
1223.151116
1223.151074
1223.150987
1223.150943
1223.151048
1223.151137
1223.151177
1223.150924
1223.150848
1223.150845
1223.150899
1223.150804
1223.15071
1223.150673
1223.150707
1223.150587
1223.150594
1223.150666
1223.150664
1223.150749
1223.150767
)
;

boundaryField
{
    top
    {
        type            zeroGradient;
    }
    bottom
    {
        type            zeroGradient;
    }
    side-walls
    {
        type            zeroGradient;
    }
    inlet
    {
        type            zeroGradient;
    }
    outlet
    {
        type            zeroGradient;
    }
    procBoundary0to1
    {
        type            processor;
        value           nonuniform List<scalar> 
97
(
1223.150086
1223.152063
1223.153038
1223.152988
1223.149398
1223.149723
1223.149583
1223.151929
1223.148755
1223.149354
1223.152063
1223.152063
1223.147729
1223.152793
1223.149454
1223.149421
1223.153963
1223.149289
1223.150088
1223.150713
1223.150975
1223.150135
1223.152793
1223.152793
1223.148569
1223.149196
1223.153606
1223.150961
1223.149074
1223.152517
1223.150184
1223.149889
1223.150055
1223.151291
1223.149196
1223.149196
1223.153085
1223.132919
1223.132682
1223.148562
1223.154249
1223.152634
1223.151602
1223.150826
1223.150659
1223.149745
1223.132919
1223.132919
1211.681346
1223.134448
1223.135164
1223.149324
1223.151322
1223.148807
1223.14999
1223.151556
1223.149902
1223.151541
1223.148868
1223.134448
1223.149324
1223.149324
1223.149364
1223.148567
1223.150478
1223.149731
1223.149833
1223.148947
1223.154163
1223.148744
1223.152103
1223.148481
1223.148567
1223.148567
1223.154097
1223.144701
1223.149641
1223.151746
1223.151334
1223.147828
1223.152866
1223.148287
1223.149772
1223.14851
1223.144701
1223.144701
1223.150135
1223.150831
1223.149875
1223.15125
1223.151556
1223.149113
1223.149376
1223.151307
1223.152475
1223.151118
1223.150831
)
;
    }
}


// ************************************************************************* //
