/*--------------------------------*- C++ -*----------------------------------*\
| =========                 |                                                 |
| \\      /  F ield         | OpenFOAM: The Open Source CFD Toolbox           |
|  \\    /   O peration     | Version:  4.x                                   |
|   \\  /    A nd           | Web:      www.OpenFOAM.org                      |
|    \\/     M anipulation  |                                                 |
\*---------------------------------------------------------------------------*/
FoamFile
{
    version     2.0;
    format      ascii;
    class       volVectorField;
    location    "2000";
    object      U;
}
// * * * * * * * * * * * * * * * * * * * * * * * * * * * * * * * * * * * * * //

dimensions      [0 1 -1 0 0 0 0];

internalField   nonuniform List<vector> 
1175
(
(0.01099999948 8.461299246e-10 9.174982738e-10)
(0.0110000017 1.356472597e-09 1.262777614e-09)
(0.01100000048 2.558867075e-11 5.356096711e-10)
(0.01099999978 -3.41061494e-09 2.757279703e-09)
(0.0109999979 -3.940228694e-10 7.20185399e-10)
(0.01099999902 6.329495816e-10 1.547189754e-09)
(0.01099999797 -3.787975469e-10 1.424507487e-09)
(0.01099999711 -1.011050424e-09 1.581956621e-10)
(0.01099999834 -2.576001927e-10 -1.585221487e-09)
(0.01099999544 2.0950067e-09 -3.033656638e-09)
(0.01100000267 -1.669332941e-09 -2.961917609e-09)
(0.01099999707 -1.3804126e-09 -2.136895833e-09)
(0.01100003559 -1.325762866e-08 -1.330890029e-08)
(0.01100005205 -8.570969718e-09 -8.154719647e-09)
(0.01100012804 -3.966290919e-08 -3.732940659e-08)
(0.01100000021 -1.008426606e-09 5.594819376e-10)
(0.01099999865 -6.440389399e-10 -2.807242955e-09)
(0.01100000086 1.310283098e-10 1.534073006e-09)
(0.0110000005 -9.362590587e-10 1.825699731e-09)
(0.01100000003 -1.139309508e-09 6.867171485e-10)
(0.01099999677 3.203567976e-10 -8.606339127e-11)
(0.01099999639 5.466362668e-10 1.99969914e-10)
(0.01099999556 3.151260322e-10 6.539147097e-10)
(0.01099999734 5.235488792e-10 2.157521468e-10)
(0.01099998963 1.683614414e-10 2.014044367e-10)
(0.01099999973 -5.797487335e-09 -7.542558978e-11)
(0.01099998455 -6.354435453e-09 -8.554139423e-10)
(0.01100002733 -3.702370134e-08 -1.362786935e-08)
(0.01100002208 -3.18000264e-08 -4.755239039e-09)
(0.01100011065 -1.40418784e-07 -5.861894693e-08)
(0.01099999866 1.883152317e-09 8.49620981e-10)
(0.0109999993 1.141598067e-09 3.41038909e-10)
(0.01099999824 1.130564709e-09 7.275662325e-10)
(0.01099999988 -1.410013242e-10 2.383214444e-09)
(0.01100000142 1.259282167e-10 1.842179593e-09)
(0.01099999792 -5.804325486e-10 -6.34900776e-10)
(0.01099999834 3.080828695e-10 9.112788807e-10)
(0.01099999425 3.954631568e-10 2.666151213e-10)
(0.01099999878 1.985820543e-09 -2.342110595e-09)
(0.01099998494 2.608265431e-09 -5.057645542e-10)
(0.01099999523 -5.694779012e-09 -1.542451386e-09)
(0.0109999593 -4.069433358e-09 -1.31753925e-09)
(0.01100000385 -3.934351027e-08 -1.663663032e-08)
(0.01099994021 -2.329681356e-08 -6.033210416e-09)
(0.01100005475 -1.793040578e-07 -1.223329937e-07)
(0.01099999993 -7.938900277e-10 3.54108518e-10)
(0.01099999956 1.694153364e-09 1.487747231e-09)
(0.01099999911 -2.476216613e-10 1.343283362e-09)
(0.01099999912 1.424341265e-09 -3.927038135e-10)
(0.01099999904 6.473618077e-10 -1.369982079e-10)
(0.01099999883 -5.948327297e-10 8.44443606e-10)
(0.01099999954 -7.191860551e-10 8.911648856e-10)
(0.01099999623 1.10422669e-09 1.721287263e-10)
(0.01099999965 1.397189715e-09 4.619336352e-10)
(0.01099998496 2.028088698e-09 1.382156752e-09)
(0.01099999752 -3.667392574e-09 3.730177261e-09)
(0.0109999522 -3.442264061e-09 5.622846589e-09)
(0.01099999814 -5.103547627e-08 -1.363572364e-08)
(0.01099987779 -3.906608777e-08 4.881953997e-09)
(0.01100003355 -2.879313768e-07 -1.754659149e-07)
(0.0109999998 1.773776166e-10 -1.746411263e-09)
(0.01099999833 -7.580680249e-10 -1.777248226e-09)
(0.01099999839 1.28878994e-09 -1.189191771e-09)
(0.01100000011 7.863235119e-10 -7.119382895e-10)
(0.01099999704 -1.365262721e-09 2.863046926e-10)
(0.01100000022 -1.839070437e-09 5.959353027e-11)
(0.01100000151 7.069055541e-10 1.389911342e-09)
(0.01099999706 -6.617588548e-10 2.101623508e-09)
(0.0110000006 -6.67670484e-10 1.671359742e-09)
(0.01099997987 -6.008927743e-10 2.311081819e-09)
(0.01099998892 -7.137778875e-10 2.668344511e-09)
(0.01099991405 -8.865599124e-10 4.690116806e-09)
(0.01099995708 1.143433724e-09 -2.602100354e-08)
(0.0109996994 -6.285955974e-10 -3.825664941e-09)
(0.01099992972 -1.266738393e-09 -4.313601372e-07)
(0.01099999934 -1.226746492e-09 9.380864256e-10)
(0.01100000114 -6.99686201e-10 1.706696164e-09)
(0.01099999807 -3.571707106e-10 -2.119003875e-10)
(0.01100000017 -3.716456864e-10 1.133563889e-09)
(0.0109999994 4.707324373e-10 -1.62078885e-10)
(0.01100000284 4.202405956e-10 3.683981097e-10)
(0.01100000073 -1.154184744e-09 2.361700379e-09)
(0.01099999708 -5.781879265e-10 3.28205057e-09)
(0.01099999934 2.494860468e-10 2.360395492e-09)
(0.01099998592 -8.698236264e-10 1.250269621e-09)
(0.01099999421 4.607655561e-09 3.054348502e-09)
(0.01099994695 5.081475734e-09 6.674830307e-09)
(0.01099999937 4.994246115e-08 -9.98409581e-09)
(0.01099987688 3.93287836e-08 6.507114999e-09)
(0.01100003347 2.887225695e-07 -1.761949879e-07)
(0.01100000025 -2.392188547e-10 4.557225886e-10)
(0.01100000078 4.589439288e-10 -3.883095058e-10)
(0.01100000106 -1.298186171e-09 3.365813242e-10)
(0.01099999641 1.222982434e-09 -1.289227111e-09)
(0.01099999672 2.656084913e-10 -1.02341448e-09)
(0.01099999734 -1.739120042e-09 7.227174201e-10)
(0.01099999888 -1.25091442e-09 -4.319273482e-10)
(0.0109999977 -1.25969488e-09 4.833938524e-10)
(0.01099999744 -3.005132262e-09 3.398712554e-09)
(0.01099998575 -3.364756741e-09 8.520681955e-10)
(0.01099999622 3.308597887e-09 -4.918918932e-10)
(0.01099996095 1.041865615e-09 4.988706716e-10)
(0.01100000181 3.808732764e-08 -1.866699498e-08)
(0.01099993953 2.198602668e-08 -4.095507217e-09)
(0.01100005385 1.786641e-07 -1.217651052e-07)
(0.01100000061 -5.647201628e-10 -5.357957357e-10)
(0.01099999663 4.258479204e-10 1.799917517e-09)
(0.01099999848 1.086579653e-09 2.908495518e-09)
(0.0110000003 -5.361385531e-10 -1.013629886e-09)
(0.01099999789 -3.033046749e-10 2.038146507e-10)
(0.01099999795 7.073273136e-10 1.759342976e-09)
(0.01099999754 -4.246545242e-10 3.514557833e-09)
(0.01099999647 -1.949536051e-09 1.829990489e-09)
(0.01099999987 -1.756347366e-09 7.265898764e-10)
(0.01099999019 -5.912513063e-11 8.001941311e-10)
(0.01100000121 5.873235469e-09 -7.780470541e-10)
(0.01099998471 5.893446317e-09 1.274757711e-09)
(0.01100002706 3.749951545e-08 -1.460704828e-08)
(0.01100002166 3.12931409e-08 -4.576823769e-09)
(0.01100010733 1.394522972e-07 -5.803646344e-08)
(0.01100000086 8.06409979e-10 -7.266460031e-11)
(0.01099999927 5.735824975e-10 -1.428080097e-09)
(0.01099999946 7.863272946e-10 -1.421120334e-09)
(0.01099999732 1.129961622e-09 1.780862168e-09)
(0.01099999837 1.830161871e-09 1.832452277e-09)
(0.01099999899 5.325246749e-10 1.121019979e-09)
(0.01099999684 -6.305431399e-10 3.873603228e-09)
(0.01099999454 -4.299415203e-10 2.894196538e-09)
(0.01100000001 -1.342104633e-11 1.187151112e-09)
(0.01099999455 -1.376682232e-09 3.728960541e-09)
(0.01100000601 8.634303009e-10 -9.764548263e-10)
(0.01099999768 1.414692018e-09 -6.526651279e-10)
(0.01100003546 1.210958034e-08 -1.491114164e-08)
(0.01100005253 8.288012263e-09 -8.805821622e-09)
(0.01100012739 3.974318542e-08 -3.971889007e-08)
(0.01099999895 -8.309032323e-11 -8.275484404e-10)
(0.01099999995 1.055849408e-09 1.875504428e-10)
(0.0109999995 5.918259838e-10 -2.707808383e-10)
(0.01099999746 -1.75687825e-10 1.123277586e-09)
(0.01100000088 8.400506465e-10 1.478281435e-09)
(0.01099999973 -8.610723698e-10 1.092833466e-09)
(0.01099999689 -1.42837353e-09 9.532534662e-11)
(0.01099999563 7.527489155e-10 5.718067065e-10)
(0.01099999861 -1.549826997e-09 4.732625016e-10)
(0.01099999048 1.177973313e-09 -2.255438659e-10)
(0.01100000099 -7.855412084e-10 -8.034465333e-09)
(0.01099998311 1.680036447e-10 -7.897231455e-09)
(0.01100002607 -1.331635482e-08 -3.874049081e-08)
(0.01100002002 -5.331805766e-09 -3.084028425e-08)
(0.0109999996 -1.105511923e-09 -8.703773848e-10)
(0.01099999909 2.463140014e-10 5.836730942e-10)
(0.01099999866 4.877489492e-11 5.679955735e-12)
(0.01099999965 -1.502534097e-09 1.657222779e-09)
(0.01099999928 -6.049209018e-10 8.853272564e-10)
(0.01099999837 2.231095234e-10 4.297524762e-10)
(0.01099999933 -5.445817963e-10 1.262271818e-09)
(0.01099999385 -1.134236345e-10 5.190599437e-10)
(0.01099999974 8.018855138e-10 1.255525563e-09)
(0.0109999907 5.162700198e-10 1.51421842e-09)
(0.01099999848 -4.153103414e-09 -4.079057183e-09)
(0.01099996984 -3.264530889e-09 -3.074131857e-09)
(0.01100001933 -4.311055973e-08 -4.393421776e-08)
(0.01099997073 -2.652805079e-08 -2.621952943e-08)
(0.01100008458 -2.24676361e-07 -2.246804744e-07)
(0.01100000046 1.730048701e-09 -8.345117748e-10)
(0.01099999886 1.019387779e-09 2.554901703e-10)
(0.01099999927 -6.703335844e-11 5.787463345e-10)
(0.01099999832 7.592039051e-10 2.095377684e-09)
(0.01099999996 -5.24074237e-10 1.173998241e-09)
(0.01099999969 8.451208349e-10 1.796380479e-09)
(0.0109999988 3.588262803e-10 1.522272856e-09)
(0.01099999378 1.370476725e-09 2.141942258e-09)
(0.01100000035 1.359485246e-09 2.847635808e-09)
(0.01099998637 4.30897987e-09 3.94430108e-09)
(0.01099999602 1.088270141e-09 -1.030026864e-09)
(0.0109999408 4.897967248e-09 2.519833502e-09)
(0.01099998805 -3.476377939e-08 -5.735827124e-08)
(0.0109998393 -9.530771277e-09 -2.647046352e-08)
(0.01099999386 -3.024732506e-07 -4.884567255e-07)
(0.01099999894 -5.70778083e-12 -1.551770855e-09)
(0.01099999655 2.960650661e-10 -8.63287836e-10)
(0.01100000202 -5.084164551e-12 -1.315115739e-09)
(0.0110000001 1.981103938e-10 1.008022368e-10)
(0.01100000018 8.663300497e-11 1.034118546e-09)
(0.01099999997 -3.614274134e-10 1.590442513e-09)
(0.01099999716 1.565236724e-09 1.637447889e-09)
(0.01099999676 2.152408182e-09 2.040975317e-09)
(0.01100000069 2.962597953e-09 5.862361749e-09)
(0.01099998641 3.224826944e-09 8.337824013e-09)
(0.01100000105 -3.410669893e-11 1.217086832e-08)
(0.01099993872 3.747600317e-09 1.441353799e-08)
(0.01099997832 -5.947538119e-08 -3.401009382e-08)
(0.01099973951 -3.666671578e-08 -1.05430429e-09)
(0.01099993947 -6.102788144e-07 -7.862514683e-07)
(0.01099999993 -1.389466194e-09 -6.82765125e-11)
(0.01099999807 1.46474143e-09 -1.719827073e-10)
(0.01100000109 8.239406358e-10 -4.997245232e-10)
(0.01100000057 4.34898076e-10 7.852843208e-10)
(0.01100000197 -8.792414875e-10 7.802995707e-10)
(0.0109999989 -1.286782139e-09 7.803580152e-10)
(0.01100000203 1.327075727e-10 3.981958047e-09)
(0.01099999767 1.422860286e-09 4.629965007e-09)
(0.01099999946 -1.169116479e-10 7.124092268e-09)
(0.01099998481 -6.686074387e-10 1.212934602e-08)
(0.01099999427 -1.051663425e-09 1.791689217e-08)
(0.01099988799 -6.999901387e-10 3.062138763e-08)
(0.0109999153 -2.559941915e-10 -7.210193452e-08)
(0.01099934106 -3.291400239e-10 -8.446677934e-09)
(0.01099968692 -3.039771737e-10 -1.946659237e-06)
(0.01100000061 -1.874620305e-10 -3.594617986e-10)
(0.01099999931 -7.407507475e-10 -1.080919835e-10)
(0.01099999966 -7.602546992e-11 1.074239105e-09)
(0.01099999786 9.948887374e-10 -1.790796546e-10)
(0.01100000056 -1.162496442e-09 4.266405546e-10)
(0.01100000003 -5.461563806e-10 6.583884757e-10)
(0.01100000136 -3.467906236e-10 1.044167393e-09)
(0.01099999916 -1.99573511e-09 2.142463903e-09)
(0.01099999939 -1.845481894e-09 6.102340709e-09)
(0.01099999156 -4.106114603e-09 8.484270042e-09)
(0.01099999984 -6.449397095e-10 1.296813851e-08)
(0.01099993789 -4.052977616e-09 1.646881099e-08)
(0.01099998119 5.906343166e-08 -3.258863041e-08)
(0.01099973532 3.623404439e-08 -5.55206431e-10)
(0.01099993841 6.083442517e-07 -7.857883557e-07)
(0.0109999999 -1.15408374e-09 -1.126212375e-09)
(0.01100000029 -4.259015055e-10 -1.7671753e-10)
(0.010999999 1.249357081e-09 3.226247098e-10)
(0.01099999801 -8.451757793e-10 1.41828993e-09)
(0.01099999958 4.822900029e-10 -2.795913772e-10)
(0.01099999749 -6.89257398e-10 1.629002612e-09)
(0.0110000008 -1.464301991e-09 1.689196252e-09)
(0.01099999672 -2.685057752e-09 2.28570352e-09)
(0.01099999508 -3.315437989e-09 1.941873979e-09)
(0.01099998621 -3.198249898e-09 3.939853651e-09)
(0.01099999409 -1.784786256e-09 2.127172339e-09)
(0.01099994421 -5.364737299e-09 4.569987138e-09)
(0.01099998588 3.58014829e-08 -5.671109871e-08)
(0.01099983334 8.477622963e-09 -2.689107079e-08)
(0.01099999324 3.028055957e-07 -4.87355772e-07)
(0.01100000075 -4.257482228e-10 -4.189070031e-10)
(0.01100000193 1.634110477e-10 -1.782011291e-09)
(0.01099999898 6.130034835e-10 -5.011410868e-11)
(0.01099999826 9.895564685e-10 4.349651226e-10)
(0.0109999994 1.026137717e-09 5.998812734e-10)
(0.01099999831 -1.04493575e-10 5.255361808e-10)
(0.01099999853 -9.621576795e-10 1.501494897e-09)
(0.01099999305 -1.295163457e-09 1.908003732e-09)
(0.01099999739 -3.657394243e-10 2.091926745e-09)
(0.01099998842 -3.021298926e-09 1.563767304e-09)
(0.0110000008 3.106962106e-09 -1.342547708e-09)
(0.01099997295 2.610754739e-09 -2.58322727e-09)
(0.0110000165 4.29063145e-08 -4.341063351e-08)
(0.01099996983 2.429109788e-08 -2.645464411e-08)
(0.0110000818 2.238244997e-07 -2.22272792e-07)
(0.01100000139 3.52315457e-10 -3.52824623e-11)
(0.01100000002 1.589676428e-09 7.095283469e-10)
(0.01099999807 1.555332912e-09 -4.517796034e-10)
(0.0109999984 1.48317942e-09 1.301325246e-10)
(0.01099999699 5.810690848e-10 -1.321164207e-09)
(0.0109999974 4.533907197e-10 -1.833563607e-10)
(0.01099999623 -1.618351932e-09 -5.410352238e-10)
(0.01099999382 -7.973667817e-10 6.617403899e-10)
(0.01099999832 -3.295350359e-09 -8.85562781e-10)
(0.01099998898 -2.060284236e-09 6.312218658e-10)
(0.01100000321 -5.630625597e-10 -5.819839102e-09)
(0.01099998631 -5.585502076e-10 -5.627141082e-09)
(0.01100002828 1.123123482e-08 -3.758193676e-08)
(0.01100001944 4.886653919e-09 -3.131769862e-08)
(0.01100010999 5.79509852e-08 -1.398195764e-07)
(0.01100000029 -8.671154342e-11 -2.151956361e-09)
(0.01100000014 1.472391467e-09 -3.096684541e-09)
(0.01099999991 1.154349817e-09 -1.697423354e-09)
(0.01099999955 -1.498269466e-09 -1.504433334e-09)
(0.0109999998 4.236908138e-10 -1.262018886e-09)
(0.01099999913 1.945850718e-09 -1.228761386e-09)
(0.01099999811 -1.289765773e-09 -8.657639584e-10)
(0.01099999434 1.231323938e-09 6.032385346e-10)
(0.01099999674 1.983342098e-09 -1.268888579e-09)
(0.01099998651 2.380175419e-09 -3.744964937e-10)
(0.01099999657 1.130040294e-09 -7.190401564e-09)
(0.01099995955 3.540506958e-09 -4.229213655e-09)
(0.01100000261 -1.86398402e-08 -3.878938019e-08)
(0.01099993916 -2.831136163e-09 -2.557128496e-08)
(0.01099999851 4.325719542e-10 -3.094588188e-09)
(0.01100000031 6.492990356e-10 -5.976849001e-10)
(0.01099999976 4.108910433e-10 -2.686085621e-10)
(0.01099999909 4.525247861e-10 6.96244664e-10)
(0.01099999753 -4.068186625e-10 -9.904598626e-11)
(0.01099999634 1.060013433e-09 -1.681876982e-09)
(0.0109999991 -1.970952332e-10 -8.679655103e-11)
(0.01099999576 2.244764936e-09 1.444160949e-09)
(0.01099999799 2.31592906e-09 2.34961259e-09)
(0.01099998588 4.825336389e-09 3.904812404e-09)
(0.01099999413 1.026355232e-09 -6.006189511e-11)
(0.01099994448 3.329645914e-09 2.703455483e-09)
(0.01099998881 -5.666157965e-08 -3.638609722e-08)
(0.0109998366 -2.788045709e-08 -9.422414559e-09)
(0.01099999903 -1.076986582e-10 -1.433450521e-09)
(0.01100000112 -4.95130051e-10 -1.484508752e-09)
(0.01099999977 -1.073844133e-09 -1.489315183e-09)
(0.01100000007 -1.28734153e-09 3.633234804e-09)
(0.0109999983 3.520987954e-10 1.469560755e-09)
(0.01099999726 1.26988081e-09 -1.197017449e-09)
(0.01099999895 2.570154322e-09 2.123159244e-09)
(0.01099999538 3.938483584e-09 2.649279143e-09)
(0.01100000306 6.346881695e-09 7.788366795e-09)
(0.01099998321 8.801467049e-09 9.682257505e-09)
(0.01099999146 1.552218094e-08 1.213939544e-08)
(0.01099990357 1.779178804e-08 1.757824856e-08)
(0.01099993372 -2.764062051e-08 -2.876605977e-08)
(0.0109995471 5.212329535e-09 3.783913508e-09)
(0.01099974966 -7.490442348e-07 -7.526594846e-07)
(0.01100000048 7.117422869e-10 -2.445911357e-09)
(0.01099999914 1.622841322e-10 -2.09888982e-09)
(0.01100000055 1.785576663e-10 3.834928806e-11)
(0.01100000038 -5.437991816e-10 6.234114263e-10)
(0.01100000273 -6.884386702e-10 3.141692686e-10)
(0.01099999954 -4.763058503e-12 -6.801970676e-10)
(0.011 1.925069377e-09 2.562268747e-09)
(0.01099999843 3.268965272e-09 5.493136567e-09)
(0.01100000515 4.811174767e-09 1.118023773e-08)
(0.0109999919 9.576733804e-09 1.725559625e-08)
(0.01099999787 1.239996878e-08 3.96529566e-08)
(0.01099991988 2.239443118e-08 3.982256621e-08)
(0.01099988703 -6.577688084e-08 7.798815647e-08)
(0.0109993357 -1.735887059e-08 3.504708175e-08)
(0.01099934455 -1.768263005e-06 -1.174788264e-06)
(0.01100000047 1.010353315e-09 -2.64689462e-09)
(0.01099999792 1.231045312e-09 -1.104782225e-09)
(0.01099999978 1.860452556e-09 9.336845094e-10)
(0.01099999748 6.826822327e-10 8.718669266e-10)
(0.01100000114 -4.656190475e-10 2.999061666e-10)
(0.01100000083 -7.780571973e-10 1.922876245e-09)
(0.01100000129 -8.683181156e-10 3.407029169e-09)
(0.01099999958 8.718623773e-10 6.373758227e-09)
(0.01100000648 2.041408769e-09 1.405486855e-08)
(0.01099999494 4.87754171e-10 2.632358178e-08)
(0.01100000056 -1.435333262e-09 6.136736777e-08)
(0.01099984569 4.026338908e-10 8.385045978e-08)
(0.01099975632 2.332974111e-10 1.163409093e-07)
(0.01099825837 -4.010239381e-11 6.29053278e-08)
(0.01099796986 -6.794598324e-11 -4.061663279e-06)
(0.01099999924 -1.645649682e-09 -1.434178831e-09)
(0.01100000002 -7.278513153e-10 -1.898888434e-09)
(0.01099999858 -7.558589346e-11 -4.954855567e-10)
(0.0109999988 -8.287217007e-10 -1.107922573e-09)
(0.0110000011 -5.26333176e-10 1.86725593e-09)
(0.01100000046 -1.122579263e-10 1.364955283e-09)
(0.01099999989 -2.404916077e-09 3.082496834e-09)
(0.01100000333 -4.54075658e-09 3.617579876e-09)
(0.0110000037 -5.771832854e-09 1.283635426e-08)
(0.01099999417 -1.057505889e-08 1.768343675e-08)
(0.0109999996 -1.200899578e-08 3.860639802e-08)
(0.01099992156 -2.315538574e-08 4.07206838e-08)
(0.01099988638 6.530501091e-08 7.917571629e-08)
(0.01099933424 1.579811386e-08 3.67992811e-08)
(0.01099934309 1.769004899e-06 -1.175409016e-06)
(0.01099999995 -5.240339256e-10 -1.339267808e-09)
(0.01100000275 -8.264503963e-10 -1.710588441e-09)
(0.01099999909 -3.06990729e-10 -7.949662314e-10)
(0.01100000012 2.276049142e-09 1.722901526e-09)
(0.01100000236 1.762857534e-09 3.096231593e-09)
(0.01099999623 3.796886257e-10 1.737688286e-09)
(0.0109999992 -1.640375636e-10 1.127595089e-09)
(0.01099999492 -3.611095522e-09 1.564147907e-09)
(0.01099999653 -8.989212987e-09 5.270239415e-09)
(0.01099998413 -1.036504038e-08 9.201598958e-09)
(0.01099999036 -1.324632428e-08 1.337494252e-08)
(0.01099990484 -1.786025646e-08 1.568768382e-08)
(0.01099993212 2.606018106e-08 -2.847956242e-08)
(0.01099954497 -6.198451164e-09 5.306374524e-09)
(0.01099974963 7.510163676e-07 -7.519922386e-07)
(0.01099999963 -3.867561844e-10 5.025944238e-10)
(0.01100000086 -3.803451122e-10 3.139247019e-10)
(0.01099999992 -5.706070424e-10 -5.880097058e-10)
(0.01099999834 -1.816034957e-09 -1.759647624e-10)
(0.01099999961 -2.036177843e-09 1.756483071e-09)
(0.01100000002 -2.533233081e-09 1.661526024e-09)
(0.01099999727 -4.332810092e-09 6.738694248e-10)
(0.01099999321 -3.268320271e-09 -7.101265356e-10)
(0.01099999686 -3.090469538e-09 3.383686902e-10)
(0.01099998513 -5.480015644e-09 3.709557281e-09)
(0.01099999377 -2.105742273e-09 -6.161510272e-10)
(0.01099994145 -4.484133914e-09 4.113259518e-09)
(0.01099998876 5.714498617e-08 -3.812895696e-08)
(0.01099983445 2.712045539e-08 -1.057485963e-08)
(0.0109999949 4.874518405e-07 -3.038834105e-07)
(0.01100000122 4.918099119e-11 -4.211121472e-10)
(0.01100000049 7.856102396e-10 -2.18736737e-09)
(0.01100000006 5.050963233e-10 -1.992588382e-09)
(0.01099999918 1.046473553e-09 -2.038930651e-09)
(0.01099999808 -2.066208616e-09 1.45244214e-10)
(0.01099999767 -2.416216197e-09 7.710082805e-11)
(0.01099999615 -1.301476023e-09 -6.338688896e-11)
(0.01099999551 -3.329191723e-09 -1.999083152e-09)
(0.01099999742 -1.826711641e-09 -1.994034333e-10)
(0.01099998434 -2.132758722e-09 5.544620736e-10)
(0.01099999679 -3.351451577e-09 -4.093178364e-09)
(0.01099996078 -1.108660537e-09 -4.817933035e-09)
(0.01100000357 1.823626386e-08 -3.920709632e-08)
(0.01099993948 3.51574041e-09 -2.362440212e-08)
(0.01100005519 1.225518681e-07 -1.786797198e-07)
(0.01099999975 7.278603748e-11 -2.853155434e-10)
(0.01100000003 -3.214155347e-10 -1.147214637e-09)
(0.01099999988 5.349531646e-10 -5.663477525e-10)
(0.01099999832 1.276562554e-09 -9.142162002e-10)
(0.01100000023 1.416061644e-09 -3.953859888e-10)
(0.01099999714 6.295449315e-10 8.384989614e-10)
(0.01099999741 -2.67509812e-10 9.549556657e-10)
(0.01099999386 1.038429771e-09 1.376044664e-09)
(0.0109999997 9.659073984e-10 1.433397931e-09)
(0.01099998434 1.86653295e-09 1.791126467e-09)
(0.0109999937 4.464757736e-09 -4.374823025e-09)
(0.010999949 5.520240904e-09 -4.294599158e-09)
(0.01099999545 -9.859469129e-09 -4.960828343e-08)
(0.01099987852 7.864429981e-09 -3.943063781e-08)
(0.01099999997 3.343695064e-10 -5.204174525e-10)
(0.0110000022 -8.851807251e-10 -1.044332646e-09)
(0.01100000058 -1.694506464e-09 -1.414409029e-09)
(0.01099999918 2.279861027e-09 -4.527235221e-11)
(0.01099999963 -7.578102978e-10 -4.216351276e-10)
(0.01099999757 -6.653177743e-10 5.706567475e-10)
(0.01100000049 1.020235631e-09 4.861971219e-10)
(0.01099999698 2.408331319e-09 2.025609214e-09)
(0.01100000062 6.126042405e-09 2.324232835e-09)
(0.01099998566 9.25800141e-09 3.674327278e-09)
(0.01099999969 1.343164727e-08 1.537955795e-10)
(0.01099993694 1.614028327e-08 4.138105112e-09)
(0.01099998071 -3.379898728e-08 -5.7751464e-08)
(0.01099973646 -2.097290043e-09 -3.531164481e-08)
(0.01099999879 -5.141763037e-10 -1.405513005e-09)
(0.01100000107 -8.385713885e-10 -9.027009356e-10)
(0.01100000126 7.201086682e-10 -5.315014327e-11)
(0.01100000029 3.341418941e-10 -4.959031276e-10)
(0.0109999991 1.026041719e-09 6.695927475e-10)
(0.01100000029 1.20096905e-09 5.115841794e-10)
(0.01100000006 2.866433281e-09 8.472381441e-10)
(0.01100000051 3.701729462e-09 2.967604273e-09)
(0.01100000521 1.136864174e-08 5.188482739e-09)
(0.01099999235 1.595526308e-08 9.603761783e-09)
(0.01099999985 4.041242455e-08 1.325547713e-08)
(0.01099991832 4.068088651e-08 2.343362497e-08)
(0.01099988543 7.867787069e-08 -6.671984862e-08)
(0.0109993359 3.634434545e-08 -1.551130435e-08)
(0.0109999995 7.705530747e-11 -1.393727087e-09)
(0.01100000044 3.625673785e-10 2.655538267e-10)
(0.01100000103 6.729770922e-10 -1.880637633e-10)
(0.01100000169 -1.170727011e-09 4.637145432e-10)
(0.01100000091 1.133285726e-10 -4.685745042e-10)
(0.01099999868 3.056308974e-10 -3.847236609e-10)
(0.01100000489 2.749244169e-09 1.211008334e-09)
(0.01100000475 6.02871781e-09 4.016479824e-09)
(0.01100001498 9.581760485e-09 1.19992795e-08)
(0.01100001844 1.837018909e-08 1.88717354e-08)
(0.01100001767 4.655276891e-08 4.612386784e-08)
(0.01100003695 6.768335472e-08 6.795398631e-08)
(0.01099970766 8.459752569e-08 8.187784293e-08)
(0.01099947565 2.487025241e-08 2.481308361e-08)
(0.01099719744 -3.917521556e-06 -3.922068858e-06)
(0.01100000171 1.145071102e-09 -9.981689587e-10)
(0.01100000053 6.860633159e-10 -1.313316889e-09)
(0.01100000179 4.213122052e-10 -8.938878274e-10)
(0.01100000066 1.242142848e-10 -1.084598322e-09)
(0.01099999918 -2.126610179e-10 9.656510792e-10)
(0.01100000222 1.428490848e-09 8.474156403e-11)
(0.01100000504 -1.780692217e-09 2.620430261e-09)
(0.01100000705 -8.761239991e-10 5.109470679e-09)
(0.01100002202 1.177251427e-10 1.574913569e-08)
(0.01100003541 -1.264914433e-10 3.275607684e-08)
(0.01100004407 -1.151162584e-09 8.200858076e-08)
(0.01100003519 3.278172096e-10 2.184826617e-07)
(0.01099937847 9.898023556e-10 2.779839605e-07)
(0.01099763398 1.972869608e-09 1.419086648e-06)
(0.01098831342 -1.174329102e-09 -1.874862688e-05)
(0.0109999997 -4.239270715e-10 -1.557012365e-09)
(0.01099999947 1.19124656e-10 -1.095261951e-11)
(0.01100000192 -1.749457217e-09 -1.403458903e-09)
(0.01100000191 -6.805035127e-10 8.025713962e-10)
(0.01100000099 -1.990977009e-10 1.608792401e-09)
(0.01100000131 -1.284566242e-09 2.699377187e-09)
(0.01100000352 -1.564724946e-09 2.541566243e-09)
(0.01100000441 -6.709623382e-09 3.926335481e-09)
(0.0110000156 -1.092687124e-08 9.073947408e-09)
(0.01100002117 -1.812318572e-08 1.651422835e-08)
(0.01100001579 -4.691217814e-08 4.571764826e-08)
(0.01100003575 -6.892339874e-08 6.783708246e-08)
(0.01099970921 -8.520692737e-08 8.332087026e-08)
(0.01099947307 -2.649421587e-08 2.515023295e-08)
(0.01099719688 3.917924153e-06 -3.918893774e-06)
(0.0109999992 1.068826003e-09 -9.005068873e-10)
(0.01099999858 5.696699692e-10 1.109510515e-09)
(0.01100000066 5.393307877e-10 -6.523747223e-10)
(0.01100000078 7.844399548e-10 -8.862763137e-10)
(0.01099999985 -6.018744769e-10 -4.861886425e-10)
(0.01099999862 -1.148489402e-09 -1.06773274e-09)
(0.0110000001 -1.893152922e-09 7.272717736e-11)
(0.01100000046 -5.74928497e-09 1.63265627e-09)
(0.01100000365 -1.242197392e-08 5.20292421e-09)
(0.01099999472 -1.879449218e-08 8.661873114e-09)
(0.01099999951 -4.120663445e-08 1.061300048e-08)
(0.01099991973 -4.183600343e-08 2.290490334e-08)
(0.01099988703 -8.084376975e-08 -6.766011798e-08)
(0.01099933573 -3.947136983e-08 -1.625452821e-08)
(0.01099934316 1.175608548e-06 -1.767606229e-06)
(0.0110000006 -3.738044921e-10 -1.293385847e-09)
(0.01099999872 1.518785134e-09 2.326449296e-10)
(0.01099999968 8.845664002e-10 1.543771697e-10)
(0.01099999989 -7.815439354e-10 -8.581958569e-11)
(0.01100000005 -1.188007512e-09 -2.231116333e-10)
(0.01099999771 -1.710636263e-09 -2.135064852e-10)
(0.01099999809 -3.416581244e-09 -1.54400897e-09)
(0.0109999958 -3.394360405e-09 4.747771317e-10)
(0.01100000122 -7.015207852e-09 2.886228232e-09)
(0.01099998815 -9.224911376e-09 4.037975354e-09)
(0.01099999728 -1.301364406e-08 3.034138185e-10)
(0.01099993517 -1.684765473e-08 2.994987336e-09)
(0.01099998128 3.220699481e-08 -5.89289098e-08)
(0.01099973869 9.982567483e-11 -3.475627084e-08)
(0.01099994157 7.847145805e-07 -6.079205677e-07)
(0.01100000069 4.479845316e-10 -1.239536187e-10)
(0.01099999912 -5.169156102e-10 -9.048410747e-10)
(0.01100000141 -1.352931014e-10 -1.928454662e-09)
(0.01099999807 -1.616383761e-09 -7.100654867e-10)
(0.0109999972 -6.529972837e-10 -6.233315672e-10)
(0.0109999965 -1.404946252e-10 -1.132663201e-09)
(0.01099999648 -3.195016175e-09 -1.126605682e-09)
(0.0109999965 -2.147866174e-09 1.05579957e-09)
(0.01099999747 -3.526026168e-09 5.416132421e-10)
(0.01099998667 -4.189651024e-09 1.007669871e-09)
(0.010999996 -4.805406033e-09 -5.377217604e-09)
(0.01099995038 -6.655718028e-09 -4.364810597e-09)
(0.0109999984 1.285127443e-08 -4.999629344e-08)
(0.01099987716 -5.388650233e-09 -3.918485707e-08)
(0.01100003727 1.763877464e-07 -2.890953757e-07)
(0.01100000007 5.552219226e-10 -1.573838735e-09)
(0.01099999967 4.890721437e-10 4.004990299e-10)
(0.011 8.862188862e-10 -1.301205006e-09)
(0.01099999997 1.120206851e-09 -2.079069453e-09)
(0.01100000221 9.119749659e-10 1.312072741e-11)
(0.010999998 2.666267063e-09 5.90524349e-10)
(0.01099999992 9.911509528e-10 -4.506720055e-10)
(0.01099999494 2.532146474e-09 4.459021238e-10)
(0.01099999832 3.981277191e-09 -5.236771427e-11)
(0.01099997785 3.730087559e-09 -1.496214889e-09)
(0.01099998796 6.802402605e-09 -5.055767069e-10)
(0.01099991216 1.042130112e-08 -1.275642645e-10)
(0.01099995673 -2.471349641e-08 -6.974125662e-10)
(0.01099969812 1.207916008e-09 -1.006331511e-09)
(0.01100000017 -4.473305929e-10 -9.332300059e-10)
(0.01100000021 8.000260721e-10 -2.208118062e-09)
(0.01100000098 -1.360322195e-11 -9.028829858e-10)
(0.01099999895 1.185423101e-09 -2.02475141e-09)
(0.01099999996 -8.289077502e-10 -9.230172125e-10)
(0.01099999921 2.728539408e-10 -6.920581742e-10)
(0.0109999995 1.532136233e-09 -2.050258535e-11)
(0.01099999619 3.540912741e-09 7.303154388e-10)
(0.01100000021 8.278628897e-09 1.281123295e-09)
(0.01099998193 1.24839122e-08 5.385147815e-10)
(0.01099999363 1.939298294e-08 -7.773524755e-10)
(0.01099988699 3.182987282e-08 -3.038158722e-10)
(0.01099991413 -7.13078739e-08 -1.591456303e-09)
(0.01099934028 -8.662811907e-09 -1.161074481e-09)
(0.0109999996 9.639717619e-10 -2.605135148e-09)
(0.01100000142 -4.046244152e-11 -1.037479918e-09)
(0.01100000021 1.797301783e-09 -1.978820181e-09)
(0.01099999974 9.296682322e-10 -4.329254987e-09)
(0.01099999823 -1.303386978e-09 -3.246468572e-09)
(0.010999999 6.871687672e-11 -2.603121304e-09)
(0.0110000022 3.529700694e-09 -7.466544757e-10)
(0.01100000041 7.512809642e-09 -7.402310763e-11)
(0.01100000982 1.705457042e-08 5.297454794e-10)
(0.0109999937 2.679797289e-08 -6.179772039e-10)
(0.01100000226 6.250108573e-08 6.124524802e-11)
(0.01099984506 8.632563224e-08 7.318313293e-10)
(0.01099975366 1.153842484e-07 6.547683759e-10)
(0.01099825808 6.349984445e-08 -4.563627937e-10)
(0.01099999974 2.113065136e-10 -5.129113843e-10)
(0.01100000174 7.533925183e-10 -7.484396621e-10)
(0.0110000015 -4.523140251e-11 -1.939651102e-09)
(0.01099999746 -8.595721938e-10 -2.728971256e-09)
(0.01099999943 1.648714972e-09 -2.944064961e-09)
(0.01100000146 1.892543765e-10 -1.327259042e-09)
(0.01100000657 2.173015738e-09 -1.242635608e-09)
(0.01100001001 5.087055655e-09 8.038858918e-10)
(0.01100002199 1.393775458e-08 7.69244657e-10)
(0.01100003716 3.16863114e-08 -9.90888339e-10)
(0.01100004224 8.281957762e-08 1.367835499e-09)
(0.01100003485 2.194736246e-07 1.08791233e-09)
(0.01099937764 2.786288812e-07 -4.132170954e-10)
(0.01099763079 1.417997419e-06 5.672297585e-10)
(0.01100000092 7.425272726e-10 -9.864704077e-10)
(0.01100000153 1.249937081e-09 -1.227104518e-09)
(0.0110000001 1.277722647e-09 -1.427663975e-09)
(0.01099999864 6.99852282e-10 -2.179341002e-09)
(0.01100000197 1.026204069e-09 -4.697914602e-10)
(0.01100000166 1.640980497e-09 2.424016401e-10)
(0.01100000804 -1.739147608e-10 -9.225341635e-10)
(0.01100001343 5.519741674e-10 -5.363868688e-10)
(0.01100003851 -2.789109302e-09 1.081468509e-09)