/*--------------------------------*- C++ -*----------------------------------*\
| =========                 |                                                 |
| \\      /  F ield         | OpenFOAM: The Open Source CFD Toolbox           |
|  \\    /   O peration     | Version:  4.x                                   |
|   \\  /    A nd           | Web:      www.OpenFOAM.org                      |
|    \\/     M anipulation  |                                                 |
\*---------------------------------------------------------------------------*/
FoamFile
{
    version     2.0;
    format      ascii;
    class       volScalarField;
    location    "2000";
    object      X_CO;
}
// * * * * * * * * * * * * * * * * * * * * * * * * * * * * * * * * * * * * * //

dimensions      [0 0 0 0 0 0 0];

internalField   nonuniform List<scalar> 
1175
(
0.400029131
0.400029131
0.400029131
0.400029131
0.400029131
0.4000291308
0.4000291301
0.400029128
0.4000291212
0.4000291007
0.4000290424
0.4000288877
0.4000285096
0.4000276739
0.4000260283
0.400029131
0.400029131
0.400029131
0.400029131
0.4000291309
0.4000291307
0.4000291298
0.4000291268
0.4000291169
0.400029086
0.4000289943
0.4000287408
0.4000281002
0.4000266531
0.4000238031
0.400029131
0.400029131
0.400029131
0.400029131
0.4000291309
0.4000291306
0.4000291293
0.4000291247
0.4000291091
0.4000290579
0.4000288987
0.4000284377
0.4000272228
0.4000243981
0.4000188207
0.400029131
0.400029131
0.400029131
0.400029131
0.4000291309
0.4000291304
0.4000291287
0.4000291225
0.4000291003
0.4000290247
0.4000287798
0.4000280387
0.4000259997
0.4000210939
0.4000113364
0.400029131
0.400029131
0.400029131
0.400029131
0.4000291309
0.4000291304
0.4000291285
0.4000291214
0.4000290959
0.4000290074
0.4000287133
0.4000277976
0.400025195
0.4000187343
0.4000057182
0.400029131
0.400029131
0.400029131
0.400029131
0.4000291309
0.4000291304
0.4000291287
0.4000291225
0.4000291003
0.4000290247
0.4000287798
0.4000280387
0.4000259997
0.400021094
0.4000113367
0.400029131
0.400029131
0.400029131
0.400029131
0.4000291309
0.4000291306
0.4000291293
0.4000291247
0.4000291091
0.4000290579
0.4000288987
0.4000284377
0.4000272229
0.4000243982
0.4000188211
0.400029131
0.400029131
0.400029131
0.400029131
0.4000291309
0.4000291307
0.4000291298
0.4000291268
0.4000291169
0.400029086
0.4000289943
0.4000287408
0.4000281002
0.4000266532
0.4000238035
0.400029131
0.400029131
0.400029131
0.400029131
0.400029131
0.4000291308
0.4000291301
0.400029128
0.4000291212
0.4000291007
0.4000290424
0.4000288877
0.4000285096
0.4000276741
0.4000260286
0.400029131
0.400029131
0.400029131
0.400029131
0.4000291309
0.4000291307
0.4000291298
0.4000291268
0.4000291169
0.400029086
0.4000289943
0.4000287408
0.4000281001
0.4000266528
0.400029131
0.400029131
0.400029131
0.400029131
0.4000291309
0.4000291306
0.4000291293
0.4000291249
0.4000291097
0.4000290594
0.4000289016
0.4000284409
0.4000272165
0.4000243515
0.4000186896
0.400029131
0.400029131
0.400029131
0.400029131
0.4000291309
0.4000291304
0.4000291285
0.4000291214
0.4000290955
0.400029005
0.4000287027
0.4000277608
0.4000250982
0.4000185613
0.4000055064
0.400029131
0.400029131
0.400029131
0.400029131
0.4000291308
0.4000291302
0.4000291275
0.4000291173
0.4000290785
0.400028935
0.400028427
0.4000267375
0.4000216243
0.4000082712
0.3999809349
0.400029131
0.400029131
0.400029131
0.400029131
0.4000291308
0.4000291301
0.4000291271
0.4000291153
0.4000290693
0.4000288942
0.4000282498
0.4000259991
0.4000187647
0.3999985624
0.39995527
0.400029131
0.400029131
0.400029131
0.400029131
0.4000291308
0.4000291302
0.4000291275
0.4000291173
0.4000290785
0.400028935
0.400028427
0.4000267376
0.4000216244
0.4000082717
0.3999809361
0.400029131
0.400029131
0.400029131
0.400029131
0.4000291309
0.4000291304
0.4000291285
0.4000291214
0.4000290955
0.400029005
0.4000287027
0.4000277609
0.4000250983
0.4000185618
0.4000055078
0.400029131
0.400029131
0.400029131
0.400029131
0.4000291309
0.4000291306
0.4000291293
0.4000291249
0.4000291097
0.4000290594
0.4000289016
0.4000284409
0.4000272166
0.4000243519
0.4000186909
0.400029131
0.400029131
0.400029131
0.400029131
0.4000291309
0.4000291307
0.4000291298
0.4000291268
0.4000291169
0.400029086
0.4000289943
0.4000287408
0.4000281002
0.4000266532
0.4000238034
0.400029131
0.400029131
0.400029131
0.400029131
0.4000291309
0.4000291306
0.4000291293
0.4000291247
0.4000291091
0.4000290579
0.4000288986
0.4000284376
0.4000272226
0.4000243975
0.400029131
0.400029131
0.400029131
0.400029131
0.4000291309
0.4000291304
0.4000291285
0.4000291214
0.4000290955
0.400029005
0.4000287027
0.4000277608
0.4000250979
0.4000185602
0.400029131
0.400029131
0.400029131
0.400029131
0.4000291308
0.40002913
0.400029127
0.4000291148
0.4000290676
0.4000288893
0.4000282446
0.4000260565
0.4000193125
0.4000014579
0.3999647516
0.400029131
0.400029131
0.400029131
0.400029131
0.4000291307
0.4000291297
0.4000291253
0.4000291069
0.4000290311
0.4000287251
0.4000275282
0.4000230819
0.4000079222
0.3999634272
0.3998657924
0.400029131
0.400029131
0.400029131
0.400029131
0.4000291307
0.4000291295
0.4000291244
0.4000291026
0.4000290095
0.4000286169
0.4000269885
0.4000204532
0.3999957986
0.3999136311
0.3997089063
0.400029131
0.400029131
0.400029131
0.400029131
0.4000291307
0.4000291297
0.4000291253
0.4000291069
0.4000290311
0.4000287251
0.4000275282
0.400023082
0.4000079229
0.3999634298
0.3998658001
0.400029131
0.400029131
0.400029131
0.400029131
0.4000291308
0.40002913
0.400029127
0.4000291148
0.4000290676
0.4000288893
0.4000282447
0.4000260566
0.4000193131
0.4000014602
0.3999647589
0.400029131
0.400029131
0.400029131
0.400029131
0.4000291309
0.4000291304
0.4000291285
0.4000291214
0.4000290955
0.400029005
0.4000287027
0.4000277609
0.4000250983
0.4000185618
0.4000055077
0.400029131
0.400029131
0.400029131
0.400029131
0.4000291309
0.4000291306
0.4000291293
0.4000291247
0.4000291091
0.4000290579
0.4000288987
0.4000284377
0.4000272228
0.4000243982
0.400018821
0.400029131
0.400029131
0.400029131
0.400029131
0.4000291309
0.4000291304
0.4000291287
0.4000291225
0.4000291003
0.4000290247
0.4000287797
0.4000280385
0.4000259993
0.4000210927
0.400029131
0.400029131
0.400029131
0.400029131
0.4000291308
0.4000291302
0.4000291275
0.4000291173
0.4000290785
0.400028935
0.4000284269
0.4000267374
0.4000216235
0.4000082684
0.400029131
0.400029131
0.400029131
0.400029131
0.4000291307
0.4000291297
0.4000291253
0.4000291069
0.4000290311
0.4000287251
0.4000275282
0.4000230816
0.4000079209
0.3999634205
0.400029131
0.400029131
0.400029131
0.4000291309
0.4000291306
0.4000291291
0.4000291225
0.4000290934
0.4000289644
0.4000283969
0.4000259362
0.4000155953
0.3999747767
0.3998331013
0.3994706815
0.400029131
0.400029131
0.400029131
0.4000291309
0.4000291305
0.4000291288
0.4000291211
0.4000290855
0.4000289208
0.4000281495
0.4000245052
0.4000072632
0.3999270699
0.3995776057
0.3983627248
0.400029131
0.400029131
0.400029131
0.4000291309
0.4000291306
0.4000291291
0.4000291225
0.4000290934
0.4000289644
0.4000283969
0.4000259363
0.4000155957
0.3999747789
0.3998331132
0.3994707321
0.400029131
0.400029131
0.400029131
0.400029131
0.4000291307
0.4000291297
0.4000291253
0.4000291069
0.4000290311
0.4000287251
0.4000275282
0.4000230819
0.4000079225
0.3999634289
0.3998657993
0.400029131
0.400029131
0.400029131
0.400029131
0.4000291308
0.4000291302
0.4000291275
0.4000291173
0.4000290785
0.400028935
0.4000284269
0.4000267375
0.4000216242
0.4000082713
0.3999809358
0.400029131
0.400029131
0.400029131
0.400029131
0.4000291309
0.4000291304
0.4000291287
0.4000291225
0.4000291003
0.4000290247
0.4000287798
0.4000280386
0.4000259996
0.4000210938
0.4000113365
0.400029131
0.400029131
0.400029131
0.400029131
0.4000291309
0.4000291304
0.4000291285
0.4000291214
0.4000290959
0.4000290074
0.4000287133
0.4000277975
0.4000251945
0.4000187326
0.400029131
0.400029131
0.400029131
0.400029131
0.4000291308
0.4000291301
0.4000291271
0.4000291153
0.4000290693
0.4000288942
0.4000282497
0.4000259987
0.4000187634
0.3999985577
0.400029131
0.400029131
0.400029131
0.400029131
0.4000291307
0.4000291295
0.4000291244
0.4000291026
0.4000290095
0.4000286169
0.4000269883
0.4000204524
0.3999957948
0.3999136139
0.400029131
0.400029131
0.400029131
0.4000291309
0.4000291305
0.4000291288
0.4000291211
0.4000290855
0.4000289208
0.4000281495
0.400024505
0.4000072619
0.3999270617
0.3995775492
0.400029131
0.400029131
0.400029131
0.4000291309
0.4000291305
0.4000291285
0.4000291192
0.4000290751
0.400028858
0.4000277529
0.4000218584
0.3999885763
0.399787648
0.3984813492
0.3892332248
0.400029131
0.400029131
0.400029131
0.4000291309
0.4000291305
0.4000291288
0.4000291211
0.4000290855
0.4000289208
0.4000281495
0.4000245051
0.4000072626
0.3999270675
0.3995775966
0.3983627149
0.400029131
0.400029131
0.400029131
0.400029131
0.4000291307
0.4000291295
0.4000291244
0.4000291026
0.4000290095
0.4000286169
0.4000269884
0.4000204528
0.3999957975
0.3999136281
0.3997089036
0.400029131
0.400029131
0.400029131
0.400029131
0.4000291308
0.4000291301
0.4000291271
0.4000291153
0.4000290693
0.4000288942
0.4000282497
0.4000259989
0.4000187643
0.3999985617
0.3999552694
0.400029131
0.400029131
0.400029131
0.400029131
0.4000291309
0.4000291304
0.4000291285
0.4000291214
0.4000290959
0.4000290074
0.4000287133
0.4000277976
0.4000251949
0.400018734
0.4000057179
0.400029131
0.400029131
0.400029131
0.400029131
0.4000291309
0.4000291304
0.4000291287
0.4000291225
0.4000291003
0.4000290247
0.4000287797
0.4000280385
0.4000259992
0.4000210927
0.400029131
0.400029131
0.400029131
0.400029131
0.4000291308
0.4000291302
0.4000291275
0.4000291173
0.4000290785
0.400028935
0.4000284269
0.4000267373
0.4000216234
0.4000082684
0.400029131
0.400029131
0.400029131
0.400029131
0.4000291307
0.4000291297
0.4000291253
0.4000291069
0.4000290311
0.4000287251
0.4000275281
0.4000230814
0.4000079201
0.3999634195
0.400029131
0.400029131
0.400029131
0.4000291309
0.4000291306
0.4000291291
0.4000291225
0.4000290934
0.4000289644
0.4000283969
0.4000259361
0.4000155945
0.3999747729
0.3998330852
0.400029131
0.400029131
0.400029131
0.4000291309
0.4000291305
0.4000291288
0.4000291211
0.4000290855
0.4000289208
0.4000281495
0.4000245049
0.4000072614
0.3999270597
0.3995775428
0.400029131
0.400029131
0.400029131
0.4000291309
0.4000291306
0.4000291291
0.4000291225
0.4000290934
0.4000289644
0.4000283969
0.4000259361
0.4000155948
0.3999747741
0.3998330895
0.400029131
0.400029131
0.400029131
0.400029131
0.4000291307
0.4000291297
0.4000291253
0.4000291069
0.4000290311
0.4000287251
0.4000275281
0.4000230816
0.4000079212
0.399963424
0.3998657833
0.400029131
0.400029131
0.400029131
0.400029131
0.4000291308
0.4000291302
0.4000291275
0.4000291173
0.4000290785
0.400028935
0.4000284269
0.4000267374
0.4000216239
0.4000082703
0.3999809334
0.400029131
0.400029131
0.400029131
0.400029131
0.4000291309
0.4000291304
0.4000291287
0.4000291225
0.4000291003
0.4000290247
0.4000287797
0.4000280386
0.4000259995
0.4000210935
0.400011336
0.400029131
0.400029131
0.400029131
0.400029131
0.4000291309
0.4000291306
0.4000291293
0.4000291247
0.4000291091
0.4000290579
0.4000288986
0.4000284376
0.4000272226
0.4000243975
0.400029131
0.400029131
0.400029131
0.400029131
0.4000291309
0.4000291304
0.4000291285
0.4000291214
0.4000290955
0.400029005
0.4000287027
0.4000277607
0.4000250978
0.4000185601
0.400029131
0.400029131
0.400029131
0.400029131
0.4000291308
0.40002913
0.400029127
0.4000291148
0.4000290676
0.4000288893
0.4000282446
0.4000260563
0.4000193118
0.4000014559
0.400029131
0.400029131
0.400029131
0.400029131
0.4000291307
0.4000291297
0.4000291253
0.4000291069
0.4000290311
0.4000287251
0.4000275281
0.4000230813
0.4000079199
0.3999634195
0.400029131
0.400029131
0.400029131
0.400029131
0.4000291307
0.4000291295
0.4000291244
0.4000291026
0.4000290095
0.4000286169
0.4000269882
0.4000204521
0.399995794
0.3999136129
0.400029131
0.400029131
0.400029131
0.400029131
0.4000291307
0.4000291297
0.4000291253
0.4000291069
0.4000290311
0.4000287251
0.4000275281
0.4000230814
0.4000079202
0.3999634204
0.400029131
0.400029131
0.400029131
0.400029131
0.4000291308
0.40002913
0.400029127
0.4000291148
0.4000290676
0.4000288893
0.4000282446
0.4000260563
0.400019312
0.4000014563
0.400029131
0.400029131
0.400029131
0.400029131
0.4000291309
0.4000291304
0.4000291285
0.4000291214
0.4000290955
0.400029005
0.4000287027
0.4000277608
0.4000250979
0.4000185607
0.400005505
0.400029131
0.400029131
0.400029131
0.400029131
0.4000291309
0.4000291306
0.4000291293
0.4000291247
0.4000291091
0.4000290579
0.4000288986
0.4000284376
0.4000272227
0.4000243978
0.4000188204
0.400029131
0.400029131
0.400029131
0.400029131
0.4000291309
0.4000291307
0.4000291298
0.4000291268
0.4000291169
0.400029086
0.4000289943
0.4000287408
0.4000281001
0.4000266528
0.400029131
0.400029131
0.400029131
0.400029131
0.4000291309
0.4000291306
0.4000291293
0.4000291249
0.4000291097
0.4000290593
0.4000289016
0.4000284408
0.4000272163
0.4000243512
0.400029131
0.400029131
0.400029131
0.400029131
0.4000291309
0.4000291304
0.4000291285
0.4000291214
0.4000290955
0.400029005
0.4000287027
0.4000277607
0.4000250977
0.4000185601
0.400029131
0.400029131
0.400029131
0.400029131
0.4000291308
0.4000291302
0.4000291275
0.4000291173
0.4000290785
0.400028935
0.4000284269
0.4000267372
0.4000216233
0.4000082683
0.400029131
0.400029131
0.400029131
0.400029131
0.4000291308
0.4000291301
0.4000291271
0.4000291153
0.4000290693
0.4000288942
0.4000282496
0.4000259986
0.4000187632
0.3999985576
0.400029131
0.400029131
0.400029131
0.400029131
0.4000291308
0.4000291302
0.4000291275
0.4000291173
0.4000290785
0.400028935
0.4000284269
0.4000267373
0.4000216234
0.4000082686
0.400029131
0.400029131
0.400029131
0.400029131
0.4000291309
0.4000291304
0.4000291285
0.4000291214
0.4000290955
0.400029005
0.4000287027
0.4000277607
0.4000250978
0.4000185603
0.400029131
0.400029131
0.400029131
0.400029131
0.4000291309
0.4000291306
0.4000291293
0.4000291249
0.4000291097
0.4000290593
0.4000289016
0.4000284409
0.4000272164
0.4000243512
0.400029131
0.400029131
0.400029131
0.400029131
0.4000291309
0.4000291307
0.4000291298
0.4000291268
0.4000291169
0.400029086
0.4000289943
0.4000287408
0.4000281001
0.4000266529
0.4000238028
0.400029131
0.400029131
0.400029131
0.400029131
0.400029131
0.4000291308
0.4000291301
0.400029128
0.4000291212
0.4000291007
0.4000290424
0.4000288876
0.4000285095
0.4000276738
0.400029131
0.400029131
0.400029131
0.400029131
0.4000291309
0.4000291307
0.4000291298
0.4000291268
0.4000291169
0.400029086
0.4000289943
0.4000287408
0.4000281001
0.4000266528
0.400029131
0.400029131
0.400029131
0.400029131
0.4000291309
0.4000291306
0.4000291293
0.4000291247
0.4000291091
0.4000290579
0.4000288986
0.4000284376
0.4000272226
0.4000243975
0.400029131
0.400029131
0.400029131
0.400029131
0.4000291309
0.4000291304
0.4000291287
0.4000291225
0.4000291003
0.4000290247
0.4000287797
0.4000280385
0.4000259992
0.4000210926
0.400029131
0.400029131
0.400029131
0.400029131
0.4000291309
0.4000291304
0.4000291285
0.4000291214
0.4000290959
0.4000290074
0.4000287133
0.4000277974
0.4000251944
0.4000187326
0.400029131
0.400029131
0.400029131
0.400029131
0.4000291309
0.4000291304
0.4000291287
0.4000291225
0.4000291003
0.4000290247
0.4000287797
0.4000280385
0.4000259992
0.4000210927
0.400029131
0.400029131
0.400029131
0.400029131
0.4000291309
0.4000291306
0.4000291293
0.4000291247
0.4000291091
0.4000290579
0.4000288986
0.4000284376
0.4000272226
0.4000243975
0.400029131
0.400029131
0.400029131
0.400029131
0.4000291309
0.4000291307
0.4000291298
0.4000291268
0.4000291169
0.400029086
0.4000289943
0.4000287408
0.4000281001
0.4000266528
0.400029131
0.400029131
0.400029131
0.400029131
0.400029131
0.4000291308
0.4000291301
0.400029128
0.4000291212
0.4000291007
0.4000290424
0.4000288876
0.4000285095
0.4000276738
)
;

boundaryField
{
    top
    {
        type            calculated;
        value           nonuniform List<scalar> 
134
(
0.400029131
0.400029131
0.400029131
0.400029131
0.400029131
0.400029131
0.400029131
0.400029131
0.400029131
0.400029131
0.400029131
0.400029131
0.400029131
0.400029131
0.400029131
0.400029131
0.400029131
0.400029131
0.400029131
0.400029131
0.400029131
0.400029131
0.400029131
0.400029131
0.400029131
0.400029131
0.400029131
0.400029131
0.400029131
0.400029131
0.400029131
0.400029131
0.400029131
0.400029131
0.400029131
0.400029131
0.400029131
0.4000291309
0.4000291309
0.4000291309
0.4000291309
0.4000291309
0.4000291309
0.4000291309
0.400029131
0.4000291308
0.4000291307
0.4000291306
0.4000291304
0.4000291304
0.4000291304
0.4000291306
0.4000291307
0.4000291308
0.4000291301
0.4000291298
0.4000291293
0.4000291287
0.4000291285
0.4000291287
0.4000291293
0.4000291298
0.4000291301
0.400029128
0.4000291268
0.4000291247
0.4000291225
0.4000291214
0.4000291225
0.4000291247
0.4000291268
0.400029128
0.4000291212
0.4000291169
0.4000291091
0.4000291003
0.4000290959
0.4000291003
0.4000291091
0.4000291169
0.4000291212
0.4000291007
0.400029086
0.4000290579
0.4000290247
0.4000290074
0.4000290247
0.4000290579
0.400029086
0.4000291007
0.4000290424
0.4000289943
0.4000288987
0.4000287798
0.4000287133
0.4000287797
0.4000288986
0.4000289943
0.4000290424
0.4000288877
0.4000287408
0.4000284377
0.4000280386
0.4000277976
0.4000280386
0.4000284376
0.4000287408
0.4000288876
0.4000285096
0.4000281002
0.4000272228
0.4000259996
0.4000251949
0.4000259995
0.4000272227
0.4000281001
0.4000285095
0.4000276741
0.4000266532
0.4000243982
0.4000210938
0.400018734
0.4000210935
0.4000243978
0.4000266529
0.4000276738
0.4000260286
0.4000238034
0.400018821
0.4000113365
0.4000057179
0.400011336
0.4000188204
0.4000238028
)
;
    }
    bottom
    {
        type            calculated;
        value           nonuniform List<scalar> 
127
(
0.400029131
0.400029131
0.400029131
0.400029131
0.400029131
0.400029131
0.400029131
0.400029131
0.400029131
0.400029131
0.400029131
0.400029131
0.400029131
0.400029131
0.400029131
0.400029131
0.400029131
0.400029131
0.400029131
0.400029131
0.400029131
0.400029131
0.400029131
0.400029131
0.400029131
0.400029131
0.400029131
0.400029131
0.400029131
0.400029131
0.400029131
0.400029131
0.400029131
0.400029131
0.400029131
0.400029131
0.400029131
0.4000291309
0.4000291309
0.4000291309
0.4000291309
0.4000291309
0.4000291309
0.4000291309
0.400029131
0.4000291308
0.4000291307
0.4000291306
0.4000291304
0.4000291304
0.4000291304
0.4000291306
0.4000291307
0.4000291308
0.4000291301
0.4000291298
0.4000291293
0.4000291287
0.4000291285
0.4000291287
0.4000291293
0.4000291298
0.4000291301
0.400029128
0.4000291268
0.4000291247
0.4000291225
0.4000291214
0.4000291225
0.4000291247
0.4000291268
0.400029128
0.4000291212
0.4000291169
0.4000291091
0.4000291003
0.4000290959
0.4000291003
0.4000291091
0.4000291169
0.4000291212
0.4000291007
0.400029086
0.4000290579
0.4000290247
0.4000290074
0.4000290247
0.4000290579
0.400029086
0.4000291007
0.4000290424
0.4000289943
0.4000288986
0.4000287797
0.4000287133
0.4000287797
0.4000288986
0.4000289943
0.4000290424
0.4000288877
0.4000287408
0.4000284376
0.4000280385
0.4000277975
0.4000280385
0.4000284376
0.4000287408
0.4000288876
0.4000285096
0.4000281001
0.4000272226
0.4000259993
0.4000251945
0.4000259992
0.4000272226
0.4000281001
0.4000285095
0.4000276739
0.4000266528
0.4000243975
0.4000210927
0.4000187326
0.4000210927
0.4000243975
0.4000266528
0.4000276738
0.4000260283
)
;
    }
    side-walls
    {
        type            calculated;
        value           nonuniform List<scalar> 
261
(
0.400029131
0.400029131
0.400029131
0.400029131
0.400029131
0.400029131
0.400029131
0.400029131
0.400029131
0.400029131
0.400029131
0.400029131
0.400029131
0.400029131
0.400029131
0.400029131
0.400029131
0.400029131
0.400029131
0.400029131
0.400029131
0.400029131
0.400029131
0.400029131
0.400029131
0.400029131
0.400029131
0.400029131
0.400029131
0.400029131
0.400029131
0.400029131
0.400029131
0.400029131
0.400029131
0.400029131
0.400029131
0.4000291309
0.4000291309
0.4000291309
0.4000291309
0.4000291309
0.4000291309
0.4000291309
0.400029131
0.4000291308
0.4000291307
0.4000291306
0.4000291304
0.4000291304
0.4000291304
0.4000291306
0.4000291307
0.4000291308
0.4000291301
0.4000291298
0.4000291293
0.4000291287
0.4000291285
0.4000291287
0.4000291293
0.4000291298
0.4000291301
0.400029128
0.4000291268
0.4000291247
0.4000291225
0.4000291214
0.4000291225
0.4000291247
0.4000291268
0.400029128
0.4000291212
0.4000291169
0.4000291091
0.4000291003
0.4000290959
0.4000291003
0.4000291091
0.4000291169
0.4000291212
0.4000291007
0.400029086
0.4000290579
0.4000290247
0.4000290074
0.4000290247
0.4000290579
0.400029086
0.4000291007
0.4000290424
0.4000289943
0.4000288987
0.4000287798
0.4000287133
0.4000287798
0.4000288987
0.4000289943
0.4000290424
0.4000288877
0.4000287408
0.4000284377
0.4000280387
0.4000277976
0.4000280387
0.4000284377
0.4000287408
0.4000288877
0.4000285096
0.4000281002
0.4000272228
0.4000259997
0.400025195
0.4000259997
0.4000272229
0.4000281002
0.4000285096
0.4000276739
0.4000266531
0.4000243981
0.4000210939
0.4000187343
0.400021094
0.4000243982
0.4000266532
0.4000276741
0.4000260283
0.4000238031
0.4000188207
0.4000113364
0.4000057182
0.4000113367
0.4000188211
0.4000238035
0.4000260286
0.400029131
0.400029131
0.400029131
0.400029131
0.400029131
0.400029131
0.400029131
0.400029131
0.400029131
0.400029131
0.400029131
0.400029131
0.400029131
0.400029131
0.400029131
0.400029131
0.400029131
0.400029131
0.400029131
0.400029131
0.400029131
0.400029131
0.400029131
0.400029131
0.400029131
0.400029131
0.400029131
0.400029131
0.400029131
0.400029131
0.400029131
0.400029131
0.400029131
0.400029131
0.400029131
0.400029131
0.400029131
0.4000291309
0.4000291309
0.4000291309
0.4000291309
0.4000291309
0.4000291309
0.4000291309
0.400029131
0.4000291308
0.4000291307
0.4000291306
0.4000291304
0.4000291304
0.4000291304
0.4000291306
0.4000291307
0.4000291308
0.4000291301
0.4000291298
0.4000291293
0.4000291287
0.4000291285
0.4000291287
0.4000291293
0.4000291298
0.4000291301
0.400029128
0.4000291268
0.4000291247
0.4000291225
0.4000291214
0.4000291225
0.4000291247
0.4000291268
0.400029128
0.4000291212
0.4000291169
0.4000291091
0.4000291003
0.4000290959
0.4000291003
0.4000291091
0.4000291169
0.4000291212
0.4000291007
0.400029086
0.4000290579
0.4000290247
0.4000290074
0.4000290247
0.4000290579
0.400029086
0.4000291007
0.4000290424
0.4000289943
0.4000288986
0.4000287797
0.4000287133
0.4000287797
0.4000288986
0.4000289943
0.4000290424
0.4000288876
0.4000287408
0.4000284376
0.4000280385
0.4000277974
0.4000280385
0.4000284376
0.4000287408
0.4000288876
0.4000285095
0.4000281001
0.4000272226
0.4000259992
0.4000251944
0.4000259992
0.4000272226
0.4000281001
0.4000285095
0.4000276738
0.4000266528
0.4000243975
0.4000210926
0.4000187326
0.4000210927
0.4000243975
0.4000266528
0.4000276738
)
;
    }
    inlet
    {
        type            calculated;
        value           nonuniform List<scalar> 
81
(
0.400029131
0.400029131
0.400029131
0.400029131
0.400029131
0.400029131
0.400029131
0.400029131
0.400029131
0.400029131
0.400029131
0.400029131
0.400029131
0.400029131
0.400029131
0.400029131
0.400029131
0.400029131
0.400029131
0.400029131
0.400029131
0.400029131
0.400029131
0.400029131
0.400029131
0.400029131
0.400029131
0.400029131
0.400029131
0.400029131
0.400029131
0.400029131
0.400029131
0.400029131
0.400029131
0.400029131
0.400029131
0.400029131
0.400029131
0.400029131
0.400029131
0.400029131
0.400029131
0.400029131
0.400029131
0.400029131
0.400029131
0.400029131
0.400029131
0.400029131
0.400029131
0.400029131
0.400029131
0.400029131
0.400029131
0.400029131
0.400029131
0.400029131
0.400029131
0.400029131
0.400029131
0.400029131
0.400029131
0.400029131
0.400029131
0.400029131
0.400029131
0.400029131
0.400029131
0.400029131
0.400029131
0.400029131
0.400029131
0.400029131
0.400029131
0.400029131
0.400029131
0.400029131
0.400029131
0.400029131
0.400029131
)
;
    }
    outlet
    {
        type            calculated;
        value           nonuniform 0();
    }
    procBoundary0to1
    {
        type            processor;
        value           nonuniform List<scalar> 
97
(
0.4000231624
0.4000238028
0.40001898
0.4000097405
0.3999962005
0.399986529
0.3999962009
0.400009741
0.4000189804
0.4000231627
0.4000238028
0.4000238028
0.4000095499
0.4000055047
0.399985822
0.3999436459
0.399903836
0.3999436473
0.3999858235
0.4000095509
0.4000189804
0.4000188202
0.4000055047
0.4000055047
0.3999157234
0.3998657797
0.3997597883
0.3995554589
0.399759795
0.3999157283
0.3999858234
0.4000097409
0.4000113355
0.399980932
0.3998657797
0.3998657797
0.3992250244
0.3983625732
0.3981746151
0.399225048
0.3997597942
0.399943647
0.3999962007
0.4000057169
0.3999552654
0.3997088825
0.3983625732
0.3983625732
0.3936297093
0.398362578
0.3981746148
0.3994706893
0.3995554577
0.3999038357
0.3999865288
0.4000113357
0.3999809332
0.3998657894
0.3994706954
0.398362578
0.3994706893
0.3994706893
0.3997597886
0.3999647521
0.3999436452
0.3999962002
0.4000188205
0.4000055065
0.3999647551
0.3998657896
0.3997088832
0.3998657902
0.3999647521
0.3999647521
0.399985822
0.4000186897
0.4000097403
0.4000238032
0.4000186904
0.4000055065
0.3999809333
0.3999552657
0.3999809337
0.4000055063
0.4000186897
0.4000186897
0.40001898
0.4000260283
0.4000260285
0.4000238032
0.4000188205
0.4000113357
0.400005717
0.4000113358
0.4000188206
0.4000238031
0.4000260283
)
;
    }
}


// ************************************************************************* //
