/*--------------------------------*- C++ -*----------------------------------*\
| =========                 |                                                 |
| \\      /  F ield         | OpenFOAM: The Open Source CFD Toolbox           |
|  \\    /   O peration     | Version:  4.x                                   |
|   \\  /    A nd           | Web:      www.OpenFOAM.org                      |
|    \\/     M anipulation  |                                                 |
\*---------------------------------------------------------------------------*/
FoamFile
{
    version     2.0;
    format      ascii;
    class       volScalarField;
    location    "2000";
    object      X_CO2;
}
// * * * * * * * * * * * * * * * * * * * * * * * * * * * * * * * * * * * * * //

dimensions      [0 0 0 0 0 0 0];

internalField   nonuniform List<scalar> 
1175
(
3.583557896e-10
3.591731523e-10
3.63129857e-10
3.784477403e-10
4.339329157e-10
6.278908729e-10
1.285500924e-09
3.442403113e-09
1.024719818e-08
3.073669865e-08
8.903802042e-08
2.438951985e-07
6.222439077e-07
1.458593441e-06
3.105816796e-06
3.58945174e-10
3.599274587e-10
3.647263623e-10
3.836698858e-10
4.540114801e-10
7.070920442e-10
1.593309201e-09
4.604908222e-09
1.447662505e-08
4.542513812e-08
1.371895037e-07
3.907884911e-07
1.031826942e-06
2.479948817e-06
5.332302043e-06
3.598747153e-10
3.611233644e-10
3.673029976e-10
3.922714895e-10
4.877175018e-10
8.427322571e-10
2.132540343e-09
6.695181509e-09
2.231115702e-08
7.355902909e-08
2.328570493e-07
6.940651528e-07
1.909538249e-06
4.7359514e-06
1.03173275e-05
3.607097822e-10
3.622100349e-10
3.697090491e-10
4.005332977e-10
5.20913272e-10
9.798833299e-10
2.694513859e-09
8.951979545e-09
3.112469265e-08
1.067349632e-07
3.517841873e-07
1.093198925e-06
3.133102424e-06
8.041353264e-06
1.780494908e-05
3.610428724e-10
3.626478747e-10
3.7070137e-10
4.04022256e-10
5.35240615e-10
1.040531129e-09
2.950473058e-09
1.001832459e-08
3.548292271e-08
1.240794967e-07
4.182556124e-07
1.334295361e-06
3.937909464e-06
1.04015547e-05
2.342499788e-05
3.607046361e-10
3.622049125e-10
3.697041421e-10
4.005290077e-10
5.20910798e-10
9.79886474e-10
2.694533432e-09
8.952039632e-09
3.112481326e-08
1.067349702e-07
3.517825566e-07
1.093187908e-06
3.13305163e-06
8.041175659e-06
1.780448421e-05
3.598640246e-10
3.611128729e-10
3.672930438e-10
3.922627777e-10
4.877118179e-10
8.427348172e-10
2.132563658e-09
6.695243461e-09
2.231121982e-08
7.355857794e-08
2.328531137e-07
6.940446037e-07
1.90945483e-06
4.735681135e-06
1.031667087e-05
3.589283718e-10
3.599115637e-10
3.647118687e-10
3.836574508e-10
4.540026017e-10
7.07090275e-10
1.593319762e-09
4.6049222e-09
1.447650928e-08
4.542408277e-08
1.371837496e-07
3.907634585e-07
1.031735022e-06
2.479667685e-06
5.331648892e-06
3.583295572e-10
3.591525736e-10
3.631132022e-10
3.784351201e-10
4.339257235e-10
6.27892903e-10
1.285518233e-09
3.442427822e-09
1.024709853e-08
3.07356969e-08
8.903262204e-08
2.438721385e-07
6.221596075e-07
1.458329632e-06
3.105163606e-06
3.589454271e-10
3.59927683e-10
3.647266883e-10
3.836706341e-10
4.540140117e-10
7.071020116e-10
1.593349264e-09
4.605065999e-09
1.447723727e-08
4.542746764e-08
1.371981871e-07
3.908205909e-07
1.031946579e-06
2.48041588e-06
3.596112164e-10
3.608098273e-10
3.66740284e-10
3.907089077e-10
4.824219032e-10
8.242105809e-10
2.069815164e-09
6.495522383e-09
2.173055961e-08
7.208479602e-08
2.29896705e-07
6.908559228e-07
1.916006401e-06
4.782874412e-06
1.044924863e-05
3.606627066e-10
3.622152941e-10
3.70025419e-10
4.024847375e-10
5.310868833e-10
1.030008099e-09
2.932129805e-09
1.003644882e-08
3.586808473e-08
1.264602948e-07
4.288464776e-07
1.371141771e-06
4.035019288e-06
1.057528376e-05
2.363852206e-05
3.616112642e-10
3.635029078e-10
3.731401608e-10
4.140346667e-10
5.803293528e-10
1.245452031e-09
3.87157929e-09
1.408073714e-08
5.293876529e-08
1.964996089e-07
7.047047429e-07
2.394710101e-06
7.509822826e-06
2.086828614e-05
4.821867657e-05
3.619910861e-10
3.640255046e-10
3.744420163e-10
4.190052465e-10
6.02132386e-10
1.344066624e-09
4.319823759e-09
1.611421899e-08
6.21043268e-08
2.372827341e-07
8.819351501e-07
3.133313409e-06
1.036986668e-05
3.05786507e-05
7.388896929e-05
3.61606288e-10
3.634979539e-10
3.731354342e-10
4.140306784e-10
5.803275892e-10
1.245456889e-09
3.871601797e-09
1.408079101e-08
5.29387587e-08
1.964986205e-07
7.04696711e-07
2.394664014e-06
7.509608983e-06
2.086748151e-05
4.821647006e-05
3.606525542e-10
3.622053079e-10
3.700160227e-10
4.024767661e-10
5.310828541e-10
1.030015179e-09
2.932164725e-09
1.003652866e-08
3.586807302e-08
1.264588075e-07
4.28835177e-07
1.371079935e-06
4.034744751e-06
1.057429222e-05
2.363591746e-05
3.595956228e-10
3.607950835e-10
3.667269267e-10
3.906978585e-10
4.824152933e-10
8.242136311e-10
2.069835953e-09
6.495543888e-09
2.173032956e-08
7.208267805e-08
2.298844235e-07
6.907974088e-07
1.915765513e-06
4.78202415e-06
1.044688375e-05
3.589224713e-10
3.599100619e-10
3.64712847e-10
3.836608602e-10
4.540100074e-10
7.071080138e-10
1.593369568e-09
4.605072541e-09
1.44769635e-08
4.542540601e-08
1.37187305e-07
3.907721271e-07
1.031753313e-06
2.479699124e-06
5.331686086e-06
3.598752133e-10
3.611238987e-10
3.673038172e-10
3.92273694e-10
4.87725433e-10
8.427638389e-10
2.132668268e-09
6.695695441e-09
2.23131863e-08
7.356686513e-08
2.328864472e-07
6.941719698e-07
1.909910715e-06
4.737178361e-06
3.606630338e-10
3.622156542e-10
3.70026034e-10
4.024864088e-10
5.310933105e-10
1.030034432e-09
2.932239261e-09
1.003690643e-08
3.58699846e-08
1.26468049e-07
4.288776955e-07
1.371265927e-06
4.035515193e-06
1.057732797e-05
3.61910928e-10
3.639677492e-10
3.745284925e-10
4.198905623e-10
6.071291013e-10
1.368853301e-09
4.433037509e-09
1.65860579e-08
6.382557019e-08
2.421523667e-07
8.870940356e-07
3.076046752e-06
9.822721972e-06
2.768555776e-05
6.441369026e-05
3.630432631e-10
3.655908931e-10
3.78878604e-10
4.373856375e-10
6.864979698e-10
1.737822222e-09
6.151682509e-09
2.455020361e-08
1.003318507e-07
4.063907464e-07
1.603679226e-06
6.051316511e-06
2.121542495e-05
6.57247174e-05
0.0001633994765
3.634990954e-10
3.662563652e-10
3.807277685e-10
4.450885786e-10
7.227281934e-10
1.913766618e-09
7.017882695e-09
2.885668324e-08
1.218978576e-07
5.146548079e-07
2.143517834e-06
8.680356953e-06
3.334028212e-05
0.0001155254504
0.0003203043197
3.630385685e-10
3.655862646e-10
3.788742146e-10
4.373818626e-10
6.864962754e-10
1.737826002e-09
6.151694793e-09
2.455017183e-08
1.003312489e-07
4.063857234e-07
1.603645729e-06
6.051123118e-06
2.121443609e-05
6.57204309e-05
0.0001633859843
3.619015136e-10
3.63958536e-10
3.745199912e-10
4.19883939e-10
6.071280427e-10
1.368869004e-09
4.433096402e-09
1.658617076e-08
6.382532069e-08
2.421478715e-07
8.870602338e-07
3.075847294e-06
9.821720685e-06
2.768130484e-05
6.439998959e-05
3.606486085e-10
3.622020811e-10
3.700139687e-10
4.024768616e-10
5.310886866e-10
1.030040566e-09
2.932260893e-09
1.003687846e-08
3.58692985e-08
1.264628626e-07
4.288477054e-07
1.3711147e-06
4.034825916e-06
1.057443277e-05
2.363603751e-05
3.598541634e-10
3.611080728e-10
3.672917888e-10
3.922659544e-10
4.877240912e-10
8.427738597e-10
2.132691628e-09
6.695667357e-09
2.231258875e-08
7.356276893e-08
2.328649644e-07
6.940747293e-07
1.909520063e-06
4.735790402e-06
1.03167803e-05
3.60710718e-10
3.622111073e-10
3.697107679e-10
4.005376513e-10
5.209287553e-10
9.799457705e-10
2.694769936e-09
8.953025259e-09
3.11288901e-08
1.067514571e-07
3.518469337e-07
1.093427171e-06
3.133881879e-06
8.043776925e-06
3.616120242e-10
3.635037227e-10
3.731415923e-10
4.140386234e-10
5.803443837e-10
1.245515341e-09
3.871853363e-09
1.408192934e-08
5.294392222e-08
1.965217604e-07
7.0479834e-07
2.395096094e-06
7.511352845e-06
2.087395523e-05
3.630437384e-10
3.655914139e-10
3.788794486e-10
4.373879876e-10
6.865075812e-10
1.737866369e-09
6.151891519e-09
2.455120651e-08
1.003366883e-07
4.064142544e-07
1.603793978e-06
6.051876397e-06
2.121815311e-05
6.573813166e-05
3.643491443e-10
3.675434927e-10
3.845081396e-10
4.613339532e-10
8.002463698e-10
2.292591571e-09
8.881669599e-09
3.804195202e-08
1.670525265e-07
7.347120347e-07
3.196051153e-06
1.353954032e-05
5.436834216e-05
0.0001960814442
0.0005586250511
3.648770033e-10
3.683506536e-10
3.869352694e-10
4.720892145e-10
8.536196572e-10
2.567501748e-09
1.033313085e-08
4.589467207e-08
2.106138479e-07
9.821300237e-07
4.62723345e-06
2.187235882e-05
0.0001020775901
0.0004515869846
0.001666629312
3.643447036e-10
3.675391367e-10
3.845040462e-10
4.613308129e-10
8.002460944e-10
2.292598739e-09
8.881686116e-09
3.804186706e-08
1.670511702e-07
7.346998198e-07
3.195961164e-06
1.353893084e-05
5.436452663e-05
0.0001960600323
0.0005585306908
3.630349264e-10
3.655828648e-10
3.788716487e-10
4.373824457e-10
6.865089657e-10
1.737888481e-09
6.151963542e-09
2.455129087e-08
1.003357596e-07
4.06403414e-07
1.603711944e-06
6.05135069e-06
2.121510321e-05
6.572186063e-05
0.0001633871251
3.61598598e-10
3.634911933e-10
3.731305597e-10
4.140304303e-10
5.803422071e-10
1.245526488e-09
3.871881386e-09
1.408186155e-08
5.294271933e-08
1.965126485e-07
7.047432904e-07
2.394804083e-06
7.509964305e-06
2.086814915e-05
4.821701387e-05
3.606909584e-10
3.621965603e-10
3.697000477e-10
4.005314934e-10
5.209297527e-10
9.799592315e-10
2.694794563e-09
8.952955383e-09
3.112791387e-08
1.067449402e-07
3.518124083e-07
1.09326814e-06
3.133235152e-06
8.041495216e-06
1.780478907e-05
3.610442176e-10
3.626493919e-10
3.707037978e-10
4.040285004e-10
5.352627727e-10
1.040620344e-09
2.950839117e-09
1.001982306e-08
3.548896424e-08
1.241033088e-07
4.183464391e-07
1.334626289e-06
3.939033611e-06
1.040498751e-05
3.619922854e-10
3.640268987e-10
3.744443084e-10
4.190113975e-10
6.021556809e-10
1.344166022e-09
4.32026066e-09
1.611615333e-08
6.211286967e-08
2.373202175e-07
8.820970462e-07
3.133993799e-06
1.037258194e-05
3.058846849e-05
3.635000606e-10
3.662574363e-10
3.807296494e-10
4.450942541e-10
7.227518309e-10
1.913875299e-09
7.018400876e-09
2.885919673e-08
1.219102174e-07
5.147162652e-07
2.143825349e-06
8.681895765e-06
3.334784489e-05
0.000115560516
3.648775452e-10
3.683512786e-10
3.869364284e-10
4.720930024e-10
8.536363759e-10
2.567583556e-09
1.033354683e-08
4.589686071e-08
2.106257836e-07
9.821973939e-07
4.627630472e-06
2.187481483e-05
0.0001020935773
0.0004516966896
3.654357515e-10
3.692204492e-10
3.896310608e-10
4.843437781e-10
9.160092383e-10
2.899248388e-09
1.216056449e-08
5.63669863e-08
2.734352383e-07
1.378839972e-06
7.274402243e-06
4.05614132e-05
0.0002415106155
0.001547899858
0.01079642202
3.648734318e-10
3.683472704e-10
3.86932758e-10
4.720907595e-10
8.536389509e-10
2.567602411e-09
1.033360999e-08
4.589692999e-08
2.106246124e-07
9.82181686e-07
4.627481971e-06
2.187353718e-05
0.0001020828713
0.0004516066204
0.001666648621
3.634918645e-10
3.662494418e-10
3.807223556e-10
4.450889841e-10
7.22752489e-10
1.913892845e-09
7.018447227e-09
2.885913525e-08
1.219083914e-07
5.146992399e-07
2.143699241e-06
8.681056955e-06
3.334268186e-05
0.0001155316497
0.0003203092957
3.619796825e-10
3.640151923e-10
3.744340473e-10
4.190036341e-10
6.021528106e-10
1.344171709e-09
4.320260871e-09
1.611595036e-08
6.211098911e-08
2.373075088e-07
8.820224641e-07
3.13359662e-06
1.037065774e-05
3.058027829e-05
7.389018843e-05
3.610254808e-10
3.626358755e-10
3.706940369e-10
4.040230388e-10
5.352635012e-10
1.040629832e-09
2.950843593e-09
1.001965968e-08
3.548756202e-08
1.240948644e-07
4.183032641e-07
1.334429174e-06
3.93822974e-06
1.040213211e-05
2.342549774e-05
3.607064344e-10
3.622069275e-10
3.697071587e-10
4.005362826e-10
5.209358653e-10
9.799845095e-10
2.694927162e-09
8.953610571e-09
3.113096577e-08
1.067583658e-07
3.518681445e-07
1.093484073e-06
3.133999344e-06
8.043886404e-06
3.616079473e-10
3.634998624e-10
3.731383962e-10
4.140383302e-10
5.803558775e-10
1.245574535e-09
3.872104661e-09
1.408294314e-08
5.294788695e-08
1.965366249e-07
7.048507069e-07
2.395260332e-06
7.511756842e-06
2.087435752e-05
3.630399671e-10
3.655878735e-10
3.78876972e-10
4.37389941e-10
6.865287077e-10
1.73797073e-09
6.152359061e-09
2.455325208e-08
1.003455502e-07
4.064518391e-07
1.603947561e-06
6.052458554e-06
2.12200165e-05
6.574130824e-05
3.643457082e-10
3.675403457e-10
3.845062361e-10
4.613375409e-10
8.002750376e-10
2.292735966e-09
8.882358278e-09
3.804523001e-08
1.67068303e-07
7.347882186e-07
3.196420143e-06
1.354131119e-05
5.437656647e-05
0.0001961165941
3.648739478e-10
3.683479047e-10
3.869339095e-10
4.720943672e-10
8.536550795e-10
2.567681077e-09
1.033401049e-08
4.589902959e-08
2.106360239e-07
9.822461449e-07
4.627861555e-06
2.187588973e-05
0.0001020981898
0.0004517118801
3.643419152e-10
3.675365964e-10
3.845027208e-10
4.613350578e-10
8.002756352e-10
2.29274569e-09
8.882385515e-09
3.80452024e-08
1.670672602e-07
7.347783559e-07
3.19634746e-06
1.354084378e-05
5.437401114e-05
0.0001961066917
3.630322784e-10
3.655803779e-10
3.788700267e-10
4.373843752e-10
6.865263782e-10
1.73797437e-09
6.152354624e-09
2.455304487e-08
1.003436429e-07
4.064384598e-07
1.603865634e-06
6.052008382e-06
2.121778331e-05
6.573164975e-05
0.0001634187594
3.615961572e-10
3.634888734e-10
3.731288603e-10
4.140309828e-10
5.803520447e-10
1.245574587e-09
3.872086589e-09
1.408271257e-08
5.294619632e-08
1.965265273e-07
7.047971472e-07
2.395003827e-06
7.510652218e-06
2.08702155e-05
4.822178548e-05
3.606885736e-10
3.621942755e-10
3.696982873e-10
4.005313196e-10
5.209358067e-10
9.799892822e-10
2.694915993e-09
8.953421189e-09
3.112964866e-08
1.067511886e-07
3.518339191e-07
1.093337955e-06
3.133441229e-06
8.042016703e-06
1.78057728e-05
3.598661755e-10
3.611151661e-10
3.672962334e-10
3.922698005e-10
4.877345004e-10
8.428197832e-10
2.132892516e-09
6.696507294e-09
2.231596205e-08
7.35757829e-08
2.329126972e-07
6.942392678e-07
1.910041595e-06
4.737268884e-06
3.606545452e-10
3.622075394e-10
3.700192231e-10
4.024844199e-10
5.311091116e-10
1.030119235e-09
2.932589989e-09
1.003826199e-08
3.58750178e-08
1.264859294e-07
4.289371456e-07
1.371442995e-06
4.035937174e-06
1.057777268e-05
3.619032705e-10
3.639604775e-10
3.74523037e-10
4.198921318e-10
6.071587663e-10
1.368998887e-09
4.433662689e-09
1.658864528e-08
6.383604532e-08
2.4219353e-07
8.872491176e-07
3.076592794e-06
9.824450553e-06
2.769015063e-05
3.630362758e-10
3.655843828e-10
3.788741873e-10
4.373896412e-10
6.865379019e-10
1.738018404e-09
6.152565118e-09
2.455410428e-08
1.003489426e-07
4.064648458e-07
1.603993653e-06
6.052603533e-06
2.122035617e-05
6.57415409e-05
3.634927397e-10
3.662504929e-10
3.807241511e-10
4.450944807e-10
7.227753784e-10
1.913997783e-09
7.018944213e-09
2.88615288e-08
1.219200634e-07
5.147567068e-07
2.143983855e-06
8.682466113e-06
3.334950818e-05
0.0001155626484
3.630326754e-10
3.655808646e-10
3.788708513e-10
4.373868424e-10
6.865364207e-10
1.738019631e-09
6.152563004e-09
2.45540187e-08
1.00348186e-07
4.064596746e-07
1.603963733e-06
6.052451414e-06
2.121970628e-05
6.573946901e-05
3.618960427e-10
3.63953454e-10
3.745164656e-10
4.198862246e-10
6.071539496e-10
1.368992638e-09
4.433629243e-09
1.658841168e-08
6.383460149e-08
2.421857166e-07
8.872109336e-07
3.076428767e-06
9.823879968e-06
2.768908698e-05
3.606435824e-10
3.621974225e-10
3.70010437e-10
4.024774339e-10
5.311047279e-10
1.030116422e-09
2.932570554e-09
1.003809304e-08
3.587394912e-08
1.264802577e-07
4.289106021e-07
1.371332172e-06
4.035531497e-06
1.057649706e-05
2.36413206e-05
3.598494654e-10
3.611036533e-10
3.672883696e-10
3.922655496e-10
4.877342328e-10
8.428224779e-10
2.132881515e-09
6.696368449e-09
2.231509017e-08
7.357139037e-08
2.3289339e-07
6.941632429e-07
1.909773226e-06
4.736425796e-06
1.031801973e-05
3.589306499e-10
3.599139493e-10
3.647151084e-10
3.836640431e-10
4.54022252e-10
7.071595658e-10
1.593574336e-09
4.605850607e-09
1.447980856e-08
4.543539095e-08
1.372206727e-07
3.908769266e-07
1.032057715e-06
2.480500242e-06
3.595977453e-10
3.607974145e-10
3.667301704e-10
3.907048529e-10
4.824374858e-10
8.242960512e-10
2.070153603e-09
6.496762202e-09
2.173490121e-08
7.209929557e-08
2.299422909e-07
6.909873649e-07
1.916340985e-06
4.78358917e-06
3.606504933e-10
3.622041959e-10
3.700170171e-10
4.024841634e-10
5.311140013e-10
1.030140751e-09
2.932670223e-09
1.00385448e-08
3.587597989e-08
1.264889657e-07
4.289458593e-07
1.371464082e-06
4.03597432e-06
1.057778803e-05
3.616001984e-10
3.634929515e-10
3.73133277e-10
4.140374803e-10
5.803681771e-10
1.245634609e-09
3.872343686e-09
1.408384233e-08
5.295112914e-08
1.965476855e-07
7.048852836e-07
2.395353206e-06
7.511941973e-06
2.087446539e-05
3.61980907e-10
3.640165008e-10
3.744362014e-10
4.190094737e-10
6.021748031e-10
1.344265237e-09
4.32066933e-09
1.611774365e-08
6.211884564e-08
2.373416027e-07
8.821682724e-07
3.134201513e-06
1.037303548e-05
3.058872861e-05
3.615969114e-10
3.63489693e-10
3.731301276e-10
4.140345008e-10
5.803654123e-10
1.245630482e-09
3.872326922e-09
1.408374292e-08
5.295057679e-08
1.965448688e-07
7.04872261e-07
2.395299026e-06
7.511745125e-06
2.087389057e-05
3.606439051e-10
3.621977058e-10
3.700108994e-10
4.024786953e-10
5.311092324e-10
1.03013486e-09
2.932647613e-09
1.003841407e-08
3.58752661e-08
1.264855558e-07
4.289312647e-07
1.371410197e-06
4.03581417e-06
1.057748877e-05
3.595877215e-10
3.60788175e-10
3.667221332e-10
3.906982934e-10
4.824320677e-10
8.242886007e-10
2.070124447e-09
6.496611786e-09
2.173417481e-08
7.209614935e-08
2.299300165e-07
6.909456369e-07
1.916230326e-06
4.783468749e-06
3.589154485e-10
3.599039761e-10
3.647086557e-10
3.836609259e-10
4.540222522e-10
7.071608783e-10
1.593563715e-09
4.605752997e-09
1.447928012e-08
4.54330276e-08
1.372114196e-07
3.908448677e-07
1.031959721e-06
2.480233312e-06
5.332893553e-06
3.583319419e-10
3.591550932e-10
3.631163963e-10
3.784411939e-10
4.339427514e-10
6.279502868e-10
1.285720676e-09
3.443136306e-09
1.024950949e-08
3.074359034e-08
8.905720474e-08
2.439441411e-07
6.22355653e-07
1.458819102e-06
3.589247302e-10
3.599124591e-10
3.647160417e-10
3.83667349e-10
4.540290907e-10
7.071753579e-10
1.593617473e-09
4.605976564e-09
1.448017595e-08
4.543640602e-08
1.372232508e-07
3.90882589e-07
1.032067437e-06
2.480509833e-06
3.598561743e-10
3.611102696e-10
3.672949124e-10
3.922728105e-10
4.877460257e-10
8.4285571e-10
2.133007461e-09
6.696876717e-09
2.231711374e-08
7.357914526e-08
2.329216207e-07
6.942593976e-07
1.910075925e-06
4.737295463e-06
3.606926896e-10
3.621984684e-10
3.697028164e-10
4.005379738e-10
5.209520305e-10
9.800465773e-10
2.695145968e-09
8.954358457e-09
3.113341376e-08
1.067658913e-07
3.5188905e-07
1.093533501e-06
3.134084326e-06
8.043929014e-06
3.610268015e-10
3.626373178e-10
3.706962815e-10
4.040285961e-10
5.352831507e-10
1.040708631e-09
2.951166368e-09
1.002097572e-08
3.549284795e-08
1.24115595e-07
4.183817929e-07
1.33471307e-06
3.939187029e-06
1.040503878e-05
3.606895173e-10
3.621953282e-10
3.696998008e-10
4.00535176e-10
5.209496416e-10
9.800444982e-10
2.695139693e-09
8.95431837e-09
3.113317976e-08
1.06764736e-07
3.518840453e-07
1.093514243e-06
3.134020028e-06
8.043746621e-06
3.598499397e-10
3.611041946e-10
3.672891832e-10
3.922676137e-10
4.87741422e-10
8.428505127e-10
2.132991936e-09
6.69679823e-09
2.231673371e-08
7.357749122e-08
2.329152133e-07
6.942378873e-07
1.910015387e-06
4.737163543e-06
3.58915622e-10
3.599041669e-10
3.647089625e-10
3.836616374e-10
4.540246082e-10
7.071699094e-10
1.593598325e-09
4.605884913e-09
1.447976748e-08
4.543478452e-08
1.372175565e-07
3.908655236e-07
1.032027856e-06
2.480461653e-06
3.583192792e-10
3.591476926e-10
3.631125638e-10
3.784405327e-10
4.339450363e-10
6.279540268e-10
1.285716626e-09
3.443078472e-09
1.024920668e-08
3.074234309e-08
8.905285644e-08
2.439315676e-07
6.223289512e-07
1.458809961e-06
)
;

boundaryField
{
    top
    {
        type            calculated;
        value           nonuniform List<scalar> 
134
(
3.583295572e-10
3.589224713e-10
3.598541634e-10
3.606909584e-10
3.610254808e-10
3.606885736e-10
3.598494654e-10
3.589154485e-10
3.583192792e-10
3.591525736e-10
3.599100619e-10
3.611080728e-10
3.621965603e-10
3.626358755e-10
3.621942755e-10
3.611036533e-10
3.599039761e-10
3.591476926e-10
3.631132022e-10
3.64712847e-10
3.672917888e-10
3.697000477e-10
3.706940369e-10
3.696982873e-10
3.672883696e-10
3.647086557e-10
3.631125638e-10
3.784351201e-10
3.836608602e-10
3.922659544e-10
4.005314934e-10
4.040230388e-10
4.005313196e-10
3.922655496e-10
3.836609259e-10
3.784405327e-10
4.339257235e-10
4.540100074e-10
4.877240912e-10
5.209297527e-10
5.352635012e-10
5.209358067e-10
4.877342328e-10
4.540222522e-10
4.339450363e-10
6.27892903e-10
7.071080138e-10
8.427738597e-10
9.799592315e-10
1.040629832e-09
9.799892822e-10
8.428224779e-10
7.071608783e-10
6.279540268e-10
1.285518233e-09
1.593369568e-09
2.132691628e-09
2.694794563e-09
2.950843593e-09
2.694915993e-09
2.132881515e-09
1.593563715e-09
1.285716626e-09
3.442427822e-09
4.605072541e-09
6.695667357e-09
8.952955383e-09
1.001965968e-08
8.953421189e-09
6.696368449e-09
4.605752997e-09
3.443078472e-09
1.024709853e-08
1.44769635e-08
2.231258875e-08
3.112791387e-08
3.548756202e-08
3.112964866e-08
2.231509017e-08
1.447928012e-08
1.024920668e-08
3.07356969e-08
4.542540601e-08
7.356276893e-08
1.067449402e-07
1.240948644e-07
1.067511886e-07
7.357139037e-08
4.54330276e-08
3.074234309e-08
8.903262204e-08
1.37187305e-07
2.328649644e-07
3.518124083e-07
4.183032641e-07
3.518339191e-07
2.3289339e-07
1.372114196e-07
8.905285644e-08
2.438721385e-07
3.907721271e-07
6.940747293e-07
1.09326814e-06
1.334429174e-06
1.093337955e-06
6.941632429e-07
3.908448677e-07
2.439315676e-07
6.221596075e-07
1.031753313e-06
1.909520063e-06
3.133235152e-06
3.93822974e-06
3.133441229e-06
1.909773226e-06
1.031959721e-06
6.223289512e-07
1.458329632e-06
2.479699124e-06
4.735790402e-06
8.041495216e-06
1.040213211e-05
8.042016703e-06
4.736425796e-06
2.480233312e-06
1.458809961e-06
3.105163606e-06
5.331686086e-06
1.03167803e-05
1.780478907e-05
2.342549774e-05
1.78057728e-05
1.031801973e-05
5.332893553e-06
)
;
    }
    bottom
    {
        type            calculated;
        value           nonuniform List<scalar> 
127
(
3.583557896e-10
3.589454271e-10
3.598752133e-10
3.60710718e-10
3.610442176e-10
3.607064344e-10
3.598661755e-10
3.589306499e-10
3.583319419e-10
3.591731523e-10
3.59927683e-10
3.611238987e-10
3.622111073e-10
3.626493919e-10
3.622069275e-10
3.611151661e-10
3.599139493e-10
3.591550932e-10
3.63129857e-10
3.647266883e-10
3.673038172e-10
3.697107679e-10
3.707037978e-10
3.697071587e-10
3.672962334e-10
3.647151084e-10
3.631163963e-10
3.784477403e-10
3.836706341e-10
3.92273694e-10
4.005376513e-10
4.040285004e-10
4.005362826e-10
3.922698005e-10
3.836640431e-10
3.784411939e-10
4.339329157e-10
4.540140117e-10
4.87725433e-10
5.209287553e-10
5.352627727e-10
5.209358653e-10
4.877345004e-10
4.54022252e-10
4.339427514e-10
6.278908729e-10
7.071020116e-10
8.427638389e-10
9.799457705e-10
1.040620344e-09
9.799845095e-10
8.428197832e-10
7.071595658e-10
6.279502868e-10
1.285500924e-09
1.593349264e-09
2.132668268e-09
2.694769936e-09
2.950839117e-09
2.694927162e-09
2.132892516e-09
1.593574336e-09
1.285720676e-09
3.442403113e-09
4.605065999e-09
6.695695441e-09
8.953025259e-09
1.001982306e-08
8.953610571e-09
6.696507294e-09
4.605850607e-09
3.443136306e-09
1.024719818e-08
1.447723727e-08
2.23131863e-08
3.11288901e-08
3.548896424e-08
3.113096577e-08
2.231596205e-08
1.447980856e-08
1.024950949e-08
3.073669865e-08
4.542746764e-08
7.356686513e-08
1.067514571e-07
1.241033088e-07
1.067583658e-07
7.35757829e-08
4.543539095e-08
3.074359034e-08
8.903802042e-08
1.371981871e-07
2.328864472e-07
3.518469337e-07
4.183464391e-07
3.518681445e-07
2.329126972e-07
1.372206727e-07
8.905720474e-08
2.438951985e-07
3.908205909e-07
6.941719698e-07
1.093427171e-06
1.334626289e-06
1.093484073e-06
6.942392678e-07
3.908769266e-07
2.439441411e-07
6.222439077e-07
1.031946579e-06
1.909910715e-06
3.133881879e-06
3.939033611e-06
3.133999344e-06
1.910041595e-06
1.032057715e-06
6.22355653e-07
1.458593441e-06
2.48041588e-06
4.737178361e-06
8.043776925e-06
1.040498751e-05
8.043886404e-06
4.737268884e-06
2.480500242e-06
1.458819102e-06
3.105816796e-06
)
;
    }
    side-walls
    {
        type            calculated;
        value           nonuniform List<scalar> 
261
(
3.583557896e-10
3.58945174e-10
3.598747153e-10
3.607097822e-10
3.610428724e-10
3.607046361e-10
3.598640246e-10
3.589283718e-10
3.583295572e-10
3.591731523e-10
3.599274587e-10
3.611233644e-10
3.622100349e-10
3.626478747e-10
3.622049125e-10
3.611128729e-10
3.599115637e-10
3.591525736e-10
3.63129857e-10
3.647263623e-10
3.673029976e-10
3.697090491e-10
3.7070137e-10
3.697041421e-10
3.672930438e-10
3.647118687e-10
3.631132022e-10
3.784477403e-10
3.836698858e-10
3.922714895e-10
4.005332977e-10
4.04022256e-10
4.005290077e-10
3.922627777e-10
3.836574508e-10
3.784351201e-10
4.339329157e-10
4.540114801e-10
4.877175018e-10
5.20913272e-10
5.35240615e-10
5.20910798e-10
4.877118179e-10
4.540026017e-10
4.339257235e-10
6.278908729e-10
7.070920442e-10
8.427322571e-10
9.798833299e-10
1.040531129e-09
9.79886474e-10
8.427348172e-10
7.07090275e-10
6.27892903e-10
1.285500924e-09
1.593309201e-09
2.132540343e-09
2.694513859e-09
2.950473058e-09
2.694533432e-09
2.132563658e-09
1.593319762e-09
1.285518233e-09
3.442403113e-09
4.604908222e-09
6.695181509e-09
8.951979545e-09
1.001832459e-08
8.952039632e-09
6.695243461e-09
4.6049222e-09
3.442427822e-09
1.024719818e-08
1.447662505e-08
2.231115702e-08
3.112469265e-08
3.548292271e-08
3.112481326e-08
2.231121982e-08
1.447650928e-08
1.024709853e-08
3.073669865e-08
4.542513812e-08
7.355902909e-08
1.067349632e-07
1.240794967e-07
1.067349702e-07
7.355857794e-08
4.542408277e-08
3.07356969e-08
8.903802042e-08
1.371895037e-07
2.328570493e-07
3.517841873e-07
4.182556124e-07
3.517825566e-07
2.328531137e-07
1.371837496e-07
8.903262204e-08
2.438951985e-07
3.907884911e-07
6.940651528e-07
1.093198925e-06
1.334295361e-06
1.093187908e-06
6.940446037e-07
3.907634585e-07
2.438721385e-07
6.222439077e-07
1.031826942e-06
1.909538249e-06
3.133102424e-06
3.937909464e-06
3.13305163e-06
1.90945483e-06
1.031735022e-06
6.221596075e-07
1.458593441e-06
2.479948817e-06
4.7359514e-06
8.041353264e-06
1.04015547e-05
8.041175659e-06
4.735681135e-06
2.479667685e-06
1.458329632e-06
3.105816796e-06
5.332302043e-06
1.03173275e-05
1.780494908e-05
2.342499788e-05
1.780448421e-05
1.031667087e-05
5.331648892e-06
3.105163606e-06
3.583319419e-10
3.589247302e-10
3.598561743e-10
3.606926896e-10
3.610268015e-10
3.606895173e-10
3.598499397e-10
3.58915622e-10
3.583192792e-10
3.591550932e-10
3.599124591e-10
3.611102696e-10
3.621984684e-10
3.626373178e-10
3.621953282e-10
3.611041946e-10
3.599041669e-10
3.591476926e-10
3.631163963e-10
3.647160417e-10
3.672949124e-10
3.697028164e-10
3.706962815e-10
3.696998008e-10
3.672891832e-10
3.647089625e-10
3.631125638e-10
3.784411939e-10
3.83667349e-10
3.922728105e-10
4.005379738e-10
4.040285961e-10
4.00535176e-10
3.922676137e-10
3.836616374e-10
3.784405327e-10
4.339427514e-10
4.540290907e-10
4.877460257e-10
5.209520305e-10
5.352831507e-10
5.209496416e-10
4.87741422e-10
4.540246082e-10
4.339450363e-10
6.279502868e-10
7.071753579e-10
8.4285571e-10
9.800465773e-10
1.040708631e-09
9.800444982e-10
8.428505127e-10
7.071699094e-10
6.279540268e-10
1.285720676e-09
1.593617473e-09
2.133007461e-09
2.695145968e-09
2.951166368e-09
2.695139693e-09
2.132991936e-09
1.593598325e-09
1.285716626e-09
3.443136306e-09
4.605976564e-09
6.696876717e-09
8.954358457e-09
1.002097572e-08
8.95431837e-09
6.69679823e-09
4.605884913e-09
3.443078472e-09
1.024950949e-08
1.448017595e-08
2.231711374e-08
3.113341376e-08
3.549284795e-08
3.113317976e-08
2.231673371e-08
1.447976748e-08
1.024920668e-08
3.074359034e-08
4.543640602e-08
7.357914526e-08
1.067658913e-07
1.24115595e-07
1.06764736e-07
7.357749122e-08
4.543478452e-08
3.074234309e-08
8.905720474e-08
1.372232508e-07
2.329216207e-07
3.5188905e-07
4.183817929e-07
3.518840453e-07
2.329152133e-07
1.372175565e-07
8.905285644e-08
2.439441411e-07
3.90882589e-07
6.942593976e-07
1.093533501e-06
1.33471307e-06
1.093514243e-06
6.942378873e-07
3.908655236e-07
2.439315676e-07
6.22355653e-07
1.032067437e-06
1.910075925e-06
3.134084326e-06
3.939187029e-06
3.134020028e-06
1.910015387e-06
1.032027856e-06
6.223289512e-07
1.458819102e-06
2.480509833e-06
4.737295463e-06
8.043929014e-06
1.040503878e-05
8.043746621e-06
4.737163543e-06
2.480461653e-06
1.458809961e-06
)
;
    }
    inlet
    {
        type            calculated;
        value           nonuniform List<scalar> 
81
(
3.583557896e-10
3.58945174e-10
3.598747153e-10
3.607097822e-10
3.610428724e-10
3.607046361e-10
3.598640246e-10
3.589283718e-10
3.583295572e-10
3.589454271e-10
3.596112164e-10
3.606627066e-10
3.616112642e-10
3.619910861e-10
3.61606288e-10
3.606525542e-10
3.595956228e-10
3.589224713e-10
3.598752133e-10
3.606630338e-10
3.61910928e-10
3.630432631e-10
3.634990954e-10
3.630385685e-10
3.619015136e-10
3.606486085e-10
3.598541634e-10
3.60710718e-10
3.616120242e-10
3.630437384e-10
3.643491443e-10
3.648770033e-10
3.643447036e-10
3.630349264e-10
3.61598598e-10
3.606909584e-10
3.610442176e-10
3.619922854e-10
3.635000606e-10
3.648775452e-10
3.654357515e-10
3.648734318e-10
3.634918645e-10
3.619796825e-10
3.610254808e-10
3.607064344e-10
3.616079473e-10
3.630399671e-10
3.643457082e-10
3.648739478e-10
3.643419152e-10
3.630322784e-10
3.615961572e-10
3.606885736e-10
3.598661755e-10
3.606545452e-10
3.619032705e-10
3.630362758e-10
3.634927397e-10
3.630326754e-10
3.618960427e-10
3.606435824e-10
3.598494654e-10
3.589306499e-10
3.595977453e-10
3.606504933e-10
3.616001984e-10
3.61980907e-10
3.615969114e-10
3.606439051e-10
3.595877215e-10
3.589154485e-10
3.583319419e-10
3.589247302e-10
3.598561743e-10
3.606926896e-10
3.610268015e-10
3.606895173e-10
3.598499397e-10
3.58915622e-10
3.583192792e-10
)
;
    }
    outlet
    {
        type            calculated;
        value           nonuniform 0();
    }
    procBoundary0to1
    {
        type            processor;
        value           nonuniform List<scalar> 
97
(
5.973921378e-06
5.332900091e-06
1.015904306e-05
1.940379997e-05
3.295039711e-05
4.262575507e-05
3.294982446e-05
1.940300507e-05
1.015832264e-05
5.973408998e-06
5.332900091e-06