/*--------------------------------*- C++ -*----------------------------------*\
| =========                 |                                                 |
| \\      /  F ield         | OpenFOAM: The Open Source CFD Toolbox           |
|  \\    /   O peration     | Version:  4.x                                   |
|   \\  /    A nd           | Web:      www.OpenFOAM.org                      |
|    \\/     M anipulation  |                                                 |
\*---------------------------------------------------------------------------*/
FoamFile
{
    version     2.0;
    format      ascii;
    class       volScalarField;
    location    "8000";
    object      CO;
}
// * * * * * * * * * * * * * * * * * * * * * * * * * * * * * * * * * * * * * //

dimensions      [0 0 0 0 0 0 0];

internalField   nonuniform List<scalar> 
1174
(
0.3315809307
0.3315795962
0.3315777147
0.3315752644
0.3315722728
0.3315688075
0.3315649619
0.3315608417
0.3315565534
0.331552197
0.3315478646
0.3315436538
0.3315397367
0.3315366632
0.33157968
0.3315775454
0.3315747074
0.3315712337
0.3315672456
0.3315628892
0.3315583118
0.3315536474
0.331549008
0.3315444829
0.331540142
0.3315360527
0.331532345
0.3315294869
0.3315769206
0.3315731554
0.3315685047
0.3315632329
0.3315576246
0.3315519343
0.3315463622
0.3315410503
0.3315360879
0.331531523
0.3315273752
0.3315236557
0.3315204229
0.3315180055
0.331572884
0.3315670442
0.3315603519
0.3315532985
0.3315462916
0.3315396224
0.3315334715
0.3315279306
0.3315230271
0.3315187461
0.3315150487
0.3315118915
0.3315092674
0.3315073711
0.3315700073
0.3315630313
0.3315554343
0.3315477529
0.3315403731
0.3315335401
0.3315273856
0.3315219589
0.3315172533
0.3315132275
0.331509822
0.3315069754
0.3315046586
0.3315030128
0.3315728841
0.3315670443
0.331560352
0.3315532986
0.3315462917
0.3315396225
0.3315334717
0.3315279308
0.3315230273
0.3315187463
0.331515049
0.3315118917
0.3315092676
0.3315073713
0.3315769207
0.3315731555
0.3315685048
0.331563233
0.3315576248
0.3315519344
0.3315463624
0.3315410505
0.3315360882
0.3315315233
0.3315273755
0.331523656
0.3315204232
0.3315180059
0.33157968
0.3315775455
0.3315747075
0.3315712338
0.3315672458
0.3315628893
0.331558312
0.3315536476
0.3315490083
0.3315444832
0.3315401423
0.3315360531
0.3315323454
0.3315294873
0.3315809308
0.3315795963
0.3315777148
0.3315752645
0.3315722729
0.3315688076
0.3315649621
0.3315608419
0.3315565536
0.3315521973
0.3315478649
0.3315436541
0.3315397371
0.3315366636
0.3315811236
0.33157968
0.3315775454
0.3315747074
0.3315712337
0.3315672457
0.3315628892
0.3315583119
0.3315536474
0.3315490081
0.3315444829
0.331540142
0.3315360528
0.3315323451
0.331529487
0.3315768655
0.3315731265
0.331568575
0.3315634864
0.3315581359
0.3315527541
0.331547512
0.3315425228
0.3315378531
0.3315335348
0.3315295792
0.3315259957
0.3315228467
0.3315204707
0.3315697945
0.3315625475
0.3315546859
0.331546876
0.3315395712
0.3315330166
0.3315272984
0.3315224016
0.3315182558
0.3315147674
0.3315118403
0.3315093917
0.3315073821
0.3315059387
0.3315572497
0.3315452248
0.3315338161
0.3315238731
0.3315156864
0.3315092094
0.3315042333
0.3315004976
0.331497748
0.3314957618
0.3314943556
0.331493384
0.3314927366
0.3314923526
0.3315454383
0.33153099
0.3315187779
0.3315091132
0.3315017943
0.3314964396
0.3314926461
0.3314900538
0.3314883645
0.3314873417
0.3314868018
0.3314866024
0.3314866251
0.3314867427
0.3315572498
0.3315452249
0.3315338162
0.3315238733
0.3315156866
0.3315092096
0.3315042335
0.3315004979
0.3314977482
0.331495762
0.3314943558
0.3314933842
0.3314927369
0.3314923528
0.3315697946
0.3315625476
0.331554686
0.3315468761
0.3315395714
0.3315330168
0.3315272986
0.3315224019
0.3315182561
0.3315147677
0.3315118407
0.3315093921
0.3315073825
0.331505939
0.3315768657
0.3315731266
0.3315685751
0.3315634866
0.3315581361
0.3315527544
0.3315475122
0.3315425231
0.3315378534
0.3315335352
0.3315295796
0.3315259961
0.3315228472
0.3315204711
0.33157968
0.3315775455
0.3315747075
0.3315712338
0.3315672458
0.3315628894
0.3315583121
0.3315536476
0.3315490083
0.3315444833
0.3315401424
0.3315360532
0.3315323455
0.3315294874
0.3315796326
0.3315769207
0.3315731555
0.3315685048
0.331563233
0.3315576247
0.3315519344
0.3315463623
0.3315410504
0.331536088
0.3315315231
0.3315273753
0.3315236558
0.331520423
0.3315180056
0.3315756577
0.3315697946
0.3315625476
0.331554686
0.3315468761
0.3315395714
0.3315330167
0.3315272985
0.3315224017
0.3315182559
0.3315147675
0.3315118404
0.3315093918
0.3315073822
0.3315059387
0.3315489444
0.3315336998
0.3315199315
0.3315086741
0.3315001302
0.3314940407
0.3314899607
0.3314874209
0.3314860048
0.3314853749
0.3314852726
0.3314855035
0.3314859119
0.3314863178
0.3315026545
0.3314769851
0.3314593517
0.3314490026
0.3314441983
0.3314431971
0.3314445996
0.3314473952
0.3314509008
0.3314546762
0.3314584474
0.3314620393
0.3314652847
0.3314677671
0.3314421513
0.3314167039
0.3314058827
0.3314040956
0.3314073627
0.3314131857
0.3314200882
0.331427233
0.3314341654
0.3314406543
0.3314465936
0.3314519315
0.3314565704
0.3314600362
0.3315026551
0.3314769858
0.3314593523
0.3314490032
0.3314441988
0.3314431976
0.3314446001
0.3314473957
0.3314509012
0.3314546766
0.3314584477
0.3314620397
0.3314652851
0.3314677675
0.3315489449
0.3315337003
0.331519932
0.3315086745
0.3315001307
0.3314940412
0.3314899612
0.3314874214
0.3314860053
0.3314853755
0.3314852731
0.331485504
0.3314859125
0.3314863183
0.3315697947
0.3315625477
0.3315546861
0.3315468763
0.3315395716
0.331533017
0.3315272988
0.3315224021
0.3315182563
0.331514768
0.3315118409
0.3315093923
0.3315073827
0.3315059393
0.3315769207
0.3315731555
0.3315685048
0.3315632331
0.3315576249
0.3315519346
0.3315463626
0.3315410507
0.3315360884
0.3315315236
0.3315273758
0.3315236563
0.3315204236
0.3315180062
0.3315773968
0.3315728841
0.3315670444
0.3315603521
0.3315532987
0.3315462918
0.3315396226
0.3315334717
0.3315279308
0.3315230273
0.3315187463
0.3315150489
0.3315118917
0.3315092676
0.3315073713
0.3315683347
0.3315572498
0.3315452249
0.3315338162
0.3315238732
0.3315156866
0.3315092095
0.3315042335
0.3315004978
0.3314977481
0.3314957619
0.3314943557
0.3314933841
0.3314927368
0.3314923527
0.3315340755
0.3315026546
0.3314769853
0.3314593518
0.3314490027
0.3314441984
0.3314431972
0.3314445997
0.3314473953
0.3314509009
0.3314546762
0.3314584475
0.3314620394
0.3314652848
0.3314677672
0.3313442199
0.3313121199
0.3313070365
0.3313165318
0.331332493
0.3313503571
0.331367821
0.3313838642
0.3313981411
0.3314106347
0.3314214674
0.3314307855
0.3314386091
0.3314443188
0.3310339324
0.3310749919
0.3311376132
0.331197511
0.3312483337
0.3312897503
0.3313231327
0.3313500813
0.3313719857
0.3313899449
0.3314047925
0.3314171242
0.3314272197
0.33143447
0.3313442222
0.3313121215
0.3313070377
0.3313165329
0.331332494
0.331350358
0.3313678217
0.3313838649
0.3313981417
0.3314106353
0.3314214679
0.331430786
0.3314386095
0.3314443192
0.3315026551
0.3314769859
0.3314593526
0.3314490035
0.3314441992
0.331443198
0.3314446005
0.3314473962
0.3314509017
0.331454677
0.3314584482
0.3314620401
0.3314652855
0.3314677679
0.3315572499
0.331545225
0.3315338165
0.3315238736
0.331515687
0.33150921
0.331504234
0.3315004984
0.3314977488
0.3314957626
0.3314943564
0.3314933848
0.3314927375
0.3314923534
0.3315728841
0.3315670444
0.3315603521
0.3315532988
0.331546292
0.3315396228
0.331533472
0.3315279312
0.3315230278
0.3315187468
0.3315150495
0.3315118923
0.3315092683
0.331507372
0.3315757227
0.3315700074
0.3315630314
0.3315554345
0.3315477531
0.3315403733
0.3315335403
0.3315273858
0.3315219591
0.3315172536
0.3315132277
0.3315098222
0.3315069756
0.3315046588
0.331503013
0.3315607077
0.3315454384
0.3315309902
0.3315187781
0.3315091134
0.3315017945
0.3314964398
0.3314926464
0.331490054
0.3314883647
0.3314873419
0.331486802
0.3314866025
0.3314866253
0.3314867429
0.3314875442
0.3314421511
0.331416704
0.3314058829
0.3314040958
0.331407363
0.3314131859
0.3314200884
0.3314272332
0.3314341657
0.3314406545
0.3314465938
0.3314519317
0.3314565706
0.3314600364
0.3310885934
0.3310339333
0.3310749928
0.3311376139
0.3311975116
0.3312483342
0.3312897507
0.3313231331
0.3313500816
0.331371986
0.3313899452
0.3314047927
0.3314171244
0.3314272199
0.3314344701
0.3297003284
0.3303804831
0.3307567148
0.330976783
0.3311130062
0.3312020829
0.3312633512
0.3313074127
0.3313403198
0.3313656713
0.3313856876
0.3314017557
0.3314145905
0.3314236664
0.3310339322
0.3310749942
0.3311376154
0.3311975129
0.3312483353
0.3312897516
0.3313231339
0.3313500823
0.3313719866
0.3313899457
0.3314047932
0.3314171248
0.3314272203
0.3314344705
0.3314421515
0.3314167048
0.3314058839
0.3314040969
0.331407364
0.3314131869
0.3314200893
0.3314272341
0.3314341665
0.3314406553
0.3314465945
0.3314519324
0.3314565713
0.3314600371
0.3315454384
0.3315309904
0.3315187784
0.3315091139
0.3315017951
0.3314964405
0.3314926471
0.3314900547
0.3314883655
0.3314873427
0.3314868028
0.3314866033
0.3314866261
0.3314867437
0.3315700074
0.3315630314
0.3315554346
0.3315477533
0.3315403737
0.3315335407
0.3315273863
0.3315219597
0.3315172542
0.3315132284
0.3315098229
0.3315069763
0.3315046596
0.3315030138
0.3315773968
0.3315728842
0.3315670445
0.3315603522
0.3315532988
0.331546292
0.3315396228
0.3315334719
0.331527931
0.3315230275
0.3315187465
0.3315150492
0.331511892
0.3315092679
0.3315073716
0.3315683348
0.33155725
0.3315452252
0.3315338165
0.3315238736
0.3315156869
0.3315092099
0.3315042338
0.3315004981
0.3314977485
0.3314957623
0.3314943561
0.3314933844
0.3314927371
0.331492353
0.3315340764
0.3315026554
0.3314769862
0.3314593527
0.3314490036
0.3314441992
0.3314431979
0.3314446004
0.331447396
0.3314509015
0.3314546768
0.331458448
0.3314620399
0.3314652853
0.3314677677
0.3314167553
0.3313442235
0.3313121227
0.3313070388
0.3313165337
0.3313324946
0.3313503584
0.3313678221
0.3313838652
0.331398142
0.3314106355
0.3314214681
0.3314307862
0.3314386097
0.3314443194
0.3310885942
0.3310339343
0.3310749955
0.3311376163
0.3311975134
0.3312483356
0.3312897519
0.331323134
0.3313500824
0.3313719867
0.3313899458
0.3314047933
0.3314171249
0.3314272203
0.3314344706
0.331416755
0.331344224
0.3313121235
0.3313070396
0.3313165346
0.3313324954
0.3313503592
0.3313678228
0.3313838658
0.3313981426
0.331410636
0.3314214686
0.3314307866
0.3314386101
0.3314443198
0.3315026545
0.331476986
0.331459353
0.3314490041
0.3314441998
0.3314431987
0.3314446012
0.3314473968
0.3314509023
0.3314546776
0.3314584487
0.3314620406
0.3314652859
0.3314677683
0.3315572498
0.331545225
0.3315338166
0.3315238738
0.3315156873
0.3315092103
0.3315042344
0.3315004988
0.3314977491
0.3314957629
0.3314943568
0.3314933852
0.3314927378
0.3314923538
0.3315728841
0.3315670444
0.3315603522
0.3315532989
0.3315462921
0.331539623
0.3315334723
0.3315279315
0.331523028
0.3315187471
0.3315150498
0.3315118926
0.3315092686
0.3315073723
0.3315796326
0.3315769208
0.3315731556
0.3315685049
0.3315632331
0.3315576249
0.3315519346
0.3315463626
0.3315410507
0.3315360884
0.3315315235
0.3315273757
0.3315236562
0.3315204234
0.3315180061
0.3315756578
0.3315697947
0.3315625478
0.3315546862
0.3315468763
0.3315395717
0.331533017
0.3315272989
0.3315224021
0.3315182564
0.331514768
0.3315118409
0.3315093923
0.3315073827
0.3315059393
0.3315635122
0.3315489451
0.3315337005
0.3315199322
0.3315086748
0.3315001309
0.3314940415
0.3314899615
0.3314874216
0.3314860055
0.3314853757
0.3314852733
0.3314855042
0.3314859127
0.3314863185
0.3315340765
0.3315026558
0.3314769867
0.3314593533
0.3314490042
0.3314441998
0.3314431985
0.331444601
0.3314473965
0.3314509021
0.3314546773
0.3314584485
0.3314620403
0.3314652857
0.3314677681
0.3314875452
0.3314421529
0.3314167061
0.3314058849
0.3314040977
0.3314073646
0.3314131874
0.3314200897
0.3314272344
0.3314341667
0.3314406555
0.3314465947
0.3314519325
0.3314565714
0.3314600372
0.3315340766
0.331502656
0.331476987
0.3314593537
0.3314490046
0.3314442002
0.331443199
0.3314446014
0.3314473969
0.3314509024
0.3314546777
0.3314584488
0.3314620407
0.331465286
0.3314677684
0.331563512
0.331548945
0.3315337005
0.3315199324
0.3315086751
0.3315001313
0.331494042
0.331489962
0.3314874222
0.3314860061
0.3314853763
0.3314852739
0.3314855048
0.3314859132
0.331486319
0.3315697945
0.3315625477
0.3315546862
0.3315468765
0.3315395719
0.3315330173
0.3315272993
0.3315224026
0.3315182569
0.3315147685
0.3315118415
0.3315093929
0.3315073833
0.3315059399
0.3315769206
0.3315731555
0.3315685048
0.3315632331
0.331557625
0.3315519348
0.3315463628
0.331541051
0.3315360887
0.3315315239
0.3315273762
0.3315236568
0.331520424
0.3315180067
0.3315811236
0.3315796801
0.3315775455
0.3315747075
0.3315712339
0.3315672458
0.3315628894
0.3315583121
0.3315536477
0.3315490084
0.3315444833
0.3315401425
0.3315360532
0.3315323456
0.3315294875
0.3315795945
0.3315768657
0.3315731267
0.3315685752
0.3315634867
0.3315581362
0.3315527545
0.3315475124
0.3315425233
0.3315378536
0.3315335354
0.3315295798
0.3315259963
0.3315228474
0.3315204713
0.3315756578
0.3315697948
0.3315625478
0.3315546863
0.3315468765
0.3315395718
0.3315330172
0.3315272991
0.3315224023
0.3315182566
0.3315147682
0.3315118411
0.3315093925
0.3315073829
0.3315059395
0.3315683348
0.3315572502
0.3315452254
0.3315338168
0.331523874
0.3315156874
0.3315092104
0.3315042343
0.3315004987
0.331497749
0.3314957628
0.3314943566
0.331493385
0.3314927377
0.3314923536
0.331560708
0.3315454389
0.3315309909
0.331518779
0.3315091144
0.3315017956
0.3314964409
0.3314926474
0.331490055
0.3314883657
0.3314873429
0.331486803
0.3314866035
0.3314866263
0.3314867439
0.3315683349
0.3315572502
0.3315452255
0.331533817
0.3315238741
0.3315156876
0.3315092106
0.3315042346
0.3315004989
0.3314977493
0.3314957631
0.3314943569
0.3314933853
0.3314927379
0.3314923539
0.3315756578
0.3315697948
0.3315625479
0.3315546864
0.3315468766
0.331539572
0.3315330174
0.3315272994
0.3315224027
0.3315182569
0.3315147686
0.3315118415
0.3315093929
0.3315073834
0.3315059399
0.3315795945
0.3315768657
0.3315731267
0.3315685752
0.3315634867
0.3315581363
0.3315527547
0.3315475126
0.3315425236
0.3315378539
0.3315335357
0.3315295802
0.3315259967
0.3315228478
0.3315204718
0.33157968
0.3315775454
0.3315747075
0.3315712339
0.3315672459
0.3315628895
0.3315583123
0.3315536479
0.3315490087
0.3315444836
0.3315401428
0.3315360537
0.331532346
0.331529488
0.3315817904
0.3315809308
0.3315795963
0.3315777148
0.3315752645
0.331572273
0.3315688077
0.3315649622
0.331560842
0.3315565537
0.3315521974
0.3315478651
0.3315436543
0.3315397372
0.3315366637
0.3315811236
0.3315796801
0.3315775455
0.3315747076
0.3315712339
0.3315672459
0.3315628895
0.3315583122
0.3315536478
0.3315490085
0.3315444834
0.3315401426
0.3315360534
0.3315323457
0.3315294876
0.3315796326
0.3315769208
0.3315731556
0.3315685049
0.3315632332
0.331557625
0.3315519348
0.3315463627
0.3315410509
0.3315360886
0.3315315238
0.331527376
0.3315236565
0.3315204237
0.3315180064
0.3315773968
0.3315728842
0.3315670445
0.3315603523
0.331553299
0.3315462922
0.3315396231
0.3315334723
0.3315279314
0.331523028
0.331518747
0.3315150497
0.3315118925
0.3315092685
0.3315073722
0.3315757227
0.3315700076
0.3315630317
0.3315554349
0.3315477536
0.3315403739
0.3315335409
0.3315273865
0.3315219599
0.3315172544
0.3315132286
0.3315098231
0.3315069765
0.3315046598
0.331503014
0.3315773968
0.3315728842
0.3315670446
0.3315603523
0.3315532991
0.3315462923
0.3315396232
0.3315334724
0.3315279316
0.3315230281
0.3315187472
0.3315150499
0.3315118927
0.3315092687
0.3315073724
0.3315796326
0.3315769208
0.3315731556
0.331568505
0.3315632333
0.3315576251
0.3315519349
0.3315463629
0.3315410511
0.3315360888
0.331531524
0.3315273762
0.3315236568
0.3315204241
0.3315180068
0.3315811236
0.3315796801
0.3315775455
0.3315747076
0.3315712339
0.3315672459
0.3315628896
0.3315583124
0.331553648
0.3315490087
0.3315444837
0.3315401429
0.3315360537
0.3315323461
0.331529488
0.3315817904
0.3315809308
0.3315795963
0.3315777148
0.3315752645
0.331572273
0.3315688078
0.3315649623
0.3315608421
0.3315565539
0.3315521977
0.3315478654
0.3315436546
0.3315397376
0.3315366642
)
;

boundaryField
{
    top
    {
        type            zeroGradient;
    }
    bottom
    {
        type            zeroGradient;
    }
    side-walls
    {
        type            zeroGradient;
    }
    inlet
    {
        type            zeroGradient;
    }
    outlet
    {
        type            zeroGradient;
    }
    procBoundary1to0
    {
        type            processor;
        value           nonuniform List<scalar> 
97
(
0.3315817904
0.3315817904
0.3315811236
0.3315796326
0.3315773969
0.3315757227
0.3315773969
0.3315796326
0.3315811237
0.3315817905
0.3315819785
0.3315795945
0.3315795945
0.3315795945
0.3315756578
0.3315683349
0.3315607081
0.331568335
0.3315756579
0.3315795946
0.3315811237
0.3315813021
0.3315795552
0.331563512
0.331563512
0.331563512
0.3315340765
0.3314875458
0.3315340771
0.3315635125
0.3315756579
0.3315796326
0.3315803125
0.33157648
0.3315630977
0.3314167531
0.3314167531
0.3314167531
0.3310886006
0.3314167571
0.3315340771
0.331568335
0.3315773969
0.3315796072
0.3315735843
0.3315482665
0.3314482489
0.328400976
0.328400976
0.328400976
0.3310885995
0.3310885995
0.3314875458
0.3315607081
0.3315757228
0.3315803125
0.33157648
0.3315630978
0.3315242697
0.3314482489
0.3315242699
0.3315340759
0.3315340759
0.3315340759
0.3315683348
0.3315773969
0.3315813021
0.3315795552
0.3315744442
0.3315630978
0.3315482669
0.3315630979
0.3315744442
0.3315756577
0.3315756577
0.3315756577
0.3315796326
0.3315819785
0.3315812886
0.3315795552
0.33157648
0.3315735844
0.33157648
0.3315795552
0.3315812886
0.3315811236
0.3315811236
0.3315811236
0.3315822851
0.3315819785
0.3315813021
0.3315803125
0.3315796073
0.3315803125
0.3315813021
0.3315819785
0.3315822851
)
;
    }
}


// ************************************************************************* //
