/*--------------------------------*- C++ -*----------------------------------*\
| =========                 |                                                 |
| \\      /  F ield         | OpenFOAM: The Open Source CFD Toolbox           |
|  \\    /   O peration     | Version:  4.x                                   |
|   \\  /    A nd           | Web:      www.OpenFOAM.org                      |
|    \\/     M anipulation  |                                                 |
\*---------------------------------------------------------------------------*/
FoamFile
{
    version     2.0;
    format      ascii;
    class       volScalarField;
    location    "8000";
    object      CO2;
}
// * * * * * * * * * * * * * * * * * * * * * * * * * * * * * * * * * * * * * //

dimensions      [0 0 0 0 0 0 0];

internalField   nonuniform List<scalar> 
1174
(
0.06315199028
0.06315357815
0.06315581684
0.06315873242
0.06316229199
0.06316641526
0.06317099105
0.06317589363
0.06318099623
0.06318617985
0.06319133498
0.0631963455
0.06320100648
0.06320466376
0.06315347844
0.06315601829
0.0631593951
0.06316352832
0.06316827361
0.06317345722
0.06317890367
0.06318445385
0.06318997416
0.06319535859
0.06320052388
0.06320538973
0.0632098016
0.06321320256
0.06315676162
0.06316124165
0.06316677539
0.06317304809
0.06317972114
0.06318649195
0.06319312205
0.06319944264
0.06320534731
0.06321077909
0.06321571468
0.06322014058
0.06322398744
0.06322686398
0.06316156453
0.063168513
0.0631764759
0.06318486848
0.06319320577
0.06320114129
0.06320846013
0.06321505319
0.06322088789
0.06322598194
0.0632303815
0.06323413845
0.06323726105
0.06323951762
0.06316498734
0.06317328781
0.06318232706
0.06319146689
0.06320024784
0.06320837834
0.06321570148
0.06322215867
0.06322775787
0.0632325483
0.06323660071
0.06323998805
0.06324274495
0.06324470348
0.06316156446
0.0631685129
0.06317647577
0.06318486833
0.06319320561
0.06320114112
0.06320845995
0.063215053
0.0632208877
0.06322598175
0.06323038132
0.06323413827
0.06323726087
0.06323951744
0.06315676156
0.06316124157
0.06316677528
0.06317304796
0.06317972099
0.06318649177
0.06319312185
0.06319944243
0.06320534708
0.06321077885
0.06321571443
0.06322014032
0.06322398717
0.06322686371
0.06315347839
0.06315601822
0.06315939501
0.0631635282
0.06316827347
0.06317345706
0.06317890349
0.06318445364
0.06318997392
0.06319535833
0.0632005236
0.06320538944
0.06320980129
0.06321320224
0.06315199024
0.0631535781
0.06315581678
0.06315873235
0.06316229189
0.06316641515
0.06317099092
0.06317589347
0.06318099604
0.06318617964
0.06319133474
0.06319634524
0.06320100619
0.06320466345
0.06315176078
0.06315347843
0.06315601828
0.06315939508
0.06316352829
0.06316827358
0.06317345719
0.06317890364
0.06318445381
0.06318997412
0.06319535854
0.06320052383
0.06320538969
0.06320980156
0.06321320252
0.06315682717
0.06316127606
0.06316669173
0.06317274644
0.06317911282
0.06318551642
0.06319175395
0.06319769046
0.06320324697
0.06320838529
0.06321309218
0.06321735631
0.06322110332
0.06322393074
0.06316524053
0.06317386342
0.06318321756
0.06319251028
0.06320120192
0.06320900117
0.06321580514
0.06322163181
0.06322656496
0.0632307159
0.06323419901
0.06323711283
0.06323950423
0.06324122199
0.06318016675
0.06319447466
0.06320804935
0.06321988012
0.06322962121
0.06323732819
0.06324324922
0.06324769439
0.06325096639
0.06325333003
0.0632550035
0.06325615992
0.06325693048
0.06325738776
0.06319422046
0.06321141179
0.06322594244
0.06323744209
0.06324615072
0.06325252228
0.06325703627
0.06326012114
0.06326213148
0.06326334878
0.06326399151
0.06326422921
0.06326420244
0.0632640628
0.06318016665
0.06319447454
0.06320804921
0.06321987997
0.06322962105
0.06323732802
0.06324324904
0.06324769422
0.06325096621
0.06325332985
0.06325500332
0.06325615975
0.06325693031
0.06325738758
0.06316524041
0.06317386328
0.06318321742
0.06319251012
0.06320120175
0.06320900099
0.06321580494
0.06322163159
0.06322656473
0.06323071566
0.06323419875
0.06323711256
0.06323950396
0.06324122172
0.06315682704
0.06316127592
0.06316669158
0.06317274627
0.06317911262
0.0631855162
0.0631917537
0.06319769019
0.06320324667
0.06320838497
0.06321309184
0.06321735596
0.06322110297
0.06322393038
0.06315347839
0.06315601822
0.063159395
0.0631635282
0.06316827346
0.06317345704
0.06317890346
0.06318445361
0.06318997388
0.06319535828
0.06320052354
0.06320538938
0.06320980122
0.06321320216
0.06315353487
0.06315676159
0.0631612416
0.06316677532
0.06317304801
0.06317972105
0.06318649185
0.06319312194
0.06319944253
0.0632053472
0.06321077898
0.06321571457
0.06322014047
0.06322398733
0.06322686388
0.06315826432
0.06316524047
0.06317386333
0.06318321745
0.06319251016
0.0632012018
0.06320900105
0.06321580503
0.0632216317
0.06322656485
0.0632307158
0.06323419891
0.06323711274
0.06323950415
0.06324122192
0.06319004864
0.06320818744
0.06322456972
0.06323796454
0.06324813075
0.06325537656
0.06326023146
0.06326325383
0.06326493915
0.0632656889
0.06326581106
0.06326553667
0.06326505097
0.06326456839
0.06324512604
0.06327566877
0.0632966501
0.0633089643
0.06331468114
0.06331587283
0.06331420451
0.06331087855
0.06330670785
0.06330221619
0.0632977294
0.06329345592
0.06328959472
0.06328664129
0.06331711499
0.06334739376
0.06336026974
0.06336239661
0.06335850978
0.06335158189
0.06334336951
0.06333486879
0.06332662066
0.06331890028
0.06331183389
0.06330548294
0.06329996364
0.06329584017
0.06324512535
0.06327566808
0.06329664947
0.06330896374
0.06331468064
0.06331587239
0.0633142041
0.06331087818
0.06330670752
0.06330221588
0.06329772912
0.06329345566
0.06328959447
0.06328664105
0.0631900481
0.06320818699
0.06322456929
0.06323796411
0.06324813032
0.06325537613
0.06326023103
0.0632632534
0.06326493873
0.06326568848
0.06326581066
0.06326553628
0.06326505059
0.06326456801
0.06316524035
0.0631738632
0.0631832173
0.06319250998
0.06320120159
0.06320900081
0.06321580475
0.0632216314
0.06322656453
0.06323071546
0.06323419855
0.06323711236
0.06323950377
0.06324122152
0.06315676155
0.06316124154
0.06316677523
0.06317304788
0.06317972089
0.06318649165
0.0631931217
0.06319944225
0.06320534688
0.06321077864
0.0632157142
0.06322014008
0.06322398692
0.06322686345
0.06315619505
0.06316156447
0.06316851289
0.06317647576
0.06318486832
0.0631932056
0.06320114111
0.06320845994
0.063215053
0.06322088769
0.06322598174
0.06323038131
0.06323413827
0.06323726087
0.06323951745
0.06316697748
0.06318016673
0.06319447458
0.06320804925
0.06321988
0.06322962109
0.06323732806
0.06324324909
0.06324769426
0.06325096626
0.0632533299
0.06325500338
0.0632561598
0.06325693037
0.06325738764
0.06320773997
0.06324512601
0.06327566866
0.06329664998
0.06330896418
0.06331468103
0.06331587273
0.06331420441
0.06331087846
0.06330670777
0.06330221611
0.06329772934
0.06329345586
0.06328959466
0.06328664123
0.06343363673
0.06347183151
0.06347788081
0.06346658367
0.06344759314
0.06342633832
0.06340555968
0.06338647126
0.06336948442
0.06335461944
0.06334173055
0.06333064382
0.06332133529
0.06331454187
0.06380282803
0.0637539753
0.06367946742
0.06360819974
0.06354772973
0.06349845133
0.06345873212
0.06342666813
0.06340060577
0.06337923749
0.06336157152
0.06334689907
0.06333488728
0.06332626086
0.06343363437
0.06347182991
0.06347787958
0.06346658267
0.06344759232
0.06342633763
0.06340555909
0.06338647075
0.06336948397
0.06335461904
0.06334173019
0.06333064349
0.06332133499
0.06331454159
0.0632451254
0.06327566797
0.06329664925
0.06330896345
0.0633146803
0.06331587203
0.06331420374
0.06331087782
0.06330670716
0.06330221555
0.0632977288
0.06329345536
0.06328959417
0.06328664077
0.06318016658
0.06319447437
0.06320804897
0.06321987966
0.0632296207
0.06323732763
0.06324324863
0.06324769379
0.06325096577
0.06325332941
0.06325500288
0.06325615931
0.06325692987
0.06325738715
0.06316156445
0.06316851285
0.06317647568
0.06318486819
0.06319320542
0.06320114087
0.06320845965
0.06321505267
0.06322088733
0.06322598135
0.06323038089
0.06323413782
0.06323726041
0.06323951696
0.06315818701
0.06316498728
0.0631732877
0.06318232692
0.06319146673
0.06320024765
0.06320837814
0.06321570127
0.06322215846
0.06322775765
0.06323254808
0.0632366005
0.06323998784
0.06324274475
0.06324470328
0.06317605228
0.06319422043
0.06321141164
0.06322594226
0.06323744191
0.06324615053
0.06325252209
0.06325703607
0.06326012095
0.06326213129
0.0632633486
0.06326399134
0.06326422904
0.06326420228
0.06326406265
0.06326310469
0.06331711542
0.06334739372
0.0633602696
0.06336239642
0.06335850957
0.06335158167
0.06334336929
0.06333486858
0.06332662045
0.06331890009
0.06331183372
0.06330548278
0.06329996348
0.06329584003
0.06373778935
0.06380282745
0.06375397463
0.06367946675
0.06360819915
0.06354772923
0.06349845091
0.06345873177
0.06342666783
0.0634006055
0.06337923727
0.06336157133
0.06334689891
0.06333488713
0.06332626073
0.06538959457
0.06458032712
0.06413267529
0.06387083137
0.06370874866
0.06360276245
0.06352986343
0.06347743773
0.06343828387
0.06340811996
0.0633843039
0.06336518571
0.06334991453
0.06333911593
0.06380282824
0.06375397301
0.0636794653
0.06360819805
0.06354772837
0.06349845024
0.06345873122
0.06342666738
0.06340060511
0.06337923692
0.06336157102
0.06334689862
0.06333488686
0.06332626048
0.06331711471
0.06334739276
0.06336026859
0.06336239547
0.06335850872
0.06335158091
0.06334336861
0.06333486796
0.06332661989
0.06331889957
0.06331183323
0.06330548232
0.06329996305
0.0632958396
0.06319422027
0.06321141136
0.06322594187
0.06323744143
0.06324615001
0.06325252154
0.06325703551
0.06326012038
0.06326213072
0.06326334803
0.06326399078
0.06326422849
0.06326420173
0.06326406211
0.06316498724
0.06317328762
0.06318232677
0.06319146651
0.06320024737
0.0632083778
0.06321570089
0.06322215804
0.0632277572
0.0632325476
0.0632366
0.06323998733
0.06324274422
0.06324470274
0.06315619502
0.06316156439
0.06316851278
0.06317647562
0.06318486816
0.06319320541
0.06320114091
0.06320845973
0.06321505278
0.06322088747
0.06322598152
0.06323038109
0.06323413805
0.06323726065
0.06323951723
0.06316697733
0.06318016647
0.06319447427
0.06320804891
0.06321987966
0.06322962075
0.06323732773
0.06324324877
0.06324769395
0.06325096596
0.06325332961
0.0632550031
0.06325615953
0.06325693011
0.06325738738
0.06320773918
0.06324512519
0.06327566775
0.06329664913
0.06330896341
0.06331468033
0.0633158721
0.06331420383
0.06331087793
0.06330670729
0.06330221566
0.06329772891
0.06329345547
0.06328959428
0.06328664088
0.06334733176
0.06343363335
0.06347182874
0.06347787863
0.06346658194
0.06344759176
0.06342633719
0.06340555874
0.06338647046
0.06336948373
0.06335461884
0.06334173001
0.06333064333
0.06332133484
0.06331454145
0.06373778846
0.06380282639
0.06375397183
0.06367946458
0.06360819764
0.06354772813
0.06349845009
0.06345873112
0.0634266673
0.06340060506
0.06337923688
0.06336157098
0.06334689859
0.06333488683
0.06332626045
0.06334733193
0.06343363269
0.06347182792
0.06347787787
0.06346658126
0.06344759116
0.06342633667
0.06340555828
0.06338647005
0.06336948336
0.06335461851
0.06334172971
0.06333064306
0.06332133459
0.0633145412
0.06324512596
0.06327566788
0.06329664889
0.06330896298
0.06331467981
0.06331587154
0.06331420327
0.06331087738
0.06330670675
0.06330221516
0.06329772843
0.06329345501
0.06328959385
0.06328664045
0.0631801667
0.06319447438
0.06320804888
0.0632198795
0.06322962049
0.0632373274
0.06324324838
0.06324769353
0.06325096551
0.06325332915
0.06325500262
0.06325615906
0.06325692963
0.0632573869
0.06316156446
0.06316851283
0.06317647563
0.06318486811
0.06319320529
0.06320114072
0.06320845948
0.06321505248
0.06322088713
0.06322598114
0.06323038068
0.06323413761
0.06323726019
0.06323951675
0.06315353483
0.06315676152
0.06316124149
0.06316677518
0.06317304784
0.06317972085
0.06318649162
0.06319312169
0.06319944225
0.0632053469
0.06321077866
0.06321571424
0.06322014013
0.06322398698
0.06322686352
0.0631582642
0.06316524031
0.06317386313
0.06318321723
0.06319250992
0.06320120154
0.06320900077
0.06321580471
0.06322163137
0.0632265645
0.06323071544
0.06323419854
0.06323711235
0.06323950376
0.06324122152
0.0631727154
0.06319004804
0.06320818685
0.06322456913
0.06323796394
0.06324813014
0.06325537595
0.06326023084
0.06326325321
0.06326493854
0.0632656883
0.06326581047
0.06326553609
0.06326505041
0.06326456783
0.06320773901
0.06324512483
0.06327566725
0.06329664856
0.06330896282
0.06331467976
0.06331587156
0.06331420333
0.06331087747
0.06330670686
0.06330221527
0.06329772856
0.06329345514
0.06328959397
0.06328664058
0.06326310357
0.06331711346
0.06334739157
0.06336026761
0.06336239471
0.06335850813
0.06335158046
0.06334336825
0.06333486768
0.06332661966
0.06331889939
0.06331183308
0.06330548218
0.06329996293
0.06329583949
0.06320773888
0.06324512461
0.06327566698
0.06329664825
0.06330896251
0.06331467945
0.06331587127
0.06331420306
0.0633108772
0.06330670661
0.06330221503
0.06329772833
0.06329345492
0.06328959377
0.06328664038
0.06317271557
0.06319004813
0.06320818681
0.06322456897
0.06323796368
0.06324812982
0.06325537559
0.06326023047
0.06326325283
0.06326493816
0.06326568792
0.06326581011
0.06326553574
0.06326505006
0.06326456749
0.0631652405
0.06317386322
0.06318321723
0.06319250983
0.06320120137
0.06320900054
0.06321580444
0.06322163106
0.06322656416
0.06323071508
0.06323419816
0.06323711196
0.06323950336
0.06324122111
0.06315676161
0.06316124157
0.06316677524
0.06317304786
0.06317972082
0.06318649154
0.06319312156
0.06319944207
0.06320534668
0.0632107784
0.06321571394
0.0632201398
0.06322398662
0.06322686314
0.06315176075
0.06315347837
0.06315601819
0.06315939497
0.06316352815
0.06316827341
0.06317345698
0.0631789034
0.06318445354
0.06318997382
0.06319535822
0.06320052347
0.06320538931
0.06320980115
0.06321320209
0.0631535801
0.063156827
0.06316127585
0.06316669149
0.06317274616
0.0631791125
0.06318551606
0.06319175355
0.06319769004
0.06320324652
0.06320838481
0.06321309168
0.06321735579
0.0632211028
0.06322393021
0.06315826419
0.06316524028
0.06317386308
0.06318321715
0.06319250981
0.06320120141
0.06320900063
0.06321580457
0.06322163122
0.06322656435
0.06323071528
0.06323419838
0.06323711219
0.0632395036
0.06324122136
0.06316697729
0.06318016636
0.06319447407
0.06320804864
0.06321987933
0.06322962038
0.06323732733
0.06324324835
0.06324769353
0.06325096554
0.06325332919
0.06325500268
0.06325615912
0.0632569297
0.06325738698
0.06317605198
0.06319421987
0.06321141088
0.06322594139
0.06323744098
0.0632461496
0.06325252118
0.06325703519
0.0632601201
0.06326213048
0.06326334782
0.06326399059
0.06326422831
0.06326420157
0.06326406196
0.06316697725
0.06318016629
0.06319447398
0.06320804852
0.0632198792
0.06322962023
0.06323732717
0.06324324819
0.06324769336
0.06325096537
0.06325332902
0.06325500251
0.06325615895
0.06325692953
0.06325738682
0.0631582642
0.06316524029
0.06317386306
0.0631832171
0.06319250972
0.06320120129
0.06320900047
0.06321580438
0.06322163101
0.06322656412
0.06323071504
0.06323419813
0.06323711193
0.06323950333
0.06324122109
0.06315358015
0.06315682706
0.0631612759
0.06316669151
0.06317274615
0.06317911245
0.06318551598
0.06319175343
0.06319768988
0.06320324633
0.0632083846
0.06321309144
0.06321735553
0.06322110252
0.06322392991
0.06315347844
0.06315601825
0.06315939501
0.06316352817
0.0631682734
0.06317345694
0.06317890332
0.06318445343
0.06318997367
0.06319535803
0.06320052326
0.06320538906
0.06320980087
0.06321320179
0.06315096734
0.06315199022
0.06315357808
0.06315581674
0.0631587323
0.06316229183
0.06316641507
0.06317099082
0.06317589336
0.06318099592
0.0631861795
0.0631913346
0.06319634509
0.06320100603
0.06320466329
0.06315176074
0.06315347837
0.06315601818
0.06315939495
0.06316352812
0.06316827337
0.06317345693
0.06317890334
0.06318445348
0.06318997374
0.06319535814
0.06320052339
0.06320538922
0.06320980106
0.063213202
0.06315353483
0.06315676151
0.06316124147
0.06316677514
0.06317304777
0.06317972077
0.06318649151
0.06319312156
0.0631994421
0.06320534673
0.06321077848
0.06321571405
0.06322013993
0.06322398676
0.06322686329
0.06315619502
0.06316156437
0.06316851273
0.06317647553
0.06318486802
0.06319320523
0.06320114069
0.06320845947
0.06321505249
0.06322088715
0.06322598117
0.06323038073
0.06323413766
0.06323726025
0.06323951681
0.06315818693
0.06316498712
0.06317328744
0.06318232657
0.0631914663
0.06320024716
0.0632083776
0.0632157007
0.06322215786
0.06322775704
0.06323254745
0.06323659986
0.0632399872
0.06324274409
0.06324470262
0.06315619501
0.06316156437
0.06316851272
0.06317647552
0.063184868
0.0631932052
0.06320114065
0.06320845942
0.06321505242
0.06322088708
0.06322598109
0.06323038063
0.06323413757
0.06323726015
0.0632395167
0.06315353483
0.06315676151
0.06316124148
0.06316677514
0.06317304777
0.06317972074
0.06318649147
0.06319312149
0.06319944202
0.06320534663
0.06321077836
0.0632157139
0.06322013977
0.06322398659
0.06322686311
0.06315176075
0.06315347838
0.06315601819
0.06315939495
0.06316352811
0.06316827333
0.06317345687
0.06317890326
0.06318445336
0.0631899736
0.06319535797
0.0632005232
0.063205389
0.06320980082
0.06321320175
0.06315096736
0.06315199025
0.0631535781
0.06315581676
0.06315873231
0.06316229182
0.06316641504
0.06317099077
0.06317589329
0.06318099581
0.06318617937
0.06319133443
0.06319634489
0.06320100581
0.06320466304
)
;

boundaryField
{
    top
    {
        type            zeroGradient;
    }
    bottom
    {
        type            zeroGradient;
    }
    side-walls
    {
        type            zeroGradient;
    }
    inlet
    {
        type            zeroGradient;
    }
    outlet
    {
        type            zeroGradient;
    }
    procBoundary1to0
    {
        type            processor;
        value           nonuniform List<scalar> 
97
(
0.06315096736
0.06315096736
0.06315176076
0.06315353484
0.06315619501
0.06315818694
0.06315619497
0.0631535348
0.06315176072
0.06315096734
0.06315074359
0.06315358017
0.06315358017
0.06315358017
0.06315826423
0.06316697729
0.063176052
0.0631669772
0.06315826413
0.06315358007
0.06315176073
0.06315154844
0.06315362693
0.06317271564
0.06317271564
0.06317271564
0.06320773918
0.06326310345
0.06320773851
0.0631727151
0.0631582641
0.0631535348
0.06315272584
0.0631572859
0.06317320858
0.06334733438
0.06334733438
0.06334733438
0.06373778572
0.06334733071
0.06320773861
0.06316697718
0.06315619497
0.06315356499
0.06316073132
0.06319085522
0.06330985996
0.06693563931
0.06693563931
0.06693563931
0.06373778674
0.06373778674
0.06326310342
0.06317605193
0.0631581869
0.06315272583
0.06315728586
0.0631732085
0.06321940746
0.06330985971
0.06321940728
0.0632077396
0.0632077396
0.0632077396
0.06316697732
0.06315619499
0.06315154843
0.06315362693
0.06315970814
0.06317320845
0.06319085476
0.06317320839
0.06315970813
0.06315826429
0.06315826429
0.06315826429
0.06315353485
0.06315074359
0.06315156448
0.06315362692
0.06315728585
0.06316073121
0.06315728583
0.06315362692
0.06315156449
0.06315176077
0.06315176077
0.06315176077
0.06315037877
0.06315074359
0.06315154844
0.06315272584
0.06315356497
0.06315272584
0.06315154844
0.06315074359
0.06315037878
)
;
    }
}


// ************************************************************************* //
