/*--------------------------------*- C++ -*----------------------------------*\
| =========                 |                                                 |
| \\      /  F ield         | OpenFOAM: The Open Source CFD Toolbox           |
|  \\    /   O peration     | Version:  4.x                                   |
|   \\  /    A nd           | Web:      www.OpenFOAM.org                      |
|    \\/     M anipulation  |                                                 |
\*---------------------------------------------------------------------------*/
FoamFile
{
    version     2.0;
    format      ascii;
    class       volScalarField;
    location    "8000";
    object      Cpv;
}
// * * * * * * * * * * * * * * * * * * * * * * * * * * * * * * * * * * * * * //

dimensions      [0 2 -2 -1 0 0 0];

internalField   nonuniform List<scalar> 
1174
(
1245.090727
1245.09071
1245.090697
1245.090667
1245.09064
1245.090612
1245.090579
1245.090532
1245.090495
1245.090442
1245.090372
1245.090326
1245.090297
1245.090264
1245.090939
1245.090901
1245.090867
1245.09084
1245.09081
1245.090752
1245.090698
1245.090663
1245.090608
1245.090551
1245.090502
1245.090445
1245.090395
1245.09034
1245.090519
1245.090477
1245.09042
1245.090355
1245.090284
1245.090223
1245.090163
1245.090119
1245.090067
1245.089994
1245.089955
1245.089905
1245.089871
1245.089825
1245.091279
1245.091208
1245.091145
1245.091059
1245.090959
1245.090884
1245.09082
1245.090759
1245.090732
1245.090695
1245.090642
1245.0906
1245.090581
1245.090578
1245.091147
1245.091046
1245.090959
1245.090874
1245.090816
1245.090752
1245.090708
1245.090635
1245.090565
1245.090508
1245.09047
1245.090445
1245.09041
1245.090374
1245.089795
1245.089745
1245.089651
1245.089551
1245.089476
1245.089412
1245.089348
1245.089282
1245.08925
1245.089217
1245.089143
1245.089121
1245.0891
1245.08908
1245.090236
1245.090183
1245.090151
1245.09008
1245.090034
1245.089956
1245.089922
1245.089863
1245.089827
1245.089788
1245.089744
1245.089705
1245.089689
1245.089687
1245.090795
1245.090756
1245.090718
1245.090693
1245.090655
1245.09059
1245.090552
1245.090511
1245.090472
1245.090413
1245.090366
1245.090324
1245.090304
1245.09029
1245.090885
1245.090865
1245.09084
1245.090802
1245.090778
1245.090738
1245.0907
1245.09066
1245.090633
1245.090593
1245.090558
1245.090506
1245.090455
1245.090415
1245.090637
1245.090618
1245.090614
1245.090606
1245.090575
1245.090552
1245.090497
1245.090447
1245.090426
1245.090361
1245.090306
1245.090274
1245.090229
1245.090206
1245.09017
1245.091791
1245.091752
1245.091687
1245.091623
1245.091537
1245.091465
1245.091438
1245.091399
1245.091333
1245.091302
1245.091263
1245.091238
1245.091203
1245.091187
1245.091361
1245.09128
1245.091189
1245.091102
1245.091023
1245.090974
1245.090908
1245.090838
1245.090784
1245.090749
1245.090729
1245.090704
1245.09069
1245.090685
1245.090349
1245.090239
1245.090112
1245.089979
1245.089901
1245.08982
1245.089769
1245.089737
1245.089703
1245.089679
1245.089637
1245.089633
1245.089612
1245.089626
1245.090774
1245.090612
1245.090477
1245.090378
1245.090331
1245.090269
1245.090242
1245.090198
1245.09019
1245.090161
1245.090148
1245.09014
1245.090144
1245.090146
1245.091293
1245.091141
1245.091021
1245.090923
1245.090845
1245.09077
1245.090719
1245.090683
1245.090643
1245.090639
1245.090618
1245.090613
1245.090614
1245.0906
1245.091856
1245.091798
1245.091728
1245.091635
1245.091534
1245.091468
1245.091404
1245.091339
1245.091311
1245.091286
1245.091249
1245.091203
1245.091174
1245.091164
1245.090135
1245.090064
1245.09001
1245.089918
1245.089866
1245.089806
1245.089749
1245.089694
1245.089651
1245.089579
1245.089543
1245.089488
1245.089466
1245.089448
1245.091188
1245.091191
1245.091173
1245.091169
1245.091122
1245.091083
1245.091031
1245.090985
1245.09094
1245.090883
1245.090835
1245.090785
1245.090757
1245.090711
1245.091059
1245.091019
1245.090984
1245.090923
1245.090842
1245.09078
1245.090704
1245.090669
1245.090594
1245.090543
1245.090496
1245.090456
1245.090441
1245.090399
1245.090377
1245.090063
1245.089972
1245.089893
1245.089799
1245.089731
1245.089697
1245.089632
1245.089574
1245.089526
1245.089473
1245.089412
1245.089391
1245.089367
1245.08935
1245.08927
1245.089863
1245.089668
1245.089538
1245.08941
1245.089298
1245.089262
1245.089224
1245.089204
1245.089172
1245.089132
1245.089139
1245.089169
1245.089146
1245.089181
1245.089598
1245.089317
1245.089125
1245.089011
1245.088964
1245.088993
1245.088997
1245.089
1245.089017
1245.089088
1245.089135
1245.089161
1245.089181
1245.089162
1245.090114
1245.089833
1245.089733
1245.089726
1245.089747
1245.089815
1245.089841
1245.089925
1245.089997
1245.090084
1245.090146
1245.090222
1245.090266
1245.09031
1245.088978
1245.088727
1245.088522
1245.088419
1245.088354
1245.08837
1245.088408
1245.088444
1245.088484
1245.088558
1245.088603
1245.088637
1245.088685
1245.088691
1245.090254
1245.090069
1245.089909
1245.089768
1245.0897
1245.089633
1245.089602
1245.089573
1245.089554
1245.08955
1245.089549
1245.089556
1245.089589
1245.089579
1245.090851
1245.090797
1245.090704
1245.090603
1245.09054
1245.090479
1245.090398
1245.090338
1245.09029
1245.090252
1245.090254
1245.090233
1245.09021
1245.090184
1245.090248
1245.090224
1245.090159
1245.090101
1245.090037
1245.089981
1245.089901
1245.089852
1245.089794
1245.089731
1245.089669
1245.089643
1245.089611
1245.089622
1245.090309
1245.090245
1245.090207
1245.090143
1245.090086
1245.09002
1245.089945
1245.089902
1245.089859
1245.089774
1245.089737
1245.089704
1245.089694
1245.089662
1245.089621
1245.090749
1245.090621
1245.090485
1245.090354
1245.090219
1245.090129
1245.090045
1245.089994
1245.089981
1245.089941
1245.089916
1245.089903
1245.089895
1245.089876
1245.089869
1245.089376
1245.089025
1245.088783
1245.088604
1245.088474
1245.08842
1245.088434
1245.088429
1245.088437
1245.088492
1245.088542
1245.088601
1245.088643
1245.08871
1245.088758
1245.088099
1245.087741
1245.087677
1245.087766
1245.087953
1245.088169
1245.088356
1245.088538
1245.08871
1245.088839
1245.088944
1245.089057
1245.089174
1245.089225
1245.084513
1245.084955
1245.085633
1245.0863
1245.08683
1245.087281
1245.087621
1245.087892
1245.088136
1245.088307
1245.088446
1245.088579
1245.088649
1245.088733
1245.088283
1245.087932
1245.087837
1245.087946
1245.088105
1245.088293
1245.0885
1245.088675
1245.088824
1245.088984
1245.0891
1245.089186
1245.089272
1245.089324
1245.089764
1245.089505
1245.089326
1245.089231
1245.089173
1245.089197
1245.089191
1245.089237
1245.089288
1245.089351
1245.089393
1245.089425
1245.089487
1245.089505
1245.09064
1245.090545
1245.090438
1245.090339
1245.090241
1245.090202
1245.09018
1245.09012
1245.090095
1245.090099
1245.090066
1245.090043
1245.090026
1245.090013
1245.091028
1245.090978
1245.090904
1245.09082
1245.090755
1245.090694
1245.090617
1245.090584
1245.090524
1245.090474
1245.090447
1245.090404
1245.090405
1245.090375
1245.091096
1245.091031
1245.090929
1245.090828
1245.090736
1245.090662
1245.090614
1245.09055
1245.090483
1245.090411
1245.090365
1245.090346
1245.090293
1245.090266
1245.090241
1245.090236
1245.090088
1245.089955
1245.089833
1245.089746
1245.089653
1245.08958
1245.089539
1245.089519
1245.089498
1245.089479
1245.08946
1245.089461
1245.089432
1245.089453
1245.091294
1245.090786
1245.090478
1245.090382
1245.090368
1245.09039
1245.090458
1245.090532
1245.090561
1245.09065
1245.090726
1245.090801
1245.090874
1245.090908
1245.090931
1245.085598
1245.085016
1245.085449
1245.086123
1245.08679
1245.087338
1245.087808
1245.088164
1245.088473
1245.088713
1245.088876
1245.089033
1245.089146
1245.089274
1245.08936
1244.461269
1244.468592
1244.472504
1244.474585
1244.475758
1244.476396
1244.476712
1244.476841
1244.476811
1244.476712
1244.476574
1244.476363
1244.476111
1244.475823
1245.084926
1245.085375
1245.086106
1245.086756
1245.087309
1245.087757
1245.08812
1245.088419
1245.088647
1245.088845
1245.089012
1245.089142
1245.089274
1245.089358
1245.089107
1245.088834
1245.088714
1245.088688
1245.088701
1245.088772
1245.088876
1245.088957
1245.089058
1245.089111
1245.08917
1245.089237
1245.089298
1245.089321
1245.090193
1245.09002
1245.089866
1245.089767
1245.089694
1245.089629
1245.089586
1245.089582
1245.089566
1245.089554
1245.089534
1245.089542
1245.089545
1245.089547
1245.090376
1245.090292
1245.090201
1245.090147
1245.09006
1245.089967
1245.089889
1245.089834
1245.089784
1245.089763
1245.089709
1245.089684
1245.089689
1245.089663
1245.090204
1245.09016
1245.090088
1245.089998
1245.089905
1245.089816
1245.089762
1245.089675
1245.089626
1245.089583
1245.08955
1245.089502
1245.089451
1245.08942
1245.089407
1245.0899
1245.08977
1245.08964
1245.089508
1245.089399
1245.089297
1245.089232
1245.089163
1245.08913
1245.089084
1245.089081
1245.089072
1245.089044
1245.08905
1245.089023
1245.08983
1245.089488
1245.089206
1245.089023
1245.088924
1245.088852
1245.088846
1245.088867
1245.088882
1245.088917
1245.088986
1245.089015
1245.089053
1245.0891
1245.089152
1245.088698
1245.087914
1245.087555
1245.087477
1245.087579
1245.087722
1245.087925
1245.088153
1245.088325
1245.088477
1245.088608
1245.088708
1245.0888
1245.088886
1245.088938
1245.085174
1245.084571
1245.085061
1245.085715
1245.086369
1245.086949
1245.087412
1245.087772
1245.088047
1245.088284
1245.088474
1245.08864
1245.088794
1245.088913
1245.089007
1245.088516
1245.087726
1245.087381
1245.087331
1245.087416
1245.087613
1245.087796
1245.088006
1245.088167
1245.088314
1245.08847
1245.088566
1245.088677
1245.088766
1245.088827
1245.089854
1245.089575
1245.089371
1245.089253
1245.089234
1245.089215
1245.089241
1245.089274
1245.089313
1245.08935
1245.08941
1245.089433
1245.08949
1245.089509
1245.090107
1245.089959
1245.089831
1245.08975
1245.089647
1245.089571
1245.089544
1245.089502
1245.089446
1245.08941
1245.08938
1245.089371
1245.089366
1245.089373
1245.090373
1245.09031
1245.090243
1245.090149
1245.090092
1245.090022
1245.08994
1245.089873
1245.089811
1245.089754
1245.089705
1245.089649
1245.089598
1245.089596
1245.090378
1245.090366
1245.090315
1245.090256
1245.090229
1245.090162
1245.090098
1245.090027
1245.089974
1245.089918
1245.08985
1245.089804
1245.08977
1245.089735
1245.089722
1245.091022
1245.090946
1245.090911
1245.09084
1245.090772
1245.090677
1245.090604
1245.090552
1245.090493
1245.090487
1245.090454
1245.090419
1245.090401
1245.090366
1245.090323
1245.091743
1245.091603
1245.091408
1245.091228
1245.091097
1245.090998
1245.090941
1245.090886
1245.090859
1245.090819
1245.090839
1245.090856
1245.090837
1245.090857
1245.090886
1245.090415
1245.090064
1245.089808
1245.089667
1245.089575
1245.089506
1245.089503
1245.089528
1245.089546
1245.089602
1245.089657
1245.089694
1245.089736
1245.089794
1245.089819
1245.088792
1245.088309
1245.088026
1245.087931
1245.087897
1245.087961
1245.088039
1245.088125
1245.088214
1245.088308
1245.088412
1245.088508
1245.088568
1245.08859
1245.088617
1245.090294
1245.08993
1245.089659
1245.089442
1245.089329
1245.089271
1245.089256
1245.089283
1245.089321
1245.089389
1245.089424
1245.089463
1245.089512
1245.089532
1245.089561
1245.090813
1245.090666
1245.090457
1245.090301
1245.090163
1245.090047
1245.089964
1245.089944
1245.08991
1245.089892
1245.089906
1245.089905
1245.089884
1245.089893
1245.089907
1245.090684
1245.090621
1245.090506
1245.090432
1245.090347
1245.090299
1245.090237
1245.090192
1245.090164
1245.090142
1245.090102
1245.090071
1245.090054
1245.090043
1245.091001
1245.090949
1245.090896
1245.090838
1245.0908
1245.090732
1245.09065
1245.090587
1245.090557
1245.090515
1245.090492
1245.090465
1245.090436
1245.090419
1245.091573
1245.091532
1245.091501
1245.091439
1245.091426
1245.091406
1245.091371
1245.091297
1245.091224
1245.091167
1245.0911
1245.091061
1245.091013
1245.090973
1245.090935
1245.090448
1245.090429
1245.090365
1245.090333
1245.090268
1245.090209
1245.090146
1245.090104
1245.09004
1245.090002
1245.089981
1245.089924
1245.089887
1245.089846
1245.089842
1245.090493
1245.090425
1245.090364
1245.090276
1245.090209
1245.090142
1245.090075
1245.090025
1245.089978
1245.089944
1245.089878
1245.089851
1245.089821
1245.089837
1245.089795
1245.090804
1245.090694
1245.090573
1245.090446
1245.090326
1245.090247
1245.090163
1245.090109
1245.09007
1245.090048
1245.090027
1245.09002
1245.090018
1245.090012
1245.090031
1245.090703
1245.090533
1245.09039
1245.09025
1245.090141
1245.090071
1245.089996
1245.089953
1245.089932
1245.089904
1245.089909
1245.089934
1245.089903
1245.089915
1245.089904
1245.090678
1245.090565
1245.090432
1245.090334
1245.090241
1245.090147
1245.090079
1245.090023
1245.090028
1245.089995
1245.089951
1245.08996
1245.089957
1245.089944
1245.089928
1245.090948
1245.090882
1245.090816
1245.090713
1245.090648
1245.090573
1245.090503
1245.090473
1245.09042
1245.090347
1245.090258
1245.090227
1245.090192
1245.090139
1245.090108
1245.090811
1245.090783
1245.090738
1245.090673
1245.090631
1245.090557
1245.090498
1245.090436
1245.090367
1245.090329
1245.090291
1245.090268
1245.090217
1245.090205
1245.090173
1245.091249
1245.091227
1245.091228
1245.091197
1245.09113
1245.091086
1245.09104
1245.090996
1245.09095
1245.090888
1245.090835
1245.090777
1245.090736
1245.090712
1245.090496
1245.090481
1245.090472
1245.090442
1245.090435
1245.090418
1245.090354
1245.090295
1245.090264
1245.090244
1245.090187
1245.090125
1245.090098
1245.090029
1245.089979
1245.090995
1245.090976
1245.090959
1245.090917
1245.090872
1245.090812
1245.090764
1245.090723
1245.090666
1245.090616
1245.090579
1245.090529
1245.09049
1245.090444
1245.090405
1245.090438
1245.09041
1245.090365
1245.090322
1245.090267
1245.090205
1245.09014
1245.090085
1245.090067
1245.089984
1245.089937
1245.089904
1245.089873
1245.089848
1245.089817
1245.091396
1245.091349
1245.091285
1245.091202
1245.091116
1245.091022
1245.090959
1245.090912
1245.090819
1245.090772
1245.090735
1245.090677
1245.090621
1245.090593
1245.090578
1245.090705
1245.090658
1245.090562
1245.090475
1245.090394
1245.090309
1245.09024
1245.090181
1245.090146
1245.090097
1245.090043
1245.09
1245.089979
1245.089954
1245.089952
1245.091869
1245.091833
1245.091754
1245.091662
1245.091568
1245.09151
1245.091425
1245.091372
1245.091308
1245.091256
1245.091217
1245.091163
1245.091131
1245.091087
1245.091034
1245.090803
1245.090782
1245.090754
1245.090721
1245.090674
1245.0906
1245.090537
1245.090457
1245.090409
1245.090382
1245.090329
1245.090295
1245.090282
1245.090267
1245.090272
1245.0903
1245.090284
1245.090233
1245.090204
1245.090183
1245.090159
1245.090095
1245.090031
1245.089986
1245.089959
1245.089926
1245.089885
1245.089828
1245.089784
1245.089755
1245.090675
1245.090663
1245.090643
1245.090639
1245.090622
1245.090599
1245.090576
1245.090526
1245.090467
1245.090442
1245.090402
1245.090349
1245.090306
1245.09027
1245.090232
)
;

boundaryField
{
    top
    {
        type            calculated;
        value           nonuniform List<scalar> 
127
(
1245.090675
1245.090885
1245.091188
1245.090248
1245.091028
1245.090376
1245.090373
1245.091001
1245.091249
1245.090663
1245.090865
1245.091191
1245.090224
1245.090978
1245.090292
1245.09031
1245.090949
1245.091227
1245.090643
1245.09084
1245.091173
1245.090159
1245.090904
1245.090201
1245.090243
1245.090896
1245.091228
1245.090639
1245.090802
1245.091169
1245.090101
1245.09082
1245.090147
1245.090149
1245.090838
1245.091197
1245.090622
1245.090778
1245.091122
1245.090037
1245.090755
1245.09006
1245.090092
1245.0908
1245.09113
1245.090599
1245.090738
1245.091083
1245.089981
1245.090694
1245.089967
1245.090022
1245.090732
1245.091086
1245.090576
1245.0907
1245.091031
1245.089901
1245.090617
1245.089889
1245.08994
1245.09065
1245.09104
1245.090526
1245.09066
1245.090985
1245.089852
1245.090584
1245.089834
1245.089873
1245.090587
1245.090996
1245.090467
1245.090633
1245.09094
1245.089794
1245.090524
1245.089784
1245.089811
1245.090557
1245.09095
1245.090442
1245.090593
1245.090883
1245.089731
1245.090474
1245.089763
1245.089754
1245.090515
1245.090888
1245.090402
1245.090558
1245.090835
1245.089669
1245.090447
1245.089709
1245.089705
1245.090492
1245.090835
1245.090349
1245.090506
1245.090785
1245.089643
1245.090404
1245.089684
1245.089649
1245.090465
1245.090777
1245.090306
1245.090455
1245.090757
1245.089611
1245.090405
1245.089689
1245.089598
1245.090436
1245.090736
1245.09027
1245.090415
1245.090711
1245.089622
1245.090375
1245.089663
1245.089596
1245.090419
1245.090712
1245.090232
)
;
    }
    bottom
    {
        type            calculated;
        value           nonuniform List<scalar> 
134
(
1245.090637
1245.091059
1245.090309
1245.091096
1245.090204
1245.090378
1245.091573
1245.090496
1245.090727
1245.090618
1245.091019
1245.090245
1245.091031
1245.09016
1245.090366
1245.091532
1245.090481
1245.09071
1245.090614
1245.090984
1245.090207
1245.090929
1245.090088
1245.090315
1245.091501
1245.090472
1245.090697
1245.090606
1245.090923
1245.090143
1245.090828
1245.089998
1245.090256
1245.091439
1245.090442
1245.090667
1245.090575
1245.090842
1245.090086
1245.090736
1245.089905
1245.090229
1245.091426
1245.090435
1245.09064
1245.090552
1245.09078
1245.09002
1245.090662
1245.089816
1245.090162
1245.091406
1245.090418
1245.090612
1245.090497
1245.090704
1245.089945
1245.090614
1245.089762
1245.090098
1245.091371
1245.090354
1245.090579
1245.090447
1245.090669
1245.089902
1245.09055
1245.089675
1245.090027
1245.091297
1245.090295
1245.090532
1245.090426
1245.090594
1245.089859
1245.090483
1245.089626
1245.089974
1245.091224
1245.090264
1245.090495
1245.090361
1245.090543
1245.089774
1245.090411
1245.089583
1245.089918
1245.091167
1245.090244
1245.090442
1245.090306
1245.090496
1245.089737
1245.090365
1245.08955
1245.08985
1245.0911
1245.090187
1245.090372
1245.090274
1245.090456
1245.089704
1245.090346
1245.089502
1245.089804
1245.091061
1245.090125
1245.090326
1245.090229
1245.090441
1245.089694
1245.090293
1245.089451
1245.08977
1245.091013
1245.090098
1245.090297
1245.090206
1245.090399
1245.089662
1245.090266
1245.08942
1245.089735
1245.090973
1245.090029
1245.090264
1245.09017
1245.090377
1245.089621
1245.090241
1245.089407
1245.089722
1245.090935
1245.089979
)
;
    }
    side-walls
    {
        type            calculated;
        value           nonuniform List<scalar> 
261
(
1245.090727
1245.090939
1245.090519
1245.091279
1245.091147
1245.089795
1245.090236
1245.090795
1245.090885
1245.09071
1245.090901
1245.090477
1245.091208
1245.091046
1245.089745
1245.090183
1245.090756
1245.090865
1245.090697
1245.090867
1245.09042
1245.091145
1245.090959
1245.089651
1245.090151
1245.090718
1245.09084
1245.090667
1245.09084
1245.090355
1245.091059
1245.090874
1245.089551
1245.09008
1245.090693
1245.090802
1245.09064
1245.09081
1245.090284
1245.090959
1245.090816
1245.089476
1245.090034
1245.090655
1245.090778
1245.090612
1245.090752
1245.090223
1245.090884
1245.090752
1245.089412
1245.089956
1245.09059
1245.090738
1245.090579
1245.090698
1245.090163
1245.09082
1245.090708
1245.089348
1245.089922
1245.090552
1245.0907
1245.090532
1245.090663
1245.090119
1245.090759
1245.090635
1245.089282
1245.089863
1245.090511
1245.09066
1245.090495
1245.090608
1245.090067
1245.090732
1245.090565
1245.08925
1245.089827
1245.090472
1245.090633
1245.090442
1245.090551
1245.089994
1245.090695
1245.090508
1245.089217
1245.089788
1245.090413
1245.090593
1245.090372
1245.090502
1245.089955
1245.090642
1245.09047
1245.089143
1245.089744
1245.090366
1245.090558
1245.090326
1245.090445
1245.089905
1245.0906
1245.090445
1245.089121
1245.089705
1245.090324
1245.090506
1245.090297
1245.090395
1245.089871
1245.090581
1245.09041
1245.0891
1245.089689
1245.090304
1245.090455
1245.090264
1245.09034
1245.089825
1245.090578
1245.090374
1245.08908
1245.089687
1245.09029
1245.090415
1245.090496
1245.090995
1245.090438
1245.091396
1245.090705
1245.091869
1245.090803
1245.0903
1245.090675
1245.090481
1245.090976
1245.09041
1245.091349
1245.090658
1245.091833
1245.090782
1245.090284
1245.090663
1245.090472
1245.090959
1245.090365
1245.091285
1245.090562
1245.091754
1245.090754
1245.090233
1245.090643
1245.090442
1245.090917
1245.090322
1245.091202
1245.090475
1245.091662
1245.090721
1245.090204
1245.090639
1245.090435
1245.090872
1245.090267
1245.091116
1245.090394
1245.091568
1245.090674
1245.090183
1245.090622
1245.090418
1245.090812
1245.090205
1245.091022
1245.090309
1245.09151
1245.0906
1245.090159
1245.090599
1245.090354
1245.090764
1245.09014
1245.090959
1245.09024
1245.091425
1245.090537
1245.090095
1245.090576
1245.090295
1245.090723
1245.090085
1245.090912
1245.090181
1245.091372
1245.090457
1245.090031
1245.090526
1245.090264
1245.090666
1245.090067
1245.090819
1245.090146
1245.091308
1245.090409
1245.089986
1245.090467
1245.090244
1245.090616
1245.089984
1245.090772
1245.090097
1245.091256
1245.090382
1245.089959
1245.090442
1245.090187
1245.090579
1245.089937
1245.090735
1245.090043
1245.091217
1245.090329
1245.089926
1245.090402
1245.090125
1245.090529
1245.089904
1245.090677
1245.09
1245.091163
1245.090295
1245.089885
1245.090349
1245.090098
1245.09049
1245.089873
1245.090621
1245.089979
1245.091131
1245.090282
1245.089828
1245.090306
1245.090029
1245.090444
1245.089848
1245.090593
1245.089954
1245.091087
1245.090267
1245.089784
1245.09027
1245.089979
1245.090405
1245.089817
1245.090578
1245.089952
1245.091034
1245.090272
1245.089755
1245.090232
)
;
    }
    inlet
    {
        type            calculated;
        value           nonuniform 0();
    }
    outlet
    {
        type            calculated;
        value           nonuniform List<scalar> 
81
(
1245.090264
1245.09034
1245.089825
1245.090578
1245.090374
1245.08908
1245.089687
1245.09029
1245.090415
1245.09017
1245.091187
1245.090685
1245.089626
1245.090146
1245.0906
1245.091164
1245.089448
1245.090711
1245.090377
1245.08927
1245.089181
1245.089162
1245.09031
1245.088691
1245.089579
1245.090184
1245.089622
1245.089621
1245.089869
1245.088758
1245.089225
1245.088733
1245.089324
1245.089505
1245.090013
1245.090375
1245.090241
1245.089453
1245.090931
1245.08936
1244.475823
1245.089358
1245.089321
1245.089547
1245.089663
1245.089407
1245.089023
1245.089152
1245.088938
1245.089007
1245.088827
1245.089509
1245.089373
1245.089596
1245.089722
1245.090323
1245.090886
1245.089819
1245.088617
1245.089561
1245.089907
1245.090043
1245.090419
1245.090935
1245.089842
1245.089795
1245.090031
1245.089904
1245.089928
1245.090108
1245.090173
1245.090712
1245.089979
1245.090405
1245.089817
1245.090578
1245.089952
1245.091034
1245.090272
1245.089755
1245.090232
)
;
    }
    procBoundary1to0
    {
        type            processor;
        value           nonuniform List<scalar> 
97
(
1245.090735
1245.090735
1245.090915
1245.090533
1245.091333
1245.091224
1245.089814
1245.090268
1245.090809
1245.090885
1245.090637
1245.091827
1245.091827
1245.091827
1245.091433
1245.090504
1245.090925
1245.091429
1245.091938
1245.090154
1245.091215
1245.09107
1245.090123
1245.090001
1245.090001
1245.090001
1245.089935
1245.090608
1245.089294
1245.090392
1245.090882
1245.09026
1245.090346
1245.09085
1245.08971
1245.08887
1245.08887
1245.08887
1245.085109
1245.089054
1245.090086
1245.090754
1245.091111
1245.091105
1245.090382
1245.091959
1245.089803
1244.446092
1244.446092
1244.446092
1245.085528
1245.085528
1245.089593
1245.090351
1245.090408
1245.090255
1245.090008
1245.090171
1245.089867
1245.089385
1245.089685
1245.090193
1245.090193
1245.090193
1245.090231
1245.090444
1245.090397
1245.091093
1245.091841
1245.090731
1245.089444
1245.090622
1245.090904
1245.090755
1245.090755
1245.090755
1245.091047
1245.091585
1245.090473
1245.090532
1245.090939
1245.090823
1245.090766
1245.090969
1245.090827
1245.09126
1245.09126
1245.09126
1245.090499
1245.091008
1245.090462
1245.091414
1245.090702
1245.091903
1245.090793
1245.090288
1245.09067
)
;
    }
}


// ************************************************************************* //
