/*--------------------------------*- C++ -*----------------------------------*\
| =========                 |                                                 |
| \\      /  F ield         | OpenFOAM: The Open Source CFD Toolbox           |
|  \\    /   O peration     | Version:  4.x                                   |
|   \\  /    A nd           | Web:      www.OpenFOAM.org                      |
|    \\/     M anipulation  |                                                 |
\*---------------------------------------------------------------------------*/
FoamFile
{
    version     2.0;
    format      ascii;
    class       volScalarField;
    location    "8000";
    object      H2;
}
// * * * * * * * * * * * * * * * * * * * * * * * * * * * * * * * * * * * * * //

dimensions      [0 0 0 0 0 0 0];

internalField   nonuniform List<scalar> 
1174
(
0.002172464288
0.002172427803
0.002172376367
0.002172309383
0.002172227608
0.002172132889
0.002172027784
0.002171915182
0.002171797997
0.002171678964
0.002171560598
0.002171445567
0.002171338572
0.002171254625
0.002172430087
0.002172371725
0.002172294135
0.002172199171
0.002172090152
0.002171971073
0.002171845967
0.002171718493
0.002171591719
0.002171468081
0.002171349492
0.002171237793
0.002171136531
0.002171058479
0.002172354629
0.002172251678
0.002172124521
0.002171980394
0.002171827082
0.002171671541
0.002171519249
0.002171374087
0.002171238497
0.002171113787
0.002171000492
0.002170898917
0.00217081065
0.002170744658
0.002172244237
0.002172084554
0.002171901572
0.002171708734
0.002171517187
0.002171334893
0.00217116679
0.002171015383
0.002170881419
0.002170764486
0.002170663523
0.002170577334
0.002170505721
0.002170453983
0.00217216556
0.002171974804
0.002171767087
0.00217155708
0.002171355344
0.002171168577
0.002171000384
0.002170852107
0.002170723562
0.002170613615
0.002170520636
0.002170442945
0.00217037974
0.002170334855
0.002172244238
0.002172084556
0.002171901575
0.002171708738
0.002171517191
0.002171334897
0.002171166794
0.002171015388
0.002170881423
0.002170764491
0.002170663528
0.002170577338
0.002170505725
0.002170453988
0.00217235463
0.00217225168
0.002172124523
0.002171980397
0.002171827086
0.002171671545
0.002171519254
0.002171374092
0.002171238502
0.002171113793
0.002171000498
0.002170898923
0.002170810656
0.002170744665
0.002172430088
0.002172371726
0.002172294137
0.002172199173
0.002172090155
0.002171971076
0.002171845972
0.002171718498
0.002171591725
0.002171468087
0.002171349499
0.0021712378
0.002171136538
0.002171058487
0.002172464289
0.002172427804
0.002172376368
0.002172309384
0.00217222761
0.002172132891
0.002172027787
0.002171915185
0.002171798001
0.002171678969
0.002171560604
0.002171445573
0.002171338579
0.002171254633
0.002172469557
0.002172430087
0.002172371725
0.002172294135
0.002172199171
0.002172090152
0.002171971074
0.002171845968
0.002171718494
0.00217159172
0.002171468082
0.002171349493
0.002171237794
0.002171136532
0.00217105848
0.002172353121
0.002172250885
0.00217212644
0.002171987322
0.002171841056
0.002171693951
0.002171550679
0.00217141434
0.002171286748
0.002171168779
0.002171060735
0.002170962874
0.002170876898
0.002170812033
0.002172159741
0.002171961573
0.002171746617
0.002171533094
0.002171333408
0.002171154251
0.002170997986
0.002170864197
0.002170750954
0.002170655698
0.002170575797
0.002170508983
0.002170454172
0.002170414816
0.002171816643
0.002171487811
0.002171175863
0.002170904029
0.00217068025
0.002170503244
0.002170367301
0.00217026529
0.002170190249
0.002170136089
0.002170097794
0.002170071381
0.00217005383
0.002170043448
0.002171493578
0.002171098475
0.002170764569
0.002170500364
0.002170300336
0.002170154041
0.002170050453
0.002169979719
0.002169933686
0.002169905881
0.002169891282
0.002169885989
0.002169886766
0.002169890104
0.002171816645
0.002171487813
0.002171175866
0.002170904032
0.002170680254
0.002170503248
0.002170367305
0.002170265294
0.002170190253
0.002170136093
0.002170097798
0.002170071386
0.002170053834
0.002170043453
0.002172159744
0.002171961576
0.00217174662
0.002171533098
0.002171333412
0.002171154255
0.002170997991
0.002170864202
0.00217075096
0.002170655704
0.002170575803
0.00217050899
0.002170454179
0.002170414823
0.002172353124
0.002172250888
0.002172126443
0.002171987325
0.00217184106
0.002171693956
0.002171550685
0.002171414346
0.002171286755
0.002171168786
0.002171060743
0.002170962883
0.002170876907
0.002170812042
0.002172430088
0.002172371726
0.002172294137
0.002172199173
0.002172090155
0.002171971077
0.002171845972
0.002171718499
0.002171591726
0.002171468089
0.0021713495
0.002171237802
0.00217113654
0.002171058489
0.002172428783
0.00217235463
0.002172251679
0.002172124523
0.002171980396
0.002171827084
0.002171671543
0.002171519252
0.002171374089
0.002171238499
0.00217111379
0.002171000494
0.00217089892
0.002170810652
0.00217074466
0.002172320075
0.002172159743
0.002171961575
0.00217174662
0.002171533097
0.002171333411
0.002171154254
0.002170997989
0.002170864199
0.002170750957
0.0021706557
0.002170575799
0.002170508985
0.002170454174
0.002170414817
0.002171589495
0.002171172612
0.002170796142
0.002170488372
0.002170254839
0.002170088449
0.002169977024
0.002169907726
0.002169869162
0.002169852102
0.002169849464
0.002169855939
0.002169867261
0.002169878479
0.002170323388
0.002169621415
0.002169139288
0.002168856425
0.00216872523
0.002168698055
0.002168736617
0.002168813272
0.002168909335
0.002169012766
0.002169116076
0.002169214473
0.002169303381
0.00216937139
0.002168668413
0.002167972566
0.002167676827
0.002167628201
0.00216771781
0.00216787731
0.002168066319
0.002168261937
0.002168451733
0.002168629384
0.002168791989
0.002168938139
0.002169065157
0.002169160058
0.002170323403
0.002169621431
0.002169139302
0.002168856438
0.002168725241
0.002168698065
0.002168736626
0.002168813281
0.002168909343
0.002169012774
0.002169116083
0.00216921448
0.002169303387
0.002169371396
0.002171589506
0.002171172622
0.002170796151
0.002170488382
0.002170254849
0.002170088458
0.002169977034
0.002169907736
0.002169869172
0.002169852112
0.002169849475
0.002169855949
0.00216986727
0.002169878489
0.002172159745
0.002171961578
0.002171746623
0.002171533101
0.002171333415
0.00217115426
0.002170997995
0.002170864206
0.002170750965
0.002170655709
0.002170575808
0.002170508994
0.002170454184
0.002170414828
0.00217235463
0.002172251681
0.002172124524
0.002171980399
0.002171827088
0.002171671548
0.002171519257
0.002171374096
0.002171238507
0.002171113799
0.002171000504
0.002170898929
0.002170810663
0.002170744671
0.002172367639
0.002172244238
0.002172084557
0.002171901576
0.002171708738
0.002171517191
0.002171334897
0.002171166795
0.002171015388
0.002170881423
0.002170764491
0.002170663528
0.002170577338
0.002170505725
0.002170453987
0.002172119789
0.002171816644
0.002171487813
0.002171175865
0.002170904031
0.002170680253
0.002170503247
0.002170367304
0.002170265293
0.002170190252
0.002170136092
0.002170097797
0.002170071384
0.002170053833
0.002170043451
0.002171182742
0.002170323389
0.002169621418
0.002169139291
0.002168856428
0.002168725233
0.002168698057
0.002168736619
0.002168813274
0.002168909337
0.002169012768
0.002169116077
0.002169214475
0.002169303383
0.002169371391
0.002165989713
0.002165111983
0.00216497328
0.002165233336
0.002165670215
0.002166159104
0.002166637009
0.002167076025
0.002167466705
0.002167808587
0.002168105028
0.002168360028
0.002168574138
0.002168730402
0.002157501852
0.002158625609
0.002160339067
0.002161977912
0.002163368421
0.002164501564
0.002165414893
0.002166152196
0.002166751498
0.002167242869
0.002167649115
0.002167986532
0.002168262774
0.002168461167
0.002165989765
0.002165112018
0.002164973308
0.002165233359
0.002165670234
0.002166159121
0.002166637023
0.002167076038
0.002167466716
0.002167808597
0.002168105037
0.002168360036
0.002168574145
0.00216873041
0.002170323402
0.002169621433
0.002169139307
0.002168856445
0.00216872525
0.002168698074
0.002168736635
0.00216881329
0.002168909352
0.002169012782
0.002169116091
0.002169214488
0.002169303395
0.002169371403
0.002171816646
0.002171487817
0.002171175871
0.002170904039
0.002170680262
0.002170503258
0.002170367316
0.002170265304
0.002170190264
0.002170136104
0.002170097809
0.002170071397
0.002170053846
0.002170043464
0.002172244238
0.002172084557
0.002171901577
0.002171708741
0.002171517195
0.002171334903
0.002171166802
0.002171015396
0.002170881432
0.002170764501
0.002170663539
0.00217057735
0.002170505737
0.002170454
0.002172321852
0.002172165561
0.002171974806
0.00217176709
0.002171557084
0.002171355348
0.002171168582
0.002171000389
0.002170852112
0.002170723567
0.00217061362
0.002170520641
0.00217044295
0.002170379745
0.002170334859
0.002171911175
0.002171493579
0.002171098479
0.002170764573
0.002170500369
0.00217030034
0.002170154046
0.002170050458
0.002169979724
0.00216993369
0.002169905885
0.002169891286
0.002169885993
0.00216988677
0.002169890108
0.002169909914
0.002168668404
0.002167972567
0.00216767683
0.002167628205
0.002167717815
0.002167877315
0.002168066324
0.002168261942
0.002168451738
0.002168629388
0.002168791993
0.002168938142
0.002169065161
0.002169160061
0.002158996541
0.002157501867
0.002158625625
0.002160339083
0.002161977926
0.002163368432
0.002164501574
0.002165414901
0.002166152203
0.002166751505
0.002167242875
0.002167649119
0.002167986536
0.002168262777
0.00216846117
0.002121020028
0.00213962738
0.002149920022
0.002155940407
0.00215966703
0.002162103869
0.002163779968
0.00216498535
0.002165885593
0.002166579145
0.002167126755
0.002167566357
0.002167917511
0.002168165828
0.002157501846
0.002158625659
0.002160339115
0.002161977952
0.002163368453
0.002164501591
0.002165414915
0.002166152215
0.002166751515
0.002167242884
0.002167649128
0.002167986544
0.002168262785
0.002168461177
0.002168668418
0.002167972588
0.002167676853
0.002167628228
0.002167717836
0.002167877334
0.002168066341
0.002168261958
0.002168451753
0.002168629402
0.002168792006
0.002168938155
0.002169065173
0.002169160073
0.002171493582
0.002171098485
0.002170764582
0.00217050038
0.002170300353
0.002170154059
0.002170050472
0.002169979738
0.002169933705
0.0021699059
0.0021698913
0.002169886007
0.002169886784
0.002169890122
0.002172165562
0.002171974808
0.002171767094
0.002171557089
0.002171355355
0.00217116859
0.002171000398
0.002170852123
0.002170723579
0.002170613632
0.002170520654
0.002170442964
0.002170379759
0.002170334874
0.00217236764
0.00217224424
0.002172084559
0.002171901579
0.002171708742
0.002171517195
0.002171334902
0.0021711668
0.002171015393
0.002170881428
0.002170764496
0.002170663533
0.002170577343
0.00217050573
0.002170453993
0.002172119793
0.002171816649
0.00217148782
0.002171175873
0.002170904039
0.002170680261
0.002170503255
0.002170367312
0.0021702653
0.002170190259
0.002170136099
0.002170097803
0.002170071391
0.002170053839
0.002170043457
0.00217118276
0.002170323407
0.002169621438
0.00216913931
0.002168856445
0.002168725249
0.002168698072
0.002168736632
0.002168813287
0.002168909349
0.002169012779
0.002169116088
0.002169214484
0.002169303392
0.0021693714
0.002167973582
0.00216598979
0.002165112045
0.00216497333
0.002165233376
0.002165670247
0.002166159131
0.002166637031
0.002167076045
0.002167466722
0.002167808602
0.002168105041
0.00216836004
0.002168574149
0.002168730413
0.002158996561
0.00215750189
0.002158625687
0.002160339132
0.002161977961
0.002163368459
0.002164501594
0.002165414918
0.002166152216
0.002166751516
0.002167242885
0.002167649129
0.002167986545
0.002168262785
0.002168461178
0.002167973577
0.002165989804
0.002165112064
0.002164973348
0.002165233392
0.002165670262
0.002166159145
0.002166637043
0.002167076056
0.002167466732
0.002167808611
0.002168105049
0.002168360048
0.002168574156
0.00216873042
0.00217032339
0.002169621436
0.002169139316
0.002168856456
0.002168725262
0.002168698086
0.002168736647
0.002168813302
0.002168909363
0.002169012792
0.002169116101
0.002169214497
0.002169303404
0.002169371412
0.002171816644
0.002171487817
0.002171175874
0.002170904043
0.002170680268
0.002170503264
0.002170367322
0.002170265311
0.002170190271
0.002170136111
0.002170097816
0.002170071403
0.002170053852
0.00217004347
0.002172244238
0.002172084558
0.002171901579
0.002171708743
0.002171517198
0.002171334907
0.002171166806
0.002171015401
0.002170881437
0.002170764506
0.002170663544
0.002170577355
0.002170505743
0.002170454006
0.002172428784
0.002172354631
0.002172251682
0.002172124526
0.0021719804
0.002171827089
0.002171671548
0.002171519258
0.002171374096
0.002171238507
0.002171113798
0.002171000502
0.002170898928
0.002170810661
0.002170744669
0.002172320078
0.002172159746
0.00217196158
0.002171746624
0.002171533102
0.002171333417
0.002171154261
0.002170997996
0.002170864207
0.002170750965
0.002170655709
0.002170575808
0.002170508994
0.002170454184
0.002170414827
0.002171987894
0.002171589508
0.002171172625
0.002170796155
0.002170488386
0.002170254853
0.002170088463
0.002169977039
0.002169907741
0.002169869177
0.002169852116
0.002169849479
0.002169855953
0.002169867275
0.002169878493
0.002171182764
0.002170323416
0.00216962145
0.002169139323
0.002168856459
0.002168725262
0.002168698085
0.002168736645
0.002168813298
0.00216890936
0.002169012789
0.002169116097
0.002169214493
0.0021693034
0.002169371408
0.00216990994
0.002168668448
0.002167972616
0.002167676876
0.002167628246
0.002167717849
0.002167877345
0.002168066349
0.002168261965
0.002168451758
0.002168629406
0.00216879201
0.002168938158
0.002169065175
0.002169160076
0.002171182766
0.002170323421
0.002169621456
0.002169139331
0.002168856467
0.00216872527
0.002168698093
0.002168736652
0.002168813306
0.002168909366
0.002169012795
0.002169116103
0.002169214499
0.002169303405
0.002169371413
0.00217198789
0.002171589506
0.002171172627
0.002170796159
0.002170488393
0.002170254861
0.002170088472
0.002169977049
0.002169907751
0.002169869187
0.002169852126
0.002169849489
0.002169855963
0.002169867284
0.002169878502
0.002172159742
0.002171961578
0.002171746625
0.002171533105
0.002171333421
0.002171154267
0.002170998003
0.002170864215
0.002170750974
0.002170655719
0.002170575818
0.002170509005
0.002170454194
0.002170414838
0.002172354629
0.00217225168
0.002172124524
0.0021719804
0.00217182709
0.002171671551
0.002171519261
0.002171374101
0.002171238513
0.002171113805
0.002171000511
0.002170898937
0.002170810671
0.00217074468
0.002172469558
0.002172430088
0.002172371727
0.002172294138
0.002172199174
0.002172090156
0.002171971078
0.002171845974
0.0021717185
0.002171591727
0.00217146809
0.002171349501
0.002171237803
0.002171136541
0.002171058491
0.002172427742
0.002172353125
0.002172250889
0.002172126445
0.002171987328
0.002171841063
0.002171693959
0.002171550688
0.00217141435
0.002171286758
0.00217116879
0.002171060747
0.002170962887
0.002170876911
0.002170812046
0.002172320078
0.002172159747
0.002171961581
0.002171746626
0.002171533105
0.00217133342
0.002171154264
0.002170998
0.002170864211
0.002170750969
0.002170655713
0.002170575812
0.002170508998
0.002170454188
0.002170414832
0.002172119794
0.002171816652
0.002171487824
0.002171175879
0.002170904047
0.00217068027
0.002170503265
0.002170367322
0.00217026531
0.002170190269
0.002170136109
0.002170097814
0.002170071401
0.00217005385
0.002170043468
0.002171911181
0.002171493592
0.002171098496
0.002170764594
0.00217050039
0.002170300362
0.002170154068
0.002170050479
0.002169979745
0.002169933711
0.002169905905
0.002169891305
0.002169886011
0.002169886788
0.002169890126
0.002172119794
0.002171816653
0.002171487826
0.002171175882
0.00217090405
0.002170680274
0.002170503269
0.002170367327
0.002170265315
0.002170190274
0.002170136114
0.002170097819
0.002170071406
0.002170053854
0.002170043472
0.002172320078
0.002172159747
0.002171961581
0.002171746628
0.002171533107
0.002171333423
0.002171154268
0.002170998005
0.002170864217
0.002170750975
0.002170655719
0.002170575819
0.002170509006
0.002170454195
0.002170414839
0.002172427741
0.002172353123
0.002172250888
0.002172126445
0.002171987328
0.002171841065
0.002171693962
0.002171550692
0.002171414354
0.002171286764
0.002171168796
0.002171060754
0.002170962894
0.002170876919
0.002170812054
0.002172430087
0.002172371726
0.002172294137
0.002172199174
0.002172090157
0.00217197108
0.002171845976
0.002171718503
0.002171591731
0.002171468095
0.002171349508
0.002171237811
0.002171136549
0.002171058499
0.002172487792
0.002172464289
0.002172427805
0.002172376369
0.002172309385
0.002172227611
0.002172132893
0.002172027789
0.002171915188
0.002171798004
0.002171678972
0.002171560607
0.002171445577
0.002171338583
0.002171254637
0.002172469558
0.002172430088
0.002172371727
0.002172294138
0.002172199175
0.002172090157
0.002171971079
0.002171845975
0.002171718502
0.002171591729
0.002171468092
0.002171349504
0.002171237806
0.002171136544
0.002171058493
0.002172428784
0.002172354631
0.002172251682
0.002172124527
0.002171980401
0.002171827091
0.002171671551
0.002171519261
0.002171374099
0.002171238511
0.002171113802
0.002171000507
0.002170898933
0.002170810667
0.002170744675
0.00217236764
0.00217224424
0.00217208456
0.002171901581
0.002171708745
0.0021715172
0.002171334908
0.002171166806
0.0021710154
0.002170881436
0.002170764505
0.002170663542
0.002170577353
0.002170505741
0.002170454004
0.002172321853
0.002172165565
0.002171974812
0.002171767098
0.002171557094
0.00217135536
0.002171168595
0.002171000402
0.002170852127
0.002170723583
0.002170613636
0.002170520657
0.002170442967
0.002170379762
0.002170334876
0.00217236764
0.00217224424
0.002172084561
0.002171901581
0.002171708746
0.002171517201
0.002171334909
0.002171166808
0.002171015402
0.002170881439
0.002170764508
0.002170663545
0.002170577356
0.002170505744
0.002170454007
0.002172428784
0.002172354631
0.002172251682
0.002172124527
0.002171980402
0.002171827092
0.002171671552
0.002171519263
0.002171374102
0.002171238514
0.002171113806
0.002171000511
0.002170898938
0.002170810672
0.002170744681
0.002172469558
0.002172430088
0.002172371727
0.002172294138
0.002172199176
0.002172090158
0.002171971081
0.002171845978
0.002171718505
0.002171591733
0.002171468097
0.002171349509
0.002171237812
0.00217113655
0.0021710585
0.002172487792
0.002172464288
0.002172427804
0.002172376369
0.002172309385
0.002172227612
0.002172132894
0.002172027791
0.00217191519
0.002171798007
0.002171678976
0.002171560612
0.002171445582
0.002171338589
0.002171254644
)
;

boundaryField
{
    top
    {
        type            zeroGradient;
    }
    bottom
    {
        type            zeroGradient;
    }
    side-walls
    {
        type            zeroGradient;
    }
    inlet
    {
        type            zeroGradient;
    }
    outlet
    {
        type            zeroGradient;
    }
    procBoundary1to0
    {
        type            processor;
        value           nonuniform List<scalar> 
97
(
0.002172487792
0.002172487792
0.002172469558
0.002172428784
0.00217236764
0.002172321853
0.002172367641
0.002172428785
0.002172469559
0.002172487792
0.002172492932
0.002172427741
0.002172427741
0.002172427741
0.002172320078
0.002172119794
0.002171911182
0.002172119796
0.00217232008
0.002172427743
0.002172469559
0.002172474434
0.00217242666
0.002171987889
0.002171987889
0.002171987889
0.002171182761
0.002169909946
0.002171182776
0.002171987901
0.00217232008
0.002172428785
0.002172447372
0.002172342554
0.002171976531
0.002167973528
0.002167973528
0.002167973528
0.002158996656
0.002167973612
0.002171182774
0.002172119796
0.002172367641
0.002172428084
0.002172263351
0.002171570847
0.002168834931
0.002085471792
0.002085471792
0.002085471792
0.002158996631
0.002158996631
0.002169909947
0.002171911183
0.002172321854
0.002172447373
0.002172342555
0.002171976532
0.002170914464
0.002168834935
0.002170914469
0.002171182751
0.002171182751
0.002171182751
0.002172119793
0.002172367641
0.002172474434
0.00217242666
0.002172286875
0.002171976534
0.002171570858
0.002171976535
0.002172286876
0.002172320076
0.002172320076
0.002172320076
0.002172428783
0.002172492932
0.002172474065
0.00217242666
0.002172342555
0.002172263354
0.002172342556
0.00217242666
0.002172474065
0.002172469557
0.002172469557
0.002172469557
0.002172501317
0.002172492932
0.002172474434
0.002172447372
0.002172428084
0.002172447372
0.002172474434
0.002172492932
0.002172501316
)
;
    }
}


// ************************************************************************* //
