/*--------------------------------*- C++ -*----------------------------------*\
| =========                 |                                                 |
| \\      /  F ield         | OpenFOAM: The Open Source CFD Toolbox           |
|  \\    /   O peration     | Version:  4.x                                   |
|   \\  /    A nd           | Web:      www.OpenFOAM.org                      |
|    \\/     M anipulation  |                                                 |
\*---------------------------------------------------------------------------*/
FoamFile
{
    version     2.0;
    format      ascii;
    class       volScalarField;
    location    "8000";
    object      H2O;
}
// * * * * * * * * * * * * * * * * * * * * * * * * * * * * * * * * * * * * * //

dimensions      [0 0 0 0 0 0 0];

internalField   nonuniform List<scalar> 
1174
(
1.414849637e-06
1.723422147e-06
2.158450265e-06
2.724989372e-06
3.416631056e-06
4.217764639e-06
5.10677037e-06
6.059209035e-06
7.050440487e-06
8.057340359e-06
9.058629229e-06
1.003175163e-05
1.093691424e-05
1.164711414e-05
1.70411019e-06
2.197699253e-06
2.853910749e-06
3.657075866e-06
4.579130364e-06
5.586295916e-06
6.644463385e-06
7.722706365e-06
8.795062228e-06
9.840934309e-06
1.084414673e-05
1.178911024e-05
1.264582148e-05
1.330617237e-05
2.342267487e-06
3.21292811e-06
4.288317335e-06
5.507246417e-06
6.803893922e-06
8.119444512e-06
9.407554171e-06
1.063542261e-05
1.178237681e-05
1.283735467e-05
1.379583727e-05
1.46552198e-05
1.540206041e-05
1.596044486e-05
3.275817788e-06
4.626217765e-06
6.173690131e-06
7.80456392e-06
9.424577485e-06
1.09663935e-05
1.238825493e-05
1.36689717e-05
1.480222234e-05
1.57914662e-05
1.664569141e-05
1.737499283e-05
1.798101821e-05
1.841887111e-05
3.941112115e-06
5.554272341e-06
7.31091417e-06
9.086982056e-06
1.079317307e-05
1.237283399e-05
1.379547608e-05
1.504973226e-05
1.613716575e-05
1.706735723e-05
1.785407335e-05
1.85115117e-05
1.904643751e-05
1.942634834e-05
3.275794191e-06
4.626183654e-06
6.173642883e-06
7.804502929e-06
9.424500371e-06
1.096629957e-05
1.238814278e-05
1.366884258e-05
1.480207521e-05
1.57913039e-05
1.664551485e-05
1.737480249e-05
1.798081611e-05
1.841865554e-05
2.342241014e-06
3.212893131e-06
4.288269982e-06
5.507182329e-06
6.803808074e-06
8.119332246e-06
9.407413294e-06
1.06352518e-05
1.178217316e-05
1.283711959e-05
1.379557252e-05
1.465492674e-05
1.540173985e-05
1.596010106e-05
1.704085802e-06
2.197670021e-06
2.853873525e-06
3.657025368e-06
4.57906014e-06
5.586200598e-06
6.644337651e-06
7.722545469e-06
8.794863693e-06
9.840695133e-06
1.08438655e-05
1.17887877e-05
1.264546083e-05
1.330577555e-05
1.414832886e-06
1.72340533e-06
2.158430003e-06
2.724960453e-06
3.416587295e-06
4.217699036e-06
5.106676107e-06
6.059079882e-06
7.050271298e-06
8.057125243e-06
9.058365102e-06
1.00314379e-05
1.093654899e-05
1.164669593e-05
1.370270384e-06
1.704091459e-06
2.197680405e-06
2.853891038e-06
3.657055492e-06
4.579109385e-06
5.586273754e-06
6.64444138e-06
7.722683406e-06
8.795038652e-06
9.840910836e-06
1.084412242e-05
1.178908699e-05
1.264579984e-05
1.330615192e-05
2.355033733e-06
3.219638109e-06
4.272085446e-06
5.448657203e-06
6.685715364e-06
7.929919384e-06
9.141755369e-06
1.029500609e-05
1.137432412e-05
1.237229605e-05
1.328635804e-05
1.411432849e-05
1.484178913e-05
1.539063749e-05
3.990409487e-06
5.666238884e-06
7.484089009e-06
9.289884141e-06
1.097873914e-05
1.249404537e-05
1.381581946e-05
1.494757098e-05
1.590559947e-05
1.671155489e-05
1.738767334e-05
1.795313156e-05
1.84170674e-05
1.875020578e-05
6.891716672e-06
9.672447502e-06
1.231050115e-05
1.460944297e-05
1.650209243e-05
1.799928463e-05
1.914927801e-05
2.001237514e-05
2.064741794e-05
2.11058894e-05
2.143021591e-05
2.165405108e-05
2.180292313e-05
2.189105112e-05
9.623398499e-06
1.296451118e-05
1.578828838e-05
1.802276939e-05
1.971464194e-05
2.095218124e-05
2.182861723e-05
2.242725389e-05
2.281702543e-05
2.305265559e-05
2.317661591e-05
2.322186652e-05
2.321575564e-05
2.31878591e-05
6.891652861e-06
9.67237041e-06
1.231040725e-05
1.46093259e-05
1.650195251e-05
1.799912006e-05
1.914909458e-05
2.001217016e-05
2.064719711e-05
2.11056576e-05
2.142996959e-05
2.165379589e-05
2.180266131e-05
2.189077879e-05
3.990335233e-06
5.666161681e-06
7.483997456e-06
9.28976605e-06
1.097858769e-05
1.249385282e-05
1.381558733e-05
1.494729982e-05
1.590529333e-05
1.671121469e-05
1.738730557e-05
1.795273651e-05
1.841665193e-05
1.874977089e-05
2.354980864e-06
3.219588128e-06
4.272024065e-06
5.448572335e-06
6.685597488e-06
7.92975993e-06
9.14155196e-06
1.029475544e-05
1.137402453e-05
1.237195124e-05
1.328596864e-05
1.411389795e-05
1.484131879e-05
1.539013283e-05
1.70408798e-06
2.197670889e-06
2.853870443e-06
3.657015486e-06
4.579041792e-06
5.586169984e-06
6.644293528e-06
7.722485806e-06
8.79478797e-06
9.840603345e-06
1.084375963e-05
1.178866474e-05
1.264532149e-05
1.330561624e-05
1.715102602e-06
2.342219572e-06
3.212875526e-06
4.288260911e-06
5.507186589e-06
6.803831647e-06
8.119379988e-06
9.407489672e-06
1.063535839e-05
1.178231293e-05
1.283729126e-05
1.379577345e-05
1.465515672e-05
1.540199931e-05
1.596038551e-05
2.634480571e-06
3.990339088e-06
5.666173474e-06
7.48402523e-06
9.289822424e-06
1.097867896e-05
1.249398489e-05
1.381576114e-05
1.494751536e-05
1.59055481e-05
1.671150522e-05
1.73876271e-05
1.795308608e-05
1.841702273e-05
1.875016915e-05
8.812670334e-06
1.233788314e-05
1.552152227e-05
1.812434665e-05
2.009951339e-05
2.150697213e-05
2.244966983e-05
2.303616107e-05
2.336277796e-05
2.350755251e-05
2.35303536e-05
2.347609715e-05
2.338081364e-05
2.328628324e-05
1.951866611e-05
2.545453168e-05
2.953168827e-05
3.192405237e-05
3.303401593e-05
3.326441851e-05
3.293896653e-05
3.229137543e-05
3.147964839e-05
3.060559255e-05
2.973253969e-05
2.890099442e-05
2.814964183e-05
2.757487751e-05
3.351170996e-05
3.939598686e-05
4.189737848e-05
4.230933114e-05
4.155240238e-05
4.020444873e-05
3.860693597e-05
3.695346982e-05
3.534918689e-05
3.384757121e-05
3.247313119e-05
3.123780752e-05
3.016419904e-05
2.936203047e-05
1.951831787e-05
2.545419543e-05
2.953134338e-05
3.192368702e-05
3.303362948e-05
3.326402258e-05
3.293855873e-05
3.22909642e-05
3.147924353e-05
3.060518722e-05
2.973214073e-05
2.890060388e-05
2.814925735e-05
2.757449825e-05
8.812417654e-06
1.233766661e-05
1.552128125e-05
1.812404984e-05
2.009915301e-05
2.15065527e-05
2.244919846e-05
2.303565403e-05
2.33622358e-05
2.350698462e-05
2.35297734e-05
2.34755052e-05
2.33802151e-05
2.328567511e-05
3.990329031e-06
5.666136938e-06
7.483947242e-06
9.289686016e-06
1.09784757e-05
1.249371061e-05
1.381541737e-05
1.494710781e-05
1.590508111e-05
1.67109874e-05
1.738706318e-05
1.795248221e-05
1.8416384e-05
1.874949626e-05
2.342243863e-06
3.212884876e-06
4.288241752e-06
5.50712587e-06
6.803716275e-06
8.119202222e-06
9.407241997e-06
1.063503698e-05
1.178191781e-05
1.283682588e-05
1.379524451e-05
1.465456553e-05
1.540134937e-05
1.595967568e-05
2.232176723e-06
3.275735987e-06
4.626123385e-06
6.173585183e-06
7.804452723e-06
9.424461392e-06
1.096627594e-05
1.238813474e-05
1.366885193e-05
1.480210544e-05
1.579135292e-05
1.66455782e-05
1.737488221e-05
1.798091132e-05
1.841876649e-05
4.328121929e-06
6.891580207e-06
9.672311813e-06
1.231036945e-05
1.460931635e-05
1.650197205e-05
1.799916739e-05
1.914916834e-05
2.001226725e-05
2.064731385e-05
2.110579337e-05
2.143011975e-05
2.165396045e-05
2.180283561e-05
2.189096758e-05
1.225203455e-05
1.951840314e-05
2.545432776e-05
2.95315242e-05
3.192391131e-05
3.303389574e-05
3.326431932e-05
3.293887575e-05
3.229129056e-05
3.147957433e-05
3.060552904e-05
2.973247665e-05
2.890093614e-05
2.814958834e-05
2.75748256e-05
5.616229573e-05
6.358410007e-05
6.475767853e-05
6.255969901e-05
5.886655515e-05
5.473354761e-05
5.069332574e-05
4.698184109e-05
4.36789934e-05
4.078869673e-05
3.828258696e-05
3.612683681e-05
3.431678622e-05
3.299572375e-05
0.0001279262797
0.0001184265173
0.0001039405723
9.008510387e-05
7.83290417e-05
6.874882749e-05
6.102703906e-05
5.47934827e-05
4.972666226e-05
4.557238879e-05
4.213782869e-05
3.928519123e-05
3.694977731e-05
3.527248516e-05
5.616108664e-05
6.358321381e-05
6.475685334e-05
6.255888076e-05
5.886575385e-05
5.473277884e-05
5.069259524e-05
4.698114467e-05
4.367833861e-05
4.078808048e-05
3.82820066e-05
3.612629149e-05
3.431627222e-05
3.29952222e-05
1.951836143e-05
2.545409637e-05
2.953110388e-05
3.192333387e-05
3.303320175e-05
3.326354669e-05
3.293805856e-05
3.229044891e-05
3.147872534e-05
3.060468549e-05
2.973165e-05
2.890012139e-05
2.81487869e-05
2.757403144e-05
6.891660147e-06
9.672301371e-06
1.231024274e-05
1.460906108e-05
1.650159614e-05
1.799868412e-05
1.914859101e-05
2.001161874e-05
2.064660672e-05
2.110503928e-05
2.142932941e-05
2.165313936e-05
2.18019923e-05
2.189010114e-05
3.275806156e-06
4.626164582e-06
6.173571792e-06
7.804361535e-06
9.424279106e-06
1.09659953e-05
1.238775726e-05
1.366837783e-05
1.480154376e-05
1.579070957e-05
1.664486524e-05
1.737410497e-05
1.798007514e-05
1.84178699e-05
2.619366243e-06
3.941019769e-06
5.554160679e-06
7.310786323e-06
9.08684238e-06
1.079302523e-05
1.237267841e-05
1.379531908e-05
1.504957628e-05
1.613700996e-05
1.70672039e-05
1.785392223e-05
1.851136459e-05
1.904629527e-05
1.942620442e-05
6.09205876e-06
9.6232231e-06
1.296431975e-05
1.578808657e-05
1.802257004e-05
1.971444908e-05
2.095199476e-05
2.18284392e-05
2.242708203e-05
2.281686245e-05
2.305249965e-05
2.31764675e-05
2.322172313e-05
2.321562312e-05
2.31877306e-05
2.301371139e-05
3.351135543e-05
3.939562749e-05
4.189704876e-05
4.230903128e-05
4.155213572e-05
4.020421563e-05
3.86067224e-05
3.695327808e-05
3.534901877e-05
3.384741169e-05
3.247299004e-05
3.123767631e-05
3.016407423e-05
2.936191678e-05
0.0001152868798
0.0001279250054
0.0001184256888
0.0001039399895
9.008466822e-05
7.832871242e-05
6.874856021e-05
6.102682851e-05
5.479330417e-05
4.972651291e-05
4.557225899e-05
4.213771523e-05
3.928509515e-05
3.694968709e-05
3.52724019e-05
0.0004363731358
0.0002790535703
0.0001920324776
0.0001411319504
0.0001096244686
8.902169847e-05
7.485076616e-05
6.465961256e-05
5.70483428e-05
5.118460208e-05
4.655477397e-05
4.283813997e-05
3.986930197e-05
3.776986972e-05
0.0001279264155
0.0001184252616
0.0001039389433
9.008347736e-05
7.832755083e-05
6.874750208e-05
6.102585706e-05
5.479242263e-05
4.972571368e-05
4.557152896e-05
4.213703948e-05
3.928447075e-05
3.694909781e-05
3.527183191e-05
3.35117667e-05
3.939545709e-05
4.189645453e-05
4.230818283e-05
4.155115238e-05
4.020316956e-05
3.860565799e-05
3.695222278e-05
3.534798399e-05
3.384641395e-05
3.247202287e-05
3.123674356e-05
3.016316908e-05
2.936102614e-05
9.623411583e-06
1.29643328e-05
1.578790411e-05
1.802220011e-05
1.971392343e-05
2.095134638e-05
2.18276962e-05
2.242626781e-05
2.281599577e-05
2.305159382e-05
2.317553688e-05
2.322077176e-05
2.321465656e-05
2.31867486e-05
3.941118493e-06
5.554210877e-06
7.310752817e-06
9.086701815e-06
1.079276793e-05
1.237230369e-05
1.379483191e-05
1.504898473e-05
1.613632263e-05
1.706643538e-05
1.785308187e-05
1.851046215e-05
1.904533772e-05
1.942519157e-05
2.23216873e-06
3.275711171e-06
4.626078934e-06
6.17351856e-06
7.804361273e-06
9.424346545e-06
1.096613707e-05
1.238797389e-05
1.366866959e-05
1.480190237e-05
1.579112981e-05
1.664534224e-05
1.737463484e-05
1.798065018e-05
1.841849293e-05
4.328058885e-06
6.891467984e-06
9.672156969e-06
1.231017858e-05
1.460909162e-05
1.650172025e-05
1.799889182e-05
1.914887433e-05
2.001195937e-05
2.064699403e-05
2.110546156e-05
2.142978356e-05
2.165362034e-05
2.180249128e-05
2.189061732e-05
1.225148522e-05
1.951788741e-05
2.545376261e-05
2.953093584e-05
3.192330963e-05
3.303328736e-05
3.326371564e-05
3.293828091e-05
3.229071061e-05
3.147901215e-05
3.060497806e-05
2.973194545e-05
2.890042249e-05
2.814908796e-05
2.757433875e-05
3.938616523e-05
5.61598667e-05
6.358222626e-05
6.475607747e-05
6.255827056e-05
5.886527415e-05
5.473238845e-05
5.069227401e-05
4.69808765e-05
4.367811267e-05
4.07878856e-05
3.828183589e-05
3.612613929e-05
3.431613011e-05
3.299509184e-05
0.0001152864742
0.0001279245311
0.0001184240888
0.0001039381909
9.008298401e-05
7.832719896e-05
6.87472426e-05
6.102566205e-05
5.479227173e-05
4.972558925e-05
4.557141919e-05
4.213694953e-05
3.928438917e-05
3.69490306e-05
3.527176743e-05
3.938652073e-05
5.615977951e-05
6.358172977e-05
6.475532051e-05
6.255739129e-05
5.886436225e-05
5.47314944e-05
5.06914245e-05
4.69800831e-05
4.367736799e-05
4.078719253e-05
3.828119234e-05
3.612553449e-05
3.431555868e-05
3.299453866e-05
1.951866465e-05
2.545392103e-05
2.953065211e-05
3.192272905e-05
3.303251329e-05
3.326283257e-05
3.29373383e-05
3.228974804e-05
3.14780481e-05
3.060403108e-05
2.973101692e-05
2.88995178e-05
2.814820454e-05
2.757346112e-05
6.891762621e-06
9.672293336e-06
1.231012344e-05
1.460884872e-05
1.650130991e-05
1.799834491e-05
1.914821696e-05
2.001121416e-05
2.064618447e-05
2.110460623e-05
2.14288917e-05
2.165270053e-05
2.180155142e-05
2.188965437e-05
3.275833722e-06
4.626164026e-06
6.17352948e-06
7.80427156e-06
9.42414051e-06
1.096581212e-05
1.238753306e-05
1.366811988e-05
1.480125555e-05
1.579039653e-05
1.664453167e-05
1.737375573e-05
1.797971386e-05
1.841749481e-05
1.715089233e-06
2.342186372e-06
3.212819497e-06
4.288177852e-06
5.507072724e-06
6.803683278e-06
8.119195195e-06
9.407266859e-06
1.063509613e-05
1.178201268e-05
1.283695507e-05
1.379540569e-05
1.465475856e-05
1.540157132e-05
1.595993128e-05
2.634392497e-06
3.990223972e-06
5.666022483e-06
7.483837098e-06
9.289588846e-06
1.097839841e-05
1.249365871e-05
1.381538823e-05
1.494710082e-05
1.590509599e-05
1.671102315e-05
1.738711756e-05
1.795255177e-05
1.841647073e-05
1.87495962e-05
5.443454269e-06
8.812182954e-06
1.233740392e-05
1.552100401e-05
1.81237674e-05
2.009887822e-05
2.150628593e-05
2.244894698e-05
2.303541186e-05
2.336200641e-05
2.350676658e-05
2.352956754e-05
2.347531042e-05
2.338002843e-05
2.328549326e-05
1.225146674e-05
1.951775247e-05
2.545348944e-05
2.953053746e-05
3.192282573e-05
3.303275255e-05
3.326314927e-05
3.293770544e-05
3.229014812e-05
3.147845419e-05
3.060444021e-05
2.973142951e-05
2.889992188e-05
2.814860533e-05
2.757386445e-05
2.301350141e-05
3.351069944e-05
3.939454717e-05
4.189571653e-05
4.23075989e-05
4.155067825e-05
4.020278729e-05
3.860534219e-05
3.695196018e-05
3.534776473e-05
3.384622273e-05
3.247185113e-05
3.123658785e-05
3.016303299e-05
2.936089676e-05
1.225142544e-05
1.951762263e-05
2.545323362e-05
2.953016879e-05
3.192237482e-05
3.303224363e-05
3.326261887e-05
3.293716658e-05
3.228960333e-05
3.147792207e-05
3.060392232e-05
2.973092564e-05
2.889943503e-05
2.814813134e-05
2.757339616e-05
5.443628246e-06
8.812302157e-06
1.233737725e-05
1.552081016e-05
1.812342009e-05
2.009840381e-05
2.150571574e-05
2.244830673e-05
2.303472679e-05
2.336129392e-05
2.350603854e-05
2.35288276e-05
2.347456784e-05
2.337928616e-05
2.328474422e-05
3.990405019e-06
5.666106145e-06
7.483806711e-06
9.289440814e-06
1.097813373e-05
1.249328638e-05
1.381491992e-05
1.494655018e-05
1.59044747e-05
1.671034272e-05
1.738638759e-05
1.795178188e-05
1.841566717e-05
1.874875868e-05
2.342281783e-06
3.212891955e-06
4.288202169e-06
5.507026956e-06
6.803552362e-06
8.118970819e-06
9.406945254e-06
1.063467987e-05
1.178150394e-05
1.283636128e-05
1.379473305e-05
1.465401386e-05
1.54007621e-05
1.595905735e-05
1.370249008e-06
1.704056101e-06
2.197627836e-06
2.853817556e-06
3.656954848e-06
4.578976073e-06
5.586102328e-06
6.644227468e-06
7.722424599e-06
8.794732926e-06
9.840556787e-06
1.084372107e-05
1.178863765e-05
1.264530634e-05
1.330561899e-05
1.723895467e-06
2.354924586e-06
3.219511631e-06
4.271928258e-06
5.448458798e-06
6.685469342e-06
7.929619008e-06
9.141400516e-06
1.029459574e-05
1.137385914e-05
1.23717804e-05
1.328579896e-05
1.411372438e-05
1.48411471e-05
1.538995917e-05
2.634391077e-06
3.990210949e-06
5.665987779e-06
7.483773109e-06
9.289494128e-06
1.097827301e-05
1.249350395e-05
1.381520829e-05
1.49468986e-05
1.59048741e-05
1.67107837e-05
1.738686611e-05
1.795228962e-05
1.841619658e-05
1.874931291e-05
4.328060056e-06
6.891414218e-06
9.672016053e-06
1.230993695e-05
1.460875221e-05
1.650129566e-05
1.79983939e-05
1.914831696e-05
2.001136207e-05
2.064636112e-05
2.110480975e-05
2.142911533e-05
2.165293863e-05
2.180180263e-05
2.188991675e-05
6.092013779e-06
9.623019738e-06
1.296391723e-05
1.57874969e-05
1.802182014e-05
1.971357558e-05
2.095102952e-05
2.182740635e-05
2.242600857e-05
2.28157581e-05
2.305137962e-05
2.31753401e-05
2.322059083e-05
2.32144852e-05
2.318658802e-05
4.328032922e-06
6.891357904e-06
9.671916274e-06
1.23097875e-05
1.460855403e-05
1.650105214e-05
1.799811996e-05
1.914801543e-05
2.001103445e-05
2.064602306e-05
2.110445961e-05
2.14287595e-05
2.165257629e-05
2.180143961e-05
2.188955142e-05
2.634403328e-06
3.990213589e-06
5.665950686e-06
7.483674883e-06
9.289325461e-06
1.097803136e-05
1.249319359e-05
1.381483575e-05
1.494647623e-05
1.590440765e-05
1.671028267e-05
1.738633243e-05
1.795173224e-05
1.841561982e-05
1.874871619e-05
1.723934625e-06
2.354966722e-06
3.219532589e-06
4.271907503e-06
5.448380093e-06
6.685323989e-06
7.929402824e-06
9.141112881e-06
1.029423875e-05
1.137343741e-05
1.237129992e-05
1.328526063e-05
1.411313502e-05
1.484051065e-05
1.538928304e-05
1.704111409e-06
2.197667724e-06
2.853830194e-06
3.656927194e-06
4.578895078e-06
5.585958006e-06
6.644011778e-06
7.722132899e-06
8.79436456e-06
9.840110606e-06
1.08432004e-05
1.178804466e-05
1.264464324e-05
1.33048895e-05
1.216030685e-06
1.414812638e-06
1.723375106e-06
2.158387975e-06
2.724905623e-06
3.416518424e-06
4.217616501e-06
5.106579935e-06
6.058970798e-06
7.050148973e-06
8.056993454e-06
9.05822545e-06
1.003129065e-05
1.0936396e-05
1.164654017e-05
1.370249015e-06
1.704054524e-06
2.197622487e-06
2.853805948e-06
3.656935084e-06
4.578945007e-06
5.58605852e-06
6.644168781e-06
7.722350438e-06
8.794642871e-06
9.840450563e-06
1.084359954e-05
1.178850192e-05
1.264515538e-05
1.330544712e-05
1.715090915e-06
2.342181411e-06
3.212799366e-06
4.288134066e-06
5.506997699e-06
6.803571704e-06
8.119042991e-06
9.407072105e-06
1.063486036e-05
1.178173751e-05
1.28366433e-05
1.379505936e-05
1.465438168e-05
1.540116535e-05
1.595949257e-05
2.232173369e-06
3.275694295e-06
4.62601972e-06
6.173399095e-06
7.80416874e-06
9.424073258e-06
1.096578159e-05
1.238753926e-05
1.366816281e-05
1.480132983e-05
1.579050175e-05
1.664466227e-05
1.737391063e-05
1.797988679e-05
1.841768665e-05
2.619356878e-06
3.940957806e-06
5.554013988e-06
7.310532055e-06
9.086469436e-06
1.079253079e-05
1.237206903e-05
1.37946021e-05
1.504876221e-05
1.613611223e-05
1.706623501e-05
1.785289299e-05
1.851028228e-05
1.90451647e-05
1.942502734e-05
2.232165055e-06
3.275675436e-06
4.625983437e-06
6.173338918e-06
7.804080297e-06
9.423954059e-06
1.096563447e-05
1.238736284e-05
1.366795982e-05
1.480110279e-05
1.579025427e-05
1.66443969e-05
1.737362739e-05
1.797959238e-05
1.841737934e-05
1.71508869e-06
2.342173858e-06
3.212775717e-06
4.288083285e-06
5.50690969e-06
6.803439196e-06
8.118861325e-06
9.406841899e-06
1.063458228e-05
1.178141227e-05
1.283627549e-05
1.379465279e-05
1.465393919e-05
1.540069203e-05
1.595899063e-05
1.37025345e-06
1.704059906e-06
2.197619551e-06
2.853783141e-06
3.656880726e-06
4.578848871e-06
5.585912421e-06
6.643967277e-06
7.722090044e-06
8.794322128e-06
9.840070321e-06
1.084316173e-05
1.178800857e-05
1.264461076e-05
1.330485882e-05
1.216041873e-06
1.414828041e-06
1.723387293e-06
2.158387423e-06
2.724881128e-06
3.41645895e-06
4.217510977e-06
5.106419436e-06
6.05874762e-06
7.049857815e-06
8.056630185e-06
9.057788999e-06
1.003078059e-05
1.093581479e-05
1.16458892e-05
)
;

boundaryField
{
    top
    {
        type            zeroGradient;
    }
    bottom
    {
        type            zeroGradient;
    }
    side-walls
    {
        type            zeroGradient;
    }
    inlet
    {
        type            zeroGradient;
    }
    outlet
    {
        type            zeroGradient;
    }
    procBoundary1to0
    {
        type            processor;
        value           nonuniform List<scalar> 
97
(
1.2160415e-06
1.2160415e-06
1.370251049e-06
1.715074131e-06
2.232122208e-06
2.619279162e-06
2.232103957e-06
1.715052308e-06
1.370229194e-06
1.216020028e-06
1.172544219e-06
1.723936427e-06
1.723936427e-06
1.723936427e-06
2.634384775e-06
4.327935025e-06
6.091728862e-06
4.32787227e-06
2.634303586e-06
1.723857101e-06
1.370230401e-06
1.328989608e-06
1.733001716e-06
5.443625066e-06
5.443625066e-06
5.443625066e-06
1.225118286e-05
2.301192231e-05
1.225074438e-05
5.443176542e-06
2.63430088e-06
1.715054388e-06
1.557853062e-06
2.444246691e-06
5.539284561e-06
3.938658669e-05
3.938658669e-05
3.938658669e-05
0.0001152752891
3.938353231e-05
1.2250783e-05
4.327879668e-06
2.232112752e-06
1.720971687e-06
3.113991774e-06
8.969581835e-06
3.210153996e-05
0.000736836871
0.000736836871
0.000736836871
0.000115276018
0.000115276018
2.30120427e-05
6.091752969e-06
2.619286293e-06
1.557855704e-06
2.44425902e-06
5.539397818e-06
1.451979216e-05
3.21019816e-05
1.451944959e-05
1.22518201e-05
1.22518201e-05
1.22518201e-05
4.328033406e-06
2.232142341e-06
1.328993158e-06
1.733021515e-06
2.915123469e-06
5.539396473e-06
8.969559714e-06
5.539321074e-06
2.915082111e-06
2.634473424e-06
2.634473424e-06
2.634473424e-06
1.715095946e-06
1.172547439e-06
1.332115803e-06
1.733021466e-06
2.4442623e-06
3.113982932e-06
2.444241887e-06
1.733010871e-06
1.332111983e-06
1.370270999e-06
1.370270999e-06
1.370270999e-06
1.101634793e-06
1.172547547e-06
1.328994306e-06
1.557859246e-06
1.720969856e-06
1.557853882e-06
1.328990445e-06
1.172545672e-06
1.101634594e-06
)
;
    }
}


// ************************************************************************* //
