/*--------------------------------*- C++ -*----------------------------------*\
| =========                 |                                                 |
| \\      /  F ield         | OpenFOAM: The Open Source CFD Toolbox           |
|  \\    /   O peration     | Version:  4.x                                   |
|   \\  /    A nd           | Web:      www.OpenFOAM.org                      |
|    \\/     M anipulation  |                                                 |
\*---------------------------------------------------------------------------*/
FoamFile
{
    version     2.0;
    format      ascii;
    class       volScalarField;
    location    "8000";
    object      molarConc;
}
// * * * * * * * * * * * * * * * * * * * * * * * * * * * * * * * * * * * * * //

dimensions      [0 -3 0 0 1 0 0];

internalField   nonuniform List<scalar> 
1174
(
9.963278519
9.96327751
9.963275541
9.963273695
9.963270911
9.963267539
9.963263846
9.963260559
9.9632565
9.963253164
9.963250807
9.963247319
9.963243375
9.963240817
9.963265641
9.963264626
9.963262418
9.963258968
9.963254905
9.963251883
9.963248255
9.96324359
9.963239954
9.96323664
9.963233128
9.963230411
9.963227897
9.96322681
9.9632838
9.963280676
9.963277162
9.963273133
9.963268994
9.963264212
9.963259577
9.963254453
9.963250193
9.963247643
9.963243907
9.963241397
9.963238654
9.963237695
9.963238192
9.963233714
9.963227587
9.963222225
9.963217599
9.963212198
9.963206947
9.963202383
9.963196949
9.963192904
9.963190525
9.96318839
9.963185726
9.963183269
9.963241059
9.963236584
9.963230445
9.963224127
9.963216773
9.963210574
9.963204251
9.963200508
9.963197578
9.963194973
9.963192228
9.963189572
9.963188237
9.963187823
9.963316131
9.96331052
9.963306059
9.963301371
9.963295446
9.963289489
9.963284193
9.963279909
9.963274722
9.963270521
9.963269248
9.963265976
9.963263447
9.963261871
9.963298665
9.963296118
9.963291268
9.963287586
9.963282145
9.963278227
9.963272192
9.963267867
9.963262793
9.963258465
9.963255012
9.963251837
9.963248178
9.963244942
9.963273166
9.963272217
9.963270206
9.963266664
9.963263082
9.963260337
9.963255917
9.963251569
9.963247124
9.963243866
9.963240245
9.963236779
9.963232635
9.963229375
9.963270229
9.963269388
9.963268077
9.963266593
9.963263693
9.96326092
9.963257537
9.963253821
9.963249248
9.963245245
9.96324103
9.963237864
9.963235105
9.963232884
9.963283488
9.963282485
9.963279688
9.963276092
9.96327284
9.963268466
9.963265266
9.963261445
9.963256024
9.963252926
9.963249483
9.963245119
9.963241785
9.963237818
9.963235718
9.96321691
9.963213736
9.963210731
9.963206952
9.963203954
9.963200168
9.96319422
9.96318928
9.963186253
9.963181841
9.963178356
9.963174667
9.963172163
9.963169677
9.963229569
9.963223618
9.963217298
9.963210924
9.963204781
9.963198199
9.963193624
9.963190437
9.963187516
9.963184476
9.963181496
9.96317938
9.963177364
9.963175641
9.963264981
9.963253851
9.963244438
9.963237472
9.963230079
9.963225228
9.963220975
9.963217454
9.963215436
9.963213941
9.963214244
9.963213158
9.963213359
9.963212176
9.963225998
9.963214196
9.963204067
9.963195706
9.963187938
9.963183704
9.963179841
9.963178517
9.963176637
9.963176801
9.963176804
9.963176993
9.96317685
9.963176982
9.963215456
9.963206482
9.96319675
9.963187911
9.963180498
9.963175365
9.963171096
9.963167792
9.96316605
9.963163539
9.963162719
9.963161668
9.963160753
9.963161007
9.963203564
9.963196406
9.963189006
9.963182929
9.963177943
9.963172239
9.96316756
9.963164149
9.963159823
9.963156302
9.963154151
9.963153184
9.963151934
9.963150451
9.963303861
9.963302327
9.963298783
9.963296467
9.963291652
9.963287234
9.963282909
9.963278791
9.963274536
9.963272267
9.963268613
9.963266544
9.963263317
9.963260942
9.963252566
9.963249405
9.963246329
9.963241675
9.963238533
9.963234486
9.963230786
9.963226663
9.963222532
9.963219168
9.963215633
9.963212569
9.96320886
9.963207262
9.963259247
9.963257527
9.963254068
9.963250722
9.963247608
9.963242951
9.963238966
9.963232976
9.963229494
9.963225199
9.96322129
9.963217611
9.963213221
9.963210944
9.963208741
9.96330593
9.963302483
9.963296435
9.963290297
9.963282879
9.963274418
9.963268641
9.963263672
9.963259354
9.96325631
9.963254663
9.963251736
9.963249582
9.963247722
9.9632499
9.963278824
9.963267568
9.963254995
9.963245903
9.963239814
9.963233181
9.963229487
9.963227045
9.963226765
9.963228033
9.963227602
9.963226435
9.963228262
9.963227032
9.963227422
9.963206021
9.963191315
9.963182767
9.963178542
9.963175699
9.963177518
9.963181381
9.963185507
9.963187193
9.9631901
9.963193882
9.963197451
9.963201979
9.963114957
9.963093835
9.963083925
9.963081888
9.963085509
9.963090242
9.96309868
9.963104451
9.963110501
9.96311514
9.963120351
9.963123927
9.963128248
9.963130852
9.963259972
9.963236984
9.963222928
9.963213819
9.963210511
9.963208339
9.963208419
9.96321055
9.963213473
9.963214986
9.963218026
9.963221343
9.963223482
9.963226697
9.963258292
9.9632465
9.963235515
9.963227102
9.963218666
9.963213654
9.963209635
9.963207607
9.963206678
9.963206065
9.963206072
9.963206048
9.963204959
9.963206123
9.963256327
9.963248939
9.963242754
9.9632371
9.963230133
9.963224133
9.963220366
9.963216675
9.96321339
9.96321053
9.963206353
9.963204107
9.963202541
9.96320192
9.963297987
9.963293976
9.963290838
9.963286473
9.963281981
9.963276904
9.963273282
9.963268449
9.963264536
9.96326147
9.963258894
9.963255116
9.96325226
9.963248343
9.96329546
9.96329248
9.963286266
9.9632802
9.963273303
9.963266914
9.96326149
9.963255099
9.963249648
9.963247226
9.963243176
9.963239805
9.963235938
9.963233946
9.963233491
9.9632596
9.96325073
9.963240921
9.963231762
9.963224874
9.963218084
9.963213413
9.963209152
9.963204625
9.963202924
9.963201491
9.963200248
9.9631994
9.963199507
9.963199407
9.963283391
9.963257514
9.963234025
9.963218639
9.963210951
9.963207073
9.963204994
9.963207342
9.963210943
9.963213076
9.963215834
9.963218121
9.963221076
9.963222156
9.963223169
9.963082571
9.963056141
9.963052451
9.963061296
9.963074111
9.963088108
9.963103015
9.963116175
9.963127346
9.963138273
9.963148101
9.963155387
9.963160343
9.963165715
9.96283271
9.962867639
9.962920633
9.962970312
9.963014366
9.96304922
9.963078588
9.963102465
9.963120648
9.963137056
9.96315077
9.963161246
9.96317186
9.963177735
9.963072897
9.963046071
9.963044018
9.96305183
9.963066123
9.963081543
9.963095433
9.963108958
9.963121338
9.963130655
9.963139866
9.96314858
9.963155124
9.96316049
9.963218739
9.963196132
9.963180697
9.963171167
9.963167495
9.963164904
9.963167277
9.963168922
9.963171222
9.963173305
9.963176507
9.963179978
9.963181329
9.963183948
9.963249702
9.963237769
9.963227317
9.963218518
9.963212191
9.963205153
9.96319937
9.963197288
9.963194788
9.963191866
9.963191661
9.963191575
9.963191613
9.96319181
9.963251393
9.96324579
9.963240263
9.963234751
9.963228305
9.963222139
9.963217564
9.963211519
9.963207853
9.963204496
9.963200718
9.963198584
9.963194913
9.96319384
9.963251782
9.963247187
9.963242709
9.963237327
9.963231325
9.963224844
9.963217799
9.963212536
9.963208469
9.963205649
9.96320247
9.963198718
9.963197587
9.963195779
9.963194844
9.963275756
9.963262046
9.96324863
9.963237898
9.963228892
9.963223482
9.963219856
9.963216713
9.963214149
9.963212986
9.963212581
9.963212871
9.963212633
9.963214213
9.963213325
9.963116963
9.963079612
9.963059961
9.96304987
9.963048153
9.96305174
9.963056482
9.963062387
9.963071052
9.96307624
9.963081459
9.963085971
9.96308974
9.963094554
9.96309825
9.962852743
9.962806155
9.962841633
9.962894886
9.962944599
9.962987688
9.963021575
9.963050094
9.963071966
9.963090335
9.963107195
9.963119939
9.963131476
9.963139023
9.963144776
9.993666665
9.9942588
9.994593978
9.994801093
9.994935383
9.995029965
9.995101507
9.995158132
9.99520707
9.995248782
9.995284908
9.995319111
9.995350911
9.995379104
9.962811061
9.962845532
9.962895736
9.962946314
9.962989144
9.963024189
9.963052352
9.963074757
9.963093774
9.963108805
9.963121049
9.963131673
9.963139037
9.963144862
9.963167822
9.963146253
9.963137366
9.9631363
9.963140352
9.963144885
9.96314928
9.96315518
9.963159734
9.963166186
9.963171532
9.963175607
9.963178992
9.963182704
9.963256517
9.963245254
9.963236133
9.963227767
9.963221318
9.963217212
9.963214179
9.963210799
9.963209339
9.963208579
9.963208959
9.963208295
9.963208268
9.963208376
9.963281576
9.963276165
9.963270217
9.963262242
9.963256438
9.963251723
9.963247235
9.96324249
9.96323856
9.963234015
9.96323213
9.96322951
9.963226007
9.963225113
9.963300989
9.963296957
9.963292487
9.963287816
9.963282796
9.963277629
9.963271085
9.963267013
9.963261845
9.963257264
9.963253005
9.96325039
9.963248652
9.963246655
9.963244688
9.963304179
9.963295404
9.963285249
9.963276153
9.963267897
9.963261751
9.963256069
9.963252766
9.96324931
9.963247875
9.963245326
9.96324384
9.963244053
9.963242846
9.9632438
9.963259532
9.963233164
9.963211837
9.963196615
9.963187281
9.963184356
9.963183368
9.963184311
9.963187524
9.963190705
9.963192486
9.963196352
9.963199516
9.963201669
9.963202504
9.963153333
9.963092174
9.963065812
9.963062902
9.963071036
9.963086167
9.96310086
9.963113614
9.963127306
9.963139552
9.963150336
9.963160444
9.963168816
9.963175422
9.963180764
9.962874958
9.962829498
9.962861937
9.96291618
9.962966598
9.963007997
9.963042267
9.963070589
9.963094282
9.963112805
9.96312823
9.963140541
9.963149921
9.963157936
9.963163282
9.963162946
9.963102029
9.963074931
9.963070486
9.963079536
9.963091857
9.963107576
9.963121287
9.963135541
9.963148067
9.963157544
9.963167894
9.963175247
9.963181683
9.963186564
9.963214016
9.963192447
9.963178302
9.963169974
9.963164281
9.963163953
9.96316461
9.963166923
9.963169871
9.963173333
9.96317559
9.963179501
9.963181132
9.96318368
9.963277731
9.96326854
9.963259186
9.96324946
9.963243375
9.963238281
9.963232725
9.963229711
9.963228861
9.963227996
9.963227663
9.963226805
9.963226236
9.963225361
9.963285755
9.963280864
9.96327494
9.963269947
9.963263137
9.963257412
9.963253083
9.963248845
9.963245262
9.963242275
9.963239694
9.963238202
9.963237278
9.963234729
9.963295012
9.963291829
9.963289185
9.963285754
9.963279783
9.963275378
9.963270793
9.963266706
9.963262016
9.96325804
9.963255193
9.96325184
9.963248442
9.963245781
9.963243078
9.96325559
9.963251306
9.963242959
9.963235653
9.963228216
9.963222962
9.963217558
9.963212317
9.963208566
9.963203076
9.963199952
9.963197725
9.963195288
9.963194355
9.96319463
9.963200612
9.963187425
9.963176217
9.963166276
9.963157351
9.963150541
9.963145017
9.9631422
9.963140079
9.96314026
9.963138373
9.963137439
9.963138795
9.963138408
9.963137494
9.963228818
9.963202913
9.963180199
9.963162762
9.96315311
9.963150011
9.963148833
9.963149595
9.963152662
9.963154725
9.963157241
9.963160674
9.963163637
9.963165208
9.96316742
9.96324833
9.963209634
9.963188663
9.963178468
9.9631778
9.963179161
9.963183369
9.963188655
9.963194158
9.963199086
9.96320287
9.963206266
9.963210687
9.96321617
9.963219649
9.963235196
9.963209936
9.963187983
9.9631746
9.963165951
9.963162313
9.963161759
9.963162419
9.963164425
9.963165915
9.963169463
9.963172773
9.963175358
9.963178939
9.963180961
9.963249462
9.963236628
9.963226142
9.963214946
9.963206322
9.963200442
9.963196249
9.963191628
9.963189896
9.963188883
9.963187313
9.963187322
9.963188818
9.963188972
9.963188826
9.963265087
9.963258205
9.963253171
9.963246049
9.963240257
9.963233544
9.963228791
9.963224331
9.963219986
9.963216278
9.963214315
9.963212551
9.963210675
9.963209238
9.963258461
9.963255937
9.96325214
9.963247775
9.963241902
9.963237478
9.963233938
9.963229839
9.963224439
9.963220247
9.963215691
9.963211889
9.963208916
9.963206456
9.963234339
9.963234506
9.963233127
9.963232367
9.963228197
9.96322364
9.963219337
9.963216841
9.9632141
9.963210626
9.96320779
9.963203773
9.963200571
9.963197522
9.963195523
9.963291289
9.963288435
9.96328653
9.963281819
9.963278085
9.963273663
9.9632694
9.963264262
9.963260608
9.963256095
9.963251155
9.96324863
9.963245566
9.963243355
9.963240232
9.963283349
9.963278656
9.963271653
9.963265216
9.96325778
9.963251041
9.963245364
9.963239948
9.963235578
9.963231549
9.963230168
9.963227539
9.963225713
9.963222108
9.963222283
9.963256701
9.96324687
9.963236272
9.963226895
9.963219215
9.963211875
9.963207177
9.963203041
9.963199881
9.963197234
9.963195621
9.963194089
9.963192867
9.963192319
9.963190825
9.963251238
9.963238674
9.9632258
9.963215945
9.963208073
9.963201525
9.963197932
9.963194915
9.963192409
9.963191599
9.963189932
9.963187929
9.963189339
9.963188801
9.963189584
9.963263334
9.963253633
9.963243666
9.963232742
9.963223651
9.963217074
9.963211575
9.963207583
9.963202086
9.963199997
9.963199587
9.963197205
9.963196033
9.963195862
9.963196229
9.96325947
9.963254701
9.963247953
9.9632423
9.963234731
9.963228403
9.963222876
9.963216388
9.963212345
9.963210401
9.963210192
9.963207742
9.963206193
9.963206189
9.96320582
9.96327223
9.963269846
9.963266954
9.963263954
9.963259001
9.96325535
9.963250898
9.963246797
9.96324345
9.963238868
9.963234844
9.963230509
9.963228195
9.963224473
9.963222813
9.963249333
9.963247515
9.963243438
9.963240225
9.963238099
9.96323432
9.96323028
9.963226074
9.963221985
9.963218877
9.96321563
9.963212957
9.9632099
9.963207174
9.963291828
9.963291445
9.963290017
9.963288932
9.963285877
9.963282579
9.963281074
9.963278784
9.963274602
9.96326966
9.963266559
9.963263766
9.963259276
9.963257442
9.963255782
9.963264704
9.963263683
9.963261551
9.963259767
9.963257244
9.963254813
9.963251232
9.963246945
9.963243377
9.963239545
9.96323515
9.963231687
9.963228049
9.963225267
9.963223308
9.963291856
9.963289509
9.96328659
9.963282296
9.963277777
9.963273125
9.963268555
9.963263638
9.963257117
9.963254556
9.96325064
9.963246585
9.963242998
9.963239827
9.963238069
9.963238404
9.963234545
9.963229686
9.963224617
9.963219212
9.963214309
9.963208207
9.963202083
9.963199168
9.96319482
9.963190741
9.963188632
9.963187226
9.963185041
9.963183216
9.963272326
9.963266752
9.96326194
9.963255853
9.963249271
9.963243388
9.963237394
9.963231889
9.9632261
9.963222105
9.963219321
9.963216861
9.963213977
9.963212122
9.963209941
9.963213558
9.963209113
9.963205063
9.963200441
9.963195458
9.963188651
9.963183756
9.963177901
9.963173516
9.963169401
9.963165422
9.963163114
9.963160406
9.963159105
9.963159255
9.963272675
9.963269978
9.963266152
9.963261316
9.963256371
9.963252384
9.963247708
9.963244106
9.963239155
9.963233639
9.963230025
9.963226036
9.963221517
9.963217786
9.963214186
9.963301174
9.963300024
9.963299661
9.963297205
9.963293407
9.963289111
9.963286324
9.963283257
9.963279078
9.96327399
9.963269386
9.963265488
9.96326277
9.963259891
9.963257436
9.963282431
9.963281844
9.963281054
9.96327861
9.963276033
9.96327304
9.963269419
9.963266622
9.963263931
9.963259264
9.963255259
9.963251941
9.963248339
9.963244727
9.963242463
)
;

boundaryField
{
    top
    {
        type            calculated;
        value           nonuniform List<scalar> 
127
(
9.963282431
9.963270229
9.963252566
9.963297987
9.963251393
9.963281576
9.963285755
9.963258461
9.963249333
9.963281844
9.963269388
9.963249405
9.963293976
9.96324579
9.963276165
9.963280864
9.963255937
9.963247515
9.963281054
9.963268077
9.963246329
9.963290838
9.963240263
9.963270217
9.96327494
9.96325214
9.963243438
9.96327861
9.963266593
9.963241675
9.963286473
9.963234751
9.963262242
9.963269947
9.963247775
9.963240225
9.963276033
9.963263693
9.963238533
9.963281981
9.963228305
9.963256438
9.963263137
9.963241902
9.963238099
9.96327304
9.96326092
9.963234486
9.963276904
9.963222139
9.963251723
9.963257412
9.963237478
9.96323432
9.963269419
9.963257537
9.963230786
9.963273282
9.963217564
9.963247235
9.963253083
9.963233938
9.96323028
9.963266622
9.963253821
9.963226663
9.963268449
9.963211519
9.96324249
9.963248845
9.963229839
9.963226074
9.963263931
9.963249248
9.963222532
9.963264536
9.963207853
9.96323856
9.963245262
9.963224439
9.963221985
9.963259264
9.963245245
9.963219168
9.96326147
9.963204496
9.963234015
9.963242275
9.963220247
9.963218877
9.963255259
9.96324103
9.963215633
9.963258894
9.963200718
9.96323213
9.963239694
9.963215691
9.96321563
9.963251941
9.963237864
9.963212569
9.963255116
9.963198584
9.96322951
9.963238202
9.963211889
9.963212957
9.963248339
9.963235105
9.96320886
9.96325226
9.963194913
9.963226007
9.963237278
9.963208916
9.9632099
9.963244727
9.963232884
9.963207262
9.963248343
9.96319384
9.963225113
9.963234729
9.963206456
9.963207174
9.963242463
)
;
    }
    bottom
    {
        type            calculated;
        value           nonuniform List<scalar> 
134
(
9.963283488
9.963259247
9.96329546
9.963251782
9.963300989
9.963295012
9.963234339
9.963291828
9.963278519
9.963282485
9.963257527
9.96329248
9.963247187
9.963296957
9.963291829
9.963234506
9.963291445
9.96327751
9.963279688
9.963254068
9.963286266
9.963242709
9.963292487
9.963289185
9.963233127
9.963290017
9.963275541
9.963276092
9.963250722
9.9632802
9.963237327
9.963287816
9.963285754
9.963232367
9.963288932
9.963273695
9.96327284
9.963247608
9.963273303
9.963231325
9.963282796
9.963279783
9.963228197
9.963285877
9.963270911
9.963268466
9.963242951
9.963266914
9.963224844
9.963277629
9.963275378
9.96322364
9.963282579
9.963267539
9.963265266
9.963238966
9.96326149
9.963217799
9.963271085
9.963270793
9.963219337
9.963281074
9.963263846
9.963261445
9.963232976
9.963255099
9.963212536
9.963267013
9.963266706
9.963216841
9.963278784
9.963260559
9.963256024
9.963229494
9.963249648
9.963208469
9.963261845
9.963262016
9.9632141
9.963274602
9.9632565
9.963252926
9.963225199
9.963247226
9.963205649
9.963257264
9.96325804
9.963210626
9.96326966
9.963253164
9.963249483
9.96322129
9.963243176
9.96320247
9.963253005
9.963255193
9.96320779
9.963266559
9.963250807
9.963245119
9.963217611
9.963239805
9.963198718
9.96325039
9.96325184
9.963203773
9.963263766
9.963247319
9.963241785
9.963213221
9.963235938
9.963197587
9.963248652
9.963248442
9.963200571
9.963259276
9.963243375
9.963237818
9.963210944
9.963233946
9.963195779
9.963246655
9.963245781
9.963197522
9.963257442
9.963240817
9.963235718
9.963208741
9.963233491
9.963194844
9.963244688
9.963243078
9.963195523
9.963255782
)
;
    }
    side-walls
    {
        type            calculated;
        value           nonuniform List<scalar> 
261
(
9.963278519
9.963265641
9.9632838
9.963238192
9.963241059
9.963316131
9.963298665
9.963273166
9.963270229
9.96327751
9.963264626
9.963280676
9.963233714
9.963236584
9.96331052
9.963296118
9.963272217
9.963269388
9.963275541
9.963262418
9.963277162
9.963227587
9.963230445
9.963306059
9.963291268
9.963270206
9.963268077
9.963273695
9.963258968
9.963273133
9.963222225
9.963224127
9.963301371
9.963287586
9.963266664
9.963266593
9.963270911
9.963254905
9.963268994
9.963217599
9.963216773
9.963295446
9.963282145
9.963263082
9.963263693
9.963267539
9.963251883
9.963264212
9.963212198
9.963210574
9.963289489
9.963278227
9.963260337
9.96326092
9.963263846
9.963248255
9.963259577
9.963206947
9.963204251
9.963284193
9.963272192
9.963255917
9.963257537
9.963260559
9.96324359
9.963254453
9.963202383
9.963200508
9.963279909
9.963267867
9.963251569
9.963253821
9.9632565
9.963239954
9.963250193
9.963196949
9.963197578
9.963274722
9.963262793
9.963247124
9.963249248
9.963253164
9.96323664
9.963247643
9.963192904
9.963194973
9.963270521
9.963258465
9.963243866
9.963245245
9.963250807
9.963233128
9.963243907
9.963190525
9.963192228
9.963269248
9.963255012
9.963240245
9.96324103
9.963247319
9.963230411
9.963241397
9.96318839
9.963189572
9.963265976
9.963251837
9.963236779
9.963237864
9.963243375
9.963227897
9.963238654
9.963185726
9.963188237
9.963263447
9.963248178
9.963232635
9.963235105
9.963240817
9.96322681
9.963237695
9.963183269
9.963187823
9.963261871
9.963244942
9.963229375
9.963232884
9.963291828
9.963264704
9.963291856
9.963238404
9.963272326
9.963213558
9.963272675
9.963301174
9.963282431
9.963291445
9.963263683
9.963289509
9.963234545
9.963266752
9.963209113
9.963269978
9.963300024
9.963281844
9.963290017
9.963261551
9.96328659
9.963229686
9.96326194
9.963205063
9.963266152
9.963299661
9.963281054
9.963288932
9.963259767
9.963282296
9.963224617
9.963255853
9.963200441
9.963261316
9.963297205
9.96327861
9.963285877
9.963257244
9.963277777
9.963219212
9.963249271
9.963195458
9.963256371
9.963293407
9.963276033
9.963282579
9.963254813
9.963273125
9.963214309
9.963243388
9.963188651
9.963252384
9.963289111
9.96327304
9.963281074
9.963251232
9.963268555
9.963208207
9.963237394
9.963183756
9.963247708
9.963286324
9.963269419
9.963278784
9.963246945
9.963263638
9.963202083
9.963231889
9.963177901
9.963244106
9.963283257
9.963266622
9.963274602
9.963243377
9.963257117
9.963199168
9.9632261
9.963173516
9.963239155
9.963279078
9.963263931
9.96326966
9.963239545
9.963254556
9.96319482
9.963222105
9.963169401
9.963233639
9.96327399
9.963259264
9.963266559
9.96323515
9.96325064
9.963190741
9.963219321
9.963165422
9.963230025
9.963269386
9.963255259
9.963263766
9.963231687
9.963246585
9.963188632
9.963216861
9.963163114
9.963226036
9.963265488
9.963251941
9.963259276
9.963228049
9.963242998
9.963187226
9.963213977
9.963160406
9.963221517
9.96326277
9.963248339
9.963257442
9.963225267
9.963239827
9.963185041
9.963212122
9.963159105
9.963217786
9.963259891
9.963244727
9.963255782
9.963223308
9.963238069
9.963183216
9.963209941
9.963159255
9.963214186
9.963257436
9.963242463
)
;
    }
    inlet
    {
        type            calculated;
        value           nonuniform 0();
    }
    outlet
    {
        type            calculated;
        value           nonuniform List<scalar> 
81
(
9.963240817
9.96322681
9.963237695
9.963183269
9.963187823
9.963261871
9.963244942
9.963229375
9.963232884
9.963235718
9.963169677
9.963175641
9.963212176
9.963176982
9.963161007
9.963150451
9.963260942
9.963207262
9.963208741
9.9632499
9.963227032
9.963201979
9.963130852
9.963226697
9.963206123
9.96320192
9.963248343
9.963233491
9.963199407
9.963223169
9.963165715
9.963177735
9.96316049
9.963183948
9.96319181
9.96319384
9.963194844
9.963213325
9.96309825
9.963144776
9.995379104
9.963144862
9.963182704
9.963208376
9.963225113
9.963244688
9.9632438
9.963202504
9.963180764
9.963163282
9.963186564
9.96318368
9.963225361
9.963234729
9.963243078
9.96319463
9.963137494
9.96316742
9.963219649
9.963180961
9.963188826
9.963209238
9.963206456
9.963195523
9.963240232
9.963222283
9.963190825
9.963189584
9.963196229
9.96320582
9.963222813
9.963207174
9.963255782
9.963223308
9.963238069
9.963183216
9.963209941
9.963159255
9.963214186
9.963257436
9.963242463
)
;
    }
    procBoundary1to0
    {
        type            processor;
        value           nonuniform List<scalar> 
97
(
9.963279295
9.963279295
9.963268899
9.963286853
9.963241735
9.963245082
9.963321484
9.963300749
9.963274448
9.963271409
9.96328471
9.963218881
9.963218881
9.963218881
9.963234008
9.963272453
9.963239604
9.963223894
9.963207486
9.963306698
9.963253156
9.963261016
9.963308296
9.963292086
9.963292086
9.963292086
9.963253999
9.963152874
9.963287642
9.963271523
9.963262919
9.963301191
9.963297649
9.963265793
9.963306761
9.963144337
9.963144337
9.963144337
9.962877613
9.963134497
9.963246038
9.963259315
9.963253365
9.963256787
9.963286252
9.96316774
9.96313968
9.992592528
9.992592528
9.992592528
9.962855644
9.962855644
9.963206184
9.963269699
9.963287891
9.963302395
9.963309966
9.963282537
9.963243713
9.963161675
9.963253264
9.963240495
9.963240495
9.963240495
9.963286809
9.963288377
9.963296334
9.963257334
9.963210865
9.963253156
9.963299786
9.963258863
9.963260059
9.963269604
9.963269604
9.963269604
9.963259883
9.963234947
9.963292322
9.963286806
9.963261097
9.963263114
9.963270162
9.963263849
9.963273764
9.963250778
9.963250778
9.963250778
9.963292403
9.96326524
9.963292941
9.963241576
9.963277956
9.963215903
9.963275542
9.963303023
9.963283424
)
;
    }
}


// ************************************************************************* //
