/*--------------------------------*- C++ -*----------------------------------*\
| =========                 |                                                 |
| \\      /  F ield         | OpenFOAM: The Open Source CFD Toolbox           |
|  \\    /   O peration     | Version:  4.x                                   |
|   \\  /    A nd           | Web:      www.OpenFOAM.org                      |
|    \\/     M anipulation  |                                                 |
\*---------------------------------------------------------------------------*/
FoamFile
{
    version     2.0;
    format      ascii;
    class       volScalarField;
    location    "8000";
    object      N2;
}
// * * * * * * * * * * * * * * * * * * * * * * * * * * * * * * * * * * * * * //

dimensions      [0 0 0 0 0 0 0];

internalField   nonuniform List<scalar> 
1174
(
0.6030931999
0.6030926744
0.6030919336
0.6030909688
0.6030897909
0.6030884266
0.6030869125
0.6030852903
0.6030836019
0.6030818868
0.6030801812
0.6030785234
0.6030769813
0.6030757713
0.6030927074
0.6030918669
0.6030907494
0.6030893817
0.6030878115
0.6030860962
0.603084294
0.6030824576
0.603080631
0.6030788495
0.6030771405
0.6030755306
0.603074071
0.6030729459
0.6030916208
0.6030901383
0.6030883071
0.6030862314
0.6030840232
0.6030817828
0.603079589
0.6030774976
0.6030755439
0.6030737467
0.6030721138
0.6030706496
0.603069377
0.6030684254
0.6030900314
0.603087732
0.6030850969
0.6030823197
0.6030795609
0.603076935
0.6030745133
0.6030723319
0.6030704014
0.603068716
0.6030672605
0.6030660177
0.6030649848
0.6030642384
0.6030888987
0.6030861518
0.6030831606
0.6030801361
0.6030772305
0.6030745402
0.6030721171
0.6030699806
0.6030681281
0.6030665432
0.6030652026
0.6030640821
0.6030631702
0.6030625225
0.6030900314
0.603087732
0.603085097
0.6030823198
0.603079561
0.6030769351
0.6030745134
0.603072332
0.6030704015
0.6030687162
0.6030672607
0.6030660179
0.603064985
0.6030642386
0.6030916209
0.6030901383
0.6030883072
0.6030862315
0.6030840233
0.6030817829
0.6030795891
0.6030774977
0.6030755441
0.6030737469
0.603072114
0.6030706498
0.6030693772
0.6030684257
0.6030927074
0.6030918669
0.6030907495
0.6030893818
0.6030878116
0.6030860963
0.6030842942
0.6030824577
0.6030806312
0.6030788497
0.6030771407
0.6030755309
0.6030740713
0.6030729462
0.6030931999
0.6030926744
0.6030919336
0.6030909688
0.603089791
0.6030884266
0.6030869126
0.6030852904
0.6030836021
0.603081887
0.6030801814
0.6030785237
0.6030769816
0.6030757717
0.6030932758
0.6030927074
0.6030918669
0.6030907495
0.6030893817
0.6030878115
0.6030860963
0.6030842941
0.6030824576
0.6030806311
0.6030788495
0.6030771405
0.6030755307
0.603074071
0.6030729459
0.6030915991
0.6030901269
0.6030883348
0.6030863312
0.6030842245
0.6030821056
0.6030800416
0.6030780774
0.6030762389
0.6030745388
0.6030729816
0.6030715708
0.6030703312
0.6030693959
0.6030888148
0.6030859613
0.6030828658
0.6030797908
0.6030769147
0.603074334
0.6030720827
0.6030701548
0.6030685227
0.6030671494
0.6030659972
0.6030650334
0.6030642424
0.6030636743
0.6030838752
0.6030791403
0.6030746482
0.6030707333
0.60306751
0.6030649599
0.6030630009
0.6030615303
0.6030604479
0.6030596662
0.6030591129
0.6030587307
0.6030584761
0.6030583252
0.6030792243
0.6030735353
0.6030687268
0.6030649216
0.60306204
0.6030599319
0.6030584385
0.6030574181
0.6030567533
0.603056351
0.6030561388
0.6030560606
0.6030560699
0.6030561165
0.6030838752
0.6030791404
0.6030746483
0.6030707334
0.6030675101
0.6030649601
0.603063001
0.6030615305
0.6030604481
0.6030596664
0.6030591131
0.6030587309
0.6030584763
0.6030583254
0.6030888149
0.6030859614
0.6030828659
0.6030797909
0.6030769148
0.6030743341
0.6030720828
0.603070155
0.6030685229
0.6030671497
0.6030659975
0.6030650337
0.6030642427
0.6030636747
0.6030915992
0.603090127
0.6030883348
0.6030863313
0.6030842246
0.6030821057
0.6030800418
0.6030780776
0.6030762391
0.6030745391
0.6030729819
0.6030715712
0.6030703316
0.6030693963
0.6030927074
0.6030918669
0.6030907495
0.6030893818
0.6030878116
0.6030860964
0.6030842942
0.6030824578
0.6030806313
0.6030788498
0.6030771408
0.603075531
0.6030740714
0.6030729463
0.6030926887
0.6030916209
0.6030901383
0.6030883071
0.6030862314
0.6030840233
0.6030817829
0.603079589
0.6030774977
0.603075544
0.6030737468
0.6030721139
0.6030706496
0.603069377
0.6030684254
0.6030911235
0.6030888149
0.6030859614
0.6030828659
0.6030797908
0.6030769148
0.603074334
0.6030720827
0.6030701549
0.6030685227
0.6030671495
0.6030659972
0.6030650334
0.6030642425
0.6030636744
0.6030806048
0.6030746022
0.6030691811
0.6030647486
0.6030613847
0.6030589873
0.6030573811
0.6030563814
0.6030558241
0.6030555765
0.6030555366
0.6030556278
0.603055789
0.6030559491
0.6030623774
0.6030522702
0.6030453272
0.6030412526
0.6030393614
0.6030389676
0.6030395203
0.6030406216
0.6030420023
0.6030434893
0.6030449746
0.6030463893
0.6030476675
0.6030486453
0.6030385536
0.6030285338
0.6030242734
0.6030235703
0.6030248573
0.6030271507
0.6030298691
0.6030326828
0.603035413
0.6030379684
0.6030403074
0.6030424096
0.6030442366
0.6030456015
0.6030623778
0.6030522705
0.6030453276
0.603041253
0.6030393617
0.6030389679
0.6030395207
0.6030406219
0.6030420026
0.6030434896
0.6030449749
0.6030463896
0.6030476678
0.6030486456
0.603080605
0.6030746025
0.6030691813
0.6030647489
0.603061385
0.6030589876
0.6030573815
0.6030563818
0.6030558246
0.603055577
0.603055537
0.6030556283
0.6030557895
0.6030559496
0.6030888149
0.6030859614
0.603082866
0.603079791
0.6030769149
0.6030743343
0.603072083
0.6030701552
0.6030685231
0.6030671499
0.6030659977
0.6030650339
0.6030642429
0.6030636749
0.6030916209
0.6030901384
0.6030883072
0.6030862315
0.6030840234
0.603081783
0.6030795892
0.6030774979
0.6030755443
0.6030737472
0.6030721143
0.6030706501
0.6030693775
0.603068426
0.6030918083
0.6030900314
0.6030877321
0.603085097
0.6030823198
0.603079561
0.6030769352
0.6030745135
0.603072332
0.6030704015
0.6030687161
0.6030672606
0.6030660178
0.6030649849
0.6030642385
0.6030882399
0.6030838752
0.6030791404
0.6030746483
0.6030707334
0.6030675101
0.60306496
0.603063001
0.6030615304
0.603060448
0.6030596663
0.603059113
0.6030587307
0.6030584762
0.6030583253
0.6030747497
0.6030623776
0.6030522703
0.6030453274
0.6030412527
0.6030393615
0.6030389677
0.6030395204
0.6030406216
0.6030420024
0.6030434893
0.6030449747
0.6030463894
0.6030476676
0.6030486453
0.6029999913
0.6029873525
0.6029853517
0.6029890915
0.6029953771
0.6030024119
0.603009289
0.6030156066
0.6030212287
0.6030261486
0.6030304144
0.6030340838
0.6030371647
0.6030394132
0.6028778115
0.6028939807
0.6029186398
0.6029422263
0.6029622391
0.602978548
0.6029916932
0.6030023049
0.6030109304
0.6030180023
0.603023849
0.603028705
0.6030326805
0.6030355355
0.6029999926
0.6029873534
0.6029853525
0.6029890922
0.6029953777
0.6030024125
0.6030092896
0.6030156072
0.6030212292
0.603026149
0.6030304148
0.6030340842
0.6030371651
0.6030394135
0.6030623778
0.6030522706
0.6030453278
0.6030412533
0.603039362
0.6030389683
0.603039521
0.6030406223
0.603042003
0.60304349
0.6030449753
0.60304639
0.6030476682
0.6030486459
0.6030838752
0.6030791405
0.6030746485
0.6030707336
0.6030675104
0.6030649604
0.6030630014
0.6030615309
0.6030604486
0.6030596669
0.6030591136
0.6030587314
0.6030584768
0.6030583259
0.6030900314
0.603087732
0.603085097
0.6030823199
0.6030795611
0.6030769354
0.6030745137
0.6030723323
0.6030704019
0.6030687166
0.6030672612
0.6030660184
0.6030649855
0.6030642392
0.6030911491
0.6030888987
0.6030861519
0.6030831607
0.6030801363
0.6030772306
0.6030745403
0.6030721172
0.6030699807
0.6030681282
0.6030665434
0.6030652028
0.6030640822
0.6030631704
0.6030625226
0.6030852368
0.6030792244
0.6030735354
0.603068727
0.6030649217
0.6030620401
0.603059932
0.6030584387
0.6030574183
0.6030567535
0.6030563511
0.6030561389
0.6030560607
0.60305607
0.6030561166
0.6030564275
0.6030385537
0.6030285341
0.6030242736
0.6030235705
0.6030248575
0.6030271509
0.6030298692
0.603032683
0.6030354131
0.6030379686
0.6030403075
0.6030424097
0.6030442367
0.6030456016
0.6028993339
0.6028778124
0.6028939813
0.6029186403
0.6029422266
0.6029622394
0.6029785482
0.6029916934
0.6030023051
0.6030109305
0.6030180024
0.6030238491
0.6030287051
0.6030326805
0.6030355356
0.6023526838
0.6026205089
0.6027686574
0.6028553133
0.6029089536
0.6029440291
0.6029681546
0.6029855046
0.6029984624
0.603008445
0.6030163269
0.6030226541
0.6030277081
0.603031282
0.6028778113
0.6028939819
0.6029186412
0.6029422276
0.6029622403
0.602978549
0.6029916941
0.6030023057
0.6030109311
0.603018003
0.6030238496
0.6030287055
0.603032681
0.603035536
0.6030385536
0.6030285344
0.6030242742
0.6030235712
0.6030248583
0.6030271517
0.60302987
0.6030326838
0.6030354139
0.6030379693
0.6030403082
0.6030424104
0.6030442373
0.6030456023
0.6030792243
0.6030735355
0.6030687272
0.603064922
0.6030620406
0.6030599325
0.6030584393
0.6030574189
0.6030567541
0.6030563518
0.6030561396
0.6030560614
0.6030560707
0.6030561173
0.6030888987
0.6030861519
0.6030831608
0.6030801364
0.6030772308
0.6030745406
0.6030721176
0.6030699812
0.6030681287
0.6030665439
0.6030652034
0.6030640829
0.6030631711
0.6030625234
0.6030918083
0.6030900315
0.6030877321
0.6030850971
0.6030823199
0.6030795611
0.6030769353
0.6030745136
0.6030723321
0.6030704017
0.6030687163
0.6030672608
0.603066018
0.6030649851
0.6030642387
0.60308824
0.6030838754
0.6030791406
0.6030746485
0.6030707336
0.6030675103
0.6030649603
0.6030630012
0.6030615306
0.6030604483
0.6030596666
0.6030591132
0.603058731
0.6030584765
0.6030583255
0.6030747502
0.6030623781
0.6030522709
0.6030453279
0.6030412533
0.603039362
0.6030389682
0.6030395209
0.6030406221
0.6030420028
0.6030434898
0.6030449751
0.6030463898
0.603047668
0.6030486457
0.6030285532
0.6029999935
0.6029873543
0.6029853532
0.6029890927
0.6029953782
0.6030024128
0.6030092898
0.6030156074
0.6030212294
0.6030261492
0.603030415
0.6030340843
0.6030371652
0.6030394137
0.6028993343
0.6028778129
0.6028939829
0.6029186418
0.602942228
0.6029622406
0.6029785492
0.6029916943
0.6030023058
0.6030109312
0.603018003
0.6030238497
0.6030287056
0.603032681
0.6030355361
0.603028553
0.6029999937
0.6029873547
0.6029853538
0.6029890934
0.6029953788
0.6030024135
0.6030092905
0.603015608
0.60302123
0.6030261497
0.6030304154
0.6030340847
0.6030371656
0.603039414
0.6030623774
0.6030522707
0.6030453281
0.6030412537
0.6030393626
0.6030389689
0.6030395216
0.6030406228
0.6030420035
0.6030434905
0.6030449757
0.6030463904
0.6030476686
0.6030486463
0.6030838751
0.6030791405
0.6030746486
0.6030707338
0.6030675107
0.6030649607
0.6030630017
0.6030615312
0.6030604489
0.6030596672
0.6030591139
0.6030587317
0.6030584771
0.6030583262
0.6030900314
0.603087732
0.6030850971
0.60308232
0.6030795612
0.6030769355
0.6030745139
0.6030723325
0.6030704021
0.6030687169
0.6030672614
0.6030660186
0.6030649858
0.6030642394
0.6030926887
0.6030916209
0.6030901384
0.6030883072
0.6030862316
0.6030840234
0.603081783
0.6030795892
0.6030774979
0.6030755442
0.6030737471
0.6030721142
0.60307065
0.6030693774
0.6030684258
0.6030911236
0.603088815
0.6030859615
0.6030828661
0.603079791
0.603076915
0.6030743343
0.603072083
0.6030701552
0.6030685231
0.6030671498
0.6030659976
0.6030650338
0.6030642429
0.6030636748
0.603086341
0.6030806052
0.6030746027
0.6030691815
0.6030647491
0.6030613852
0.6030589878
0.6030573817
0.603056382
0.6030558248
0.6030555771
0.6030555372
0.6030556284
0.6030557896
0.6030559497
0.6030747503
0.6030623782
0.6030522711
0.6030453283
0.6030412537
0.6030393624
0.6030389687
0.6030395213
0.6030406225
0.6030420033
0.6030434902
0.6030449755
0.6030463901
0.6030476683
0.6030486461
0.6030564278
0.6030385545
0.6030285352
0.6030242749
0.6030235717
0.6030248587
0.603027152
0.6030298703
0.603032684
0.6030354141
0.6030379695
0.6030403084
0.6030424105
0.6030442374
0.6030456024
0.6030747503
0.6030623784
0.6030522714
0.6030453286
0.6030412541
0.6030393628
0.6030389691
0.6030395217
0.6030406229
0.6030420037
0.6030434906
0.6030449758
0.6030463905
0.6030476687
0.6030486464
0.6030863409
0.6030806051
0.6030746027
0.6030691817
0.6030647494
0.6030613856
0.6030589883
0.6030573822
0.6030563825
0.6030558253
0.6030555777
0.6030555377
0.603055629
0.6030557902
0.6030559502
0.6030888148
0.6030859614
0.6030828661
0.6030797912
0.6030769152
0.6030743346
0.6030720834
0.6030701556
0.6030685235
0.6030671503
0.6030659982
0.6030650344
0.6030642435
0.6030636754
0.6030916208
0.6030901383
0.6030883072
0.6030862316
0.6030840235
0.6030817832
0.6030795894
0.6030774982
0.6030755446
0.6030737475
0.6030721147
0.6030706505
0.6030693779
0.6030684264
0.6030932758
0.6030927074
0.6030918669
0.6030907495
0.6030893818
0.6030878116
0.6030860964
0.6030842943
0.6030824578
0.6030806313
0.6030788498
0.6030771409
0.603075531
0.6030740714
0.6030729463
0.6030926737
0.6030915992
0.603090127
0.6030883349
0.6030863314
0.6030842247
0.6030821058
0.603080042
0.6030780777
0.6030762393
0.6030745392
0.603072982
0.6030715713
0.6030703318
0.6030693965
0.6030911236
0.603088815
0.6030859615
0.6030828661
0.6030797911
0.6030769151
0.6030743344
0.6030720832
0.6030701553
0.6030685232
0.60306715
0.6030659978
0.603065034
0.6030642431
0.603063675
0.60308824
0.6030838754
0.6030791407
0.6030746487
0.6030707339
0.6030675107
0.6030649607
0.6030630017
0.6030615311
0.6030604488
0.6030596671
0.6030591137
0.6030587315
0.603058477
0.603058326
0.6030852368
0.6030792246
0.6030735358
0.6030687275
0.6030649224
0.6030620409
0.6030599328
0.6030584395
0.6030574191
0.6030567543
0.603056352
0.6030561397
0.6030560616
0.6030560709
0.6030561175
0.6030882401
0.6030838755
0.6030791408
0.6030746488
0.6030707341
0.6030675109
0.6030649609
0.6030630019
0.6030615313
0.603060449
0.6030596673
0.603059114
0.6030587318
0.6030584772
0.6030583263
0.6030911235
0.603088815
0.6030859616
0.6030828662
0.6030797912
0.6030769153
0.6030743346
0.6030720834
0.6030701556
0.6030685236
0.6030671504
0.6030659982
0.6030650344
0.6030642435
0.6030636754
0.6030926737
0.6030915992
0.603090127
0.6030883349
0.6030863314
0.6030842248
0.603082106
0.6030800422
0.603078078
0.6030762396
0.6030745396
0.6030729824
0.6030715717
0.6030703322
0.6030693969
0.6030927074
0.6030918669
0.6030907495
0.6030893818
0.6030878117
0.6030860965
0.6030842944
0.603082458
0.6030806316
0.6030788501
0.6030771412
0.6030755314
0.6030740719
0.6030729468
0.6030935384
0.6030931999
0.6030926745
0.6030919337
0.6030909689
0.603089791
0.6030884267
0.6030869126
0.6030852905
0.6030836022
0.6030818871
0.6030801815
0.6030785238
0.6030769817
0.6030757718
0.6030932758
0.6030927074
0.603091867
0.6030907495
0.6030893819
0.6030878117
0.6030860964
0.6030842943
0.6030824579
0.6030806314
0.6030788499
0.6030771409
0.6030755311
0.6030740715
0.6030729464
0.6030926887
0.6030916209
0.6030901384
0.6030883073
0.6030862316
0.6030840235
0.6030817831
0.6030795894
0.6030774981
0.6030755444
0.6030737473
0.6030721144
0.6030706502
0.6030693777
0.6030684261
0.6030918083
0.6030900315
0.6030877322
0.6030850972
0.6030823201
0.6030795613
0.6030769356
0.6030745139
0.6030723325
0.6030704021
0.6030687168
0.6030672613
0.6030660185
0.6030649857
0.6030642393
0.6030911491
0.6030888988
0.6030861521
0.6030831609
0.6030801366
0.603077231
0.6030745408
0.6030721178
0.6030699814
0.6030681289
0.6030665441
0.6030652035
0.6030640831
0.6030631712
0.6030625235
0.6030918083
0.6030900315
0.6030877322
0.6030850972
0.6030823201
0.6030795614
0.6030769356
0.603074514
0.6030723326
0.6030704022
0.603068717
0.6030672615
0.6030660187
0.6030649859
0.6030642395
0.6030926887
0.6030916209
0.6030901384
0.6030883073
0.6030862317
0.6030840236
0.6030817833
0.6030795895
0.6030774982
0.6030755446
0.6030737476
0.6030721147
0.6030706505
0.603069378
0.6030684265
0.6030932758
0.6030927074
0.603091867
0.6030907496
0.6030893819
0.6030878117
0.6030860965
0.6030842944
0.6030824581
0.6030806316
0.6030788502
0.6030771413
0.6030755315
0.6030740719
0.6030729469
0.6030935384
0.6030931999
0.6030926744
0.6030919337
0.6030909689
0.6030897911
0.6030884268
0.6030869127
0.6030852906
0.6030836024
0.6030818874
0.6030801818
0.6030785241
0.6030769821
0.6030757723
)
;

boundaryField
{
    top
    {
        type            zeroGradient;
    }
    bottom
    {
        type            zeroGradient;
    }
    side-walls
    {
        type            zeroGradient;
    }
    inlet
    {
        type            zeroGradient;
    }
    outlet
    {
        type            zeroGradient;
    }
    procBoundary1to0
    {
        type            processor;
        value           nonuniform List<scalar> 
97
(
0.6030935384
0.6030935384
0.6030932758
0.6030926887
0.6030918084
0.6030911492
0.6030918084
0.6030926887
0.6030932758
0.6030935384
0.6030936124
0.6030926737
0.6030926737
0.6030926737
0.6030911236
0.6030882401
0.603085237
0.6030882402
0.6030911236
0.6030926737
0.6030932758
0.6030933461
0.6030926582
0.6030863409
0.6030863409
0.6030863409
0.6030747504
0.6030564288
0.6030747508
0.6030863413
0.6030911236
0.6030926887
0.6030929564
0.6030914473
0.6030861779
0.6030285524
0.6030285524
0.6030285524
0.6028993418
0.6030285551
0.6030747508
0.6030882402
0.6030918084
0.6030926787
0.6030903071
0.6030803378
0.6030409547
0.601841076
0.601841076
0.601841076
0.6028993411
0.6028993411
0.6030564288
0.603085237
0.6030911492
0.6030929564
0.6030914473
0.6030861778
0.6030708886
0.6030409545
0.6030708889
0.6030747499
0.6030747499
0.6030747499
0.60308824
0.6030918084
0.6030933461
0.6030926582
0.6030906457
0.6030861778
0.6030803379
0.6030861779
0.6030906457
0.6030911235
0.6030911235
0.6030911235
0.6030926887
0.6030936124
0.6030933408
0.6030926582
0.6030914473
0.6030903071
0.6030914473
0.6030926582
0.6030933408
0.6030932758
0.6030932758
0.6030932758
0.6030937332
0.6030936124
0.6030933461
0.6030929564
0.6030926787
0.6030929564
0.6030933461
0.6030936124
0.6030937332
)
;
    }
}


// ************************************************************************* //
