/*--------------------------------*- C++ -*----------------------------------*\
| =========                 |                                                 |
| \\      /  F ield         | OpenFOAM: The Open Source CFD Toolbox           |
|  \\    /   O peration     | Version:  4.x                                   |
|   \\  /    A nd           | Web:      www.OpenFOAM.org                      |
|    \\/     M anipulation  |                                                 |
\*---------------------------------------------------------------------------*/
FoamFile
{
    version     2.0;
    format      ascii;
    class       volScalarField;
    location    "8000";
    object      rho;
}
// * * * * * * * * * * * * * * * * * * * * * * * * * * * * * * * * * * * * * //

dimensions      [1 -3 0 0 0 0 0];

internalField   nonuniform List<scalar> 
1174
(
0.2777050834
0.2777053227
0.2777055936
0.2777059777
0.2777064534
0.2777069962
0.2777075926
0.2777082318
0.2777088998
0.2777095976
0.2777103152
0.2777109842
0.2777115894
0.2777120464
0.2777049813
0.2777053283
0.2777057707
0.277706307
0.2777069297
0.2777076297
0.2777083524
0.2777090863
0.2777098009
0.2777105265
0.2777112237
0.277711893
0.2777124889
0.2777129641
0.2777059511
0.2777065456
0.277707312
0.2777081556
0.2777090321
0.2777099421
0.2777107958
0.2777116289
0.2777124254
0.2777131718
0.2777138258
0.2777144317
0.2777149686
0.2777153609
0.2777054523
0.2777063501
0.2777074138
0.277708541
0.2777096764
0.2777107121
0.2777116988
0.2777125803
0.2777133377
0.2777139829
0.2777145911
0.2777150821
0.2777154996
0.2777157988
0.2777060315
0.2777071691
0.2777083658
0.2777095631
0.2777107109
0.2777118261
0.2777127601
0.2777136151
0.2777143877
0.2777150282
0.2777155685
0.2777160366
0.2777164056
0.2777167099
0.2777076243
0.2777085231
0.2777095823
0.2777107368
0.2777118586
0.2777128959
0.2777138563
0.2777147498
0.2777154767
0.277716153
0.2777167604
0.2777172422
0.277717662
0.277717953
0.2777063648
0.2777070001
0.2777077189
0.2777085424
0.2777094193
0.2777103134
0.2777111701
0.2777120303
0.2777127748
0.2777135014
0.2777141457
0.277714737
0.277715217
0.277715606
0.2777051753
0.2777055294
0.2777059877
0.2777065284
0.2777071284
0.2777078394
0.2777085756
0.2777093024
0.2777100395
0.2777107525
0.2777114186
0.27771205
0.2777126322
0.2777130564
0.2777048615
0.2777050825
0.2777053909
0.2777057748
0.2777062407
0.2777067911
0.2777074004
0.2777080368
0.2777087216
0.2777093802
0.2777100385
0.2777107215
0.2777113446
0.27771183
0.2777051981
0.277705444
0.2777057409
0.2777061458
0.2777066908
0.2777073097
0.2777079807
0.2777087368
0.2777094357
0.2777101517
0.2777108867
0.2777115413
0.2777121989
0.27771277
0.2777132356
0.2777041034
0.2777046741
0.277705431
0.2777062961
0.2777071385
0.2777080125
0.2777087891
0.277709588
0.2777103452
0.2777110089
0.277711605
0.2777121739
0.2777126637
0.2777130224
0.2777057533
0.2777068808
0.2777081278
0.2777093671
0.2777105127
0.2777115616
0.2777124879
0.2777132551
0.277713909
0.277714464
0.2777148965
0.2777153137
0.2777156111
0.2777157753
0.2777090034
0.2777109127
0.2777126933
0.2777143181
0.2777155835
0.2777166317
0.277717396
0.2777179888
0.27771843
0.2777187146
0.2777189917
0.2777191573
0.2777192596
0.2777193299
0.2777100834
0.2777123684
0.2777142994
0.2777157935
0.2777169186
0.2777177564
0.2777183358
0.2777187607
0.277719034
0.2777192242
0.2777193288
0.2777193764
0.2777193557
0.2777193128
0.277707628
0.2777095634
0.277711342
0.277712885
0.2777141763
0.277715181
0.2777159991
0.2777165854
0.2777170287
0.2777173416
0.2777175533
0.2777177069
0.2777178238
0.2777178599
0.2777050265
0.277706164
0.2777073688
0.2777086021
0.2777097925
0.2777108095
0.2777117345
0.2777124949
0.2777131559
0.27771368
0.2777141414
0.2777145404
0.2777148948
0.2777151165
0.2777065458
0.277707157
0.2777078941
0.2777087661
0.277709609
0.2777104478
0.2777112691
0.2777120661
0.2777127905
0.2777135056
0.2777140971
0.2777147198
0.2777151964
0.2777155845
0.2777045769
0.2777049297
0.2777053425
0.2777058283
0.277706463
0.2777071296
0.2777078763
0.2777085896
0.2777093317
0.2777100357
0.2777107637
0.2777113765
0.277711975
0.2777124487
0.2777047999
0.2777052074
0.2777058149
0.2777065986
0.2777074395
0.2777083354
0.2777092231
0.277710103
0.277710949
0.2777117326
0.2777124634
0.277713077
0.2777136501
0.2777141774
0.2777145593
0.2777068282
0.277707762
0.2777089302
0.2777101567
0.2777114085
0.277712522
0.2777134975
0.2777144092
0.2777151771
0.2777158455
0.2777163917
0.277716863
0.2777172688
0.277717573
0.2777178838
0.2777109436
0.2777133525
0.2777154877
0.2777172911
0.2777186231
0.2777195854
0.2777202237
0.2777205848
0.2777208613
0.2777210123
0.2777210127
0.277720963
0.2777208912
0.2777208202
0.2777178486
0.2777219131
0.2777246864
0.2777263297
0.2777271061
0.277727208
0.2777270108
0.2777266175
0.2777260615
0.277725431
0.2777248385
0.2777242854
0.2777237973
0.2777234133
0.2777257063
0.2777297197
0.2777313985
0.2777316819
0.277731179
0.2777302526
0.2777292381
0.27772811
0.2777269916
0.2777259804
0.277725044
0.2777241898
0.2777234684
0.2777228837
0.2777187736
0.2777228109
0.2777255875
0.2777272187
0.2777279653
0.2777281
0.2777278544
0.2777274096
0.2777268645
0.2777261911
0.277725605
0.277725054
0.2777245283
0.277724172
0.2777103524
0.2777127487
0.2777149318
0.2777167512
0.2777180801
0.2777190501
0.2777196656
0.2777200908
0.2777203145
0.2777204013
0.2777204161
0.2777203506
0.2777202781
0.2777202391
0.2777064833
0.277707608
0.2777088642
0.2777101011
0.2777112689
0.2777122629
0.2777131814
0.2777139827
0.2777146396
0.2777151893
0.2777156113
0.2777160051
0.2777162849
0.2777165391
0.2777063558
0.2777069406
0.2777076682
0.2777085135
0.2777093846
0.2777103342
0.277711234
0.2777120529
0.2777128093
0.2777135529
0.2777142458
0.277714818
0.2777153391
0.2777156887
0.2777062203
0.2777069308
0.2777078267
0.2777088421
0.2777099783
0.2777110691
0.2777121264
0.2777130495
0.2777139215
0.2777147164
0.277715403
0.2777159563
0.2777164248
0.2777168382
0.2777171617
0.2777068416
0.2777085973
0.2777105308
0.2777123264
0.2777139305
0.2777152494
0.2777162748
0.2777170772
0.2777176369
0.2777180611
0.2777183867
0.2777185858
0.2777187608
0.2777188612
0.2777189335
0.2777137481
0.2777186818
0.2777227005
0.2777254768
0.2777270876
0.2777278717
0.2777280427
0.2777278254
0.2777273903
0.2777268343
0.277726247
0.277725609
0.2777250283
0.2777245019
0.2777240627
0.2777425844
0.2777476616
0.2777484638
0.2777469765
0.2777444282
0.2777415967
0.2777388054
0.2777362976
0.2777340338
0.277732049
0.2777303433
0.2777288639
0.2777276035
0.2777267189
0.2777918482
0.2777853816
0.2777755107
0.2777660502
0.2777580212
0.2777514796
0.277746249
0.2777420236
0.2777385648
0.2777357924
0.2777334703
0.2777315024
0.2777299514
0.2777288298
0.2777423042
0.2777473392
0.2777481763
0.2777467156
0.2777442042
0.2777414078
0.2777386378
0.2777360897
0.2777338371
0.277731848
0.2777301233
0.2777286732
0.2777274583
0.2777265485
0.2777176439
0.2777216609
0.2777244243
0.2777260282
0.277726801
0.2777269369
0.2777267143
0.277726232
0.2777256552
0.2777250667
0.2777244796
0.2777238923
0.2777233681
0.2777229558
0.2777085871
0.277710416
0.2777122119
0.2777137553
0.2777150598
0.2777160654
0.2777168039
0.2777174099
0.2777178393
0.2777181612
0.2777183584
0.2777185249
0.2777186424
0.2777187316
0.2777057907
0.2777067037
0.2777077805
0.2777088903
0.2777099814
0.2777110063
0.2777119838
0.2777128093
0.2777136221
0.2777142946
0.2777148818
0.2777153582
0.2777157616
0.2777160683
0.2777052808
0.27770621
0.2777073376
0.2777085503
0.2777097789
0.2777109552
0.2777120086
0.2777129718
0.2777138537
0.277714597
0.2777152408
0.2777157511
0.2777162409
0.2777166339
0.2777168709
0.2777086608
0.2777110762
0.2777133423
0.2777151944
0.2777167375
0.2777179141
0.277718757
0.2777193475
0.2777197407
0.2777200314
0.2777202145
0.2777203166
0.2777203419
0.2777203882
0.2777203672
0.2777175509
0.2777247136
0.2777287435
0.2777304894
0.2777307383
0.2777302224
0.2777293158
0.2777282589
0.2777271333
0.2777260606
0.2777249978
0.2777241021
0.2777232494
0.2777225056
0.2777219687
0.2777825123
0.2777911322
0.2777846733
0.2777747908
0.2777653023
0.2777573087
0.2777507147
0.2777454747
0.2777412044
0.2777377247
0.2777349194
0.2777325862
0.2777306607
0.2777290584
0.2777279349
0.2788944608
0.2787869824
0.2787278735
0.2786935294
0.2786725002
0.2786589089
0.2786497693
0.2786433422
0.2786386973
0.2786352889
0.2786326346
0.2786306676
0.2786292219
0.2786283389
0.277791243
0.2777847684
0.277774842
0.2777653433
0.2777573295
0.2777508079
0.2777455439
0.2777412645
0.2777378144
0.2777350055
0.2777326303
0.2777306994
0.2777290436
0.2777278795
0.2777271816
0.2777312092
0.2777329061
0.2777331707
0.2777326865
0.2777317714
0.277730656
0.2777295028
0.2777283816
0.2777273747
0.2777264604
0.2777256247
0.2777248627
0.2777243371
0.27771094
0.2777132333
0.2777151786
0.2777166965
0.2777178604
0.2777187132
0.2777193184
0.2777196984
0.2777199658
0.2777201006
0.2777202221
0.2777202182
0.2777202381
0.2777202157
0.2777071707
0.2777082836
0.2777094698
0.2777106509
0.2777118347
0.2777129439
0.2777139393
0.2777148157
0.2777155176
0.2777161618
0.2777166759
0.2777171302
0.277717477
0.2777177317
0.2777063382
0.2777070809
0.2777080291
0.2777090771
0.2777102001
0.277711338
0.2777123893
0.2777133601
0.2777142409
0.2777150007
0.2777156386
0.277716242
0.2777167715
0.2777171791
0.2777174771
0.2777080731
0.2777098488
0.2777117559
0.2777135706
0.2777151366
0.2777164525
0.277717454
0.2777182789
0.2777188634
0.2777193058
0.2777195956
0.2777198301
0.2777200328
0.2777201048
0.277720179
0.2777130315
0.277718025
0.2777220629
0.27772487
0.2777264953
0.2777272553
0.2777274261
0.2777271922
0.277726762
0.2777262506
0.2777255991
0.2777249807
0.2777244193
0.2777239142
0.2777235124
0.2777313739
0.277742844
0.2777479169
0.2777487636
0.2777472762
0.2777447743
0.277741952
0.2777391548
0.2777366144
0.277734374
0.2777324004
0.2777306965
0.2777292405
0.2777279891
0.2777271034
0.2777831106
0.2777917728
0.2777852545
0.2777753602
0.2777659278
0.277757872
0.2777513233
0.2777460546
0.2777417992
0.2777383485
0.2777355132
0.2777331709
0.2777312032
0.2777296035
0.2777284042
0.2777316482
0.2777430936
0.2777481606
0.2777489836
0.2777474644
0.2777449545
0.2777421256
0.2777393425
0.2777368313
0.2777345648
0.2777325814
0.2777309095
0.2777294437
0.2777282049
0.2777272978
0.2777174787
0.2777215387
0.2777243381
0.2777259742
0.2777266977
0.2777268743
0.2777266188
0.2777261865
0.2777256526
0.27772505
0.2777244251
0.2777238932
0.2777233693
0.2777229671
0.2777093531
0.2777112952
0.2777131004
0.2777146577
0.2777159332
0.2777169473
0.2777177503
0.2777183017
0.2777187475
0.2777190957
0.277719335
0.2777195054
0.2777196015
0.277719656
0.2777067443
0.277707652
0.2777087244
0.2777098524
0.2777109319
0.2777119843
0.2777129546
0.2777138506
0.2777146618
0.2777153462
0.2777159498
0.2777164597
0.2777169225
0.2777172101
0.277705778
0.2777062049
0.2777068141
0.2777075477
0.2777083524
0.2777092248
0.2777101436
0.2777110429
0.2777118689
0.2777126494
0.2777133959
0.2777140603
0.2777146464
0.2777151403
0.2777155069
0.2777054019
0.2777063293
0.2777074525
0.2777086995
0.2777099072
0.277711053
0.2777120819
0.2777129499
0.2777137024
0.2777143426
0.2777149099
0.2777153685
0.2777157462
0.2777160824
0.2777163664
0.2777060698
0.2777083693
0.2777108105
0.2777130071
0.2777147933
0.2777161651
0.2777171217
0.2777177948
0.2777181857
0.2777184066
0.2777184899
0.2777185177
0.2777184767
0.2777184138
0.2777183246
0.2777121791
0.2777171717
0.2777212045
0.2777239186
0.2777255214
0.2777263041
0.2777264273
0.2777261887
0.277725805
0.2777251974
0.2777245767
0.2777240172
0.2777234363
0.2777229234
0.2777225458
0.2777211636
0.2777283469
0.2777323402
0.2777340413
0.2777343437
0.2777337844
0.2777328626
0.2777317403
0.2777305727
0.277729472
0.2777284389
0.2777274579
0.2777265936
0.2777258943
0.2777253513
0.277712386
0.277717361
0.2777214162
0.2777242083
0.2777258738
0.2777266157
0.2777267967
0.2777265633
0.2777261187
0.2777255276
0.2777249261
0.2777243513
0.2777237818
0.2777232786
0.2777228967
0.2777074464
0.2777097268
0.2777121788
0.2777143916
0.2777161971
0.2777175667
0.2777185289
0.2777191772
0.2777195744
0.2777198047
0.2777198909
0.2777198927
0.2777198639
0.2777198023
0.2777197183
0.2777067184
0.2777078795
0.277709116
0.2777103843
0.2777115384
0.2777125716
0.277713429
0.2777141896
0.2777148299
0.2777153739
0.2777158138
0.277716196
0.2777165324
0.2777167496
0.2777052734
0.2777058615
0.2777066439
0.2777074489
0.2777083086
0.2777092199
0.2777101092
0.277710964
0.2777117085
0.2777124335
0.2777130711
0.2777136328
0.2777141327
0.277714494
0.2777038627
0.2777040824
0.2777044597
0.2777049284
0.2777054448
0.2777060681
0.2777067256
0.2777074883
0.2777082441
0.2777089903
0.2777097268
0.2777104009
0.2777110505
0.2777116387
0.2777121025
0.2777056612
0.2777061052
0.2777067025
0.2777074273
0.2777082629
0.2777091177
0.2777099446
0.2777107476
0.2777115403
0.2777122575
0.2777128914
0.2777135567
0.2777140987
0.2777146359
0.2777149785
0.2777061907
0.2777071232
0.2777082414
0.2777094575
0.2777106717
0.2777118115
0.277712852
0.2777137439
0.2777144968
0.2777151545
0.2777157114
0.2777162067
0.2777165819
0.2777168545
0.2777171124
0.2777067766
0.2777084988
0.2777103867
0.2777121847
0.2777137649
0.2777151139
0.2777161053
0.2777168855
0.2777175313
0.2777178964
0.2777182338
0.2777184417
0.2777185863
0.2777186878
0.2777187238
0.2777080098
0.2777104393
0.2777127006
0.2777146284
0.2777161526
0.2777173249
0.2777181886
0.2777187519
0.2777191827
0.2777194374
0.2777196093
0.2777196873
0.2777196893
0.2777196669
0.2777196685
0.2777069479
0.277708693
0.2777105819
0.2777123497
0.2777138987
0.2777151943
0.2777162522
0.2777170218
0.2777175656
0.2777179935
0.2777183172
0.2777185341
0.2777186657
0.2777187947
0.2777188732
0.2777055397
0.2777064417
0.277707587
0.2777088264
0.2777100736
0.2777111991
0.2777122077
0.2777130612
0.2777138828
0.2777145563
0.2777151727
0.2777156313
0.2777160545
0.2777163995
0.2777166738
0.277705151
0.2777055923
0.2777062033
0.2777069551
0.2777077198
0.2777085833
0.2777094326
0.277710269
0.2777110734
0.2777117934
0.277712493
0.2777131071
0.2777136325
0.2777141204
0.2777144893
0.2777045107
0.2777048449
0.2777052549
0.2777057938
0.2777064358
0.2777071108
0.2777078487
0.2777085614
0.2777093251
0.2777100247
0.2777107322
0.2777113891
0.277711968
0.2777124468
0.277705314
0.2777054425
0.2777056507
0.2777059446
0.2777063509
0.2777067925
0.2777073613
0.2777079852
0.2777086241
0.2777092524
0.2777099521
0.2777106639
0.2777113438
0.2777119622
0.2777124638
0.2777046794
0.2777049026
0.2777052396
0.2777056801
0.2777062457
0.2777068834
0.2777075788
0.2777083192
0.277709061
0.2777097928
0.2777104909
0.2777111718
0.2777118267
0.2777124165
0.2777128612
0.2777057036
0.2777061307
0.2777067111
0.2777074486
0.2777082799
0.2777091827
0.2777100747
0.2777109443
0.2777117551
0.2777125316
0.2777132654
0.2777138889
0.2777144742
0.2777149682
0.277715342
0.2777046228
0.2777053015
0.2777062439
0.2777073163
0.2777084685
0.2777095959
0.2777106337
0.2777115812
0.2777124842
0.2777132592
0.2777139416
0.2777145199
0.2777150432
0.2777154582
0.2777157644
0.2777058909
0.2777067583
0.2777078826
0.2777090786
0.2777103121
0.2777114662
0.2777125388
0.277713484
0.2777143298
0.2777150689
0.2777157204
0.2777162602
0.2777167118
0.2777170389
0.2777173155
0.2777039328
0.2777046142
0.2777055605
0.2777066353
0.2777077668
0.2777088639
0.2777099581
0.2777108886
0.2777117712
0.277712531
0.2777132222
0.277713813
0.2777142862
0.2777147423
0.2777150655
0.2777051314
0.2777055913
0.2777061417
0.2777068696
0.2777076916
0.2777085939
0.2777094628
0.2777103842
0.2777112291
0.2777119727
0.2777126954
0.2777133393
0.2777139059
0.2777143874
0.2777147222
0.277705691
0.2777059246
0.2777062815
0.2777067206
0.2777072767
0.2777078853
0.2777085641
0.2777093065
0.277710045
0.277710751
0.2777114474
0.2777121253
0.2777127737
0.2777133738
0.2777138461
0.2777050616
0.2777051735
0.2777053869
0.2777056726
0.2777060463
0.277706499
0.2777070369
0.2777076675
0.2777083246
0.2777089695
0.2777096513
0.2777103563
0.2777110127
0.2777116305
0.277712101
)
;

boundaryField
{
    top
    {
        type            calculated;
        value           nonuniform List<scalar> 
127
(
0.2777050616
0.2777048615
0.2777045769
0.2777063558
0.2777057907
0.2777071707
0.2777067443
0.2777052734
0.2777045107
0.2777051735
0.2777050825
0.2777049297
0.2777069406
0.2777067037
0.2777082836
0.277707652
0.2777058615
0.2777048449
0.2777053869
0.2777053909
0.2777053425
0.2777076682
0.2777077805
0.2777094698
0.2777087244
0.2777066439
0.2777052549
0.2777056726
0.2777057748
0.2777058283
0.2777085135
0.2777088903
0.2777106509
0.2777098524
0.2777074489
0.2777057938
0.2777060463
0.2777062407
0.277706463
0.2777093846
0.2777099814
0.2777118347
0.2777109319
0.2777083086
0.2777064358
0.277706499
0.2777067911
0.2777071296
0.2777103342
0.2777110063
0.2777129439
0.2777119843
0.2777092199
0.2777071108
0.2777070369
0.2777074004
0.2777078763
0.277711234
0.2777119838
0.2777139393
0.2777129546
0.2777101092
0.2777078487
0.2777076675
0.2777080368
0.2777085896
0.2777120529
0.2777128093
0.2777148157
0.2777138506
0.277710964
0.2777085614
0.2777083246
0.2777087216
0.2777093317
0.2777128093
0.2777136221
0.2777155176
0.2777146618
0.2777117085
0.2777093251
0.2777089695
0.2777093802
0.2777100357
0.2777135529
0.2777142946
0.2777161618
0.2777153462
0.2777124335
0.2777100247
0.2777096513
0.2777100385
0.2777107637
0.2777142458
0.2777148818
0.2777166759
0.2777159498
0.2777130711
0.2777107322
0.2777103563
0.2777107215
0.2777113765
0.277714818
0.2777153582
0.2777171302
0.2777164597
0.2777136328
0.2777113891
0.2777110127
0.2777113446
0.277711975
0.2777153391
0.2777157616
0.277717477
0.2777169225
0.2777141327
0.277711968
0.2777116305
0.27771183
0.2777124487
0.2777156887
0.2777160683
0.2777177317
0.2777172101
0.277714494
0.2777124468
0.277712101
)
;
    }
    bottom
    {
        type            calculated;
        value           nonuniform List<scalar> 
134
(
0.2777051981
0.2777047999
0.2777062203
0.2777052808
0.2777063382
0.277705778
0.2777038627
0.277705314
0.2777050834
0.277705444
0.2777052074
0.2777069308
0.27770621
0.2777070809
0.2777062049
0.2777040824
0.2777054425
0.2777053227
0.2777057409
0.2777058149
0.2777078267
0.2777073376
0.2777080291
0.2777068141
0.2777044597
0.2777056507
0.2777055936
0.2777061458
0.2777065986
0.2777088421
0.2777085503
0.2777090771
0.2777075477
0.2777049284
0.2777059446
0.2777059777
0.2777066908
0.2777074395
0.2777099783
0.2777097789
0.2777102001
0.2777083524
0.2777054448
0.2777063509
0.2777064534
0.2777073097
0.2777083354
0.2777110691
0.2777109552
0.277711338
0.2777092248
0.2777060681
0.2777067925
0.2777069962
0.2777079807
0.2777092231
0.2777121264
0.2777120086
0.2777123893
0.2777101436
0.2777067256
0.2777073613
0.2777075926
0.2777087368
0.277710103
0.2777130495
0.2777129718
0.2777133601
0.2777110429
0.2777074883
0.2777079852
0.2777082318
0.2777094357
0.277710949
0.2777139215
0.2777138537
0.2777142409
0.2777118689
0.2777082441
0.2777086241
0.2777088998
0.2777101517
0.2777117326
0.2777147164
0.277714597
0.2777150007
0.2777126494
0.2777089903
0.2777092524
0.2777095976
0.2777108867
0.2777124634
0.277715403
0.2777152408
0.2777156386
0.2777133959
0.2777097268
0.2777099521
0.2777103152
0.2777115413
0.277713077
0.2777159563
0.2777157511
0.277716242
0.2777140603
0.2777104009
0.2777106639
0.2777109842
0.2777121989
0.2777136501
0.2777164248
0.2777162409
0.2777167715
0.2777146464
0.2777110505
0.2777113438
0.2777115894
0.27771277
0.2777141774
0.2777168382
0.2777166339
0.2777171791
0.2777151403
0.2777116387
0.2777119622
0.2777120464
0.2777132356
0.2777145593
0.2777171617
0.2777168709
0.2777174771
0.2777155069
0.2777121025
0.2777124638
)
;
    }
    side-walls
    {
        type            calculated;
        value           nonuniform List<scalar> 
261
(
0.2777050834
0.2777049813
0.2777059511
0.2777054523
0.2777060315
0.2777076243
0.2777063648
0.2777051753
0.2777048615
0.2777053227
0.2777053283
0.2777065456
0.2777063501
0.2777071691
0.2777085231
0.2777070001
0.2777055294
0.2777050825
0.2777055936
0.2777057707
0.277707312
0.2777074138
0.2777083658
0.2777095823
0.2777077189
0.2777059877
0.2777053909
0.2777059777
0.277706307
0.2777081556
0.277708541
0.2777095631
0.2777107368
0.2777085424
0.2777065284
0.2777057748
0.2777064534
0.2777069297
0.2777090321
0.2777096764
0.2777107109
0.2777118586
0.2777094193
0.2777071284
0.2777062407
0.2777069962
0.2777076297
0.2777099421
0.2777107121
0.2777118261
0.2777128959
0.2777103134
0.2777078394
0.2777067911
0.2777075926
0.2777083524
0.2777107958
0.2777116988
0.2777127601
0.2777138563
0.2777111701
0.2777085756
0.2777074004
0.2777082318
0.2777090863
0.2777116289
0.2777125803
0.2777136151
0.2777147498
0.2777120303
0.2777093024
0.2777080368
0.2777088998
0.2777098009
0.2777124254
0.2777133377
0.2777143877
0.2777154767
0.2777127748
0.2777100395
0.2777087216
0.2777095976
0.2777105265
0.2777131718
0.2777139829
0.2777150282
0.277716153
0.2777135014
0.2777107525
0.2777093802
0.2777103152
0.2777112237
0.2777138258
0.2777145911
0.2777155685
0.2777167604
0.2777141457
0.2777114186
0.2777100385
0.2777109842
0.277711893
0.2777144317
0.2777150821
0.2777160366
0.2777172422
0.277714737
0.27771205
0.2777107215
0.2777115894
0.2777124889
0.2777149686
0.2777154996
0.2777164056
0.277717662
0.277715217
0.2777126322
0.2777113446
0.2777120464
0.2777129641
0.2777153609
0.2777157988
0.2777167099
0.277717953
0.277715606
0.2777130564
0.27771183
0.277705314
0.2777046794
0.2777057036
0.2777046228
0.2777058909
0.2777039328
0.2777051314
0.277705691
0.2777050616
0.2777054425
0.2777049026
0.2777061307
0.2777053015
0.2777067583
0.2777046142
0.2777055913
0.2777059246
0.2777051735
0.2777056507
0.2777052396
0.2777067111
0.2777062439
0.2777078826
0.2777055605
0.2777061417
0.2777062815
0.2777053869
0.2777059446
0.2777056801
0.2777074486
0.2777073163
0.2777090786
0.2777066353
0.2777068696
0.2777067206
0.2777056726
0.2777063509
0.2777062457
0.2777082799
0.2777084685
0.2777103121
0.2777077668
0.2777076916
0.2777072767
0.2777060463
0.2777067925
0.2777068834
0.2777091827
0.2777095959
0.2777114662
0.2777088639
0.2777085939
0.2777078853
0.277706499
0.2777073613
0.2777075788
0.2777100747
0.2777106337
0.2777125388
0.2777099581
0.2777094628
0.2777085641
0.2777070369
0.2777079852
0.2777083192
0.2777109443
0.2777115812
0.277713484
0.2777108886
0.2777103842
0.2777093065
0.2777076675
0.2777086241
0.277709061
0.2777117551
0.2777124842
0.2777143298
0.2777117712
0.2777112291
0.277710045
0.2777083246
0.2777092524
0.2777097928
0.2777125316
0.2777132592
0.2777150689
0.277712531
0.2777119727
0.277710751
0.2777089695
0.2777099521
0.2777104909
0.2777132654
0.2777139416
0.2777157204
0.2777132222
0.2777126954
0.2777114474
0.2777096513
0.2777106639
0.2777111718
0.2777138889
0.2777145199
0.2777162602
0.277713813
0.2777133393
0.2777121253
0.2777103563
0.2777113438
0.2777118267
0.2777144742
0.2777150432
0.2777167118
0.2777142862
0.2777139059
0.2777127737
0.2777110127
0.2777119622
0.2777124165
0.2777149682
0.2777154582
0.2777170389
0.2777147423
0.2777143874
0.2777133738
0.2777116305
0.2777124638
0.2777128612
0.277715342
0.2777157644
0.2777173155
0.2777150655
0.2777147222
0.2777138461
0.277712101
)
;
    }
    inlet
    {
        type            calculated;
        value           nonuniform 0();
    }
    outlet
    {
        type            calculated;
        value           nonuniform List<scalar> 
81
(
0.2777120464
0.2777129641
0.2777153609
0.2777157988
0.2777167099
0.277717953
0.277715606
0.2777130564
0.27771183
0.2777132356
0.2777130224
0.2777157753
0.2777193299
0.2777193128
0.2777178599
0.2777151165
0.2777155845
0.2777124487
0.2777145593
0.2777178838
0.2777208202
0.2777234133
0.2777228837
0.277724172
0.2777202391
0.2777165391
0.2777156887
0.2777171617
0.2777189335
0.2777240627
0.2777267189
0.2777288298
0.2777265485
0.2777229558
0.2777187316
0.2777160683
0.2777168709
0.2777203672
0.2777219687
0.2777279349
0.2786283389
0.2777278795
0.2777243371
0.2777202157
0.2777177317
0.2777174771
0.277720179
0.2777235124
0.2777271034
0.2777284042
0.2777272978
0.2777229671
0.277719656
0.2777172101
0.2777155069
0.2777163664
0.2777183246
0.2777225458
0.2777253513
0.2777228967
0.2777197183
0.2777167496
0.277714494
0.2777121025
0.2777149785
0.2777171124
0.2777187238
0.2777196685
0.2777188732
0.2777166738
0.2777144893
0.2777124468
0.2777124638
0.2777128612
0.277715342
0.2777157644
0.2777173155
0.2777150655
0.2777147222
0.2777138461
0.277712101
)
;
    }
    procBoundary1to0
    {
        type            processor;
        value           nonuniform List<scalar> 
97
(
0.2777049575
0.2777049575
0.2777047827
0.2777055581
0.2777047039
0.277705099
0.2777069196
0.2777059379
0.2777049441
0.2777047345
0.2777050881
0.2777036628
0.2777036628
0.2777036628
0.2777048301
0.2777071919
0.2777076865
0.2777058777
0.2777040687
0.2777061028
0.2777043631
0.2777045177
0.2777062027
0.2777086241
0.2777086241
0.2777086241
0.2777129242
0.2777185322
0.2777138545
0.2777080446
0.2777056233
0.2777059787
0.2777057446
0.2777055374
0.2777090999
0.2777311528
0.2777311528
0.2777311528
0.2777832026
0.2777308592
0.2777126654
0.2777068613
0.2777050462
0.2777047445
0.2777066283
0.277707932
0.2777252946
0.2791015502
0.2791015502
0.2791015502
0.2777826043
0.2777826043
0.2777199789
0.2777085214
0.2777062823
0.2777058693
0.2777067838
0.2777084757
0.2777143884
0.2777258817
0.277714687
0.2777125114
0.2777125114
0.2777125114
0.277707635
0.2777060211
0.2777054968
0.2777047727
0.2777043821
0.2777076325
0.2777115972
0.2777077413
0.2777057465
0.2777057733
0.2777057733
0.2777057733
0.2777048057
0.2777037002
0.2777054092
0.2777056288
0.2777054234
0.2777060034
0.2777056579
0.2777049229
0.2777049031
0.2777042549
0.2777042549
0.2777042549
0.2777052188
0.2777045493
0.2777054064
0.2777041648
0.2777053226
0.2777034517
0.2777049256
0.2777055829
0.2777049745
)
;
    }
}


// ************************************************************************* //
