/*--------------------------------*- C++ -*----------------------------------*\
| =========                 |                                                 |
| \\      /  F ield         | OpenFOAM: The Open Source CFD Toolbox           |
|  \\    /   O peration     | Version:  4.x                                   |
|   \\  /    A nd           | Web:      www.OpenFOAM.org                      |
|    \\/     M anipulation  |                                                 |
\*---------------------------------------------------------------------------*/
FoamFile
{
    version     2.0;
    format      ascii;
    class       volScalarField;
    location    "8000";
    object      T;
}
// * * * * * * * * * * * * * * * * * * * * * * * * * * * * * * * * * * * * * //

dimensions      [0 0 0 1 0 0 0];

internalField   nonuniform List<scalar> 
1174
(
1223.150181
1223.150192
1223.150501
1223.150766
1223.151059
1223.151435
1223.151878
1223.152353
1223.152834
1223.153238
1223.153536
1223.153951
1223.154412
1223.154852
1223.151629
1223.151805
1223.152123
1223.152534
1223.152975
1223.15337
1223.153842
1223.154334
1223.15489
1223.155306
1223.155701
1223.156017
1223.156352
1223.15654
1223.149561
1223.149949
1223.150287
1223.150781
1223.151398
1223.151933
1223.152622
1223.153194
1223.153647
1223.154004
1223.154434
1223.154734
1223.15495
1223.155151
1223.154981
1223.15569
1223.156349
1223.157016
1223.15761
1223.158373
1223.158939
1223.159479
1223.160058
1223.160634
1223.160906
1223.161263
1223.161518
1223.161713
1223.154727
1223.155288
1223.156083
1223.156943
1223.15778
1223.158324
1223.159124
1223.15969
1223.160044
1223.160436
1223.160774
1223.160984
1223.161208
1223.161181
1223.145415
1223.146119
1223.146798
1223.147345
1223.147999
1223.148755
1223.149436
1223.149924
1223.150637
1223.151076
1223.151351
1223.151749
1223.151994
1223.152226
1223.147739
1223.147947
1223.148495
1223.149077
1223.149693
1223.150298
1223.150974
1223.151425
1223.152108
1223.152552
1223.153025
1223.15339
1223.153856
1223.154072
1223.150775
1223.150919
1223.151167
1223.151559
1223.1521
1223.152447
1223.152859
1223.153382
1223.153839
1223.154311
1223.154842
1223.155326
1223.155721
1223.156134
1223.151158
1223.15125
1223.151394
1223.15166
1223.151996
1223.152338
1223.152725
1223.153211
1223.153619
1223.154196
1223.154755
1223.155108
1223.15549
1223.155806
1223.149521
1223.149591
1223.149988
1223.150471
1223.150843
1223.151302
1223.151825
1223.152149
1223.152795
1223.153345
1223.15372
1223.154302
1223.15467
1223.155114
1223.155345
1223.157743
1223.158215
1223.158516
1223.158768
1223.15933
1223.159778
1223.160543
1223.161007
1223.1614
1223.161923
1223.162456
1223.16281
1223.163166
1223.163482
1223.156123
1223.156944
1223.157729
1223.158506
1223.159293
1223.159907
1223.160392
1223.160923
1223.161352
1223.161692
1223.162123
1223.162239
1223.162532
1223.16296
1223.151826
1223.153019
1223.154287
1223.15507
1223.156033
1223.156588
1223.157194
1223.157565
1223.157816
1223.158147
1223.158048
1223.158092
1223.158157
1223.158153
1223.156502
1223.157976
1223.159223
1223.160359
1223.161247
1223.161832
1223.162308
1223.162506
1223.162649
1223.162626
1223.162595
1223.162543
1223.162614
1223.162708
1223.157884
1223.158962
1223.160239
1223.161382
1223.162231
1223.162977
1223.163347
1223.163746
1223.163988
1223.164194
1223.164383
1223.16448
1223.164481
1223.164627
1223.159324
1223.160101
1223.161072
1223.161876
1223.162466
1223.16322
1223.163711
1223.164271
1223.164669
1223.165145
1223.165448
1223.165645
1223.165687
1223.165862
1223.146986
1223.147279
1223.147667
1223.147889
1223.148449
1223.149051
1223.149619
1223.150092
1223.15063
1223.150927
1223.151479
1223.151597
1223.152011
1223.152198
1223.15341
1223.153561
1223.154009
1223.154642
1223.155031
1223.155573
1223.155939
1223.156521
1223.156957
1223.157468
1223.157727
1223.158292
1223.158616
1223.15881
1223.152466
1223.152837
1223.153167
1223.153429
1223.153935
1223.154467
1223.1551
1223.155674
1223.156188
1223.156698
1223.157124
1223.157732
1223.158177
1223.158434
1223.158681
1223.146707
1223.147276
1223.147917
1223.148793
1223.149516
1223.150444
1223.15138
1223.15193
1223.152457
1223.152823
1223.153201
1223.153462
1223.153628
1223.153891
1223.153674
1223.149913
1223.151477
1223.153068
1223.154114
1223.155069
1223.155692
1223.156138
1223.156574
1223.156485
1223.156321
1223.1564
1223.156432
1223.156421
1223.156408
1223.15647
1223.159068
1223.160935
1223.161961
1223.162377
1223.162725
1223.162471
1223.161969
1223.161615
1223.161375
1223.160971
1223.160536
1223.160092
1223.1598
1223.170186
1223.172833
1223.17408
1223.174256
1223.173859
1223.173285
1223.172238
1223.171497
1223.170884
1223.170153
1223.169532
1223.169029
1223.1685
1223.168306
1223.152395
1223.155113
1223.156966
1223.158046
1223.158592
1223.158797
1223.158756
1223.15848
1223.158079
1223.158028
1223.157595
1223.157151
1223.156873
1223.156458
1223.152516
1223.154136
1223.155516
1223.156491
1223.15746
1223.15805
1223.158596
1223.15875
1223.158894
1223.159013
1223.159027
1223.15913
1223.159121
1223.158968
1223.152907
1223.153741
1223.154485
1223.155273
1223.155963
1223.156818
1223.157338
1223.157718
1223.158134
1223.158497
1223.158974
1223.159194
1223.159565
1223.159597
1223.147779
1223.148209
1223.148718
1223.149204
1223.149846
1223.150206
1223.150692
1223.151326
1223.151956
1223.152325
1223.152584
1223.153033
1223.153318
1223.153707
1223.147995
1223.148469
1223.149187
1223.150058
1223.150686
1223.151476
1223.152144
1223.152989
1223.153572
1223.153986
1223.154379
1223.154893
1223.155349
1223.155622
1223.15571
1223.152495
1223.153615
1223.154701
1223.155903
1223.156777
1223.157505
1223.15816
1223.158598
1223.159115
1223.159441
1223.159591
1223.159835
1223.159839
1223.159912
1223.159899
1223.149436
1223.1528
1223.1556
1223.157454
1223.158623
1223.159005
1223.159049
1223.158884
1223.158565
1223.158212
1223.157781
1223.157577
1223.157265
1223.156989
1223.15694
1223.174073
1223.177351
1223.177875
1223.176837
1223.175307
1223.173505
1223.171846
1223.170074
1223.168639
1223.1674
1223.166258
1223.165329
1223.16463
1223.163965
1223.205016
1223.200679
1223.19411
1223.187915
1223.182669
1223.178391
1223.174757
1223.171838
1223.169573
1223.167437
1223.165803
1223.164619
1223.163385
1223.162533
1223.175306
1223.17877
1223.179141
1223.177986
1223.176293
1223.174337
1223.172584
1223.17099
1223.169505
1223.168285
1223.167227
1223.166169
1223.16527
1223.164716
1223.157371
1223.160179
1223.162089
1223.163289
1223.16372
1223.163919
1223.163777
1223.163666
1223.163405
1223.16298
1223.162551
1223.162268
1223.161983
1223.161815
1223.153659
1223.155206
1223.156407
1223.157549
1223.15834
1223.159082
1223.159802
1223.160115
1223.160418
1223.160584
1223.160837
1223.160878
1223.160876
1223.160788
1223.153491
1223.154133
1223.154734
1223.155478
1223.156267
1223.157078
1223.157683
1223.158471
1223.158805
1223.159261
1223.159626
1223.160047
1223.160364
1223.160526
1223.15347
1223.153942
1223.154545
1223.15527
1223.155993
1223.156704
1223.15752
1223.158191
1223.15864
1223.159122
1223.1595
1223.15997
1223.160085
1223.160202
1223.160471
1223.150574
1223.15213
1223.153686
1223.155281
1223.156202
1223.156863
1223.157425
1223.157853
1223.158189
1223.158256
1223.158264
1223.158244
1223.15829
1223.158066
1223.158064
1223.169851
1223.174559
1223.177133
1223.178084
1223.178412
1223.178072
1223.177411
1223.17655
1223.175799
1223.174984
1223.174481
1223.17368
1223.173171
1223.17274
1223.172336
1223.20246
1223.208169
1223.203798
1223.197281
1223.191208
1223.185807
1223.181759
1223.178168
1223.175446
1223.173273
1223.171281
1223.169696
1223.168326
1223.167318
1223.166475
1219.431299
1219.359209
1219.318014
1219.292971
1219.276485
1219.265015
1219.256217
1219.249255
1219.243377
1219.238105
1219.233782
1219.229595
1219.225701
1219.222339
1223.20768
1223.203378
1223.197054
1223.191028
1223.185716
1223.181349
1223.177863
1223.175182
1223.172878
1223.170902
1223.169502
1223.168156
1223.167383
1223.166719
1223.163688
1223.166273
1223.16744
1223.167699
1223.167219
1223.166596
1223.165993
1223.165363
1223.164762
1223.164013
1223.163294
1223.162709
1223.162359
1223.161905
1223.152729
1223.154167
1223.15535
1223.156382
1223.1571
1223.157618
1223.157981
1223.158375
1223.158545
1223.158766
1223.15866
1223.158835
1223.158728
1223.158731
1223.14971
1223.150379
1223.15122
1223.152152
1223.152831
1223.153401
1223.15393
1223.154403
1223.155067
1223.155444
1223.155897
1223.156168
1223.156489
1223.15668
1223.147476
1223.147808
1223.148295
1223.149023
1223.149709
1223.150292
1223.150986
1223.151621
1223.152165
1223.152733
1223.153341
1223.153635
1223.153822
1223.154121
1223.154321
1223.147071
1223.148102
1223.149305
1223.150423
1223.151465
1223.152206
1223.152966
1223.153306
1223.153713
1223.153958
1223.154267
1223.154355
1223.154236
1223.154435
1223.154413
1223.152592
1223.155692
1223.158408
1223.160126
1223.161231
1223.161719
1223.161765
1223.161672
1223.161332
1223.160782
1223.160635
1223.160345
1223.159947
1223.159578
1223.159364
1223.165511
1223.172929
1223.176226
1223.176555
1223.175517
1223.173783
1223.17194
1223.170307
1223.168679
1223.16714
1223.165852
1223.164702
1223.163671
1223.162932
1223.162272
1223.199824
1223.205347
1223.201238
1223.194773
1223.188454
1223.183327
1223.179079
1223.175614
1223.172827
1223.170526
1223.168666
1223.167121
1223.165937
1223.164917
1223.164408
1223.164303
1223.171829
1223.175152
1223.175585
1223.174688
1223.172989
1223.171176
1223.169481
1223.167724
1223.166301
1223.165055
1223.163764
1223.162776
1223.161982
1223.161416
1223.158099
1223.160717
1223.162469
1223.163527
1223.164175
1223.164195
1223.164198
1223.163867
1223.163416
1223.163053
1223.162792
1223.162264
1223.161978
1223.161765
1223.150286
1223.151334
1223.152494
1223.153574
1223.154493
1223.155198
1223.155634
1223.156187
1223.156417
1223.156469
1223.156536
1223.15656
1223.156652
1223.156717
1223.149291
1223.149956
1223.150576
1223.15124
1223.15208
1223.15277
1223.153407
1223.153884
1223.154226
1223.154629
1223.154922
1223.155195
1223.155251
1223.155498
1223.148158
1223.148443
1223.148766
1223.149249
1223.149914
1223.150549
1223.151046
1223.151534
1223.152136
1223.15266
1223.153017
1223.153401
1223.153788
1223.154193
1223.154508
1223.152988
1223.153586
1223.154426
1223.155211
1223.156128
1223.156914
1223.157615
1223.158358
1223.158953
1223.159442
1223.159727
1223.160044
1223.160334
1223.160457
1223.160357
1223.159746
1223.161251
1223.162673
1223.163993
1223.165115
1223.165895
1223.166543
1223.166835
1223.16714
1223.167297
1223.167431
1223.167388
1223.167383
1223.167332
1223.1674
1223.156346
1223.159451
1223.162188
1223.164316
1223.165521
1223.165909
1223.166164
1223.166092
1223.165547
1223.165421
1223.165138
1223.164588
1223.164276
1223.163941
1223.163621
1223.153939
1223.158556
1223.161291
1223.16244
1223.162533
1223.162384
1223.16179
1223.161218
1223.160651
1223.15996
1223.159326
1223.158901
1223.158442
1223.157816
1223.157438
1223.155435
1223.158617
1223.161256
1223.16304
1223.163969
1223.164536
1223.164537
1223.164442
1223.164165
1223.163967
1223.163599
1223.163117
1223.162755
1223.162377
1223.162075
1223.153683
1223.155272
1223.156646
1223.157895
1223.158932
1223.159722
1223.160346
1223.160747
1223.161024
1223.161139
1223.16126
1223.161332
1223.161273
1223.161217
1223.161261
1223.151872
1223.152545
1223.153376
1223.154026
1223.154776
1223.155459
1223.156247
1223.156807
1223.157296
1223.157684
1223.158083
1223.158353
1223.158475
1223.15867
1223.152546
1223.152962
1223.15323
1223.153893
1223.154585
1223.155114
1223.155646
1223.156122
1223.156805
1223.157256
1223.157758
1223.158253
1223.158631
1223.158969
1223.155403
1223.155588
1223.155631
1223.155832
1223.156332
1223.15677
1223.157353
1223.157648
1223.158043
1223.15846
1223.158829
1223.159325
1223.159728
1223.160097
1223.160335
1223.148703
1223.148926
1223.149281
1223.149723
1223.150106
1223.150613
1223.151268
1223.151916
1223.152408
1223.152977
1223.153632
1223.153859
1223.154333
1223.15448
1223.154867
1223.149514
1223.150089
1223.150951
1223.151872
1223.152761
1223.153573
1223.154224
1223.154861
1223.155454
1223.155866
1223.156198
1223.156352
1223.156653
1223.157056
1223.157072
1223.152782
1223.154048
1223.155336
1223.156527
1223.157506
1223.158102
1223.158907
1223.159442
1223.15958
1223.160166
1223.160264
1223.16047
1223.160608
1223.160676
1223.160822
1223.153441
1223.154934
1223.156513
1223.157773
1223.158778
1223.159458
1223.159929
1223.160475
1223.160647
1223.160872
1223.16093
1223.161016
1223.161165
1223.161244
1223.161141
1223.152027
1223.153193
1223.154476
1223.1558
1223.156917
1223.157747
1223.15826
1223.158842
1223.159429
1223.159739
1223.159897
1223.160063
1223.160258
1223.160205
1223.160165
1223.152381
1223.153091
1223.153833
1223.154652
1223.155395
1223.15627
1223.157061
1223.157868
1223.158158
1223.158501
1223.15857
1223.158886
1223.158977
1223.15906
1223.159004
1223.15095
1223.151185
1223.15148
1223.151803
1223.152498
1223.152967
1223.153523
1223.154024
1223.154465
1223.155021
1223.155387
1223.15584
1223.156386
1223.15675
1223.157022
1223.153702
1223.153934
1223.154394
1223.154795
1223.155151
1223.155656
1223.156061
1223.156646
1223.156986
1223.157517
1223.157866
1223.158237
1223.158647
1223.158819
1223.148478
1223.148599
1223.148747
1223.148955
1223.149122
1223.149566
1223.149827
1223.150149
1223.150625
1223.151281
1223.151677
1223.152
1223.152367
1223.15277
1223.153014
1223.151806
1223.151975
1223.152196
1223.152521
1223.152804
1223.15318
1223.153595
1223.153988
1223.154445
1223.154926
1223.155463
1223.15593
1223.156309
1223.156671
1223.156994
1223.148485
1223.14877
1223.14922
1223.149685
1223.150233
1223.150735
1223.151349
1223.151968
1223.152638
1223.153179
1223.153591
1223.154156
1223.154547
1223.154951
1223.155234
1223.155031
1223.155646
1223.156158
1223.156778
1223.157336
1223.157965
1223.158719
1223.159456
1223.159903
1223.160404
1223.160815
1223.16122
1223.161434
1223.1617
1223.161865
1223.150783
1223.151526
1223.152145
1223.152944
1223.153644
1223.154453
1223.155185
1223.155935
1223.156542
1223.157043
1223.157388
1223.157728
1223.158011
1223.158419
1223.158513
1223.158071
1223.158673
1223.159168
1223.159778
1223.160426
1223.161189
1223.161694
1223.162507
1223.163043
1223.163611
1223.163984
1223.164333
1223.164768
1223.164854
1223.164943
1223.151006
1223.151146
1223.151728
1223.152235
1223.152824
1223.153328
1223.154044
1223.154435
1223.154954
1223.155641
1223.156102
1223.156577
1223.15705
1223.15751
1223.157964
1223.14735
1223.147474
1223.147607
1223.147939
1223.148263
1223.148767
1223.149255
1223.14964
1223.150111
1223.150705
1223.151251
1223.15173
1223.152138
1223.152455
1223.152656
1223.14959
1223.149784
1223.149909
1223.150153
1223.150464
1223.150858
1223.151256
1223.151549
1223.151944
1223.152527
1223.153002
1223.153355
1223.153826
1223.154231
1223.154612
)
;

boundaryField
{
    top
    {
        type            zeroGradient;
    }
    bottom
    {
        type            zeroGradient;
    }
    side-walls
    {
        type            zeroGradient;
    }
    inlet
    {
        type            zeroGradient;
    }
    outlet
    {
        type            zeroGradient;
    }
    procBoundary1to0
    {
        type            processor;
        value           nonuniform List<scalar> 
97
(
1223.150049
1223.150049
1223.151351
1223.149127
1223.154674
1223.154271
1223.144915
1223.147454
1223.15064
1223.151031
1223.149323
1223.157505
1223.157505
1223.157505
1223.155507
1223.150952
1223.154865
1223.156741
1223.158861
1223.146758
1223.153199
1223.152376
1223.146349
1223.148496
1223.148496
1223.148496
1223.153065
1223.165529
1223.148967
1223.151048
1223.152013
1223.147274
1223.147762
1223.151735
1223.146731
1223.166486
1223.166486
1223.166486
1223.199424
1223.167779
1223.154205
1223.152408
1223.153166
1223.15273
1223.149243
1223.16372
1223.167133
1219.562579
1219.562579
1219.562579
1223.202059
1223.202059
1223.159157
1223.151188
1223.149059
1223.147213
1223.146245
1223.149481
1223.154449
1223.164547
1223.153133
1223.154883
1223.154883
1223.154883
1223.149001
1223.148873
1223.148063
1223.152648
1223.15845
1223.153194
1223.147577
1223.152715
1223.15244
1223.151353
1223.151353
1223.151353
1223.15244
1223.155436
1223.14846
1223.148877
1223.152237
1223.151995
1223.151204
1223.151986
1223.150689
1223.153676
1223.153676
1223.153676
1223.148503
1223.151696
1223.148462
1223.15472
1223.150184
1223.157861
1223.150579
1223.147144
1223.149579
)
;
    }
}


// ************************************************************************* //
