/*--------------------------------*- C++ -*----------------------------------*\
| =========                 |                                                 |
| \\      /  F ield         | OpenFOAM: The Open Source CFD Toolbox           |
|  \\    /   O peration     | Version:  4.x                                   |
|   \\  /    A nd           | Web:      www.OpenFOAM.org                      |
|    \\/     M anipulation  |                                                 |
\*---------------------------------------------------------------------------*/
FoamFile
{
    version     2.0;
    format      ascii;
    class       volVectorField;
    location    "8000";
    object      U;
}
// * * * * * * * * * * * * * * * * * * * * * * * * * * * * * * * * * * * * * //

dimensions      [0 1 -1 0 0 0 0];

internalField   nonuniform List<vector> 
1174
(
(0.01100021089 -5.047117502e-09 -3.171311504e-09)
(0.01100021956 -6.589686919e-09 -4.507731515e-09)
(0.01100023848 -5.042605757e-09 -4.069212407e-09)
(0.01100023223 -2.022061187e-09 -1.834988514e-09)
(0.0110002281 -2.873890023e-09 1.46892031e-11)
(0.01100020595 -6.264804526e-10 -8.657347492e-10)
(0.01100017999 -1.357197722e-09 5.167384354e-11)
(0.01100015033 1.271728407e-09 1.971102864e-09)
(0.011000118 1.195913618e-09 9.60627692e-10)
(0.01100008523 -2.637327932e-10 4.029859643e-09)
(0.01100005068 2.91232517e-09 3.325379698e-09)
(0.01100001428 2.608052097e-09 2.260861143e-09)
(0.01099998581 1.572432783e-09 9.904595752e-10)
(0.01099995042 2.388303349e-09 3.512778455e-09)
(0.01100022169 -3.063504551e-08 -5.335689952e-09)
(0.01100021731 -2.625403514e-08 -6.301936668e-09)
(0.01100022968 -1.598215653e-08 -5.418243885e-09)
(0.01100021367 -1.091868867e-08 -3.502138758e-09)
(0.01100019548 -5.659106532e-09 -1.763520454e-09)
(0.01100016362 -2.327741762e-09 2.44309058e-10)
(0.01100013164 2.137812387e-09 1.631859428e-09)
(0.01100009548 1.648833816e-09 2.771707364e-09)
(0.01100005981 2.597415008e-09 3.618792229e-09)
(0.01100002247 2.664524038e-09 4.623602392e-09)
(0.01099999085 5.2997569e-09 3.12997478e-09)
(0.01099995174 5.301870749e-09 1.988487353e-09)
(0.01099992478 7.358985202e-09 3.688078974e-09)
(0.01099989419 7.81909398e-09 4.148673578e-09)
(0.0110002461 -1.988203832e-08 -1.137399136e-08)
(0.0110002165 -2.270295085e-08 -1.269616193e-08)
(0.01100020997 -1.411476422e-08 -8.14898695e-09)
(0.0110001709 -6.711621459e-09 -3.414270468e-09)
(0.01100013197 -2.097780997e-09 1.7452143e-09)
(0.01100008645 5.867360407e-10 3.4886506e-09)
(0.01100004174 1.970968831e-09 4.030126362e-09)
(0.0109999988 4.431018494e-09 3.106919254e-09)
(0.01099995793 5.801097257e-09 3.403406539e-09)
(0.01099992177 7.807348956e-09 3.394157461e-09)
(0.01099988893 5.911167415e-09 9.234688151e-10)
(0.01099985587 6.261003665e-09 3.610556434e-09)
(0.0109998295 8.426510669e-09 2.782625645e-09)
(0.01099980569 9.420237321e-09 1.114503878e-09)
(0.01100025476 -2.614467039e-08 3.443861501e-09)
(0.0110001774 -1.505708424e-08 -1.578979229e-08)
(0.01100016103 -2.97758873e-09 -7.546716702e-09)
(0.01100010464 3.779122352e-09 2.240795074e-10)
(0.01100004813 4.322239414e-09 2.262631723e-09)
(0.01099999477 6.924160179e-09 6.071255395e-09)
(0.01099994182 5.877826056e-09 7.32142603e-09)
(0.01099989454 4.214166632e-09 6.564155288e-09)
(0.0109998536 5.473467346e-09 5.690671172e-09)
(0.0109998231 5.558695328e-09 4.734450627e-09)
(0.01099979029 5.926994915e-09 4.834772702e-09)
(0.01099976518 7.044870004e-09 6.70986636e-09)
(0.01099974735 5.877799936e-09 6.685661087e-09)
(0.01099972491 6.845719979e-09 1.775283356e-09)
(0.01100033442 -6.633108784e-10 1.210367134e-08)
(0.01100018222 2.204456613e-09 -2.799842585e-09)
(0.01100013929 1.250101472e-09 3.609475711e-09)
(0.01100006668 7.818582844e-10 6.637147863e-09)
(0.01100000261 1.924054236e-09 7.146963006e-09)
(0.01099994443 -1.0850362e-09 6.640789645e-09)
(0.0109998907 1.626187488e-10 5.527881137e-09)
(0.01099984822 3.973302661e-10 4.446841922e-09)
(0.010999808 7.475907106e-10 4.752841947e-09)
(0.01099977623 -5.970493164e-10 5.270271664e-09)
(0.01099974955 -3.126946705e-10 4.620796754e-09)
(0.01099972896 -3.787405005e-10 2.949242279e-09)
(0.01099971233 8.119476188e-10 3.833172101e-09)
(0.01099969446 -1.212541273e-09 3.753141681e-10)
(0.01100025528 3.045172036e-08 3.34525673e-09)
(0.01100017623 1.677231796e-08 -1.589007017e-08)
(0.0110001597 4.155691716e-09 -7.311591077e-09)
(0.01100010436 -2.490965029e-09 -1.157887193e-09)
(0.01100004703 -3.849003874e-09 1.862121012e-09)
(0.01099999367 -5.636671897e-09 5.596477074e-09)
(0.01099994224 -6.734200121e-09 6.073909617e-09)
(0.01099989414 -5.049702014e-09 6.305283571e-09)
(0.010999856 -4.904629685e-09 5.90539769e-09)
(0.01099981884 -2.76027292e-09 5.653640053e-09)
(0.01099979248 -3.919923362e-09 6.754085915e-09)
(0.01099976773 -4.280654822e-09 5.719240755e-09)
(0.01099974828 -4.095708829e-09 6.018441244e-09)
(0.01099973036 -4.05557233e-09 2.765738089e-09)
(0.01100024505 2.060861863e-08 -8.824954923e-09)
(0.01100021333 2.486292361e-08 -1.09382296e-08)
(0.01100020772 1.370656688e-08 -5.230128545e-09)
(0.01100017151 7.588577915e-09 -1.123209813e-09)
(0.01100013013 1.96903143e-09 1.14648133e-09)
(0.01100008776 -1.108845086e-09 3.534273525e-09)
(0.01100004178 -1.233473203e-09 5.69175241e-09)
(0.01099999852 -5.044635458e-09 3.060550895e-09)
(0.01099995829 -3.065012911e-09 5.176669635e-09)
(0.01099992093 -6.20054889e-09 6.10805282e-09)
(0.01099988839 -5.757353812e-09 6.305833115e-09)
(0.01099985796 -6.852240924e-09 4.067593738e-09)
(0.01099983381 -6.969610844e-09 5.201890727e-09)
(0.01099980757 -6.968508582e-09 3.455423658e-09)
(0.01100021965 3.09005883e-08 -6.640197137e-09)
(0.01100021588 2.477566485e-08 -7.299342394e-09)
(0.01100022618 1.610704803e-08 -4.205995391e-09)
(0.01100021087 8.478486007e-09 -2.467696528e-09)
(0.01100019298 3.652698949e-09 -1.95195381e-09)
(0.01100016555 8.672077262e-10 -5.714166969e-10)
(0.01100013088 -1.215705606e-09 9.875620521e-10)
(0.01100009516 -2.099855766e-09 1.862906903e-10)
(0.01100005838 -4.40461359e-09 1.114896537e-09)
(0.0110000218 -5.219097419e-09 1.799817689e-09)
(0.01099998918 -6.19145725e-09 3.610688392e-09)
(0.01099995668 -5.660228153e-09 4.64042462e-09)
(0.01099992793 -5.744244067e-09 3.08439021e-09)
(0.01099989399 -6.829054719e-09 3.458834437e-09)
(0.01100021122 4.610227453e-09 -6.67190237e-09)
(0.01100022038 6.464916197e-09 -6.374523629e-09)
(0.01100023432 3.409651185e-09 -3.750034083e-09)
(0.01100023146 2.73152156e-09 -1.914776406e-09)
(0.01100022403 1.616777215e-09 -2.154234098e-09)
(0.01100020525 2.151233981e-09 -2.390125319e-10)
(0.01100017982 -8.357148144e-10 1.023120879e-09)
(0.01100015194 -1.508251285e-09 1.357142616e-09)
(0.01100012013 -1.701533553e-09 6.243489637e-10)
(0.0110000851 -1.442399063e-09 6.528280381e-10)
(0.01100005342 -8.488084855e-11 2.994948848e-09)
(0.01100001676 -7.90128233e-10 2.810387598e-09)
(0.0109999858 -4.190350544e-09 4.543468019e-09)
(0.01099995347 -3.849344311e-09 4.048191167e-09)
(0.01100015934 -2.243821892e-08 -5.864012678e-08)
(0.01100021721 -4.778526389e-09 -2.878024112e-08)
(0.01100021653 -7.286842205e-09 -2.534890758e-08)
(0.01100022732 -6.305550991e-09 -1.507940355e-08)
(0.01100021391 -1.542683777e-09 -8.831652365e-09)
(0.01100019406 -3.42699731e-09 -4.005240577e-09)
(0.01100016468 1.780239483e-09 -9.126607389e-10)
(0.01100013135 1.79045374e-09 2.126595501e-09)
(0.0110000957 1.026920743e-09 3.757528178e-09)
(0.01100005942 3.54094753e-09 4.510791872e-09)
(0.0110000234 3.532577545e-09 6.017409634e-09)
(0.01099999084 3.266101403e-09 5.567095934e-09)
(0.01099995375 3.071534337e-09 6.981250021e-09)
(0.0109999268 4.636002962e-09 7.56367323e-09)
(0.01099989207 3.713448747e-09 7.25529488e-09)
(0.01100022983 -3.378966905e-08 -3.359206343e-08)
(0.01100019942 -3.198325546e-08 -3.161301942e-08)
(0.01100019906 -1.782618615e-08 -1.887226522e-08)
(0.01100016592 -8.097883547e-09 -8.661314413e-09)
(0.01100012979 -1.695323752e-09 -1.318013782e-09)
(0.01100008907 3.663699601e-09 3.055250486e-09)
(0.01100004731 5.144483553e-09 6.284215829e-09)
(0.01100000822 7.536674616e-09 7.859430883e-09)
(0.01099996927 8.239278041e-09 9.30422168e-09)
(0.01099993271 8.238575808e-09 8.564604755e-09)
(0.01099990455 9.998842186e-09 9.19771496e-09)
(0.01099987432 1.03853024e-08 9.463284686e-09)
(0.01099985029 1.063340314e-08 9.691164612e-09)
(0.01099982331 7.977649532e-09 9.496835046e-09)
(0.01100026273 -1.081765885e-08 -5.416412598e-08)
(0.01100015855 -3.238356467e-08 -4.390015405e-08)
(0.01100012584 -1.507296209e-08 -1.620758914e-08)
(0.01100005641 -3.318028176e-09 6.94635207e-10)
(0.01099999424 2.909924434e-09 1.030047886e-08)
(0.01099993868 7.269377532e-09 1.555447559e-08)
(0.01099988487 9.199935188e-09 1.602564904e-08)
(0.01099984683 9.427466178e-09 1.70731832e-08)
(0.01099981399 9.719802721e-09 1.530308956e-08)
(0.01099978962 9.19567766e-09 1.419291258e-08)
(0.01099976666 1.08100567e-08 1.232057435e-08)
(0.01099974438 1.173187556e-08 1.271084727e-08)
(0.01099973049 1.128473918e-08 1.084351585e-08)
(0.01099972121 1.027618388e-08 1.001123401e-08)
(0.01100023248 -6.597820042e-09 -2.396547214e-08)
(0.01100001714 -4.183706063e-09 -5.019493841e-08)
(0.01099997349 8.094110107e-09 -9.403308721e-09)
(0.01099987991 1.241053782e-08 1.272100273e-08)
(0.01099980745 1.445194947e-08 2.12989708e-08)
(0.01099974972 1.214382069e-08 2.568150668e-08)
(0.01099970772 9.474857494e-09 2.547182521e-08)
(0.01099967708 7.777561171e-09 2.326516924e-08)
(0.01099965335 9.285478146e-09 2.117508115e-08)
(0.01099964292 8.392003379e-09 1.822631186e-08)
(0.01099963118 8.217457071e-09 1.633700377e-08)
(0.01099962601 6.616935099e-09 1.41788141e-08)
(0.01099962417 7.892829341e-09 1.403321803e-08)
(0.01099961954 6.557630369e-09 1.064279655e-08)
(0.0110003644 1.157194428e-09 3.50084481e-08)
(0.0109999362 2.159927218e-10 1.183069164e-08)
(0.01099986178 7.234258386e-10 4.544083081e-08)
(0.01099976221 -2.67560982e-10 5.096957246e-08)
(0.01099968923 -1.738201101e-09 4.440456495e-08)
(0.0109996462 -1.641058915e-09 3.839390565e-08)
(0.01099961361 -2.443279139e-10 3.265989386e-08)
(0.01099959564 -5.819282213e-10 2.682550009e-08)
(0.01099958294 -2.14650715e-09 2.210296522e-08)
(0.01099957829 3.184290637e-11 1.945609201e-08)
(0.01099957435 -7.804818898e-10 1.769141611e-08)
(0.01099957539 4.247743386e-10 1.499812266e-08)
(0.0109995776 1.678758764e-09 1.488143032e-08)
(0.01099957995 1.12708377e-09 1.305305897e-08)
(0.01100023027 7.246595904e-09 -2.36733933e-08)
(0.01100001408 8.180652021e-09 -4.942097122e-08)
(0.01099996969 -7.424853247e-09 -8.223934409e-09)
(0.01099987979 -1.364090948e-08 1.265343466e-08)
(0.01099980759 -1.353913215e-08 1.967970749e-08)
(0.01099974961 -1.197713445e-08 2.490943036e-08)
(0.01099970663 -1.094818358e-08 2.422743957e-08)
(0.01099967779 -1.048702947e-08 2.267029096e-08)
(0.01099965591 -7.969835566e-09 2.010718951e-08)
(0.01099964085 -6.335832213e-09 1.798414558e-08)
(0.01099963469 -6.018779331e-09 1.636952906e-08)
(0.01099962721 -7.40788395e-09 1.497841773e-08)
(0.0109996212 -7.266525579e-09 1.439954216e-08)
(0.0109996198 -6.12934547e-09 1.164058358e-08)
(0.01100026058 1.18033635e-08 -5.318373453e-08)
(0.01100015523 3.200631976e-08 -4.547460326e-08)
(0.01100012325 1.785089991e-08 -1.526537421e-08)
(0.0110000547 6.691428748e-09 5.03086446e-10)
(0.01099999163 -5.555794921e-10 9.512267436e-09)
(0.01099993815 -7.355718596e-09 1.404244584e-08)
(0.01099988576 -7.725052351e-09 1.504315795e-08)
(0.01099984916 -1.039673542e-08 1.549919621e-08)
(0.01099981498 -1.04016426e-08 1.446046613e-08)
(0.01099978854 -9.787348203e-09 1.358698627e-08)
(0.01099976639 -9.68270208e-09 1.388615221e-08)
(0.01099974958 -8.084874435e-09 9.94984106e-09)
(0.01099973384 -1.056527748e-08 1.199156153e-08)
(0.01099971707 -7.946160365e-09 7.634415515e-09)
(0.01100023112 3.345609023e-08 -3.134256137e-08)
(0.01100019779 3.205935498e-08 -3.137239426e-08)
(0.01100019776 1.892130948e-08 -1.873450195e-08)
(0.01100016253 8.560938902e-09 -7.570726135e-09)
(0.01100012787 1.547075548e-09 -8.978739558e-10)
(0.01100008769 -2.321714662e-09 4.673500908e-09)
(0.01100004744 -5.19359252e-09 5.547218403e-09)
(0.01100000719 -6.591045931e-09 7.835384013e-09)
(0.01099997092 -8.337910846e-09 9.062054488e-09)
(0.01099993511 -8.79766872e-09 8.287037784e-09)
(0.01099990596 -8.581211271e-09 9.832057108e-09)
(0.01099987534 -8.435431545e-09 9.958214649e-09)
(0.01099985044 -8.586449734e-09 8.614017483e-09)
(0.0109998268 -8.10928504e-09 7.025491138e-09)
(0.01100022068 4.495631001e-09 -2.944878925e-08)
(0.01100021639 9.192848632e-09 -2.576164882e-08)
(0.01100022514 5.03358017e-09 -1.502454745e-08)
(0.01100021374 2.586901699e-09 -8.210896714e-09)
(0.01100019251 1.625018667e-09 -4.894286555e-09)
(0.01100016349 2.513552874e-10 -1.392228727e-10)
(0.01100012907 4.573447321e-10 2.733495257e-09)
(0.01100009492 -9.379493595e-10 3.542326875e-09)
(0.01100005844 -1.137977404e-09 4.656923915e-09)
(0.01100002383 -4.440013384e-09 5.778656554e-09)
(0.0109999887 -2.947906577e-09 6.349908142e-09)
(0.01099995444 -3.575964222e-09 5.351334008e-09)
(0.01099992686 -3.96311103e-09 7.025739646e-09)
(0.01099989489 -2.277803804e-09 5.978695522e-09)
(0.01100016104 -4.554576364e-08 -7.187840614e-08)
(0.0110002466 -6.438783233e-09 -2.23751014e-08)
(0.01100021581 -1.258329988e-08 -2.547819436e-08)
(0.01100020872 -4.899880409e-09 -1.597130766e-08)
(0.01100017015 1.391462687e-09 -7.872099801e-09)
(0.0110001325 1.572436474e-09 -3.572868327e-09)
(0.01100008625 4.73092563e-09 2.465539526e-09)
(0.01100004347 6.289045827e-09 3.171831909e-09)
(0.01099999668 6.371461086e-09 5.148771663e-09)
(0.01099995466 7.202808403e-09 6.161305321e-09)
(0.01099991756 6.121493045e-09 7.897839039e-09)
(0.01099988853 6.687977003e-09 9.198330876e-09)
(0.01099985835 6.476086963e-09 8.728542254e-09)
(0.01099983176 8.638837887e-09 1.012750935e-08)
(0.0109998053 7.689771552e-09 8.097928001e-09)
(0.01100016353 -2.068058573e-07 -1.13765074e-07)
(0.01100026188 -5.272044222e-08 -1.249350904e-08)
(0.01100015532 -4.394274529e-08 -3.193708099e-08)
(0.01100012479 -1.564864668e-08 -1.702463897e-08)
(0.01100005385 7.792872338e-10 -6.369552759e-09)
(0.01099999054 7.588374032e-09 2.039746165e-09)
(0.01099993842 1.363910542e-08 6.212734285e-09)
(0.01099988827 1.517938774e-08 8.029528755e-09)
(0.01099984687 1.654966729e-08 9.364895789e-09)
(0.01099981274 1.563875605e-08 8.420007137e-09)
(0.01099978568 1.216821759e-08 9.166698975e-09)
(0.01099976639 1.455246402e-08 8.874229962e-09)
(0.0109997457 1.226059473e-08 8.892634058e-09)
(0.0109997323 1.248152955e-08 9.395615381e-09)
(0.01099971799 1.168516507e-08 8.160344995e-09)
(0.01100029094 -1.08116048e-08 -1.329192719e-08)
(0.01099999583 -4.527473221e-08 -4.603334861e-08)
(0.01099989497 -6.597028281e-09 -7.188958701e-09)
(0.01099976792 1.377694807e-08 1.121428657e-08)
(0.01099968057 1.965250972e-08 1.972154791e-08)
(0.01099962645 2.430641626e-08 2.168030078e-08)
(0.01099958961 2.289357907e-08 2.170328377e-08)
(0.01099957223 1.895062401e-08 1.872829372e-08)
(0.01099955903 1.83748687e-08 1.745947927e-08)
(0.01099955909 1.701665853e-08 1.380562073e-08)
(0.01099956355 1.641700445e-08 1.280927076e-08)
(0.01099956637 1.429836244e-08 1.089434629e-08)
(0.01099957324 1.511953076e-08 1.407093092e-08)
(0.0109995808 1.178691766e-08 1.11253618e-08)
(0.01100008259 5.759996673e-08 9.582868128e-08)
(0.01099950539 4.071535154e-08 -8.15104861e-08)
(0.01099941237 5.898878511e-08 -2.946017504e-09)
(0.01099929022 5.453166182e-08 2.95482945e-08)
(0.01099923028 4.236087596e-08 3.591427161e-08)
(0.01099922717 3.126280052e-08 3.649411379e-08)
(0.01099923891 2.359952145e-08 3.187791496e-08)
(0.01099926279 1.851276213e-08 2.671235907e-08)
(0.01099929622 1.590855032e-08 2.345014963e-08)
(0.010999333 1.370369122e-08 1.985481699e-08)
(0.01099936631 1.038998076e-08 1.66167673e-08)
(0.01099939714 9.731284037e-09 1.239908858e-08)
(0.01099942462 1.017337731e-08 1.5627237e-08)
(0.01099945332 8.224757618e-09 1.239885278e-08)
(0.01100024033 2.138749095e-09 5.560637878e-07)
(0.01099902202 1.740148221e-09 5.617444261e-08)
(0.01099896899 1.459431201e-09 8.884959882e-08)
(0.01099890933 -1.850602115e-10 9.454806865e-08)
(0.01099892901 5.062319399e-11 7.092784112e-08)
(0.01099898545 -1.217447584e-09 5.456976132e-08)
(0.01099904895 -3.31237216e-10 4.158848732e-08)
(0.01099911217 -5.406550186e-10 3.310368602e-08)
(0.01099917653 -8.098063182e-10 2.444980334e-08)
(0.0109992323 8.34731631e-10 2.19911753e-08)
(0.01099927996 2.110781436e-09 1.769867629e-08)
(0.01099932688 7.985393872e-10 1.410216712e-08)
(0.01099936348 -4.104974851e-11 1.397350135e-08)
(0.01099939898 1.19400671e-09 1.229807476e-08)
(0.01100008417 -5.634417177e-08 9.517334771e-08)
(0.01099950387 -3.825057229e-08 -8.368917842e-08)
(0.01099941121 -5.595915287e-08 -1.997546454e-09)
(0.01099928423 -5.607432881e-08 3.146631846e-08)
(0.01099923309 -4.251510077e-08 3.83173462e-08)
(0.01099922571 -3.187975702e-08 3.798803787e-08)
(0.01099923773 -2.542354518e-08 3.491802993e-08)
(0.01099926432 -1.887153583e-08 2.788534733e-08)
(0.01099929631 -1.510169233e-08 2.351641138e-08)
(0.01099933375 -1.208665193e-08 2.008790912e-08)
(0.01099936662 -9.635773433e-09 1.829766007e-08)
(0.0109993972 -9.687272376e-09 1.470726485e-08)
(0.01099942532 -7.926438546e-09 1.41642247e-08)
(0.01099945235 -7.366608258e-09 1.27973844e-08)
(0.01100029063 1.314006427e-08 -1.329418355e-08)
(0.01099999785 4.63594992e-08 -4.658242843e-08)
(0.01099989018 6.688857766e-09 -7.072434502e-09)
(0.01099976432 -1.13701892e-08 1.321001781e-08)
(0.01099967948 -1.772173671e-08 1.974628267e-08)
(0.01099962368 -2.048650227e-08 2.370152637e-08)
(0.01099958937 -2.165254235e-08 2.084997189e-08)
(0.01099957057 -2.181638372e-08 2.135321209e-08)
(0.01099956001 -1.805435723e-08 1.64476627e-08)
(0.01099956082 -1.654790811e-08 1.48951233e-08)
(0.01099956183 -1.473586446e-08 1.477720311e-08)
(0.01099956874 -1.082546332e-08 1.249180988e-08)
(0.01099957296 -1.358371066e-08 1.309775556e-08)
(0.0109995774 -1.165976961e-08 9.435825668e-09)
(0.01100026184 5.296259874e-08 -1.105455018e-08)
(0.0110001592 4.396018309e-08 -3.25961398e-08)
(0.01100012296 1.33640824e-08 -1.610762858e-08)
(0.01100005523 -2.311216645e-10 -5.061355389e-09)
(0.01099999075 -8.568212563e-09 2.257886742e-09)
(0.01099993514 -1.249408723e-08 8.221891466e-09)
(0.01099988797 -1.463967077e-08 8.821679188e-09)
(0.01099984778 -1.417319617e-08 1.144069776e-08)
(0.01099981296 -1.391947158e-08 1.134693285e-08)
(0.01099978692 -1.470208132e-08 1.194450163e-08)
(0.01099976705 -1.339874129e-08 1.05345859e-08)
(0.01099974393 -1.257944712e-08 9.127611152e-09)
(0.01099973352 -1.272743241e-08 1.068218267e-08)
(0.01099971654 -1.013522138e-08 9.366642176e-09)
(0.01100024605 8.793038685e-09 -2.072033066e-08)
(0.011000215 1.257423597e-08 -2.498898268e-08)
(0.01100020829 5.469454868e-09 -1.507486563e-08)
(0.01100017287 9.320366809e-10 -7.7389308e-09)
(0.01100013385 -2.234760562e-09 -2.734468039e-09)
(0.01100008558 -3.593492037e-09 8.90550709e-10)
(0.01100003709 -2.10546799e-09 2.968107914e-09)
(0.01099999493 -4.8606891e-09 4.839835003e-09)
(0.01099995849 -5.588866784e-09 6.314277013e-09)
(0.010999921 -4.433089802e-09 7.82386068e-09)
(0.01099988501 -5.734666855e-09 7.952868669e-09)
(0.01099985887 -5.172781271e-09 7.961022078e-09)
(0.01099983139 -3.587843447e-09 7.946249372e-09)
(0.01099980314 -2.000954746e-09 7.580200992e-09)
(0.01100016767 -6.186676018e-08 -1.217555204e-07)
(0.01100025252 4.025358792e-09 -2.788913687e-08)
(0.01100017633 -1.362453329e-08 -1.533333863e-08)
(0.01100016116 -6.428566336e-09 -5.526192066e-09)
(0.01100010571 -1.188184116e-09 1.867364476e-09)
(0.01100005057 5.710506078e-09 4.35076492e-09)
(0.01099999108 6.744029978e-09 4.4749589e-09)
(0.01099994092 7.696265649e-09 5.031480322e-09)
(0.01099989308 6.565959183e-09 2.868414997e-09)
(0.01099985198 6.277930364e-09 4.342131343e-09)
(0.01099981794 5.428520759e-09 2.640693723e-09)
(0.01099978974 5.718570147e-09 4.642773392e-09)
(0.01099976735 5.498002046e-09 4.240736476e-09)
(0.01099974635 5.735751006e-09 6.252539175e-09)
(0.01099972661 5.499106958e-09 6.306565041e-09)
(0.01100017774 -3.078142228e-07 -2.43674284e-07)
(0.01100023158 -2.265146844e-08 -5.847917369e-09)
(0.01100001605 -5.042298859e-08 -6.418536181e-09)
(0.01099997092 -7.504227757e-09 6.296880189e-09)
(0.01099987894 1.218463204e-08 1.27487259e-08)
(0.0109998076 1.966069964e-08 1.199272535e-08)
(0.01099974732 2.324556173e-08 1.190117343e-08)
(0.01099970624 2.35256779e-08 9.386174358e-09)
(0.01099967558 2.206876064e-08 7.675592202e-09)
(0.01099965606 2.104552584e-08 6.673487982e-09)
(0.01099963838 1.911206542e-08 7.532795063e-09)
(0.01099963133 1.535388161e-08 6.475281921e-09)
(0.01099962782 1.344030409e-08 6.079430453e-09)
(0.01099962291 1.470719451e-08 6.442989268e-09)
(0.01099962236 1.1752631e-08 6.790081949e-09)
(0.01100010707 -3.900960797e-07 -7.147987495e-07)
(0.01100008023 9.813020696e-08 5.554304336e-08)
(0.01099950437 -8.064951506e-08 3.912566762e-08)
(0.01099941147 -1.159920867e-09 5.925560712e-08)
(0.01099928673 3.176222103e-08 5.318860142e-08)
(0.01099923546 3.558484948e-08 4.094290922e-08)
(0.0109992244 3.790269133e-08 3.182469583e-08)
(0.01099923642 3.304703419e-08 2.370588709e-08)
(0.01099926586 2.805195223e-08 1.639386235e-08)
(0.01099929754 2.575117105e-08 1.428176619e-08)
(0.01099933006 1.92209228e-08 1.283298283e-08)
(0.01099936632 1.934072398e-08 1.002120719e-08)
(0.01099939838 1.609725781e-08 7.798807213e-09)
(0.01099942707 1.714089338e-08 7.93136811e-09)
(0.01099945348 1.22861378e-08 7.136475415e-09)
(0.01099884761 5.636148076e-07 5.61471191e-07)
(0.01099796182 9.70117821e-08 9.514357395e-08)
(0.0109982143 1.079033228e-07 1.068746498e-07)
(0.01099825033 9.921225358e-08 9.68868013e-08)
(0.0109983751 6.839489443e-08 6.609548125e-08)
(0.01099852874 4.758417796e-08 4.598651784e-08)
(0.01099867364 3.483290733e-08 3.281855801e-08)
(0.01099880547 2.595728776e-08 2.438445525e-08)
(0.01099891835 1.884169957e-08 1.780565003e-08)
(0.01099901977 1.649233594e-08 1.46054964e-08)
(0.01099910443 1.226634048e-08 1.225692202e-08)
(0.01099918216 1.110555139e-08 9.439050134e-09)
(0.01099924309 1.061055951e-08 1.014440058e-08)
(0.01099929899 9.224101191e-09 9.207357635e-09)
(0.01099764254 2.729260584e-10 3.479284954e-06)
(0.01099568258 8.0522122e-10 9.490721231e-07)
(0.01099687736 9.807226613e-10 4.200274778e-07)
(0.0109973448 1.201153745e-09 2.433674584e-07)
(0.01099774641 8.757086489e-10 1.280812234e-07)
(0.0109980943 1.659932871e-10 7.265044971e-08)
(0.01099835837 3.467637785e-10 4.401230684e-08)
(0.01099857335 -1.344223306e-10 2.835235373e-08)
(0.01099874415 -1.318382255e-09 1.991942688e-08)
(0.01099888008 1.264662892e-09 1.470519542e-08)
(0.01099899051 2.227333605e-09 1.186828245e-08)
(0.01099908906 3.673001031e-10 8.879449078e-09)
(0.01099916535 7.099419196e-10 9.492185867e-09)
(0.01099923679 7.236524814e-10 7.79915123e-09)
(0.0109988471 -5.604474523e-07 5.60952263e-07)
(0.01099796397 -9.544273816e-08 9.613628339e-08)
(0.01099821611 -1.063030705e-07 1.062566002e-07)
(0.01099825064 -9.802338266e-08 9.583741117e-08)
(0.01099837469 -6.677251494e-08 6.780374336e-08)
(0.01099852799 -4.712460519e-08 4.878135178e-08)
(0.01099867072 -3.512001693e-08 3.540848019e-08)
(0.01099880639 -2.550996051e-08 2.540568742e-08)
(0.01099891993 -1.865401459e-08 1.813238209e-08)
(0.01099902282 -1.462946794e-08 1.53024352e-08)
(0.01099910482 -1.128432106e-08 1.304392197e-08)
(0.01099918015 -9.395610824e-09 1.073659624e-08)
(0.01099923892 -9.719134314e-09 9.896926391e-09)
(0.01099930023 -8.35792473e-09 8.203015694e-09)
(0.01100008137 -9.614396865e-08 5.576756464e-08)
(0.01099950259 8.280152295e-08 4.044463391e-08)
(0.01099941063 2.937042408e-09 5.694863923e-08)
(0.01099928424 -3.014489435e-08 5.463219687e-08)
(0.01099923238 -3.68864447e-08 4.18085738e-08)
(0.01099922252 -3.66187056e-08 3.278609089e-08)
(0.01099923536 -3.219282733e-08 2.579365086e-08)
(0.01099926494 -2.853975279e-08 1.845050399e-08)
(0.01099929937 -2.364493506e-08 1.504261682e-08)
(0.01099933344 -2.090261918e-08 1.07070194e-08)
(0.01099936427 -1.747047295e-08 9.676864338e-09)
(0.01099939926 -1.38865267e-08 9.928499319e-09)
(0.01099942358 -1.48854199e-08 8.885859029e-09)
(0.01099945313 -1.170197521e-08 7.826633323e-09)
(0.01100023032 2.314034272e-08 -7.587451237e-09)
(0.01100001605 4.985236317e-08 -6.238775237e-09)
(0.01099996977 8.028245953e-09 6.140834673e-09)
(0.01099987954 -1.245967254e-08 1.380138617e-08)
(0.01099980431 -2.102539675e-08 1.434207083e-08)
(0.0109997478 -2.451444765e-08 1.292710502e-08)
(0.01099970655 -2.317797175e-08 1.29004332e-08)
(0.01099967814 -2.226806014e-08 9.405256079e-09)
(0.01099965397 -1.975483006e-08 7.845324362e-09)
(0.01099964222 -1.740313857e-08 7.53101766e-09)
(0.01099963109 -1.581580609e-08 7.495312789e-09)
(0.01099962565 -1.367207817e-08 6.60014166e-09)
(0.01099962273 -1.451203441e-08 7.086447543e-09)
(0.0109996189 -1.213167282e-08 5.794188437e-09)
(0.01100025304 -4.272678345e-09 -2.845641874e-08)
(0.01100017688 1.4094108e-08 -1.605835061e-08)
(0.01100015903 6.907172033e-09 -5.046371634e-09)
(0.01100010363 6.20547838e-10 2.878025077e-09)
(0.01100004758 -1.06271902e-09 4.870661062e-09)
(0.01099999257 -5.605790929e-09 6.073296232e-09)
(0.01099993992 -6.547183405e-09 6.070227892e-09)
(0.01099989456 -6.112486641e-09 6.06241375e-09)
(0.01099985226 -7.231730366e-09 4.27435328e-09)
(0.01099982126 -6.990080098e-09 5.589953297e-09)
(0.01099978954 -4.513274263e-09 5.533688789e-09)
(0.01099976557 -5.464027955e-09 5.685382871e-09)
(0.01099974396 -5.203300991e-09 4.727530022e-09)
(0.01099972636 -3.714891967e-09 5.070036827e-09)
(0.01100018957 -1.62800518e-07 -1.588850459e-09)
(0.01100033209 1.721882977e-08 1.760389994e-10)
(0.01100018173 -3.191385354e-09 6.935264873e-10)
(0.01100013959 7.446910921e-09 -7.788832034e-10)
(0.01100006949 1.197667478e-08 -1.468534383e-09)
(0.01100000316 1.104110978e-08 -1.273196412e-09)
(0.01099994241 1.078610572e-08 -4.305594995e-10)
(0.01099989149 1.008279038e-08 -3.08737641e-09)
(0.0109998435 9.706427896e-09 -1.312650958e-09)
(0.01099980825 1.008219856e-08 -2.611390824e-09)
(0.01099977577 7.026884696e-09 -1.494247276e-09)
(0.01099975114 7.605535444e-09 -1.196880329e-09)
(0.01099972691 6.493632798e-09 -1.386059933e-09)
(0.0109997097 7.90698661e-09 -1.255557448e-09)
(0.0109996981 7.112316203e-09 -7.571057781e-11)
(0.01100022298 -7.850455651e-07 -1.326320251e-09)
(0.01100036356 3.780761407e-08 -7.899138364e-10)
(0.01099993492 1.248770754e-08 -1.288275202e-09)
(0.01099986334 4.64152558e-08 -1.470022459e-10)
(0.01099976194 5.012712127e-08 -4.319328068e-10)
(0.01099968846 4.336940528e-08 -8.359361001e-10)
(0.01099964369 3.756555291e-08 -1.781617768e-09)
(0.01099961188 3.257029623e-08 -1.582053638e-09)
(0.01099959491 2.606537729e-08 -2.469720589e-09)
(0.01099958265 2.212345891e-08 -6.233476986e-10)
(0.01099957691 1.972832188e-08 -5.442173669e-10)
(0.01099957431 1.723117801e-08 8.522262598e-10)
(0.01099957639 1.318894174e-08 -8.379657579e-10)
(0.0109995774 1.459255263e-08 6.110422482e-11)
(0.01099958255 1.210927631e-08 -6.86482215e-10)
(0.01100005881 -1.461811248e-06 -3.386468501e-10)
(0.01100024236 5.57302465e-07 -3.460561055e-10)
(0.01099901874 5.883946954e-08 1.009632356e-11)
(0.01099896586 9.319018544e-08 -8.906777789e-10)
(0.01099890737 9.611139333e-08 1.181365424e-09)
(0.01099892767 7.206582946e-08 -8.913764163e-10)
(0.01099898519 5.507885582e-08 -6.730532574e-10)
(0.01099904829 4.341506857e-08 -1.575351019e-09)
(0.01099911217 3.392196266e-08 1.422286507e-10)
(0.01099917478 2.775325443e-08 8.316768416e-11)
(0.01099923383 2.1382973e-08 -1.086965391e-10)
(0.0109992811 1.819364657e-08 1.297925618e-09)
(0.01099932667 1.724568079e-08 -3.653241643e-10)
(0.01099936523 1.804963612e-08 6.707860064e-10)
(0.01099940227 1.382943892e-08 1.072735005e-09)
(0.01099750674 -7.008751964e-06 -1.384468266e-09)
(0.01099763775 3.479408082e-06 -1.599753193e-09)
(0.01099567867 9.486752578e-07 -1.355716779e-12)
(0.01099687605 4.210578091e-07 9.433661498e-10)
(0.01099734353 2.453237948e-07 8.391307174e-10)
(0.01099774605 1.2910033e-07 1.824770383e-11)
(0.0109980935 7.312170724e-08 1.126377541e-10)
(0.01099835943 4.3369376e-08 2.765265169e-10)
(0.01099857178 3.040234183e-08 -2.181897368e-10)
(0.01099874328 2.01019626e-08 -5.075483096e-10)
(0.01099888264 1.58429239e-08 -4.108234692e-10)
(0.01099899315 1.222117145e-08 3.40955281e-10)
(0.01099909018 1.058530747e-08 8.766150471e-10)
(0.01099916897 1.055806677e-08 -9.967838188e-10)
(0.01099923829 8.523460367e-09 -6.630628561e-10)
(0.01099473611 1.604383264e-09 -5.855205999e-10)
(0.01098799319 1.742583197e-09 1.411276368e-10)
(0.01099361388 7.028145431e-10 -1.826682359e-12)
(0.01099566703 -1.000500244e-09 -8.75236481e-10)
(0.01099676284 4.047606817e-10 -1.504367915e-09)
(0.01099748524 -4.046292166e-10 7.408609839e-11)
(0.01099795972 -1.35937869e-10 -3.888574079e-10)
(0.01099829262 -2.659054546e-10 6.174248609e-10)
(0.01099853628 8.828244479e-10 -3.929968843e-11)
(0.01099872213 1.212263161e-09 -8.853468969e-10)
(0.01099886964 7.894326108e-10 -6.765264538e-10)
(0.01099898966 1.374307523e-09 1.065131891e-09)
(0.0109990821 9.251326429e-10 1.405042905e-09)
(0.01099917597 1.973627807e-10 -6.926534027e-10)
(0.01099763897 -3.481068742e-06 -1.877559335e-09)
(0.01099568028 -9.483533694e-07 -1.470205059e-09)
(0.01099687474 -4.204559291e-07 3.334581156e-10)
(0.01099734337 -2.457764628e-07 -1.645462201e-09)
(0.01099774833 -1.282876206e-07 -1.998308732e-10)
(0.01099809105 -7.074552689e-08 -2.281395603e-09)
(0.01099835913 -4.188310506e-08 -5.245332334e-10)
(0.01099857053 -2.837515616e-08 4.631041294e-11)
(0.01099874325 -2.071761701e-08 5.962411935e-10)
(0.0109988805 -1.639385378e-08 2.615240092e-11)
(0.01099899145 -1.260236738e-08 -3.866319597e-10)
(0.01099908738 -9.722514562e-09 -4.527110461e-10)
(0.0109991656 -9.018722371e-09 2.477480158e-10)
(0.01099923922 -6.909791452e-09 2.12208576e-09)
(0.01100024094 -5.568949117e-07 4.801281909e-10)
(0.01099901684 -5.83713357e-08 -1.522591408e-09)
(0.01099896501 -9.085927449e-08 -1.208341148e-09)
(0.01099890832 -9.219313551e-08 -1.213256221e-09)