/*--------------------------------*- C++ -*----------------------------------*\
| =========                 |                                                 |
| \\      /  F ield         | OpenFOAM: The Open Source CFD Toolbox           |
|  \\    /   O peration     | Version:  4.x                                   |
|   \\  /    A nd           | Web:      www.OpenFOAM.org                      |
|    \\/     M anipulation  |                                                 |
\*---------------------------------------------------------------------------*/
FoamFile
{
    version     2.0;
    format      ascii;
    class       volScalarField;
    location    "8000";
    object      X_CO2;
}
// * * * * * * * * * * * * * * * * * * * * * * * * * * * * * * * * * * * * * //

dimensions      [0 0 0 0 0 0 0];

internalField   nonuniform List<scalar> 
1174
(
0.03999606365
0.03999710429
0.03999857146
0.04000048225
0.04000281508
0.04000551737
0.04000851624
0.04001172929
0.04001507344
0.04001847071
0.04002184932
0.04002513317
0.04002818794
0.0400305849
0.03999703895
0.03999870349
0.04000091656
0.04000362536
0.04000673531
0.04001013254
0.04001370205
0.04001733955
0.0400209575
0.0400244864
0.0400278717
0.04003106077
0.0400339523
0.04003618129
0.03999919065
0.04000212675
0.04000575343
0.04000986443
0.04001423784
0.04001867535
0.04002302066
0.04002716315
0.04003103306
0.04003459306
0.04003782786
0.04004072862
0.04004324987
0.04004513518
0.04000233836
0.04000689223
0.04001211099
0.04001761138
0.04002307559
0.04002827651
0.04003307329
0.04003739442
0.04004121853
0.04004455723
0.04004744076
0.0400499031
0.04005194969
0.04005342867
0.0400045816
0.04001002157
0.04001594578
0.04002193595
0.04002769097
0.04003301972
0.04003781936
0.04004205147
0.04004572126
0.04004886097
0.04005151698
0.04005373709
0.040055544
0.04005682765
0.04000233831
0.04000689217
0.0400121109
0.04001761129
0.04002307548
0.0400282764
0.04003307317
0.0400373943
0.04004121841
0.04004455711
0.04004744064
0.04004990299
0.04005194958
0.04005342856
0.03999919061
0.04000212669
0.04000575335
0.04000986434
0.04001423774
0.04001867524
0.04002302054
0.04002716301
0.04003103291
0.0400345929
0.0400378277
0.04004072845
0.0400432497
0.04004513501
0.03999703891
0.03999870344
0.04000091649
0.04000362528
0.04000673522
0.04001013243
0.04001370193
0.04001733942
0.04002095734
0.04002448624
0.04002787152
0.04003106058
0.0400339521
0.04003618108
0.03999606363
0.03999710426
0.03999857142
0.0400004822
0.04000281502
0.0400055173
0.04000851615
0.04001172919
0.04001507332
0.04001847057
0.04002184917
0.040025133
0.04002818776
0.04003058471
0.03999591325
0.03999703894
0.03999870348
0.04000091654
0.04000362534
0.04000673529
0.04001013252
0.04001370202
0.04001733953
0.04002095747
0.04002448638
0.04002787167
0.04003106074
0.04003395227
0.04003618126
0.03999923361
0.04000214929
0.0400056986
0.04000966674
0.04001383916
0.040018036
0.04002212401
0.04002601477
0.04002965649
0.04003302414
0.04003610904
0.04003890376
0.04004135957
0.04004321268
0.04000474753
0.04001039881
0.0400165294
0.04002261978
0.04002831628
0.04003342793
0.04003788731
0.04004170616
0.0400449394
0.04004765998
0.04004994285
0.04005185259
0.04005341994
0.04005454577
0.04001452996
0.04002390729
0.0400328042
0.04004055823
0.04004694271
0.04005199404
0.04005587483
0.0400587883
0.04006093284
0.04006248201
0.04006357881
0.04006433672
0.04006484172
0.0400651414
0.04002374072
0.04003500802
0.04004453164
0.04005206879
0.04005777669
0.04006195281
0.04006491141
0.04006693332
0.04006825093
0.04006904874
0.04006946996
0.04006962569
0.04006960809
0.04006951652
0.04001452989
0.04002390721
0.04003280411
0.04004055813
0.04004694261
0.04005199393
0.04005587472
0.04005878819
0.04006093273
0.0400624819
0.0400635787
0.04006433661
0.04006484161
0.04006514128
0.04000474745
0.04001039873
0.04001652931
0.04002261969
0.04002831617
0.04003342782
0.04003788718
0.04004170602
0.04004493925
0.04004765983
0.04004994268
0.04005185243
0.04005341977
0.0400545456
0.03999923353
0.04000214921
0.0400056985
0.04000966662
0.04001383903
0.04001803585
0.04002212385
0.0400260146
0.0400296563
0.04003302394
0.04003610883
0.04003890354
0.04004135935
0.04004321245
0.03999703892
0.03999870344
0.04000091649
0.04000362528
0.04000673521
0.04001013242
0.04001370191
0.04001733939
0.04002095732
0.04002448621
0.04002787149
0.04003106054
0.04003395206
0.04003618104
0.03999707593
0.03999919063
0.04000212671
0.04000575338
0.04000986438
0.04001423779
0.04001867528
0.04002302059
0.04002716308
0.04003103299
0.04003459298
0.04003782779
0.04004072855
0.0400432498
0.04004513511
0.04000017548
0.04000474749
0.04001039875
0.04001652933
0.04002261971
0.0400283162
0.04003342786
0.04003788723
0.04004170609
0.04004493933
0.04004765992
0.04004994278
0.04005185253
0.04005341989
0.04005454573
0.04002100649
0.04003289473
0.04004363192
0.04005241121
0.04005907446
0.04006382362
0.04006700568
0.04006898663
0.04007009122
0.04007058257
0.04007066258
0.04007048267
0.04007016426
0.0400698479
0.04005710524
0.04007712441
0.04009087694
0.04009894857
0.0401026958
0.04010347686
0.04010238322
0.04010020303
0.04009746913
0.04009452486
0.04009158381
0.04008878259
0.04008625163
0.04008431571
0.04010429149
0.04012413919
0.04013257952
0.04013397363
0.04013142564
0.04012688419
0.0401215008
0.04011592845
0.04011052173
0.040105461
0.04010082899
0.04009666599
0.04009304814
0.04009034527
0.04005710479
0.04007712397
0.04009087653
0.04009894821
0.04010269548
0.04010347658
0.04010238296
0.04010020279
0.04009746892
0.04009452467
0.04009158363
0.04008878243
0.04008625147
0.04008431556
0.04002100614
0.04003289444
0.04004363165
0.04005241094
0.04005907419
0.04006382335
0.04006700541
0.04006898636
0.04007009095
0.04007058231
0.04007066233
0.04007048242
0.04007016402
0.04006984767
0.04000474742
0.04001039867
0.04001652923
0.04002261959
0.04002831607
0.0400334277
0.04003788706
0.0400417059
0.04004493913
0.0400476597
0.04004994256
0.0400518523
0.04005341965
0.04005454548
0.0399991906
0.04000212667
0.04000575332
0.0400098643
0.04001423768
0.04001867515
0.04002302044
0.0400271629
0.04003103279
0.04003459277
0.04003782756
0.0400407283
0.04004324954
0.04004513484
0.03999881934
0.04000233832
0.04000689216
0.04001211089
0.04001761128
0.04002307547
0.04002827639
0.04003307317
0.0400373943
0.04004121841
0.0400445571
0.04004744063
0.04004990299
0.04005194958
0.04005342856
0.04000588591
0.04001452995
0.04002390724
0.04003280413
0.04004055815
0.04004694264
0.04005199396
0.04005587475
0.04005878822
0.04006093276
0.04006248193
0.04006357873
0.04006433665
0.04006484165
0.04006514132
0.0400326015
0.04005710523
0.04007712434
0.04009087686
0.0400989485
0.04010269573
0.0401034768
0.04010238316
0.04010020297
0.04009746908
0.04009452481
0.04009158377
0.04008878256
0.04008625159
0.04008431567
0.04018067526
0.04020571522
0.04020968104
0.04020227448
0.04018982435
0.04017589008
0.04016226832
0.04014975488
0.04013861935
0.04012887496
0.04012042607
0.04011315861
0.04010705686
0.0401026038
0.04042275702
0.04039071804
0.04034185717
0.04029512493
0.04025547591
0.04022316697
0.04019712669
0.04017610606
0.04015902055
0.04014501267
0.04013343207
0.04012381398
0.04011594011
0.04011028546
0.04018067374
0.04020571418
0.04020968025
0.04020227385
0.04018982382
0.04017588964
0.04016226794
0.04014975455
0.04013861907
0.04012887471
0.04012042584
0.04011315841
0.04010705667
0.04010260362
0.04005710483
0.0400771239
0.04009087639
0.04009894802
0.04010269527
0.04010347635
0.04010238274
0.04010020257
0.0400974687
0.04009452446
0.04009158343
0.04008878224
0.04008625129
0.04008431538
0.04001452985
0.0400239071
0.04003280395
0.04004055793
0.04004694239
0.04005199369
0.04005587446
0.04005878792
0.04006093245
0.04006248162
0.04006357842
0.04006433634
0.04006484134
0.04006514101
0.04000233831
0.04000689214
0.04001211084
0.0400176112
0.04002307536
0.04002827624
0.04003307299
0.04003739409
0.04004121818
0.04004455685
0.04004744037
0.04004990271
0.04005194929
0.04005342826
0.04000012482
0.04000458156
0.0400100215
0.04001594568
0.04002193585
0.04002769084
0.04003301959
0.04003781923
0.04004205133
0.04004572112
0.04004886083
0.04005151684
0.04005373696
0.04005554387
0.04005682752
0.0400118334
0.0400237407
0.04003500793
0.04004453153
0.04005206868
0.04005777656
0.04006195268
0.04006491129
0.0400669332
0.04006825081
0.04006904863
0.04006946985
0.04006962558
0.04006960798
0.04006951642
0.04006888935
0.04010429178
0.04012413917
0.04013257943
0.04013397351
0.0401314255
0.04012688405
0.04012150065
0.04011592831
0.04011052159
0.04010546087
0.04010082888
0.04009666588
0.04009304804
0.04009034517
0.0403801038
0.04042275667
0.04039071761
0.04034185674
0.04029512455
0.04025547558
0.04022316669
0.04019712645
0.04017610586
0.04015902038
0.04014501253
0.04013343194
0.04012381387
0.04011594001
0.04011028538
0.04146433172
0.04093289064
0.04063912324
0.04046735752
0.04036105841
0.04029155944
0.04024376162
0.04020938993
0.04018372091
0.04016394639
0.04014833378
0.04013580115
0.04012579055
0.04011871193
0.04042275716
0.04039071657
0.04034185581
0.04029512385
0.04025547505
0.04022316627
0.04019712612
0.04017610559
0.04015902014
0.04014501232
0.04013343175
0.04012381369
0.04011593985
0.04011028522
0.04010429131
0.04012413854
0.04013257878
0.04013397291
0.04013142497
0.04012688358
0.04012150023
0.04011592793
0.04011052124
0.04010546055
0.04010082858
0.0400966656
0.04009304777
0.04009034491
0.04002374059
0.04003500774
0.04004453128
0.04005206837
0.04005777623
0.04006195233
0.04006491093
0.04006693284
0.04006825045
0.04006904827
0.0400694695
0.04006962524
0.04006960765
0.04006951608
0.04000458153
0.04001002144
0.04001594559
0.04002193571
0.04002769067
0.04003301938
0.04003781898
0.04004205107
0.04004572083
0.04004886053
0.04005151653
0.04005373664
0.04005554354
0.04005682718
0.03999881932
0.04000233827
0.04000689209
0.04001211081
0.04001761117
0.04002307535
0.04002827626
0.04003307303
0.04003739416
0.04004121827
0.04004455696
0.04004744049
0.04004990284
0.04005194944
0.04005342842
0.04000588581
0.04001452978
0.04002390704
0.04003280391
0.04004055793
0.04004694242
0.04005199375
0.04005587454
0.04005878802
0.04006093257
0.04006248175
0.04006357856
0.04006433648
0.04006484148
0.04006514116
0.040032601
0.0400571047
0.04007712376
0.04009087631
0.040098948
0.04010269528
0.04010347639
0.04010238279
0.04010020263
0.04009746877
0.04009452453
0.0400915835
0.04008878231
0.04008625135
0.04008431544
0.0401240987
0.04018067308
0.04020571343
0.04020967964
0.04020227338
0.04018982346
0.04017588936
0.04016226771
0.04014975437
0.04013861891
0.04012887457
0.04012042573
0.04011315831
0.04010705658
0.04010260353
0.04038010313
0.04042275597
0.0403907158
0.04034185535
0.04029512359
0.04025547489
0.04022316617
0.04019712604
0.04017610554
0.04015902011
0.04014501229
0.04013343173
0.04012381367
0.04011593983
0.0401102852
0.0401240988
0.04018067265
0.0402057129
0.04020967915
0.04020227295
0.04018982309
0.04017588903
0.04016226743
0.04014975411
0.04013861869
0.04012887437
0.04012042554
0.04011315814
0.04010705642
0.04010260338
0.04005710519
0.04007712384
0.04009087616
0.04009894773
0.04010269496
0.04010347605
0.04010238244
0.04010020229
0.04009746844
0.04009452422
0.0400915832
0.04008878202
0.04008625108
0.04008431518
0.04001452992
0.04002390711
0.0400328039
0.04004055783
0.04004694226
0.04005199354
0.0400558743
0.04005878776
0.04006093229
0.04006248146
0.04006357826
0.04006433618
0.04006484119
0.04006514086
0.04000233831
0.04000689213
0.04001211081
0.04001761114
0.04002307528
0.04002827615
0.04003307288
0.04003739397
0.04004121805
0.04004455672
0.04004744024
0.04004990257
0.04005194915
0.04005342813
0.03999707591
0.03999919058
0.04000212664
0.04000575329
0.04000986427
0.04001423766
0.04001867514
0.04002302043
0.0400271629
0.0400310328
0.04003459278
0.04003782757
0.04004072833
0.04004324957
0.04004513488
0.04000017541
0.04000474739
0.04001039863
0.04001652919
0.04002261956
0.04002831603
0.04003342767
0.04003788703
0.04004170588
0.04004493911
0.04004765969
0.04004994255
0.04005185229
0.04005341964
0.04005454547
0.04000964645
0.04002100611
0.04003289435
0.04004363155
0.04005241083
0.04005907408
0.04006382323
0.04006700529
0.04006898624
0.04007009083
0.04007058219
0.04007066221
0.04007048231
0.04007016391
0.04006984755
0.04003260088
0.04005710447
0.04007712344
0.04009087594
0.04009894763
0.04010269492
0.04010347605
0.04010238247
0.04010020234
0.0400974685
0.04009452428
0.04009158328
0.0400887821
0.04008625116
0.04008431526
0.0400688886
0.0401042905
0.04012413777
0.04013257815
0.04013397242
0.04013142459
0.04012688328
0.0401215
0.04011592775
0.0401105211
0.04010546043
0.04010082848
0.04009666551
0.0400930477
0.04009034484
0.0400326008
0.04005710432
0.04007712326
0.04009087575
0.04009894743
0.04010269473
0.04010347587
0.0401023823
0.04010020218
0.04009746834
0.04009452414
0.04009158314
0.04008878197
0.04008625103
0.04008431514
0.04000964655
0.04002100617
0.04003289432
0.04004363144
0.04005241067
0.04005907387
0.040063823
0.04006700506
0.040068986
0.04007009059
0.04007058196
0.04007066199
0.04007048209
0.04007016369
0.04006984734
0.04000474751
0.04001039869
0.04001652919
0.0400226195
0.04002831593
0.04003342753
0.04003788686
0.04004170569
0.0400449389
0.04004765946
0.04004994231
0.04005185205
0.0400534194
0.04005454522
0.03999919064
0.04000212669
0.04000575333
0.04000986428
0.04001423764
0.04001867509
0.04002302035
0.04002716279
0.04003103266
0.04003459262
0.04003782739
0.04004072813
0.04004324936
0.04004513465
0.03999591323
0.03999703891
0.03999870343
0.04000091647
0.04000362525
0.04000673518
0.04001013239
0.04001370187
0.04001733935
0.04002095728
0.04002448617
0.04002787144
0.04003106049
0.04003395201
0.04003618099
0.03999710558
0.0399992335
0.04000214916
0.04000569844
0.04000966656
0.04001383895
0.04001803577
0.04002212376
0.0400260145
0.0400296562
0.04003302384
0.04003610872
0.04003890344
0.04004135924
0.04004321234
0.0400001754
0.04000474737
0.04001039859
0.04001652914
0.04002261949
0.04002831595
0.04003342759
0.04003788694
0.04004170578
0.04004493901
0.04004765959
0.04004994245
0.04005185219
0.04005341954
0.04005454537
0.04000588578
0.04001452971
0.04002390691
0.04003280374
0.04004055772
0.04004694218
0.04005199349
0.04005587428
0.04005878776
0.0400609323
0.04006248148
0.04006357829
0.04006433622
0.04006484123
0.04006514091
0.04001183321
0.04002374033
0.04003500744
0.04004453097
0.04005206808
0.04005777597
0.0400619521
0.04006491073
0.04006693266
0.0400682503
0.04006904814
0.04006946938
0.04006962513
0.04006960755
0.04006951599
0.04000588575
0.04001452966
0.04002390685
0.04003280367
0.04004055764
0.04004694209
0.0400519934
0.04005587417
0.04005878765
0.0400609322
0.04006248138
0.04006357819
0.04006433612
0.04006484113
0.04006514081
0.04000017541
0.04000474737
0.04001039858
0.04001652911
0.04002261943
0.04002831588
0.04003342749
0.04003788682
0.04004170565
0.04004493887
0.04004765944
0.04004994229
0.04005185203
0.04005341938
0.04005454521
0.03999710561
0.03999923354
0.04000214919
0.04000569846
0.04000966655
0.04001383892
0.04001803571
0.04002212369
0.0400260144
0.04002965609
0.04003302371
0.04003610858
0.04003890328
0.04004135907
0.04004321216
0.03999703895
0.03999870346
0.04000091649
0.04000362526
0.04000673517
0.04001013236
0.04001370182
0.04001733928
0.04002095719
0.04002448605
0.04002787131
0.04003106034
0.04003395184
0.04003618081
0.03999539326
0.03999606362
0.03999710425
0.0399985714
0.04000048217
0.04000281498
0.04000551725
0.04000851609
0.04001172912
0.04001507324
0.04001847049
0.04002184908
0.0400251329
0.04002818766
0.04003058461
0.03999591322
0.0399970389
0.03999870342
0.04000091646
0.04000362523
0.04000673515
0.04001013235
0.04001370183
0.04001733931
0.04002095723
0.04002448612
0.04002787139
0.04003106044
0.04003395195
0.04003618093
0.03999707591
0.03999919058
0.04000212663
0.04000575326
0.04000986423
0.0400142376
0.04001867507
0.04002302035
0.0400271628
0.04003103269
0.04003459267
0.04003782746
0.0400407282
0.04004324944
0.04004513474
0.03999881932
0.04000233826
0.04000689206
0.04001211075
0.04001761109
0.04002307524
0.04002827612
0.04003307287
0.04003739398
0.04004121807
0.04004455674
0.04004744026
0.04004990261
0.04005194919
0.04005342817
0.04000012477
0.04000458145
0.04001002133
0.04001594546
0.04002193558
0.04002769054
0.04003301925
0.04003781887
0.04004205096
0.04004572073
0.04004886044
0.04005151645
0.04005373656
0.04005554347
0.04005682711
0.03999881932
0.04000233825
0.04000689205
0.04001211074
0.04001761108
0.04002307522
0.0400282761
0.04003307284
0.04003739394
0.04004121802
0.0400445567
0.04004744021
0.04004990255
0.04005194913
0.0400534281
0.03999707591
0.03999919058
0.04000212663
0.04000575327
0.04000986422
0.04001423759
0.04001867504
0.04002302031
0.04002716275
0.04003103263
0.0400345926
0.04003782737
0.04004072811
0.04004324934
0.04004513463
0.03999591323
0.03999703891
0.03999870342
0.04000091646
0.04000362522
0.04000673513
0.04001013232
0.04001370178
0.04001733924
0.04002095714
0.04002448601
0.04002787127
0.04003106031
0.04003395181
0.04003618078
0.03999539327
0.03999606363
0.03999710426
0.03999857141
0.04000048217
0.04000281498
0.04000551724
0.04000851606
0.04001172907
0.04001507318
0.04001847041
0.04002184898
0.04002513279
0.04002818752
0.04003058445
)
;

boundaryField
{
    top
    {
        type            calculated;
        value           nonuniform List<scalar> 
127
(
0.03999539327
0.03999606363
0.03999703892
0.0399991906
0.04000233831
0.04000458153
0.04000233831
0.03999919064
0.03999703895
0.03999606363
0.03999710426
0.03999870344
0.04000212667
0.04000689214
0.04001002144
0.04000689213
0.04000212669
0.03999870346
0.03999710426
0.03999857142
0.04000091649
0.04000575332
0.04001211084
0.04001594559
0.04001211081
0.04000575333
0.04000091649
0.03999857141
0.0400004822
0.04000362528
0.0400098643
0.0400176112
0.04002193571
0.04001761114
0.04000986428
0.04000362526
0.04000048217
0.04000281502
0.04000673521
0.04001423768
0.04002307536
0.04002769067
0.04002307528
0.04001423764
0.04000673517
0.04000281498
0.0400055173
0.04001013242
0.04001867515
0.04002827624
0.04003301938
0.04002827615
0.04001867509
0.04001013236
0.04000551724
0.04000851615
0.04001370191
0.04002302044
0.04003307299
0.04003781898
0.04003307288
0.04002302035
0.04001370182
0.04000851606
0.04001172919
0.04001733939
0.0400271629
0.04003739409
0.04004205107
0.04003739397
0.04002716279
0.04001733928
0.04001172907
0.04001507332
0.04002095732
0.04003103279
0.04004121818
0.04004572083
0.04004121805
0.04003103266
0.04002095719
0.04001507318
0.04001847057
0.04002448621
0.04003459277
0.04004455685
0.04004886053
0.04004455672
0.04003459262
0.04002448605
0.04001847041
0.04002184917
0.04002787149
0.04003782756
0.04004744037
0.04005151653
0.04004744024
0.04003782739
0.04002787131
0.04002184898
0.040025133
0.04003106054
0.0400407283
0.04004990271
0.04005373664
0.04004990257
0.04004072813
0.04003106034
0.04002513279
0.04002818776
0.04003395206
0.04004324954
0.04005194929
0.04005554354
0.04005194915
0.04004324936
0.04003395184
0.04002818752
0.04003058471
0.04003618104
0.04004513484
0.04005342826
0.04005682718
0.04005342813
0.04004513465
0.04003618081
0.04003058445
)
;
    }
    bottom
    {
        type            calculated;
        value           nonuniform List<scalar> 
134
(
0.03999591325
0.03999707593
0.03999881934
0.04000012482
0.03999881932
0.03999707591
0.03999591323
0.03999539326
0.03999606365
0.03999703894
0.03999919063
0.04000233832
0.04000458156
0.04000233827
0.03999919058
0.03999703891
0.03999606362
0.03999710429
0.03999870348
0.04000212671
0.04000689216
0.0400100215
0.04000689209
0.04000212664
0.03999870343
0.03999710425
0.03999857146
0.04000091654
0.04000575338
0.04001211089
0.04001594568
0.04001211081
0.04000575329
0.04000091647
0.0399985714
0.04000048225
0.04000362534
0.04000986438
0.04001761128
0.04002193585
0.04001761117
0.04000986427
0.04000362525
0.04000048217
0.04000281508
0.04000673529
0.04001423779
0.04002307547
0.04002769084
0.04002307535
0.04001423766
0.04000673518
0.04000281498
0.04000551737
0.04001013252
0.04001867528
0.04002827639
0.04003301959
0.04002827626
0.04001867514
0.04001013239
0.04000551725
0.04000851624
0.04001370202
0.04002302059
0.04003307317
0.04003781923
0.04003307303
0.04002302043
0.04001370187
0.04000851609
0.04001172929
0.04001733953
0.04002716308
0.0400373943
0.04004205133
0.04003739416
0.0400271629
0.04001733935
0.04001172912
0.04001507344
0.04002095747
0.04003103299
0.04004121841
0.04004572112
0.04004121827
0.0400310328
0.04002095728
0.04001507324
0.04001847071
0.04002448638
0.04003459298
0.0400445571
0.04004886083
0.04004455696
0.04003459278
0.04002448617
0.04001847049
0.04002184932
0.04002787167
0.04003782779
0.04004744063
0.04005151684
0.04004744049
0.04003782757
0.04002787144
0.04002184908
0.04002513317
0.04003106074
0.04004072855
0.04004990299
0.04005373696
0.04004990284
0.04004072833
0.04003106049
0.0400251329
0.04002818794
0.04003395227
0.0400432498
0.04005194958
0.04005554387
0.04005194944
0.04004324957
0.04003395201
0.04002818766
0.0400305849
0.04003618126
0.04004513511
0.04005342856
0.04005682752
0.04005342842
0.04004513488
0.04003618099
0.04003058461
)
;
    }
    side-walls
    {
        type            calculated;
        value           nonuniform List<scalar> 
261
(
0.03999606365
0.03999703895
0.03999919065
0.04000233836
0.0400045816
0.04000233831
0.03999919061
0.03999703891
0.03999606363
0.03999710429
0.03999870349
0.04000212675
0.04000689223
0.04001002157
0.04000689217
0.04000212669
0.03999870344
0.03999710426
0.03999857146
0.04000091656
0.04000575343
0.04001211099
0.04001594578
0.0400121109
0.04000575335
0.04000091649
0.03999857142
0.04000048225
0.04000362536
0.04000986443
0.04001761138
0.04002193595
0.04001761129
0.04000986434
0.04000362528
0.0400004822
0.04000281508
0.04000673531
0.04001423784
0.04002307559
0.04002769097
0.04002307548
0.04001423774
0.04000673522
0.04000281502
0.04000551737
0.04001013254
0.04001867535
0.04002827651
0.04003301972
0.0400282764
0.04001867524
0.04001013243
0.0400055173
0.04000851624
0.04001370205
0.04002302066
0.04003307329
0.04003781936
0.04003307317
0.04002302054
0.04001370193
0.04000851615
0.04001172929
0.04001733955
0.04002716315
0.04003739442
0.04004205147
0.0400373943
0.04002716301
0.04001733942
0.04001172919
0.04001507344
0.0400209575
0.04003103306
0.04004121853
0.04004572126
0.04004121841
0.04003103291
0.04002095734
0.04001507332
0.04001847071
0.0400244864
0.04003459306
0.04004455723
0.04004886097
0.04004455711
0.0400345929
0.04002448624
0.04001847057
0.04002184932
0.0400278717
0.04003782786
0.04004744076
0.04005151698
0.04004744064
0.0400378277
0.04002787152
0.04002184917
0.04002513317
0.04003106077
0.04004072862
0.0400499031
0.04005373709
0.04004990299
0.04004072845
0.04003106058
0.040025133
0.04002818794
0.0400339523
0.04004324987
0.04005194969
0.040055544
0.04005194958
0.0400432497
0.0400339521
0.04002818776
0.0400305849
0.04003618129
0.04004513518
0.04005342867
0.04005682765
0.04005342856
0.04004513501
0.04003618108
0.04003058471
0.03999539326
0.03999591322
0.03999707591
0.03999881932
0.04000012477
0.03999881932
0.03999707591
0.03999591323
0.03999539327
0.03999606362
0.0399970389
0.03999919058
0.04000233826
0.04000458145
0.04000233825
0.03999919058
0.03999703891
0.03999606363
0.03999710425
0.03999870342
0.04000212663
0.04000689206
0.04001002133
0.04000689205
0.04000212663
0.03999870342
0.03999710426
0.0399985714
0.04000091646
0.04000575326
0.04001211075
0.04001594546
0.04001211074
0.04000575327
0.04000091646
0.03999857141
0.04000048217
0.04000362523
0.04000986423
0.04001761109
0.04002193558
0.04001761108
0.04000986422
0.04000362522
0.04000048217
0.04000281498
0.04000673515
0.0400142376
0.04002307524
0.04002769054
0.04002307522
0.04001423759
0.04000673513
0.04000281498
0.04000551725
0.04001013235
0.04001867507
0.04002827612
0.04003301925
0.0400282761
0.04001867504
0.04001013232
0.04000551724
0.04000851609
0.04001370183
0.04002302035
0.04003307287
0.04003781887
0.04003307284
0.04002302031
0.04001370178
0.04000851606
0.04001172912
0.04001733931
0.0400271628
0.04003739398
0.04004205096
0.04003739394
0.04002716275
0.04001733924
0.04001172907
0.04001507324
0.04002095723
0.04003103269
0.04004121807
0.04004572073
0.04004121802
0.04003103263
0.04002095714
0.04001507318
0.04001847049
0.04002448612
0.04003459267
0.04004455674
0.04004886044
0.0400445567
0.0400345926
0.04002448601
0.04001847041
0.04002184908
0.04002787139
0.04003782746
0.04004744026
0.04005151645
0.04004744021
0.04003782737
0.04002787127
0.04002184898
0.0400251329
0.04003106044
0.0400407282
0.04004990261
0.04005373656
0.04004990255
0.04004072811
0.04003106031
0.04002513279
0.04002818766
0.04003395195
0.04004324944
0.04005194919
0.04005554347
0.04005194913
0.04004324934
0.04003395181
0.04002818752
0.04003058461
0.04003618093
0.04004513474
0.04005342817
0.04005682711
0.0400534281
0.04004513463
0.04003618078
0.04003058445
)
;
    }
    inlet
    {
        type            calculated;
        value           nonuniform 0();
    }
    outlet
    {
        type            calculated;
        value           nonuniform List<scalar> 
81
(
0.0400305849
0.04003618129
0.04004513518
0.04005342867
0.04005682765
0.04005342856
0.04004513501
0.04003618108
0.04003058471
0.04003618126
0.04004321268
0.04005454577
0.0400651414
0.04006951652
0.04006514128
0.0400545456
0.04004321245
0.04003618104
0.04004513511
0.04005454573
0.0400698479
0.04008431571
0.04009034527
0.04008431556
0.04006984767
0.04005454548
0.04004513484
0.04005342856
0.04006514132
0.04008431567
0.0401026038
0.04011028546
0.04010260362
0.04008431538
0.04006514101
0.04005342826
0.04005682752
0.04006951642
0.04009034517
0.04011028538
0.04011871193
0.04011028522
0.04009034491
0.04006951608
0.04005682718
0.04005342842
0.04006514116
0.04008431544
0.04010260353
0.0401102852
0.04010260338
0.04008431518
0.04006514086
0.04005342813
0.04004513488
0.04005454547
0.04006984755
0.04008431526
0.04009034484
0.04008431514
0.04006984734
0.04005454522
0.04004513465
0.04003618099
0.04004321234
0.04005454537
0.04006514091
0.04006951599
0.04006514081
0.04005454521
0.04004321216
0.04003618081
0.04003058461
0.04003618093
0.04004513474
0.04005342817
0.04005682711
0.0400534281
0.04004513463
0.04003618078
0.04003058445
)
;
    }
    procBoundary1to0
    {
        type            processor;
        value           nonuniform List<scalar> 
97
(
0.03999539327
0.03999539327
0.03999591324
0.03999707591
0.03999881932
0.04000012478
0.03999881929
0.03999707589
0.03999591321
0.03999539325
0.03999524662
0.03999710562
0.03999710562
0.03999710562
0.04000017543
0.04000588578
0.04001183322
0.04000588573
0.04000017537
0.03999710556
0.03999591321
0.03999577409
0.03999713627
0.0400096466
0.0400096466
0.0400096466
0.040032601
0.04006888856
0.04003260057
0.04000964625
0.04000017535
0.03999707589
0.03999654572
0.03999953426
0.04000996968
0.04012410042
0.04012410042
0.04012410042
0.04038010159
0.04012409806
0.04003260063
0.04000588571
0.03999881929
0.03999709568
0.04000179231
0.04002153518
0.04009953602
0.04248092729
0.04248092729
0.04248092729
0.04038010224
0.04038010224
0.04006888853
0.04001183318
0.04000012475
0.03999654571
0.03999953423
0.04000996963
0.04004024859
0.04009953584
0.04004024848
0.04003260126
0.04003260126
0.04003260126
0.0400058858
0.0399988193
0.03999577409
0.03999713627
0.04000112174
0.04000996959
0.04002153487
0.04000996955
0.04000112173
0.04000017546
0.04000017546
0.04000017546
0.03999707592
0.03999524661
0.0399957846
0.03999713627
0.03999953423
0.04000179224
0.03999953422
0.03999713626
0.03999578461
0.03999591324
0.03999591324
0.03999591324
0.03999500753
0.03999524661
0.03999577409
0.03999654572
0.03999709566
0.03999654572
0.03999577409
0.03999524661
0.03999500753
)
;
    }
}


// ************************************************************************* //
