/*--------------------------------*- C++ -*----------------------------------*\
| =========                 |                                                 |
| \\      /  F ield         | OpenFOAM: The Open Source CFD Toolbox           |
|  \\    /   O peration     | Version:  4.x                                   |
|   \\  /    A nd           | Web:      www.OpenFOAM.org                      |
|    \\/     M anipulation  |                                                 |
\*---------------------------------------------------------------------------*/
FoamFile
{
    version     2.0;
    format      ascii;
    class       volScalarField;
    location    "8000";
    object      X_H2O;
}
// * * * * * * * * * * * * * * * * * * * * * * * * * * * * * * * * * * * * * //

dimensions      [0 0 0 0 0 0 0];

internalField   nonuniform List<scalar> 
1174
(
2.189142237e-06
2.666630299e-06
3.339798565e-06
4.216470895e-06
5.286733143e-06
6.526431252e-06
7.902110809e-06
9.375958073e-06
1.090984204e-05
1.246798153e-05
1.401744897e-05
1.552333546e-05
1.692406433e-05
1.802309489e-05
2.636746668e-06
3.400532955e-06
4.415966406e-06
5.658803493e-06
7.085619914e-06
8.644148743e-06
1.028160903e-05
1.195014682e-05
1.360958357e-05
1.522804879e-05
1.678050707e-05
1.824283321e-05
1.956859803e-05
2.059049683e-05
3.62424005e-06
4.971517928e-06
6.63560509e-06
8.521824087e-06
1.052832131e-05
1.256408552e-05
1.455740041e-05
1.645750577e-05
1.823241228e-05
1.986499522e-05
2.134825868e-05
2.267817298e-05
2.383393019e-05
2.469804838e-05
5.068834373e-06
7.158484735e-06
9.553109259e-06
1.207681697e-05
1.458374179e-05
1.696967996e-05
1.917000779e-05
2.115193107e-05
2.290566004e-05
2.443654426e-05
2.575849222e-05
2.688711946e-05
2.782497441e-05
2.850257308e-05
6.098329159e-06
8.5945929e-06
1.131291266e-05
1.406132049e-05
1.670162266e-05
1.914614223e-05
2.13476962e-05
2.328868732e-05
2.497152648e-05
2.641103724e-05
2.762852069e-05
2.864594141e-05
2.947377303e-05
3.006170852e-05
5.068797907e-06
7.158431439e-06
9.553036532e-06
1.207672302e-05
1.458362275e-05
1.696953452e-05
1.916983483e-05
2.115173044e-05
2.290543129e-05
2.443629332e-05
2.575821944e-05
2.68868243e-05
2.782466151e-05
2.850224385e-05
3.624199067e-06
4.97146337e-06
6.635532147e-06
8.52172499e-06
1.052818842e-05
1.256391196e-05
1.455718171e-05
1.645724158e-05
1.823209665e-05
1.986463079e-05
2.134784954e-05
2.267771876e-05
2.383343318e-05
2.469751571e-05
2.636709041e-06
3.400487765e-06
4.415908517e-06
5.658725289e-06
7.085511608e-06
8.644001409e-06
1.028141532e-05
1.194989812e-05
1.360927644e-05
1.522767798e-05
1.678007181e-05
1.824233491e-05
1.956803748e-05
2.058988246e-05
2.189116302e-06
2.666604036e-06
3.33976715e-06
4.216426381e-06
5.286665603e-06
6.526329931e-06
7.90196538e-06
9.375758109e-06
1.090958058e-05
1.246764905e-05
1.401703995e-05
1.552284986e-05
1.692349894e-05
1.8022449e-05
2.120159972e-06
2.636717694e-06
3.400503737e-06
4.415935724e-06
5.658772164e-06
7.085587354e-06
8.644115193e-06
1.028157555e-05
1.195011129e-05
1.36095487e-05
1.522801203e-05
1.678046831e-05
1.82427955e-05
1.956856226e-05
2.059046529e-05
3.643995004e-06
4.981901136e-06
6.610488151e-06
8.431159416e-06
1.034544563e-05
1.227079957e-05
1.41460814e-05
1.593071476e-05
1.76009512e-05
1.914531243e-05
2.05598325e-05
2.184112959e-05
2.29668923e-05
2.381625041e-05
6.174612928e-06
8.767855371e-06
1.158089419e-05
1.437530725e-05
1.698878378e-05
1.933371819e-05
2.137917731e-05
2.31305884e-05
2.461317007e-05
2.586041759e-05
2.690674203e-05
2.778181688e-05
2.849978572e-05
2.90153385e-05
1.06642212e-05
1.49673121e-05
1.90496796e-05
2.26073242e-05
2.553625955e-05
2.785323509e-05
2.963291912e-05
3.096861764e-05
3.19513958e-05
3.266091879e-05
3.316284038e-05
3.350924521e-05
3.373964021e-05
3.387602636e-05
1.48914114e-05
2.006176489e-05
2.443161847e-05
2.788957711e-05
3.050785433e-05
3.242303848e-05
3.377939738e-05
3.470584345e-05
3.530905032e-05
3.567371165e-05
3.586555566e-05
3.593558564e-05
3.59261315e-05
3.58829582e-05
1.06641223e-05
1.496719366e-05
1.904953548e-05
2.260714191e-05
2.553604493e-05
2.785298037e-05
2.963263584e-05
3.096830563e-05
3.195105278e-05
3.266055794e-05
3.316246268e-05
3.350885107e-05
3.373923469e-05
3.387560578e-05
6.174498612e-06
8.76773536e-06
1.158075046e-05
1.437512322e-05
1.698854862e-05
1.93334219e-05
2.137881825e-05
2.313017134e-05
2.461269675e-05
2.585989205e-05
2.690617239e-05
2.778120603e-05
2.849914231e-05
2.901466364e-05
3.643912741e-06
4.981823812e-06
6.610392637e-06
8.431028284e-06
1.034526242e-05
1.227055396e-05
1.414576692e-05
1.593032683e-05
1.760048718e-05
1.914477883e-05
2.055922859e-05
2.184046407e-05
2.296616485e-05
2.381546825e-05
2.636712551e-06
3.400488841e-06
4.41590396e-06
5.658710198e-06
7.085483463e-06
8.64395411e-06
1.028134651e-05
1.194980527e-05
1.360916023e-05
1.522753667e-05
1.67799069e-05
1.824214423e-05
1.956782275e-05
2.058963549e-05
2.653756327e-06
3.624165886e-06
4.971436378e-06
6.63551836e-06
8.521730865e-06
1.052822452e-05
1.256398533e-05
1.455729921e-05
1.645740643e-05
1.823231145e-05
1.986489647e-05
2.134816001e-05
2.267807546e-05
2.383383334e-05
2.469795629e-05
4.076415347e-06
6.174504875e-06
8.767754163e-06
1.158079553e-05
1.437521064e-05
1.698868934e-05
1.933362409e-05
2.137908797e-05
2.313050357e-05
2.461308896e-05
2.586034117e-05
2.690667008e-05
2.778174506e-05
2.849971772e-05
2.901528085e-05
1.363682778e-05
1.90920533e-05
2.401879074e-05
2.80467734e-05
3.110347014e-05
3.328162103e-05
3.474053064e-05
3.564818646e-05
3.615365787e-05
3.63777127e-05
3.641300148e-05
3.632903264e-05
3.618157503e-05
3.603527809e-05
3.020456171e-05
3.939086386e-05
4.570082346e-05
4.94033974e-05
5.112126516e-05
5.14778601e-05
5.097416154e-05
4.9971903e-05
4.871561367e-05
4.736287074e-05
4.601168152e-05
4.472474384e-05
4.356191726e-05
4.267239112e-05
5.186057738e-05
6.09677603e-05
6.483929001e-05
6.547690102e-05
6.430535879e-05
6.221906493e-05
5.974652802e-05
5.718742147e-05
5.470445864e-05
5.238040248e-05
5.025320795e-05
4.834133209e-05
4.667974369e-05
4.543827175e-05
3.020402228e-05
3.939034079e-05
4.570028756e-05
4.94028317e-05
5.112067172e-05
5.147724943e-05
5.097353283e-05
4.997126592e-05
4.871498417e-05
4.736224437e-05
4.601106515e-05
4.472413371e-05
4.35613204e-05
4.267180084e-05
1.363643748e-05
1.909171892e-05
2.401841808e-05
2.804631438e-05
3.110291092e-05
3.32809734e-05
3.473980176e-05
3.564739563e-05
3.61528188e-05
3.637683315e-05
3.641210044e-05
3.632812046e-05
3.618064714e-05
3.603433524e-05
6.174489029e-06
8.767697161e-06
1.158067356e-05
1.437499931e-05
1.698837496e-05
1.933320083e-05
2.137855714e-05
2.31298745e-05
2.46123653e-05
2.585953814e-05
2.69057969e-05
2.778081354e-05
2.849872869e-05
2.901423973e-05
3.624203277e-06
4.971450525e-06
6.635489131e-06
8.521637644e-06
1.052804653e-05
1.25637091e-05
1.4556916e-05
1.645690952e-05
1.823170237e-05
1.98641781e-05
2.134734373e-05
2.267715991e-05
2.38328281e-05
2.469685684e-05
3.453883709e-06
5.06870809e-06
7.158338931e-06
9.552948425e-06
1.207664463e-05
1.458356154e-05
1.69694967e-05
1.916982193e-05
2.115174415e-05
2.290547862e-05
2.443636817e-05
2.57583155e-05
2.68869486e-05
2.782480917e-05
2.850241847e-05
6.697200717e-06
1.066401052e-05
1.496710253e-05
1.904947564e-05
2.2607127e-05
2.553607357e-05
2.785305593e-05
2.963274614e-05
3.096845271e-05
3.195123674e-05
3.266077331e-05
3.31626955e-05
3.350910483e-05
3.373950599e-05
3.387589579e-05
1.895920131e-05
3.020415535e-05
3.939054541e-05
4.570056486e-05
4.940318223e-05
5.112108179e-05
5.147770582e-05
5.097402726e-05
4.997177642e-05
4.871550099e-05
4.736276879e-05
4.601158638e-05
4.472465095e-05
4.356183048e-05
4.267230684e-05
8.69188688e-05
9.840721313e-05
0.000100223876
9.682151547e-05
9.110480302e-05
8.470735833e-05
7.845368069e-05
7.270895997e-05
6.759683995e-05
6.312334359e-05
5.92445347e-05
5.590803383e-05
5.310661395e-05
5.106202144e-05
0.0001980238584
0.0001833137676
0.0001608842131
0.0001394325702
0.0001212326365
0.0001064021117
9.44490764e-05
8.48001424e-05
7.695745647e-05
7.052741983e-05
6.521147731e-05
6.079630666e-05
5.718171911e-05
5.458574932e-05
8.69169918e-05
9.840585168e-05
0.0001002226016
9.682025638e-05
9.110356639e-05
8.470616193e-05
7.845254908e-05
7.270787748e-05
6.759582646e-05
6.312239326e-05
5.924363814e-05
5.590719494e-05
5.310582128e-05
5.106124801e-05
3.020409052e-05
3.939018925e-05
4.569991541e-05
4.940228957e-05
5.112000519e-05
5.147651003e-05
5.097275559e-05
4.99704675e-05
4.871418679e-05
4.736146427e-05
4.601030279e-05
4.472338988e-05
4.356059231e-05
4.267107863e-05
1.066413321e-05
1.496708801e-05
1.90492805e-05
2.260673236e-05
2.55354926e-05
2.785230569e-05
2.963185837e-05
3.096745217e-05
3.195014123e-05
3.265960312e-05
3.316147112e-05
3.350783716e-05
3.373820006e-05
3.387455585e-05
5.068816473e-06
7.158402053e-06
9.552926575e-06
1.207650362e-05
1.458327957e-05
1.696906222e-05
1.916923752e-05
2.115101066e-05
2.290460958e-05
2.443537429e-05
2.575721291e-05
2.688574754e-05
2.782351447e-05
2.850102736e-05
4.053027134e-06
6.098186111e-06
8.594420818e-06
1.131271477e-05
1.406110398e-05
1.670139382e-05
1.914590222e-05
2.134745381e-05
2.328844386e-05
2.497128551e-05
2.64108005e-05
2.762828506e-05
2.864571438e-05
2.94735531e-05
3.00614864e-05
9.426788645e-06
1.489113938e-05
2.006146598e-05
2.443130909e-05
2.788926957e-05
3.050755686e-05
3.242275091e-05
3.377912187e-05
3.47055786e-05
3.530879966e-05
3.56734752e-05
3.586532737e-05
3.593536689e-05
3.592592374e-05
3.588275877e-05
3.561342866e-05
5.186002805e-05
6.096720544e-05
6.483878257e-05
6.54764366e-05
6.430494825e-05
6.221869563e-05
5.97461986e-05
5.718712548e-05
5.470419254e-05
5.238016305e-05
5.02529919e-05
4.834112813e-05
4.667955472e-05
4.543809315e-05
0.0001784522704
0.0001980218855
0.0001833124883
0.0001608832882
0.00013943189
0.0001212321294
0.000106401708
9.44487458e-05
8.479986303e-05
7.695722322e-05
7.052721352e-05
6.52113e-05
6.079615717e-05
5.718157498e-05
5.458562133e-05
0.0006760746457
0.0004321466254
0.0002973112637
0.0002184738835
0.0001696847977
0.0001377862673
0.000115848073
0.0001000721116
8.829042156e-05
7.921410604e-05
7.20479587e-05
6.629540072e-05
6.170036452e-05
5.845100307e-05
0.000198024054
0.0001833118064
0.000160881667
0.0001394300513
0.0001212303395
0.0001064000558
9.444724785e-05
8.479850037e-05
7.695599071e-05
7.052608527e-05
6.521025441e-05
6.079518999e-05
5.718066535e-05
5.458474494e-05
5.186066632e-05
6.09669405e-05
6.48378636e-05
6.54751232e-05
6.430342506e-05
6.221708234e-05
5.974454833e-05
5.718548974e-05
5.470259376e-05
5.23786151e-05
5.025149622e-05
4.833968437e-05
4.667815188e-05
4.543671172e-05
1.489143199e-05
2.006148897e-05
2.44310266e-05
2.788869808e-05
3.050674216e-05
3.242174374e-05
3.377797046e-05
3.470431435e-05
3.530745688e-05
3.56720711e-05
3.586388529e-05
3.593389146e-05
3.592442814e-05
3.588123757e-05
6.098338283e-06
8.59449737e-06
1.131266241e-05
1.4060886e-05
1.670099403e-05
1.91453233e-05
2.13467005e-05
2.328752824e-05
2.497022055e-05
2.640960752e-05
2.762698631e-05
2.864431937e-05
2.94720714e-05
3.005991863e-05
3.453871145e-06
5.068669636e-06
7.158268942e-06
9.552844176e-06
1.207650382e-05
1.458338355e-05
1.69692812e-05
1.916957288e-05
2.11514619e-05
2.290516407e-05
2.443602444e-05
2.575795041e-05
2.688656462e-05
2.78244043e-05
2.850199189e-05
6.69710235e-06
1.06638373e-05
1.496686336e-05
1.904917924e-05
2.260677944e-05
2.553568378e-05
2.785262963e-05
2.963229493e-05
3.096797525e-05
3.195074426e-05
3.26602566e-05
3.316217611e-05
3.350858067e-05
3.373897093e-05
3.387535441e-05
1.895835114e-05
3.020335781e-05
3.938967382e-05
4.569965513e-05
4.940224865e-05
5.11201402e-05
5.147677055e-05
5.09731021e-05
4.997087415e-05
4.871463307e-05
4.73619199e-05
4.601076544e-05
4.472385823e-05
4.356106112e-05
4.267155026e-05
6.095255652e-05
8.691510932e-05
9.840432327e-05
0.0001002213954
9.681930278e-05
9.110282285e-05
8.470556299e-05
7.845204504e-05
7.270747151e-05
6.759547718e-05
6.312208681e-05
5.924337303e-05
5.590695793e-05
5.310560002e-05
5.106104526e-05
0.0001784516663
0.0001980211665
0.0001833100139
0.0001608805272
0.0001394293012
0.0001212298006
0.0001063996582
9.444693205e-05
8.479826161e-05
7.695579539e-05
7.052592022e-05
6.521011682e-05
6.079505544e-05
5.718056274e-05
5.458464777e-05
6.095310682e-05
8.691497864e-05
9.840355482e-05
0.000100220232
9.68179501e-05
9.110140894e-05
8.470418766e-05
7.845073597e-05
7.270623795e-05
6.759432745e-05
6.312101464e-05
5.924237438e-05
5.590601824e-05
5.310471864e-05
5.10601851e-05
3.020456297e-05
3.93899204e-05
4.569921395e-05
4.940134982e-05
5.111894629e-05
5.147540699e-05
5.097164764e-05
4.996938392e-05
4.871313734e-05
4.736045255e-05
4.600932747e-05
4.472245695e-05
4.355968884e-05
4.267019552e-05
1.066429351e-05
1.496707458e-05
1.904909635e-05
2.260640489e-05
2.553504766e-05
2.785178451e-05
2.963127824e-05
3.096682556e-05
3.194949164e-05
3.265893631e-05
3.31607958e-05
3.35071563e-05
3.373751804e-05
3.387386628e-05
5.068859763e-06
7.158402157e-06
9.55286172e-06
1.207636525e-05
1.458306556e-05
1.696878001e-05
1.91688903e-05
2.115061318e-05
2.290416125e-05
2.443489028e-05
2.575669712e-05
2.688520627e-05
2.782295749e-05
2.850044728e-05
2.653735738e-06
3.62411439e-06
4.971349364e-06
6.635389653e-06
8.521554876e-06
1.052799475e-05
1.256369872e-05
1.455695509e-05
1.645700024e-05
1.823184733e-05
1.986437579e-05
2.134758992e-05
2.267745655e-05
2.383317159e-05
2.469725504e-05
4.076279135e-06
6.174326696e-06
8.767520063e-06
1.158050261e-05
1.437484829e-05
1.698825587e-05
1.93331195e-05
2.137851187e-05
2.312986385e-05
2.461239036e-05
2.585959291e-05
2.690588061e-05
2.778092138e-05
2.849886371e-05
2.901439355e-05
8.423108046e-06
1.363607429e-05
1.909131091e-05
2.40179888e-05
2.804587774e-05
3.110248392e-05
3.328056202e-05
3.473941243e-05
3.564702366e-05
3.615246018e-05
3.637649617e-05
3.641178301e-05
3.632781533e-05
3.618035926e-05
3.60340561e-05
1.89583225e-05
3.020315097e-05
3.93892514e-05
4.569903928e-05
4.940149846e-05
5.111931236e-05
5.147589505e-05
5.097221546e-05
4.996999615e-05
4.871376694e-05
4.736108836e-05
4.600996527e-05
4.472308418e-05
4.356030975e-05
4.26708178e-05
3.561310921e-05
5.185902277e-05
6.096553008e-05
6.483672226e-05
6.547421926e-05
6.430269342e-05
6.221648832e-05
5.974406311e-05
5.718508643e-05
5.470225119e-05
5.237832054e-05
5.02512268e-05
4.833944287e-05
4.667793843e-05
4.54365141e-05
1.895825874e-05
3.020294949e-05
3.938885431e-05
4.569847067e-05
4.940080178e-05
5.111852679e-05
5.147507328e-05
5.097138033e-05
4.996916254e-05
4.871293998e-05
4.736028331e-05
4.60091827e-05
4.472232684e-05
4.355957788e-05
4.267009246e-05
8.423376699e-06
1.363625869e-05
1.909127129e-05
2.401768889e-05
2.804534017e-05
3.110175087e-05
3.327967844e-05
3.473841993e-05
3.564596471e-05
3.615136012e-05
3.63753657e-05
3.641063853e-05
3.632666804e-05
3.617921053e-05
3.60329011e-05
6.174607034e-06
8.767648996e-06
1.158045659e-05
1.437461976e-05
1.69878458e-05
1.933254212e-05
2.137778582e-05
2.312901003e-05
2.461142836e-05
2.585853895e-05
2.690475255e-05
2.777973075e-05
2.849762165e-05
2.901309821e-05
3.624262091e-06
4.971461875e-06
6.635427352e-06
8.521484088e-06
1.052779238e-05
1.256335171e-05
1.455645801e-05
1.645635718e-05
1.823106191e-05
1.986345711e-05
2.134655048e-05
2.267630512e-05
2.383191835e-05
2.469590026e-05
2.120126789e-06
2.636662986e-06
3.400422098e-06
4.415822182e-06
5.658616657e-06
7.085381488e-06
8.643849147e-06
1.028124496e-05
1.19497113e-05
1.36090743e-05
1.522746439e-05
1.677984775e-05
1.824210373e-05
1.956780024e-05
2.058964094e-05
2.667362667e-06
3.643825672e-06
4.981705375e-06
6.610244311e-06
8.430853099e-06
1.034506405e-05
1.227033559e-05
1.414553298e-05
1.59300818e-05
1.760023277e-05
1.91445157e-05
2.055896708e-05
2.184019741e-05
2.296589949e-05
2.381520395e-05
4.076276764e-06
6.174305739e-06
8.76746685e-06
1.158040499e-05
1.437470316e-05
1.698806158e-05
1.933288119e-05
2.137823134e-05
2.312954894e-05
2.461204522e-05
2.585922329e-05
2.690549333e-05
2.778051564e-05
2.849843851e-05
2.901395449e-05
6.697104431e-06
1.066375232e-05
1.496664553e-05
1.904880727e-05
2.260625619e-05
2.553502441e-05
2.785185761e-05
2.963143367e-05
3.096705039e-05
3.194976266e-05
3.265924797e-05
3.316113727e-05
3.350752411e-05
3.373790504e-05
3.387427341e-05
9.426718486e-06
1.489082407e-05
2.00608453e-05
2.443039586e-05
2.788810857e-05
3.050620256e-05
3.242125733e-05
3.377752572e-05
3.47039135e-05
3.53070889e-05
3.567173675e-05
3.586357651e-05
3.593361117e-05
3.592416765e-05
3.588099129e-05
6.697062465e-06
1.066366649e-05
1.496649141e-05
1.904857654e-05
2.260594743e-05
2.553464917e-05
2.785143299e-05
2.963096365e-05
3.096654658e-05
3.194924004e-05
3.265870839e-05
3.316058504e-05
3.350696857e-05
3.373734357e-05
3.387370184e-05
4.076295729e-06
6.174310422e-06
8.767409594e-06
1.158025354e-05
1.437444187e-05
1.698768765e-05
1.933240055e-05
2.137765672e-05
2.312889481e-05
2.461132397e-05
2.585844698e-05
2.690466684e-05
2.777965273e-05
2.849754562e-05
2.901303097e-05
2.667423234e-06
3.643890981e-06
4.981737381e-06
6.610212415e-06
8.43073141e-06
1.034483959e-05
1.227000154e-05
1.414508827e-05
1.592952883e-05
1.759957838e-05
1.914377144e-05
2.055813384e-05
2.183928501e-05
2.296491423e-05
2.381415564e-05
2.636748708e-06
3.400484167e-06
4.415841401e-06
5.658573471e-06
7.085256774e-06
8.643626418e-06
1.028091149e-05
1.194926079e-05
1.360850465e-05
1.522677331e-05
1.677904068e-05
1.824118404e-05
1.956677453e-05
2.058851236e-05
1.881488277e-06
2.189085018e-06
2.666557438e-06
3.339702202e-06
4.216341149e-06
5.286558512e-06
6.526201355e-06
7.901817171e-06
9.375589265e-06
1.090939216e-05
1.246744614e-05
1.401682412e-05
1.552262205e-05
1.692326344e-05
1.802220789e-05
2.120126951e-06
2.636660639e-06
3.40041411e-06
4.415804485e-06
5.658585831e-06
7.08533411e-06
8.643782229e-06
1.028115389e-05
1.194959557e-05
1.36089347e-05
1.522729922e-05
1.67796603e-05
1.824189212e-05
1.956756609e-05
2.058937567e-05
2.65373851e-06
3.624106746e-06
4.971318455e-06
6.635322461e-06
8.521438921e-06
1.052782251e-05
1.256346349e-05
1.455665359e-05
1.645663564e-05
1.823142284e-05
1.98638943e-05
2.134705515e-05
2.267687586e-05
2.383254463e-05
2.469657641e-05
3.453878192e-06
5.068643617e-06
7.158178407e-06
9.552660262e-06
1.207620555e-05
1.45829607e-05
1.696873147e-05
1.916889954e-05
2.115067701e-05
2.290427921e-05
2.443505066e-05
2.57568991e-05
2.688544503e-05
2.782322478e-05
2.850074458e-05
4.053012463e-06
6.098089907e-06
8.594193453e-06
1.131232119e-05
1.406052599e-05
1.670062767e-05
1.914495817e-05
2.134634445e-05
2.328718563e-05
2.496989549e-05
2.640929899e-05
2.762669325e-05
2.864403851e-05
2.947180476e-05
3.005966652e-05
3.453865416e-06
5.068614186e-06
7.158122114e-06
9.552566435e-06
1.207606895e-05
1.45827772e-05
1.696850457e-05
1.916862758e-05
2.115036321e-05
2.290392767e-05
2.443466849e-05
2.575648926e-05
2.688500602e-05
2.782276897e-05
2.850027044e-05
2.653734942e-06
3.624094892e-06
4.97128221e-06
6.635243859e-06
8.521303112e-06
1.052761699e-05
1.256318305e-05
1.455629828e-05
1.645620516e-05
1.82309179e-05
1.986332418e-05
2.134642494e-05
2.267618922e-05
2.38318104e-05
2.469579719e-05
2.120133614e-06
2.636668959e-06
3.400409579e-06
4.415769096e-06
5.658501644e-06
7.085184182e-06
8.643555951e-06
1.028084262e-05
1.194919381e-05
1.360843838e-05
1.522671119e-05
1.677898227e-05
1.824112995e-05
1.956672432e-05
2.058846489e-05
1.881505715e-06
2.189108865e-06
2.666576572e-06
3.3397013e-06
4.216303605e-06
5.286467228e-06
6.526038414e-06
7.901568463e-06
9.375244317e-06
1.090894131e-05
1.24668835e-05
1.401614778e-05
1.552183312e-05
1.692236374e-05
1.802120014e-05
)
;

boundaryField
{
    top
    {
        type            calculated;
        value           nonuniform List<scalar> 
127
(
1.881505715e-06
2.189116302e-06
2.636712551e-06
3.624203277e-06
5.068816473e-06
6.098338283e-06
5.068859763e-06
3.624262091e-06
2.636748708e-06
2.189108865e-06
2.666604036e-06
3.400488841e-06
4.971450525e-06
7.158402053e-06
8.59449737e-06
7.158402157e-06
4.971461875e-06
3.400484167e-06
2.666576572e-06
3.33976715e-06
4.41590396e-06
6.635489131e-06
9.552926575e-06
1.131266241e-05
9.55286172e-06
6.635427352e-06
4.415841401e-06
3.3397013e-06
4.216426381e-06
5.658710198e-06
8.521637644e-06
1.207650362e-05
1.4060886e-05
1.207636525e-05
8.521484088e-06
5.658573471e-06
4.216303605e-06
5.286665603e-06
7.085483463e-06
1.052804653e-05
1.458327957e-05
1.670099403e-05
1.458306556e-05
1.052779238e-05
7.085256774e-06
5.286467228e-06
6.526329931e-06
8.64395411e-06
1.25637091e-05
1.696906222e-05
1.91453233e-05
1.696878001e-05
1.256335171e-05
8.643626418e-06
6.526038414e-06
7.90196538e-06
1.028134651e-05
1.4556916e-05
1.916923752e-05
2.13467005e-05
1.91688903e-05
1.455645801e-05
1.028091149e-05
7.901568463e-06
9.375758109e-06
1.194980527e-05
1.645690952e-05
2.115101066e-05
2.328752824e-05
2.115061318e-05
1.645635718e-05
1.194926079e-05
9.375244317e-06
1.090958058e-05
1.360916023e-05
1.823170237e-05
2.290460958e-05
2.497022055e-05
2.290416125e-05
1.823106191e-05
1.360850465e-05
1.090894131e-05
1.246764905e-05
1.522753667e-05
1.98641781e-05
2.443537429e-05
2.640960752e-05
2.443489028e-05
1.986345711e-05
1.522677331e-05
1.24668835e-05
1.401703995e-05
1.67799069e-05
2.134734373e-05
2.575721291e-05
2.762698631e-05
2.575669712e-05
2.134655048e-05
1.677904068e-05
1.401614778e-05
1.552284986e-05
1.824214423e-05
2.267715991e-05
2.688574754e-05
2.864431937e-05
2.688520627e-05
2.267630512e-05
1.824118404e-05
1.552183312e-05
1.692349894e-05
1.956782275e-05
2.38328281e-05
2.782351447e-05
2.94720714e-05
2.782295749e-05
2.383191835e-05
1.956677453e-05
1.692236374e-05
1.8022449e-05
2.058963549e-05
2.469685684e-05
2.850102736e-05
3.005991863e-05
2.850044728e-05
2.469590026e-05
2.058851236e-05
1.802120014e-05
)
;
    }
    bottom
    {
        type            calculated;
        value           nonuniform List<scalar> 
134
(
2.120159972e-06
2.653756327e-06
3.453883709e-06
4.053027134e-06
3.453871145e-06
2.653735738e-06
2.120126789e-06
1.881488277e-06
2.189142237e-06
2.636717694e-06
3.624165886e-06
5.06870809e-06
6.098186111e-06
5.068669636e-06
3.62411439e-06
2.636662986e-06
2.189085018e-06
2.666630299e-06
3.400503737e-06
4.971436378e-06
7.158338931e-06
8.594420818e-06
7.158268942e-06
4.971349364e-06
3.400422098e-06
2.666557438e-06
3.339798565e-06
4.415935724e-06
6.63551836e-06
9.552948425e-06
1.131271477e-05
9.552844176e-06
6.635389653e-06
4.415822182e-06
3.339702202e-06
4.216470895e-06
5.658772164e-06
8.521730865e-06
1.207664463e-05
1.406110398e-05
1.207650382e-05
8.521554876e-06
5.658616657e-06
4.216341149e-06
5.286733143e-06
7.085587354e-06
1.052822452e-05
1.458356154e-05
1.670139382e-05
1.458338355e-05
1.052799475e-05
7.085381488e-06
5.286558512e-06
6.526431252e-06
8.644115193e-06
1.256398533e-05
1.69694967e-05
1.914590222e-05
1.69692812e-05
1.256369872e-05
8.643849147e-06
6.526201355e-06
7.902110809e-06
1.028157555e-05
1.455729921e-05
1.916982193e-05
2.134745381e-05
1.916957288e-05
1.455695509e-05
1.028124496e-05
7.901817171e-06
9.375958073e-06
1.195011129e-05
1.645740643e-05
2.115174415e-05
2.328844386e-05
2.11514619e-05
1.645700024e-05
1.19497113e-05
9.375589265e-06
1.090984204e-05
1.36095487e-05
1.823231145e-05
2.290547862e-05
2.497128551e-05
2.290516407e-05
1.823184733e-05
1.36090743e-05
1.090939216e-05
1.246798153e-05
1.522801203e-05
1.986489647e-05
2.443636817e-05
2.64108005e-05
2.443602444e-05
1.986437579e-05
1.522746439e-05
1.246744614e-05
1.401744897e-05
1.678046831e-05
2.134816001e-05
2.57583155e-05
2.762828506e-05
2.575795041e-05
2.134758992e-05
1.677984775e-05
1.401682412e-05
1.552333546e-05
1.82427955e-05
2.267807546e-05
2.68869486e-05
2.864571438e-05
2.688656462e-05
2.267745655e-05
1.824210373e-05
1.552262205e-05
1.692406433e-05
1.956856226e-05
2.383383334e-05
2.782480917e-05
2.94735531e-05
2.78244043e-05
2.383317159e-05
1.956780024e-05
1.692326344e-05
1.802309489e-05
2.059046529e-05
2.469795629e-05
2.850241847e-05
3.00614864e-05
2.850199189e-05
2.469725504e-05
2.058964094e-05
1.802220789e-05
)
;
    }
    side-walls
    {
        type            calculated;
        value           nonuniform List<scalar> 
261
(
2.189142237e-06
2.636746668e-06
3.62424005e-06
5.068834373e-06
6.098329159e-06
5.068797907e-06
3.624199067e-06
2.636709041e-06
2.189116302e-06
2.666630299e-06
3.400532955e-06
4.971517928e-06
7.158484735e-06
8.5945929e-06
7.158431439e-06
4.97146337e-06
3.400487765e-06
2.666604036e-06
3.339798565e-06
4.415966406e-06
6.63560509e-06
9.553109259e-06
1.131291266e-05
9.553036532e-06
6.635532147e-06
4.415908517e-06
3.33976715e-06
4.216470895e-06
5.658803493e-06
8.521824087e-06
1.207681697e-05
1.406132049e-05
1.207672302e-05
8.52172499e-06
5.658725289e-06
4.216426381e-06
5.286733143e-06
7.085619914e-06
1.052832131e-05
1.458374179e-05
1.670162266e-05
1.458362275e-05
1.052818842e-05
7.085511608e-06
5.286665603e-06
6.526431252e-06
8.644148743e-06
1.256408552e-05
1.696967996e-05
1.914614223e-05
1.696953452e-05
1.256391196e-05
8.644001409e-06
6.526329931e-06
7.902110809e-06
1.028160903e-05
1.455740041e-05
1.917000779e-05
2.13476962e-05
1.916983483e-05
1.455718171e-05
1.028141532e-05
7.90196538e-06
9.375958073e-06
1.195014682e-05
1.645750577e-05
2.115193107e-05
2.328868732e-05
2.115173044e-05
1.645724158e-05
1.194989812e-05
9.375758109e-06
1.090984204e-05
1.360958357e-05
1.823241228e-05
2.290566004e-05
2.497152648e-05
2.290543129e-05
1.823209665e-05
1.360927644e-05
1.090958058e-05
1.246798153e-05
1.522804879e-05
1.986499522e-05
2.443654426e-05
2.641103724e-05
2.443629332e-05
1.986463079e-05
1.522767798e-05
1.246764905e-05
1.401744897e-05
1.678050707e-05
2.134825868e-05
2.575849222e-05
2.762852069e-05
2.575821944e-05
2.134784954e-05
1.678007181e-05
1.401703995e-05
1.552333546e-05
1.824283321e-05
2.267817298e-05
2.688711946e-05
2.864594141e-05
2.68868243e-05
2.267771876e-05
1.824233491e-05
1.552284986e-05
1.692406433e-05
1.956859803e-05
2.383393019e-05
2.782497441e-05
2.947377303e-05
2.782466151e-05
2.383343318e-05
1.956803748e-05
1.692349894e-05
1.802309489e-05
2.059049683e-05
2.469804838e-05
2.850257308e-05
3.006170852e-05
2.850224385e-05
2.469751571e-05
2.058988246e-05
1.8022449e-05
1.881488277e-06
2.120126951e-06
2.65373851e-06
3.453878192e-06
4.053012463e-06
3.453865416e-06
2.653734942e-06
2.120133614e-06
1.881505715e-06
2.189085018e-06
2.636660639e-06
3.624106746e-06
5.068643617e-06
6.098089907e-06
5.068614186e-06
3.624094892e-06
2.636668959e-06
2.189108865e-06
2.666557438e-06
3.40041411e-06
4.971318455e-06
7.158178407e-06
8.594193453e-06
7.158122114e-06
4.97128221e-06
3.400409579e-06
2.666576572e-06
3.339702202e-06
4.415804485e-06
6.635322461e-06
9.552660262e-06
1.131232119e-05
9.552566435e-06
6.635243859e-06
4.415769096e-06
3.3397013e-06
4.216341149e-06
5.658585831e-06
8.521438921e-06
1.207620555e-05
1.406052599e-05
1.207606895e-05
8.521303112e-06
5.658501644e-06
4.216303605e-06
5.286558512e-06
7.08533411e-06
1.052782251e-05
1.45829607e-05
1.670062767e-05
1.45827772e-05
1.052761699e-05
7.085184182e-06
5.286467228e-06
6.526201355e-06
8.643782229e-06
1.256346349e-05
1.696873147e-05
1.914495817e-05
1.696850457e-05
1.256318305e-05
8.643555951e-06
6.526038414e-06
7.901817171e-06
1.028115389e-05
1.455665359e-05
1.916889954e-05
2.134634445e-05
1.916862758e-05
1.455629828e-05
1.028084262e-05
7.901568463e-06
9.375589265e-06
1.194959557e-05
1.645663564e-05
2.115067701e-05
2.328718563e-05
2.115036321e-05
1.645620516e-05
1.194919381e-05
9.375244317e-06
1.090939216e-05
1.36089347e-05
1.823142284e-05
2.290427921e-05
2.496989549e-05
2.290392767e-05
1.82309179e-05
1.360843838e-05
1.090894131e-05
1.246744614e-05
1.522729922e-05
1.98638943e-05
2.443505066e-05
2.640929899e-05
2.443466849e-05
1.986332418e-05
1.522671119e-05
1.24668835e-05
1.401682412e-05
1.67796603e-05
2.134705515e-05
2.57568991e-05
2.762669325e-05
2.575648926e-05
2.134642494e-05
1.677898227e-05
1.401614778e-05
1.552262205e-05
1.824189212e-05
2.267687586e-05
2.688544503e-05
2.864403851e-05
2.688500602e-05
2.267618922e-05
1.824112995e-05
1.552183312e-05
1.692326344e-05
1.956756609e-05
2.383254463e-05
2.782322478e-05
2.947180476e-05
2.782276897e-05
2.38318104e-05
1.956672432e-05
1.692236374e-05
1.802220789e-05
2.058937567e-05
2.469657641e-05
2.850074458e-05
3.005966652e-05
2.850027044e-05
2.469579719e-05
2.058846489e-05
1.802120014e-05
)
;
    }
    inlet
    {
        type            calculated;
        value           nonuniform 0();
    }
    outlet
    {
        type            calculated;
        value           nonuniform List<scalar> 
81
(
1.802309489e-05
2.059049683e-05
2.469804838e-05
2.850257308e-05
3.006170852e-05
2.850224385e-05
2.469751571e-05
2.058988246e-05
1.8022449e-05
2.059046529e-05
2.381625041e-05
2.90153385e-05
3.387602636e-05
3.58829582e-05
3.387560578e-05
2.901466364e-05
2.381546825e-05
2.058963549e-05
2.469795629e-05
2.901528085e-05
3.603527809e-05
4.267239112e-05
4.543827175e-05
4.267180084e-05
3.603433524e-05
2.901423973e-05
2.469685684e-05
2.850241847e-05
3.387589579e-05
4.267230684e-05
5.106202144e-05
5.458574932e-05
5.106124801e-05
4.267107863e-05
3.387455585e-05
2.850102736e-05
3.00614864e-05
3.588275877e-05
4.543809315e-05
5.458562133e-05
5.845100307e-05
5.458474494e-05
4.543671172e-05
3.588123757e-05
3.005991863e-05
2.850199189e-05
3.387535441e-05
4.267155026e-05
5.106104526e-05
5.458464777e-05
5.10601851e-05
4.267019552e-05
3.387386628e-05
2.850044728e-05
2.469725504e-05
2.901439355e-05
3.60340561e-05
4.26708178e-05
4.54365141e-05
4.267009246e-05
3.60329011e-05
2.901309821e-05
2.469590026e-05
2.058964094e-05
2.381520395e-05
2.901395449e-05
3.387427341e-05
3.588099129e-05
3.387370184e-05
2.901303097e-05
2.381415564e-05
2.058851236e-05
1.802220789e-05
2.058937567e-05
2.469657641e-05
2.850074458e-05
3.005966652e-05
2.850027044e-05
2.469579719e-05
2.058846489e-05
1.802120014e-05
)
;
    }
    procBoundary1to0
    {
        type            processor;
        value           nonuniform List<scalar> 
97
(
1.881505109e-06
1.881505109e-06
2.120130025e-06
2.653712638e-06
3.453799326e-06
4.052892387e-06
3.453771214e-06
2.653678643e-06
2.120096127e-06
1.881471842e-06
1.814197034e-06
2.667425916e-06
2.667425916e-06
2.667425916e-06