/*--------------------------------*- C++ -*----------------------------------*\
| =========                 |                                                 |
| \\      /  F ield         | OpenFOAM: The Open Source CFD Toolbox           |
|  \\    /   O peration     | Version:  4.x                                   |
|   \\  /    A nd           | Web:      www.OpenFOAM.org                      |
|    \\/     M anipulation  |                                                 |
\*---------------------------------------------------------------------------*/
FoamFile
{
    version     2.0;
    format      ascii;
    class       volScalarField;
    location    "4000";
    object      molarConc;
}
// * * * * * * * * * * * * * * * * * * * * * * * * * * * * * * * * * * * * * //

dimensions      [0 -3 0 0 1 0 0];

internalField   nonuniform List<scalar> 
1174
(
9.963272686
9.963270213
9.963268014
9.963265275
9.963260936
9.963255907
9.96324864
9.963242776
9.963236625
9.963230794
9.963223754
9.96321827
9.963212504
9.963207058
9.963267406
9.963263338
9.963259533
9.963254589
9.963249051
9.963242854
9.963236945
9.963230989
9.963223742
9.963216774
9.963210277
9.963205143
9.963199057
9.963195125
9.963291445
9.963285616
9.963278227
9.963270217
9.963262075
9.963255137
9.963246746
9.96323944
9.963232485
9.963225254
9.963219958
9.963213189
9.963206737
9.963203614
9.963229486
9.963220621
9.9632115
9.963201769
9.963190184
9.963179607
9.963170797
9.963161954
9.963154256
9.963149001
9.963144618
9.96314043
9.963138124
9.963133699
9.963237869
9.963228201
9.963217439
9.963206001
9.963195013
9.963184165
9.963175021
9.96316786
9.963161018
9.963156181
9.963152
9.963147303
9.963142917
9.963141223
9.963307825
9.963297901
9.963288448
9.963277519
9.963266497
9.963257745
9.963248351
9.963239433
9.963233284
9.963227221
9.963219827
9.963215269
9.963211684
9.963208482
9.963283423
9.963277852
9.963270664
9.963262432
9.96325262
9.963244975
9.963236692
9.963229031
9.963221055
9.963214204
9.963208112
9.963202023
9.963197573
9.963194477
9.963253466
9.963250271
9.963246295
9.963241331
9.963234873
9.963228885
9.963223002
9.963214712
9.963208713
9.963200586
9.963195303
9.963190175
9.96318611
9.963180836
9.963278213
9.963275918
9.963272308
9.963268826
9.963264565
9.963260077
9.963253687
9.963248279
9.963242265
9.963234829
9.963228916
9.963222464
9.963216704
9.963211371
9.963260642
9.963257732
9.963255027
9.963250633
9.963245536
9.963239627
9.963233659
9.9632269
9.963220605
9.963213646
9.963206909
9.963201016
9.963194159
9.963187878
9.963183323
9.963260752
9.96325572
9.96325006
9.963243171
9.963235903
9.963229685
9.963222574
9.96321719
9.963209975
9.963204082
9.963197887
9.963192781
9.963188658
9.96318484
9.963242716
9.963231826
9.963220021
9.963208027
9.963196571
9.963187052
9.963178583
9.963171505
9.963164598
9.963160431
9.963155719
9.963152107
9.963149181
9.963147463
9.963215912
9.963197944
9.963181629
9.963166849
9.963154553
9.963142912
9.963136396
9.963131625
9.963127774
9.963124824
9.963122346
9.963119959
9.963117511
9.963117487
9.963212455
9.963192199
9.963173961
9.963160208
9.963149443
9.963140866
9.963135253
9.963131736
9.963128586
9.963126593
9.963123448
9.963123168
9.96312285
9.96312245
9.96322588
9.963208611
9.963190882
9.963176795
9.963166754
9.963158318
9.963150303
9.963145438
9.963142144
9.96313835
9.96313563
9.963134339
9.963133864
9.963133601
9.963221988
9.963213023
9.96320074
9.963190603
9.963179331
9.963168936
9.963160073
9.963152168
9.963146792
9.963142023
9.963137601
9.963133986
9.963132174
9.963130549
9.963287011
9.963280396
9.963276302
9.963269277
9.96326078
9.963251552
9.963246074
9.963237595
9.963230197
9.963222552
9.963217498
9.963213194
9.963207532
9.963204765
9.963237808
9.963234254
9.963230762
9.963226785
9.963222226
9.96321726
9.963209493
9.96320276
9.963194794
9.963188556
9.963181259
9.963174736
9.963170147
9.963165305
9.963274769
9.963269802
9.963264295
9.963257425
9.963250355
9.963242428
9.963233342
9.963224368
9.963216815
9.963209569
9.963202742
9.963196508
9.963191027
9.963185656
9.963181154
9.963297448
9.963288109
9.963278154
9.963267416
9.963255168
9.963244388
9.963235052
9.963227331
9.963220521
9.963214763
9.963208086
9.963203938
9.963200063
9.963196836
9.963194431
9.963232944
9.963211208
9.963190486
9.963174552
9.963163346
9.963152835
9.963145673
9.963141466
9.963139016
9.963138822
9.963138723
9.963139312
9.963140122
9.963140631
9.963169628
9.963131876
9.963104402
9.96308924
9.963082757
9.963082188
9.963083396
9.963086572
9.96309147
9.963096945
9.963103114
9.963107618
9.963111637
9.963114294
9.963041755
9.963004671
9.962988321
9.962985653
9.962990568
9.962999165
9.963009153
9.963020575
9.96303048
9.963038828
9.963049251
9.963057768
9.963064532
9.96307016
9.963182628
9.963143881
9.963118568
9.963104291
9.96309601
9.963094236
9.963097318
9.963100766
9.963105444
9.963110344
9.963116019
9.963122192
9.963126385
9.963131198
9.963212101
9.963187161
9.963168147
9.963151343
9.96313938
9.963130971
9.96312547
9.963120345
9.963118588
9.963117485
9.963117543
9.963119079
9.963119316
9.963119005
9.96325
9.963237736
9.963226027
9.963214254
9.963203927
9.963194721
9.963187051
9.96317895
9.963174198
9.96316994
9.963164391
9.963160846
9.963157497
9.963155644
9.963285156
9.963279786
9.963273464
9.963265492
9.963257489
9.963247972
9.963239278
9.963230956
9.963224087
9.963217378
9.963211041
9.963206012
9.963201607
9.963199157
9.963283226
9.963276282
9.96326768
9.963257094
9.963246256
9.96323567
9.963226821
9.963217866
9.963208506
9.963201982
9.963196009
9.963190015
9.963187164
9.963182668
9.963180625
9.963279687
9.963263801
9.963245579
9.963227505
9.963212421
9.963200612
9.963192767
9.963184662
9.963180172
9.963174232
9.963170326
9.963170384
9.963168538
9.963167214
9.96316603
9.963216831
9.963171174
9.963131031
9.963106014
9.963091421
9.96308343
9.963082708
9.963084362
9.963088129
9.963093122
9.963097657
9.963103677
9.963108331
9.963112695
9.963114041
9.962938617
9.962891845
9.962885365
9.962898955
9.962921617
9.962947159
9.962973858
9.962999119
9.963019244
9.963038225
9.963051998
9.963065485
9.963077007
9.96308453
9.962527272
9.962589677
9.962681924
9.962770636
9.962844489
9.962906898
9.962956163
9.962994736
9.963028221
9.963054314
9.963076951
9.963096748
9.963113876
9.963121708
9.962939187
9.962891658
9.962883799
9.962896575
9.962922078
9.962947434
9.962972541
9.962996572
9.96301688
9.963036181
9.963053263
9.963067392
9.963079532
9.963087901
9.963182849
9.963147049
9.963120732
9.96310473
9.963098411
9.963097061
9.963096882
9.963101988
9.963106714
9.963111049
9.96311648
9.963121284
9.963125797
9.963128661
9.963196015
9.963178031
9.963162073
9.963148406
9.96313635
9.963125608
9.963117628
9.963111652
9.963108226
9.963104435
9.963102139
9.963101784
9.963101161
9.963101187
9.963254769
9.963245607
9.963236074
9.963226241
9.963216494
9.963207303
9.963198966
9.963190953
9.963184377
9.963177523
9.96317023
9.96316556
9.96316245
9.963158981
9.963255307
9.963247422
9.96323687
9.96322399
9.963212904
9.963202151
9.963191378
9.963182842
9.963175209
9.963167955
9.963162766
9.963157971
9.963153565
9.963151548
9.963148661
9.963268958
9.963246053
9.963224472
9.963205245
9.963190979
9.963180408
9.963172329
9.963166097
9.963162837
9.963160762
9.963159191
9.963158091
9.963156577
9.963158166
9.963157755
9.963111669
9.963045847
9.963007503
9.962991678
9.962989633
9.962994357
9.963002182
9.963012917
9.963024232
9.963034667
9.9630447
9.963051633
9.963061276
9.963068315
9.963075141
9.962591279
9.962510941
9.962571464
9.962662343
9.962749784
9.962823847
9.962884512
9.962933927
9.962972889
9.963003968
9.963031308
9.963051845
9.963070457
9.963085251
9.963097527
10.02097488
10.02202806
10.02263639
10.02301238
10.02326419
10.023444
10.02358486
10.02370062
10.02380176
10.02389019
10.02397092
10.02404457
10.02411372
10.02417876
9.962490703
9.962550948
9.962640647
9.962728802
9.962801829
9.962863178
9.962911773
9.962952824
9.962983799
9.963009717
9.963030717
9.963049537
9.963065077
9.963075802
9.963065487
9.963027359
9.963012433
9.963009224
9.963013896
9.96302219
9.963031729
9.96304177
9.963051209
9.963061959
9.963070721
9.963079263
9.963084962
9.963090347
9.963235747
9.963213382
9.963194757
9.96318079
9.963172225
9.963164022
9.963159116
9.963152795
9.963150422
9.963148499
9.963148448
9.963148953
9.963148921
9.963149822
9.963290348
9.963280403
9.963269248
9.963257515
9.963246784
9.96323732
9.963228506
9.963221282
9.963213671
9.963208683
9.963202386
9.963198444
9.963195274
9.963192862
9.963300638
9.963294638
9.963285952
9.963277132
9.963265328
9.963255997
9.963246819
9.963237292
9.963229469
9.963222025
9.963215879
9.963209446
9.963205348
9.963201473
9.963199926
9.963267272
9.963251862
9.963233174
9.963216168
9.963202234
9.963189909
9.963180949
9.963171881
9.963166142
9.963163686
9.963158582
9.963158049
9.96315652
9.963154359
9.963153663
9.963209181
9.963164268
9.963127178
9.963101182
9.963085741
9.963077905
9.963077101
9.963078898
9.963083435
9.963087857
9.963092517
9.963097911
9.963103669
9.963108127
9.963111858
9.963023969
9.962916175
9.962867895
9.962862019
9.962877399
9.962901467
9.96292742
9.962952229
9.962976502
9.96299735
9.963015852
9.963029393
9.963043742
9.963055507
9.963064622
9.962574886
9.962494136
9.96255514
9.962645164
9.962732762
9.962807576
9.962868042
9.962917718
9.962958263
9.962992361
9.963019162
9.963041175
9.963057873
9.963072979
9.963083403
9.963045485
9.96293861
9.962889584
9.962881532
9.962896253
9.962920575
9.962948054
9.962973392
9.96299702
9.963018198
9.963035746
9.963050826
9.963065014
9.963077548
9.963085862
9.963159639
9.963121548
9.963095606
9.96308075
9.963076077
9.963073264
9.963074361
9.963078836
9.963086425
9.963092991
9.963098815
9.963102773
9.963108355
9.963114611
9.963276369
9.963257695
9.963241766
9.963227716
9.963215703
9.963206334
9.963198877
9.963194463
9.963191237
9.963189556
9.963188693
9.963187672
9.963186921
9.963184967
9.963271957
9.96326393
9.963253856
9.963243427
9.963232691
9.963222627
9.96321374
9.963205397
9.963197742
9.963191677
9.963185839
9.963181182
9.963177264
9.963174503
9.963270144
9.963265866
9.963260415
9.963252923
9.963244465
9.963236805
9.963228051
9.963219927
9.963211397
9.963204512
9.963197965
9.963190518
9.963185429
9.963180729
9.963177384
9.96322979
9.963220368
9.963209481
9.963198407
9.963187961
9.963177424
9.963170185
9.963161054
9.963153948
9.963146764
9.963141951
9.963137986
9.963134001
9.9631326
9.963130581
9.96320472
9.963180293
9.963157675
9.963137311
9.96311912
9.963107726
9.963098078
9.963092047
9.963088559
9.963086246
9.963084567
9.963084523
9.963084468
9.963085058
9.963085908
9.963202269
9.963156019
9.963119572
9.963094184
9.963077401
9.963070893
9.963068164
9.96306929
9.963072514
9.963077953
9.963084384
9.96309055
9.963096583
9.963100006
9.963103617
9.963150725
9.963083025
9.963045585
9.963029814
9.963028183
9.963033802
9.963041607
9.963052278
9.963062923
9.963072785
9.963081065
9.963089575
9.963096635
9.963103417
9.963108421
9.963217484
9.963171516
9.963133895
9.963108392
9.963092545
9.963084979
9.963083748
9.963086137
9.963089724
9.963095008
9.963101749
9.963105938
9.963110694
9.963115937
9.963118561
9.963240846
9.963219529
9.963196619
9.963176256
9.96315877
9.963146256
9.963135309
9.963128173
9.963123538
9.963121129
9.963120312
9.96311962
9.963121056
9.96312104
9.963121485
9.963260298
9.963248665
9.963237929
9.963226074
9.963215703
9.963205858
9.963196571
9.963188505
9.963183376
9.963179318
9.96317573
9.963172233
9.963170077
9.963167644
9.963267061
9.96326056
9.96325378
9.96324519
9.963235783
9.963227251
9.963218964
9.963212406
9.963205106
9.963199653
9.963192794
9.963187271
9.963183135
9.963180851
9.963257468
9.96325366
9.963250315
9.963246736
9.963240334
9.963233784
9.963227078
9.963220735
9.96321473
9.963207698
9.963201711
9.963195602
9.963188466
9.963183475
9.963179632
9.963288882
9.96328441
9.963278438
9.963272378
9.963263627
9.96325617
9.963248905
9.963240375
9.963235176
9.963227877
9.963221849
9.963215314
9.963210772
9.96320479
9.963200661
9.963266875
9.963258942
9.963247987
9.963237397
9.963225497
9.963214654
9.963203678
9.963195844
9.963188815
9.963182359
9.963176988
9.963174562
9.963171942
9.963167792
9.963165366
9.963268706
9.963252734
9.963236957
9.963219697
9.96320493
9.963192891
9.963183709
9.963177939
9.963173283
9.963168828
9.963165125
9.963164648
9.963162147
9.963162128
9.963160506
9.963237466
9.963215527
9.963194129
9.963176426
9.963161648
9.963150046
9.963142555
9.963137992
9.963134554
9.963132135
9.963131425
9.963131328
9.963130986
9.963130522
9.963129856
9.963242132
9.963226564
9.963209659
9.963192684
9.963179422
9.963167574
9.963157105
9.963149835
9.963141801
9.963137944
9.96313459
9.963133028
9.963134341
9.963133932
9.963133038
9.963262038
9.963254069
9.963244596
9.963232919
9.963221843
9.963210915
9.96320136
9.96319348
9.963186861
9.963182013
9.963176245
9.963172844
9.963168947
9.963166483
9.963161818
9.963262947
9.963258871
9.963254486
9.963247028
9.963240337
9.963232194
9.963224063
9.963218008
9.963209725
9.963202632
9.963197534
9.963192716
9.963187876
9.963181922
9.963178288
9.963263496
9.96325995
9.963256146
9.963251958
9.963246516
9.963240648
9.963233457
9.963226458
9.963219062
9.963212134
9.963205542
9.963200039
9.963194378
9.963190615
9.963280019
9.963277911
9.963275429
9.963273183
9.963269803
9.963265518
9.963260314
9.963255335
9.963249032
9.96324323
9.963236023
9.963229642
9.963222582
9.963216872
9.963213352
9.963280293
9.963278798
9.963276201
9.963271629
9.963266163
9.963258514
9.963252994
9.963245082
9.963238631
9.963231201
9.963225344
9.963218316
9.963211217
9.963204894
9.963200654
9.963257179
9.963253887
9.963247452
9.96324157
9.963232652
9.963225439
9.963218569
9.963210706
9.963202585
9.963194788
9.963187919
9.963181149
9.963174607
9.96317015
9.963167388
9.963264032
9.963257688
9.963250008
9.963241012
9.963230333
9.963218865
9.96320934
9.963200992
9.963192022
9.963184611
9.963176462
9.963171263
9.963167249
9.963162653
9.963160205
9.963264114
9.963255507
9.963244347
9.963233723
9.963222291
9.963211771
9.963201149
9.963192746
9.963184876
9.96317741
9.963172525
9.963167789
9.963163696
9.963160946
9.963157872
9.963230314
9.96322412
9.963215744
9.963206341
9.963196115
9.963185913
9.963174744
9.963165702
9.963158036
9.963150558
9.963144204
9.963138989
9.963134789
9.963131623
9.963128395
9.963262627
9.96325809
9.963252975
9.963245445
9.963237265
9.963229446
9.96322106
9.963213485
9.963206121
9.963199878
9.963192324
9.963185864
9.963180932
9.963176908
9.96317391
9.963301035
9.963297871
9.963294208
9.963289884
9.96328506
9.963279565
9.963271575
9.963264916
9.96325853
9.963253099
9.963245171
9.9632379
9.96323262
9.963227184
9.96322192
9.963282808
9.963281721
9.963279516
9.963276689
9.963273065
9.963268945
9.963263751
9.963258256
9.963251476
9.963245345
9.963239346
9.963232854
9.963227585
9.963220823
9.96321607
)
;

boundaryField
{
    top
    {
        type            calculated;
        value           nonuniform List<scalar> 
127
(
9.963282808
9.963278213
9.963237808
9.963285156
9.963254769
9.963290348
9.963271957
9.963267061
9.963263496
9.963281721
9.963275918
9.963234254
9.963279786
9.963245607
9.963280403
9.96326393
9.96326056
9.96325995
9.963279516
9.963272308
9.963230762
9.963273464
9.963236074
9.963269248
9.963253856
9.96325378
9.963256146
9.963276689
9.963268826
9.963226785
9.963265492
9.963226241
9.963257515
9.963243427
9.96324519
9.963251958
9.963273065
9.963264565
9.963222226
9.963257489
9.963216494
9.963246784
9.963232691
9.963235783
9.963246516
9.963268945
9.963260077
9.96321726
9.963247972
9.963207303
9.96323732
9.963222627
9.963227251
9.963240648
9.963263751
9.963253687
9.963209493
9.963239278
9.963198966
9.963228506
9.96321374
9.963218964
9.963233457
9.963258256
9.963248279
9.96320276
9.963230956
9.963190953
9.963221282
9.963205397
9.963212406
9.963226458
9.963251476
9.963242265
9.963194794
9.963224087
9.963184377
9.963213671
9.963197742
9.963205106
9.963219062
9.963245345
9.963234829
9.963188556
9.963217378
9.963177523
9.963208683
9.963191677
9.963199653
9.963212134
9.963239346
9.963228916
9.963181259
9.963211041
9.96317023
9.963202386
9.963185839
9.963192794
9.963205542
9.963232854
9.963222464
9.963174736
9.963206012
9.96316556
9.963198444
9.963181182
9.963187271
9.963200039
9.963227585
9.963216704
9.963170147
9.963201607
9.96316245
9.963195274
9.963177264
9.963183135
9.963194378
9.963220823
9.963211371
9.963165305
9.963199157
9.963158981
9.963192862
9.963174503
9.963180851
9.963190615
9.96321607
)
;
    }
    bottom
    {
        type            calculated;
        value           nonuniform List<scalar> 
134
(
9.963260642
9.963274769
9.963283226
9.963255307
9.963300638
9.963270144
9.963257468
9.963280019
9.963272686
9.963257732
9.963269802
9.963276282
9.963247422
9.963294638
9.963265866
9.96325366
9.963277911
9.963270213
9.963255027
9.963264295
9.96326768
9.96323687
9.963285952
9.963260415
9.963250315
9.963275429
9.963268014
9.963250633
9.963257425
9.963257094
9.96322399
9.963277132
9.963252923
9.963246736
9.963273183
9.963265275
9.963245536
9.963250355
9.963246256
9.963212904
9.963265328
9.963244465
9.963240334
9.963269803
9.963260936
9.963239627
9.963242428
9.96323567
9.963202151
9.963255997
9.963236805
9.963233784
9.963265518
9.963255907
9.963233659
9.963233342
9.963226821
9.963191378
9.963246819
9.963228051
9.963227078
9.963260314
9.96324864
9.9632269
9.963224368
9.963217866
9.963182842
9.963237292
9.963219927
9.963220735
9.963255335
9.963242776
9.963220605
9.963216815
9.963208506
9.963175209
9.963229469
9.963211397
9.96321473
9.963249032
9.963236625
9.963213646
9.963209569
9.963201982
9.963167955
9.963222025
9.963204512
9.963207698
9.96324323
9.963230794
9.963206909
9.963202742
9.963196009
9.963162766
9.963215879
9.963197965
9.963201711
9.963236023
9.963223754
9.963201016
9.963196508
9.963190015
9.963157971
9.963209446
9.963190518
9.963195602
9.963229642
9.96321827
9.963194159
9.963191027
9.963187164
9.963153565
9.963205348
9.963185429
9.963188466
9.963222582
9.963212504
9.963187878
9.963185656
9.963182668
9.963151548
9.963201473
9.963180729
9.963183475
9.963216872
9.963207058
9.963183323
9.963181154
9.963180625
9.963148661
9.963199926
9.963177384
9.963179632
9.963213352
)
;
    }
    side-walls
    {
        type            calculated;
        value           nonuniform List<scalar> 
261
(
9.963272686
9.963267406
9.963291445
9.963229486
9.963237869
9.963307825
9.963283423
9.963253466
9.963278213
9.963270213
9.963263338
9.963285616
9.963220621
9.963228201
9.963297901
9.963277852
9.963250271
9.963275918
9.963268014
9.963259533
9.963278227
9.9632115
9.963217439
9.963288448
9.963270664
9.963246295
9.963272308
9.963265275
9.963254589
9.963270217
9.963201769
9.963206001
9.963277519
9.963262432
9.963241331
9.963268826
9.963260936
9.963249051
9.963262075
9.963190184
9.963195013
9.963266497
9.96325262
9.963234873
9.963264565
9.963255907
9.963242854
9.963255137
9.963179607
9.963184165
9.963257745
9.963244975
9.963228885
9.963260077
9.96324864
9.963236945
9.963246746
9.963170797
9.963175021
9.963248351
9.963236692
9.963223002
9.963253687
9.963242776
9.963230989
9.96323944
9.963161954
9.96316786
9.963239433
9.963229031
9.963214712
9.963248279
9.963236625
9.963223742
9.963232485
9.963154256
9.963161018
9.963233284
9.963221055
9.963208713
9.963242265
9.963230794
9.963216774
9.963225254
9.963149001
9.963156181
9.963227221
9.963214204
9.963200586
9.963234829
9.963223754
9.963210277
9.963219958
9.963144618
9.963152
9.963219827
9.963208112
9.963195303
9.963228916
9.96321827
9.963205143
9.963213189
9.96314043
9.963147303
9.963215269
9.963202023
9.963190175
9.963222464
9.963212504
9.963199057
9.963206737
9.963138124
9.963142917
9.963211684
9.963197573
9.96318611
9.963216704
9.963207058
9.963195125
9.963203614
9.963133699
9.963141223
9.963208482
9.963194477
9.963180836
9.963211371
9.963280019
9.963280293
9.963257179
9.963264032
9.963264114
9.963230314
9.963262627
9.963301035
9.963282808
9.963277911
9.963278798
9.963253887
9.963257688
9.963255507
9.96322412
9.96325809
9.963297871
9.963281721
9.963275429
9.963276201
9.963247452
9.963250008
9.963244347
9.963215744
9.963252975
9.963294208
9.963279516
9.963273183
9.963271629
9.96324157
9.963241012
9.963233723
9.963206341
9.963245445
9.963289884
9.963276689
9.963269803
9.963266163
9.963232652
9.963230333
9.963222291
9.963196115
9.963237265
9.96328506
9.963273065
9.963265518
9.963258514
9.963225439
9.963218865
9.963211771
9.963185913
9.963229446
9.963279565
9.963268945
9.963260314
9.963252994
9.963218569
9.96320934
9.963201149
9.963174744
9.96322106
9.963271575
9.963263751
9.963255335
9.963245082
9.963210706
9.963200992
9.963192746
9.963165702
9.963213485
9.963264916
9.963258256
9.963249032
9.963238631
9.963202585
9.963192022
9.963184876
9.963158036
9.963206121
9.96325853
9.963251476
9.96324323
9.963231201
9.963194788
9.963184611
9.96317741
9.963150558
9.963199878
9.963253099
9.963245345
9.963236023
9.963225344
9.963187919
9.963176462
9.963172525
9.963144204
9.963192324
9.963245171
9.963239346
9.963229642
9.963218316
9.963181149
9.963171263
9.963167789
9.963138989
9.963185864
9.9632379
9.963232854
9.963222582
9.963211217
9.963174607
9.963167249
9.963163696
9.963134789
9.963180932
9.96323262
9.963227585
9.963216872
9.963204894
9.96317015
9.963162653
9.963160946
9.963131623
9.963176908
9.963227184
9.963220823
9.963213352
9.963200654
9.963167388
9.963160205
9.963157872
9.963128395
9.96317391
9.96322192
9.96321607
)
;
    }
    inlet
    {
        type            calculated;
        value           nonuniform 0();
    }
    outlet
    {
        type            calculated;
        value           nonuniform List<scalar> 
81
(
9.963207058
9.963195125
9.963203614
9.963133699
9.963141223
9.963208482
9.963194477
9.963180836
9.963211371
9.963183323
9.96318484
9.963147463
9.963117487
9.96312245
9.963133601
9.963130549
9.963204765
9.963165305
9.963181154
9.963194431
9.963140631
9.963114294
9.96307016
9.963131198
9.963119005
9.963155644
9.963199157
9.963180625
9.96316603
9.963114041
9.96308453
9.963121708
9.963087901
9.963128661
9.963101187
9.963158981
9.963148661
9.963157755
9.963075141
9.963097527
10.02417876
9.963075802
9.963090347
9.963149822
9.963192862
9.963199926
9.963153663
9.963111858
9.963064622
9.963083403
9.963085862
9.963114611
9.963184967
9.963174503
9.963177384
9.963130581
9.963085908
9.963103617
9.963108421
9.963118561
9.963121485
9.963167644
9.963180851
9.963179632
9.963200661
9.963165366
9.963160506
9.963129856
9.963133038
9.963161818
9.963178288
9.963190615
9.963213352
9.963200654
9.963167388
9.963160205
9.963157872
9.963128395
9.96317391
9.96322192
9.96321607
)
;
    }
    procBoundary1to0
    {
        type            processor;
        value           nonuniform List<scalar> 
97
(
9.963273996
9.963273996
9.963270594
9.963296947
9.963235883
9.963245378
9.963314071
9.963288208
9.963254627
9.963279667
9.963262481
9.96326368
9.96326368
9.96326368
9.963250371
9.963232178
9.963234173
9.963243755
9.963229769
9.963292131
9.963240608
9.963274839
9.963305597
9.963254068
9.963254068
9.963254068
9.963215324
9.963107894
9.963227992
9.963232377
9.963259299
9.963289043
9.963287042
9.963290516
9.963259891
9.963045581
9.963045581
9.963045581
9.962607579
9.96304657
9.963228245
9.963213596
9.963260603
9.963260696
9.963289086
9.963200448
9.963063422
10.01906741
10.01906741
10.01906741
9.96256878
9.96256878
9.963133567
9.963258854
9.963297563
9.963302943
9.963278164
9.96325209
9.963181647
9.963047419
9.963204259
9.9632057
9.9632057
9.9632057
9.96329211
9.963279012
9.963271726
9.963234546
9.963220585
9.96324513
9.963241043
9.963258796
9.963257435
9.963268991
9.963268991
9.963268991
9.96327039
9.963257724
9.963289848
9.963273511
9.963280115
9.963256067
9.96325537
9.963266797
9.963265327
9.96326578
9.96326578
9.96326578
9.963280203
9.963282821
9.963258732
9.963269223
9.963269775
9.963234093
9.96326583
9.963301766
9.963284167
)
;
    }
}


// ************************************************************************* //
