/*--------------------------------*- C++ -*----------------------------------*\
| =========                 |                                                 |
| \\      /  F ield         | OpenFOAM: The Open Source CFD Toolbox           |
|  \\    /   O peration     | Version:  4.x                                   |
|   \\  /    A nd           | Web:      www.OpenFOAM.org                      |
|    \\/     M anipulation  |                                                 |
\*---------------------------------------------------------------------------*/
FoamFile
{
    version     2.0;
    format      ascii;
    class       volScalarField;
    location    "4000";
    object      N2;
}
// * * * * * * * * * * * * * * * * * * * * * * * * * * * * * * * * * * * * * //

dimensions      [0 0 0 0 0 0 0];

internalField   nonuniform List<scalar> 
1174
(
0.6030925674
0.6030915714
0.6030901669
0.6030883374
0.6030861034
0.603083515
0.6030806419
0.6030775627
0.6030743569
0.6030710993
0.6030678584
0.6030647074
0.6030617752
0.6030594738
0.6030916344
0.6030900415
0.6030879232
0.6030853299
0.6030823519
0.6030790979
0.6030756778
0.6030721915
0.6030687228
0.6030653381
0.6030620899
0.6030590287
0.603056252
0.6030541109
0.6030895763
0.6030867669
0.603083296
0.6030793606
0.6030751727
0.6030709221
0.6030667582
0.603062787
0.6030590754
0.6030556594
0.6030525537
0.6030497671
0.6030473437
0.6030455307
0.603086566
0.603082209
0.6030772147
0.6030719492
0.6030667165
0.6030617339
0.6030571363
0.6030529924
0.603049323
0.6030461172
0.6030433463
0.6030409781
0.6030390081
0.6030375834
0.6030844207
0.6030792162
0.6030735468
0.6030678123
0.6030623006
0.6030571948
0.6030525937
0.6030485342
0.6030450117
0.6030419957
0.603039442
0.6030373052
0.6030355643
0.6030343263
0.603086566
0.6030822091
0.6030772148
0.6030719494
0.6030667167
0.6030617341
0.6030571366
0.6030529927
0.6030493233
0.6030461175
0.6030433466
0.6030409785
0.6030390084
0.6030375837
0.6030895764
0.603086767
0.6030832961
0.6030793607
0.6030751729
0.6030709223
0.6030667584
0.6030627873
0.6030590758
0.6030556598
0.6030525541
0.6030497676
0.6030473442
0.6030455313
0.6030916345
0.6030900415
0.6030879233
0.60308533
0.603082352
0.603079098
0.603075678
0.6030721918
0.6030687231
0.6030653385
0.6030620903
0.6030590292
0.6030562526
0.6030541115
0.6030925675
0.6030915714
0.6030901669
0.6030883374
0.6030861035
0.6030835151
0.603080642
0.6030775629
0.6030743572
0.6030710996
0.6030678588
0.6030647078
0.6030617757
0.6030594745
0.6030927117
0.6030916345
0.6030900415
0.6030879232
0.6030853299
0.6030823519
0.6030790979
0.6030756779
0.6030721916
0.6030687228
0.6030653382
0.60306209
0.6030590288
0.6030562521
0.603054111
0.6030895354
0.6030867455
0.6030833487
0.60307955
0.6030755546
0.6030715343
0.6030676167
0.6030638866
0.6030603937
0.603057162
0.6030542001
0.6030515153
0.6030491548
0.6030473729
0.6030842623
0.6030788558
0.6030729891
0.6030671588
0.6030617031
0.603056805
0.6030525294
0.6030488654
0.6030457608
0.6030431461
0.6030409498
0.6030391105
0.6030375992
0.6030365126
0.603074909
0.6030659387
0.6030574246
0.6030500002
0.603043883
0.603039039
0.6030353136
0.6030325128
0.6030304475
0.6030289516
0.6030278888
0.6030271505
0.6030266551
0.6030263586
0.6030661028
0.603055325
0.6030462097
0.6030389903
0.6030335178
0.603029509
0.6030266641
0.6030247151
0.6030234399
0.6030226624
0.6030222456
0.6030220833
0.6030220878
0.6030221657
0.6030749092
0.6030659389
0.6030574248
0.6030500005
0.6030438833
0.6030390394
0.603035314
0.6030325132
0.6030304478
0.6030289521
0.6030278892
0.603027151
0.6030266555
0.6030263591
0.6030842625
0.603078856
0.6030729893
0.6030671591
0.6030617034
0.6030568054
0.6030525298
0.6030488658
0.6030457613
0.6030431467
0.6030409505
0.6030391111
0.6030375998
0.6030365133
0.6030895355
0.6030867456
0.6030833488
0.6030795502
0.6030755548
0.6030715345
0.6030676171
0.603063887
0.6030603941
0.6030571625
0.6030542007
0.6030515159
0.6030491555
0.6030473737
0.6030916345
0.6030900415
0.6030879233
0.60308533
0.603082352
0.6030790981
0.6030756781
0.6030721919
0.6030687232
0.6030653386
0.6030620905
0.6030590294
0.6030562528
0.6030541118
0.6030915996
0.6030895764
0.603086767
0.6030832961
0.6030793607
0.6030751728
0.6030709222
0.6030667583
0.6030627871
0.6030590756
0.6030556595
0.6030525538
0.6030497672
0.6030473438
0.6030455309
0.6030886357
0.6030842625
0.6030788559
0.6030729893
0.6030671589
0.6030617033
0.6030568052
0.6030525295
0.6030488655
0.6030457609
0.6030431462
0.60304095
0.6030391106
0.6030375993
0.6030365127
0.6030687169
0.6030573454
0.6030470703
0.6030386636
0.6030322775
0.6030277204
0.6030246613
0.6030227509
0.6030216791
0.6030211945
0.6030211039
0.6030212627
0.6030215551
0.6030218481
0.6030342115
0.6030150626
0.6030018959
0.6029941555
0.6029905481
0.6029897776
0.6029908016
0.602992867
0.602995464
0.6029982642
0.6030010629
0.6030037294
0.6030061388
0.6030079818
0.6029891145
0.6029701227
0.6029620221
0.6029606551
0.6029630597
0.6029673747
0.6029724992
0.6029778082
0.6029829619
0.6029877871
0.6029922042
0.6029961741
0.6029996241
0.6030022015
0.6030342122
0.6030150633
0.6030018967
0.6029941562
0.6029905488
0.6029897783
0.6029908023
0.6029928676
0.6029954647
0.6029982648
0.6030010636
0.60300373
0.6030061394
0.6030079824
0.6030687175
0.6030573459
0.6030470709
0.6030386642
0.6030322782
0.6030277211
0.6030246621
0.6030227518
0.60302168
0.6030211954
0.6030211048
0.6030212636
0.603021556
0.6030218491
0.6030842625
0.603078856
0.6030729894
0.6030671592
0.6030617036
0.6030568056
0.6030525301
0.6030488661
0.6030457616
0.603043147
0.6030409508
0.6030391115
0.6030376003
0.6030365137
0.6030895764
0.603086767
0.6030832961
0.6030793608
0.603075173
0.6030709225
0.6030667587
0.6030627876
0.6030590762
0.6030556602
0.6030525546
0.6030497681
0.6030473448
0.6030455319
0.6030899324
0.6030865661
0.6030822092
0.6030772149
0.6030719495
0.6030667168
0.6030617342
0.6030571366
0.6030529927
0.6030493233
0.6030461174
0.6030433466
0.6030409784
0.6030390083
0.6030375836
0.6030831758
0.6030749092
0.603065939
0.6030574249
0.6030500005
0.6030438833
0.6030390393
0.6030353138
0.6030325131
0.6030304477
0.6030289519
0.603027889
0.6030271507
0.6030266553
0.6030263588
0.603057638
0.6030342118
0.6030150628
0.6030018962
0.6029941557
0.6029905483
0.6029897778
0.6029908018
0.6029928671
0.6029954641
0.6029982643
0.6030010631
0.6030037295
0.6030061389
0.6030079819
0.6029161391
0.602892166
0.6028883179
0.6028953421
0.6029071972
0.6029204822
0.6029334783
0.6029454221
0.6029560538
0.6029653592
0.6029734282
0.6029803693
0.602986197
0.6029904501
0.6026849501
0.6027153948
0.6027619437
0.6028065126
0.6028443537
0.602875206
0.6029000819
0.6029201681
0.6029364971
0.6029498862
0.6029609557
0.6029701493
0.6029776756
0.6029830808
0.6029161418
0.6028921679
0.6028883196
0.6028953436
0.6029071986
0.6029204835
0.6029334795
0.6029454232
0.6029560549
0.6029653601
0.6029734291
0.6029803701
0.6029861978
0.6029904509
0.6030342122
0.6030150635
0.6030018971
0.6029941568
0.6029905495
0.6029897791
0.6029908031
0.6029928684
0.6029954655
0.6029982656
0.6030010643
0.6030037307
0.6030061401
0.6030079831
0.6030749091
0.603065939
0.6030574251
0.6030500009
0.6030438839
0.6030390401
0.6030353147
0.6030325141
0.6030304488
0.603028953
0.6030278902
0.603027152
0.6030266565
0.6030263601
0.603086566
0.6030822091
0.6030772149
0.6030719496
0.6030667171
0.6030617346
0.6030571372
0.6030529934
0.6030493241
0.6030461184
0.6030433476
0.6030409795
0.6030390096
0.6030375849
0.6030886838
0.6030844208
0.6030792164
0.6030735471
0.6030678126
0.6030623009
0.6030571951
0.603052594
0.6030485345
0.603045012
0.603041996
0.6030394423
0.6030373055
0.6030355645
0.6030343265
0.6030774884
0.6030661031
0.6030553254
0.6030462101
0.6030389907
0.6030335182
0.6030295094
0.6030266644
0.6030247154
0.6030234403
0.6030226627
0.6030222459
0.6030220835
0.603022088
0.6030221659
0.6030229474
0.6029891149
0.6029701234
0.6029620227
0.6029606557
0.6029630602
0.6029673751
0.6029724996
0.6029778085
0.6029829622
0.6029877874
0.6029922044
0.6029961744
0.6029996243
0.6030022017
0.6027257313
0.6026849521
0.6027153962
0.6027619447
0.6028065133
0.6028443543
0.6028752065
0.6029000823
0.6029201685
0.6029364974
0.6029498864
0.6029609559
0.6029701495
0.6029776758
0.6029830809
0.6016906642
0.6021968422
0.6024771744
0.6026413071
0.6027429769
0.6028094887
0.6028552476
0.6028881579
0.6029127362
0.6029316695
0.6029466164
0.6029586135
0.6029681959
0.6029749734
0.6026849496
0.6027153975
0.6027619468
0.6028065155
0.6028443563
0.6028752083
0.6029000839
0.6029201699
0.6029364987
0.6029498876
0.602960957
0.6029701505
0.6029776767
0.6029830818
0.6029891143
0.6029701237
0.6029620237
0.602960657
0.6029630618
0.6029673768
0.6029725012
0.6029778102
0.6029829638
0.6029877889
0.6029922059
0.6029961758
0.6029996257
0.6030022031
0.6030661028
0.6030553253
0.6030462104
0.6030389912
0.603033519
0.6030295103
0.6030266656
0.6030247166
0.6030234416
0.6030226641
0.6030222473
0.603022085
0.6030220895
0.6030221674
0.6030844207
0.6030792163
0.6030735471
0.6030678128
0.6030623013
0.6030571957
0.6030525947
0.6030485354
0.6030450131
0.6030419972
0.6030394436
0.6030373069
0.603035566
0.6030343281
0.6030899324
0.6030865662
0.6030822093
0.603077215
0.6030719496
0.603066717
0.6030617344
0.6030571369
0.603052993
0.6030493236
0.6030461178
0.6030433469
0.6030409788
0.6030390087
0.603037584
0.603083176
0.6030749094
0.6030659393
0.6030574252
0.6030500009
0.6030438837
0.6030390398
0.6030353143
0.6030325136
0.6030304482
0.6030289524
0.6030278895
0.6030271513
0.6030266558
0.6030263594
0.603057639
0.6030342128
0.603015064
0.6030018973
0.6029941568
0.6029905494
0.6029897788
0.6029908028
0.6029928681
0.6029954651
0.6029982652
0.6030010639
0.6030037303
0.6030061397
0.6030079827
0.6029702144
0.6029161435
0.6028921695
0.6028883209
0.6028953446
0.6029071995
0.6029204843
0.6029334801
0.6029454237
0.6029560553
0.6029653605
0.6029734295
0.6029803704
0.6029861981
0.6029904511
0.6027257316
0.6026849529
0.6027153996
0.6027619482
0.6028065164
0.602844357
0.6028752088
0.6029000843
0.6029201702
0.6029364989
0.6029498878
0.6029609571
0.6029701507
0.6029776769
0.6029830819
0.6029702138
0.6029161439
0.6028921705
0.6028883222
0.602895346
0.6029072009
0.6029204856
0.6029334813
0.6029454249
0.6029560564
0.6029653615
0.6029734304
0.6029803713
0.6029861989
0.6029904519
0.6030342114
0.6030150636
0.6030018977
0.6029941577
0.6029905506
0.6029897802
0.6029908042
0.6029928695
0.6029954665
0.6029982666
0.6030010653
0.6030037316
0.603006141
0.6030079839
0.6030749089
0.603065939
0.6030574253
0.6030500012
0.6030438843
0.6030390406
0.6030353153
0.6030325147
0.6030304494
0.6030289537
0.6030278909
0.6030271527
0.6030266572
0.6030263608
0.603086566
0.6030822091
0.603077215
0.6030719498
0.6030667173
0.6030617349
0.6030571375
0.6030529938
0.6030493246
0.6030461189
0.6030433482
0.6030409801
0.6030390101
0.6030375855
0.6030915997
0.6030895765
0.6030867671
0.6030832962
0.6030793609
0.6030751731
0.6030709225
0.6030667587
0.6030627875
0.603059076
0.60305566
0.6030525544
0.6030497679
0.6030473445
0.6030455316
0.6030886358
0.6030842627
0.6030788562
0.6030729896
0.6030671593
0.6030617037
0.6030568057
0.6030525301
0.6030488662
0.6030457616
0.603043147
0.6030409508
0.6030391114
0.6030376001
0.6030365136
0.6030795809
0.6030687179
0.6030573463
0.6030470713
0.6030386646
0.6030322787
0.6030277216
0.6030246625
0.6030227522
0.6030216804
0.6030211957
0.6030211052
0.603021264
0.6030215563
0.6030218494
0.6030576391
0.6030342131
0.6030150645
0.603001898
0.6029941576
0.6029905503
0.6029897797
0.6029908037
0.602992869
0.6029954659
0.602998266
0.6030010647
0.6030037311
0.6030061404
0.6030079834
0.6030229476
0.6029891161
0.6029701253
0.6029620249
0.6029606581
0.6029630626
0.6029673774
0.6029725018
0.6029778106
0.6029829642
0.6029877893
0.6029922062
0.6029961761
0.602999626
0.6030022033
0.6030576392
0.6030342134
0.6030150649
0.6030018986
0.6029941584
0.6029905511
0.6029897806
0.6029908045
0.6029928698
0.6029954667
0.6029982668
0.6030010655
0.6030037318
0.6030061411
0.6030079841
0.6030795806
0.6030687176
0.6030573463
0.6030470716
0.6030386652
0.6030322794
0.6030277224
0.6030246634
0.6030227532
0.6030216815
0.6030211968
0.6030211063
0.6030212651
0.6030215574
0.6030218505
0.6030842623
0.6030788561
0.6030729896
0.6030671596
0.6030617041
0.6030568063
0.6030525309
0.603048867
0.6030457626
0.603043148
0.6030409519
0.6030391126
0.6030376014
0.6030365148
0.6030895763
0.603086767
0.6030832962
0.6030793609
0.6030751733
0.6030709228
0.6030667592
0.6030627882
0.6030590768
0.6030556609
0.6030525554
0.603049769
0.6030473457
0.6030455329
0.6030927117
0.6030916345
0.6030900416
0.6030879234
0.6030853301
0.6030823521
0.6030790982
0.6030756782
0.603072192
0.6030687233
0.6030653387
0.6030620906
0.6030590295
0.6030562529
0.6030541118
0.6030915714
0.6030895356
0.6030867458
0.603083349
0.6030795504
0.603075555
0.6030715348
0.6030676173
0.6030638873
0.6030603944
0.6030571628
0.6030542009
0.6030515162
0.6030491558
0.603047374
0.6030886358
0.6030842627
0.6030788563
0.6030729897
0.6030671595
0.603061704
0.603056806
0.6030525304
0.6030488665
0.603045762
0.6030431474
0.6030409512
0.6030391119
0.6030376006
0.603036514
0.603083176
0.6030749096
0.6030659395
0.6030574256
0.6030500014
0.6030438844
0.6030390406
0.6030353152
0.6030325145
0.6030304492
0.6030289534
0.6030278906
0.6030271523
0.6030266569
0.6030263605
0.6030774885
0.6030661034
0.603055326
0.6030462111
0.6030389919
0.6030335196
0.6030295109
0.6030266661
0.6030247171
0.603023442
0.6030226644
0.6030222476
0.6030220853
0.6030220898
0.6030221677
0.603083176
0.6030749096
0.6030659397
0.6030574258
0.6030500017
0.6030438847
0.603039041
0.6030353157
0.603032515
0.6030304497
0.6030289539
0.6030278911
0.6030271529
0.6030266574
0.603026361
0.6030886358
0.6030842627
0.6030788563
0.6030729899
0.6030671598
0.6030617043
0.6030568064
0.603052531
0.6030488671
0.6030457627
0.6030431481
0.603040952
0.6030391127
0.6030376014
0.6030365149
0.6030915713
0.6030895355
0.6030867457
0.603083349
0.6030795505
0.6030755552
0.6030715351
0.6030676177
0.6030638878
0.603060395
0.6030571635
0.6030542018
0.6030515171
0.6030491568
0.603047375
0.6030916344
0.6030900415
0.6030879233
0.6030853301
0.6030823522
0.6030790984
0.6030756786
0.6030721924
0.6030687239
0.6030653394
0.6030620914
0.6030590304
0.6030562539
0.6030541129
0.6030932091
0.6030925675
0.6030915715
0.603090167
0.6030883375
0.6030861036
0.6030835153
0.6030806422
0.6030775631
0.6030743574
0.6030710998
0.6030678591
0.6030647081
0.603061776
0.6030594747
0.6030927117
0.6030916345
0.6030900416
0.6030879234
0.6030853302
0.6030823522
0.6030790983
0.6030756783
0.6030721921
0.6030687235
0.6030653389
0.6030620908
0.6030590297
0.6030562531
0.6030541121
0.6030915997
0.6030895765
0.6030867671
0.6030832963
0.603079361
0.6030751733
0.6030709228
0.603066759
0.6030627879
0.6030590765
0.6030556605
0.6030525549
0.6030497684
0.6030473451
0.6030455322
0.6030899324
0.6030865662
0.6030822094
0.6030772152
0.60307195
0.6030667175
0.603061735
0.6030571375
0.6030529938
0.6030493245
0.6030461188
0.603043348
0.6030409799
0.6030390099
0.6030375853
0.6030886839
0.6030844209
0.6030792166
0.6030735475
0.6030678131
0.6030623017
0.6030571961
0.6030525951
0.6030485357
0.6030450134
0.6030419975
0.6030394439
0.6030373072
0.6030355662
0.6030343283
0.6030899324
0.6030865662
0.6030822094
0.6030772153
0.6030719501
0.6030667176
0.6030617352
0.6030571378
0.6030529941
0.6030493248
0.6030461191
0.6030433484
0.6030409803
0.6030390103
0.6030375857
0.6030915997
0.6030895765
0.6030867672
0.6030832964
0.6030793611
0.6030751735
0.603070923
0.6030667593
0.6030627883
0.6030590769
0.6030556611
0.6030525555
0.6030497691
0.6030473458
0.603045533
0.6030927117
0.6030916345
0.6030900416
0.6030879234
0.6030853302
0.6030823523
0.6030790985
0.6030756786
0.6030721925
0.6030687239
0.6030653395
0.6030620914
0.6030590304
0.6030562539
0.603054113
0.6030932091
0.6030925675
0.6030915714
0.603090167
0.6030883376
0.6030861037
0.6030835154
0.6030806424
0.6030775634
0.6030743579
0.6030711004
0.6030678597
0.6030647089
0.6030617769
0.6030594757
)
;

boundaryField
{
    top
    {
        type            zeroGradient;
    }
    bottom
    {
        type            zeroGradient;
    }
    side-walls
    {
        type            zeroGradient;
    }
    inlet
    {
        type            zeroGradient;
    }
    outlet
    {
        type            zeroGradient;
    }
    procBoundary1to0
    {
        type            processor;
        value           nonuniform List<scalar> 
97
(
0.6030932091
0.6030932091
0.6030927117
0.6030915997
0.6030899325
0.603088684
0.6030899325
0.6030915997
0.6030927117
0.6030932091
0.6030933496
0.6030915713
0.6030915713
0.6030915713
0.6030886358
0.6030831762
0.6030774889
0.6030831763
0.603088636
0.6030915714
0.6030927117
0.6030928451
0.6030915428
0.6030795805
0.6030795805
0.6030795805
0.6030576395
0.60302295
0.6030576403
0.6030795814
0.603088636
0.6030915997
0.6030921073
0.6030892506
0.6030792788
0.6029702128
0.6029702128
0.6029702128
0.6027257473
0.6029702185
0.6030576403
0.6030831763
0.6030899325
0.6030915815
0.6030870927
0.6030682315
0.6029937653
0.6007251685
0.6007251685
0.6007251685
0.6027257456
0.6027257456
0.6030229497
0.6030774889
0.603088684
0.6030921073
0.6030892506
0.6030792786
0.603050357
0.6029937646
0.6030503575
0.6030576383
0.6030576383
0.6030576383
0.603083176
0.6030899324
0.6030928451
0.6030915428
0.6030877333
0.6030792786
0.6030682314
0.6030792788
0.6030877334
0.6030886357
0.6030886357
0.6030886357
0.6030915997
0.6030933496
0.6030928351
0.6030915428
0.6030892506
0.6030870927
0.6030892506
0.6030915428
0.6030928351
0.6030927117
0.6030927117
0.6030927117
0.6030935782
0.6030933496
0.6030928451
0.6030921073
0.6030915815
0.6030921073
0.6030928451
0.6030933496
0.6030935782
)
;
    }
}


// ************************************************************************* //
