/*--------------------------------*- C++ -*----------------------------------*\
| =========                 |                                                 |
| \\      /  F ield         | OpenFOAM: The Open Source CFD Toolbox           |
|  \\    /   O peration     | Version:  4.x                                   |
|   \\  /    A nd           | Web:      www.OpenFOAM.org                      |
|    \\/     M anipulation  |                                                 |
\*---------------------------------------------------------------------------*/
FoamFile
{
    version     2.0;
    format      ascii;
    class       volScalarField;
    location    "4000";
    object      rho;
}
// * * * * * * * * * * * * * * * * * * * * * * * * * * * * * * * * * * * * * //

dimensions      [1 -3 0 0 0 0 0];

internalField   nonuniform List<scalar> 
1174
(
0.2777052385
0.2777056073
0.2777061795
0.2777069576
0.2777078603
0.2777089089
0.2777100514
0.2777112991
0.2777126096
0.2777139205
0.277715235
0.2777165374
0.2777176901
0.2777186307
0.2777055163
0.2777061318
0.2777070367
0.277708049
0.2777092765
0.2777106109
0.2777119994
0.2777134522
0.277714868
0.277716191
0.2777175233
0.2777187655
0.2777198958
0.2777207597
0.2777071423
0.2777082428
0.2777096272
0.2777112346
0.277712937
0.2777146828
0.2777163939
0.2777180067
0.2777195309
0.2777208773
0.2777221777
0.277723253
0.2777242312
0.2777249645
0.2777067942
0.2777085565
0.2777105753
0.2777127193
0.2777148152
0.2777168159
0.2777187018
0.2777203559
0.2777218491
0.2777231569
0.2777242869
0.2777252785
0.2777261454
0.2777266793
0.2777079999
0.2777101211
0.2777124358
0.2777147623
0.2777169864
0.2777190439
0.2777209327
0.2777225515
0.2777240046
0.277725261
0.2777263135
0.2777271505
0.277727844
0.2777283657
0.277708959
0.2777107093
0.2777127191
0.2777148659
0.2777169657
0.2777189826
0.2777208423
0.2777225322
0.2777240363
0.2777253244
0.2777264262
0.2777274051
0.2777281859
0.2777287584
0.2777069018
0.2777080364
0.2777094218
0.2777110352
0.2777126874
0.2777144318
0.277716088
0.2777177213
0.2777192238
0.2777205889
0.277721861
0.2777229484
0.277723952
0.2777247069
0.2777051031
0.2777057659
0.2777066288
0.2777076699
0.2777088631
0.277710198
0.2777116002
0.2777130067
0.2777144197
0.2777157609
0.2777170783
0.2777183857
0.2777195127
0.2777203596
0.2777053816
0.2777057575
0.2777063078
0.2777070487
0.2777079656
0.2777090451
0.277710163
0.277711436
0.2777127456
0.2777140541
0.2777153933
0.2777166656
0.2777178225
0.2777187422
0.2777048009
0.2777052282
0.2777058815
0.2777067467
0.2777077956
0.2777089975
0.2777103183
0.2777117091
0.2777131409
0.2777145518
0.2777159256
0.2777172258
0.2777184661
0.2777195809
0.2777204565
0.2777062613
0.2777074093
0.2777088232
0.2777103874
0.2777120422
0.2777137119
0.2777153112
0.2777168804
0.2777182929
0.2777196132
0.2777208161
0.2777219055
0.2777228692
0.2777235905
0.2777082086
0.2777104001
0.2777127488
0.2777151182
0.2777172969
0.2777192893
0.2777210118
0.2777225095
0.2777237428
0.2777248084
0.2777257402
0.2777264888
0.2777270764
0.2777275364
0.2777117774
0.2777153899
0.2777188789
0.2777218743
0.2777243303
0.2777262818
0.2777278218
0.2777289457
0.2777297672
0.2777304159
0.2777308137
0.2777310948
0.2777312633
0.2777313829
0.2777157426
0.2777201257
0.2777238177
0.2777267574
0.2777289757
0.2777305957
0.2777317135
0.2777325447
0.2777330236
0.2777333412
0.2777334467
0.277733501
0.2777334895
0.2777334417
0.2777120816
0.277715716
0.2777191255
0.2777221565
0.2777246886
0.2777266701
0.277728183
0.2777293098
0.2777301703
0.277730776
0.2777311896
0.2777315127
0.2777317071
0.2777318579
0.277707654
0.2777098544
0.2777122453
0.2777146132
0.277716811
0.2777187691
0.2777205253
0.2777220095
0.2777232704
0.2777243542
0.2777252506
0.2777259544
0.277726595
0.2777270641
0.2777070116
0.2777081608
0.2777095728
0.2777111441
0.2777127304
0.277714354
0.2777159287
0.2777174574
0.2777188573
0.2777201461
0.2777213528
0.2777224541
0.2777233621
0.2777240988
0.2777046788
0.2777053058
0.2777062124
0.2777072691
0.2777084953
0.2777098508
0.2777112372
0.277712657
0.2777140413
0.2777154305
0.277716721
0.277717945
0.2777190813
0.2777199281
0.2777057008
0.2777064998
0.2777076559
0.2777090577
0.2777106776
0.277712384
0.2777140648
0.2777157632
0.2777173775
0.2777188926
0.277720266
0.2777215186
0.2777226523
0.2777236008
0.2777243285
0.2777077397
0.2777094836
0.2777116856
0.2777140757
0.2777164264
0.2777186509
0.2777206458
0.2777223884
0.2777238916
0.2777251572
0.2777261884
0.2777270564
0.2777277997
0.2777284229
0.2777288397
0.2777150923
0.2777197245
0.2777238896
0.2777272915
0.2777299189
0.2777317531
0.27773298
0.2777337337
0.2777341567
0.2777343507
0.277734366
0.2777343076
0.2777342136
0.2777340749
0.2777292129
0.2777369657
0.2777423109
0.2777454311
0.277746918
0.277747229
0.277746791
0.2777459241
0.2777448781
0.2777437303
0.2777426273
0.2777415305
0.2777405077
0.2777397605
0.2777464279
0.2777541471
0.2777574421
0.2777579812
0.2777570017
0.2777552577
0.2777531902
0.2777510459
0.2777489252
0.2777469986
0.2777451731
0.2777436037
0.2777422171
0.2777411745
0.2777295725
0.277737321
0.2777426639
0.2777458415
0.2777472808
0.2777475749
0.2777471767
0.2777463128
0.2777452597
0.2777441038
0.277743032
0.2777419221
0.2777409589
0.2777402076
0.2777145172
0.2777190781
0.2777232642
0.277726676
0.277729263
0.277731139
0.2777323797
0.2777331268
0.2777335652
0.2777337832
0.2777337875
0.2777337492
0.2777336454
0.2777334851
0.2777084063
0.2777105841
0.2777129408
0.2777152774
0.2777175054
0.2777194974
0.277721275
0.2777227584
0.2777240165
0.2777251074
0.2777259676
0.2777267183
0.2777273329
0.277727782
0.2777069368
0.2777081103
0.277709521
0.2777111014
0.2777127977
0.2777145135
0.2777161653
0.2777177718
0.277719285
0.2777206669
0.2777219306
0.2777230612
0.2777240832
0.2777248389
0.2777067291
0.2777080687
0.2777098618
0.2777118958
0.2777139732
0.2777160733
0.277718117
0.277720007
0.2777216644
0.2777231543
0.2777244785
0.2777256024
0.2777265833
0.2777273934
0.2777279572
0.2777097386
0.2777130614
0.2777167353
0.2777201348
0.2777231305
0.2777255986
0.2777276186
0.2777291386
0.2777302794
0.2777310636
0.2777316525
0.2777321153
0.277732454
0.2777326267
0.2777327483
0.2777197442
0.2777292714
0.2777369821
0.2777423294
0.2777454763
0.2777469291
0.2777472346
0.2777468205
0.2777459553
0.2777448928
0.277743757
0.2777426087
0.277741546
0.2777405519
0.277739738
0.2777771163
0.2777868866
0.2777884568
0.2777856485
0.2777808225
0.2777754387
0.2777701518
0.27776531
0.2777610178
0.2777572428
0.2777539287
0.2777511374
0.2777487486
0.2777469712
0.2778722524
0.2778599144
0.2778410421
0.2778229666
0.2778076068
0.2777951281
0.2777850382
0.277776869
0.2777702486
0.2777648378
0.2777603904
0.2777566738
0.2777536939
0.2777514483
0.2777771961
0.2777868907
0.2777884277
0.2777855533
0.277780818
0.2777753998
0.2777701237
0.2777652654
0.2777609493
0.2777571855
0.2777539536
0.2777511621
0.2777487956
0.2777470633
0.2777295871
0.277737373
0.2777427704
0.2777458676
0.2777473534
0.2777476341
0.2777471946
0.2777463881
0.2777452983
0.2777441428
0.2777430104
0.2777418985
0.277740922
0.2777401653
0.2777112296
0.2777148399
0.2777183173
0.2777213466
0.2777238221
0.2777257813
0.2777272693
0.27772839
0.2777292333
0.2777298154
0.2777302544
0.2777305859
0.2777307795
0.2777308842
0.2777074874
0.2777092275
0.2777112554
0.2777134079
0.2777155443
0.2777175985
0.2777194723
0.2777211822
0.2777226628
0.2777239538
0.2777250239
0.2777259688
0.2777268209
0.2777273762
0.2777065167
0.2777082647
0.2777103625
0.2777126003
0.2777149451
0.2777171913
0.2777192392
0.2777210997
0.2777227807
0.2777242073
0.2777254378
0.2777264742
0.2777273702
0.2777280841
0.2777285924
0.2777121047
0.2777166711
0.2777210328
0.2777247195
0.2777276012
0.2777298419
0.277731455
0.2777325954
0.277733404
0.2777339348
0.2777342263
0.2777343855
0.2777344322
0.2777344559
0.2777344176
0.2777328044
0.2777465378
0.2777542172
0.2777574729
0.2777580693
0.2777571182
0.2777553569
0.2777532886
0.2777511203
0.2777490424
0.2777470968
0.2777453008
0.277743709
0.2777423483
0.2777413101
0.2778552203
0.2778717824
0.2778594478
0.2778404975
0.2778223987
0.2778070415
0.2777945277
0.2777844363
0.2777762592
0.2777696335
0.2777642028
0.2777596779
0.2777559803
0.2777529079
0.2777507422
0.2799640659
0.2797581802
0.2796449534
0.2795792907
0.2795391453
0.2795133641
0.2794960525
0.2794840174
0.2794754373
0.279469125
0.2794644448
0.2794609421
0.2794584295
0.279457091
0.2778712235
0.2778588621
0.2778399269
0.2778218068
0.277806426
0.2777938996
0.2777837946
0.2777756896
0.2777690257
0.2777635964
0.2777590801
0.2777553668
0.2777523501
0.2777501697
0.2777470584
0.2777547614
0.2777580689
0.2777586103
0.2777576306
0.2777558726
0.2777537876
0.2777516284
0.2777495308
0.2777476057
0.2777458054
0.2777442351
0.2777427949
0.2777417201
0.2777163546
0.2777207321
0.2777243834
0.2777273267
0.2777295829
0.2777312304
0.2777323847
0.2777331134
0.2777336089
0.2777339693
0.2777341462
0.2777342289
0.2777342186
0.2777342382
0.2777094647
0.2777115954
0.2777138997
0.2777161916
0.2777184379
0.2777205278
0.2777223882
0.2777240538
0.2777254722
0.2777267203
0.2777277301
0.2777285797
0.2777293101
0.2777297934
0.2777071842
0.277708574
0.2777103498
0.2777124159
0.2777145336
0.2777166679
0.2777186797
0.2777205436
0.2777222446
0.2777237209
0.2777250261
0.277726142
0.2777271026
0.2777279095
0.277728505
0.2777094242
0.2777127607
0.277716385
0.2777198252
0.2777228543
0.277725324
0.2777273074
0.2777287859
0.2777299056
0.2777307677
0.2777313501
0.2777318079
0.2777321343
0.2777322786
0.2777323703
0.2777195365
0.2777290648
0.277736856
0.2777421918
0.2777453096
0.2777467899
0.2777471064
0.277746662
0.2777458673
0.2777447705
0.2777436247
0.2777424675
0.277741389
0.2777403903
0.2777396717
0.2777546028
0.2777765509
0.2777862677
0.2777878529
0.2777850318
0.2777802165
0.2777748463
0.2777695738
0.277764728
0.2777604205
0.2777566247
0.2777532881
0.2777505157
0.2777481567
0.2777464521
0.2778547767
0.2778713067
0.2778589609
0.2778400275
0.2778219422
0.2778065643
0.277794088
0.2777839931
0.2777758424
0.277769275
0.2777638322
0.277759339
0.2777556242
0.2777525607
0.2777503756
0.2777552479
0.2777771764
0.2777868327
0.277788407
0.2777855725
0.2777807747
0.2777754233
0.2777701031
0.2777652669
0.2777610005
0.2777572061
0.2777539163
0.2777511176
0.2777487482
0.277747023
0.2777289185
0.2777367121
0.2777420339
0.2777452005
0.2777467077
0.2777469939
0.2777465802
0.2777457146
0.2777446994
0.2777435978
0.2777424681
0.2777414092
0.2777404542
0.2777397875
0.2777134266
0.2777170635
0.2777205565
0.277723554
0.2777260277
0.2777279966
0.2777295356
0.2777306998
0.2777315499
0.2777321869
0.277732651
0.2777329629
0.2777331984
0.2777332466
0.277707962
0.2777097315
0.2777117403
0.2777139051
0.2777160075
0.2777180106
0.2777198727
0.2777215669
0.2777230549
0.277724363
0.2777254356
0.277726413
0.2777272084
0.2777277923
0.2777055495
0.2777063959
0.2777075412
0.2777089464
0.2777105229
0.2777122202
0.2777139297
0.2777156194
0.2777172523
0.2777187407
0.2777201167
0.2777213501
0.2777224929
0.2777234717
0.2777242214
0.2777058306
0.2777076226
0.2777097928
0.2777121397
0.2777145429
0.2777167738
0.2777188025
0.2777205283
0.2777220217
0.2777232657
0.2777243415
0.2777252349
0.2777259752
0.2777265921
0.2777270935
0.2777093006
0.2777136435
0.2777182452
0.2777224082
0.277725749
0.2777283874
0.2777302464
0.2777314958
0.2777322485
0.2777326338
0.2777328184
0.2777328889
0.2777328148
0.2777326793
0.2777325814
0.2777193755
0.2777288575
0.2777366536
0.2777419926
0.2777451171
0.2777465556
0.2777468683
0.2777463819
0.2777455175
0.277744472
0.2777433943
0.2777422854
0.2777412058
0.277740212
0.2777394071
0.2777338808
0.2777475856
0.2777552642
0.2777585768
0.2777591393
0.2777581701
0.2777564247
0.2777543596
0.2777522109
0.2777501065
0.2777481417
0.2777463287
0.2777447106
0.2777433069
0.2777422461
0.2777197606
0.2777292503
0.2777370389
0.2777423978
0.2777455247
0.2777469674
0.2777472965
0.2777468808
0.2777460313
0.2777449708
0.2777438604
0.2777427023
0.2777416075
0.2777406497
0.2777398836
0.2777103066
0.2777147242
0.2777193331
0.2777234767
0.2777268792
0.2777294519
0.2777312545
0.2777324879
0.2777332198
0.2777336337
0.2777338517
0.2777338697
0.2777338051
0.2777336633
0.2777335641
0.2777086968
0.2777108908
0.277713286
0.2777156498
0.2777178732
0.2777198361
0.277721529
0.2777229785
0.2777242829
0.2777253902
0.2777263047
0.2777270412
0.2777276402
0.2777281019
0.2777064504
0.2777075639
0.2777089541
0.277710542
0.2777122348
0.2777139242
0.2777156304
0.2777172666
0.2777187595
0.2777201547
0.2777213914
0.2777225319
0.2777235488
0.2777243094
0.2777047199
0.2777051422
0.2777057794
0.2777066351
0.2777076584
0.2777088401
0.2777101792
0.2777115533
0.2777129975
0.2777143806
0.2777157675
0.2777170878
0.2777183196
0.2777194295
0.2777203457
0.2777061393
0.2777069474
0.2777080464
0.2777094612
0.2777110026
0.277712611
0.2777142617
0.2777158174
0.2777173373
0.277718792
0.2777201189
0.2777213065
0.2777223822
0.2777233282
0.2777240296
0.277706858
0.2777086429
0.2777108539
0.2777132481
0.2777155866
0.2777178058
0.2777197644
0.2777215224
0.2777230274
0.2777242619
0.2777252994
0.2777262384
0.2777270069
0.2777276083
0.277728011
0.2777094299
0.2777128053
0.2777164689
0.2777199007
0.2777229375
0.2777254059
0.2777273895
0.2777289336
0.277730105
0.2777309416
0.2777315343
0.2777319822
0.2777322401
0.2777324383
0.2777325839
0.277711196
0.2777158047
0.2777201707
0.2777238703
0.2777268294
0.2777290163
0.2777306234
0.2777318014
0.2777326285
0.277733099
0.2777334475
0.2777336255
0.2777337037
0.2777337054
0.2777336618
0.2777086815
0.2777120523
0.2777157354
0.2777191701
0.277722201
0.2777247194
0.2777266346
0.2777281545
0.2777292652
0.2777300776
0.2777306691
0.277731107
0.2777314705
0.277731686
0.2777317792
0.2777067551
0.2777085298
0.2777107267
0.2777131158
0.2777155176
0.2777177035
0.277719708
0.2777214576
0.277722957
0.2777242342
0.2777252889
0.2777261808
0.2777269421
0.2777275602
0.2777279673
0.2777054269
0.2777062364
0.277707366
0.2777087633
0.2777102948
0.2777119264
0.2777135395
0.2777151519
0.2777166848
0.2777180762
0.2777194381
0.2777206762
0.2777217604
0.2777227029
0.2777234098
0.2777054012
0.2777060419
0.2777068917
0.277707981
0.2777091939
0.2777105341
0.2777118962
0.2777133086
0.2777147105
0.2777160817
0.2777173917
0.2777186426
0.2777197579
0.2777206331
0.2777051213
0.2777053748
0.2777057742
0.2777063309
0.27770709
0.2777080174
0.2777090585
0.2777102348
0.277711467
0.2777127706
0.2777140781
0.2777153983
0.2777166501
0.2777178542
0.2777188031
0.2777053698
0.2777058197
0.277706481
0.2777073495
0.2777083732
0.2777095338
0.2777108829
0.2777122301
0.2777136449
0.2777150469
0.2777164256
0.277717739
0.2777189666
0.2777200729
0.277720925
0.2777052655
0.2777060861
0.2777072148
0.2777086446
0.2777102053
0.2777119136
0.2777136548
0.2777153574
0.2777169787
0.2777184805
0.2777198575
0.2777211143
0.2777222096
0.2777231739
0.2777239451
0.2777061716
0.2777075506
0.277709334
0.2777113704
0.2777135458
0.2777156455
0.27771768
0.2777195393
0.2777211916
0.2777226658
0.2777239331
0.277725078
0.2777260199
0.2777268357
0.2777273904
0.2777067843
0.2777085131
0.2777106013
0.2777129091
0.2777152337
0.2777174501
0.2777195241
0.277721398
0.2777230655
0.2777244653
0.2777257066
0.2777267511
0.2777276347
0.2777283373
0.2777288424
0.2777052844
0.2777066417
0.2777084112
0.2777104213
0.2777125833
0.2777147049
0.2777166838
0.2777185352
0.2777202552
0.2777217177
0.2777230152
0.2777241694
0.2777251367
0.27772593
0.2777264954
0.2777053785
0.2777061959
0.2777073383
0.2777087323
0.2777103168
0.2777120294
0.2777137829
0.2777154469
0.2777170811
0.2777186164
0.2777199855
0.2777212285
0.277722357
0.2777233705
0.2777241225
0.2777059359
0.2777063624
0.2777069825
0.2777078358
0.2777088822
0.2777101277
0.2777113821
0.2777127914
0.2777142058
0.2777156418
0.2777169863
0.2777182694
0.2777195263
0.2777206565
0.2777214987
0.2777052225
0.2777054622
0.2777058869
0.2777064405
0.2777071849
0.2777080917
0.2777091458
0.2777103066
0.2777115353
0.27771284
0.2777141753
0.277715508
0.2777167955
0.2777179592
0.2777188777
)
;

boundaryField
{
    top
    {
        type            calculated;
        value           nonuniform List<scalar> 
127
(
0.2777052225
0.2777053816
0.2777046788
0.2777069368
0.2777074874
0.2777094647
0.277707962
0.2777064504
0.2777054012
0.2777054622
0.2777057575
0.2777053058
0.2777081103
0.2777092275
0.2777115954
0.2777097315
0.2777075639
0.2777060419
0.2777058869
0.2777063078
0.2777062124
0.277709521
0.2777112554
0.2777138997
0.2777117403
0.2777089541
0.2777068917
0.2777064405
0.2777070487
0.2777072691
0.2777111014
0.2777134079
0.2777161916
0.2777139051
0.277710542
0.277707981
0.2777071849
0.2777079656
0.2777084953
0.2777127977
0.2777155443
0.2777184379
0.2777160075
0.2777122348
0.2777091939
0.2777080917
0.2777090451
0.2777098508
0.2777145135
0.2777175985
0.2777205278
0.2777180106
0.2777139242
0.2777105341
0.2777091458
0.277710163
0.2777112372
0.2777161653
0.2777194723
0.2777223882
0.2777198727
0.2777156304
0.2777118962
0.2777103066
0.277711436
0.277712657
0.2777177718
0.2777211822
0.2777240538
0.2777215669
0.2777172666
0.2777133086
0.2777115353
0.2777127456
0.2777140413
0.277719285
0.2777226628
0.2777254722
0.2777230549
0.2777187595
0.2777147105
0.27771284
0.2777140541
0.2777154305
0.2777206669
0.2777239538
0.2777267203
0.277724363
0.2777201547
0.2777160817
0.2777141753
0.2777153933
0.277716721
0.2777219306
0.2777250239
0.2777277301
0.2777254356
0.2777213914
0.2777173917
0.277715508
0.2777166656
0.277717945
0.2777230612
0.2777259688
0.2777285797
0.277726413
0.2777225319
0.2777186426
0.2777167955
0.2777178225
0.2777190813
0.2777240832
0.2777268209
0.2777293101
0.2777272084
0.2777235488
0.2777197579
0.2777179592
0.2777187422
0.2777199281
0.2777248389
0.2777273762
0.2777297934
0.2777277923
0.2777243094
0.2777206331
0.2777188777
)
;
    }
    bottom
    {
        type            calculated;
        value           nonuniform List<scalar> 
134
(
0.2777048009
0.2777057008
0.2777067291
0.2777065167
0.2777071842
0.2777055495
0.2777047199
0.2777051213
0.2777052385
0.2777052282
0.2777064998
0.2777080687
0.2777082647
0.277708574
0.2777063959
0.2777051422
0.2777053748
0.2777056073
0.2777058815
0.2777076559
0.2777098618
0.2777103625
0.2777103498
0.2777075412
0.2777057794
0.2777057742
0.2777061795
0.2777067467
0.2777090577
0.2777118958
0.2777126003
0.2777124159
0.2777089464
0.2777066351
0.2777063309
0.2777069576
0.2777077956
0.2777106776
0.2777139732
0.2777149451
0.2777145336
0.2777105229
0.2777076584
0.27770709
0.2777078603
0.2777089975
0.277712384
0.2777160733
0.2777171913
0.2777166679
0.2777122202
0.2777088401
0.2777080174
0.2777089089
0.2777103183
0.2777140648
0.277718117
0.2777192392
0.2777186797
0.2777139297
0.2777101792
0.2777090585
0.2777100514
0.2777117091
0.2777157632
0.277720007
0.2777210997
0.2777205436
0.2777156194
0.2777115533
0.2777102348
0.2777112991
0.2777131409
0.2777173775
0.2777216644
0.2777227807
0.2777222446
0.2777172523
0.2777129975
0.277711467
0.2777126096
0.2777145518
0.2777188926
0.2777231543
0.2777242073
0.2777237209
0.2777187407
0.2777143806
0.2777127706
0.2777139205
0.2777159256
0.277720266
0.2777244785
0.2777254378
0.2777250261
0.2777201167
0.2777157675
0.2777140781
0.277715235
0.2777172258
0.2777215186
0.2777256024
0.2777264742
0.277726142
0.2777213501
0.2777170878
0.2777153983
0.2777165374
0.2777184661
0.2777226523
0.2777265833
0.2777273702
0.2777271026
0.2777224929
0.2777183196
0.2777166501
0.2777176901
0.2777195809
0.2777236008
0.2777273934
0.2777280841
0.2777279095
0.2777234717
0.2777194295
0.2777178542
0.2777186307
0.2777204565
0.2777243285
0.2777279572
0.2777285924
0.277728505
0.2777242214
0.2777203457
0.2777188031
)
;
    }
    side-walls
    {
        type            calculated;
        value           nonuniform List<scalar> 
261
(
0.2777052385
0.2777055163
0.2777071423
0.2777067942
0.2777079999
0.277708959
0.2777069018
0.2777051031
0.2777053816
0.2777056073
0.2777061318
0.2777082428
0.2777085565
0.2777101211
0.2777107093
0.2777080364
0.2777057659
0.2777057575
0.2777061795
0.2777070367
0.2777096272
0.2777105753
0.2777124358
0.2777127191
0.2777094218
0.2777066288
0.2777063078
0.2777069576
0.277708049
0.2777112346
0.2777127193
0.2777147623
0.2777148659
0.2777110352
0.2777076699
0.2777070487
0.2777078603
0.2777092765
0.277712937
0.2777148152
0.2777169864
0.2777169657
0.2777126874
0.2777088631
0.2777079656
0.2777089089
0.2777106109
0.2777146828
0.2777168159
0.2777190439
0.2777189826
0.2777144318
0.277710198
0.2777090451
0.2777100514
0.2777119994
0.2777163939
0.2777187018
0.2777209327
0.2777208423
0.277716088
0.2777116002
0.277710163
0.2777112991
0.2777134522
0.2777180067
0.2777203559
0.2777225515
0.2777225322
0.2777177213
0.2777130067
0.277711436
0.2777126096
0.277714868
0.2777195309
0.2777218491
0.2777240046
0.2777240363
0.2777192238
0.2777144197
0.2777127456
0.2777139205
0.277716191
0.2777208773
0.2777231569
0.277725261
0.2777253244
0.2777205889
0.2777157609
0.2777140541
0.277715235
0.2777175233
0.2777221777
0.2777242869
0.2777263135
0.2777264262
0.277721861
0.2777170783
0.2777153933
0.2777165374
0.2777187655
0.277723253
0.2777252785
0.2777271505
0.2777274051
0.2777229484
0.2777183857
0.2777166656
0.2777176901
0.2777198958
0.2777242312
0.2777261454
0.277727844
0.2777281859
0.277723952
0.2777195127
0.2777178225
0.2777186307
0.2777207597
0.2777249645
0.2777266793
0.2777283657
0.2777287584
0.2777247069
0.2777203596
0.2777187422
0.2777051213
0.2777053698
0.2777052655
0.2777061716
0.2777067843
0.2777052844
0.2777053785
0.2777059359
0.2777052225
0.2777053748
0.2777058197
0.2777060861
0.2777075506
0.2777085131
0.2777066417
0.2777061959
0.2777063624
0.2777054622
0.2777057742
0.277706481
0.2777072148
0.277709334
0.2777106013
0.2777084112
0.2777073383
0.2777069825
0.2777058869
0.2777063309
0.2777073495
0.2777086446
0.2777113704
0.2777129091
0.2777104213
0.2777087323
0.2777078358
0.2777064405
0.27770709
0.2777083732
0.2777102053
0.2777135458
0.2777152337
0.2777125833
0.2777103168
0.2777088822
0.2777071849
0.2777080174
0.2777095338
0.2777119136
0.2777156455
0.2777174501
0.2777147049
0.2777120294
0.2777101277
0.2777080917
0.2777090585
0.2777108829
0.2777136548
0.27771768
0.2777195241
0.2777166838
0.2777137829
0.2777113821
0.2777091458
0.2777102348
0.2777122301
0.2777153574
0.2777195393
0.277721398
0.2777185352
0.2777154469
0.2777127914
0.2777103066
0.277711467
0.2777136449
0.2777169787
0.2777211916
0.2777230655
0.2777202552
0.2777170811
0.2777142058
0.2777115353
0.2777127706
0.2777150469
0.2777184805
0.2777226658
0.2777244653
0.2777217177
0.2777186164
0.2777156418
0.27771284
0.2777140781
0.2777164256
0.2777198575
0.2777239331
0.2777257066
0.2777230152
0.2777199855
0.2777169863
0.2777141753
0.2777153983
0.277717739
0.2777211143
0.277725078
0.2777267511
0.2777241694
0.2777212285
0.2777182694
0.277715508
0.2777166501
0.2777189666
0.2777222096
0.2777260199
0.2777276347
0.2777251367
0.277722357
0.2777195263
0.2777167955
0.2777178542
0.2777200729
0.2777231739
0.2777268357
0.2777283373
0.27772593
0.2777233705
0.2777206565
0.2777179592
0.2777188031
0.277720925
0.2777239451
0.2777273904
0.2777288424
0.2777264954
0.2777241225
0.2777214987
0.2777188777
)
;
    }
    inlet
    {
        type            calculated;
        value           nonuniform 0();
    }
    outlet
    {
        type            calculated;
        value           nonuniform List<scalar> 
81
(
0.2777186307
0.2777207597
0.2777249645
0.2777266793
0.2777283657
0.2777287584
0.2777247069
0.2777203596
0.2777187422
0.2777204565
0.2777235905
0.2777275364
0.2777313829
0.2777334417
0.2777318579
0.2777270641
0.2777240988
0.2777199281
0.2777243285
0.2777288397
0.2777340749
0.2777397605
0.2777411745
0.2777402076
0.2777334851
0.277727782
0.2777248389
0.2777279572
0.2777327483
0.277739738
0.2777469712
0.2777514483
0.2777470633
0.2777401653
0.2777308842
0.2777273762
0.2777285924
0.2777344176
0.2777413101
0.2777507422
0.279457091
0.2777501697
0.2777417201
0.2777342382
0.2777297934
0.277728505
0.2777323703
0.2777396717
0.2777464521
0.2777503756
0.277747023
0.2777397875
0.2777332466
0.2777277923
0.2777242214
0.2777270935
0.2777325814
0.2777394071
0.2777422461
0.2777398836
0.2777335641
0.2777281019
0.2777243094
0.2777203457
0.2777240296
0.277728011
0.2777325839
0.2777336618
0.2777317792
0.2777279673
0.2777234098
0.2777206331
0.2777188031
0.277720925
0.2777239451
0.2777273904
0.2777288424
0.2777264954
0.2777241225
0.2777214987
0.2777188777
)
;
    }
    procBoundary1to0
    {
        type            processor;
        value           nonuniform List<scalar> 
97
(
0.2777049695
0.2777049695
0.2777050721
0.2777063292
0.2777053979
0.2777062537
0.2777075893
0.2777060847
0.2777046771
0.2777051011
0.2777045537
0.2777054021
0.2777054021
0.2777054021
0.2777064156
0.2777084026
0.2777110906
0.2777087151
0.2777058325
0.2777062119
0.2777042748
0.2777051617
0.2777066136
0.2777107052
0.2777107052
0.2777107052
0.2777197038
0.2777326859
0.2777200613
0.2777100809
0.2777066738
0.2777061383
0.2777058264
0.2777072267
0.277710967
0.2777552151
0.2777552151
0.2777552151
0.2778556961
0.2777552405
0.2777200536
0.2777078944
0.2777060917
0.2777053543
0.27770818
0.2777144253
0.2777449085
0.2803607167
0.2803607167
0.2803607167
0.2778545927
0.2778545927
0.2777334516
0.2777117528
0.2777077141
0.2777062944
0.2777068859
0.2777107761
0.2777221532
0.2777444413
0.2777227291
0.2777194187
0.2777194187
0.2777194187
0.2777100846
0.2777066215
0.2777050829
0.2777046456
0.2777060072
0.2777105698
0.2777155314
0.2777109858
0.2777070424
0.2777069184
0.2777069184
0.2777069184
0.277705598
0.2777044566
0.2777055562
0.2777057388
0.2777069506
0.2777072849
0.2777062568
0.2777055344
0.2777048907
0.2777049364
0.2777049364
0.2777049364
0.2777049663
0.2777051383
0.2777046929
0.2777053359
0.2777055937
0.2777043652
0.2777048848
0.2777056788
0.2777050802
)
;
    }
}


// ************************************************************************* //
