/*--------------------------------*- C++ -*----------------------------------*\
| =========                 |                                                 |
| \\      /  F ield         | OpenFOAM: The Open Source CFD Toolbox           |
|  \\    /   O peration     | Version:  4.x                                   |
|   \\  /    A nd           | Web:      www.OpenFOAM.org                      |
|    \\/     M anipulation  |                                                 |
\*---------------------------------------------------------------------------*/
FoamFile
{
    version     2.0;
    format      ascii;
    class       volScalarField;
    location    "4000";
    object      T;
}
// * * * * * * * * * * * * * * * * * * * * * * * * * * * * * * * * * * * * * //

dimensions      [0 0 0 1 0 0 0];

internalField   nonuniform List<scalar> 
1174
(
1223.15078
1223.151175
1223.151503
1223.151786
1223.15234
1223.15297
1223.153764
1223.154512
1223.155241
1223.156072
1223.156854
1223.157507
1223.158375
1223.158899
1223.151448
1223.151967
1223.152278
1223.153078
1223.15371
1223.154431
1223.155251
1223.155921
1223.156719
1223.157755
1223.158473
1223.159209
1223.159861
1223.160397
1223.14846
1223.14931
1223.150251
1223.151152
1223.152147
1223.153077
1223.153984
1223.154934
1223.155747
1223.156744
1223.157313
1223.158227
1223.158832
1223.159278
1223.156098
1223.157172
1223.158409
1223.159644
1223.161024
1223.162316
1223.163333
1223.164451
1223.165315
1223.166055
1223.166696
1223.16713
1223.167306
1223.167843
1223.155138
1223.156351
1223.157653
1223.159036
1223.160417
1223.161709
1223.162721
1223.163823
1223.164565
1223.165147
1223.165689
1223.166335
1223.16681
1223.167022
1223.146563
1223.14769
1223.148967
1223.150189
1223.151552
1223.152773
1223.153906
1223.154866
1223.155682
1223.156509
1223.157274
1223.157764
1223.158319
1223.158686
1223.149519
1223.150219
1223.151156
1223.152031
1223.153246
1223.154183
1223.155332
1223.156191
1223.157099
1223.158014
1223.158708
1223.159569
1223.160062
1223.160412
1223.153268
1223.153579
1223.154074
1223.154747
1223.155531
1223.15625
1223.157009
1223.157883
1223.158694
1223.159649
1223.160433
1223.160882
1223.161548
1223.162159
1223.15015
1223.150513
1223.150938
1223.151385
1223.151876
1223.15237
1223.153273
1223.153909
1223.154642
1223.155484
1223.156157
1223.156942
1223.157792
1223.158408
1223.152415
1223.152717
1223.15307
1223.153555
1223.154193
1223.154939
1223.15572
1223.156529
1223.157292
1223.158112
1223.158924
1223.159784
1223.160528
1223.161248
1223.161732
1223.152423
1223.153025
1223.153686
1223.1545
1223.155313
1223.156112
1223.157012
1223.157665
1223.158526
1223.159264
1223.159971
1223.160616
1223.161158
1223.161593
1223.15454
1223.155852
1223.157405
1223.158793
1223.160261
1223.161419
1223.162502
1223.163336
1223.164199
1223.164807
1223.165156
1223.165587
1223.166063
1223.166239
1223.157791
1223.160073
1223.161973
1223.163837
1223.165426
1223.166654
1223.167426
1223.168155
1223.168724
1223.168898
1223.1693
1223.169558
1223.169819
1223.169891
1223.158187
1223.160742
1223.162968
1223.164662
1223.16599
1223.166984
1223.167829
1223.16812
1223.168595
1223.168771
1223.16915
1223.169237
1223.169277
1223.169329
1223.156451
1223.158636
1223.160887
1223.162594
1223.163848
1223.164944
1223.165835
1223.166551
1223.166948
1223.167312
1223.167644
1223.167717
1223.167864
1223.167799
1223.156983
1223.158255
1223.159623
1223.161017
1223.162401
1223.16371
1223.164645
1223.165538
1223.166279
1223.166808
1223.167312
1223.167941
1223.168183
1223.168319
1223.149119
1223.149715
1223.150384
1223.151167
1223.152282
1223.153284
1223.154292
1223.155123
1223.15604
1223.156916
1223.157607
1223.1582
1223.158987
1223.159355
1223.155137
1223.155605
1223.155908
1223.156512
1223.157151
1223.157779
1223.158608
1223.159424
1223.16036
1223.161105
1223.162007
1223.162823
1223.163448
1223.16406
1223.150706
1223.15129
1223.151895
1223.15276
1223.153606
1223.154582
1223.155799
1223.156762
1223.157705
1223.158558
1223.159436
1223.160216
1223.160873
1223.161609
1223.162079
1223.147737
1223.148924
1223.15019
1223.151561
1223.153031
1223.154298
1223.155444
1223.15644
1223.157248
1223.15797
1223.158729
1223.159359
1223.159814
1223.160133
1223.160499
1223.155749
1223.15841
1223.160905
1223.162972
1223.164351
1223.165514
1223.166313
1223.166867
1223.167176
1223.167302
1223.167416
1223.167349
1223.167168
1223.167183
1223.163543
1223.168239
1223.171404
1223.173361
1223.174128
1223.174319
1223.174168
1223.173794
1223.17313
1223.172502
1223.171681
1223.1711
1223.170716
1223.170267
1223.179206
1223.183735
1223.185654
1223.18605
1223.185482
1223.184406
1223.183113
1223.181784
1223.180666
1223.17936
1223.178438
1223.177294
1223.176401
1223.175763
1223.161958
1223.166673
1223.169848
1223.171554
1223.17253
1223.172795
1223.172469
1223.172082
1223.171449
1223.170857
1223.169898
1223.169376
1223.168728
1223.168298
1223.158281
1223.161256
1223.163659
1223.165682
1223.16724
1223.168218
1223.168957
1223.16954
1223.16978
1223.169801
1223.169964
1223.169808
1223.169671
1223.169781
1223.153669
1223.155042
1223.156559
1223.158092
1223.159343
1223.160502
1223.161343
1223.162239
1223.162994
1223.16349
1223.164154
1223.164576
1223.164933
1223.165158
1223.149365
1223.149894
1223.150719
1223.151739
1223.15276
1223.153823
1223.154991
1223.155968
1223.15683
1223.15767
1223.158401
1223.159072
1223.159484
1223.159831
1223.149558
1223.150485
1223.151423
1223.152592
1223.154121
1223.155483
1223.156586
1223.157585
1223.158688
1223.159566
1223.160234
1223.160903
1223.161383
1223.16181
1223.162214
1223.150005
1223.152136
1223.154147
1223.156442
1223.158305
1223.15984
1223.160766
1223.161626
1223.162281
1223.163014
1223.163452
1223.163568
1223.163571
1223.163814
1223.163878
1223.15773
1223.163286
1223.168166
1223.171322
1223.173162
1223.174079
1223.174294
1223.174038
1223.173656
1223.173065
1223.172385
1223.171762
1223.171032
1223.170521
1223.170366
1223.192102
1223.197715
1223.198605
1223.196716
1223.193911
1223.190662
1223.187575
1223.184663
1223.181994
1223.179739
1223.177963
1223.176173
1223.17487
1223.174069
1223.242388
1223.234903
1223.22351
1223.212641
1223.20348
1223.195821
1223.189776
1223.184994
1223.181018
1223.177681
1223.174808
1223.172523
1223.170376
1223.1693
1223.191748
1223.197696
1223.198733
1223.197135
1223.193931
1223.190833
1223.187699
1223.18486
1223.182296
1223.179992
1223.177853
1223.176065
1223.174663
1223.173664
1223.161894
1223.166444
1223.16938
1223.171439
1223.17221
1223.172534
1223.17239
1223.17175
1223.171279
1223.170686
1223.169994
1223.16948
1223.168891
1223.168484
1223.160204
1223.162495
1223.164446
1223.166161
1223.167664
1223.168858
1223.169859
1223.170602
1223.171075
1223.171543
1223.171763
1223.171799
1223.171949
1223.172088
1223.153045
1223.154216
1223.155413
1223.15661
1223.157813
1223.158869
1223.15994
1223.160812
1223.161731
1223.162545
1223.16345
1223.16409
1223.164331
1223.164774
1223.153026
1223.153972
1223.155287
1223.156928
1223.15823
1223.159515
1223.160849
1223.161985
1223.162813
1223.163673
1223.164368
1223.164981
1223.165367
1223.165752
1223.166023
1223.151119
1223.154098
1223.156747
1223.158996
1223.160945
1223.162175
1223.163199
1223.163945
1223.164335
1223.164582
1223.164873
1223.165015
1223.165137
1223.165021
1223.16503
1223.170578
1223.178723
1223.183426
1223.185519
1223.185662
1223.184969
1223.183969
1223.182679
1223.181456
1223.18015
1223.178928
1223.177875
1223.176831
1223.175823
1223.175166
1223.234604
1223.244457
1223.236957
1223.225907
1223.215141
1223.205968
1223.198465
1223.192426
1223.18768
1223.183726
1223.180477
1223.177945
1223.175577
1223.173838
1223.17241
1216.109052
1215.98102
1215.907306
1215.861621
1215.831103
1215.809076
1215.792086
1215.778066
1215.765825
1215.755104
1215.745323
1215.736369
1215.727978
1215.720135
1223.246918
1223.239534
1223.228418
1223.217747
1223.208678
1223.20123
1223.195252
1223.190188
1223.186403
1223.183148
1223.180578
1223.178279
1223.176295
1223.174931
1223.176429
1223.181029
1223.182894
1223.183279
1223.182712
1223.181698
1223.180482
1223.179219
1223.177999
1223.176687
1223.175653
1223.174514
1223.173856
1223.173361
1223.155492
1223.158071
1223.160476
1223.162154
1223.163316
1223.164189
1223.164874
1223.165615
1223.166017
1223.166005
1223.166069
1223.166032
1223.166066
1223.16582
1223.148687
1223.149857
1223.151205
1223.15274
1223.154024
1223.155173
1223.15631
1223.157206
1223.158102
1223.15872
1223.15945
1223.16004
1223.160353
1223.160734
1223.147554
1223.148259
1223.149273
1223.150302
1223.151653
1223.152864
1223.154107
1223.155221
1223.156132
1223.157071
1223.157823
1223.158526
1223.159096
1223.159537
1223.159802
1223.15139
1223.15346
1223.15569
1223.157805
1223.159521
1223.161049
1223.162137
1223.163179
1223.163927
1223.164317
1223.164784
1223.164921
1223.164979
1223.165347
1223.165543
1223.158645
1223.164195
1223.168721
1223.171927
1223.173896
1223.174691
1223.174858
1223.174736
1223.174044
1223.173604
1223.172967
1223.172384
1223.171723
1223.171233
1223.170658
1223.181547
1223.194589
1223.200439
1223.201263
1223.199431
1223.196579
1223.19327
1223.19012
1223.187226
1223.184624
1223.182461
1223.180784
1223.178911
1223.177477
1223.176355
1223.236557
1223.246551
1223.239098
1223.227975
1223.21715
1223.208069
1223.200401
1223.194378
1223.189515
1223.185305
1223.182109
1223.179438
1223.177145
1223.175367
1223.174024
1223.178707
1223.191834
1223.19795
1223.198823
1223.19705
1223.194121
1223.19073
1223.187789
1223.184853
1223.182071
1223.179901
1223.178018
1223.176261
1223.174872
1223.173841
1223.16484
1223.169355
1223.172623
1223.174377
1223.175054
1223.175354
1223.175096
1223.174716
1223.173917
1223.173086
1223.172382
1223.171635
1223.170952
1223.170148
1223.150527
1223.152701
1223.154584
1223.156439
1223.15795
1223.159102
1223.159878
1223.160429
1223.160872
1223.161099
1223.161209
1223.16133
1223.161296
1223.161684
1223.150955
1223.151997
1223.153277
1223.15442
1223.155772
1223.157054
1223.158176
1223.159117
1223.160004
1223.160743
1223.161637
1223.162134
1223.162625
1223.162941
1223.151373
1223.151748
1223.1524
1223.15325
1223.154287
1223.155303
1223.156394
1223.157395
1223.158256
1223.159227
1223.160093
1223.160958
1223.161575
1223.162177
1223.162551
1223.156145
1223.157121
1223.158527
1223.160088
1223.161327
1223.162565
1223.163562
1223.164632
1223.165484
1223.1663
1223.166863
1223.167381
1223.16785
1223.168196
1223.16819
1223.159225
1223.162129
1223.164924
1223.167429
1223.169765
1223.171096
1223.172149
1223.17285
1223.173408
1223.173882
1223.17405
1223.173921
1223.173924
1223.173926
1223.173761
1223.159353
1223.165107
1223.169612
1223.172805
1223.174743
1223.175723
1223.175907
1223.175969
1223.175584
1223.174918
1223.173982
1223.173186
1223.17253
1223.172018
1223.171823
1223.165836
1223.174107
1223.178815
1223.180656
1223.180949
1223.180336
1223.179266
1223.177963
1223.176653
1223.175464
1223.174326
1223.173349
1223.17242
1223.171602
1223.171044
1223.157657
1223.163377
1223.167915
1223.17102
1223.172948
1223.17391
1223.174021
1223.173772
1223.173322
1223.172722
1223.17193
1223.17135
1223.170761
1223.17009
1223.169725
1223.154795
1223.157369
1223.160133
1223.162723
1223.164787
1223.166407
1223.16771
1223.168481
1223.16913
1223.169479
1223.1695
1223.169602
1223.169562
1223.169592
1223.169433
1223.15239
1223.153691
1223.155039
1223.156451
1223.157723
1223.15901
1223.160224
1223.16127
1223.16182
1223.162245
1223.16267
1223.163155
1223.16358
1223.163749
1223.151508
1223.1523
1223.153216
1223.154203
1223.155239
1223.156418
1223.157347
1223.158194
1223.159144
1223.159926
1223.160776
1223.161403
1223.161838
1223.162164
1223.152772
1223.153096
1223.15352
1223.154046
1223.154798
1223.155632
1223.156332
1223.157215
1223.157924
1223.158866
1223.159621
1223.160392
1223.161173
1223.161915
1223.162221
1223.148832
1223.149401
1223.150218
1223.150875
1223.15179
1223.152808
1223.15369
1223.154783
1223.155652
1223.156328
1223.157036
1223.157811
1223.158517
1223.159136
1223.15966
1223.15162
1223.152627
1223.153853
1223.155206
1223.15673
1223.15802
1223.159326
1223.160254
1223.161054
1223.161912
1223.162645
1223.162962
1223.163305
1223.16372
1223.164149
1223.151365
1223.153263
1223.15532
1223.157472
1223.159154
1223.160688
1223.161775
1223.162529
1223.163049
1223.163551
1223.163973
1223.164154
1223.164514
1223.164643
1223.164602
1223.155121
1223.157914
1223.160543
1223.162736
1223.164344
1223.165811
1223.166862
1223.167442
1223.167751
1223.168263
1223.168303
1223.168362
1223.168345
1223.168327
1223.168359
1223.154661
1223.15658
1223.158551
1223.16069
1223.162398
1223.163712
1223.1651
1223.16596
1223.166747
1223.167357
1223.167783
1223.168008
1223.167903
1223.167957
1223.168146
1223.152073
1223.153125
1223.154413
1223.155788
1223.157034
1223.15847
1223.159574
1223.160539
1223.161365
1223.162035
1223.162691
1223.163215
1223.163591
1223.163932
1223.164342
1223.15197
1223.152533
1223.153215
1223.15395
1223.154907
1223.155823
1223.156871
1223.157714
1223.158526
1223.15948
1223.160035
1223.160587
1223.161256
1223.16189
1223.16239
1223.151955
1223.152364
1223.152916
1223.153377
1223.154074
1223.154769
1223.155705
1223.156554
1223.157413
1223.158237
1223.159053
1223.159751
1223.160468
1223.160955
1223.149995
1223.150179
1223.15044
1223.150836
1223.151202
1223.151648
1223.152311
1223.152956
1223.153773
1223.154531
1223.155378
1223.156135
1223.157011
1223.157653
1223.15814
1223.149909
1223.150112
1223.150429
1223.150899
1223.15165
1223.152577
1223.153233
1223.154234
1223.155072
1223.155931
1223.156722
1223.157524
1223.158323
1223.159081
1223.159669
1223.152623
1223.153112
1223.153838
1223.154579
1223.155686
1223.156654
1223.157605
1223.158549
1223.159462
1223.160373
1223.161235
1223.161996
1223.162823
1223.163489
1223.163768
1223.152014
1223.152766
1223.153748
1223.154907
1223.156003
1223.157366
1223.15851
1223.159645
1223.16077
1223.161718
1223.162636
1223.163212
1223.163865
1223.164266
1223.164711
1223.151847
1223.152878
1223.154235
1223.155568
1223.156959
1223.158375
1223.159594
1223.160671
1223.161559
1223.162536
1223.163184
1223.163762
1223.164202
1223.164637
1223.164922
1223.155921
1223.15677
1223.157812
1223.159087
1223.160242
1223.161509
1223.162898
1223.164067
1223.164895
1223.165894
1223.166679
1223.167214
1223.167755
1223.168255
1223.168653
1223.152126
1223.152628
1223.153294
1223.154193
1223.155195
1223.156144
1223.157041
1223.158156
1223.15901
1223.159775
1223.160671
1223.161494
1223.162173
1223.162623
1223.162987
1223.147415
1223.147721
1223.148221
1223.148758
1223.149408
1223.149961
1223.151034
1223.151762
1223.152602
1223.153311
1223.154252
1223.155187
1223.155859
1223.156511
1223.157142
1223.149549
1223.149794
1223.149944
1223.150353
1223.150784
1223.151321
1223.151927
1223.15264
1223.153472
1223.154226
1223.15495
1223.155652
1223.15637
1223.15719
1223.157811
)
;

boundaryField
{
    top
    {
        type            zeroGradient;
    }
    bottom
    {
        type            zeroGradient;
    }
    side-walls
    {
        type            zeroGradient;
    }
    inlet
    {
        type            zeroGradient;
    }
    outlet
    {
        type            zeroGradient;
    }
    procBoundary1to0
    {
        type            processor;
        value           nonuniform List<scalar> 
97
(
1223.150664
1223.150664
1223.15122
1223.147938
1223.155421
1223.154184
1223.145769
1223.149015
1223.15296
1223.150084
1223.15221
1223.152079
1223.152079
1223.152079
1223.153569
1223.15589
1223.155586
1223.154513
1223.156137
1223.148512
1223.154732
1223.150555
1223.146801
1223.153039
1223.153039
1223.153039
1223.157908
1223.1711
1223.156333
1223.155788
1223.152431
1223.148779
1223.149124
1223.148749
1223.152499
1223.178855
1223.178855
1223.178855
1223.232517
1223.17874
1223.156367
1223.158128
1223.152366
1223.152269
1223.148927
1223.159674
1223.176472
1216.340749
1216.340749
1216.340749
1223.237377
1223.237377
1223.167728
1223.152669
1223.147752
1223.147062
1223.15025
1223.15334
1223.161891
1223.178529
1223.159355
1223.159164
1223.159164
1223.159164
1223.148481
1223.150032
1223.150902
1223.155469
1223.157198
1223.154249
1223.154802
1223.152416
1223.152638
1223.151354
1223.151354
1223.151354
1223.151159
1223.152638
1223.148838
1223.150654
1223.149966
1223.15287
1223.153021
1223.151555
1223.151769
1223.151818
1223.151818
1223.151818
1223.149929
1223.149635
1223.15262
1223.151284
1223.151215
1223.15556
1223.151775
1223.147254
1223.149427
)
;
    }
}


// ************************************************************************* //
