/*--------------------------------*- C++ -*----------------------------------*\
| =========                 |                                                 |
| \\      /  F ield         | OpenFOAM: The Open Source CFD Toolbox           |
|  \\    /   O peration     | Version:  4.x                                   |
|   \\  /    A nd           | Web:      www.OpenFOAM.org                      |
|    \\/     M anipulation  |                                                 |
\*---------------------------------------------------------------------------*/
FoamFile
{
    version     2.0;
    format      ascii;
    class       volVectorField;
    location    "4000";
    object      U;
}
// * * * * * * * * * * * * * * * * * * * * * * * * * * * * * * * * * * * * * //

dimensions      [0 1 -1 0 0 0 0];

internalField   nonuniform List<vector> 
1174
(
(0.0110003077 -1.659968989e-08 -1.7045829e-08)
(0.01100035138 -1.4357862e-08 -1.448171434e-08)
(0.01100039491 -9.785507912e-09 -9.573034379e-09)
(0.0110004022 -7.663274429e-09 -7.850268861e-09)
(0.01100039241 -3.041493532e-09 -4.398337105e-09)
(0.01100036506 -1.332929966e-09 -2.442165445e-09)
(0.01100032279 5.385239294e-10 -9.630187435e-11)
(0.01100026969 2.414286701e-09 3.0693099e-10)
(0.01100021134 2.125495588e-09 1.819137283e-09)
(0.01100014956 5.734417485e-10 8.106067972e-09)
(0.01100008419 2.214618348e-09 4.575417339e-09)
(0.01100001626 2.295967516e-09 4.160677236e-09)
(0.01099996333 6.176572665e-09 6.716985392e-09)
(0.01099989436 3.462509305e-09 4.27492102e-09)
(0.01100032503 -6.765174756e-08 -1.874531226e-08)
(0.01100034779 -5.961048591e-08 -1.84978345e-08)
(0.01100037737 -4.166778841e-08 -1.307294582e-08)
(0.01100036652 -2.950526131e-08 -7.219938528e-09)
(0.01100033873 -1.758509875e-08 -2.794980553e-09)
(0.01100028763 -6.081033279e-09 -1.203899963e-10)
(0.01100022972 3.491766084e-10 2.744687973e-09)
(0.0110001651 3.981225032e-09 1.763681941e-09)
(0.01100009525 6.760039462e-09 3.79041569e-09)
(0.01100003134 9.043045177e-09 5.460785587e-09)
(0.01099996637 1.042947701e-08 6.398694794e-09)
(0.01099990014 9.931636835e-09 6.297766207e-09)
(0.0109998483 1.051317371e-08 6.746792756e-09)
(0.01099978723 1.162475473e-08 5.249042708e-09)
(0.01100035235 -6.370003082e-08 -3.72606383e-08)
(0.01100033848 -5.843570388e-08 -3.249483878e-08)
(0.01100034272 -3.984191511e-08 -1.881114159e-08)
(0.01100029396 -2.036834846e-08 -1.02693812e-08)
(0.01100022621 -8.435399922e-09 6.667153946e-11)
(0.01100014435 -1.551298807e-09 1.839665681e-09)
(0.01100006114 5.889822478e-09 3.180869712e-09)
(0.0109999808 1.025837092e-08 4.651017695e-09)
(0.0109999029 1.328005097e-08 5.561023473e-09)
(0.01099983618 1.375271537e-08 4.678158977e-09)
(0.01099977301 1.308078304e-08 6.246209565e-09)
(0.01099971722 1.479764506e-08 6.351602284e-09)
(0.01099967024 1.536197703e-08 6.635002936e-09)
(0.01099962039 1.490263164e-08 5.0345882e-09)
(0.01100037085 -9.041837376e-08 -2.190018438e-08)
(0.01100028166 -5.956611805e-08 -3.220052822e-08)
(0.01100025468 -3.01237556e-08 -1.408525582e-08)
(0.01100016697 -1.160501888e-08 -1.611780419e-09)
(0.01100006967 -2.338475367e-09 3.515508848e-09)
(0.01099997034 2.541417502e-09 1.089184808e-08)
(0.01099987125 5.531280356e-09 1.211572485e-08)
(0.01099978784 7.323319745e-09 1.226935562e-08)
(0.01099971041 8.375523171e-09 1.08444211e-08)
(0.01099964582 9.938515346e-09 1.008780968e-08)
(0.01099958956 1.163338472e-08 9.687475091e-09)
(0.0109995431 8.525735424e-09 9.317718876e-09)
(0.01099950361 9.014303669e-09 9.835933606e-09)
(0.01099947048 8.874475997e-09 6.571702144e-09)
(0.01100046569 -5.573278587e-11 -4.636084276e-08)
(0.01100029331 1.194298197e-09 -3.524284142e-08)
(0.01100022527 -7.188432954e-10 -1.12269362e-08)
(0.01100010925 -1.003628282e-09 5.177204242e-09)
(0.01099999067 -9.016361413e-10 1.061441712e-08)
(0.01099988191 -5.111731943e-10 1.335172927e-08)
(0.0109997836 -1.286373588e-09 1.169138148e-08)
(0.01099969862 -2.968676356e-10 1.212055099e-08)
(0.01099962546 -5.525556911e-10 1.07251641e-08)
(0.01099956299 -4.298642536e-10 1.233248847e-08)
(0.01099951235 1.934336554e-09 9.18989626e-09)
(0.01099947108 -3.717199457e-10 7.213326865e-09)
(0.01099944145 1.097112852e-11 8.506893858e-09)
(0.01099941173 -1.198702122e-09 6.889640506e-09)
(0.01100037082 9.015032333e-08 -2.212822328e-08)
(0.01100028031 5.77434098e-08 -3.313710953e-08)
(0.01100025464 2.995216643e-08 -1.472658837e-08)
(0.01100016721 1.198002985e-08 -2.152247049e-09)
(0.0110000695 9.459417997e-10 6.242036888e-09)
(0.0109999677 -3.240613616e-09 1.130695555e-08)
(0.01099987536 -5.565134053e-09 1.351729224e-08)
(0.01099978843 -8.860937408e-09 1.093182751e-08)
(0.01099971061 -7.601511964e-09 1.072811938e-08)
(0.01099964634 -7.77136806e-09 9.554307313e-09)
(0.01099959301 -9.158110192e-09 8.204467307e-09)
(0.01099954124 -8.358260394e-09 9.581922823e-09)
(0.01099950497 -8.754470222e-09 1.056994081e-08)
(0.01099947279 -7.822940766e-09 7.934045203e-09)
(0.01100034913 6.271016365e-08 -3.420566712e-08)
(0.01100033717 5.902854234e-08 -3.129711913e-08)
(0.01100034334 4.017315568e-08 -1.727746465e-08)
(0.0110002871 2.329497583e-08 -7.156603004e-09)
(0.01100022405 1.010499754e-08 -3.031611992e-10)
(0.01100014603 -1.584248687e-10 4.216187617e-09)
(0.01100006196 -6.795293358e-09 7.614682919e-09)
(0.01099998426 -7.642021461e-09 9.034115837e-09)
(0.01099990637 -1.118337348e-08 8.729371694e-09)
(0.01099983765 -1.193033355e-08 7.597585543e-09)
(0.0109997719 -1.67160454e-08 7.69462265e-09)
(0.01099971673 -1.192590381e-08 7.118314729e-09)
(0.01099966912 -1.469127495e-08 9.259053479e-09)
(0.01099962405 -1.087891665e-08 5.075613364e-09)
(0.01100032308 6.792958837e-08 -1.831809757e-08)
(0.01100034643 6.103760969e-08 -1.797375468e-08)
(0.01100037701 4.426099844e-08 -1.294409819e-08)
(0.01100036472 2.821306974e-08 -6.577194067e-09)
(0.01100033634 1.589469585e-08 -3.825558866e-09)
(0.01100028926 8.263315673e-09 1.468885306e-09)
(0.01100022883 1.362880325e-09 1.851462559e-09)
(0.01100016885 -4.158638826e-09 3.250893524e-09)
(0.01100009772 -7.679347548e-09 4.071549605e-09)
(0.01100003275 -1.041938724e-08 4.940076636e-09)
(0.01099996691 -1.12145282e-08 7.683663209e-09)
(0.01099990073 -1.025635593e-08 4.204039797e-09)
(0.0109998467 -1.264774971e-08 6.951719284e-09)
(0.01099978986 -1.234741422e-08 6.106322573e-09)
(0.01100031055 1.827434376e-08 -1.640087216e-08)
(0.01100035078 1.461332463e-08 -1.760556647e-08)
(0.01100039618 1.256827269e-08 -1.208658563e-08)
(0.01100040288 6.712184408e-09 -8.564658772e-09)
(0.01100039229 5.267933255e-09 -7.419503487e-09)
(0.01100036386 9.716694338e-10 -3.108333079e-09)
(0.01100032372 1.140196831e-09 -5.442218355e-10)
(0.01100027256 -2.446819986e-09 2.259729798e-09)
(0.01100021133 -3.952170749e-09 2.729863322e-09)
(0.01100015079 -4.637771759e-09 3.439903792e-09)
(0.01100008421 -3.035610682e-09 3.681880159e-09)
(0.01100001807 -3.477158799e-09 4.146671163e-09)
(0.01099996152 -3.066685398e-09 5.80677372e-09)
(0.0109998975 -3.856581031e-09 5.838279358e-09)
(0.01100019223 -4.171591544e-08 -1.067024819e-07)
(0.0110003257 -1.74438763e-08 -6.832172695e-08)
(0.01100034699 -1.863143969e-08 -6.029380924e-08)
(0.0110003782 -1.241913828e-08 -4.340405714e-08)
(0.01100036662 -6.981532248e-09 -2.657445921e-08)
(0.01100033614 -2.083524401e-09 -1.664270527e-08)
(0.01100028962 2.662362298e-10 -8.597794614e-09)
(0.01100023001 3.343892091e-09 -5.641218831e-10)
(0.01100016728 4.856249289e-09 5.060963072e-09)
(0.01100009727 4.0446029e-09 7.951597676e-09)
(0.01100003263 5.000495472e-09 9.095993872e-09)
(0.01099996656 7.299462971e-09 1.082592495e-08)
(0.0109999025 5.847638553e-09 1.157085949e-08)
(0.01099984909 5.045420143e-09 1.393827467e-08)
(0.01099978346 5.611150574e-09 1.399823608e-08)
(0.01100034111 -8.809034306e-08 -8.898885549e-08)
(0.01100031863 -7.696164536e-08 -7.884169531e-08)
(0.01100032243 -5.077225258e-08 -5.330484505e-08)
(0.01100027918 -2.85983125e-08 -3.040531891e-08)
(0.01100021812 -1.344798979e-08 -1.525490548e-08)
(0.01100014513 3.108553582e-10 -1.819760857e-09)
(0.01100007098 6.994173376e-09 6.588636188e-09)
(0.01099999648 1.217234059e-08 1.128911271e-08)
(0.01099992947 1.414643624e-08 1.426083165e-08)
(0.01099986625 1.329531915e-08 1.499113552e-08)
(0.01099980544 1.608343017e-08 1.562716335e-08)
(0.0109997513 1.576438809e-08 1.464261926e-08)
(0.01099970426 1.623627879e-08 1.627596602e-08)
(0.01099965521 1.438048424e-08 1.537391418e-08)
(0.01100037013 -6.601606421e-08 -1.59854296e-07)
(0.01100024205 -7.453539163e-08 -1.274167709e-07)
(0.01100019075 -4.21018253e-08 -6.745716586e-08)
(0.01100007629 -1.480240527e-08 -2.606690771e-08)
(0.01099996543 4.921459627e-10 -1.929531593e-09)
(0.01099986251 1.2330007e-08 1.337282896e-08)
(0.01099977543 2.016153337e-08 2.035403806e-08)
(0.01099969803 2.074929396e-08 2.422313974e-08)
(0.01099963534 2.142314368e-08 2.550417174e-08)
(0.01099958496 2.187992757e-08 2.393282924e-08)
(0.01099954399 1.916002175e-08 2.198460927e-08)
(0.01099950685 1.869069006e-08 2.156756853e-08)
(0.01099947711 2.146655049e-08 2.070522439e-08)
(0.01099945444 1.6614873e-08 1.793705696e-08)
(0.01100032634 -1.041273882e-07 -1.489525965e-07)
(0.0110000063 -6.421002147e-08 -1.396298573e-07)
(0.01099990057 -2.236396433e-08 -5.511859593e-08)
(0.01099974308 1.839030379e-09 -5.085190258e-09)
(0.01099961058 1.266564747e-08 2.02270624e-08)
(0.01099950917 1.618723713e-08 3.142837652e-08)
(0.01099942624 1.627257648e-08 3.751601488e-08)
(0.01099937223 1.619399725e-08 3.668710963e-08)
(0.01099933351 1.490308236e-08 3.401750462e-08)
(0.01099930434 1.511874816e-08 3.137181959e-08)
(0.0109992872 1.372851114e-08 2.847624654e-08)
(0.01099927661 1.077157517e-08 2.493141651e-08)
(0.01099927116 1.258393895e-08 2.543403635e-08)
(0.01099926701 1.185682971e-08 2.223491328e-08)
(0.01100047582 1.096762018e-10 -2.276406121e-07)
(0.0109998833 -2.876684768e-10 -1.361009102e-07)
(0.0109997219 -1.652329845e-09 -2.162329158e-08)
(0.01099954221 -2.18094719e-09 2.996095899e-08)
(0.01099940759 -1.286480737e-09 4.5013049e-08)
(0.01099931873 -5.807416836e-10 4.920221236e-08)
(0.01099925871 -1.545133338e-09 4.725015853e-08)
(0.01099922044 -8.747534694e-10 4.424143135e-08)
(0.0109991974 -1.475451431e-09 3.776908079e-08)
(0.01099918517 -1.437233481e-09 3.350163255e-08)
(0.0109991831 1.736056217e-10 2.845138083e-08)
(0.010999182 4.917709141e-10 2.518702398e-08)
(0.01099918895 -6.890174832e-10 2.703932312e-08)
(0.01099919251 -8.103655716e-10 2.245003078e-08)
(0.01100032332 1.033619774e-07 -1.473602812e-07)
(0.01100000515 6.543560302e-08 -1.392067934e-07)
(0.01099990346 2.306154702e-08 -5.508850668e-08)
(0.01099974414 -1.993386435e-09 -4.329888998e-09)
(0.01099960844 -1.184267941e-08 2.105179603e-08)
(0.01099950796 -1.794167426e-08 3.413772796e-08)
(0.01099942783 -1.572545199e-08 3.837138217e-08)
(0.01099937314 -1.559922565e-08 3.747085889e-08)
(0.01099933457 -1.470594997e-08 3.383328205e-08)
(0.01099930739 -1.38301379e-08 3.073596481e-08)
(0.01099929076 -1.264093104e-08 2.769038933e-08)
(0.01099927749 -1.209629595e-08 2.485829381e-08)
(0.01099927269 -1.296430489e-08 2.582155754e-08)
(0.01099926718 -9.706195946e-09 2.167762391e-08)
(0.01100036445 6.807011659e-08 -1.582907155e-07)
(0.01100024039 7.583952414e-08 -1.247915445e-07)
(0.01100018654 4.214201214e-08 -6.582192678e-08)
(0.01100007354 1.846193985e-08 -2.617455515e-08)
(0.01099996565 1.845808249e-10 -1.473064538e-09)
(0.01099986562 -1.036941361e-08 1.348678794e-08)
(0.0109997736 -1.94228681e-08 2.164726582e-08)
(0.01099969966 -1.999490018e-08 2.390795533e-08)
(0.01099963518 -1.899379196e-08 2.306914554e-08)
(0.01099958473 -1.953056123e-08 2.363340453e-08)
(0.01099954095 -1.783609152e-08 2.179271728e-08)
(0.01099950999 -1.769551893e-08 2.048089375e-08)
(0.01099947954 -1.9903634e-08 2.092029799e-08)
(0.010999455 -1.704593071e-08 1.902167871e-08)
(0.01100033875 8.783507287e-08 -8.760014536e-08)
(0.01100031637 7.648459219e-08 -7.898571735e-08)
(0.01100032368 5.122694576e-08 -5.223849928e-08)
(0.0110002762 2.793549252e-08 -2.975722607e-08)
(0.01100021744 1.279164574e-08 -1.403219123e-08)
(0.01100014497 2.750584779e-09 -1.627121154e-09)
(0.01100007022 -7.044744962e-09 6.436769468e-09)
(0.0109999992 -1.16421865e-08 1.075298245e-08)
(0.01099992956 -1.286712202e-08 1.32870465e-08)
(0.01099986597 -1.526469963e-08 1.418652797e-08)
(0.01099980427 -1.645363889e-08 1.526549716e-08)
(0.01099975001 -1.439201903e-08 1.566419772e-08)
(0.01099970815 -1.66084615e-08 1.764032982e-08)
(0.01099966192 -1.435255461e-08 1.374642057e-08)
(0.01100032434 1.788929093e-08 -6.88453571e-08)
(0.01100034868 1.802859958e-08 -6.064574062e-08)
(0.01100037796 1.4262657e-08 -4.390523207e-08)
(0.0110003671 6.836839403e-09 -2.856057241e-08)
(0.01100033807 3.780759705e-09 -1.637231223e-08)
(0.01100028797 -8.615357627e-10 -7.433586926e-09)
(0.01100023044 -1.328801722e-09 -5.151998031e-10)
(0.01100016546 -2.883137236e-09 3.197351282e-09)
(0.01100009913 -5.72703946e-09 7.113022304e-09)
(0.01100003157 -5.995247866e-09 9.587585135e-09)
(0.0109999667 -5.743378488e-09 1.111574453e-08)
(0.01099990005 -4.192758558e-09 9.776092752e-09)
(0.0109998479 -4.210875767e-09 1.311859029e-08)
(0.01099979174 -4.308875663e-09 1.142288744e-08)
(0.01100016957 -8.622158821e-08 -1.318090147e-07)
(0.01100035175 -3.064726958e-08 -6.596736004e-08)
(0.01100034063 -3.116362306e-08 -5.94462803e-08)
(0.01100034342 -1.732484285e-08 -3.936052839e-08)
(0.01100029017 -6.446148139e-09 -2.305212394e-08)
(0.01100022093 -1.704992086e-10 -1.021645251e-08)
(0.01100014719 7.682957782e-09 -1.320023157e-09)
(0.01100006122 8.834879552e-09 5.958108976e-09)
(0.01099998286 1.000809516e-08 1.008428985e-08)
(0.01099990628 9.596553672e-09 1.08759574e-08)
(0.01099983625 9.763729617e-09 1.167040605e-08)
(0.01099977576 9.862536615e-09 1.630496505e-08)
(0.0109997142 9.741898793e-09 1.369389168e-08)
(0.01099966947 9.603316737e-09 1.479136935e-08)
(0.01099961745 9.032322729e-09 1.345709861e-08)
(0.01100014507 -3.584376209e-07 -2.200809561e-07)
(0.01100036775 -1.595847961e-07 -7.01117769e-08)
(0.01100023844 -1.246116754e-07 -7.649757658e-08)
(0.01100018614 -6.430813631e-08 -4.404132075e-08)
(0.01100007678 -2.679817606e-08 -1.867874064e-08)
(0.01099996559 -2.505407197e-09 -3.415589215e-09)
(0.01099986245 1.400062351e-08 9.737045216e-09)
(0.01099977176 2.256203838e-08 1.714469593e-08)
(0.01099969748 2.482923466e-08 1.853946729e-08)
(0.01099963615 2.665367559e-08 1.941658232e-08)
(0.0109995842 2.398589555e-08 2.051383775e-08)
(0.010999543 2.251159536e-08 1.764650536e-08)
(0.01099950708 2.068527428e-08 1.744191251e-08)
(0.01099947912 2.285196784e-08 1.848776899e-08)
(0.010999454 2.09721726e-08 1.673521856e-08)
(0.01100035371 -1.262214311e-07 -1.317314006e-07)
(0.01099994493 -1.238140763e-07 -1.250841994e-07)
(0.01099975921 -4.556213379e-08 -4.678480851e-08)
(0.01099954347 5.130904424e-09 -8.739107487e-10)
(0.0109993844 2.543838217e-08 2.229196349e-08)
(0.01099928056 3.757002926e-08 3.359179149e-08)
(0.01099921396 4.097962022e-08 3.841737947e-08)
(0.01099917693 3.836700364e-08 3.536833142e-08)
(0.01099915865 3.51616777e-08 3.167537041e-08)
(0.01099915463 3.050560079e-08 3.04758966e-08)
(0.01099916091 2.683975753e-08 2.718498658e-08)
(0.01099916804 2.459826005e-08 2.070162421e-08)
(0.01099917792 2.600583582e-08 2.470663832e-08)
(0.01099919305 2.21233061e-08 2.015856064e-08)
(0.01099997367 -1.685839924e-07 2.727113787e-08)
(0.01099907715 -7.342885189e-08 -1.305426382e-07)
(0.01099885642 1.185022189e-08 -1.070020507e-08)
(0.0109986387 4.531499832e-08 5.017771463e-08)
(0.01099853863 4.737548256e-08 6.452612599e-08)
(0.01099852214 4.208306195e-08 6.649726906e-08)
(0.01099854861 3.461680399e-08 5.815119121e-08)
(0.01099859957 3.147378888e-08 5.080866161e-08)
(0.01099865796 2.374013826e-08 4.368863862e-08)
(0.01099872271 2.271166732e-08 3.444895746e-08)
(0.01099878527 1.867284158e-08 3.096677554e-08)
(0.01099884483 1.60307443e-08 2.720717938e-08)
(0.01099889875 1.767376837e-08 2.671681665e-08)
(0.01099894565 1.371959808e-08 2.263284202e-08)
(0.01099998923 2.767674608e-11 3.488674101e-07)
(0.01099829222 8.36066388e-10 -1.769838857e-08)
(0.01099810531 3.204485112e-11 8.314448038e-08)
(0.01099798865 -3.590949076e-10 1.199534159e-07)
(0.01099800362 -8.231192821e-11 1.04822365e-07)
(0.01099809466 1.272615749e-09 8.56039449e-08)
(0.01099820367 -1.393315351e-09 6.945997145e-08)
(0.01099831881 -2.006565672e-09 5.493406039e-08)
(0.01099843137 -1.475374395e-09 4.379835193e-08)
(0.01099853456 -1.130965229e-09 3.53391581e-08)
(0.01099862608 -2.636858242e-11 3.040546421e-08)
(0.01099871129 -4.347212245e-10 2.66074117e-08)
(0.01099878294 -5.450645769e-10 2.780322717e-08)
(0.01099884982 -5.47665979e-10 2.32015632e-08)
(0.01099997282 1.701965594e-07 2.937498467e-08)
(0.01099907752 7.490082154e-08 -1.294256267e-07)
(0.0109988565 -1.099320428e-08 -7.591478598e-09)
(0.01099863965 -4.526875032e-08 5.181986289e-08)
(0.01099853835 -4.630353979e-08 6.578308186e-08)
(0.01099852405 -4.305520305e-08 6.699412911e-08)
(0.0109985455 -3.542928938e-08 5.932985509e-08)
(0.01099860046 -3.061962e-08 5.15863627e-08)
(0.01099865947 -2.460586291e-08 4.258505981e-08)
(0.01099872689 -2.24447455e-08 3.469659715e-08)
(0.01099878587 -1.789388388e-08 3.13074527e-08)
(0.01099884402 -1.62312453e-08 2.600945771e-08)
(0.01099889617 -1.575010548e-08 2.796166915e-08)
(0.01099894836 -1.33546761e-08 2.427923487e-08)
(0.0110003526 1.281223188e-07 -1.281418145e-07)
(0.01099994641 1.231079049e-07 -1.255567856e-07)
(0.01099975944 4.45364279e-08 -4.46730115e-08)
(0.01099954279 -3.417935202e-09 2.64357656e-09)
(0.01099938626 -2.644489645e-08 2.491374582e-08)
(0.01099928059 -3.530001156e-08 3.624362787e-08)
(0.01099921199 -3.817969259e-08 3.747345638e-08)
(0.01099917737 -3.595283443e-08 3.539881963e-08)
(0.01099915883 -3.220330714e-08 3.09339668e-08)
(0.01099915441 -2.828560256e-08 2.629139022e-08)
(0.01099915902 -2.604001779e-08 2.490468977e-08)
(0.01099916875 -2.257543668e-08 2.285983785e-08)
(0.01099917739 -2.490434191e-08 2.500589294e-08)
(0.0109991909 -2.038448157e-08 2.166803313e-08)
(0.01100036821 1.584938621e-07 -6.915337675e-08)
(0.01100024149 1.260810275e-07 -7.735633503e-08)
(0.0110001863 6.497235893e-08 -4.453822094e-08)
(0.01100007618 2.674604669e-08 -1.957933002e-08)
(0.01099996658 1.817486621e-09 -3.391393572e-09)
(0.0109998643 -1.350044961e-08 8.337791198e-09)
(0.01099977067 -2.033500078e-08 1.826108931e-08)
(0.01099969876 -2.373121757e-08 1.928427568e-08)
(0.010999635 -2.394113049e-08 1.881553535e-08)
(0.01099958376 -2.498906385e-08 1.673895326e-08)
(0.01099954387 -2.425605215e-08 1.794999564e-08)
(0.01099950771 -2.104651108e-08 1.610356697e-08)
(0.01099948119 -2.038498314e-08 1.965397515e-08)
(0.0109994514 -1.932437212e-08 1.71006063e-08)
(0.01100035156 3.351163501e-08 -6.522385689e-08)
(0.01100033735 3.063974841e-08 -6.171553424e-08)
(0.01100034243 1.793932371e-08 -4.121957268e-08)
(0.01100029264 6.48397127e-09 -2.246236629e-08)
(0.01100022446 8.876562008e-10 -1.221815766e-08)
(0.011000145 -5.019105287e-09 -8.069309974e-10)
(0.01100006242 -7.176743574e-09 4.997507129e-09)
(0.01099998312 -7.697424285e-09 9.245333545e-09)
(0.01099990666 -7.983705816e-09 1.030309372e-08)
(0.01099983809 -7.343024137e-09 1.231002699e-08)
(0.01099977418 -8.9492181e-09 1.262122879e-08)
(0.01099971795 -7.408432295e-09 1.334421801e-08)
(0.01099966985 -7.570688492e-09 1.590906307e-08)
(0.0109996175 -6.141254478e-09 1.382577998e-08)
(0.01100016777 -1.241720766e-07 -2.112570395e-07)
(0.01100037166 -2.176035818e-08 -9.071980874e-08)
(0.01100028197 -3.220589878e-08 -5.943939159e-08)
(0.01100025392 -1.439887041e-08 -3.215492086e-08)
(0.01100016792 -2.978852224e-09 -1.363518718e-08)
(0.0110000703 7.33529792e-09 -3.362482058e-09)
(0.01099996982 1.281733004e-08 3.783690447e-09)
(0.01099987232 1.404989737e-08 5.80893405e-09)
(0.01099978841 1.312204535e-08 8.989830953e-09)
(0.0109997116 1.235286622e-08 9.540708521e-09)
(0.01099964533 1.204539216e-08 9.362075052e-09)
(0.0109995896 9.211824187e-09 8.615307069e-09)
(0.01099954156 9.129094681e-09 9.421319578e-09)
(0.01099950279 8.193508711e-09 1.092765525e-08)
(0.01099946942 8.489159357e-09 9.907908898e-09)
(0.01100013135 -5.614592873e-07 -4.32241968e-07)
(0.01100032718 -1.459801623e-07 -1.064959458e-07)
(0.01100000587 -1.382192107e-07 -6.609217726e-08)
(0.01099990164 -5.375465037e-08 -2.467852363e-08)
(0.01099974317 -5.219159838e-09 1.352003514e-09)
(0.01099961341 1.967512531e-08 1.105976577e-08)
(0.01099950856 3.422300877e-08 1.465262155e-08)
(0.01099942857 3.860234471e-08 1.649401648e-08)
(0.01099937213 3.737147504e-08 1.727545089e-08)
(0.01099933604 3.582828566e-08 1.560603872e-08)
(0.01099930729 3.141488101e-08 1.371487621e-08)
(0.01099928784 2.793219413e-08 1.395170781e-08)
(0.0109992753 2.539164939e-08 1.230293058e-08)
(0.01099927248 2.727671618e-08 1.294137777e-08)
(0.01099926713 2.295944103e-08 1.037044076e-08)
(0.01099983561 -8.049595145e-07 -1.246512726e-06)
(0.01099997248 3.076314939e-08 -1.729787225e-07)
(0.01099907771 -1.276705858e-07 -7.536369953e-08)
(0.01099885331 -7.983569587e-09 8.391841909e-09)
(0.0109986387 5.388643924e-08 4.231054568e-08)
(0.01099854146 6.841015247e-08 4.575312872e-08)
(0.01099852337 6.860980572e-08 4.225573499e-08)
(0.01099854723 6.205765946e-08 3.678443625e-08)
(0.01099859881 5.425481518e-08 2.875681457e-08)
(0.01099865953 4.531800839e-08 2.379743484e-08)
(0.01099872408 3.594330581e-08 1.99408562e-08)
(0.0109987854 3.124382703e-08 1.78037068e-08)
(0.01099884547 2.697570108e-08 1.605900241e-08)
(0.01099889656 2.831517047e-08 1.699214565e-08)
(0.01099894905 2.304025561e-08 1.350755024e-08)
(0.01099781096 3.744845584e-07 3.706787519e-07)
(0.01099627666 4.351371891e-08 4.351970648e-08)
(0.0109965456 1.072682927e-07 1.060318256e-07)
(0.01099665673 1.228350151e-07 1.213505008e-07)
(0.01099690201 9.716587266e-08 9.385066365e-08)
(0.01099719242 7.391109502e-08 7.117153157e-08)
(0.01099746902 5.374363259e-08 5.400562806e-08)
(0.01099772249 3.999583709e-08 3.873860486e-08)
(0.01099793769 3.006940955e-08 2.953870343e-08)
(0.01099812958 2.375802079e-08 2.509345786e-08)
(0.01099829316 2.111074947e-08 2.081850951e-08)
(0.010998432 1.738614477e-08 1.705490865e-08)
(0.01099854536 1.844533654e-08 1.897069588e-08)
(0.01099865786 1.671329142e-08 1.611919649e-08)
(0.01099517326 2.510800398e-09 2.533185766e-06)
(0.01099248974 3.487262433e-10 7.375681944e-07)
(0.01099414225 8.108461655e-10 3.625050071e-07)
(0.01099502965 2.132370829e-10 2.517965158e-07)
(0.0109957729 1.627328578e-10 1.455064254e-07)
(0.01099639941 1.657284807e-10 9.045071711e-08)
(0.0109968946 -4.974066643e-10 5.772146176e-08)
(0.01099729071 1.007159774e-10 3.806940708e-08)
(0.01099761059 -7.102163229e-10 2.819905043e-08)
(0.01099786895 -2.115201499e-10 1.974531624e-08)
(0.01099808128 -6.082678561e-10 1.923329098e-08)
(0.01099826127 -1.808214248e-10 1.73618975e-08)
(0.01099840271 -1.834322175e-10 1.863078645e-08)
(0.01099854003 3.185356837e-11 1.431743006e-08)
(0.01099781019 -3.717557087e-07 3.703979066e-07)
(0.01099627557 -4.256094534e-08 4.393427576e-08)
(0.01099654213 -1.071128342e-07 1.084861282e-07)
(0.01099666006 -1.24223359e-07 1.227085734e-07)
(0.01099690029 -9.628209409e-08 9.596914624e-08)
(0.01099719527 -7.352421627e-08 7.127966752e-08)
(0.01099746924 -5.429498412e-08 5.261994507e-08)
(0.01099772186 -4.129518781e-08 3.944029251e-08)
(0.01099793934 -3.180931423e-08 3.069847842e-08)
(0.01099813312 -2.677744203e-08 2.414035319e-08)
(0.01099829244 -2.158984327e-08 1.988678287e-08)
(0.01099843261 -1.812633752e-08 1.775672372e-08)
(0.01099854529 -1.884954783e-08 1.942278386e-08)
(0.0109986607 -1.499053133e-08 1.671178364e-08)
(0.01099997166 -3.273531244e-08 -1.732469692e-07)
(0.01099907823 1.257736027e-07 -7.473691499e-08)
(0.01099885364 6.784371419e-09 9.139433324e-09)
(0.01099863669 -5.146840726e-08 4.287912494e-08)
(0.01099853934 -6.871371821e-08 4.513753263e-08)
(0.01099852182 -6.792032727e-08 4.068858899e-08)
(0.01099854737 -6.047739471e-08 3.494438808e-08)
(0.01099859771 -5.137015191e-08 2.939554261e-08)
(0.01099865857 -4.29197416e-08 2.363192308e-08)
(0.01099872387 -3.469507708e-08 1.983708353e-08)
(0.01099878399 -3.089273207e-08 1.840959753e-08)
(0.01099884643 -2.672571868e-08 1.593569954e-08)
(0.01099889678 -2.884195352e-08 1.600656581e-08)
(0.0109989493 -2.369097374e-08 1.323439791e-08)
(0.01100032594 1.470128067e-07 -1.057833953e-07)
(0.01100000458 1.381189673e-07 -6.554079659e-08)
(0.01099990172 5.324384034e-08 -2.287458866e-08)
(0.0109997421 2.597358824e-09 8.638553212e-10)
(0.01099961193 -2.239225112e-08 1.083952532e-08)
(0.01099950844 -3.472541844e-08 1.576414124e-08)
(0.01099942793 -3.775934696e-08 1.644922514e-08)
(0.01099937344 -3.572750381e-08 1.567866393e-08)
(0.01099933144 -3.479046034e-08 1.43635767e-08)
(0.01099930825 -3.043232363e-08 1.46165442e-08)
(0.01099929028 -2.787477775e-08 1.316253191e-08)
(0.01099927773 -2.567995954e-08 1.240624817e-08)
(0.01099927176 -2.478280415e-08 1.037568062e-08)
(0.01099926802 -2.227327528e-08 1.1200042e-08)
(0.01100037094 2.120451242e-08 -9.044341239e-08)
(0.01100028229 3.128628325e-08 -5.822132034e-08)
(0.01100025526 1.446277797e-08 -3.080724925e-08)
(0.01100016774 2.517389427e-09 -1.270711787e-08)
(0.01100006977 -5.729149716e-09 -3.957981243e-09)
(0.01099996974 -9.916877883e-09 1.820654671e-09)
(0.01099987165 -1.282690193e-08 6.639831715e-09)
(0.01099978566 -1.20172017e-08 7.956648649e-09)
(0.01099971124 -1.08971746e-08 8.351737188e-09)
(0.01099964457 -9.687255705e-09 8.608041777e-09)
(0.01099959029 -8.563474794e-09 9.370010084e-09)
(0.01099954523 -9.811114226e-09 8.93299734e-09)
(0.01099950307 -8.41232477e-09 9.422097736e-09)
(0.01099947029 -7.609926589e-09 9.02536166e-09)
(0.01100013268 -2.987959441e-07 -1.476039252e-09)
(0.01100046444 -4.055519615e-08 -1.281848883e-09)
(0.01100029343 -3.228714845e-08 -1.874861612e-09)
(0.01100022705 -4.672431585e-09 -1.389075333e-09)
(0.01100010987 9.431996547e-09 -5.314031945e-10)
(0.01099999283 1.584886616e-08 -1.630705661e-10)
(0.01099988375 1.73344485e-08 7.111172545e-10)
(0.01099978525 1.886446214e-08 4.537703503e-10)
(0.01099969789 1.722026092e-08 1.063291378e-09)
(0.01099962575 1.46871765e-08 2.050106653e-09)
(0.01099956362 1.21985589e-08 2.971168099e-09)
(0.01099951406 1.315413018e-08 6.466568377e-10)
(0.01099947034 1.220496187e-08 -8.731553269e-10)
(0.01099943772 1.130324539e-08 -1.401632262e-09)
(0.01099940679 9.230090313e-09 2.063516923e-10)
(0.01100004985 -1.370448413e-06 -1.369261852e-09)
(0.011000476 -2.284395924e-07 9.68030558e-10)
(0.01099988334 -1.358197892e-07 2.018039908e-10)
(0.01099972198 -2.173165224e-08 -6.828225703e-11)
(0.01099954256 3.125795125e-08 -8.082203172e-10)
(0.01099940971 4.420814756e-08 7.711570402e-10)
(0.01099932009 4.889450064e-08 8.087994837e-10)
(0.01099926012 4.8354524e-08 1.021361866e-09)
(0.01099921989 4.354876942e-08 2.324981248e-09)
(0.01099919802 3.8182672e-08 7.623225786e-10)
(0.01099918736 3.24582064e-08 -3.343266085e-10)
(0.01099918184 2.89743425e-08 6.560030456e-10)
(0.01099918297 2.415422466e-08 1.415315692e-09)
(0.01099918685 2.624569111e-08 1.031596189e-09)
(0.01099919391 2.113214521e-08 1.998686131e-10)
(0.01099921283 -2.756558924e-06 -1.84017301e-09)
(0.01099998736 3.509460013e-07 -1.38438575e-09)
(0.01099829264 -1.514930476e-08 -2.158590224e-09)
(0.01099810503 8.389761763e-08 -6.292644926e-10)
(0.01099798905 1.227678953e-07 -2.798362419e-10)
(0.01099800515 1.076526447e-07 -9.980750282e-10)
(0.01099809495 8.967740264e-08 -3.347376534e-10)
(0.01099820368 7.158355386e-08 2.955394121e-11)
(0.0109983193 5.671906276e-08 6.632874406e-10)
(0.0109984307 4.580592074e-08 4.794574727e-10)
(0.01099853473 3.767030271e-08 -2.332621733e-10)
(0.01099862877 3.244096031e-08 -9.87381969e-10)
(0.01099871224 2.728701259e-08 -1.007136183e-09)
(0.01099878091 2.993649284e-08 -2.234386685e-09)
(0.01099885067 2.483855916e-08 -2.545990158e-10)
(0.01099349967 -1.258824413e-05 4.300623812e-12)
(0.01099516992 2.53667067e-06 8.159058942e-10)
(0.01099248606 7.386373169e-07 1.694151264e-09)
(0.01099414133 3.651256387e-07 1.006569507e-09)
(0.01099502871 2.537218936e-07 7.412851363e-10)
(0.01099577112 1.496532649e-07 9.813298754e-11)
(0.01099639925 9.091647245e-08 -2.506824363e-10)
(0.01099689395 5.825165215e-08 -2.172489025e-10)
(0.0109972904 3.83050626e-08 9.006952217e-10)
(0.01099760794 2.843266081e-08 -2.240806741e-10)
(0.01099787003 2.203217764e-08 -1.793629819e-09)
(0.01099808279 1.876436603e-08 -5.827379372e-10)
(0.01099826148 1.723363669e-08 -1.178109853e-09)
(0.01099840275 1.867508378e-08 -2.935881417e-10)
(0.01099853986 1.368065267e-08 -5.668835651e-10)
(0.01098769798 7.236389472e-10 -1.896989755e-09)
(0.01098130965 -1.266459806e-09 5.693367448e-10)
(0.01098887078 7.585627941e-10 -1.265017311e-10)
(0.01099220636 -4.839796545e-10 1.443564542e-10)
(0.01099407849 -8.197529734e-10 -8.704888058e-10)
(0.01099532863 -1.417246718e-09 3.907646801e-10)
(0.01099617318 -1.754767892e-09 1.361873279e-09)
(0.01099677907 -4.186426142e-10 -3.570598975e-10)
(0.01099722489 -3.455334508e-10 7.893005563e-10)
(0.01099757221 -8.944612967e-10 -9.95446767e-10)
(0.01099784638 -1.604939208e-09 -2.176880099e-09)
(0.01099807562 -1.350199999e-09 -7.596587647e-10)
(0.01099824578 5.59756927e-10 -1.050768402e-11)
(0.01099842185 8.33812334e-10 4.948146484e-10)
(0.01099517063 -2.534650089e-06 -9.542747236e-10)
(0.01099248881 -7.365078255e-07 -9.0110489e-10)
(0.01099414159 -3.657047199e-07 -2.742034617e-10)
(0.01099502959 -2.546334782e-07 -1.025966856e-09)
(0.01099577059 -1.485697138e-07 -1.708198004e-09)
(0.01099640026 -9.078830322e-08 -9.594698362e-11)
(0.01099689554 -5.89226096e-08 -3.493101679e-10)
(0.01099729003 -4.090854448e-08 -2.238380663e-10)
(0.01099760971 -3.015333502e-08 1.519799253e-09)
(0.01099786954 -2.29522847e-08 5.271055723e-10)
(0.0109980803 -1.97100759e-08 3.756893125e-10)
(0.01099826285 -1.702622271e-08 -6.257343439e-10)
(0.01099840451 -1.923676694e-08 -6.673760771e-10)
(0.01099853685 -1.27493941e-08 1.339853452e-09)
(0.01099998906 -3.507702074e-07 -1.864001089e-09)
(0.01099829254 1.624330176e-08 6.57324161e-10)