/*--------------------------------*- C++ -*----------------------------------*\
| =========                 |                                                 |
| \\      /  F ield         | OpenFOAM: The Open Source CFD Toolbox           |
|  \\    /   O peration     | Version:  4.x                                   |
|   \\  /    A nd           | Web:      www.OpenFOAM.org                      |
|    \\/     M anipulation  |                                                 |
\*---------------------------------------------------------------------------*/
FoamFile
{
    version     2.0;
    format      ascii;
    class       volScalarField;
    location    "4000";
    object      X_CO;
}
// * * * * * * * * * * * * * * * * * * * * * * * * * * * * * * * * * * * * * //

dimensions      [0 0 0 0 0 0 0];

internalField   nonuniform List<scalar> 
1174
(
0.3299561472
0.3299540954
0.3299512021
0.3299474331
0.3299428306
0.3299374976
0.3299315775
0.3299252324
0.3299186258
0.3299119117
0.3299052315
0.3298987359
0.3298926908
0.3298879458
0.3299542257
0.3299509444
0.3299465809
0.3299412385
0.3299351032
0.3299283988
0.3299213518
0.3299141675
0.3299070187
0.3299000424
0.3298933466
0.3298870355
0.3298813103
0.3298768952
0.329949987
0.3299442002
0.3299370505
0.3299289434
0.3299203156
0.3299115576
0.3299029775
0.3298947935
0.3298871435
0.3298801016
0.3298736985
0.3298679523
0.3298629542
0.3298592146
0.3299437873
0.3299348131
0.3299245255
0.3299136784
0.3299028977
0.329892631
0.3298831565
0.3298746157
0.3298670516
0.3298604418
0.3298547276
0.3298498427
0.3298457779
0.3298428376
0.3299393693
0.3299286495
0.3299169713
0.3299051576
0.3298938019
0.329883281
0.3298737986
0.3298654312
0.3298581693
0.3298519502
0.329846683
0.3298422745
0.3298386814
0.3298361256
0.3299437874
0.3299348133
0.3299245257
0.3299136787
0.3299028981
0.3298926314
0.3298831569
0.3298746162
0.329867052
0.3298604423
0.3298547281
0.3298498431
0.3298457784
0.3298428381
0.3299499871
0.3299442004
0.3299370507
0.3299289437
0.3299203159
0.329911558
0.3299029779
0.3298947939
0.329887144
0.3298801022
0.3298736991
0.329867953
0.3298629549
0.3298592153
0.3299542258
0.3299509445
0.329946581
0.3299412387
0.3299351034
0.3299283991
0.3299213521
0.3299141679
0.3299070191
0.3299000429
0.3298933472
0.3298870362
0.3298813111
0.329876896
0.3299561473
0.3299540954
0.3299512022
0.3299474333
0.3299428307
0.3299374978
0.3299315778
0.3299252327
0.3299186262
0.3299119122
0.3299052321
0.3298987365
0.3298926915
0.3298879466
0.3299564444
0.3299542257
0.3299509444
0.3299465809
0.3299412386
0.3299351033
0.3299283989
0.3299213519
0.3299141676
0.3299070188
0.3299000425
0.3298933467
0.3298870356
0.3298813104
0.3298768952
0.3299499027
0.3299441563
0.3299371592
0.3299293339
0.3299211024
0.3299128191
0.3299047464
0.3298970592
0.3298898597
0.3298831978
0.3298770911
0.3298715548
0.3298666865
0.329863011
0.3299390433
0.3299279075
0.3299158229
0.329903812
0.3298925717
0.3298824787
0.329873667
0.3298661144
0.3298597136
0.3298543214
0.3298497908
0.3298459953
0.3298428756
0.3298406319
0.3299197812
0.3299013049
0.3298837662
0.3298684704
0.3298558655
0.3298458822
0.329838202
0.3298324261
0.3298281646
0.3298250762
0.3298228795
0.3298213516
0.329820324
0.3298197078
0.3299016461
0.3298794461
0.329860668
0.3298457929
0.3298345148
0.3298262506
0.3298203834
0.3298163613
0.3298137272
0.329812118
0.3298112518
0.3298109101
0.3298109123
0.3298110671
0.3299197815
0.3299013052
0.3298837667
0.3298684708
0.329855866
0.3298458827
0.3298382026
0.3298324266
0.3298281651
0.3298250767
0.3298228801
0.3298213521
0.3298203246
0.3298197083
0.3299390436
0.3299279078
0.3299158233
0.3299038125
0.3298925722
0.3298824793
0.3298736676
0.3298661151
0.3298597143
0.3298543222
0.3298497917
0.3298459961
0.3298428764
0.3298406328
0.3299499029
0.3299441565
0.3299371595
0.3299293342
0.3299211028
0.3299128195
0.3299047469
0.3298970597
0.3298898604
0.3298831985
0.3298770919
0.3298715557
0.3298666875
0.329863012
0.3299542258
0.3299509445
0.329946581
0.3299412387
0.3299351035
0.3299283992
0.3299213522
0.329914168
0.3299070193
0.3299000431
0.3298933474
0.3298870364
0.3298813113
0.3298768963
0.3299541543
0.3299499871
0.3299442003
0.3299370507
0.3299289436
0.3299203159
0.3299115579
0.3299029777
0.3298947937
0.3298871437
0.3298801019
0.3298736988
0.3298679526
0.3298629545
0.3298592148
0.3299480504
0.3299390435
0.3299279077
0.3299158231
0.3299038123
0.3298925719
0.3298824789
0.3298736673
0.3298661146
0.3298597138
0.3298543216
0.329849791
0.3298459955
0.3298428757
0.3298406321
0.3299070292
0.3298836066
0.32986244
0.3298451195
0.3298319596
0.3298225659
0.3298162575
0.329812315
0.3298100998
0.329809094
0.3298089
0.3298092199
0.3298098152
0.3298104134
0.3298359658
0.329796519
0.3297693905
0.329753437
0.3297459965
0.3297443998
0.3297465001
0.3297507458
0.3297560873
0.3297618476
0.3297676053
0.3297730907
0.3297780472
0.3297818383
0.3297430805
0.3297039492
0.3296872505
0.3296844229
0.3296893654
0.3296982442
0.3297087912
0.3297197189
0.3297303273
0.3297402593
0.3297493509
0.3297575219
0.3297646222
0.3297699263
0.329835967
0.3297965203
0.3297693916
0.3297534381
0.3297459976
0.3297444009
0.3297465011
0.3297507467
0.3297560882
0.3297618484
0.3297676061
0.3297730915
0.329778048
0.3297818391
0.3299070303
0.3298836075
0.3298624409
0.3298451204
0.3298319606
0.329822567
0.3298162586
0.3298123162
0.329810101
0.3298090952
0.3298089012
0.3298092211
0.3298098164
0.3298104146
0.3299390437
0.3299279079
0.3299158234
0.3299038126
0.3298925724
0.3298824796
0.329873668
0.3298661155
0.3298597147
0.3298543226
0.3298497921
0.3298459966
0.329842877
0.3298406333
0.3299499871
0.3299442004
0.3299370508
0.3299289438
0.3299203161
0.3299115583
0.3299029782
0.3298947944
0.3298871445
0.3298801028
0.3298736998
0.3298679537
0.3298629557
0.3298592161
0.3299507207
0.3299437875
0.3299348134
0.3299245258
0.3299136788
0.3299028981
0.3298926315
0.3298831569
0.3298746162
0.329867052
0.3298604423
0.329854728
0.3298498431
0.3298457783
0.329842838
0.3299368069
0.3299197815
0.3299013053
0.3298837667
0.3298684708
0.3298558659
0.3298458826
0.3298382024
0.3298324265
0.3298281649
0.3298250765
0.3298228799
0.3298213519
0.3298203243
0.329819708
0.3298842162
0.329835966
0.3297965194
0.3297693908
0.3297534373
0.3297459968
0.3297444001
0.3297465003
0.329750746
0.3297560875
0.3297618478
0.3297676055
0.3297730909
0.3297780474
0.3297818385
0.3295927453
0.3295433355
0.3295353904
0.3295498486
0.3295742621
0.3296016226
0.3296283882
0.3296529862
0.3296748814
0.3296940441
0.3297106602
0.3297249527
0.3297369521
0.3297457088
0.3291162539
0.3291789959
0.3292749335
0.3293667806
0.3294447542
0.3295083202
0.3295595683
0.3296009457
0.3296345809
0.3296621586
0.3296849573
0.3297038914
0.3297193907
0.3297305212
0.32959275
0.3295433387
0.329535393
0.3295498509
0.3295742641
0.3296016245
0.3296283898
0.3296529877
0.3296748827
0.3296940453
0.3297106613
0.3297249538
0.3297369531
0.3297457097
0.329835967
0.3297965207
0.3297693923
0.329753439
0.3297459986
0.3297444019
0.3297465021
0.3297507478
0.3297560892
0.3297618495
0.3297676071
0.3297730925
0.3297780489
0.32978184
0.3299197815
0.3299013054
0.329883767
0.3298684714
0.3298558667
0.3298458836
0.3298382036
0.3298324278
0.3298281663
0.329825078
0.3298228814
0.3298213534
0.3298203259
0.3298197097
0.3299437874
0.3299348133
0.3299245259
0.329913679
0.3299028985
0.329892632
0.3298831577
0.3298746171
0.3298670531
0.3298604435
0.3298547294
0.3298498445
0.3298457798
0.3298428397
0.3299481496
0.3299393695
0.3299286499
0.3299169717
0.3299051581
0.3298938023
0.3298832815
0.3298737991
0.3298654317
0.3298581698
0.3298519506
0.3298466835
0.3298422749
0.3298386818
0.329836126
0.329925095
0.3299016465
0.3298794467
0.3298606686
0.3298457935
0.3298345154
0.3298262512
0.329820384
0.3298163618
0.3298137276
0.3298121184
0.3298112522
0.3298109105
0.3298109127
0.3298110674
0.3298127728
0.3297430808
0.3297039501
0.3296872513
0.3296844237
0.3296893661
0.3296982448
0.3297087917
0.3297197194
0.3297303277
0.3297402597
0.3297493513
0.3297575222
0.3297646225
0.3297699266
0.3292003571
0.3291162565
0.3291789979
0.329274935
0.3293667818
0.3294447551
0.3295083209
0.3295595689
0.3296009462
0.3296345814
0.329662159
0.3296849577
0.3297038917
0.329719391
0.3297305215
0.3270628704
0.3281090125
0.3286876388
0.3290261739
0.3292357837
0.3293728714
0.3294671674
0.3295349771
0.3295856138
0.3296246172
0.3296554064
0.3296801175
0.3296998537
0.3297138121
0.3291162532
0.3291790006
0.3292749384
0.3293667849
0.3294447579
0.3295083233
0.329559571
0.3296009481
0.329634583
0.3296621605
0.329684959
0.3297038929
0.3297193921
0.3297305225
0.3297430804
0.3297039508
0.3296872528
0.3296844256
0.3296893682
0.3296982469
0.3297087938
0.3297197215
0.3297303297
0.3297402616
0.3297493531
0.329757524
0.3297646242
0.3297699283
0.3299016461
0.3298794467
0.329860669
0.3298457943
0.3298345164
0.3298262525
0.3298203854
0.3298163634
0.3298137293
0.3298121201
0.329811254
0.3298109123
0.3298109145
0.3298110693
0.3299393694
0.3299286498
0.3299169718
0.3299051584
0.3298938029
0.3298832823
0.3298738001
0.3298654328
0.3298581711
0.3298519521
0.3298466851
0.3298422766
0.3298386836
0.3298361279
0.3299507207
0.3299437876
0.3299348136
0.329924526
0.3299136791
0.3299028984
0.3298926318
0.3298831573
0.3298746166
0.3298670525
0.3298604428
0.3298547285
0.3298498436
0.3298457788
0.3298428386
0.3299368071
0.3299197819
0.3299013058
0.3298837672
0.3298684714
0.3298558666
0.3298458833
0.3298382031
0.3298324272
0.3298281657
0.3298250772
0.3298228806
0.3298213526
0.329820325
0.3298197088
0.329884218
0.3298359678
0.3297965213
0.3297693926
0.329753439
0.3297459984
0.3297444016
0.3297465018
0.3297507474
0.3297560888
0.329761849
0.3297676066
0.329773092
0.3297780485
0.3297818395
0.3297041558
0.3295927523
0.3295433411
0.329535395
0.3295498524
0.3295742654
0.3296016256
0.3296283907
0.3296529885
0.3296748834
0.329694046
0.3297106619
0.3297249543
0.3297369535
0.3297457101
0.3292003574
0.3291162579
0.3291790037
0.3292749404
0.3293667863
0.3294447589
0.329508324
0.3295595716
0.3296009485
0.3296345834
0.3296621608
0.3296849593
0.3297038932
0.3297193923
0.3297305227
0.3297041549
0.3295927531
0.3295433427
0.3295353968
0.3295498543
0.3295742672
0.3296016272
0.3296283923
0.3296529899
0.3296748847
0.3296940472
0.329710663
0.3297249553
0.3297369545
0.3297457111
0.3298359655
0.3297965206
0.329769393
0.32975344
0.3297459998
0.3297444032
0.3297465035
0.3297507492
0.3297560905
0.3297618507
0.3297676083
0.3297730936
0.32977805
0.3297818411
0.3299197812
0.3299013054
0.3298837673
0.3298684719
0.3298558673
0.3298458843
0.3298382044
0.3298324286
0.3298281672
0.3298250788
0.3298228822
0.3298213543
0.3298203268
0.3298197106
0.3299437873
0.3299348133
0.329924526
0.3299136792
0.3299028988
0.3298926324
0.3298831582
0.3298746176
0.3298670537
0.3298604441
0.32985473
0.3298498452
0.3298457805
0.3298428404
0.3299541543
0.3299499872
0.3299442005
0.3299370509
0.3299289439
0.3299203162
0.3299115583
0.3299029782
0.3298947943
0.3298871444
0.3298801026
0.3298736995
0.3298679534
0.3298629553
0.3298592157
0.3299480507
0.3299390439
0.3299279081
0.3299158236
0.3299038128
0.3298925726
0.3298824797
0.3298736681
0.3298661155
0.3298597147
0.3298543226
0.3298497921
0.3298459966
0.3298428769
0.3298406332
0.3299294037
0.3299070307
0.3298836081
0.3298624415
0.329845121
0.3298319613
0.3298225676
0.3298162592
0.3298123168
0.3298101015
0.3298090957
0.3298089017
0.3298092216
0.3298098169
0.3298104151
0.329884218
0.3298359682
0.329796522
0.3297693936
0.3297534401
0.3297459996
0.3297444028
0.329746503
0.3297507486
0.3297560899
0.3297618501
0.3297676077
0.329773093
0.3297780494
0.3297818405
0.3298127733
0.3297430829
0.3297039532
0.3296872548
0.3296844271
0.3296893695
0.3296982479
0.3297087947
0.3297197221
0.3297303303
0.3297402622
0.3297493536
0.3297575244
0.3297646245
0.3297699286
0.3298842183
0.3298359687
0.3297965227
0.3297693944
0.3297534411
0.3297460006
0.3297444038
0.329746504
0.3297507495
0.3297560908
0.329761851
0.3297676086
0.3297730938
0.3297780502
0.3297818413
0.3299294031
0.3299070303
0.329883608
0.3298624419
0.3298451217
0.3298319621
0.3298225687
0.3298162604
0.329812318
0.3298101028
0.329809097
0.3298089031
0.3298092229
0.3298098182
0.3298104164
0.3299390434
0.3299279079
0.3299158236
0.3299038131
0.3298925731
0.3298824804
0.329873669
0.3298661166
0.3298597159
0.3298543239
0.3298497935
0.329845998
0.3298428784
0.3298406348
0.329949987
0.3299442003
0.3299370508
0.329928944
0.3299203164
0.3299115587
0.3299029788
0.3298947951
0.3298871453
0.3298801037
0.3298737008
0.3298679548
0.3298629568
0.3298592173
0.3299564445
0.3299542258
0.3299509446
0.3299465811
0.3299412389
0.3299351036
0.3299283993
0.3299213524
0.3299141682
0.3299070195
0.3299000433
0.3298933476
0.3298870366
0.3298813115
0.3298768964
0.3299540961
0.329949903
0.3299441567
0.3299371597
0.3299293344
0.3299211031
0.3299128198
0.3299047473
0.3298970601
0.3298898608
0.3298831989
0.3298770923
0.3298715561
0.3298666879
0.3298630124
0.3299480507
0.3299390439
0.3299279083
0.3299158238
0.3299038131
0.3298925729
0.3298824801
0.3298736685
0.329866116
0.3298597152
0.3298543231
0.3298497926
0.3298459971
0.3298428774
0.3298406338
0.3299368072
0.329919782
0.3299013062
0.3298837679
0.3298684722
0.3298558676
0.3298458844
0.3298382043
0.3298324284
0.329828167
0.3298250786
0.3298228819
0.329821354
0.3298203264
0.3298197102
0.3299250951
0.329901647
0.3298794477
0.32986067
0.3298457952
0.3298345173
0.3298262533
0.3298203861
0.329816364
0.3298137299
0.3298121207
0.3298112545
0.3298109127
0.3298109149
0.3298110697
0.3299368072
0.3299197822
0.3299013063
0.3298837681
0.3298684726
0.329855868
0.3298458849
0.3298382048
0.329832429
0.3298281675
0.3298250792
0.3298228826
0.3298213546
0.329820327
0.3298197108
0.3299480507
0.3299390439
0.3299279083
0.329915824
0.3299038134
0.3298925733
0.3298824806
0.3298736692
0.3298661168
0.329859716
0.329854324
0.3298497936
0.3298459981
0.3298428785
0.3298406349
0.3299540959
0.3299499029
0.3299441566
0.3299371597
0.3299293345
0.3299211033
0.3299128202
0.3299047478
0.3298970608
0.3298898615
0.3298831998
0.3298770933
0.3298715572
0.329866689
0.3298630136
0.3299542257
0.3299509445
0.3299465811
0.3299412389
0.3299351037
0.3299283996
0.3299213528
0.3299141687
0.3299070201
0.3299000441
0.3298933485
0.3298870377
0.3298813127
0.3298768977
0.3299574689
0.3299561473
0.3299540955
0.3299512023
0.3299474334
0.3299428309
0.329937498
0.329931578
0.3299252329
0.3299186265
0.3299119125
0.3299052324
0.3298987369
0.3298926919
0.329887947
0.3299564445
0.3299542258
0.3299509446
0.3299465812
0.3299412389
0.3299351037
0.3299283994
0.3299213525
0.3299141684
0.3299070197
0.3299000435
0.3298933478
0.3298870369
0.3298813118
0.3298768967
0.3299541543
0.3299499872
0.3299442006
0.329937051
0.3299289441
0.3299203165
0.3299115586
0.3299029786
0.3298947948
0.3298871449
0.3298801032
0.3298737002
0.3298679542
0.3298629561
0.3298592166
0.3299507207
0.3299437876
0.3299348137
0.3299245263
0.3299136795
0.329902899
0.3298926326
0.3298831583
0.3298746176
0.3298670536
0.329860444
0.3298547299
0.329849845
0.3298457803
0.3298428401
0.3299481496
0.3299393697
0.3299286502
0.3299169723
0.3299051589
0.3298938034
0.3298832828
0.3298738006
0.3298654333
0.3298581716
0.3298519525
0.3298466855
0.329842277
0.329838684
0.3298361283
0.3299507207
0.3299437877
0.3299348137
0.3299245264
0.3299136796
0.3299028992
0.3298926328
0.3298831585
0.3298746179
0.3298670539
0.3298604444
0.3298547303
0.3298498454
0.3298457808
0.3298428406
0.3299541543
0.3299499872
0.3299442006
0.3299370511
0.3299289442
0.3299203167
0.3299115589
0.329902979
0.3298947952
0.3298871455
0.3298801038
0.3298737009
0.3298679549
0.3298629569
0.3298592174
0.3299564445
0.3299542258
0.3299509446
0.3299465812
0.329941239
0.3299351039
0.3299283997
0.3299213529
0.3299141688
0.3299070202
0.3299000442
0.3298933486
0.3298870377
0.3298813127
0.3298768978
0.3299574688
0.3299561472
0.3299540955
0.3299512022
0.3299474334
0.329942831
0.3299374982
0.3299315783
0.3299252333
0.329918627
0.3299119131
0.3299052332
0.3298987378
0.3298926929
0.3298879482
)
;

boundaryField
{
    top
    {
        type            calculated;
        value           nonuniform List<scalar> 
127
(
0.3299574688
0.3299561473
0.3299542258
0.3299499871
0.3299437874
0.3299393694
0.3299437873
0.329949987
0.3299542257
0.3299561472
0.3299540954
0.3299509445
0.3299442004
0.3299348133
0.3299286498
0.3299348133
0.3299442003
0.3299509445
0.3299540955
0.3299512022
0.329946581
0.3299370508
0.3299245259
0.3299169718
0.329924526
0.3299370508
0.3299465811
0.3299512022
0.3299474333
0.3299412387
0.3299289438
0.329913679
0.3299051584
0.3299136792
0.329928944
0.3299412389
0.3299474334
0.3299428307
0.3299351035
0.3299203161
0.3299028985
0.3298938029
0.3299028988
0.3299203164
0.3299351037
0.329942831
0.3299374978
0.3299283992
0.3299115583
0.329892632
0.3298832823
0.3298926324
0.3299115587
0.3299283996
0.3299374982
0.3299315778
0.3299213522
0.3299029782
0.3298831577
0.3298738001
0.3298831582
0.3299029788
0.3299213528
0.3299315783
0.3299252327
0.329914168
0.3298947944
0.3298746171
0.3298654328
0.3298746176
0.3298947951
0.3299141687
0.3299252333
0.3299186262
0.3299070193
0.3298871445
0.3298670531
0.3298581711
0.3298670537
0.3298871453
0.3299070201
0.329918627
0.3299119122
0.3299000431
0.3298801028
0.3298604435
0.3298519521
0.3298604441
0.3298801037
0.3299000441
0.3299119131
0.3299052321
0.3298933474
0.3298736998
0.3298547294
0.3298466851
0.32985473
0.3298737008
0.3298933485
0.3299052332
0.3298987365
0.3298870364
0.3298679537
0.3298498445
0.3298422766
0.3298498452
0.3298679548
0.3298870377
0.3298987378
0.3298926915
0.3298813113
0.3298629557
0.3298457798
0.3298386836
0.3298457805
0.3298629568
0.3298813127
0.3298926929
0.3298879466
0.3298768963
0.3298592161
0.3298428397
0.3298361279
0.3298428404
0.3298592173
0.3298768977
0.3298879482
)
;
    }
    bottom
    {
        type            calculated;
        value           nonuniform List<scalar> 
134
(
0.3299564444
0.3299541543
0.3299507207
0.3299481496
0.3299507207
0.3299541543
0.3299564445
0.3299574689
0.3299561472
0.3299542257
0.3299499871
0.3299437875
0.3299393695
0.3299437876
0.3299499872
0.3299542258
0.3299561473
0.3299540954
0.3299509444
0.3299442003
0.3299348134
0.3299286499
0.3299348136
0.3299442005
0.3299509446
0.3299540955
0.3299512021
0.3299465809
0.3299370507
0.3299245258
0.3299169717
0.329924526
0.3299370509
0.3299465811
0.3299512023
0.3299474331
0.3299412386
0.3299289436
0.3299136788
0.3299051581
0.3299136791
0.3299289439
0.3299412389
0.3299474334
0.3299428306
0.3299351033
0.3299203159
0.3299028981
0.3298938023
0.3299028984
0.3299203162
0.3299351036
0.3299428309
0.3299374976
0.3299283989
0.3299115579
0.3298926315
0.3298832815
0.3298926318
0.3299115583
0.3299283993
0.329937498
0.3299315775
0.3299213519
0.3299029777
0.3298831569
0.3298737991
0.3298831573
0.3299029782
0.3299213524
0.329931578
0.3299252324
0.3299141676
0.3298947937
0.3298746162
0.3298654317
0.3298746166
0.3298947943
0.3299141682
0.3299252329
0.3299186258
0.3299070188
0.3298871437
0.329867052
0.3298581698
0.3298670525
0.3298871444
0.3299070195
0.3299186265
0.3299119117
0.3299000425
0.3298801019
0.3298604423
0.3298519506
0.3298604428
0.3298801026
0.3299000433
0.3299119125
0.3299052315
0.3298933467
0.3298736988
0.329854728
0.3298466835
0.3298547285
0.3298736995
0.3298933476
0.3299052324
0.3298987359
0.3298870356
0.3298679526
0.3298498431
0.3298422749
0.3298498436
0.3298679534
0.3298870366
0.3298987369
0.3298926908
0.3298813104
0.3298629545
0.3298457783
0.3298386818
0.3298457788
0.3298629553
0.3298813115
0.3298926919
0.3298879458
0.3298768952
0.3298592148
0.329842838
0.329836126
0.3298428386
0.3298592157
0.3298768964
0.329887947
)
;
    }
    side-walls
    {
        type            calculated;
        value           nonuniform List<scalar> 
261
(
0.3299561472
0.3299542257
0.329949987
0.3299437873
0.3299393693
0.3299437874
0.3299499871
0.3299542258
0.3299561473
0.3299540954
0.3299509444
0.3299442002
0.3299348131
0.3299286495
0.3299348133
0.3299442004
0.3299509445
0.3299540954
0.3299512021
0.3299465809
0.3299370505
0.3299245255
0.3299169713
0.3299245257
0.3299370507
0.329946581
0.3299512022
0.3299474331
0.3299412385
0.3299289434
0.3299136784
0.3299051576
0.3299136787
0.3299289437
0.3299412387
0.3299474333
0.3299428306
0.3299351032
0.3299203156
0.3299028977
0.3298938019
0.3299028981
0.3299203159
0.3299351034
0.3299428307
0.3299374976
0.3299283988
0.3299115576
0.329892631
0.329883281
0.3298926314
0.329911558
0.3299283991
0.3299374978
0.3299315775
0.3299213518
0.3299029775
0.3298831565
0.3298737986
0.3298831569
0.3299029779
0.3299213521
0.3299315778
0.3299252324
0.3299141675
0.3298947935
0.3298746157
0.3298654312
0.3298746162
0.3298947939
0.3299141679
0.3299252327
0.3299186258
0.3299070187
0.3298871435
0.3298670516
0.3298581693
0.329867052
0.329887144
0.3299070191
0.3299186262
0.3299119117
0.3299000424
0.3298801016
0.3298604418
0.3298519502
0.3298604423
0.3298801022
0.3299000429
0.3299119122
0.3299052315
0.3298933466
0.3298736985
0.3298547276
0.329846683
0.3298547281
0.3298736991
0.3298933472
0.3299052321
0.3298987359
0.3298870355
0.3298679523
0.3298498427
0.3298422745
0.3298498431
0.329867953
0.3298870362
0.3298987365
0.3298926908
0.3298813103
0.3298629542
0.3298457779
0.3298386814
0.3298457784
0.3298629549
0.3298813111
0.3298926915
0.3298879458
0.3298768952
0.3298592146
0.3298428376
0.3298361256
0.3298428381
0.3298592153
0.329876896
0.3298879466
0.3299574689
0.3299564445
0.3299541543
0.3299507207
0.3299481496
0.3299507207
0.3299541543
0.3299564445
0.3299574688
0.3299561473
0.3299542258
0.3299499872
0.3299437876
0.3299393697
0.3299437877
0.3299499872
0.3299542258
0.3299561472
0.3299540955
0.3299509446
0.3299442006
0.3299348137
0.3299286502
0.3299348137
0.3299442006
0.3299509446
0.3299540955
0.3299512023
0.3299465812
0.329937051
0.3299245263
0.3299169723
0.3299245264
0.3299370511
0.3299465812
0.3299512022
0.3299474334
0.3299412389
0.3299289441
0.3299136795
0.3299051589
0.3299136796
0.3299289442
0.329941239
0.3299474334
0.3299428309
0.3299351037
0.3299203165
0.329902899
0.3298938034
0.3299028992
0.3299203167
0.3299351039
0.329942831
0.329937498
0.3299283994
0.3299115586
0.3298926326
0.3298832828
0.3298926328
0.3299115589
0.3299283997
0.3299374982
0.329931578
0.3299213525
0.3299029786
0.3298831583
0.3298738006
0.3298831585
0.329902979
0.3299213529
0.3299315783
0.3299252329
0.3299141684
0.3298947948
0.3298746176
0.3298654333
0.3298746179
0.3298947952
0.3299141688
0.3299252333
0.3299186265
0.3299070197
0.3298871449
0.3298670536
0.3298581716
0.3298670539
0.3298871455
0.3299070202
0.329918627
0.3299119125
0.3299000435
0.3298801032
0.329860444
0.3298519525
0.3298604444
0.3298801038
0.3299000442
0.3299119131
0.3299052324
0.3298933478
0.3298737002
0.3298547299
0.3298466855
0.3298547303
0.3298737009
0.3298933486
0.3299052332
0.3298987369
0.3298870369
0.3298679542
0.329849845
0.329842277
0.3298498454
0.3298679549
0.3298870377
0.3298987378
0.3298926919
0.3298813118
0.3298629561
0.3298457803
0.329838684
0.3298457808
0.3298629569
0.3298813127
0.3298926929
0.329887947
0.3298768967
0.3298592166
0.3298428401
0.3298361283
0.3298428406
0.3298592174
0.3298768978
0.3298879482
)
;
    }
    inlet
    {
        type            calculated;
        value           nonuniform 0();
    }
    outlet
    {
        type            calculated;
        value           nonuniform List<scalar> 
81
(
0.3298879458
0.3298768952
0.3298592146
0.3298428376
0.3298361256
0.3298428381
0.3298592153
0.329876896
0.3298879466
0.3298768952
0.329863011
0.3298406319
0.3298197078
0.3298110671
0.3298197083
0.3298406328
0.329863012
0.3298768963
0.3298592148
0.3298406321
0.3298104134
0.3297818383
0.3297699263
0.3297818391
0.3298104146
0.3298406333
0.3298592161
0.329842838
0.329819708
0.3297818385
0.3297457088
0.3297305212
0.3297457097
0.32978184
0.3298197097
0.3298428397
0.329836126
0.3298110674
0.3297699266
0.3297305215
0.3297138121
0.3297305225
0.3297699283
0.3298110693
0.3298361279
0.3298428386
0.3298197088
0.3297818395
0.3297457101
0.3297305227
0.3297457111
0.3297818411
0.3298197106
0.3298428404
0.3298592157
0.3298406332
0.3298104151
0.3297818405
0.3297699286
0.3297818413
0.3298104164
0.3298406348
0.3298592173
0.3298768964
0.3298630124
0.3298406338
0.3298197102
0.3298110697
0.3298197108
0.3298406349
0.3298630136
0.3298768977
0.329887947
0.3298768967
0.3298592166
0.3298428401
0.3298361283
0.3298428406
0.3298592174
0.3298768978
0.3298879482
)
;
    }
    procBoundary1to0
    {
        type            processor;
        value           nonuniform List<scalar> 
97
(
0.3299574688
0.3299574688
0.3299564445
0.3299541543
0.3299507208
0.3299481498
0.3299507209
0.3299541544
0.3299564446
0.3299574689
0.3299577583
0.3299540959
0.3299540959
0.3299540959
0.3299480507
0.3299368073
0.3299250957
0.3299368076
0.3299480509
0.3299540962
0.3299564446
0.3299567194
0.3299540375
0.3299294031
0.3299294031
0.3299294031
0.3298842184
0.3298127762
0.3298842197
0.3299294044
0.3299480509
0.3299541544
0.3299552
0.3299493172
0.3299287823
0.329704152
0.329704152
0.329704152
0.3292003747
0.3297041608
0.3298842197
0.3299368075
0.3299507209
0.3299541173
0.3299448736
0.3299060334
0.3297526702
0.3250624463
0.3250624463
0.3250624463
0.3292003719
0.3292003719
0.3298127756
0.3299250956
0.3299481498
0.3299552
0.3299493172
0.3299287823
0.3298692236
0.3297526694
0.3298692242
0.3298842168
0.3298842168
0.3298842168
0.3299368071
0.3299507208
0.3299567194
0.3299540375
0.3299461926
0.3299287823
0.3299060334
0.3299287825
0.3299461927
0.3299480505
0.3299480505
0.3299480505
0.3299541543
0.3299577583
0.3299566988
0.3299540375
0.3299493172
0.3299448735
0.3299493172
0.3299540375
0.3299566988
0.3299564444
0.3299564444
0.3299564444
0.3299582293
0.3299577583
0.3299567194
0.3299552
0.3299541173
0.3299552
0.3299567194
0.3299577583
0.3299582293
)
;
    }
}


// ************************************************************************* //
