/*--------------------------------*- C++ -*----------------------------------*\
| =========                 |                                                 |
| \\      /  F ield         | OpenFOAM: The Open Source CFD Toolbox           |
|  \\    /   O peration     | Version:  4.x                                   |
|   \\  /    A nd           | Web:      www.OpenFOAM.org                      |
|    \\/     M anipulation  |                                                 |
\*---------------------------------------------------------------------------*/
FoamFile
{
    version     2.0;
    format      ascii;
    class       volScalarField;
    location    "4000";
    object      X_CO2;
}
// * * * * * * * * * * * * * * * * * * * * * * * * * * * * * * * * * * * * * //

dimensions      [0 0 0 0 0 0 0];

internalField   nonuniform List<scalar> 
1174
(
0.0399974223
0.03999947403
0.04000236719
0.04000613592
0.04001073823
0.04001607089
0.04002199065
0.04002833537
0.04003494141
0.04004165505
0.04004833463
0.0400548297
0.0400608742
0.04006561864
0.03999934373
0.0400026249
0.04000698821
0.04001233029
0.04001846531
0.04002516931
0.04003221593
0.04003939971
0.04004654801
0.04005352371
0.04006021892
0.04006652935
0.04007225393
0.04007666859
0.04000358224
0.04000936885
0.04001651828
0.04002462502
0.04003325241
0.04004200994
0.04005058958
0.04005877303
0.0400664224
0.04007346364
0.04007986609
0.0400856116
0.04009060907
0.04009434821
0.04000978181
0.04001875574
0.04002904303
0.04003988969
0.0400506699
0.04006093603
0.04007040997
0.04007895011
0.04008651362
0.04009312267
0.04009883622
0.04010372049
0.04010778462
0.04011072437
0.04001419972
0.04002491923
0.04003659711
0.04004841031
0.04005976557
0.04007028582
0.04007976762
0.04008813441
0.04009539562
0.04010161409
0.04010688053
0.0401112884
0.0401148809
0.04011743615
0.04000978168
0.04001875555
0.04002904279
0.04003988941
0.04005066959
0.0400609357
0.04007040963
0.04007894978
0.04008651329
0.04009312234
0.0400988359
0.04010372018
0.04010778432
0.04011072408
0.04000358214
0.04000936871
0.04001651811
0.04002462481
0.04003325217
0.04004200967
0.04005058929
0.04005877271
0.04006642207
0.04007346328
0.04007986572
0.04008561123
0.04009060869
0.04009434782
0.03999934366
0.0400026248
0.0400069881
0.04001233015
0.04001846515
0.04002516913
0.04003221572
0.04003939947
0.04004654774
0.04005352341
0.04006021859
0.04006652899
0.04007225354
0.04007666818
0.03999742224
0.03999947396
0.04000236711
0.04000613583
0.04001073811
0.04001607075
0.04002199048
0.04002833517
0.04003494118
0.04004165478
0.04004833432
0.04005482935
0.04006087381
0.04006561822
0.03999712507
0.03999934372
0.04000262488
0.04000698818
0.04001233025
0.04001846527
0.04002516927
0.04003221588
0.04003939966
0.04004654797
0.04005352367
0.04006021887
0.0400665293
0.04007225388
0.04007666854
0.04000366654
0.04000941275
0.04001640955
0.04002423457
0.04003246565
0.04004074857
0.04004882068
0.04005650738
0.04006370627
0.04007036756
0.04007647366
0.04008200929
0.04008687694
0.04009055197
0.04001452559
0.04002566116
0.04003774539
0.04004975582
0.04006099566
0.04007108805
0.04007989913
0.04008745112
0.04009385133
0.04009924283
0.04010377272
0.04010756764
0.04011068673
0.04011292992
0.04003378746
0.0400522634
0.04006980155
0.04008509687
0.04009770112
0.04010768376
0.04011536324
0.04012113849
0.04012539932
0.04012848705
0.04013068302
0.04013221035
0.0401332373
0.04013385308
0.04005192255
0.04007412211
0.04009289965
0.04010777412
0.04011905155
0.04012731503
0.04013318154
0.04013720298
0.04013983642
0.04014144495
0.04014231044
0.04014265154
0.04014264875
0.0401424935
0.04003378721
0.04005226309
0.04006980121
0.04008509651
0.04009770075
0.0401076834
0.04011536289
0.04012113814
0.04012539898
0.04012848672
0.04013068269
0.04013221004
0.04013323699
0.04013385279
0.04001452534
0.04002566087
0.04003774509
0.04004975549
0.04006099532
0.04007108769
0.04007989874
0.04008745071
0.04009385091
0.0400992424
0.04010377228
0.04010756719
0.04011068628
0.04011292947
0.04000366636
0.04000941258
0.04001640936
0.04002423437
0.04003246542
0.04004074831
0.04004882038
0.04005650705
0.0400637059
0.04007036716
0.04007647323
0.04008200884
0.04008687647
0.04009055148
0.03999934366
0.04000262481
0.04000698809
0.04001233014
0.04001846513
0.0400251691
0.04003221568
0.04003939941
0.04004654768
0.04005352333
0.0400602185
0.04006652889
0.04007225342
0.04007666805
0.03999941517
0.04000358219
0.04000936876
0.04001651816
0.04002462487
0.04003325224
0.04004200976
0.0400505894
0.04005877284
0.04006642221
0.04007346345
0.0400798659
0.04008561143
0.0400906089
0.04009434805
0.04000551875
0.0400145255
0.04002566101
0.04003774522
0.04004975563
0.04006099547
0.04007108786
0.04007989894
0.04008745093
0.04009385116
0.04009924267
0.04010377257
0.04010756749
0.0401106866
0.0401129298
0.0400465391
0.04006996136
0.04009112744
0.04010844738
0.04012160656
0.04013099952
0.04013730729
0.04014124906
0.04014346359
0.04014446875
0.04014466204
0.04014434157
0.04014374566
0.04014314705
0.04011760202
0.04015704829
0.04018417618
0.04020012889
0.04020756854
0.0402091644
0.04020706336
0.0402028169
0.04019747474
0.04019171378
0.04018595546
0.04018046945
0.0401755124
0.04017172092
0.04021048796
0.04024961858
0.04026631635
0.04026914288
0.04026419936
0.04025531974
0.0402447719
0.04023384341
0.04022323436
0.04021330163
0.04020420944
0.04019603793
0.04018893712
0.04018363264
0.04011760102
0.04015704731
0.04018417528
0.04020012808
0.04020756779
0.04020916373
0.04020706275
0.04020281635
0.04019747424
0.04019171332
0.04018595503
0.04018046905
0.04017551202
0.04017172055
0.0400465382
0.04006996061
0.04009112673
0.04010844668
0.04012160585
0.04013099882
0.04013730659
0.04014124837
0.04014346292
0.0401444681
0.04014466141
0.04014434095
0.04014374505
0.04014314645
0.04001452532
0.04002566083
0.04003774501
0.04004975538
0.04006099517
0.04007108752
0.04007989855
0.0400874505
0.04009385068
0.04009924216
0.04010377203
0.04010756693
0.04011068601
0.0401129292
0.04000358215
0.0400093687
0.04001651807
0.04002462474
0.04003325206
0.04004200953
0.04005058911
0.04005877249
0.04006642181
0.04007346299
0.0400798654
0.04008561088
0.04009060832
0.04009434743
0.04000284865
0.04000978168
0.04001875552
0.04002904276
0.04003988938
0.04005066956
0.04006093567
0.0400704096
0.04007894975
0.04008651326
0.04009312233
0.04009883589
0.04010372018
0.04010778432
0.04011072409
0.04001676214
0.04003378731
0.04005226312
0.04006980124
0.04008509654
0.0400977008
0.04010768345
0.04011536295
0.04012113821
0.04012539906
0.0401284868
0.04013068278
0.04013221013
0.04013323709
0.04013385289
0.040069352
0.04011760202
0.04015704814
0.04018417601
0.04020012873
0.04020756838
0.04020916425
0.04020706322
0.04020281678
0.04019747463
0.04019171367
0.04018595535
0.04018046935
0.0401755123
0.04017172083
0.0403608223
0.04041023181
0.04041817582
0.04040371645
0.0403793018
0.04035194019
0.04032517378
0.04030057493
0.04027867906
0.04025951572
0.04024289905
0.04022860602
0.04021660619
0.0402078492
0.04083731995
0.04077457513
0.04067863476
0.04058678537
0.04050881001
0.04044524265
0.04039399343
0.04035261513
0.04031897914
0.04029140083
0.04026860152
0.04024966695
0.04023416721
0.04022303643
0.04036081851
0.04041022923
0.04041817389
0.04040371489
0.04037930053
0.04035193913
0.04032517287
0.04030057413
0.04027867836
0.04025951509
0.04024289849
0.04022860552
0.04021660572
0.04020784876
0.04011760098
0.04015704699
0.04018417482
0.04020012753
0.04020756721
0.04020916314
0.04020706217
0.04020281579
0.0401974737
0.0401917128
0.04018595453
0.04018046857
0.04017551156
0.0401717201
0.04003378722
0.04005226298
0.04006980098
0.04008509617
0.04009770033
0.0401076829
0.04011536233
0.04012113755
0.04012539836
0.04012848608
0.04013068205
0.04013220938
0.04013323633
0.04013385212
0.04000978171
0.04001875553
0.04002904271
0.04003988926
0.04005066936
0.04006093539
0.04007040924
0.04007894931
0.04008651276
0.04009312176
0.04009883527
0.04010371952
0.04010778362
0.04011072335
0.04000541974
0.04001419959
0.04002491901
0.04003659683
0.04004841
0.04005976524
0.04007028548
0.04007976727
0.04008813405
0.04009539527
0.04010161374
0.04010688019
0.04011128807
0.04011488058
0.04011743584
0.04002847402
0.04005192235
0.04007412172
0.04009289923
0.04010777369
0.04011905114
0.04012731463
0.04013318116
0.04013720262
0.04013983609
0.04014144463
0.04014231014
0.04014265125
0.04014264848
0.04014249324
0.04014079626
0.04021048814
0.04024961807
0.04026631581
0.0402691424
0.04026419894
0.04025531935
0.04024477156
0.0402338431
0.04022323408
0.04021330137
0.04020420919
0.0401960377
0.0401889369
0.04018363243
0.04075321797
0.0408373186
0.0407745739
0.04067863375
0.04058678454
0.04050880932
0.04044524207
0.04039399294
0.04035261472
0.0403189788
0.04029140053
0.04026860126
0.04024966672
0.040234167
0.04022303624
0.04289073451
0.04184457357
0.04126593684
0.04092739574
0.04071778233
0.04058069223
0.04048639464
0.04041858377
0.04036794615
0.04032894205
0.04029815223
0.04027344064
0.04025370393
0.04023974528
0.04083732059
0.04077457143
0.04067863127
0.04058678254
0.04050880771
0.04044524076
0.04039399185
0.0403526138
0.04031897799
0.04029139982
0.04026860062
0.04024966614
0.04023416649
0.04022303576
0.04021048803
0.04024961737
0.0402663148
0.04026914126
0.04026419779
0.04025531824
0.0402447705
0.0402338421
0.04022323314
0.04021330048
0.04020420835
0.04019603691
0.04018893614
0.04018363169
0.04005192246
0.04007412167
0.04009289898
0.04010777328
0.04011905059
0.04012731398
0.04013318045
0.04013720186
0.0401398353
0.04014144382
0.04014230933
0.04014265043
0.04014264766
0.04014249242
0.04001419963
0.040024919
0.04003659673
0.0400484098
0.04005976493
0.04007028507
0.04007976677
0.04008813347
0.04009539462
0.04010161304
0.04010687944
0.04011128728
0.04011487976
0.04011743499
0.04000284861
0.04000978159
0.04001875539
0.04002904259
0.04003988918
0.04005066934
0.04006093543
0.04007040935
0.04007894948
0.04008651299
0.04009312204
0.0400988356
0.04010371988
0.04010778402
0.04011072378
0.04001676197
0.040033787
0.04005226275
0.04006980083
0.04008509612
0.04009770037
0.04010768302
0.04011536252
0.04012113778
0.04012539864
0.04012848638
0.04013068237
0.04013220973
0.04013323669
0.04013385249
0.04006935072
0.0401176007
0.0401570467
0.04018417468
0.04020012751
0.04020756727
0.04020916324
0.04020706231
0.04020281594
0.04019747385
0.04019171295
0.04018595468
0.04018046872
0.04017551171
0.04017172025
0.04024941357
0.04036081734
0.04041022772
0.0404181726
0.04040371384
0.04037929962
0.04035193836
0.04032517221
0.04030057357
0.04027867787
0.04025951466
0.0402428981
0.04022860516
0.0402166054
0.04020784847
0.04075321793
0.04083731754
0.04077456939
0.04067862993
0.04058678164
0.04050880707
0.04044524029
0.04039399148
0.0403526135
0.04031897776
0.04029139963
0.04026860046
0.040249666
0.04023416635
0.04022303563
0.04024941407
0.04036081645
0.04041022657
0.04041817148
0.04040371283
0.04037929875
0.0403519376
0.04032517154
0.04030057297
0.04027867732
0.04025951416
0.04024289764
0.04022860473
0.040216605
0.04020784808
0.04011760225
0.0401570472
0.04018417455
0.04020012704
0.04020756663
0.0402091625
0.04020706153
0.04020281515
0.04019747308
0.0401917122
0.04018595396
0.04018046802
0.04017551103
0.04017171959
0.04003378742
0.04005226299
0.04006980084
0.04008509592
0.0400977
0.04010768252
0.04011536193
0.04012113714
0.04012539794
0.04012848566
0.04013068162
0.04013220896
0.04013323592
0.04013385171
0.04000978174
0.04001875552
0.04002904265
0.04003988914
0.04005066918
0.04006093517
0.04007040898
0.04007894902
0.04008651245
0.04009312143
0.04009883493
0.04010371916
0.04010778326
0.04011072299
0.03999941513
0.0400035821
0.04000936863
0.040016518
0.04002462467
0.04003325201
0.0400420095
0.0400505891
0.04005877251
0.04006642185
0.04007346305
0.04007986548
0.04008561098
0.04009060843
0.04009434755
0.04000551856
0.04001452524
0.0400256607
0.04003774488
0.04004975525
0.04006099507
0.04007108742
0.04007989847
0.04008745043
0.04009385063
0.04009924212
0.040103772
0.04010756691
0.040110686
0.04011292919
0.04002416528
0.04004653802
0.04006996028
0.04009112638
0.04010844632
0.0401216055
0.04013099846
0.04013730624
0.04014124803
0.04014346259
0.04014446777
0.04014466109
0.04014434064
0.04014374475
0.04014314616
0.04006935063
0.04011760037
0.04015704617
0.04018417402
0.04020012679
0.04020756655
0.04020916254
0.04020706163
0.0402028153
0.04019747326
0.0401917124
0.04018595417
0.04018046823
0.04017551124
0.04017171981
0.04014079576
0.04021048642
0.04024961581
0.04026631349
0.04026914021
0.04026419695
0.04025531757
0.04024476995
0.04023384165
0.04022323276
0.04021330016
0.04020420807
0.04019603666
0.04018893591
0.04018363148
0.04006935041
0.04011760001
0.04015704573
0.04018417354
0.04020012631
0.04020756607
0.04020916208
0.0402070612
0.0402028149
0.04019747287
0.04019171202
0.0401859538
0.04018046788
0.0401755109
0.04017171947
0.04002416564
0.04004653828
0.04006996035
0.04009112624
0.04010844602
0.04012160509
0.04013099798
0.04013730572
0.04014124749
0.04014346203
0.0401444672
0.04014466052
0.04014434007
0.04014374418
0.0401431456
0.04001452556
0.04002566087
0.04003774489
0.04004975513
0.04006099482
0.04007108707
0.04007989803
0.04008744993
0.04009385008
0.04009924153
0.04010377137
0.04010756626
0.04011068533
0.0401129285
0.04000358224
0.04000936875
0.04001651807
0.04002462467
0.04003325193
0.04004200933
0.04005058884
0.04005877216
0.04006642143
0.04007346257
0.04007986493
0.04008561038
0.04009060778
0.04009434687
0.03999712502
0.03999934363
0.04000262475
0.04000698802
0.04001233005
0.04001846503
0.04002516899
0.04003221556
0.04003939929
0.04004654755
0.0400535232
0.04006021836
0.04006652875
0.04007225329
0.04007666792
0.03999947338
0.04000366629
0.04000941247
0.04001640922
0.0400242342
0.04003246523
0.0400407481
0.04004882015
0.04005650681
0.04006370565
0.0400703669
0.04007647297
0.04008200857
0.0400868762
0.0400905512
0.04000551854
0.04001452517
0.04002566059
0.04003774473
0.04004975507
0.04006099485
0.04007108718
0.04007989821
0.04008745016
0.04009385035
0.04009924183
0.04010377171
0.04010756662
0.04011068571
0.04011292889
0.04001676193
0.04003378685
0.04005226246
0.04006980042
0.04008509561
0.04009769978
0.04010768238
0.04011536185
0.04012113711
0.04012539795
0.0401284857
0.04013068169
0.04013220905
0.04013323602
0.04013385182
0.04002847389
0.04005192191
0.04007412101
0.04009289832
0.04010777265
0.04011905001
0.04012731346
0.04013317998
0.04013720145
0.04013983492
0.04014144348
0.04014230902
0.04014265015
0.04014264739
0.04014249217
0.0400167619
0.04003378679
0.04005226238
0.04006980032
0.04008509548
0.04009769962
0.0401076822
0.04011536166
0.04012113689
0.04012539772
0.04012848546
0.04013068144
0.0401322088
0.04013323577
0.04013385157
0.04000551858
0.04001452522
0.04002566061
0.04003774468
0.04004975496
0.04006099468
0.04007108696
0.04007989794
0.04008744985
0.04009385001
0.04009924147
0.04010377132
0.04010756621
0.04011068528
0.04011292846
0.03999947347
0.0400036664
0.04000941256
0.04001640927
0.04002423419
0.04003246516
0.04004074796
0.04004881995
0.04005650655
0.04006370534
0.04007036654
0.04007647256
0.04008200812
0.04008687571
0.04009055069
0.03999934373
0.04000262484
0.04000698808
0.04001233007
0.040018465
0.0400251689
0.04003221541
0.04003939907
0.04004654727
0.04005352286
0.04006021797
0.0400665283
0.04007225279
0.04007666738
0.03999610071
0.03999742222
0.03999947392
0.04000236705
0.04000613574
0.04001073801
0.04001607062
0.04002199033
0.040028335
0.04003494099
0.04004165456
0.04004833409
0.04005482911
0.04006087356
0.04006561796
0.03999712501
0.03999934362
0.04000262473
0.04000698799
0.04001233001
0.04001846497
0.04002516891
0.04003221547
0.04003939918
0.04004654743
0.04005352307
0.04006021823
0.04006652861
0.04007225314
0.04007666776
0.03999941513
0.04000358208
0.04000936859
0.04001651792
0.04002462456
0.04003325186
0.0400420093
0.04005058887
0.04005877224
0.04006642155
0.04007346273
0.04007986513
0.04008561061
0.04009060805
0.04009434716
0.04000284861
0.04000978155
0.04001875529
0.04002904242
0.04003988893
0.04005066901
0.04006093502
0.04007040887
0.04007894895
0.04008651241
0.04009312142
0.04009883495
0.0401037192
0.04010778332
0.04011072306
0.0400054197
0.04001419946
0.04002491876
0.04003659646
0.04004840951
0.04005976463
0.04007028478
0.04007976649
0.0400881332
0.04009539436
0.0401016128
0.04010687921
0.04011128706
0.04011487955
0.04011743478
0.04000284861
0.04000978156
0.04001875531
0.04002904243
0.04003988894
0.040050669
0.040060935
0.04007040883
0.04007894889
0.04008651232
0.04009312132
0.04009883482
0.04010371906
0.04010778316
0.04011072289
0.03999941513
0.04000358209
0.0400093686
0.04001651792
0.04002462453
0.0400332518
0.04004200921
0.04005058874
0.04005877208
0.04006642135
0.0400734625
0.04007986487
0.04008561032
0.04009060773
0.04009434682
0.03999712503
0.03999934364
0.04000262475
0.040006988
0.04001233
0.04001846493
0.04002516883
0.04003221534
0.04003939901
0.0400465472
0.0400535228
0.04006021791
0.04006652825
0.04007225274
0.04007666733
0.03999610073
0.03999742225
0.03999947396
0.04000236708
0.04000613576
0.04001073799
0.04001607057
0.04002199023
0.04002833485
0.04003494078
0.04004165431
0.04004833378
0.04005482874
0.04006087314
0.0400656175
)
;

boundaryField
{
    top
    {
        type            calculated;
        value           nonuniform List<scalar> 
127
(
0.03999610073
0.03999742224
0.03999934366
0.04000358215
0.04000978171
0.04001419963
0.04000978174
0.04000358224
0.03999934373
0.03999742225
0.03999947396
0.04000262481
0.0400093687
0.04001875553
0.040024919
0.04001875552
0.04000936875
0.04000262484
0.03999947396
0.04000236711
0.04000698809
0.04001651807
0.04002904271
0.04003659673
0.04002904265
0.04001651807
0.04000698808
0.04000236708
0.04000613583
0.04001233014
0.04002462474
0.04003988926
0.0400484098
0.04003988914
0.04002462467
0.04001233007
0.04000613576
0.04001073811
0.04001846513
0.04003325206
0.04005066936
0.04005976493
0.04005066918
0.04003325193
0.040018465
0.04001073799
0.04001607075
0.0400251691
0.04004200953
0.04006093539
0.04007028507
0.04006093517
0.04004200933
0.0400251689
0.04001607057
0.04002199048
0.04003221568
0.04005058911
0.04007040924
0.04007976677
0.04007040898
0.04005058884
0.04003221541
0.04002199023
0.04002833517
0.04003939941
0.04005877249
0.04007894931
0.04008813347
0.04007894902
0.04005877216
0.04003939907
0.04002833485
0.04003494118
0.04004654768
0.04006642181
0.04008651276
0.04009539462
0.04008651245
0.04006642143
0.04004654727
0.04003494078
0.04004165478
0.04005352333
0.04007346299
0.04009312176
0.04010161304
0.04009312143
0.04007346257
0.04005352286
0.04004165431
0.04004833432
0.0400602185
0.0400798654
0.04009883527
0.04010687944
0.04009883493
0.04007986493
0.04006021797
0.04004833378
0.04005482935
0.04006652889
0.04008561088
0.04010371952
0.04011128728
0.04010371916
0.04008561038
0.0400665283
0.04005482874
0.04006087381
0.04007225342
0.04009060832
0.04010778362
0.04011487976
0.04010778326
0.04009060778
0.04007225279
0.04006087314
0.04006561822
0.04007666805
0.04009434743
0.04011072335
0.04011743499
0.04011072299
0.04009434687
0.04007666738
0.0400656175
)
;
    }
    bottom
    {
        type            calculated;
        value           nonuniform List<scalar> 
134
(
0.03999712507
0.03999941517
0.04000284865
0.04000541974
0.04000284861
0.03999941513
0.03999712502
0.03999610071
0.0399974223
0.03999934372
0.04000358219
0.04000978168
0.04001419959
0.04000978159
0.0400035821
0.03999934363
0.03999742222
0.03999947403
0.04000262488
0.04000936876
0.04001875552
0.04002491901
0.04001875539
0.04000936863
0.04000262475
0.03999947392
0.04000236719
0.04000698818
0.04001651816
0.04002904276
0.04003659683
0.04002904259
0.040016518
0.04000698802
0.04000236705
0.04000613592
0.04001233025
0.04002462487
0.04003988938
0.04004841
0.04003988918
0.04002462467
0.04001233005
0.04000613574
0.04001073823
0.04001846527
0.04003325224
0.04005066956
0.04005976524
0.04005066934
0.04003325201
0.04001846503
0.04001073801
0.04001607089
0.04002516927
0.04004200976
0.04006093567
0.04007028548
0.04006093543
0.0400420095
0.04002516899
0.04001607062
0.04002199065
0.04003221588
0.0400505894
0.0400704096
0.04007976727
0.04007040935
0.0400505891
0.04003221556
0.04002199033
0.04002833537
0.04003939966
0.04005877284
0.04007894975
0.04008813405
0.04007894948
0.04005877251
0.04003939929
0.040028335
0.04003494141
0.04004654797
0.04006642221
0.04008651326
0.04009539527
0.04008651299
0.04006642185
0.04004654755
0.04003494099
0.04004165505
0.04005352367
0.04007346345
0.04009312233
0.04010161374
0.04009312204
0.04007346305
0.0400535232
0.04004165456
0.04004833463
0.04006021887
0.0400798659
0.04009883589
0.04010688019
0.0400988356
0.04007986548
0.04006021836
0.04004833409
0.0400548297
0.0400665293
0.04008561143
0.04010372018
0.04011128807
0.04010371988
0.04008561098
0.04006652875
0.04005482911
0.0400608742
0.04007225388
0.0400906089
0.04010778432
0.04011488058
0.04010778402
0.04009060843
0.04007225329
0.04006087356
0.04006561864
0.04007666854
0.04009434805
0.04011072409
0.04011743584
0.04011072378
0.04009434755
0.04007666792
0.04006561796
)
;
    }
    side-walls
    {
        type            calculated;
        value           nonuniform List<scalar> 
261
(
0.0399974223
0.03999934373
0.04000358224
0.04000978181
0.04001419972
0.04000978168
0.04000358214
0.03999934366
0.03999742224
0.03999947403
0.0400026249
0.04000936885
0.04001875574
0.04002491923
0.04001875555
0.04000936871
0.0400026248
0.03999947396
0.04000236719
0.04000698821
0.04001651828
0.04002904303
0.04003659711
0.04002904279
0.04001651811
0.0400069881
0.04000236711
0.04000613592
0.04001233029
0.04002462502
0.04003988969
0.04004841031
0.04003988941
0.04002462481
0.04001233015
0.04000613583
0.04001073823
0.04001846531
0.04003325241
0.0400506699
0.04005976557
0.04005066959
0.04003325217
0.04001846515
0.04001073811
0.04001607089
0.04002516931
0.04004200994
0.04006093603
0.04007028582
0.0400609357
0.04004200967
0.04002516913
0.04001607075
0.04002199065
0.04003221593
0.04005058958
0.04007040997
0.04007976762
0.04007040963
0.04005058929
0.04003221572
0.04002199048
0.04002833537
0.04003939971
0.04005877303
0.04007895011
0.04008813441
0.04007894978
0.04005877271
0.04003939947
0.04002833517
0.04003494141
0.04004654801
0.0400664224
0.04008651362
0.04009539562
0.04008651329
0.04006642207
0.04004654774
0.04003494118
0.04004165505
0.04005352371
0.04007346364
0.04009312267
0.04010161409
0.04009312234
0.04007346328
0.04005352341
0.04004165478
0.04004833463
0.04006021892
0.04007986609
0.04009883622
0.04010688053
0.0400988359
0.04007986572
0.04006021859
0.04004833432
0.0400548297
0.04006652935
0.0400856116
0.04010372049
0.0401112884
0.04010372018
0.04008561123
0.04006652899
0.04005482935
0.0400608742
0.04007225393
0.04009060907
0.04010778462
0.0401148809
0.04010778432
0.04009060869
0.04007225354
0.04006087381
0.04006561864
0.04007666859
0.04009434821
0.04011072437
0.04011743615
0.04011072408
0.04009434782
0.04007666818
0.04006561822
0.03999610071
0.03999712501
0.03999941513
0.04000284861
0.0400054197
0.04000284861
0.03999941513
0.03999712503
0.03999610073
0.03999742222
0.03999934362
0.04000358208
0.04000978155
0.04001419946
0.04000978156
0.04000358209
0.03999934364
0.03999742225
0.03999947392
0.04000262473
0.04000936859
0.04001875529
0.04002491876
0.04001875531
0.0400093686
0.04000262475
0.03999947396
0.04000236705
0.04000698799
0.04001651792
0.04002904242
0.04003659646
0.04002904243
0.04001651792
0.040006988
0.04000236708
0.04000613574
0.04001233001
0.04002462456
0.04003988893
0.04004840951
0.04003988894
0.04002462453
0.04001233
0.04000613576
0.04001073801
0.04001846497
0.04003325186
0.04005066901
0.04005976463
0.040050669
0.0400332518
0.04001846493
0.04001073799
0.04001607062
0.04002516891
0.0400420093
0.04006093502
0.04007028478
0.040060935
0.04004200921
0.04002516883
0.04001607057
0.04002199033
0.04003221547
0.04005058887
0.04007040887
0.04007976649
0.04007040883
0.04005058874
0.04003221534
0.04002199023
0.040028335
0.04003939918
0.04005877224
0.04007894895
0.0400881332
0.04007894889
0.04005877208
0.04003939901
0.04002833485
0.04003494099
0.04004654743
0.04006642155
0.04008651241
0.04009539436
0.04008651232
0.04006642135
0.0400465472
0.04003494078
0.04004165456
0.04005352307
0.04007346273
0.04009312142
0.0401016128
0.04009312132
0.0400734625
0.0400535228
0.04004165431
0.04004833409
0.04006021823
0.04007986513
0.04009883495
0.04010687921
0.04009883482
0.04007986487
0.04006021791
0.04004833378
0.04005482911
0.04006652861
0.04008561061
0.0401037192
0.04011128706
0.04010371906
0.04008561032
0.04006652825
0.04005482874
0.04006087356
0.04007225314
0.04009060805
0.04010778332
0.04011487955
0.04010778316
0.04009060773
0.04007225274
0.04006087314
0.04006561796
0.04007666776
0.04009434716
0.04011072306
0.04011743478
0.04011072289
0.04009434682
0.04007666733
0.0400656175
)
;
    }
    inlet
    {
        type            calculated;
        value           nonuniform 0();
    }
    outlet
    {
        type            calculated;
        value           nonuniform List<scalar> 
81
(
0.04006561864
0.04007666859
0.04009434821
0.04011072437
0.04011743615
0.04011072408
0.04009434782
0.04007666818
0.04006561822
0.04007666854
0.04009055197
0.04011292992
0.04013385308
0.0401424935
0.04013385279
0.04011292947
0.04009055148
0.04007666805
0.04009434805
0.0401129298
0.04014314705
0.04017172092
0.04018363264
0.04017172055
0.04014314645
0.0401129292
0.04009434743
0.04011072409
0.04013385289
0.04017172083
0.0402078492
0.04022303643
0.04020784876
0.0401717201
0.04013385212
0.04011072335
0.04011743584
0.04014249324
0.04018363243
0.04022303624
0.04023974528
0.04022303576
0.04018363169
0.04014249242
0.04011743499
0.04011072378
0.04013385249
0.04017172025
0.04020784847
0.04022303563
0.04020784808
0.04017171959
0.04013385171
0.04011072299
0.04009434755
0.04011292919
0.04014314616
0.04017171981
0.04018363148
0.04017171947
0.0401431456
0.0401129285
0.04009434687
0.04007666792
0.0400905512
0.04011292889
0.04013385182
0.04014249217
0.04013385157
0.04011292846
0.04009055069
0.04007666738
0.04006561796
0.04007666776
0.04009434716
0.04011072306
0.04011743478
0.04011072289
0.04009434682
0.04007666733
0.0400656175
)
;
    }
    procBoundary1to0
    {
        type            processor;
        value           nonuniform List<scalar> 
97
(
0.03999610074
0.03999610074
0.03999712503
0.03999941512
0.04000284859
0.04000541963
0.0400028485
0.03999941506
0.03999712498
0.03999610069
0.03999581132
0.03999947348
0.03999947348
0.03999947348
0.04000551859
0.04001676188
0.04002847366
0.04001676169
0.04000551841
0.03999947332
0.03999712499
0.03999685014
0.039999532
0.04002416573
0.04002416573
0.04002416573
0.04006935063
0.04014079467
0.04006934964
0.04002416483
0.04000551841
0.03999941507
0.03999836952
0.04000425217
0.0400247869
0.04024941742
0.04024941742
0.04024941742
0.04075321268
0.04024941131
0.0400693497
0.04001676174
0.04000284854
0.03999945223
0.04000869579
0.04004753578
0.04020090092
0.04489129435
0.04489129435
0.04489129435
0.04075321488
0.04075321488
0.04014079506
0.0400284737
0.04000541961
0.03999836951
0.04000425216
0.0400247868
0.04008434539
0.0402009012
0.04008434517
0.04006935161
0.04006935161
0.04006935161
0.04001676199
0.04000284858
0.03999685014
0.03999953201
0.04000737666
0.0400247868
0.04004753568
0.0400247867
0.04000737668
0.04000551872
0.04000551872
0.04000551872
0.03999941515
0.03999581131
0.03999687075
0.039999532
0.04000425216
0.04000869578
0.04000425214
0.039999532
0.03999687077
0.03999712506
0.03999712506
0.03999712506
0.03999534037
0.03999581131
0.03999685014
0.03999836953
0.03999945223
0.03999836953
0.03999685014
0.03999581131
0.03999534038
)
;
    }
}


// ************************************************************************* //
