/*--------------------------------*- C++ -*----------------------------------*\
| =========                 |                                                 |
| \\      /  F ield         | OpenFOAM: The Open Source CFD Toolbox           |
|  \\    /   O peration     | Version:  4.x                                   |
|   \\  /    A nd           | Web:      www.OpenFOAM.org                      |
|    \\/     M anipulation  |                                                 |
\*---------------------------------------------------------------------------*/
FoamFile
{
    version     2.0;
    format      ascii;
    class       volScalarField;
    location    "4000";
    object      X_H2O;
}
// * * * * * * * * * * * * * * * * * * * * * * * * * * * * * * * * * * * * * //

dimensions      [0 0 0 0 0 0 0];

internalField   nonuniform List<scalar> 
1174
(
2.657808535e-06
3.483977079e-06
4.64882439e-06
6.165980806e-06
8.018399344e-06
1.016439444e-05
1.254617105e-05
1.509836338e-05
1.775502475e-05
2.045423538e-05
2.3138986e-05
2.574878987e-05
2.817683849e-05
3.008222457e-05
3.432011227e-06
4.753451033e-06
6.510460011e-06
8.661235579e-06
1.113079055e-05
1.382879892e-05
1.666401075e-05
1.955364297e-05
2.24281628e-05
2.523236866e-05
2.792288076e-05
3.045782952e-05
3.275660048e-05
3.452882433e-05
5.139958413e-06
7.470759943e-06
1.035002534e-05
1.361418843e-05
1.70872076e-05
2.06116988e-05
2.40635702e-05
2.735492251e-05
3.043029421e-05
3.325993973e-05
3.583164343e-05
3.813825059e-05
4.014348007e-05
4.164312608e-05
7.638391103e-06
1.125335876e-05
1.53966117e-05
1.976415331e-05
2.410376256e-05
2.82351216e-05
3.204627653e-05
3.548030132e-05
3.852008641e-05
4.11747089e-05
4.346806694e-05
4.54270362e-05
4.705571533e-05
4.823292557e-05
9.419013779e-06
1.373730903e-05
1.84406732e-05
2.319731526e-05
2.776817951e-05
3.200143851e-05
3.581525888e-05
3.917895538e-05
4.209650237e-05
4.459337332e-05
4.670625782e-05
4.847300665e-05
4.991145641e-05
5.093361145e-05
7.638309041e-06
1.12532401e-05
1.539645259e-05
1.976394738e-05
2.410350691e-05
2.823481359e-05
3.204591491e-05
3.547988975e-05
3.851962668e-05
4.117420348e-05
4.346751674e-05
4.542645086e-05
4.705509342e-05
4.823227825e-05
5.139877409e-06
7.470653032e-06
1.0349884e-05
1.361400025e-05
1.708695285e-05
2.061136527e-05
2.40631473e-05
2.735440682e-05
3.042968135e-05
3.32592353e-05
3.583084823e-05
3.81373726e-05
4.01425256e-05
4.164209493e-05
3.431942909e-06
4.75337298e-06
6.51036262e-06
8.661103904e-06
1.113060411e-05
1.382854041e-05
1.666366291e-05
1.955318768e-05
2.242759188e-05
2.523167687e-05
2.792206332e-05
3.045689121e-05
3.275554186e-05
3.452765516e-05
2.657760182e-06
3.483930533e-06
4.648768836e-06
6.165900785e-06
8.018277732e-06
1.016421084e-05
1.2545902e-05
1.50979901e-05
1.775452886e-05
2.045360459e-05
2.313820935e-05
2.574785936e-05
2.817575194e-05
3.008097519e-05
2.538319127e-06
3.431954649e-06
4.753396694e-06
6.510403892e-06
8.661178589e-06
1.113073011e-05
1.382873824e-05
1.666394801e-05
1.955358064e-05
2.242810042e-05
2.523230739e-05
2.792281928e-05
3.045776765e-05
3.275654314e-05
3.452876786e-05
5.174067055e-06
7.488623335e-06
1.030645299e-05
1.345720548e-05
1.677067434e-05
2.01041027e-05
2.33516802e-05
2.644312648e-05
2.933724164e-05
3.201406911e-05
3.446662532e-05
3.668892088e-05
3.864206307e-05
4.011601566e-05
9.550560695e-06
1.403657193e-05
1.890377504e-05
2.374001535e-05
2.826454208e-05
3.232560853e-05
3.586943531e-05
3.890514454e-05
4.147613129e-05
4.364019062e-05
4.545671676e-05
4.697690968e-05
4.822497995e-05
4.912166719e-05
1.731443112e-05
2.475818106e-05
3.182226082e-05
3.798079528e-05
4.305344677e-05
4.706853752e-05
5.015472038e-05
5.247299167e-05
5.418064804e-05
5.541538194e-05
5.629066525e-05
5.68965698e-05
5.730123453e-05
5.754193189e-05
2.462494096e-05
3.356897012e-05
4.113167789e-05
4.711955902e-05
5.165643986e-05
5.497775108e-05
5.73324916e-05
5.894333912e-05
5.999466095e-05
6.063290926e-05
6.097175906e-05
6.109944685e-05
6.108903979e-05
6.101896506e-05
1.731419924e-05
2.475790016e-05
3.182191757e-05
3.79803922e-05
4.305298037e-05
4.706800735e-05
5.015411816e-05
5.247233858e-05
5.417995299e-05
5.541464258e-05
5.628990137e-05
5.689577627e-05
5.73004254e-05
5.75410982e-05
9.550318103e-06
1.403631364e-05
1.890347048e-05
2.373963122e-05
2.826405465e-05
3.232500262e-05
3.586870681e-05
3.890429824e-05
4.147518359e-05
4.363914176e-05
4.545558567e-05
4.697569584e-05
4.82237087e-05
4.912034047e-05
5.173916433e-06
7.488486797e-06
1.030628951e-05
1.34569778e-05
1.677034788e-05
2.010365575e-05
2.335110043e-05
2.644240392e-05
2.933637635e-05
3.201306032e-05
3.446548016e-05
3.668764361e-05
3.864065938e-05
4.01145045e-05
3.431950471e-06
4.753375708e-06
6.510353622e-06
8.661074522e-06
1.11305466e-05
1.382844739e-05
1.666352617e-05
1.955300771e-05
2.242736282e-05
2.523140206e-05
2.792173721e-05
3.045651145e-05
3.275511205e-05
3.452715952e-05
3.461148841e-06
5.139809743e-06
7.470595244e-06
1.034984782e-05
1.36140006e-05
1.708701225e-05
2.061149515e-05
2.406336293e-05
2.735471387e-05
3.043008949e-05
3.325974273e-05
3.583144586e-05
3.813806723e-05
4.014330261e-05
4.164294908e-05
5.921358593e-06
9.550348113e-06
1.403637179e-05
1.890358049e-05
2.373982287e-05
2.8264352e-05
3.232542335e-05
3.586925538e-05
3.890497142e-05
4.147597036e-05
4.364003294e-05
4.545656719e-05
4.697676554e-05
4.822485109e-05
4.912154568e-05
2.245464901e-05
3.189135686e-05
4.041677948e-05
4.739031934e-05
5.268562279e-05
5.646214566e-05
5.899473712e-05
6.057352724e-05
6.145612339e-05
6.185135426e-05
6.191948812e-05
6.178078066e-05
6.153156539e-05
6.128299631e-05
5.110194173e-05
6.699508972e-05
7.791991013e-05
8.433842646e-05
8.732474185e-05
8.795552634e-05
8.709653359e-05
8.537334076e-05
8.320909904e-05
8.087662637e-05
7.85457368e-05
7.632510111e-05
7.431835525e-05
7.278317731e-05
8.855037471e-05
0.0001043131094
0.0001110299873
0.0001121543156
0.0001101467919
0.0001065534658
0.0001022887308
9.787157713e-05
9.358409701e-05
8.957002554e-05
8.58954078e-05
8.259249954e-05
7.972189717e-05
7.757705788e-05
5.110091485e-05
6.699410048e-05
7.791889212e-05
8.433734475e-05
8.732359277e-05
8.795432153e-05
8.70953096e-05
8.537210305e-05
8.320786553e-05
8.087539875e-05
7.854452752e-05
7.632391303e-05
7.431719996e-05
7.27820146e-05
2.245387255e-05
3.18906831e-05
4.041602972e-05
4.738940265e-05
5.268452085e-05
5.646086164e-05
5.899329821e-05
6.057196339e-05
6.145447071e-05
6.184963069e-05
6.191772409e-05
6.177898252e-05
6.152974194e-05
6.128113479e-05
9.550324635e-06
1.403627333e-05
1.890335849e-05
2.373942798e-05
2.826375696e-05
3.232461361e-05
3.586823319e-05
3.890374843e-05
4.14745659e-05
4.363847234e-05
4.545486127e-05
4.697493868e-05
4.822291197e-05
4.911950854e-05
5.13989505e-06
7.470642281e-06
1.034981671e-05
1.361384595e-05
1.708669539e-05
2.061098768e-05
2.406264298e-05
2.735377126e-05
3.042892291e-05
3.325835861e-05
3.582985669e-05
3.813628069e-05
4.014133732e-05
4.164079993e-05
4.844895102e-06
7.638130056e-06
1.125305513e-05
1.53962729e-05
1.976378698e-05
2.410338036e-05
2.823473324e-05
3.204588679e-05
3.54799163e-05
3.851971047e-05
4.117434365e-05
4.346771365e-05
4.542669815e-05
4.705538447e-05
4.823261463e-05
1.045335848e-05
1.731397177e-05
2.475771965e-05
3.182180143e-05
3.798035128e-05
4.305302026e-05
4.706813687e-05
5.015433519e-05
5.247263692e-05
5.418030891e-05
5.541505381e-05
5.62903729e-05
5.689629141e-05
5.730096762e-05
5.754167554e-05
3.16553775e-05
5.110115136e-05
6.699448607e-05
7.791942578e-05
8.433801821e-05
8.732439041e-05
8.79552144e-05
8.709626134e-05
8.537310208e-05
8.320888437e-05
8.087642415e-05
7.854554143e-05
7.63249256e-05
7.431819995e-05
7.278301493e-05
0.0001491619373
0.0001690612759
0.0001722425368
0.0001663930488
0.000156532378
0.0001454861509
0.0001346820731
0.000124753675
0.0001159163842
0.0001081817817
0.0001014746384
9.570490539e-05
9.086029464e-05
8.732441284e-05
0.0003412905849
0.0003159556057
0.0002772427834
0.0002401862275
0.000208729154
0.000183085375
0.0001624110319
0.0001457185381
0.0001321490278
0.0001210228124
0.0001118240462
0.0001041839204
9.792912903e-05
9.343682675e-05
0.0001491582696
0.0001690586212
0.0001722400522
0.0001663905666
0.000156529976
0.0001454838021
0.0001346798396
0.0001247515588
0.000115914394
0.000108179905
0.0001014728896
9.570324015e-05
9.085871795e-05
8.732288142e-05
5.110099732e-05
6.699375751e-05
7.79181318e-05
8.433624885e-05
8.732227267e-05
8.795285885e-05
8.709376896e-05
8.537055442e-05
8.320631795e-05
8.087387192e-05
7.8543028e-05
7.632244953e-05
7.431576767e-05
7.278059526e-05
1.73142605e-05
2.475774246e-05
3.182147663e-05
3.797964364e-05
4.305194541e-05
4.706672326e-05
5.015263363e-05
5.247069573e-05
5.417818758e-05
5.541278007e-05
5.628796847e-05
5.689379722e-05
5.729840635e-05
5.753903101e-05
7.638360222e-06
1.125320152e-05
1.539625536e-05
1.976354201e-05
2.41028619e-05
2.823391745e-05
3.204476932e-05
3.547851001e-05
3.851802713e-05
4.117240764e-05
4.346554827e-05
4.542433091e-05
4.70528441e-05
4.822988216e-05
5.881230322e-06
9.418724074e-06
1.373695886e-05
1.844027082e-05
2.319687813e-05
2.776772072e-05
3.20009658e-05
3.5814776e-05
3.917847562e-05
4.209602544e-05
4.459290321e-05
4.670580046e-05
4.847257104e-05
4.99110386e-05
5.093319991e-05
1.517485201e-05
2.46243639e-05
3.356834286e-05
4.113103166e-05
4.711892112e-05
5.165582326e-05
5.497715868e-05
5.73319293e-05
5.894280151e-05
5.999415774e-05
6.063242611e-05
6.097130636e-05
6.109901416e-05
6.108863962e-05
6.101857975e-05
6.04606495e-05
8.85491563e-05
0.0001043119043
0.0001110288945
0.0001121533664
0.000110145968
0.0001065527493
0.0001022880981
9.787100907e-05
9.358359453e-05
8.956957055e-05
8.589498747e-05
8.259212295e-05
7.972154354e-05
7.757672334e-05
0.0003074121275
0.0003412867291
0.0003159531393
0.0002772410781
0.0002401849844
0.0002087282153
0.0001830846278
0.0001624104361
0.0001457180478
0.0001321486136
0.0001210224531
0.0001118237133
0.0001041836432
9.792885915e-05
9.343660294e-05
0.00116933076
0.0007473909088
0.0005140233728
0.0003774919284
0.0002929577535
0.0002376716257
0.0001996428188
0.0001722952637
0.000151872968
0.0001361418285
0.0001237229768
0.0001137550178
0.0001057931031
0.0001001615236
0.0003412911028
0.0003159517539
0.0002772377525
0.0002401812085
0.0002087245332
0.0001830812295
0.000162407346
0.0001457152653
0.0001321460668
0.000121020139
0.0001118215945
0.0001041816717
9.792703386e-05
9.343484074e-05
8.855071931e-05
0.000104311636
0.0001110272748
0.000112150881
0.0001101430164
0.000106549573
0.0001022848503
9.786778029e-05
9.358042936e-05
8.956649955e-05
8.589202266e-05
8.258925173e-05
7.971875272e-05
7.757397386e-05
2.462505207e-05
3.356851081e-05
4.113058719e-05
4.711790068e-05
5.165431618e-05
5.497526127e-05
5.732972256e-05
5.89403564e-05
5.999154031e-05
6.062969551e-05
6.096848879e-05
6.10961381e-05
6.108570343e-05
6.101559329e-05
9.419053829e-06
1.373714849e-05
1.844020957e-05
2.319649075e-05
2.776697721e-05
3.199985791e-05
3.581331823e-05
3.917669176e-05
4.209395097e-05
4.459057292e-05
4.670324443e-05
4.846981738e-05
4.990810737e-05
5.093009065e-05
4.844880603e-06
7.638069613e-06
1.125293861e-05
1.53960959e-05
1.976354472e-05
2.410306841e-05
2.823434855e-05
3.204543428e-05
3.54793984e-05
3.851913114e-05
4.117370486e-05
4.346702525e-05
4.542596243e-05
4.705461174e-05
4.823180542e-05
1.04531995e-05
1.731367945e-05
2.47573067e-05
3.182128204e-05
3.797973944e-05
4.305232201e-05
4.706736273e-05
5.015348922e-05
5.247173178e-05
5.417937047e-05
5.541408113e-05
5.628936391e-05
5.6895263e-05
5.729992812e-05
5.754061641e-05
3.165373745e-05
5.109962232e-05
6.699282159e-05
7.791767858e-05
8.433621898e-05
8.732257746e-05
8.795339942e-05
8.709447127e-05
8.537136062e-05
8.320718212e-05
8.087477062e-05
7.854393907e-05
7.632336482e-05
7.431668345e-05
7.278153051e-05
0.000104253705
0.0001491548643
0.0001690558532
0.0001722378352
0.0001663888141
0.0001565285266
0.0001454826254
0.0001346788435
0.0001247507223
0.000115913683
0.0001081792764
0.0001014723169
9.5702742e-05
9.085827248e-05
8.732246892e-05
0.0003074114061
0.0003412854967
0.0003159482755
0.0002772355054
0.0002401796697
0.0002087234332
0.0001830804178
0.0001624067086
0.0001457147423
0.0001321456641
0.0001210197804
0.0001118212917
0.0001041814034
9.792678165e-05
9.343462903e-05
0.0001042547831
0.0001491546057
0.0001690543162
0.0001722355226
0.0001663861198
0.0001565257567
0.0001454799118
0.0001346762678
0.0001247482962
0.0001159114171
0.0001081771684
0.0001014703503
9.570089068e-05
9.085651963e-05
8.732077321e-05
5.110205215e-05
6.699335874e-05
7.791686248e-05
8.433449535e-05
8.732026817e-05
8.795073363e-05
8.70916274e-05
8.536842173e-05
8.320425406e-05
8.087188524e-05
7.85411105e-05
7.632060226e-05
7.431398615e-05
7.277885844e-05
1.731457951e-05
2.475771897e-05
3.182111258e-05
3.797899286e-05
4.305107103e-05
4.706568515e-05
5.015148132e-05
5.246946204e-05
5.417690267e-05
5.541147001e-05
5.628663653e-05
5.689244987e-05
5.729705448e-05
5.75376644e-05
7.638447631e-06
1.125320623e-05
1.539613401e-05
1.976327583e-05
2.41024465e-05
2.823336073e-05
3.204408875e-05
3.547771988e-05
3.85171466e-05
4.11714512e-05
4.346453024e-05
4.54232619e-05
4.70517253e-05
4.822873104e-05
3.461116856e-06
5.139724664e-06
7.470448538e-06
1.034962953e-05
1.361369656e-05
1.708660881e-05
2.061098499e-05
2.406274015e-05
2.735397607e-05
3.042923466e-05
3.325877453e-05
3.583037034e-05
3.813689245e-05
4.014203797e-05
4.164160895e-05
5.921097733e-06
9.550010435e-06
1.403593106e-05
1.89030284e-05
2.373914457e-05
2.826353347e-05
3.232446552e-05
3.586815629e-05
3.890374348e-05
4.147463117e-05
4.363860078e-05
4.545504872e-05
4.697516938e-05
4.822319103e-05
4.911982915e-05
1.343746914e-05
2.245314799e-05
3.188987758e-05
4.041518335e-05
4.738854766e-05
5.268368307e-05
5.646006311e-05
5.899253597e-05
6.057123914e-05
6.145377631e-05
6.184898264e-05
6.191711428e-05
6.177839163e-05
6.15291788e-05
6.128060373e-05
3.165374794e-05
5.109929925e-05
6.699208575e-05
7.791657084e-05
8.433483497e-05
8.732101225e-05
8.79517509e-05
8.709278651e-05
8.536966503e-05
8.320552402e-05
8.087316693e-05
7.854238649e-05
7.632185902e-05
7.431521592e-05
7.278007841e-05
6.046050649e-05
8.854769261e-05
0.0001043090622
0.0001110251866
0.0001121492141
0.0001101416493
0.0001065484461
0.0001022839199
9.786700123e-05
9.357976547e-05
8.956590933e-05
8.589149884e-05
8.258877346e-05
7.971832675e-05
7.757357358e-05
3.165360827e-05
5.109889189e-05
6.699129459e-05
7.791543527e-05
8.433344089e-05
8.731945422e-05
8.795011313e-05
8.709112471e-05
8.536801255e-05
8.320390296e-05
8.087157659e-05
7.85408342e-05
7.632036384e-05
7.431376427e-05
7.277864866e-05
1.343801548e-05
2.245353976e-05
3.188983015e-05
4.041462117e-05
4.738751242e-05
5.268225461e-05
5.645832478e-05
5.899059019e-05
6.056914784e-05
6.145160627e-05
6.184675378e-05
6.191484818e-05
6.17761218e-05
6.152690266e-05
6.127830801e-05
9.550559118e-06
1.403618145e-05
1.890293315e-05
2.373868112e-05
2.82627118e-05
3.232330643e-05
3.586670066e-05
3.890203611e-05
4.147270881e-05
4.363650114e-05
4.545280261e-05
4.697279941e-05
4.822071454e-05
4.911724788e-05
5.140007275e-06
7.470657433e-06
1.034968529e-05
1.361353463e-05
1.708618271e-05
2.061026829e-05
2.40617227e-05
2.735266118e-05
3.04276385e-05
3.325691974e-05
3.582827533e-05
3.813458062e-05
4.013953005e-05
4.163890237e-05
2.538256615e-06
3.43185293e-06
4.753244697e-06
6.510192007e-06
8.660889883e-06
1.113034716e-05
1.382824395e-05
1.666332711e-05
1.955282342e-05
2.242719846e-05
2.523126196e-05
2.79216273e-05
3.045643345e-05
3.275506834e-05
3.45271787e-05
3.484647662e-06
5.173750985e-06
7.488262982e-06
1.030600922e-05
1.345664485e-05
1.676997133e-05
2.010324243e-05
2.335065372e-05
2.644193337e-05
2.933588816e-05
3.201256256e-05
3.446497409e-05
3.668713185e-05
3.864015063e-05
4.011399571e-05
5.921090456e-06
9.549965546e-06
1.403582048e-05
1.89028324e-05
2.373885015e-05
2.826314383e-05
3.23239802e-05
3.586759582e-05
3.890311377e-05
4.147393868e-05
4.363785244e-05
4.545426382e-05
4.697435741e-05
4.822234324e-05
4.911894878e-05
1.045320379e-05
1.731352286e-05
2.475688997e-05
3.182055961e-05
3.797871384e-05
4.305103243e-05
4.70658491e-05
5.015180898e-05
5.246991819e-05
5.417745066e-05
5.541208987e-05
5.628732118e-05
5.689317576e-05
5.72978189e-05
5.753847704e-05
1.517483325e-05
2.462391676e-05
3.356731117e-05
4.112942039e-05
4.711680825e-05
5.165330302e-05
5.497432898e-05
5.732888168e-05
5.893959966e-05
5.999084354e-05
6.062904915e-05
6.096790039e-05
6.109559029e-05
6.108519462e-05
6.101510476e-05
1.045313689e-05
1.731337072e-05
2.475660657e-05
3.182012571e-05
3.79781363e-05
4.305032238e-05
4.706502054e-05
5.015089359e-05
5.246893328e-05
5.41764192e-05
5.541102441e-05
5.628623323e-05
5.689208434e-05
5.72967154e-05
5.75373486e-05
5.921128904e-06
9.549976101e-06
1.403570903e-05
1.890253243e-05
2.373833496e-05
2.826240644e-05
3.232303476e-05
3.58664624e-05
3.89018176e-05
4.147251173e-05
4.363631263e-05
4.545262981e-05
4.697264795e-05
4.822057496e-05
4.911711476e-05
3.484766168e-06
5.173877023e-06
7.488321912e-06
1.030593802e-05
1.345639886e-05
1.676952089e-05
2.010257175e-05
2.334976555e-05
2.644082912e-05
2.933457823e-05
3.201106798e-05
3.446330847e-05
3.668531264e-05
3.863818939e-05
4.011190938e-05
3.432018664e-06
4.753361743e-06
6.510223992e-06
8.660796498e-06
1.113008853e-05
1.382778668e-05
1.666265015e-05
1.955191018e-05
2.242604659e-05
2.522987244e-05
2.792000521e-05
3.045459226e-05
3.275301699e-05
3.452492038e-05
2.125521493e-06
2.657699579e-06
3.483840594e-06
4.648644383e-06
6.165737721e-06
8.018073814e-06
1.016396452e-05
1.254561744e-05
1.509766574e-05
1.775416986e-05
2.045321422e-05
2.313779231e-05
2.574741812e-05
2.817529618e-05
3.008050714e-05
2.538257454e-06
3.431849193e-06
4.753230957e-06
6.510160259e-06
8.660831391e-06
1.113025341e-05
1.382811052e-05
1.666314865e-05
1.955259593e-05
2.242692218e-05
2.523093727e-05
2.792125448e-05
3.045601605e-05
3.275460663e-05
3.452664957e-05
3.46112205e-06
5.139709049e-06
7.470386421e-06
1.034949566e-05
1.361346499e-05
1.708626267e-05
2.061051328e-05
2.406213949e-05
2.735324725e-05
3.04283843e-05
3.325781065e-05
3.582930579e-05
3.813572937e-05
4.014078602e-05
4.16402594e-05
4.844893136e-06
7.638017911e-06
1.125275798e-05
1.539572905e-05
1.976295074e-05
2.410222587e-05
2.823325822e-05
3.204409945e-05
3.547784126e-05
3.851736754e-05
4.11717636e-05
4.346493609e-05
4.542373498e-05
4.705226436e-05
4.822932115e-05
5.881232464e-06
9.418585601e-06
1.373657642e-05
1.843957203e-05
2.319581783e-05
2.776628609e-05
3.199917222e-05
3.581264862e-05
3.917604504e-05
4.209332822e-05
4.458997752e-05
4.670268271e-05
4.846928402e-05
4.990759647e-05
5.092959952e-05
4.844872415e-06
7.637967296e-06
1.125265756e-05
1.53955569e-05
1.976269612e-05
2.4101882e-05
2.8232816e-05
3.204356939e-05
3.547723102e-05
3.851667944e-05
4.117101489e-05
4.346412564e-05
4.54228799e-05
4.705136822e-05
4.822838578e-05
3.461113736e-06
5.139682012e-06
7.470310098e-06
1.034933208e-05
1.361318727e-05
1.708584619e-05
2.060994905e-05
2.406141886e-05
2.735237908e-05
3.042737478e-05
3.32566674e-05
3.582804011e-05
3.813436057e-05
4.013932488e-05
4.163870612e-05
2.538271274e-06
3.431865794e-06
4.753221433e-06
6.510089698e-06
8.660665179e-06
1.112996106e-05
1.382765998e-05
1.666252883e-05
1.955179371e-05
2.242593861e-05
2.522976841e-05
2.791990756e-05
3.045449936e-05
3.275293465e-05
3.452483951e-05
2.125554237e-06
2.657744324e-06
3.483874749e-06
4.648637798e-06
6.165657344e-06
8.017883999e-06
1.016363119e-05
1.25451127e-05
1.509696594e-05
1.77532586e-05
2.045208249e-05
2.313643328e-05
2.57458363e-05
2.817349143e-05
3.007849044e-05
)
;

boundaryField
{
    top
    {
        type            calculated;
        value           nonuniform List<scalar> 
127
(
2.125554237e-06
2.657760182e-06
3.431950471e-06
5.13989505e-06
7.638360222e-06
9.419053829e-06
7.638447631e-06
5.140007275e-06
3.432018664e-06
2.657744324e-06
3.483930533e-06
4.753375708e-06
7.470642281e-06
1.125320152e-05
1.373714849e-05
1.125320623e-05
7.470657433e-06
4.753361743e-06
3.483874749e-06
4.648768836e-06
6.510353622e-06
1.034981671e-05
1.539625536e-05
1.844020957e-05
1.539613401e-05
1.034968529e-05
6.510223992e-06
4.648637798e-06
6.165900785e-06
8.661074522e-06
1.361384595e-05
1.976354201e-05
2.319649075e-05
1.976327583e-05
1.361353463e-05
8.660796498e-06
6.165657344e-06
8.018277732e-06
1.11305466e-05
1.708669539e-05
2.41028619e-05
2.776697721e-05
2.41024465e-05
1.708618271e-05
1.113008853e-05
8.017883999e-06
1.016421084e-05
1.382844739e-05
2.061098768e-05
2.823391745e-05
3.199985791e-05
2.823336073e-05
2.061026829e-05
1.382778668e-05
1.016363119e-05
1.2545902e-05
1.666352617e-05
2.406264298e-05
3.204476932e-05
3.581331823e-05
3.204408875e-05
2.40617227e-05
1.666265015e-05
1.25451127e-05
1.50979901e-05
1.955300771e-05
2.735377126e-05
3.547851001e-05
3.917669176e-05
3.547771988e-05
2.735266118e-05
1.955191018e-05
1.509696594e-05
1.775452886e-05
2.242736282e-05
3.042892291e-05
3.851802713e-05
4.209395097e-05
3.85171466e-05
3.04276385e-05
2.242604659e-05
1.77532586e-05
2.045360459e-05
2.523140206e-05
3.325835861e-05
4.117240764e-05
4.459057292e-05
4.11714512e-05
3.325691974e-05
2.522987244e-05
2.045208249e-05
2.313820935e-05
2.792173721e-05
3.582985669e-05
4.346554827e-05
4.670324443e-05
4.346453024e-05
3.582827533e-05
2.792000521e-05
2.313643328e-05
2.574785936e-05
3.045651145e-05
3.813628069e-05
4.542433091e-05
4.846981738e-05
4.54232619e-05
3.813458062e-05
3.045459226e-05
2.57458363e-05
2.817575194e-05
3.275511205e-05
4.014133732e-05
4.70528441e-05
4.990810737e-05
4.70517253e-05
4.013953005e-05
3.275301699e-05
2.817349143e-05
3.008097519e-05
3.452715952e-05
4.164079993e-05
4.822988216e-05
5.093009065e-05
4.822873104e-05
4.163890237e-05
3.452492038e-05
3.007849044e-05
)
;
    }
    bottom
    {
        type            calculated;
        value           nonuniform List<scalar> 
134
(
2.538319127e-06
3.461148841e-06
4.844895102e-06
5.881230322e-06
4.844880603e-06
3.461116856e-06
2.538256615e-06
2.125521493e-06
2.657808535e-06
3.431954649e-06
5.139809743e-06
7.638130056e-06
9.418724074e-06
7.638069613e-06
5.139724664e-06
3.43185293e-06
2.657699579e-06
3.483977079e-06
4.753396694e-06
7.470595244e-06
1.125305513e-05
1.373695886e-05
1.125293861e-05
7.470448538e-06
4.753244697e-06
3.483840594e-06
4.64882439e-06
6.510403892e-06
1.034984782e-05
1.53962729e-05
1.844027082e-05
1.53960959e-05
1.034962953e-05
6.510192007e-06
4.648644383e-06
6.165980806e-06
8.661178589e-06
1.36140006e-05
1.976378698e-05
2.319687813e-05
1.976354472e-05
1.361369656e-05
8.660889883e-06
6.165737721e-06
8.018399344e-06
1.113073011e-05
1.708701225e-05
2.410338036e-05
2.776772072e-05
2.410306841e-05
1.708660881e-05
1.113034716e-05
8.018073814e-06
1.016439444e-05
1.382873824e-05
2.061149515e-05
2.823473324e-05
3.20009658e-05
2.823434855e-05
2.061098499e-05
1.382824395e-05
1.016396452e-05
1.254617105e-05
1.666394801e-05
2.406336293e-05
3.204588679e-05
3.5814776e-05
3.204543428e-05
2.406274015e-05
1.666332711e-05
1.254561744e-05
1.509836338e-05
1.955358064e-05
2.735471387e-05
3.54799163e-05
3.917847562e-05
3.54793984e-05
2.735397607e-05
1.955282342e-05
1.509766574e-05
1.775502475e-05
2.242810042e-05
3.043008949e-05
3.851971047e-05
4.209602544e-05
3.851913114e-05
3.042923466e-05
2.242719846e-05
1.775416986e-05
2.045423538e-05
2.523230739e-05
3.325974273e-05
4.117434365e-05
4.459290321e-05
4.117370486e-05
3.325877453e-05
2.523126196e-05
2.045321422e-05
2.3138986e-05
2.792281928e-05
3.583144586e-05
4.346771365e-05
4.670580046e-05
4.346702525e-05
3.583037034e-05
2.79216273e-05
2.313779231e-05
2.574878987e-05
3.045776765e-05
3.813806723e-05
4.542669815e-05
4.847257104e-05
4.542596243e-05
3.813689245e-05
3.045643345e-05
2.574741812e-05
2.817683849e-05
3.275654314e-05
4.014330261e-05
4.705538447e-05
4.99110386e-05
4.705461174e-05
4.014203797e-05
3.275506834e-05
2.817529618e-05
3.008222457e-05
3.452876786e-05
4.164294908e-05
4.823261463e-05
5.093319991e-05
4.823180542e-05
4.164160895e-05
3.45271787e-05
3.008050714e-05
)
;
    }
    side-walls
    {
        type            calculated;
        value           nonuniform List<scalar> 
261
(
2.657808535e-06
3.432011227e-06
5.139958413e-06
7.638391103e-06
9.419013779e-06
7.638309041e-06
5.139877409e-06
3.431942909e-06
2.657760182e-06
3.483977079e-06
4.753451033e-06
7.470759943e-06
1.125335876e-05
1.373730903e-05
1.12532401e-05
7.470653032e-06
4.75337298e-06
3.483930533e-06
4.64882439e-06
6.510460011e-06
1.035002534e-05
1.53966117e-05
1.84406732e-05
1.539645259e-05
1.0349884e-05
6.51036262e-06
4.648768836e-06
6.165980806e-06
8.661235579e-06
1.361418843e-05
1.976415331e-05
2.319731526e-05
1.976394738e-05
1.361400025e-05
8.661103904e-06
6.165900785e-06
8.018399344e-06
1.113079055e-05
1.70872076e-05
2.410376256e-05
2.776817951e-05
2.410350691e-05
1.708695285e-05
1.113060411e-05
8.018277732e-06
1.016439444e-05
1.382879892e-05
2.06116988e-05
2.82351216e-05
3.200143851e-05
2.823481359e-05
2.061136527e-05
1.382854041e-05
1.016421084e-05
1.254617105e-05
1.666401075e-05
2.40635702e-05
3.204627653e-05
3.581525888e-05
3.204591491e-05
2.40631473e-05
1.666366291e-05
1.2545902e-05
1.509836338e-05
1.955364297e-05
2.735492251e-05
3.548030132e-05
3.917895538e-05
3.547988975e-05
2.735440682e-05
1.955318768e-05
1.50979901e-05
1.775502475e-05
2.24281628e-05
3.043029421e-05
3.852008641e-05
4.209650237e-05
3.851962668e-05
3.042968135e-05
2.242759188e-05
1.775452886e-05
2.045423538e-05
2.523236866e-05
3.325993973e-05
4.11747089e-05
4.459337332e-05
4.117420348e-05
3.32592353e-05
2.523167687e-05
2.045360459e-05
2.3138986e-05
2.792288076e-05
3.583164343e-05
4.346806694e-05
4.670625782e-05
4.346751674e-05
3.583084823e-05
2.792206332e-05
2.313820935e-05
2.574878987e-05
3.045782952e-05
3.813825059e-05
4.54270362e-05
4.847300665e-05
4.542645086e-05
3.81373726e-05
3.045689121e-05
2.574785936e-05
2.817683849e-05
3.275660048e-05
4.014348007e-05
4.705571533e-05
4.991145641e-05
4.705509342e-05
4.01425256e-05
3.275554186e-05
2.817575194e-05
3.008222457e-05
3.452882433e-05
4.164312608e-05
4.823292557e-05
5.093361145e-05
4.823227825e-05
4.164209493e-05
3.452765516e-05
3.008097519e-05
2.125521493e-06
2.538257454e-06
3.46112205e-06
4.844893136e-06
5.881232464e-06
4.844872415e-06
3.461113736e-06
2.538271274e-06
2.125554237e-06
2.657699579e-06
3.431849193e-06
5.139709049e-06
7.638017911e-06
9.418585601e-06
7.637967296e-06
5.139682012e-06
3.431865794e-06
2.657744324e-06
3.483840594e-06
4.753230957e-06
7.470386421e-06
1.125275798e-05
1.373657642e-05
1.125265756e-05
7.470310098e-06
4.753221433e-06
3.483874749e-06
4.648644383e-06
6.510160259e-06
1.034949566e-05
1.539572905e-05
1.843957203e-05
1.53955569e-05
1.034933208e-05
6.510089698e-06
4.648637798e-06
6.165737721e-06
8.660831391e-06
1.361346499e-05
1.976295074e-05
2.319581783e-05
1.976269612e-05
1.361318727e-05
8.660665179e-06
6.165657344e-06
8.018073814e-06
1.113025341e-05
1.708626267e-05
2.410222587e-05
2.776628609e-05
2.4101882e-05
1.708584619e-05
1.112996106e-05
8.017883999e-06
1.016396452e-05
1.382811052e-05
2.061051328e-05
2.823325822e-05
3.199917222e-05
2.8232816e-05
2.060994905e-05
1.382765998e-05
1.016363119e-05
1.254561744e-05
1.666314865e-05
2.406213949e-05
3.204409945e-05
3.581264862e-05
3.204356939e-05
2.406141886e-05
1.666252883e-05
1.25451127e-05
1.509766574e-05
1.955259593e-05
2.735324725e-05
3.547784126e-05
3.917604504e-05
3.547723102e-05
2.735237908e-05
1.955179371e-05
1.509696594e-05
1.775416986e-05
2.242692218e-05
3.04283843e-05
3.851736754e-05
4.209332822e-05
3.851667944e-05
3.042737478e-05
2.242593861e-05
1.77532586e-05
2.045321422e-05
2.523093727e-05
3.325781065e-05
4.11717636e-05
4.458997752e-05
4.117101489e-05
3.32566674e-05
2.522976841e-05
2.045208249e-05
2.313779231e-05
2.792125448e-05
3.582930579e-05
4.346493609e-05
4.670268271e-05
4.346412564e-05
3.582804011e-05
2.791990756e-05
2.313643328e-05
2.574741812e-05
3.045601605e-05
3.813572937e-05
4.542373498e-05
4.846928402e-05
4.54228799e-05
3.813436057e-05
3.045449936e-05
2.57458363e-05
2.817529618e-05
3.275460663e-05
4.014078602e-05
4.705226436e-05
4.990759647e-05
4.705136822e-05
4.013932488e-05
3.275293465e-05
2.817349143e-05
3.008050714e-05
3.452664957e-05
4.16402594e-05
4.822932115e-05
5.092959952e-05
4.822838578e-05
4.163870612e-05
3.452483951e-05
3.007849044e-05
)
;
    }
    inlet
    {
        type            calculated;
        value           nonuniform 0();
    }
    outlet
    {
        type            calculated;
        value           nonuniform List<scalar> 
81
(
3.008222457e-05
3.452882433e-05
4.164312608e-05
4.823292557e-05
5.093361145e-05
4.823227825e-05
4.164209493e-05
3.452765516e-05
3.008097519e-05
3.452876786e-05
4.011601566e-05
4.912166719e-05
5.754193189e-05
6.101896506e-05
5.75410982e-05
4.912034047e-05
4.01145045e-05
3.452715952e-05
4.164294908e-05
4.912154568e-05
6.128299631e-05
7.278317731e-05
7.757705788e-05
7.27820146e-05
6.128113479e-05
4.911950854e-05
4.164079993e-05
4.823261463e-05
5.754167554e-05
7.278301493e-05
8.732441284e-05
9.343682675e-05
8.732288142e-05
7.278059526e-05
5.753903101e-05
4.822988216e-05
5.093319991e-05
6.101857975e-05
7.757672334e-05
9.343660294e-05
0.0001001615236
9.343484074e-05
7.757397386e-05
6.101559329e-05
5.093009065e-05
4.823180542e-05
5.754061641e-05
7.278153051e-05
8.732246892e-05
9.343462903e-05
8.732077321e-05
7.277885844e-05
5.75376644e-05
4.822873104e-05
4.164160895e-05
4.911982915e-05
6.128060373e-05
7.278007841e-05
7.757357358e-05
7.277864866e-05
6.127830801e-05
4.911724788e-05
4.163890237e-05
3.45271787e-05
4.011399571e-05
4.911894878e-05
5.753847704e-05
6.101510476e-05
5.75373486e-05
4.911711476e-05
4.011190938e-05
3.452492038e-05
3.008050714e-05
3.452664957e-05
4.16402594e-05
4.822932115e-05
5.092959952e-05
4.822838578e-05
4.163870612e-05
3.452483951e-05
3.007849044e-05
)
;
    }
    procBoundary1to0
    {
        type            processor;
        value           nonuniform List<scalar> 
97
(
2.125552275e-06
2.125552275e-06
2.538259551e-06
3.461062558e-06
4.844736519e-06
5.880968866e-06
4.844674439e-06
3.46099577e-06
2.538195925e-06
2.125488132e-06
2.009027079e-06
3.484762089e-06
3.484762089e-06