/*--------------------------------*- C++ -*----------------------------------*\
| =========                 |                                                 |
| \\      /  F ield         | OpenFOAM: The Open Source CFD Toolbox           |
|  \\    /   O peration     | Version:  4.x                                   |
|   \\  /    A nd           | Web:      www.OpenFOAM.org                      |
|    \\/     M anipulation  |                                                 |
\*---------------------------------------------------------------------------*/
FoamFile
{
    version     2.0;
    format      ascii;
    class       volScalarField;
    location    "4000";
    object      X_H2;
}
// * * * * * * * * * * * * * * * * * * * * * * * * * * * * * * * * * * * * * //

dimensions      [0 0 0 0 0 0 0];

internalField   nonuniform List<scalar> 
1174
(
0.02997616457
0.02997533865
0.02997417417
0.02997265751
0.02997080573
0.02996866052
0.0299662797
0.02996372861
0.0299610732
0.02995837537
0.02995569212
0.02995308389
0.02995065742
0.02994875333
0.0299753906
0.02997406951
0.02997231299
0.02997016286
0.02996769411
0.02996499707
0.02996216298
0.02995927462
0.0299564015
0.0299535988
0.02995090989
0.0299483766
0.02994607945
0.02994430853
0.02997368304
0.02997135276
0.02996847418
0.0299652109
0.02996173893
0.02995821566
0.02995476515
0.02995147528
0.02994840149
0.0299455735
0.02994300352
0.02994069864
0.02993869508
0.02993719675
0.02997118501
0.02996757072
0.02996342835
0.0299590619
0.02995472356
0.02995059364
0.02994678404
0.02994335166
0.02994031359
0.02993766073
0.02993536915
0.02993341195
0.02993178496
0.02993060905
0.02996940453
0.02996508696
0.02996038456
0.0299556291
0.02995105959
0.02994682783
0.02994301563
0.02993965362
0.02993673782
0.02993424273
0.02993213163
0.02993036665
0.02992892987
0.02992790901
0.02997118506
0.02996757079
0.02996342844
0.029959062
0.02995472368
0.02995059376
0.02994678416
0.02994335179
0.02994031372
0.02993766086
0.02993536928
0.02993341208
0.02993178508
0.02993060917
0.02997368308
0.02997135281
0.02996847424
0.02996521097
0.02996173901
0.02995821575
0.02995476526
0.0299514754
0.02994840162
0.02994557364
0.02994300366
0.02994069879
0.02993869523
0.02993719691
0.02997539062
0.02997406954
0.02997231303
0.0299701629
0.02996769416
0.02996499713
0.02996216306
0.02995927471
0.0299564016
0.02995359892
0.02995091002
0.02994837674
0.02994607961
0.0299443087
0.02997616459
0.02997533867
0.02997417419
0.02997265754
0.02997080576
0.02996866057
0.02996627975
0.02996372868
0.02996107329
0.02995837547
0.02995569224
0.02995308403
0.02995065757
0.0299487535
0.02997628399
0.0299753906
0.02997406952
0.029972313
0.02997016287
0.02996769413
0.02996499709
0.029962163
0.02995927464
0.02995640152
0.02995359882
0.02995090991
0.02994837661
0.02994607947
0.02994430855
0.02997364898
0.0299713349
0.02996851773
0.02996536783
0.02996205538
0.02995872314
0.02995547689
0.02995238688
0.02994949431
0.0299468191
0.02994436821
0.02994214762
0.02994019612
0.02993872344
0.02996927328
0.02996478799
0.02995992174
0.02995508667
0.02995056348
0.0299465039
0.02994296165
0.0299399276
0.0299373583
0.02993519597
0.02993338118
0.02993186271
0.02993061625
0.0299297208
0.02996151017
0.02995406738
0.02994700456
0.0299408475
0.02993577648
0.02993176312
0.02992867872
0.02992636224
0.02992465637
0.02992342341
0.02992254987
0.02992194566
0.02992154258
0.02992130305
0.02995419968
0.02994525672
0.02993769545
0.02993170922
0.0299271741
0.02992385462
0.02992150172
0.02991989271
0.02991884319
0.02991820672
0.0299178696
0.02991774359
0.02991775554
0.02991782675
0.02996151025
0.02995406748
0.02994700468
0.02994084762
0.02993577661
0.02993176325
0.02992867885
0.02992636237
0.0299246565
0.02992342354
0.02992255
0.02992194579
0.0299215427
0.02992130318
0.02996927336
0.02996478808
0.02995992184
0.02995508678
0.0299505636
0.02994650403
0.0299429618
0.02993992775
0.02993735847
0.02993519614
0.02993338135
0.02993186289
0.02993061644
0.02992972099
0.02997364904
0.02997133496
0.02996851779
0.0299653679
0.02996205546
0.02995872323
0.02995547699
0.02995238701
0.02994949444
0.02994681925
0.02994436838
0.0299421478
0.02994019631
0.02993872365
0.02997539062
0.02997406954
0.02997231303
0.02997016291
0.02996769417
0.02996499714
0.02996216307
0.02995927473
0.02995640163
0.02995359895
0.02995091006
0.02994837678
0.02994607966
0.02994430876
0.02997536136
0.02997368307
0.0299713528
0.02996847424
0.02996521096
0.029961739
0.02995821573
0.02995476522
0.02995147536
0.02994840157
0.02994557358
0.02994300359
0.02994069871
0.02993869514
0.02993719681
0.02997290178
0.02996927332
0.02996478805
0.02995992181
0.02995508674
0.02995056356
0.02994650397
0.02994296173
0.02993992767
0.02993735837
0.02993519604
0.02993338124
0.02993186276
0.02993061631
0.02992972085
0.02995637088
0.02994693507
0.02993841096
0.02993143901
0.02992614547
0.02992237077
0.02991984003
0.02991826307
0.02991738227
0.02991698878
0.02991692234
0.0299170627
0.02991731343
0.02991756311
0.02992772491
0.02991183294
0.0299009099
0.02989449347
0.02989150932
0.02989088067
0.02989174169
0.0298934668
0.02989563286
0.02989796704
0.02990029956
0.02990252172
0.02990452984
0.02990606601
0.02989027456
0.02987451368
0.0298677994
0.02986667776
0.02986868785
0.02987228355
0.02987655045
0.02988096959
0.0298852589
0.02988927467
0.02989295087
0.02989625527
0.02989912721
0.02990127298
0.02992772525
0.02991183327
0.02990091021
0.02989449376
0.02989150959
0.02989088092
0.02989174192
0.02989346702
0.02989563306
0.02989796723
0.02990029973
0.02990252189
0.02990453
0.02990606617
0.02995637118
0.02994693532
0.0299384112
0.02993143926
0.02992614572
0.02992237103
0.0299198403
0.02991826334
0.02991738253
0.02991698905
0.02991692261
0.02991706296
0.02991731369
0.02991756336
0.02996927337
0.0299647881
0.02995992187
0.02995508682
0.02995056366
0.0299465041
0.02994296188
0.02993992784
0.02993735856
0.02993519624
0.02993338146
0.029931863
0.02993061655
0.0299297211
0.02997368307
0.02997135281
0.02996847426
0.02996521099
0.02996173906
0.02995821581
0.02995476533
0.02995147549
0.02994840173
0.02994557376
0.0299430038
0.02994069893
0.02993869539
0.02993719708
0.02997397785
0.02997118507
0.02996757081
0.02996342846
0.02995906202
0.0299547237
0.02995059378
0.02994678418
0.0299433518
0.02994031373
0.02993766086
0.02993536928
0.02993341208
0.02993178508
0.02993060916
0.02996837016
0.02996151024
0.02995406749
0.02994700468
0.02994084762
0.0299357766
0.02993176324
0.02992867883
0.02992636234
0.02992465647
0.02992342351
0.02992254996
0.02992194575
0.02992154266
0.02992130313
0.0299471703
0.02992772494
0.029911833
0.02990090996
0.02989449353
0.02989150938
0.02989088072
0.02989174174
0.02989346685
0.0298956329
0.02989796708
0.0299002996
0.02990252176
0.02990452988
0.02990606605
0.02982966549
0.0298097669
0.02980658838
0.02981244103
0.02982230471
0.02983335365
0.02984416009
0.02985409057
0.02986292968
0.02987066593
0.02987737455
0.02988314566
0.02988799146
0.02989152814
0.02963752041
0.02966286275
0.02970158293
0.02973864543
0.02977010713
0.02979575451
0.02981643172
0.02983312654
0.02984669801
0.02985782592
0.02986702617
0.02987466763
0.02988092358
0.02988541661
0.02982966676
0.02980976777
0.02980658905
0.02981244159
0.02982230518
0.02983335406
0.02984416045
0.02985409089
0.02986292998
0.02987066619
0.02987737479
0.02988314588
0.02988799166
0.02989152833
0.02992772526
0.02991183338
0.02990091038
0.02989449396
0.02989150982
0.02989088116
0.02989174216
0.02989346725
0.02989563328
0.02989796745
0.02990029995
0.02990252209
0.0299045302
0.02990606636
0.02996151024
0.02995406752
0.02994700476
0.02994084775
0.02993577678
0.02993176345
0.02992867908
0.02992636261
0.02992465676
0.02992342381
0.02992255027
0.02992194607
0.02992154298
0.02992130346
0.02997118505
0.02996757079
0.02996342846
0.02995906206
0.02995472377
0.02995059389
0.02994678433
0.02994335198
0.02994031394
0.0299376611
0.02993536954
0.02993341236
0.02993178538
0.02993060949
0.02997294161
0.02996940459
0.02996508705
0.02996038467
0.02995562921
0.02995105971
0.02994682796
0.02994301576
0.02993965376
0.02993673796
0.02993424286
0.02993213176
0.02993036677
0.02992892999
0.02992790912
0.02996364867
0.02995419977
0.02994525687
0.02993769561
0.02993170937
0.02992717426
0.02992385477
0.02992150186
0.02991989284
0.02991884332
0.02991820684
0.02991786971
0.02991774369
0.02991775564
0.02991782685
0.02991836279
0.02989027454
0.02987451387
0.0298677996
0.02986667793
0.02986868801
0.02987228369
0.02987655058
0.02988096971
0.029885259
0.02988927477
0.02989295096
0.02989625536
0.0298991273
0.02990127306
0.02967139557
0.02963752096
0.02966286321
0.02970158331
0.02973864574
0.02977010739
0.02979575473
0.0298164319
0.0298331267
0.02984669815
0.02985782603
0.02986702627
0.02987466772
0.02988092366
0.02988541668
0.02880939881
0.02923138803
0.02946478279
0.02960132999
0.02968587374
0.02974116606
0.02977919911
0.02980654975
0.02982697442
0.02984270745
0.02985512789
0.02986509721
0.02987306028
0.02987869257
0.0296375201
0.02966286398
0.02970158418
0.0297386465
0.02977010803
0.02979575527
0.02981643236
0.02983312709
0.0298466985
0.02985782634
0.02986702655
0.02987466797
0.02988092389
0.0298854169
0.0298902745
0.02987451408
0.02986779996
0.02986667837
0.02986868847
0.02987228415
0.02987655103
0.02988097014
0.02988525941
0.02988927516
0.02989295133
0.02989625571
0.02989912764
0.02990127339
0.02995419971
0.02994525688
0.02993769569
0.02993170954
0.02992717448
0.02992385504
0.02992150217
0.02991989317
0.02991884366
0.02991820719
0.02991787007
0.02991774406
0.02991775601
0.02991782722
0.02996940456
0.02996508705
0.0299603847
0.02995562929
0.02995105984
0.02994682814
0.02994301598
0.02993965401
0.02993673824
0.02993424317
0.02993213209
0.02993036712
0.02992893036
0.0299279095
0.02997397786
0.0299711851
0.02996757085
0.02996342851
0.02995906209
0.02995472377
0.02995059386
0.02994678427
0.0299433519
0.02994031383
0.02993766097
0.02993536939
0.02993341219
0.02993178519
0.02993060928
0.02996837022
0.02996151034
0.02995406761
0.02994700482
0.02994084777
0.02993577675
0.02993176339
0.02992867899
0.0299263625
0.02992465663
0.02992342366
0.02992255012
0.02992194591
0.02992154281
0.02992130329
0.02994717074
0.02992772538
0.02991183348
0.02990091042
0.02989449396
0.02989150978
0.02989088109
0.02989174208
0.02989346717
0.0298956332
0.02989796737
0.02990029986
0.02990252201
0.02990453012
0.02990606628
0.02987456903
0.02982966723
0.02980976832
0.02980658952
0.02981244198
0.02982230551
0.02983335435
0.0298441607
0.0298540911
0.02986293016
0.02987066636
0.02987737494
0.02988314601
0.02988799178
0.02989152844
0.02967139555
0.02963752129
0.02966286475
0.02970158468
0.02973864683
0.02977010826
0.02979575545
0.0298164325
0.0298331272
0.02984669858
0.02985782641
0.02986702661
0.02987466802
0.02988092394
0.02988541694
0.02987456883
0.02982966751
0.02980976872
0.02980658995
0.02981244239
0.02982230589
0.02983335468
0.029844161
0.02985409138
0.02986293041
0.02987066659
0.02987737515
0.02988314621
0.02988799197
0.02989152862
0.02992772482
0.02991183331
0.02990091049
0.02989449417
0.02989151007
0.02989088143
0.02989174244
0.02989346753
0.02989563355
0.02989796771
0.0299003002
0.02990252234
0.02990453044
0.02990606659
0.02996151018
0.02995406753
0.02994700483
0.02994084786
0.02993577692
0.02993176361
0.02992867925
0.0299263628
0.02992465694
0.02992342399
0.02992255046
0.02992194625
0.02992154317
0.02992130365
0.02997118504
0.0299675708
0.0299634285
0.02995906212
0.02995472385
0.02995059398
0.02994678444
0.02994335211
0.02994031408
0.02993766125
0.02993536969
0.02993341252
0.02993178554
0.02993060965
0.02997536137
0.02997368309
0.02997135284
0.02996847428
0.02996521102
0.02996173907
0.02995821582
0.02995476533
0.02995147548
0.0299484017
0.02994557372
0.02994300375
0.02994069888
0.02993869533
0.02993719701
0.02997290184
0.0299692734
0.02996478815
0.02995992192
0.02995508686
0.02995056369
0.02994650412
0.0299429619
0.02993992785
0.02993735857
0.02993519624
0.02993338146
0.02993186299
0.02993061654
0.02992972109
0.02996538633
0.02995637125
0.02994693543
0.02993841132
0.02993143938
0.02992614584
0.02992237116
0.02991984042
0.02991826346
0.02991738265
0.02991698917
0.02991692272
0.02991706307
0.0299173138
0.02991756347
0.02994717077
0.0299277255
0.02991183368
0.02990091067
0.02989449423
0.02989151006
0.02989088137
0.02989174236
0.02989346743
0.02989563344
0.0298979676
0.02990030008
0.02990252222
0.02990453032
0.02990606647
0.02991836296
0.02989027513
0.02987451468
0.02986780045
0.02986667877
0.02986868878
0.0298722844
0.02987655123
0.02988097031
0.02988525955
0.02988927528
0.02989295144
0.0298962558
0.02989912772
0.02990127347
0.02994717085
0.02992772563
0.02991183385
0.02990091087
0.02989449444
0.02989151027
0.02989088158
0.02989174256
0.02989346762
0.02989563363
0.02989796778
0.02990030026
0.02990252239
0.02990453048
0.02990606663
0.0299653862
0.02995637117
0.02994693543
0.0299384114
0.02993143953
0.02992614604
0.02992237139
0.02991984067
0.02991826372
0.02991738292
0.02991698943
0.02991692299
0.02991706334
0.02991731406
0.02991756374
0.02996927329
0.02996478809
0.02995992193
0.02995508693
0.02995056381
0.02994650429
0.0299429621
0.02993992809
0.02993735882
0.02993519652
0.02993338175
0.02993186329
0.02993061685
0.02992972141
0.02997368304
0.0299713528
0.02996847427
0.02996521103
0.02996173912
0.02995821591
0.02995476545
0.02995147564
0.0299484019
0.02994557395
0.02994300401
0.02994069916
0.02993869563
0.02993719733
0.029976284
0.02997539063
0.02997406956
0.02997231306
0.02997016294
0.02996769421
0.02996499719
0.02996216312
0.02995927477
0.02995640167
0.02995359899
0.0299509101
0.02994837682
0.0299460797
0.02994430879
0.02997533784
0.02997364906
0.029971335
0.02996851784
0.02996536796
0.02996205553
0.02995872331
0.02995547707
0.02995238709
0.02994949454
0.02994681934
0.02994436848
0.0299421479
0.02994019641
0.02993872375
0.02997290185
0.02996927342
0.02996478819
0.02995992197
0.02995508693
0.02995056378
0.02994650422
0.029942962
0.02993992796
0.02993735868
0.02993519636
0.02993338158
0.02993186311
0.02993061666
0.02992972121
0.02996837023
0.02996151039
0.02995406771
0.02994700497
0.02994084796
0.02993577698
0.02993176364
0.02992867925
0.02992636278
0.02992465691
0.02992342395
0.0299225504
0.02992194619
0.0299215431
0.02992130357
0.0299636487
0.02995419992
0.02994525713
0.02993769594
0.02993170977
0.0299271747
0.02992385523
0.02992150234
0.02991989332
0.0299188438
0.02991820732
0.02991787018
0.02991774416
0.02991775611
0.02991782731
0.02996837024
0.02996151041
0.02995406775
0.02994700502
0.02994084802
0.02993577706
0.02993176373
0.02992867935
0.02992636288
0.02992465702
0.02992342407
0.02992255052
0.02992194631
0.02992154322
0.0299213037
0.02997290183
0.02996927341
0.02996478819
0.029959922
0.02995508699
0.02995056386
0.02994650433
0.02994296213
0.02993992811
0.02993735885
0.02993519654
0.02993338176
0.02993186331
0.02993061687
0.02992972142
0.02997533781
0.02997364903
0.02997133497
0.02996851784
0.02996536797
0.02996205558
0.02995872338
0.02995547718
0.02995238722
0.02994949469
0.02994681952
0.02994436868
0.02994214812
0.02994019665
0.02993872399
0.02997539059
0.02997406953
0.02997231304
0.02997016294
0.02996769423
0.02996499724
0.0299621632
0.02995927488
0.02995640181
0.02995359916
0.02995091029
0.02994837704
0.02994607994
0.02994430905
0.02997669662
0.0299761646
0.02997533869
0.02997417422
0.02997265757
0.0299708058
0.02996866062
0.02996627981
0.02996372875
0.02996107336
0.02995837555
0.02995569232
0.02995308412
0.02995065767
0.0299487536
0.02997628401
0.02997539063
0.02997406957
0.02997231307
0.02997016296
0.02996769423
0.02996499721
0.02996216315
0.02995927482
0.02995640172
0.02995359905
0.02995091016
0.02994837689
0.02994607976
0.02994430886
0.02997536137
0.0299736831
0.02997135285
0.02996847431
0.02996521106
0.02996173913
0.02995821589
0.02995476542
0.02995147558
0.02994840182
0.02994557386
0.02994300389
0.02994069903
0.02993869549
0.02993719718
0.02997397786
0.02997118511
0.02996757088
0.02996342857
0.02995906218
0.0299547239
0.02995059402
0.02994678446
0.02994335211
0.02994031407
0.02993766123
0.02993536966
0.02993341248
0.02993178549
0.02993060959
0.02997294162
0.02996940463
0.02996508713
0.0299603848
0.0299556294
0.02995105995
0.02994682824
0.02994301608
0.0299396541
0.02993673833
0.02993424326
0.02993213218
0.0299303672
0.02992893044
0.02992790958
0.02997397786
0.02997118511
0.02996757088
0.02996342857
0.02995906219
0.02995472391
0.02995059404
0.02994678449
0.02994335215
0.02994031412
0.02993766129
0.02993536973
0.02993341255
0.02993178558
0.02993060968
0.02997536137
0.0299736831
0.02997135285
0.02996847432
0.02996521108
0.02996173916
0.02995821594
0.02995476549
0.02995147567
0.02994840192
0.02994557398
0.02994300403
0.02994069918
0.02993869565
0.02993719734
0.029976284
0.02997539063
0.02997406956
0.02997231307
0.02997016297
0.02996769426
0.02996499726
0.02996216322
0.02995927491
0.02995640183
0.02995359918
0.02995091031
0.02994837706
0.02994607996
0.02994430907
0.02997669661
0.02997616459
0.02997533868
0.02997417421
0.02997265757
0.02997080582
0.02996866065
0.02996627987
0.02996372882
0.02996107346
0.02995837568
0.02995569248
0.0299530843
0.02995065787
0.02994875383
)
;

boundaryField
{
    top
    {
        type            calculated;
        value           nonuniform List<scalar> 
127
(
0.02997669661
0.02997616459
0.02997539062
0.02997368307
0.02997118505
0.02996940456
0.02997118504
0.02997368304
0.02997539059
0.02997616459
0.02997533867
0.02997406954
0.02997135281
0.02996757079
0.02996508705
0.0299675708
0.0299713528
0.02997406953
0.02997533868
0.02997417419
0.02997231303
0.02996847426
0.02996342846
0.0299603847
0.0299634285
0.02996847427
0.02997231304
0.02997417421
0.02997265754
0.02997016291
0.02996521099
0.02995906206
0.02995562929
0.02995906212
0.02996521103
0.02997016294
0.02997265757
0.02997080576
0.02996769417
0.02996173906
0.02995472377
0.02995105984
0.02995472385
0.02996173912
0.02996769423
0.02997080582
0.02996866057
0.02996499714
0.02995821581
0.02995059389
0.02994682814
0.02995059398
0.02995821591
0.02996499724
0.02996866065
0.02996627975
0.02996216307
0.02995476533
0.02994678433
0.02994301598
0.02994678444
0.02995476545
0.0299621632
0.02996627987
0.02996372868
0.02995927473
0.02995147549
0.02994335198
0.02993965401
0.02994335211
0.02995147564
0.02995927488
0.02996372882
0.02996107329
0.02995640163
0.02994840173
0.02994031394
0.02993673824
0.02994031408
0.0299484019
0.02995640181
0.02996107346
0.02995837547
0.02995359895
0.02994557376
0.0299376611
0.02993424317
0.02993766125
0.02994557395
0.02995359916
0.02995837568
0.02995569224
0.02995091006
0.0299430038
0.02993536954
0.02993213209
0.02993536969
0.02994300401
0.02995091029
0.02995569248
0.02995308403
0.02994837678
0.02994069893
0.02993341236
0.02993036712
0.02993341252
0.02994069916
0.02994837704
0.0299530843
0.02995065757
0.02994607966
0.02993869539
0.02993178538
0.02992893036
0.02993178554
0.02993869563
0.02994607994
0.02995065787
0.0299487535
0.02994430876
0.02993719708
0.02993060949
0.0299279095
0.02993060965
0.02993719733
0.02994430905
0.02994875383
)
;
    }
    bottom
    {
        type            calculated;
        value           nonuniform List<scalar> 
134
(
0.02997628399
0.02997536136
0.02997397785
0.02997294161
0.02997397786
0.02997536137
0.029976284
0.02997669662
0.02997616457
0.0299753906
0.02997368307
0.02997118507
0.02996940459
0.0299711851
0.02997368309
0.02997539063
0.0299761646
0.02997533865
0.02997406952
0.0299713528
0.02996757081
0.02996508705
0.02996757085
0.02997135284
0.02997406956
0.02997533869
0.02997417417
0.029972313
0.02996847424
0.02996342846
0.02996038467
0.02996342851
0.02996847428
0.02997231306
0.02997417422
0.02997265751
0.02997016287
0.02996521096
0.02995906202
0.02995562921
0.02995906209
0.02996521102
0.02997016294
0.02997265757
0.02997080573
0.02996769413
0.029961739
0.0299547237
0.02995105971
0.02995472377
0.02996173907
0.02996769421
0.0299708058
0.02996866052
0.02996499709
0.02995821573
0.02995059378
0.02994682796
0.02995059386
0.02995821582
0.02996499719
0.02996866062
0.0299662797
0.029962163
0.02995476522
0.02994678418
0.02994301576
0.02994678427
0.02995476533
0.02996216312
0.02996627981
0.02996372861
0.02995927464
0.02995147536
0.0299433518
0.02993965376
0.0299433519
0.02995147548
0.02995927477
0.02996372875
0.0299610732
0.02995640152
0.02994840157
0.02994031373
0.02993673796
0.02994031383
0.0299484017
0.02995640167
0.02996107336
0.02995837537
0.02995359882
0.02994557358
0.02993766086
0.02993424286
0.02993766097
0.02994557372
0.02995359899
0.02995837555
0.02995569212
0.02995090991
0.02994300359
0.02993536928
0.02993213176
0.02993536939
0.02994300375
0.0299509101
0.02995569232
0.02995308389
0.02994837661
0.02994069871
0.02993341208
0.02993036677
0.02993341219
0.02994069888
0.02994837682
0.02995308412
0.02995065742
0.02994607947
0.02993869514
0.02993178508
0.02992892999
0.02993178519
0.02993869533
0.0299460797
0.02995065767
0.02994875333
0.02994430855
0.02993719681
0.02993060916
0.02992790912
0.02993060928
0.02993719701
0.02994430879
0.0299487536
)
;
    }
    side-walls
    {
        type            calculated;
        value           nonuniform List<scalar> 
261
(
0.02997616457
0.0299753906
0.02997368304
0.02997118501
0.02996940453
0.02997118506
0.02997368308
0.02997539062
0.02997616459
0.02997533865
0.02997406951
0.02997135276
0.02996757072
0.02996508696
0.02996757079
0.02997135281
0.02997406954
0.02997533867
0.02997417417
0.02997231299
0.02996847418
0.02996342835
0.02996038456
0.02996342844
0.02996847424
0.02997231303
0.02997417419
0.02997265751
0.02997016286
0.0299652109
0.0299590619
0.0299556291
0.029959062
0.02996521097
0.0299701629
0.02997265754
0.02997080573
0.02996769411
0.02996173893
0.02995472356
0.02995105959
0.02995472368
0.02996173901
0.02996769416
0.02997080576
0.02996866052
0.02996499707
0.02995821566
0.02995059364
0.02994682783
0.02995059376
0.02995821575
0.02996499713
0.02996866057
0.0299662797
0.02996216298
0.02995476515
0.02994678404
0.02994301563
0.02994678416
0.02995476526
0.02996216306
0.02996627975
0.02996372861
0.02995927462
0.02995147528
0.02994335166
0.02993965362
0.02994335179
0.0299514754
0.02995927471
0.02996372868
0.0299610732
0.0299564015
0.02994840149
0.02994031359
0.02993673782
0.02994031372
0.02994840162
0.0299564016
0.02996107329
0.02995837537
0.0299535988
0.0299455735
0.02993766073
0.02993424273
0.02993766086
0.02994557364
0.02995359892
0.02995837547
0.02995569212
0.02995090989
0.02994300352
0.02993536915
0.02993213163
0.02993536928
0.02994300366
0.02995091002
0.02995569224
0.02995308389
0.0299483766
0.02994069864
0.02993341195
0.02993036665
0.02993341208
0.02994069879
0.02994837674
0.02995308403
0.02995065742
0.02994607945
0.02993869508
0.02993178496
0.02992892987
0.02993178508
0.02993869523
0.02994607961
0.02995065757
0.02994875333
0.02994430853
0.02993719675
0.02993060905
0.02992790901
0.02993060917
0.02993719691
0.0299443087
0.0299487535
0.02997669662
0.02997628401
0.02997536137
0.02997397786
0.02997294162
0.02997397786
0.02997536137
0.029976284
0.02997669661
0.0299761646
0.02997539063
0.0299736831
0.02997118511
0.02996940463
0.02997118511
0.0299736831
0.02997539063
0.02997616459
0.02997533869
0.02997406957
0.02997135285
0.02996757088
0.02996508713
0.02996757088
0.02997135285
0.02997406956
0.02997533868
0.02997417422
0.02997231307
0.02996847431
0.02996342857
0.0299603848
0.02996342857
0.02996847432
0.02997231307
0.02997417421
0.02997265757
0.02997016296
0.02996521106
0.02995906218
0.0299556294
0.02995906219
0.02996521108
0.02997016297
0.02997265757
0.0299708058
0.02996769423
0.02996173913
0.0299547239
0.02995105995
0.02995472391
0.02996173916
0.02996769426
0.02997080582
0.02996866062
0.02996499721
0.02995821589
0.02995059402
0.02994682824
0.02995059404
0.02995821594
0.02996499726
0.02996866065
0.02996627981
0.02996216315
0.02995476542
0.02994678446
0.02994301608
0.02994678449
0.02995476549
0.02996216322
0.02996627987
0.02996372875
0.02995927482
0.02995147558
0.02994335211
0.0299396541
0.02994335215
0.02995147567
0.02995927491
0.02996372882
0.02996107336
0.02995640172
0.02994840182
0.02994031407
0.02993673833
0.02994031412
0.02994840192
0.02995640183
0.02996107346
0.02995837555
0.02995359905
0.02994557386
0.02993766123
0.02993424326
0.02993766129
0.02994557398
0.02995359918
0.02995837568
0.02995569232
0.02995091016
0.02994300389
0.02993536966
0.02993213218
0.02993536973
0.02994300403
0.02995091031
0.02995569248
0.02995308412
0.02994837689
0.02994069903
0.02993341248
0.0299303672
0.02993341255
0.02994069918
0.02994837706
0.0299530843
0.02995065767
0.02994607976
0.02993869549
0.02993178549
0.02992893044
0.02993178558
0.02993869565
0.02994607996
0.02995065787
0.0299487536
0.02994430886
0.02993719718
0.02993060959
0.02992790958
0.02993060968
0.02993719734
0.02994430907
0.02994875383
)
;
    }
    inlet
    {
        type            calculated;
        value           nonuniform 0();
    }
    outlet
    {
        type            calculated;
        value           nonuniform List<scalar> 
81
(
0.02994875333
0.02994430853
0.02993719675
0.02993060905
0.02992790901
0.02993060917
0.02993719691
0.0299443087
0.0299487535
0.02994430855
0.02993872344
0.0299297208
0.02992130305
0.02991782675
0.02992130318
0.02992972099
0.02993872365
0.02994430876
0.02993719681
0.02992972085
0.02991756311
0.02990606601
0.02990127298
0.02990606617
0.02991756336
0.0299297211
0.02993719708
0.02993060916
0.02992130313
0.02990606605
0.02989152814
0.02988541661
0.02989152833
0.02990606636
0.02992130346
0.02993060949
0.02992790912
0.02991782685
0.02990127306
0.02988541668
0.02987869257
0.0298854169
0.02990127339
0.02991782722
0.0299279095
0.02993060928
0.02992130329
0.02990606628
0.02989152844
0.02988541694
0.02989152862
0.02990606659
0.02992130365
0.02993060965
0.02993719701
0.02992972109
0.02991756347
0.02990606647
0.02990127347
0.02990606663
0.02991756374
0.02992972141
0.02993719733
0.02994430879
0.02993872375
0.02992972121
0.02992130357
0.02991782731
0.0299213037
0.02992972142
0.02993872399
0.02994430905
0.0299487536
0.02994430886
0.02993719718
0.02993060959
0.02992790958
0.02993060968
0.02993719734
0.02994430907
0.02994875383
)
;
    }
    procBoundary1to0
    {
        type            processor;
        value           nonuniform List<scalar> 
97
(
0.02997669661
0.02997669661
0.029976284
0.02997536138
0.02997397787
0.02997294165
0.0299739779
0.0299753614
0.02997628402
0.02997669662
0.02997681303
0.02997533781
0.02997533781
0.02997533781
0.02997290183
0.02996837026
0.02996364881
0.02996837033
0.0299729019
0.02997533787
0.02997628402
0.02997639452
0.02997531383
0.02996538618
0.02996538618
0.02996538618
0.02994717082
0.0299183635
0.02994717117
0.02996538651
0.0299729019
0.0299753614
0.02997578231
0.02997341147
0.02996513404
0.02987456787
0.02987456787
0.02987456787
0.02967139867
0.02987457008
0.02994717115
0.02996837031
0.02997397789
0.02997534596
0.02997162019
0.02995596203
0.02989412179
0.02800240621
0.02800240621
0.02800240621
0.02967139779
0.02967139779
0.02991836335
0.0299636488
0.02997294166
0.02997578231
0.02997341147
0.02996513405
0.02994112176
0.02989412162
0.02994112187
0.02994717043
0.02994717043
0.02994717043
0.02996837022
0.02997397787
0.02997639452
0.02997531383
0.02997215219
0.02996513405
0.02995596206
0.02996513409
0.02997215219
0.02997290178
0.02997290178
0.02997290178
0.02997536137
0.02997681303
0.02997638619
0.02997531383
0.02997341147
0.02997162019
0.02997341147
0.02997531383
0.02997638619
0.02997628399
0.02997628399
0.02997628399
0.02997700273
0.02997681303
0.02997639452
0.02997578231
0.02997534596
0.02997578231
0.02997639452
0.02997681303
0.02997700273
)
;
    }
}


// ************************************************************************* //
