/*--------------------------------*- C++ -*----------------------------------*\
| =========                 |                                                 |
| \\      /  F ield         | OpenFOAM: The Open Source CFD Toolbox           |
|  \\    /   O peration     | Version:  4.x                                   |
|   \\  /    A nd           | Web:      www.OpenFOAM.org                      |
|    \\/     M anipulation  |                                                 |
\*---------------------------------------------------------------------------*/
FoamFile
{
    version     2.0;
    format      ascii;
    class       volScalarField;
    location    "8000";
    object      CO;
}
// * * * * * * * * * * * * * * * * * * * * * * * * * * * * * * * * * * * * * //

dimensions      [0 0 0 0 0 0 0];

internalField   nonuniform List<scalar> 
1174
(
0.3719614878
0.3719596965
0.371957165
0.3719538604
0.3719498177
0.3719451259
0.3719399095
0.3719343105
0.371928474
0.3719225355
0.3719166206
0.3719108636
0.3719054998
0.3719012833
0.3719598007
0.3719569234
0.3719530889
0.3719483858
0.3719429761
0.3719370559
0.3719308249
0.3719244658
0.3719181318
0.3719119454
0.3719060032
0.371900398
0.3718953092
0.3718913801
0.3719560689
0.3719509724
0.3719446626
0.371937495
0.3719298552
0.3719220895
0.3719144729
0.3719072009
0.3719003979
0.3718941314
0.3718884309
0.371883313
0.3718788594
0.3718755244
0.3719505917
0.3719426618
0.3719335538
0.3719239339
0.3719143594
0.3719052294
0.3718967947
0.3718891844
0.3718824394
0.3718765422
0.3718714418
0.371867081
0.3718634514
0.3718608246
0.3719466736
0.3719371848
0.3719268306
0.3719163411
0.3719062449
0.3718968804
0.3718884314
0.3718809693
0.3718744883
0.3718689351
0.3718642299
0.3718602914
0.371857081
0.3718547963
0.371950592
0.3719426619
0.3719335536
0.3719239342
0.3719143596
0.3719052299
0.3718967953
0.3718891851
0.3718824397
0.3718765426
0.3718714423
0.3718670815
0.3718634521
0.3718608252
0.3719560691
0.3719509724
0.3719446629
0.3719374954
0.3719298553
0.3719220898
0.3719144731
0.3719072013
0.3719003982
0.3718941322
0.3718884318
0.3718833139
0.3718788601
0.3718755252
0.371959801
0.3719569233
0.3719530891
0.371948386
0.3719429763
0.3719370559
0.3719308254
0.3719244663
0.3719181325
0.3719119461
0.3719060037
0.3719003991
0.3718953104
0.371891381
0.371961488
0.3719596965
0.371957165
0.3719538604
0.3719498177
0.3719451259
0.3719399093
0.371934311
0.3719284745
0.3719225362
0.3719166218
0.3719108647
0.3719055012
0.3719012848
0.3719617421
0.3719598008
0.3719569234
0.3719530889
0.3719483857
0.3719429759
0.3719370559
0.3719308251
0.3719244659
0.3719181316
0.3719119454
0.3719060032
0.3719003983
0.3718953094
0.3718913803
0.3719559894
0.3719509252
0.3719447468
0.3719378253
0.3719305342
0.3719231885
0.3719160229
0.3719091944
0.3719027955
0.3718968719
0.3718914407
0.3718865153
0.3718821829
0.3718789089
0.3719463863
0.3719365249
0.3719258014
0.3719151249
0.3719051186
0.3718961231
0.3718882632
0.3718815224
0.3718758083
0.3718709952
0.371866953
0.371863569
0.3718607898
0.3718587913
0.3719292873
0.371912862
0.3718972376
0.3718835867
0.3718723202
0.3718633856
0.3718565054
0.3718513281
0.3718475084
0.3718447419
0.3718427777
0.3718414158
0.3718405053
0.371839963
0.3719131228
0.3718933404
0.3718765775
0.3718632783
0.3718531819
0.3718457745
0.3718405105
0.3718368996
0.3718345348
0.371833092
0.3718323193
0.3718320205
0.371832033
0.3718321827
0.3719292879
0.3719128621
0.3718972381
0.3718835874
0.3718723209
0.3718633862
0.3718565061
0.3718513289
0.3718475091
0.3718447426
0.3718427784
0.3718414167
0.371840506
0.3718399638
0.3719463866
0.3719365255
0.3719258018
0.3719151254
0.3719051193
0.3718961239
0.3718882639
0.3718815234
0.3718758094
0.3718709966
0.3718669542
0.3718635705
0.3718607909
0.3718587926
0.3719559901
0.3719509256
0.3719447469
0.3719378254
0.3719305345
0.371923189
0.3719160238
0.3719091954
0.3719027967
0.3718968731
0.3718914416
0.3718865165
0.3718821843
0.3718789106
0.3719598007
0.3719569231
0.3719530888
0.3719483859
0.371942976
0.371937056
0.3719308253
0.3719244663
0.3719181325
0.3719119462
0.3719060041
0.3719003996
0.3718953112
0.371891382
0.3719597304
0.371956069
0.3719509724
0.3719446625
0.3719374951
0.3719298554
0.37192209
0.3719144732
0.3719072008
0.3719003979
0.3718941319
0.3718884314
0.3718833133
0.3718788597
0.3718755246
0.3719543438
0.3719463865
0.3719365252
0.3719258016
0.3719151251
0.3719051187
0.3718961236
0.3718882631
0.3718815225
0.3718758086
0.3718709956
0.3718669534
0.3718635693
0.3718607902
0.3718587914
0.3719179649
0.3718971136
0.3718782238
0.3718627302
0.3718509319
0.371842492
0.371836812
0.3718332548
0.3718312525
0.3718303422
0.3718301677
0.3718304611
0.3718310068
0.3718315564
0.3718546292
0.3718193441
0.3717949914
0.3717806025
0.3717738321
0.3717723101
0.371774122
0.3717778793
0.3717826391
0.371787792
0.3717929566
0.3717978877
0.3718023527
0.3718057753
0.3717715132
0.3717363478
0.3717212328
0.3717185549
0.3717228694
0.3717307442
0.3717401442
0.3717499105
0.37175941
0.3717683192
0.3717764862
0.3717838365
0.3717902337
0.3717950211
0.3718546309
0.3718193455
0.3717949929
0.3717806044
0.3717738336
0.3717723117
0.3717741236
0.3717778807
0.3717826407
0.3717877935
0.3717929578
0.3717978889
0.371802354
0.3718057769
0.3719179662
0.3718971149
0.371878225
0.3718627314
0.3718509333
0.3718424939
0.3718368134
0.3718332565
0.3718312544
0.3718303442
0.3718301699
0.3718304632
0.3718310089
0.3718315584
0.3719463869
0.3719365252
0.3719258019
0.3719151253
0.3719051194
0.3718961243
0.3718882645
0.3718815238
0.37187581
0.3718709973
0.3718669551
0.3718635717
0.3718607922
0.3718587937
0.3719560691
0.3719509727
0.3719446628
0.3719374955
0.3719298558
0.3719220904
0.3719144738
0.3719072022
0.3719003993
0.3718941334
0.3718884329
0.3718833154
0.3718788619
0.3718755267
0.3719567048
0.3719505918
0.3719426619
0.3719335536
0.3719239342
0.3719143597
0.3719052301
0.3718967954
0.3718891849
0.3718824397
0.3718765426
0.3718714424
0.3718670813
0.371863452
0.3718608251
0.3719443874
0.3719292879
0.3719128626
0.3718972381
0.3718835875
0.3718723208
0.3718633863
0.3718565058
0.3718513288
0.3718475088
0.3718447422
0.371842778
0.3718414163
0.3718405056
0.3718399632
0.3718976543
0.3718546305
0.371819345
0.3717949922
0.3717806033
0.3717738328
0.3717723108
0.3717741226
0.3717778795
0.3717826393
0.3717877919
0.3717929566
0.3717978878
0.3718023531
0.3718057757
0.3716371276
0.3715925232
0.3715850349
0.3715976939
0.3716193715
0.3716437749
0.3716677089
0.3716897446
0.3717093875
0.3717265999
0.3717415412
0.3717544071
0.3717652214
0.3717731252
0.3712094799
0.3712649326
0.3713505019
0.3714326574
0.3715025209
0.3715595427
0.371605556
0.3716427346
0.3716729771
0.3716977884
0.3717183136
0.3717353718
0.3717493476
0.3717593969
0.3716371336
0.3715925274
0.3715850387
0.3715976971
0.3716193742
0.3716437774
0.3716677117
0.3716897473
0.3717093896
0.3717266017
0.3717415427
0.3717544088
0.3717652229
0.3717731268
0.3718546312
0.3718193463
0.3717949938
0.3717806054
0.3717738352
0.3717723135
0.3717741255
0.3717778824
0.3717826423
0.371787795
0.3717929592
0.3717978903
0.3718023553
0.371805778
0.3719292878
0.3719128626
0.3718972386
0.3718835881
0.371872322
0.3718633875
0.371856508
0.3718513306
0.371847511
0.3718447445
0.3718427809
0.3718414192
0.3718405085
0.3718399658
0.371950592
0.3719426621
0.3719335541
0.3719239348
0.3719143602
0.3719052308
0.3718967966
0.3718891865
0.3718824416
0.3718765447
0.3718714447
0.3718670842
0.3718634547
0.371860828
0.3719544301
0.3719466741
0.3719371852
0.3719268309
0.3719163416
0.3719062458
0.371896881
0.3718884324
0.37188097
0.3718744892
0.3718689357
0.3718642307
0.3718602922
0.3718570817
0.3718547971
0.3719339755
0.3719131238
0.3718933413
0.3718765785
0.3718632795
0.3718531828
0.3718457754
0.3718405114
0.3718369004
0.3718345355
0.3718330927
0.3718323199
0.3718320211
0.3718320335
0.3718321831
0.371833896
0.3717715149
0.3717363495
0.3717212342
0.371718556
0.3717228702
0.371730745
0.3717401451
0.3717499114
0.3717594109
0.3717683196
0.3717764867
0.3717838372
0.3717902339
0.3717950214
0.371285914
0.3712094853
0.3712649359
0.3713505044
0.3714326587
0.3715025219
0.3715595433
0.3716055566
0.3716427351
0.3716729772
0.3716977889
0.3717183138
0.3717353718
0.3717493476
0.3717593969
0.3693660903
0.3703026446
0.3708216985
0.371125749
0.371314149
0.3714374237
0.3715222457
0.3715832583
0.3716288311
0.3716639446
0.3716916733
0.3717139379
0.3717317313
0.3717443264
0.3712094824
0.3712649391
0.3713505085
0.3714326634
0.371502526
0.371559547
0.3716055597
0.3716427379
0.3716729799
0.3716977912
0.3717183161
0.3717353743
0.3717493496
0.3717593989
0.3717715138
0.3717363504
0.3717212362
0.3717185594
0.3717228739
0.3717307488
0.3717401488
0.3717499147
0.3717594141
0.371768323
0.37177649
0.3717838405
0.3717902376
0.3717950249
0.3719131229
0.3718933411
0.3718765791
0.3718632808
0.3718531845
0.3718457772
0.3718405136
0.3718369029
0.3718345383
0.3718330958
0.3718323231
0.3718320242
0.3718320366
0.3718321864
0.3719466737
0.3719371851
0.3719268312
0.3719163422
0.3719062463
0.3718968821
0.3718884334
0.3718809717
0.3718744915
0.3718689381
0.3718642335
0.3718602951
0.3718570849
0.3718548003
0.371956705
0.3719505923
0.3719426624
0.3719335543
0.3719239351
0.3719143604
0.3719052306
0.3718967961
0.3718891855
0.3718824404
0.371876543
0.3718714432
0.3718670822
0.371863453
0.3718608263
0.371944388
0.3719292885
0.3719128631
0.3718972389
0.3718835885
0.3718723218
0.3718633871
0.3718565071
0.3718513298
0.37184751
0.3718447436
0.3718427794
0.3718414178
0.371840507
0.3718399647
0.3718976566
0.3718546329
0.3718193475
0.3717949944
0.3717806059
0.3717738351
0.3717723129
0.3717741245
0.3717778817
0.3717826414
0.3717877943
0.3717929586
0.3717978898
0.3718023547
0.3718057772
0.3717369944
0.3716371383
0.3715925317
0.3715850419
0.3715976998
0.3716193764
0.3716437791
0.371667713
0.3716897483
0.3717093905
0.3717266025
0.3717415437
0.3717544094
0.3717652235
0.3717731272
0.3712859156
0.371209488
0.3712649427
0.3713505114
0.3714326656
0.3715025279
0.3715595482
0.3716055609
0.3716427386
0.3716729808
0.3716977918
0.3717183168
0.3717353745
0.37174935
0.3717593992
0.3717369929
0.3716371384
0.3715925329
0.3715850444
0.3715977028
0.3716193794
0.3716437822
0.3716677156
0.371689751
0.3717093935
0.3717266053
0.3717415459
0.3717544114
0.3717652254
0.3717731293
0.3718546301
0.3718193473
0.3717949957
0.3717806078
0.371773838
0.3717723162
0.3717741278
0.3717778848
0.3717826445
0.3717877972
0.3717929617
0.3717978929
0.3718023575
0.3718057805
0.3719292876
0.3719128629
0.3718972391
0.3718835889
0.3718723231
0.3718633889
0.3718565092
0.3718513322
0.3718475123
0.3718447461
0.3718427824
0.3718414206
0.37184051
0.3718399678
0.3719505917
0.3719426619
0.371933554
0.3719239347
0.3719143606
0.3719052314
0.3718967973
0.3718891874
0.3718824427
0.3718765457
0.3718714457
0.3718670851
0.3718634557
0.3718608293
0.3719597309
0.3719560696
0.3719509729
0.3719446629
0.3719374958
0.3719298562
0.3719220906
0.371914474
0.3719072023
0.3719003994
0.3718941333
0.3718884325
0.3718833148
0.3718788613
0.3718755258
0.3719543444
0.3719463876
0.3719365261
0.3719258025
0.3719151258
0.3719051197
0.3718961247
0.3718882644
0.371881524
0.3718758098
0.3718709973
0.3718669551
0.3718635714
0.3718607919
0.3718587933
0.3719378308
0.3719179672
0.3718971159
0.3718782262
0.3718627326
0.3718509345
0.3718424947
0.3718368148
0.3718332576
0.3718312554
0.3718303452
0.3718301705
0.3718304636
0.3718310096
0.371831559
0.3718976567
0.3718546332
0.3718193482
0.3717949963
0.3717806075
0.3717738371
0.371772315
0.3717741268
0.3717778837
0.3717826431
0.3717877958
0.3717929603
0.3717978914
0.3718023564
0.3718057792
0.3718338968
0.371771517
0.3717363532
0.3717212388
0.3717185613
0.3717228756
0.3717307501
0.3717401498
0.3717499156
0.371759415
0.3717683237
0.3717764907
0.371783841
0.3717902381
0.3717950255
0.3718976567
0.3718546337
0.3718193494
0.3717949974
0.371780609
0.3717738386
0.3717723167
0.3717741284
0.3717778853
0.3717826449
0.3717877977
0.3717929621
0.3717978928
0.3718023579
0.3718057802
0.3719378301
0.3719179668
0.3718971161
0.3718782267
0.3718627338
0.3718509362
0.3718424965
0.3718368166
0.3718332599
0.3718312577
0.3718303474
0.3718301729
0.3718304661
0.3718310119
0.3718315613
0.3719463868
0.3719365256
0.3719258027
0.3719151265
0.3719051208
0.3718961261
0.3718882662
0.371881526
0.3718758125
0.3718709997
0.3718669579
0.371863574
0.3718607946
0.3718587961
0.371956069
0.3719509723
0.3719446629
0.3719374957
0.3719298564
0.3719220913
0.3719144752
0.3719072035
0.3719004008
0.3718941349
0.3718884348
0.371883317
0.3718788639
0.3718755289
0.3719617423
0.3719598014
0.3719569239
0.3719530895
0.3719483864
0.3719429767
0.3719370564
0.3719308259
0.3719244668
0.371918133
0.3719119467
0.3719060047
0.3719004
0.3718953113
0.371891382
0.3719596771
0.3719559904
0.3719509263
0.371944748
0.3719378264
0.3719305353
0.3719231896
0.3719160242
0.371909196
0.3719027972
0.3718968739
0.3718914424
0.3718865171
0.371882185
0.3718789112
0.3719543442
0.3719463875
0.3719365263
0.3719258028
0.3719151266
0.3719051205
0.3718961253
0.3718882656
0.3718815248
0.3718758112
0.371870998
0.371866956
0.3718635722
0.3718607927
0.3718587943
0.3719443877
0.3719292885
0.3719128637
0.3718972398
0.3718835895
0.3718723232
0.3718633888
0.371856509
0.3718513318
0.3718475121
0.3718447456
0.3718427817
0.3718414199
0.3718405093
0.3718399672
0.3719339759
0.3719131246
0.3718933427
0.3718765807
0.3718632822
0.3718531855
0.3718457786
0.3718405145
0.3718369039
0.3718345389
0.3718330964
0.3718323237
0.3718320248
0.3718320375
0.3718321873
0.3719443881
0.3719292888
0.371912864
0.3718972406
0.3718835902
0.3718723239
0.3718633898
0.37185651
0.3718513329
0.3718475134
0.3718447469
0.3718427827
0.3718414212
0.3718405105
0.3718399678
0.3719543443
0.3719463875
0.3719365261
0.3719258031
0.3719151269
0.3719051212
0.3718961261
0.3718882665
0.3718815264
0.3718758126
0.3718709998
0.3718669578
0.371863574
0.3718607948
0.3718587961
0.3719596769
0.3719559902
0.3719509259
0.3719447475
0.3719378262
0.3719305353
0.3719231904
0.3719160254
0.3719091972
0.3719027987
0.3718968755
0.3718914442
0.3718865194
0.371882187
0.3718789136
0.3719598008
0.3719569236
0.3719530895
0.3719483863
0.3719429767
0.3719370568
0.3719308265
0.3719244676
0.371918134
0.3719119483
0.3719060063
0.3719004015
0.3718953134
0.3718913842
0.3719626393
0.3719614883
0.3719596969
0.3719571651
0.371953861
0.371949818
0.3719451263
0.3719399101
0.3719343116
0.3719284751
0.3719225371
0.3719166222
0.3719108654
0.3719055017
0.3719012854
0.3719617421
0.3719598011
0.3719569239
0.3719530895
0.3719483866
0.3719429769
0.3719370566
0.371930826
0.3719244668
0.3719181327
0.3719119466
0.3719060048
0.3719004004
0.3718953117
0.3718913827
0.3719597309
0.3719560694
0.3719509731
0.3719446632
0.371937496
0.3719298568
0.3719220913
0.3719144747
0.371907203
0.3719004001
0.371894134
0.3718884339
0.371883316
0.3718788626
0.3718755272
0.3719567049
0.3719505924
0.3719426631
0.3719335551
0.3719239359
0.3719143616
0.3719052322
0.3718967978
0.3718891877
0.3718824429
0.3718765456
0.3718714457
0.371867085
0.3718634556
0.3718608288
0.3719544303
0.3719466746
0.3719371864
0.3719268321
0.3719163432
0.3719062475
0.3718968833
0.3718884351
0.3718809729
0.3718744924
0.371868939
0.3718642344
0.3718602959
0.3718570857
0.3718548016
0.371956705
0.3719505925
0.3719426628
0.3719335551
0.3719239359
0.3719143618
0.3719052322
0.3718967983
0.3718891883
0.3718824433
0.3718765462
0.3718714465
0.3718670858
0.3718634565
0.3718608299
0.3719597311
0.3719560696
0.3719509729
0.3719446633
0.3719374962
0.371929857
0.3719220916
0.3719144755
0.3719072041
0.3719004011
0.3718941351
0.3718884348
0.3718833173
0.3718788642
0.3718755291
0.3719617423
0.3719598012
0.3719569238
0.3719530893
0.3719483865
0.3719429769
0.3719370568
0.3719308266
0.371924468
0.3719181343
0.3719119483
0.3719060064
0.371900402
0.3718953135
0.3718913845
0.3719626392
0.3719614881
0.3719596967
0.3719571653
0.3719538609
0.3719498184
0.3719451264
0.3719399104
0.3719343123
0.3719284761
0.3719225381
0.3719166237
0.3719108671
0.3719055037
0.3719012873
)
;

boundaryField
{
    top
    {
        type            zeroGradient;
    }
    bottom
    {
        type            zeroGradient;
    }
    side-walls
    {
        type            zeroGradient;
    }
    inlet
    {
        type            zeroGradient;
    }
    outlet
    {
        type            zeroGradient;
    }
    procBoundary1to0
    {
        type            processor;
        value           nonuniform List<scalar> 
97
(
0.371962639
0.371962639
0.371961742
0.3719597308
0.371956705
0.3719544308
0.371956705
0.3719597308
0.3719617418
0.3719626389
0.371962888
0.3719596766
0.3719596766
0.3719596766
0.371954344
0.3719443883
0.3719339767
0.3719443885
0.3719543444
0.3719596771
0.371961742
0.3719619784
0.3719596183
0.3719378298
0.3719378298
0.3719378298
0.3718976572
0.3718339013
0.371897659
0.3719378315
0.3719543444
0.3719597308
0.371960643
0.3719554501
0.3719372525
0.3717369907
0.3717369907
0.3717369907
0.371285949
0.3717370027
0.371897659
0.3719443887
0.371956705
0.3719596879
0.3719515093
0.3719169929
0.3717800669
0.3675813628
0.3675813628
0.3675813628
0.37128595
0.37128595
0.3718339013
0.3719339769
0.3719544304
0.3719606433
0.3719554501
0.3719372525
0.3718842474
0.3717800656
0.3718842485
0.3718976552
0.3718976552
0.3718976552
0.3719443883
0.3719567051
0.3719619788
0.3719596183
0.37195269
0.3719372524
0.3719169928
0.3719372524
0.3719526903
0.371954344
0.371954344
0.371954344
0.3719597308
0.3719628885
0.3719619597
0.3719596182
0.3719554501
0.3719515096
0.3719554497
0.371959618
0.3719619593
0.3719617419
0.3719617419
0.3719617419
0.3719632999
0.3719628883
0.3719619785
0.3719606434
0.3719596881
0.3719606432
0.3719619787
0.3719628884
0.3719632996
)
;
    }
}


// ************************************************************************* //
