/*--------------------------------*- C++ -*----------------------------------*\
| =========                 |                                                 |
| \\      /  F ield         | OpenFOAM: The Open Source CFD Toolbox           |
|  \\    /   O peration     | Version:  4.x                                   |
|   \\  /    A nd           | Web:      www.OpenFOAM.org                      |
|    \\/     M anipulation  |                                                 |
\*---------------------------------------------------------------------------*/
FoamFile
{
    version     2.0;
    format      ascii;
    class       volScalarField;
    location    "8000";
    object      CO2;
}
// * * * * * * * * * * * * * * * * * * * * * * * * * * * * * * * * * * * * * //

dimensions      [0 0 0 0 0 0 0];

internalField   nonuniform List<scalar> 
1174
(
0.006509819341
0.006512135658
0.00651540911
0.006519682652
0.006524910643
0.006530977884
0.006537723935
0.006544965203
0.0065525134
0.006560193772
0.006567843801
0.006575289581
0.006582226956
0.006587680444
0.006512000899
0.00651572164
0.006520680192
0.006526762018
0.006533757623
0.006541413395
0.006549472111
0.006557695908
0.00656588755
0.006573888375
0.006581573776
0.006588823945
0.006595406063
0.006600487825
0.006516826626
0.006523416677
0.006531576045
0.006540845161
0.006550724698
0.006560767633
0.006570617419
0.006580021838
0.006588820153
0.006596925222
0.006604297889
0.006610917696
0.006616678585
0.006620991988
0.006523909191
0.006534163119
0.006545940592
0.006558380894
0.006570762143
0.006582569354
0.006593477508
0.006603319578
0.006612043017
0.006619670104
0.006626267476
0.006631908388
0.006636603942
0.006640002174
0.006528975522
0.006541245385
0.006554634431
0.006568198775
0.006581255138
0.006593365265
0.00660429179
0.006613942584
0.006622324815
0.006629507112
0.006635593763
0.00664068844
0.00664484159
0.006647797678
0.006523908523
0.006534162908
0.006545941208
0.00655838032
0.00657076183
0.006582568181
0.006593476264
0.006603318103
0.006612042291
0.006619669221
0.00662626634
0.006631907265
0.00663660251
0.006640000541
0.006516826283
0.006523416883
0.00653157559
0.006540844213
0.006550724537
0.006560766948
0.006570617226
0.006580021094
0.006588819538
0.006596923193
0.006604295884
0.006610915737
0.006616676919
0.006620990303
0.006512000125
0.00651572178
0.006520679787
0.00652676169
0.006533757034
0.006541413625
0.006549470993
0.00655769483
0.006565885812
0.006573886885
0.006581572684
0.006588821307
0.006595403079
0.00660048575
0.006509818721
0.00651213554
0.006515409119
0.006519682615
0.006524910831
0.006530977981
0.006537724432
0.006544964266
0.006552512197
0.006560192037
0.006567840916
0.006575286809
0.006582223376
0.006587676944
0.006509489902
0.006512000653
0.006515721431
0.006520680189
0.006526762427
0.00653375795
0.006541413493
0.006549471436
0.006557695797
0.006565888068
0.006573888567
0.006581573716
0.006588823118
0.006595405491
0.006600487365
0.006516929835
0.006523478388
0.006531467399
0.006540417884
0.006549846501
0.006559346246
0.006568613235
0.006577444262
0.006585719936
0.006593381211
0.006600405637
0.00660677673
0.006612380416
0.006616615805
0.0065293472
0.006542098904
0.006555965511
0.006569771329
0.006582711231
0.006594344543
0.006604509214
0.006613227279
0.006620618033
0.006626843753
0.006632072555
0.006636450382
0.006640045754
0.00664263139
0.006551457227
0.006572695823
0.006592899959
0.006610552398
0.006625121809
0.006636676311
0.006645575044
0.006652271784
0.006657212549
0.006660792267
0.006663334412
0.006665097884
0.006666277306
0.006666979857
0.006572357522
0.006597937287
0.006619613641
0.006636811746
0.006649868121
0.0066594483
0.006666257088
0.006670928426
0.006673988503
0.00667585675
0.006676858008
0.006677246562
0.006677232664
0.006677040472
0.006551455971
0.006572695982
0.006592898978
0.006610550911
0.006625120558
0.006636675223
0.006645573438
0.006652269912
0.006657211301
0.006660790557
0.006663332798
0.006665095886
0.006666275802
0.006666977805
0.006529346813
0.006542097538
0.006555964709
0.006569770469
0.006582709813
0.006594342936
0.006604507851
0.006613225138
0.006620615334
0.006626840352
0.006632069914
0.006636446797
0.006640043254
0.006642628189
0.006516928231
0.00652347747
0.006531467251
0.006540417708
0.006549846117
0.006559345243
0.006568611169
0.00657744191
0.006585717071
0.006593378596
0.006600403773
0.006606773833
0.006612377209
0.006616611628
0.006512000862
0.006515722405
0.006520680746
0.006526761993
0.006533757787
0.006541413299
0.006549471133
0.006557694705
0.006565886079
0.006573886588
0.006581571588
0.006588820148
0.006595400966
0.006600483201
0.006512091878
0.006516826538
0.006523416898
0.006531576581
0.006540844994
0.006550724412
0.006560766437
0.006570616658
0.006580022368
0.006588820326
0.006596924007
0.006604296809
0.006610917018
0.006616677902
0.006620991507
0.006519057417
0.006529346885
0.0065420983
0.006555965202
0.006569770972
0.006582711134
0.006594343624
0.006604509658
0.006613227273
0.006620617207
0.006626842658
0.006632071595
0.00663644979
0.006640045072
0.006642631115
0.006566098207
0.006593059916
0.006617485875
0.006637520933
0.006652778383
0.006663693308
0.006671039856
0.006675642078
0.006678233261
0.006679412745
0.00667964068
0.006679263466
0.006678559932
0.006677850645
0.006647992294
0.006693616728
0.006725106733
0.006743714517
0.006752471278
0.006754442181
0.006752102073
0.006747246319
0.00674109461
0.006734434181
0.006727758386
0.006721385084
0.006715613794
0.006711189759
0.006755457194
0.006800928064
0.006820474648
0.006823940817
0.006818365637
0.006808187036
0.006796036001
0.006783411144
0.006771131278
0.006759613609
0.006749056115
0.006739554739
0.006731284716
0.006725096205
0.006647989098
0.006693614285
0.006725103911
0.006743710412
0.0067524683
0.00675443869
0.006752098489
0.006747243396
0.006741090941
0.006734430657
0.006727755838
0.006721382271
0.006715610578
0.006711186005
0.006566095681
0.006593057281
0.006617483333
0.006637518478
0.006652775205
0.00666368902
0.006671036748
0.006675638214
0.006678228888
0.006679407975
0.006679635497
0.006679258364
0.006678555017
0.006677845913
0.00652934597
0.006542098469
0.006555964606
0.006569770777
0.006582709708
0.006594341927
0.006604506456
0.006613224252
0.006620614103
0.006626838712
0.006632067664
0.006636444051
0.006640040179
0.006642625707
0.006516826334
0.006523416299
0.006531575915
0.006540844141
0.006550723518
0.006560765582
0.006570615635
0.006580019069
0.006588816904
0.006596920436
0.006604293199
0.006610912118
0.00661667274
0.006620986562
0.006516004016
0.006523908975
0.006534162842
0.00654594117
0.00655838022
0.006570761525
0.006582567745
0.006593475928
0.006603318472
0.006612042442
0.006619669335
0.006626266299
0.006631907823
0.006636602769
0.0066400008
0.006531931403
0.006551455612
0.00657269448
0.006592898814
0.006610550568
0.00662512049
0.006636674789
0.006645574102
0.00665227013
0.006657211939
0.006660791524
0.006663333752
0.006665096859
0.006666276629
0.006666979332
0.00659235943
0.006647989222
0.006693614654
0.006725105039
0.006743712605
0.006752469724
0.006754440535
0.006752100793
0.006747246136
0.006741094221
0.006734434776
0.006727758475
0.006721384671
0.00671561289
0.006711188904
0.006929219224
0.006986893032
0.006996578965
0.006980215452
0.00695219033
0.006920640839
0.006889698065
0.006861209338
0.006835813591
0.00681356052
0.006794243605
0.00677760992
0.006763628646
0.006753410533
0.007482138399
0.007410448743
0.007299819051
0.007193601798
0.007103275769
0.007029552066
0.006970061648
0.006921993571
0.006882892951
0.006850814768
0.006824278245
0.00680222359
0.006784154646
0.006771162091
0.006929207945
0.006986885304
0.006996571538
0.006980208755
0.006952184639
0.00692063541
0.006889691586
0.006861203077
0.006835808808
0.006813556012
0.006794240077
0.006777605676
0.006763624996
0.006753406439
0.006647988151
0.006693612192
0.006725102051
0.006743708263
0.006752464432
0.006754434553
0.006752094025
0.006747239467
0.006741087219
0.006734427348
0.006727752399
0.006721378959
0.006715607592
0.006711183391
0.006551456299
0.006572694802
0.006592897994
0.006610549446
0.006625117983
0.006636672317
0.006645568983
0.006652266013
0.006657206866
0.006660786129
0.006663326866
0.00666508991
0.006666269639
0.006666973138
0.006523908602
0.006534162652
0.006545940175
0.006558378915
0.006570760588
0.006582566321
0.006593473164
0.006603314967
0.006612037824
0.00661966443
0.006626260775
0.006631900886
0.006636596277
0.006639993958
0.006518945528
0.006528974135
0.006541244527
0.006554633768
0.006568197766
0.006581253074
0.006593363877
0.006604289497
0.00661394106
0.006622322837
0.00662950588
0.006635591829
0.006640686727
0.0066448402
0.006647795882
0.006545393851
0.006572355247
0.006597935135
0.006619611476
0.006636809075
0.006649866271
0.006659446364
0.006666255116
0.006670926597
0.006673987225
0.006675855134
0.006676856836
0.006677245304
0.006677231472
0.006677039719
0.006674794715
0.006755452939
0.006800924279
0.006820471815
0.006823938611
0.006818363964
0.006808185466
0.006796034257
0.006783409163
0.006771129241
0.006759612729
0.00674905496
0.006739553079
0.0067312844
0.006725095508
0.007383305009
0.007482126816
0.007410441708
0.007299813397
0.007193598691
0.007103273409
0.007029550524
0.006970060069
0.006921992265
0.006882892535
0.006850813501
0.006824277684
0.006802223732
0.006784154613
0.006771162006
0.009865499984
0.008654617035
0.007983525863
0.007590415089
0.007346830089
0.00718744675
0.00707777906
0.006998895088
0.006939973524
0.006894574755
0.006858723937
0.00682993832
0.006806933255
0.006790649009
0.007482134953
0.007410436542
0.007299805208
0.007193588294
0.007103263803
0.007029541838
0.006970052567
0.006921985478
0.006882886011
0.006850807931
0.006824271916
0.006802217356
0.006784149626
0.006771157055
0.006755456365
0.006800923103
0.006820467732
0.00682393108
0.006818355547
0.006808176653
0.006796025604
0.006783401311
0.006771121586
0.006759604806
0.006749047031
0.006739545246
0.006731275568
0.00672508685
0.006572357481
0.006597935736
0.00661960997
0.006636806019
0.006649862164
0.006659441971
0.006666249848
0.006670920678
0.006673980327
0.006675847638
0.006676848965
0.006677237803
0.006677223988
0.006677031497
0.006528975161
0.00654124471
0.006554632959
0.006568196077
0.006581251726
0.006593361223
0.006604287128
0.006613936916
0.006622317257
0.006629499967
0.006635584985
0.006640679433
0.006644832288
0.006647787916
0.006516003512
0.006523907855
0.006534161862
0.006545939592
0.006558378092
0.006570760071
0.006582566635
0.006593474485
0.006603317242
0.00661204081
0.006619668491
0.006626264427
0.006631905809
0.006636600311
0.006639998219
0.00653193029
0.006551454423
0.006572693757
0.006592897338
0.006610548556
0.006625118635
0.006636673414
0.006645571371
0.006652267969
0.006657209086
0.006660788265
0.006663330543
0.006665093196
0.006666273299
0.006666975885
0.006592354682
0.00664798419
0.006693609626
0.006725100647
0.006743707324
0.006752464822
0.006754436051
0.006752096646
0.00674724104
0.006741089642
0.006734428943
0.006727754022
0.006721380272
0.006715609259
0.006711185582
0.006800086146
0.006929197364
0.006986875746
0.006996564522
0.00698020287
0.006952179792
0.006920631498
0.00688968866
0.006861200902
0.00683580665
0.006813554379
0.00679423766
0.006777604427
0.006763623779
0.006753405755
0.007383301669
0.007482121241
0.007410428084
0.007299798503
0.007193583234
0.007103259485
0.007029539337
0.006970050032
0.006921983982
0.006882884045
0.006850806636
0.006824270484
0.006802217284
0.006784148843
0.006771156578
0.006800089231
0.006929197445
0.006986873222
0.006996558593
0.006980195844
0.006952172534
0.006920624252
0.006889682558
0.006861194326
0.006835799392
0.006813547432
0.006794232304
0.006777599489
0.00676361894
0.006753400517
0.006647990524
0.006693609996
0.006725097576
0.006743702657
0.006752457867
0.006754428088
0.006752088634
0.006747233656
0.006741082174
0.006734421999
0.006727746466
0.006721372593
0.006715602427
0.006711177465
0.006551456447
0.006572693822
0.006592896449
0.006610547388
0.006625115199
0.006636668818
0.006645566191
0.006652262127
0.006657203506
0.006660782307
0.006663323112
0.006665086542
0.006666266137
0.006666968336
0.006523909124
0.006534163056
0.006545940345
0.006558379126
0.006570759309
0.006582564716
0.006593471484
0.006603312511
0.006612035108
0.006619661939
0.006626258337
0.006631898607
0.006636593935
0.006639990843
0.006512090741
0.006516825032
0.006523415708
0.006531575553
0.006540843418
0.006550722447
0.006560765245
0.006570615019
0.006580018675
0.006588816712
0.0065969208
0.006604294351
0.006610913715
0.006616674304
0.006620989053
0.006519055861
0.006529344354
0.006542096356
0.006555963095
0.006569769586
0.006582709113
0.006594341283
0.006604506758
0.00661322395
0.006620614736
0.00662683879
0.006632067804
0.006636444778
0.006640041211
0.00664262685
0.006540409042
0.006566093484
0.006593054988
0.006617480615
0.00663751582
0.006652772609
0.006663687301
0.00667103363
0.006675635668
0.006678226848
0.006679405851
0.006679634283
0.006679257863
0.006678553445
0.006677844784
0.006592354385
0.00664798368
0.00669360832
0.00672509639
0.006743703586
0.006752460298
0.006754431236
0.006752091377
0.006747236607
0.00674108567
0.006734425697
0.006727750056
0.00672137653
0.006715605244
0.006711180707
0.00667479343
0.006755449193
0.006800917033
0.006820461894
0.006823926984
0.006818351789
0.006808173603
0.006796023414
0.006783399368
0.006771119716
0.006759603258
0.00674904555
0.006739544082
0.006731274386
0.006725085689
0.006592354588
0.006647982592
0.006693605483
0.00672509363
0.006743700039
0.006752456796
0.006754427051
0.00675208731
0.006747232633
0.006741081171
0.006734420803
0.006727745685
0.006721373019
0.006715601397
0.006711178276
0.006540410522
0.00656609411
0.006593054422
0.006617479309
0.006637512681
0.00665276852
0.00666368282
0.006671029287
0.006675630044
0.006678221028
0.006679400441
0.006679628446
0.006679251598
0.006678547888
0.006677839215
0.006529346136
0.006542097263
0.006555962519
0.006569767859
0.006582706223
0.006594337812
0.006604502472
0.006613218912
0.006620608011
0.006626832939
0.006632060982
0.006636438575
0.006640034505
0.006642620119
0.006516826507
0.006523417097
0.0065315756
0.006540843627
0.006550722029
0.006560763466
0.006570612216
0.006580015697
0.006588813387
0.006596916771
0.006604288768
0.006610908353
0.006616667924
0.006620981348
0.006509489554
0.006511999276
0.006515720318
0.006520678835
0.006526760724
0.006533756169
0.006541412614
0.006549469702
0.00655769363
0.006565884861
0.006573885585
0.006581570388
0.00658881929
0.006595401226
0.00660048352
0.006512160187
0.00651692751
0.006523475716
0.006531464753
0.006540415373
0.006549844267
0.006559343944
0.00656861035
0.006577440603
0.006585716138
0.006593376823
0.006600402083
0.00660677286
0.006612375872
0.006616610535
0.006519056479
0.006529344662
0.006542095793
0.00655596257
0.006569767907
0.006582707192
0.00659433993
0.006604504005
0.006613221971
0.006620611296
0.006626837389
0.006632065699
0.006636443239
0.006640039355
0.006642624633
0.006531930889
0.006551454543
0.006572692226
0.006592895173
0.006610546255
0.006625115399
0.006636669286
0.006645566982
0.006652263308
0.006657204249
0.006660783851
0.006663325167
0.006665088359
0.006666267963
0.006666970046
0.00654539305
0.006572353569
0.006597932257
0.006619606453
0.00663680305
0.006649860084
0.00665943906
0.006666248009
0.006670918763
0.006673979224
0.006675846639
0.006676847912
0.006677236797
0.006677222212
0.00667702965
0.006531930123
0.006551453885
0.00657269173
0.006592893251
0.006610544792
0.006625113873
0.006636667165
0.006645564633
0.006652260802
0.006657201111
0.006660780662
0.006663322774
0.006665085274
0.006666264942
0.006666968655
0.006519056082
0.00652934463
0.006542096357
0.006555961924
0.006569767108
0.006582705605
0.006594337935
0.006604501902
0.006613218188
0.006620607968
0.006626832778
0.006632061489
0.006636438692
0.006640034014
0.006642620088
0.006512160655
0.006516927939
0.00652347677
0.006531465989
0.006540415876
0.006549844152
0.006559341848
0.006568607403
0.006577437586
0.006585712471
0.006593372954
0.006600397664
0.006606767156
0.006612370873
0.006616604496
0.006512000628
0.006515720946
0.006520678853
0.006526761047
0.006533756285
0.006541411503
0.0065494684
0.006557691726
0.006565882529
0.006573881572
0.006581566577
0.006588815613
0.006595396052
0.006600477956
0.006508329614
0.006509818109
0.006512134715
0.006515408816
0.006519681379
0.006524910127
0.006530977222
0.006537722816
0.006544962974
0.006552511052
0.006560190136
0.006567840222
0.00657528531
0.006582222554
0.006587675674
0.006509490118
0.00651199987
0.006515720388
0.006520679049
0.006526760478
0.006533755899
0.006541412144
0.006549469574
0.006557694019
0.006565885798
0.006573886018
0.006581570318
0.006588818375
0.006595400165
0.006600481895
0.006512090856
0.006516825378
0.006523415335
0.006531575063
0.006540842966
0.00655072127
0.006560763605
0.006570613621
0.006580017331
0.006588815297
0.006596919244
0.006604291142
0.006610910945
0.00661667138
0.006620985842
0.006516003767
0.006523907576
0.006534160325
0.006545937858
0.006558376405
0.006570757246
0.006582563067
0.006593470629
0.006603312315
0.006612035215
0.006619662718
0.006626258856
0.006631899339
0.00663659431
0.006639992316
0.006518944888
0.006528973117
0.006541241803
0.006554631114
0.00656819396
0.006581249368
0.006593358609
0.006604283543
0.006613934322
0.006622315503
0.006629498398
0.006635583347
0.006640678024
0.006644830821
0.006647785128
0.006516003655
0.006523907323
0.006534161025
0.006545937912
0.00655837639
0.006570756868
0.006582562991
0.006593469345
0.006603310729
0.006612034056
0.006619660962
0.006626256653
0.006631897183
0.006636592032
0.006639989676
0.006512090196
0.006516824839
0.006523415882
0.006531574799
0.006540842454
0.006550720524
0.006560762707
0.006570611408
0.00658001458
0.006588812711
0.006596916583
0.006604288882
0.006610907838
0.006616667169
0.006620980962
0.00650948947
0.006511999677
0.006515720592
0.006520679383
0.006526760584
0.006533755797
0.006541411592
0.006549468197
0.006557690868
0.006565881812
0.00657388164
0.006581566195
0.006588814328
0.006595395869
0.006600477241
0.00650833001
0.006509818559
0.006512135023
0.006515408222
0.006519681479
0.006524909199
0.006530976878
0.006537721997
0.006544961002
0.006552508588
0.00656018744
0.006567836484
0.006575281224
0.006582217538
0.006587671006
)
;

boundaryField
{
    top
    {
        type            zeroGradient;
    }
    bottom
    {
        type            zeroGradient;
    }
    side-walls
    {
        type            zeroGradient;
    }
    inlet
    {
        type            zeroGradient;
    }
    outlet
    {
        type            zeroGradient;
    }
    procBoundary1to0
    {
        type            processor;
        value           nonuniform List<scalar> 
97
(
0.006508330348
0.006508330348
0.006509490339
0.006512090859
0.006516003568
0.006518943635
0.006516003683
0.006512090954
0.00650949076
0.00650833061
0.006508008622
0.006512161344
0.006512161344
0.006512161344
0.006519056769
0.006531929329
0.006545390984
0.006531929099
0.006519055859
0.006512160236
0.00650949024
0.006509184619
0.006512236307
0.0065404113
0.0065404113
0.0065404113
0.006592352681
0.006674781876
0.006592349027
0.006540407391
0.006519055883
0.006512091069
0.006510911811
0.006517625949
0.006541155877
0.006800090939
0.006800090939
0.006800090939
0.007383215363
0.006800065668
0.006592348812
0.006531928563
0.006516003711
0.006512146697
0.006522721766
0.006567351195
0.006744387633
0.01217263212
0.01217263212
0.01217263212
0.007383215825
0.007383215825
0.006674781982
0.00654539044
0.006518944653
0.006510910942
0.006517625972
0.006541156241
0.006609691579
0.006744391105
0.006609688549
0.006592357567
0.006592357567
0.006592357567
0.006531929292
0.006516003232
0.00650918357
0.006512236161
0.006521195515
0.006541156415
0.006567351695
0.006541156501
0.006521194698
0.006519056797
0.006519056797
0.006519056797
0.006512090968
0.006508007237
0.006509208162
0.006512236443
0.006517626065
0.006522721021
0.00651762709
0.006512237
0.006509209026
0.0065094904
0.0065094904
0.0065094904
0.006507475114
0.006508007924
0.006509184482
0.006510910593
0.006512146056
0.006510911268
0.006509183931
0.006508007523
0.006507475794
)
;
    }
}


// ************************************************************************* //
