/*--------------------------------*- C++ -*----------------------------------*\
| =========                 |                                                 |
| \\      /  F ield         | OpenFOAM: The Open Source CFD Toolbox           |
|  \\    /   O peration     | Version:  4.x                                   |
|   \\  /    A nd           | Web:      www.OpenFOAM.org                      |
|    \\/     M anipulation  |                                                 |
\*---------------------------------------------------------------------------*/
FoamFile
{
    version     2.0;
    format      ascii;
    class       volScalarField;
    location    "8000";
    object      molarConc;
}
// * * * * * * * * * * * * * * * * * * * * * * * * * * * * * * * * * * * * * //

dimensions      [0 -3 0 0 1 0 0];

internalField   nonuniform List<scalar> 
1174
(
9.963271977
9.963271658
9.96327256
9.963272343
9.96327148
9.963270427
9.963271792
9.963272964
9.963272705
9.9632723
9.963271931
9.96327239
9.963272326
9.963271531
9.963306051
9.963306693
9.963306134
9.963307087
9.963305913
9.963304787
9.963305795
9.963305448
9.963304751
9.963304212
9.963304701
9.963305506
9.963305145
9.96330419
9.963284992
9.963284293
9.963284877
9.96328518
9.963285476
9.963285228
9.96328533
9.963285071
9.963284683
9.963284816
9.963285435
9.963286048
9.963285625
9.963285691
9.963288024
9.963287458
9.963287229
9.963287086
9.963287093
9.963286194
9.963286376
9.963285172
9.963284213
9.963283048
9.963283172
9.963282523
9.963283499
9.963284006
9.963265116
9.963265518
9.963265828
9.963265791
9.963266124
9.963265787
9.963265926
9.963265982
9.963264298
9.963264858
9.963264722
9.963263782
9.963263974
9.963264688
9.963262372
9.963262089
9.963262023
9.963261491
9.963262146
9.963263059
9.963263161
9.963262654
9.963262357
9.963262982
9.963262583
9.963262331
9.963260629
9.963260787
9.963296651
9.963296107
9.963296059
9.963296546
9.963296478
9.963296918
9.963296763
9.963297868
9.963298271
9.963297841
9.963297178
9.963297515
9.963299215
9.96329936
9.963274927
9.96327393
9.963273487
9.963274123
9.963273681
9.963274772
9.96327375
9.963273593
9.963273462
9.963275179
9.96327553
9.963275847
9.963276692
9.963277085
9.963264811
9.963264711
9.963264755
9.963264929
9.963265364
9.963265401
9.963265391
9.963265517
9.963264317
9.963264025
9.963264709
9.963263916
9.963264028
9.963264333
9.963304463
9.963303981
9.963303716
9.963302762
9.96330379
9.963303615
9.963303722
9.96330346
9.963303433
9.96330542
9.963305062
9.963304554
9.963305955
9.963305006
9.963305739
9.963255397
9.963255224
9.963254437
9.963253026
9.963252119
9.963253385
9.963252599
9.963252974
9.963251571
9.963252613
9.963252677
9.963252555
9.963253907
9.963254608
9.963240666
9.963239835
9.963239536
9.963240209
9.96324018
9.963240783
9.963240143
9.963239758
9.963240215
9.963239098
9.963238683
9.963237555
9.963236138
9.963235972
9.963280885
9.963281682
9.963283542
9.963282181
9.96328178
9.963280525
9.963281033
9.963281137
9.963280745
9.96328132
9.963281338
9.963280365
9.96328122
9.963280815
9.963261145
9.96326166
9.96326156
9.963263055
9.963263571
9.963263365
9.963262411
9.963262997
9.963263333
9.963264112
9.963263985
9.963264216
9.96326197
9.963260909
9.963304747
9.963305363
9.963306061
9.963304879
9.963304419
9.963304635
9.963304399
9.963303867
9.963304331
9.963303641
9.963304535
9.96330389
9.963305117
9.963304411
9.963222513
9.963221614
9.963222146
9.963221883
9.963222226
9.963222552
9.96322321
9.96322265
9.963222569
9.963222974
9.963224285
9.963223713
9.963223455
9.963221658
9.963327961
9.96332884
9.963329868
9.963331394
9.963331011
9.963331314
9.963331895
9.963331049
9.963330244
9.963329627
9.963330516
9.96332971
9.963328334
9.963328552
9.963216215
9.963216052
9.963216258
9.963215914
9.963215868
9.963215435
9.963215571
9.963214943
9.963216042
9.963216068
9.963216603
9.96321602
9.963215763
9.96321596
9.963267729
9.963267208
9.963266651
9.963267017
9.963266933
9.963266852
9.963266204
9.963266566
9.963268502
9.963267711
9.963266785
9.963266594
9.96326662
9.963266884
9.963267359
9.963335313
9.963335893
9.963336522
9.963335593
9.963335314
9.963335403
9.963334558
9.963335439
9.963333619
9.963334411
9.963333349
9.963333551
9.96333333
9.963334144
9.963333301
9.963294584
9.963295125
9.963293921
9.963294815
9.9632951
9.963296671
9.963297439
9.963296726
9.963295953
9.963295829
9.963295785
9.963295584
9.963295253
9.96329592
9.963267187
9.963266752
9.96326625
9.963265304
9.963264858
9.963264469
9.963263576
9.963263924
9.963263527
9.963263609
9.96326296
9.963264321
9.963264588
9.96326371
9.96330975
9.963309025
9.96330935
9.963310559
9.963311124
9.96331118
9.963311316
9.963311654
9.963311938
9.963312009
9.963311915
9.963312421
9.963312511
9.963313504
9.963284099
9.963282679
9.96328173
9.963282068
9.963282224
9.963281762
9.963281255
9.963284102
9.963281531
9.96328225
9.963283475
9.963284445
9.963283891
9.963284562
9.963268495
9.963268538
9.963268075
9.963267095
9.963267887
9.963268038
9.963269629
9.963268924
9.963268463
9.963269629
9.963268333
9.963268499
9.963268886
9.963268941
9.963225909
9.963226946
9.963226606
9.963226046
9.963224848
9.96322391
9.963224176
9.963224573
9.963224518
9.963225328
9.963225224
9.96322484
9.963224499
9.963225005
9.963312667
9.963312032
9.963311912
9.963312634
9.963314049
9.96331504
9.963314722
9.963313615
9.963313887
9.963313224
9.963312397
9.963312983
9.963313712
9.963313352
9.963266579
9.96326707
9.963266987
9.963267415
9.963267363
9.963266314
9.96326548
9.963265637
9.963266164
9.963266519
9.963265352
9.963264253
9.963263798
9.963263419
9.963263353
9.963242571
9.963242754
9.963242098
9.963240729
9.963241069
9.963238788
9.963238691
9.963239605
9.963239663
9.96323934
9.963240663
9.963241888
9.963240947
9.963241074
9.963241426
9.96330353
9.963304507
9.963305096
9.963305129
9.963305621
9.963305789
9.963305709
9.963305518
9.963306475
9.963305871
9.963306754
9.963305572
9.963305488
9.963304178
9.963304941
9.963270077
9.963270579
9.963270504
9.963270825
9.963270562
9.963268939
9.963269111
9.963269076
9.963269243
9.963267641
9.96326716
9.963266443
9.96326718
9.96326719
9.963224401
9.963224186
9.963225968
9.963226122
9.963226439
9.963226138
9.963226843
9.96322757
9.963226163
9.963227221
9.963227269
9.963227176
9.963226687
9.963228034
9.963302936
9.963303679
9.963303733
9.963304301
9.963304081
9.963305125
9.96330549
9.963305369
9.96330616
9.963306969
9.963305755
9.963304726
9.963303326
9.963301966
9.963262567
9.963262496
9.963264529
9.963264064
9.96326416
9.963263786
9.963264458
9.963266076
9.963266216
9.963266889
9.963267169
9.963267731
9.963267589
9.963268382
9.963328616
9.963327345
9.963327342
9.963326028
9.963326157
9.963323766
9.963323564
9.963321895
9.963321787
9.963323193
9.963320808
9.963320541
9.963319593
9.963319424
9.963296602
9.963297089
9.963295123
9.963296637
9.963295733
9.963295769
9.963295437
9.963294983
9.963294416
9.963294737
9.963293555
9.963293008
9.963293744
9.96329294
9.963283328
9.963282723
9.96328337
9.963283408
9.963283845
9.963283814
9.96328388
9.963284139
9.96328469
9.963284067
9.963285024
9.963285358
9.963284736
9.963283942
9.963282754
9.963310816
9.963310399
9.963310562
9.963310211
9.96331011
9.96330996
9.963310005
9.963309492
9.963309051
9.963309819
9.963310177
9.963311699
9.963313272
9.963313227
9.963313068
9.963280622
9.963279979
9.963279426
9.963279787
9.9632803
9.963279497
9.963279333
9.963279357
9.96327868
9.963279536
9.963279995
9.963278922
9.963278588
9.963279029
9.963279614
9.963263192
9.963263941
9.963264887
9.963265335
9.963265731
9.963266921
9.96326672
9.963267655
9.963268081
9.963268763
9.963268788
9.96327039
9.963271948
9.963270477
9.963270359
9.994988293
9.995009824
9.995032223
9.995054262
9.995074224
9.995095661
9.9951166
9.995136859
9.995158724
9.995180507
9.995202033
9.995220496
9.995239008
9.995259662
9.963306219
9.963307644
9.963307945
9.96330821
9.963308261
9.963308017
9.963307915
9.963308975
9.963308203
9.963308184
9.963307053
9.963306066
9.963307184
9.963307187
9.96324931
9.963247794
9.963247731
9.963247061
9.963247262
9.963248467
9.963247577
9.963247803
9.963248967
9.963247713
9.963247933
9.963247987
9.963248429
9.963248978
9.963261304
9.963260443
9.963260847
9.963260004
9.963259569
9.96325952
9.963259839
9.963260277
9.963260572
9.963260983
9.963261126
9.963261959
9.963262551
9.963262812
9.963238867
9.963238907
9.963238858
9.963238559
9.963239483
9.963239839
9.963241139
9.963239678
9.9632389
9.963238806
9.963238434
9.963239224
9.963239553
9.963238596
9.963280418
9.963280103
9.963279998
9.963279952
9.96327922
9.963279437
9.963278785
9.963278648
9.963279181
9.963279901
9.96327948
9.963278396
9.963277784
9.963276945
9.963277483
9.963293811
9.963293721
9.963292242
9.963292018
9.963291203
9.963291126
9.963292541
9.963292246
9.963291628
9.963291209
9.963290834
9.963292394
9.963293669
9.96329475
9.96329512
9.96326129
9.963260248
9.963260203
9.963259405
9.963259875
9.963258725
9.963259045
9.963258227
9.963258213
9.963259313
9.963258339
9.963257537
9.963258212
9.963258833
9.963259517
9.963327201
9.963326796
9.963325273
9.963325586
9.963326918
9.963328362
9.963328707
9.963327175
9.96332849
9.963328024
9.963327502
9.963325578
9.963324426
9.963325652
9.963325326
9.963264721
9.963265398
9.963266895
9.963265747
9.963265972
9.963266033
9.963266643
9.963267399
9.96326702
9.963267171
9.963268459
9.963268549
9.963268976
9.963269092
9.96326898
9.963267218
9.963267939
9.963268494
9.963267643
9.963268409
9.963269737
9.963270212
9.96327005
9.963270017
9.963270248
9.963270962
9.963271353
9.963271389
9.963269771
9.963269285
9.963310791
9.963310016
9.963311688
9.963312401
9.963310919
9.963311155
9.963311928
9.963313864
9.963311591
9.963311039
9.963310888
9.963311318
9.963312832
9.963312797
9.963254239
9.963255254
9.963254042
9.963253893
9.963254951
9.963255395
9.963256008
9.963255575
9.963256791
9.963255296
9.963254557
9.963255381
9.963256158
9.963256982
9.963258413
9.963258811
9.963258906
9.963259303
9.963258311
9.963258432
9.963258534
9.96325829
9.963257921
9.963258445
9.963257749
9.963258017
9.963258435
9.963257738
9.963272109
9.963271578
9.963272559
9.963272628
9.963272983
9.963274049
9.963274246
9.96327503
9.963273798
9.963274616
9.963274639
9.963275606
9.963275585
9.963276053
9.963277416
9.963249927
9.963249782
9.963251374
9.963252049
9.963252509
9.963251497
9.963251657
9.963252102
9.963251696
9.963252466
9.963250132
9.963250311
9.963249946
9.963250112
9.963250296
9.963279637
9.963281307
9.963282131
9.963282685
9.963282303
9.963283288
9.963283023
9.963282553
9.963284417
9.963284383
9.963283819
9.963285858
9.963284974
9.963283761
9.963283481
9.963242404
9.963241525
9.9632408
9.963240141
9.963239755
9.963239122
9.963238924
9.963238312
9.963238201
9.963240854
9.963241125
9.963240696
9.963240107
9.963239579
9.96323803
9.963312345
9.963313068
9.96331464
9.963314456
9.963314015
9.963314725
9.963314196
9.963315572
9.963316688
9.963316338
9.963315606
9.963315607
9.963315241
9.963315235
9.963313883
9.963278134
9.963277941
9.963278597
9.963278239
9.963277277
9.963278614
9.963279259
9.963278247
9.963276257
9.963276795
9.963276739
9.963276455
9.963277351
9.963277642
9.963278863
9.963255131
9.963253102
9.963253804
9.963251904
9.963252283
9.963252662
9.963250953
9.963251652
9.963251856
9.9632529
9.963253054
9.963251908
9.963253347
9.963251769
9.963251807
9.963304743
9.963304135
9.9633042
9.963304571
9.963303621
9.96330319
9.963304049
9.963302223
9.963303554
9.963303385
9.963302345
9.963302945
9.963302951
9.96330367
9.963305225
9.963305474
9.963305509
9.963306023
9.963304711
9.963305493
9.963305289
9.963304761
9.963304499
9.963305663
9.963304499
9.96330566
9.963304507
9.963304893
9.963283186
9.963282841
9.963283588
9.963282499
9.963282926
9.96328339
9.963282704
9.963282467
9.963282608
9.963280442
9.963281381
9.963279687
9.96328015
9.963280587
9.963281102
9.963315845
9.963316462
9.963314562
9.963314348
9.963313139
9.963314418
9.963314078
9.963313869
9.963315187
9.963314875
9.963315116
9.963315599
9.963315838
9.963315688
9.963315211
9.963284758
9.963285509
9.963285411
9.963287723
9.96328738
9.963288547
9.96328753
9.963286372
9.963286859
9.963287067
9.96328797
9.96328708
9.963288564
9.963289829
9.963289934
9.963274755
9.96327445
9.963274225
9.963274991
9.963275334
9.96327468
9.963275526
9.963275997
9.963274066
9.963272735
9.96327281
9.963272946
9.963272018
9.963271119
9.963269507
9.963264391
9.963264929
9.963264703
9.963265492
9.963265528
9.963265358
9.963265493
9.963266336
9.963268262
9.963268501
9.96326771
9.963268006
9.963267495
9.963268051
9.963267864
9.963323609
9.963322414
9.963320971
9.963320619
9.963321342
9.963321086
9.963322343
9.963323467
9.963322105
9.963320365
9.963320452
9.963323142
9.963321967
9.963322582
9.963323528
9.963285105
9.963284736
9.963285018
9.963284733
9.963284326
9.963284853
9.963284477
9.963284707
9.963283455
9.963281841
9.963281779
9.963282064
9.963280671
9.963280516
9.963280342
9.963295792
9.963297121
9.963299273
9.963299957
9.963300541
9.963299695
9.96330101
9.963301057
9.96330179
9.963300712
9.963299241
9.963301009
9.963301492
9.963302367
9.963302426
9.963274564
9.963273282
9.96327224
9.963272611
9.963272567
9.963271721
9.963271712
9.963271389
9.96327186
9.963270524
9.963271716
9.963273108
9.963272376
9.963273194
9.963280795
9.963281289
9.963281052
9.963280971
9.963281073
9.963282829
9.96328277
9.963282805
9.963282165
9.963283018
9.963282177
9.963283591
9.963282849
9.963283066
9.963282645
9.963291633
9.963291074
9.963291186
9.96329143
9.963291152
9.963290262
9.963290601
9.963291653
9.963291711
9.963293206
9.963293074
9.963291671
9.963291436
9.963291119
9.963291537
9.963263976
9.963264351
9.963264105
9.963264085
9.963263555
9.963262421
9.963263899
9.963265229
9.963265684
9.963265537
9.963266122
9.96326546
9.963266799
9.96326791
9.963267585
9.963363626
9.963363752
9.963362684
9.963361611
9.963360321
9.963359975
9.963360827
9.963361974
9.96336141
9.963361353
9.963361224
9.963360784
9.96336215
9.963363005
9.963363909
9.963305735
9.963304985
9.963305222
9.963305714
9.963304888
9.963305544
9.963304293
9.963303531
9.963303503
9.963303881
9.963302854
9.963302337
9.963302424
9.963302643
9.96330021
9.963268793
9.963268042
9.963269877
9.963269739
9.96327053
9.963271037
9.963270662
9.963271621
9.963272061
9.963271862
9.963272446
9.963272152
9.963271977
9.963273103
9.96327216
9.963276982
9.963277482
9.963276911
9.963277322
9.963277199
9.963276837
9.963276157
9.963277022
9.96327711
9.963277868
9.963277579
9.963278025
9.963278624
9.963278252
9.963277623
9.963287893
9.963287096
9.963287679
9.963288614
9.963287798
9.963288017
9.96328837
9.963287939
9.963287684
9.963287882
9.963287739
9.963286158
9.963287151
9.963287751
9.963287346
9.963291429
9.963291603
9.963292065
9.963291472
9.963291604
9.963292142
9.963292083
9.963291673
9.963291903
9.963291859
9.963291545
9.963290842
9.963289944
9.963289031
9.963289073
)
;

boundaryField
{
    top
    {
        type            calculated;
        value           nonuniform List<scalar> 
127
(
9.963291429
9.963264811
9.963216215
9.963312667
9.963296602
9.963238867
9.963258413
9.963305225
9.963274564
9.963291603
9.963264711
9.963216052
9.963312032
9.963297089
9.963238907
9.963258811
9.963305474
9.963273282
9.963292065
9.963264755
9.963216258
9.963311912
9.963295123
9.963238858
9.963258906
9.963305509
9.96327224
9.963291472
9.963264929
9.963215914
9.963312634
9.963296637
9.963238559
9.963259303
9.963306023
9.963272611
9.963291604
9.963265364
9.963215868
9.963314049
9.963295733
9.963239483
9.963258311
9.963304711
9.963272567
9.963292142
9.963265401
9.963215435
9.96331504
9.963295769
9.963239839
9.963258432
9.963305493
9.963271721
9.963292083
9.963265391
9.963215571
9.963314722
9.963295437
9.963241139
9.963258534
9.963305289
9.963271712
9.963291673
9.963265517
9.963214943
9.963313615
9.963294983
9.963239678
9.96325829
9.963304761
9.963271389
9.963291903
9.963264317
9.963216042
9.963313887
9.963294416
9.9632389
9.963257921
9.963304499
9.96327186
9.963291859
9.963264025
9.963216068
9.963313224
9.963294737
9.963238806
9.963258445
9.963305663
9.963270524
9.963291545
9.963264709
9.963216603
9.963312397
9.963293555
9.963238434
9.963257749
9.963304499
9.963271716
9.963290842
9.963263916
9.96321602
9.963312983
9.963293008
9.963239224
9.963258017
9.96330566
9.963273108
9.963289944
9.963264028
9.963215763
9.963313712
9.963293744
9.963239553
9.963258435
9.963304507
9.963272376
9.963289031
9.963264333
9.96321596
9.963313352
9.96329294
9.963238596
9.963257738
9.963304893
9.963273194
9.963289073
)
;
    }
    bottom
    {
        type            calculated;
        value           nonuniform List<scalar> 
134
(
9.963304463
9.963267729
9.963266579
9.963283328
9.963280418
9.963272109
9.963283186
9.963280795
9.963271977
9.963303981
9.963267208
9.96326707
9.963282723
9.963280103
9.963271578
9.963282841
9.963281289
9.963271658
9.963303716
9.963266651
9.963266987
9.96328337
9.963279998
9.963272559
9.963283588
9.963281052
9.96327256
9.963302762
9.963267017
9.963267415
9.963283408
9.963279952
9.963272628
9.963282499
9.963280971
9.963272343
9.96330379
9.963266933
9.963267363
9.963283845
9.96327922
9.963272983
9.963282926
9.963281073
9.96327148
9.963303615
9.963266852
9.963266314
9.963283814
9.963279437
9.963274049
9.96328339
9.963282829
9.963270427
9.963303722
9.963266204
9.96326548
9.96328388
9.963278785
9.963274246
9.963282704
9.96328277
9.963271792
9.96330346
9.963266566
9.963265637
9.963284139
9.963278648
9.96327503
9.963282467
9.963282805
9.963272964
9.963303433
9.963268502
9.963266164
9.96328469
9.963279181
9.963273798
9.963282608
9.963282165
9.963272705
9.96330542
9.963267711
9.963266519
9.963284067
9.963279901
9.963274616
9.963280442
9.963283018
9.9632723
9.963305062
9.963266785
9.963265352
9.963285024
9.96327948
9.963274639
9.963281381
9.963282177
9.963271931
9.963304554
9.963266594
9.963264253
9.963285358
9.963278396
9.963275606
9.963279687
9.963283591
9.96327239
9.963305955
9.96326662
9.963263798
9.963284736
9.963277784
9.963275585
9.96328015
9.963282849
9.963272326
9.963305006
9.963266884
9.963263419
9.963283942
9.963276945
9.963276053
9.963280587
9.963283066
9.963271531
9.963305739
9.963267359
9.963263353
9.963282754
9.963277483
9.963277416
9.963281102
9.963282645
)
;
    }
    side-walls
    {
        type            calculated;
        value           nonuniform List<scalar> 
261
(
9.963271977
9.963306051
9.963284992
9.963288024
9.963265116
9.963262372
9.963296651
9.963274927
9.963264811
9.963271658
9.963306693
9.963284293
9.963287458
9.963265518
9.963262089
9.963296107
9.96327393
9.963264711
9.96327256
9.963306134
9.963284877
9.963287229
9.963265828
9.963262023
9.963296059
9.963273487
9.963264755
9.963272343
9.963307087
9.96328518
9.963287086
9.963265791
9.963261491
9.963296546
9.963274123
9.963264929
9.96327148
9.963305913
9.963285476
9.963287093
9.963266124
9.963262146
9.963296478
9.963273681
9.963265364
9.963270427
9.963304787
9.963285228
9.963286194
9.963265787
9.963263059
9.963296918
9.963274772
9.963265401
9.963271792
9.963305795
9.96328533
9.963286376
9.963265926
9.963263161
9.963296763
9.96327375
9.963265391
9.963272964
9.963305448
9.963285071
9.963285172
9.963265982
9.963262654
9.963297868
9.963273593
9.963265517
9.963272705
9.963304751
9.963284683
9.963284213
9.963264298
9.963262357
9.963298271
9.963273462
9.963264317
9.9632723
9.963304212
9.963284816
9.963283048
9.963264858
9.963262982
9.963297841
9.963275179
9.963264025
9.963271931
9.963304701
9.963285435
9.963283172
9.963264722
9.963262583
9.963297178
9.96327553
9.963264709
9.96327239
9.963305506
9.963286048
9.963282523
9.963263782
9.963262331
9.963297515
9.963275847
9.963263916
9.963272326
9.963305145
9.963285625
9.963283499
9.963263974
9.963260629
9.963299215
9.963276692
9.963264028
9.963271531
9.96330419
9.963285691
9.963284006
9.963264688
9.963260787
9.96329936
9.963277085
9.963264333
9.963280795
9.963291633
9.963263976
9.963363626
9.963305735
9.963268793
9.963276982
9.963287893
9.963291429
9.963281289
9.963291074
9.963264351
9.963363752
9.963304985
9.963268042
9.963277482
9.963287096
9.963291603
9.963281052
9.963291186
9.963264105
9.963362684
9.963305222
9.963269877
9.963276911
9.963287679
9.963292065
9.963280971
9.96329143
9.963264085
9.963361611
9.963305714
9.963269739
9.963277322
9.963288614
9.963291472
9.963281073
9.963291152
9.963263555
9.963360321
9.963304888
9.96327053
9.963277199
9.963287798
9.963291604
9.963282829
9.963290262
9.963262421
9.963359975
9.963305544
9.963271037
9.963276837
9.963288017
9.963292142
9.96328277
9.963290601
9.963263899
9.963360827
9.963304293
9.963270662
9.963276157
9.96328837
9.963292083
9.963282805
9.963291653
9.963265229
9.963361974
9.963303531
9.963271621
9.963277022
9.963287939
9.963291673
9.963282165
9.963291711
9.963265684
9.96336141
9.963303503
9.963272061
9.96327711
9.963287684
9.963291903
9.963283018
9.963293206
9.963265537
9.963361353
9.963303881
9.963271862
9.963277868
9.963287882
9.963291859
9.963282177
9.963293074
9.963266122
9.963361224
9.963302854
9.963272446
9.963277579
9.963287739
9.963291545
9.963283591
9.963291671
9.96326546
9.963360784
9.963302337
9.963272152
9.963278025
9.963286158
9.963290842
9.963282849
9.963291436
9.963266799
9.96336215
9.963302424
9.963271977
9.963278624
9.963287151
9.963289944
9.963283066
9.963291119
9.96326791
9.963363005
9.963302643
9.963273103
9.963278252
9.963287751
9.963289031
9.963282645
9.963291537
9.963267585
9.963363909
9.96330021
9.96327216
9.963277623
9.963287346
9.963289073
)
;
    }
    inlet
    {
        type            calculated;
        value           nonuniform 0();
    }
    outlet
    {
        type            calculated;
        value           nonuniform List<scalar> 
81
(
9.963271531
9.96330419
9.963285691
9.963284006
9.963264688
9.963260787
9.96329936
9.963277085
9.963264333
9.963305739
9.963254608
9.963235972
9.963280815
9.963260909
9.963304411
9.963221658
9.963328552
9.96321596
9.963267359
9.963333301
9.96329592
9.96326371
9.963313504
9.963284562
9.963268941
9.963225005
9.963313352
9.963263353
9.963241426
9.963304941
9.96326719
9.963228034
9.963301966
9.963268382
9.963319424
9.96329294
9.963282754
9.963313068
9.963279614
9.963270359
9.995259662
9.963307187
9.963248978
9.963262812
9.963238596
9.963277483
9.96329512
9.963259517
9.963325326
9.96326898
9.963269285
9.963312797
9.963256982
9.963257738
9.963277416
9.963250296
9.963283481
9.96323803
9.963313883
9.963278863
9.963251807
9.96330367
9.963304893
9.963281102
9.963315211
9.963289934
9.963269507
9.963267864
9.963323528
9.963280342
9.963302426
9.963273194
9.963282645
9.963291537
9.963267585
9.963363909
9.96330021
9.96327216
9.963277623
9.963287346
9.963289073
)
;
    }
    procBoundary1to0
    {
        type            processor;
        value           nonuniform List<scalar> 
97
(
9.963272147
9.963272147
9.963306526
9.963284559
9.963287493
9.963264714
9.963263271
9.963297364
9.963274426
9.963264864
9.963305447
9.963255984
9.963255984
9.963255984
9.963240812
9.963280807
9.963261512
9.963305354
9.963222439
9.963328192
9.963217041
9.963267863
9.963335671
9.963295662
9.963295662
9.963295662
9.963267393
9.963309393
9.963281816
9.963268227
9.963225027
9.963311944
9.963267143
9.963240717
9.963303739
9.963271032
9.963271032
9.963271032
9.963224472
9.963302824
9.963264753
9.963328138
9.963296752
9.963283888
9.963310504
9.963277906
9.963249973
9.994995335
9.994995335
9.994995335
9.963306343
9.963306343
9.963249186
9.963260882
9.963238455
9.963278817
9.963293618
9.963261571
9.963328093
9.963252549
9.963267899
9.963308945
9.963308945
9.963308945
9.963253895
9.963258738
9.963270809
9.963250403
9.96328009
9.963242774
9.963313829
9.963280831
9.963254468
9.963304223
9.963304223
9.963304223
9.963304785
9.963283793
9.963314731
9.963285593
9.963274174
9.963263948
9.963323179
9.96328647
9.963297329
9.963274852
9.963274852
9.963274852
9.963281092
9.963292371
9.96326409
9.963364366
9.963305838
9.963269549
9.963276302
9.963288313
9.963291434
)
;
    }
}


// ************************************************************************* //
