/*--------------------------------*- C++ -*----------------------------------*\
| =========                 |                                                 |
| \\      /  F ield         | OpenFOAM: The Open Source CFD Toolbox           |
|  \\    /   O peration     | Version:  4.x                                   |
|   \\  /    A nd           | Web:      www.OpenFOAM.org                      |
|    \\/     M anipulation  |                                                 |
\*---------------------------------------------------------------------------*/
FoamFile
{
    version     2.0;
    format      ascii;
    class       volScalarField;
    location    "8000";
    object      N2;
}
// * * * * * * * * * * * * * * * * * * * * * * * * * * * * * * * * * * * * * //

dimensions      [0 0 0 0 0 0 0];

internalField   nonuniform List<scalar> 
1174
(
0.6215286929
0.6215281679
0.6215274259
0.621526457
0.6215252716
0.6215238962
0.6215223666
0.6215207242
0.6215190126
0.6215172708
0.6215155356
0.6215138469
0.6215122733
0.6215110362
0.6215281984
0.621527355
0.6215262309
0.6215248521
0.6215232663
0.6215215307
0.621519703
0.6215178383
0.6215159807
0.6215141662
0.621512423
0.6215107781
0.6215092848
0.6215081321
0.6215271045
0.6215256109
0.6215237613
0.6215216599
0.6215194201
0.6215171429
0.6215149097
0.6215127773
0.621510782
0.6215089434
0.6215072712
0.6215057693
0.621504462
0.6215034836
0.6215254991
0.6215231751
0.6215205056
0.6215176852
0.6215148785
0.6215122012
0.6215097278
0.621507496
0.6215055176
0.6215037877
0.6215022907
0.6215010106
0.6214999446
0.6214991733
0.6215243509
0.6215215698
0.621518535
0.6215154602
0.6215125
0.6215097544
0.6215072768
0.6215050881
0.6215031869
0.6215015578
0.6215001764
0.6214990202
0.6214980774
0.6214974061
0.6215254995
0.6215231752
0.6215205052
0.6215176855
0.6215148786
0.6215122019
0.6215097285
0.6215074968
0.621505518
0.6215037882
0.6215022913
0.6215010112
0.6214999454
0.6214991742
0.6215271047
0.6215256107
0.6215237615
0.6215216604
0.6215194201
0.6215171432
0.6215149097
0.6215127776
0.6215107823
0.6215089446
0.6215072723
0.6215057704
0.6215044629
0.6215034845
0.6215281988
0.6215273549
0.6215262311
0.6215248523
0.6215232666
0.6215215305
0.6215197037
0.6215178389
0.6215159816
0.621514167
0.6215124236
0.6215107796
0.6215092865
0.6215081333
0.6215286932
0.6215281679
0.6215274259
0.6215264569
0.6215252715
0.6215238961
0.6215223662
0.6215207248
0.6215190133
0.6215172718
0.6215155373
0.6215138485
0.6215122754
0.6215110383
0.621528768
0.6215281985
0.6215273551
0.6215262309
0.6215248519
0.6215232661
0.6215215306
0.6215197034
0.6215178384
0.6215159803
0.6215141661
0.6215124231
0.6215107786
0.6215092851
0.6215081324
0.6215270808
0.6215255965
0.6215237858
0.6215217568
0.6215196193
0.6215174653
0.6215153639
0.6215133614
0.6215114846
0.6215097469
0.6215081537
0.621506708
0.6215054366
0.6215044753
0.6215242665
0.6215213762
0.6215182331
0.6215151037
0.6215121702
0.6215095323
0.6215072276
0.6215052503
0.6215035737
0.6215021611
0.6215009744
0.6214999806
0.6214991644
0.6214985773
0.6215192555
0.6215144422
0.6215098625
0.6215058609
0.6215025579
0.621499938
0.6214979196
0.6214964001
0.621495279
0.6214944659
0.6214938879
0.6214934863
0.6214932174
0.6214930572
0.6215145196
0.6215087224
0.6215038089
0.6214999099
0.62149695
0.6214947772
0.6214932324
0.621492172
0.6214914767
0.6214910513
0.6214908227
0.6214907329
0.6214907343
0.6214907769
0.6215192562
0.6215144419
0.6215098629
0.6215058617
0.6215025586
0.6214999386
0.6214979204
0.6214964011
0.6214952796
0.6214944668
0.6214938888
0.6214934874
0.6214932182
0.6214930584
0.6215242666
0.6215213769
0.6215182335
0.6215151042
0.6215121709
0.6215095332
0.6215072283
0.6215052515
0.6215035752
0.6215021631
0.6215009759
0.6214999827
0.6214991658
0.6214985792
0.6215270817
0.621525597
0.6215237858
0.6215217569
0.6215196194
0.6215174658
0.6215153651
0.6215133627
0.6215114862
0.6215097483
0.6215081547
0.6215067096
0.6215054385
0.6215044778
0.6215281984
0.6215273545
0.6215262305
0.6215248521
0.6215232662
0.6215215307
0.6215197036
0.621517839
0.6215159815
0.6215141672
0.6215124243
0.6215107803
0.6215092878
0.6215081348
0.6215281777
0.6215271045
0.6215256107
0.6215237609
0.6215216599
0.6215194202
0.6215171436
0.6215149101
0.6215127769
0.6215107818
0.6215089441
0.6215072718
0.6215057696
0.6215044624
0.6215034839
0.6215265988
0.6215242666
0.6215213765
0.6215182332
0.6215151039
0.6215121701
0.6215095328
0.6215072272
0.6215052502
0.6215035742
0.6215021617
0.621500975
0.6214999809
0.6214991648
0.6214985775
0.6215159369
0.6215098265
0.6215042904
0.6214997489
0.6214962897
0.6214938147
0.6214921482
0.6214911032
0.6214905142
0.6214902451
0.6214901916
0.6214902755
0.6214904333
0.621490593
0.6214973785
0.6214870392
0.6214799019
0.621475683
0.6214736966
0.6214732478
0.6214737759
0.6214748743
0.6214762662
0.6214777738
0.621479285
0.6214807273
0.6214820335
0.6214830349
0.6214730296
0.6214627241
0.6214582925
0.6214575042
0.621458765
0.6214610688
0.6214638198
0.6214666784
0.6214694587
0.6214720672
0.6214744577
0.6214766088
0.6214784815
0.6214798827
0.62149738
0.6214870403
0.6214799032
0.6214756852
0.6214736981
0.6214732496
0.6214737779
0.6214748759
0.6214762683
0.6214777758
0.6214792864
0.6214807289
0.6214820354
0.6214830371
0.6215159381
0.6215098279
0.6215042917
0.6214997502
0.6214962914
0.6214938171
0.6214921498
0.6214911053
0.6214905167
0.6214902478
0.6214901946
0.6214902784
0.6214904361
0.6214905957
0.6215242671
0.6215213763
0.6215182335
0.6215151039
0.6215121709
0.6215095337
0.6215072291
0.621505252
0.6215035759
0.621502164
0.6215009772
0.6214999843
0.6214991676
0.6214985806
0.6215271046
0.621525611
0.6215237613
0.6215216604
0.6215194207
0.621517144
0.6215149106
0.6215127788
0.6215107838
0.6215089462
0.6215072739
0.6215057725
0.6215044654
0.6215034867
0.6215272912
0.6215254992
0.6215231752
0.6215205052
0.6215176856
0.6215148788
0.6215122022
0.6215097287
0.6215074966
0.6215055179
0.6215037881
0.6215022913
0.6215010109
0.6214999453
0.6214991741
0.6215236812
0.6215192565
0.6215144429
0.6215098631
0.621505862
0.6215025587
0.6214999389
0.6214979201
0.6214964011
0.6214952793
0.6214944663
0.6214938883
0.6214934869
0.6214932178
0.6214930574
0.6215099863
0.6214973803
0.6214870403
0.6214799028
0.6214756841
0.6214736975
0.6214732487
0.6214737766
0.6214748744
0.6214762664
0.6214777734
0.6214792849
0.6214807275
0.621482034
0.6214830354
0.6214336532
0.6214205837
0.6214183861
0.6214220906
0.6214284382
0.6214355842
0.621442593
0.621449046
0.6214547989
0.6214598396
0.6214642152
0.621467983
0.62147115
0.6214734643
0.6213083817
0.6213246186
0.621349679
0.6213737408
0.6213942034
0.6214109053
0.6214243824
0.6214352718
0.62144413
0.6214513968
0.6214574082
0.6214624046
0.6214664978
0.621469441
0.6214336584
0.6214205873
0.6214183898
0.6214220941
0.6214284412
0.6214355872
0.6214425967
0.6214490496
0.6214548016
0.6214598422
0.6214642172
0.6214679855
0.6214711521
0.6214734667
0.6214973806
0.6214870415
0.6214799042
0.6214756863
0.6214737003
0.621473252
0.6214737805
0.6214748782
0.6214762705
0.6214777777
0.6214792884
0.6214807308
0.6214820371
0.6214830386
0.6215192559
0.6215144426
0.6215098634
0.6215058624
0.62150256
0.6214999402
0.621497923
0.6214964033
0.6214952822
0.6214944693
0.6214938923
0.6214934909
0.6214932219
0.621493061
0.6215254994
0.6215231753
0.6215205057
0.6215176863
0.6215148792
0.6215122029
0.6215097302
0.6215074986
0.6215055205
0.6215037909
0.6215022945
0.6215010149
0.621499949
0.621499178
0.6215266244
0.6215243517
0.6215215702
0.6215185353
0.6215154607
0.6215125012
0.6215097551
0.6215072781
0.6215050889
0.621503188
0.6215015584
0.6215001774
0.6214990211
0.6214980781
0.6214974071
0.6215206306
0.6215145209
0.6215087235
0.62150381
0.6214999114
0.621496951
0.6214947782
0.6214932335
0.621492173
0.6214914773
0.6214910522
0.6214908233
0.6214907336
0.621490735
0.6214907772
0.6214913093
0.6214730321
0.6214627262
0.621458294
0.6214575054
0.6214587658
0.6214610696
0.6214638207
0.6214666795
0.6214694599
0.6214720676
0.6214744583
0.6214766097
0.6214784817
0.6214798831
0.621330781
0.6213083879
0.6213246224
0.6213496822
0.6213737426
0.6213942047
0.6214109062
0.6214243833
0.6214352726
0.6214441302
0.6214513976
0.6214574085
0.6214624045
0.6214664978
0.6214694411
0.6207684097
0.6210427384
0.6211947757
0.621283836
0.6213390209
0.6213751296
0.6213999752
0.6214178466
0.6214311953
0.6214414806
0.6214496027
0.6214561238
0.6214613355
0.6214650246
0.6213083827
0.6213246243
0.6213496863
0.6213737484
0.6213942102
0.6214109112
0.6214243877
0.6214352766
0.6214441341
0.6214514009
0.6214574119
0.6214624083
0.6214665008
0.621469444
0.6214730298
0.6214627265
0.6214582961
0.6214575096
0.6214587705
0.6214610746
0.6214638256
0.621466684
0.6214694643
0.6214720722
0.6214744629
0.6214766143
0.6214784869
0.6214798882
0.6215145196
0.6215087232
0.6215038109
0.6214999132
0.6214969534
0.6214947808
0.6214932366
0.6214921764
0.6214914814
0.6214910566
0.6214908279
0.621490738
0.6214907394
0.6214907821
0.6215243511
0.6215215702
0.6215185358
0.6215154617
0.621512502
0.6215097567
0.6215072794
0.6215050914
0.6215031913
0.6215015619
0.6215001815
0.6214990254
0.6214980828
0.6214974118
0.6215272915
0.6215254999
0.6215231757
0.6215205061
0.6215176868
0.6215148796
0.6215122027
0.6215097295
0.6215074972
0.6215055188
0.6215037885
0.6215022924
0.621501012
0.6214999467
0.6214991755
0.6215236817
0.621519257
0.6215144432
0.6215098638
0.621505863
0.6215025596
0.6214999395
0.6214979216
0.6214964022
0.6214952809
0.6214944681
0.6214938901
0.621493489
0.6214932197
0.6214930594
0.6215099888
0.6214973829
0.6214870429
0.6214799049
0.6214756868
0.6214737
0.621473251
0.6214737788
0.6214748772
0.621476269
0.6214777767
0.6214792874
0.62148073
0.6214820361
0.6214830372
0.6214629194
0.6214336644
0.6214205925
0.6214183936
0.6214220973
0.6214284439
0.6214355894
0.6214425983
0.6214490508
0.6214548028
0.6214598431
0.6214642186
0.6214679862
0.6214711528
0.6214734671
0.6213307827
0.6213083908
0.6213246292
0.6213496901
0.6213737511
0.6213942126
0.6214109125
0.6214243891
0.6214352774
0.6214441352
0.6214514015
0.6214574127
0.6214624083
0.6214665012
0.6214694442
0.6214629179
0.6214336642
0.6214205938
0.621418397
0.6214221014
0.621428448
0.6214355936
0.6214426018
0.6214490547
0.6214548071
0.6214598472
0.6214642218
0.6214679891
0.6214711556
0.6214734702
0.6214973794
0.6214870427
0.6214799067
0.6214756895
0.6214737041
0.6214732557
0.6214737836
0.6214748815
0.6214762734
0.6214777808
0.6214792918
0.6214807345
0.6214820401
0.6214830421
0.621519256
0.6215144433
0.6215098644
0.6215058637
0.6215025617
0.6214999423
0.6214979246
0.6214964057
0.6214952841
0.6214944716
0.6214938945
0.6214934929
0.6214932239
0.6214930639
0.6215254992
0.6215231751
0.6215205057
0.6215176862
0.62151488
0.6215122039
0.6215097313
0.6215075001
0.6215055222
0.6215037924
0.621502296
0.6215010163
0.6214999504
0.6214991799
0.6215281784
0.6215271054
0.6215256114
0.6215237615
0.6215216608
0.6215194213
0.6215171442
0.621514911
0.621512779
0.6215107839
0.6215089459
0.6215072732
0.6215057715
0.6215044644
0.6215034852
0.6215265997
0.6215242681
0.6215213776
0.6215182344
0.6215151046
0.6215121712
0.6215095341
0.6215072288
0.6215052521
0.6215035755
0.6215021639
0.6215009771
0.6214999838
0.6214991669
0.6214985798
0.6215217601
0.6215159393
0.6215098291
0.6215042932
0.6214997516
0.6214962929
0.621493818
0.6214921516
0.6214911067
0.6214905178
0.621490249
0.6214901952
0.6214902786
0.621490437
0.6214905962
0.6215099889
0.6214973831
0.6214870435
0.6214799073
0.6214756889
0.6214737026
0.6214732538
0.6214737819
0.6214748797
0.6214762712
0.6214777785
0.6214792896
0.6214807321
0.6214820384
0.6214830401
0.6214913098
0.6214730338
0.6214627298
0.6214582993
0.6214575118
0.6214587726
0.6214610762
0.6214638268
0.621466685
0.6214694653
0.6214720731
0.6214744637
0.6214766149
0.6214784875
0.6214798888
0.6215099887
0.6214973837
0.6214870451
0.6214799089
0.621475691
0.6214737046
0.6214732563
0.6214737843
0.6214748821
0.6214762739
0.6214777815
0.6214792923
0.6214807342
0.6214820407
0.6214830415
0.6215217594
0.6215159391
0.6215098295
0.621504294
0.6214997535
0.6214962953
0.6214938207
0.6214921541
0.6214911101
0.6214905212
0.6214902521
0.6214901987
0.6214902823
0.6214904402
0.6214905995
0.6215242671
0.6215213771
0.6215182347
0.6215151056
0.6215121729
0.6215095361
0.6215072314
0.6215052551
0.6215035795
0.6215021673
0.6215009811
0.6214999874
0.6214991709
0.6214985838
0.6215271045
0.6215256106
0.6215237615
0.6215216607
0.6215194216
0.6215171453
0.6215149126
0.6215127808
0.6215107858
0.6215089483
0.6215072765
0.6215057746
0.6215044682
0.6215034897
0.6215287682
0.6215281994
0.6215273558
0.6215262316
0.6215248528
0.6215232671
0.621521531
0.6215197044
0.6215178395
0.6215159821
0.6215141677
0.6215124249
0.6215107807
0.6215092875
0.6215081345
0.6215281627
0.6215270821
0.621525598
0.6215237873
0.6215217582
0.6215196205
0.6215174665
0.6215153654
0.6215133634
0.6215114866
0.6215097493
0.6215081556
0.6215067101
0.6215054391
0.6215044783
0.6215265993
0.6215242679
0.6215213779
0.6215182346
0.6215151055
0.6215121723
0.6215095348
0.6215072304
0.6215052532
0.6215035775
0.6215021646
0.6215009783
0.6214999846
0.621499168
0.6214985811
0.6215236814
0.6215192569
0.621514444
0.621509865
0.6215058642
0.6215025614
0.6214999419
0.621497924
0.6214964049
0.6214952836
0.6214944706
0.6214938932
0.6214934917
0.6214932227
0.6214930628
0.6215206311
0.6215145218
0.621508725
0.6215038128
0.6214999148
0.6214969544
0.6214947823
0.6214932375
0.6214921774
0.6214914818
0.621491057
0.6214908284
0.6214907384
0.6214907403
0.6214907831
0.6215236818
0.6215192573
0.6215144443
0.6215098661
0.621505865
0.6215025622
0.6214999431
0.6214979254
0.6214964063
0.6214952855
0.6214944725
0.6214938945
0.6214934935
0.6214932245
0.6214930636
0.6215265996
0.6215242679
0.6215213775
0.621518235
0.621515106
0.6215121732
0.621509536
0.6215072316
0.6215052555
0.6215035794
0.6215021674
0.6215009808
0.6214999873
0.6214991711
0.6214985838
0.6215281624
0.6215270819
0.6215255974
0.6215237865
0.6215217579
0.6215196205
0.6215174677
0.6215153672
0.6215133652
0.6215114888
0.6215097516
0.6215081582
0.6215067135
0.6215054421
0.6215044819
0.6215281986
0.6215273554
0.6215262317
0.6215248526
0.621523267
0.6215215317
0.6215197051
0.6215178406
0.6215159835
0.6215141701
0.6215124272
0.6215107829
0.6215092906
0.6215081378
0.6215290311
0.6215286936
0.6215281684
0.6215274261
0.6215264577
0.6215252719
0.6215238965
0.6215223671
0.6215207255
0.6215190139
0.6215172728
0.6215155375
0.6215138492
0.6215122757
0.6215110389
0.6215287678
0.621528199
0.6215273557
0.6215262315
0.621524853
0.6215232672
0.6215215313
0.6215197044
0.6215178392
0.6215159815
0.6215141674
0.6215124249
0.6215107812
0.6215092881
0.6215081354
0.6215281783
0.6215271052
0.6215256116
0.6215237618
0.621521661
0.621519422
0.6215171451
0.6215149117
0.6215127797
0.6215107846
0.6215089467
0.621507275
0.621505773
0.6215044661
0.621503487
0.6215272913
0.6215255
0.6215231766
0.621520507
0.6215176877
0.6215148811
0.6215122047
0.6215097316
0.6215075
0.6215055219
0.6215037917
0.6215022955
0.6215010157
0.6214999501
0.6214991789
0.6215266248
0.6215243523
0.6215215718
0.6215185368
0.6215154628
0.6215125032
0.621509758
0.6215072814
0.6215050927
0.6215031921
0.6215015626
0.6215001823
0.6214990261
0.6214980835
0.6214974133
0.6215272914
0.6215255002
0.6215231762
0.621520507
0.6215176877
0.6215148814
0.6215122048
0.6215097324
0.621507501
0.6215055226
0.6215037928
0.6215022968
0.621501017
0.6214999514
0.6214991805
0.6215281787
0.6215271055
0.6215256112
0.6215237619
0.6215216613
0.6215194224
0.6215171456
0.621514913
0.6215127814
0.6215107862
0.6215089483
0.6215072763
0.6215057749
0.6215044686
0.6215034899
0.6215287682
0.6215281991
0.6215273556
0.6215262313
0.6215248529
0.6215232673
0.6215215316
0.6215197052
0.6215178412
0.6215159839
0.62151417
0.6215124274
0.6215107836
0.6215092907
0.6215081382
0.6215290308
0.6215286933
0.6215281682
0.6215274264
0.6215264576
0.6215252724
0.6215238967
0.6215223676
0.6215207267
0.6215190153
0.6215172744
0.6215155398
0.6215138517
0.6215122787
0.6215110417
)
;

boundaryField
{
    top
    {
        type            zeroGradient;
    }
    bottom
    {
        type            zeroGradient;
    }
    side-walls
    {
        type            zeroGradient;
    }
    inlet
    {
        type            zeroGradient;
    }
    outlet
    {
        type            zeroGradient;
    }
    procBoundary1to0
    {
        type            processor;
        value           nonuniform List<scalar> 
97
(
0.6215290306
0.6215290306
0.6215287677
0.6215281783
0.6215272915
0.6215266256
0.6215272914
0.6215281782
0.6215287674
0.6215290305
0.6215291034
0.621528162
0.621528162
0.621528162
0.6215265992
0.6215236823
0.6215206323
0.6215236824
0.6215265997
0.6215281626
0.6215287677
0.621528837
0.6215281454
0.6215217589
0.6215217589
0.6215217589
0.6215099901
0.6214913168
0.621509992
0.6215217611
0.6215265997
0.6215281781
0.6215284452
0.6215269239
0.6215215916
0.6214629184
0.6214629184
0.6214629184
0.6213308356
0.6214629316
0.6215099921
0.6215236827
0.6215272913
0.6215281654
0.621525769
0.6215156559
0.6214755455
0.6202460051
0.6202460051
0.6202460051
0.6213308342
0.6213308342
0.6214913167
0.6215206327
0.6215266249
0.6215284458
0.6215269239
0.6215215913
0.621506061
0.6214755433
0.6215060629
0.6215099872
0.6215099872
0.6215099872
0.6215236824
0.6215272917
0.6215288376
0.6215281455
0.6215261145
0.6215215912
0.6215156555
0.6215215911
0.621526115
0.6215265992
0.6215265992
0.6215265992
0.6215281782
0.6215291042
0.6215288322
0.6215281453
0.6215269238
0.6215257694
0.6215269232
0.621528145
0.6215288316
0.6215287677
0.6215287677
0.6215287677
0.621529225
0.6215291038
0.621528837
0.621528446
0.6215281658
0.6215284456
0.6215288374
0.6215291041
0.6215292246
)
;
    }
}


// ************************************************************************* //
