/*--------------------------------*- C++ -*----------------------------------*\
| =========                 |                                                 |
| \\      /  F ield         | OpenFOAM: The Open Source CFD Toolbox           |
|  \\    /   O peration     | Version:  4.x                                   |
|   \\  /    A nd           | Web:      www.OpenFOAM.org                      |
|    \\/     M anipulation  |                                                 |
\*---------------------------------------------------------------------------*/
FoamFile
{
    version     2.0;
    format      ascii;
    class       surfaceScalarField;
    location    "8000";
    object      phi;
}
// * * * * * * * * * * * * * * * * * * * * * * * * * * * * * * * * * * * * * //

dimensions      [1 0 -1 0 0 0 0];

internalField   nonuniform List<scalar> 
3172
(
9.497969593e-06
-9.618435295e-12
-1.001511986e-11
9.497990711e-06
-8.95050607e-12
-8.440421814e-12
9.498006408e-06
-7.071666105e-12
-4.334755403e-12
9.498011875e-06
-5.591939217e-12
-2.529416659e-12
9.498018838e-06
-4.215016592e-12
-2.312122601e-12
9.498020504e-06
-2.666156575e-12
-2.42125444e-12
9.498023949e-06
2.102958253e-13
-4.55015388e-13
9.498019585e-06
1.92656225e-13
6.8617285e-13
9.49801984e-06
9.677513679e-13
2.335739167e-12
9.498017125e-06
-2.191721811e-13
1.837686395e-12
9.498009851e-06
5.553631715e-13
2.058570461e-13
9.498007373e-06
1.858346006e-12
2.165221321e-12
9.498002318e-06
2.946262947e-12
2.762425822e-12
3.226081714e-12
1.64943461e-12
9.498013264e-06
-1.66055587e-11
-9.094092049e-12
9.498032257e-06
-1.71470314e-11
-1.069214221e-11
9.498045434e-06
-9.509856087e-12
-5.909114501e-12
9.498051322e-06
-5.098465177e-12
-3.85308476e-12
9.498054151e-06
-4.929890578e-12
-1.520735687e-12
9.498055682e-06
-2.509628725e-12
7.214742758e-14
9.498050419e-06
-3.517408215e-13
1.085495223e-12
9.498047174e-06
5.273546145e-13
2.043027459e-12
9.498044811e-06
6.51271621e-14
1.801593404e-12
9.498042556e-06
1.350001893e-12
3.577668894e-12
9.498037155e-06
1.589742212e-12
2.45723395e-12
9.498031999e-06
3.229799489e-12
1.475968202e-12
9.498028767e-06
3.475697339e-12
2.985244479e-12
2.153091471e-12
2.098693138e-12
9.498017112e-06
-1.365271111e-11
-1.762335578e-11
9.498035576e-06
-1.387350005e-11
-1.959267545e-11
9.498040786e-06
-5.810740651e-12
-8.038673281e-12
9.498037589e-06
-1.869176943e-12
-3.193157414e-12
9.49803727e-06
-1.195854399e-12
1.918330588e-12
9.498031802e-06
-1.184957788e-12
1.635090103e-12
9.498024675e-06
-1.699529319e-12
2.876084748e-12
9.498021649e-06
8.953182145e-13
3.940803215e-12
9.49801727e-06
3.573395477e-12
2.908975387e-12
9.498014151e-06
9.686071381e-13
3.029564417e-12
9.498012234e-06
2.934802421e-12
3.570807351e-12
9.49800632e-06
3.51699873e-12
3.618175947e-12
9.498002707e-06
3.836692586e-12
3.709066521e-12
3.735047849e-12
2.716085816e-12
9.498030965e-06
-6.503405186e-12
1.271699788e-12
9.498046917e-06
-3.991208181e-12
-2.302430873e-11
9.498047997e-06
2.80842322e-13
-7.70387217e-12
9.498039353e-06
1.767992908e-13
-1.068255059e-12
9.498033704e-06
4.640389152e-13
4.492725279e-12
9.498024868e-06
-9.40030532e-14
5.770589702e-12
9.498019921e-06
1.407430411e-12
7.18089302e-12
9.498014478e-06
1.761278882e-12
6.554531209e-12
9.498007481e-06
2.00773515e-12
5.433032514e-12
9.498006097e-06
1.657595361e-12
4.586145625e-12
9.498001467e-06
8.271687961e-13
3.110764336e-12
9.49799819e-06
8.276613253e-13
3.646288722e-12
9.497997103e-06
2.946866673e-13
3.8010132e-12
1.343605604e-12
3.819876199e-12
9.498052433e-06
6.463975065e-12
2.282411364e-11
9.498044706e-06
5.21310801e-12
1.08064544e-13
9.498030901e-06
1.227466019e-12
1.05471855e-11
9.498018674e-06
-4.725799031e-14
1.467723454e-11
9.498009158e-06
2.756124389e-13
1.251087599e-11
9.498001794e-06
-9.348048769e-14
1.014320226e-11
9.497995704e-06
4.906764739e-13
8.815993138e-12
9.497991554e-06
-9.723929277e-13
7.175429784e-12
9.497984556e-06
-2.28112623e-12
3.40735468e-12
9.497982735e-06
-1.33308545e-12
4.15587148e-12
9.497981024e-06
-1.562172608e-12
2.949872494e-12
9.497978322e-06
-2.081739014e-12
2.662600721e-12
9.497977869e-06
-6.905529948e-13
4.084743137e-12
-7.303328769e-14
3.301295344e-12
9.49800797e-06
1.279940642e-11
4.946014183e-13
9.498021322e-06
1.425516596e-11
-2.307104991e-11
9.498021396e-06
6.824066107e-12
-8.165840119e-12
9.498014612e-06
2.528679991e-12
3.835167881e-13
9.498009315e-06
1.524745571e-12
4.01791181e-12
9.498005427e-06
5.720019284e-13
7.106721539e-12
9.497997563e-06
-4.311967051e-13
5.321114786e-12
9.497992026e-06
-1.076165145e-12
6.285974146e-12
9.497987316e-06
-1.395911005e-12
6.067556775e-12
9.497984357e-06
-2.65092701e-12
5.731868949e-12
9.49798178e-06
-2.237571851e-12
5.03973402e-12
9.497979776e-06
-8.693965484e-13
3.248714216e-12
9.497976435e-06
-2.474413496e-12
4.443700469e-12
-2.417507223e-12
3.557660971e-12
9.498028556e-06
1.574159719e-11
-1.730044834e-11
9.498044661e-06
1.718290576e-11
-1.947067483e-11
9.498051988e-06
1.060103639e-11
-7.839524018e-12
9.498048332e-06
4.980212665e-12
-6.823579631e-13
9.498045669e-06
2.851276134e-12
1.355739569e-13
9.498040657e-06
1.115210966e-13
1.425197673e-12
9.498035404e-06
-5.240150549e-13
2.263988671e-12
9.498032664e-06
-4.156633942e-13
5.37153239e-12
9.498027347e-06
-1.064822639e-12
5.30219904e-12
9.49802595e-06
-1.762293397e-12
4.390530541e-12
9.498024225e-06
-1.753745708e-12
4.079524168e-12
9.498019447e-06
-2.999114108e-12
2.329140151e-12
9.498016009e-06
-6.021699873e-12
3.875025047e-12
-3.290999446e-12
4.111099882e-12
9.497983741e-06
8.929270801e-12
-8.436885376e-12
9.498000115e-06
8.391053853e-12
-1.136263321e-11
9.498012138e-06
5.623358166e-12
-6.464100448e-12
9.498018796e-06
4.406102733e-12
-4.006773359e-12
9.498022259e-06
2.319069255e-12
-1.950543388e-12
9.498023461e-06
1.210017327e-12
-6.209243779e-14
9.49802197e-06
6.227351944e-13
-4.328759393e-13
9.49801854e-06
-7.266586925e-13
3.159239809e-13
9.498014666e-06
-5.580309088e-13
1.075938375e-12
9.498012695e-06
-5.361115292e-13
4.028624321e-12
9.49800828e-06
-2.576244631e-12
3.02202092e-12
9.498004941e-06
-2.26531801e-12
3.113718028e-12
9.498001809e-06
-2.306201184e-12
4.700841028e-12
-3.112115552e-12
1.873901635e-12
9.497964753e-06
-9.28384078e-12
9.497983781e-06
-9.62644049e-12
9.497996866e-06
-4.389289042e-12
9.498003948e-06
-3.910151823e-12
9.498010078e-06
-1.846029301e-12
9.498016536e-06
-1.539491193e-12
9.49801516e-06
-1.082558278e-12
9.498013561e-06
1.262210266e-13
9.498009932e-06
1.498631389e-14
9.498008443e-06
1.061456612e-12
9.498005685e-06
1.918498594e-12
9.497999874e-06
2.302576888e-12
9.497995572e-06
3.255012055e-12
2.847666079e-12
9.497996201e-06
-4.923399531e-11
9.498012085e-06
-8.04810789e-12
-1.569930715e-11
9.498031619e-06
-1.125959446e-11
-1.586567688e-11
9.498041692e-06
-8.292387937e-12
-1.026332316e-11
9.498046921e-06
-5.111682953e-12
-7.881304876e-12
9.498050118e-06
-2.997801999e-12
-3.520647216e-12
9.4980519e-06
-1.576204505e-13
6.670685925e-13
9.498051674e-06
2.214243062e-12
1.786018286e-12
9.498046625e-06
1.598970548e-12
1.627274121e-13
9.498044413e-06
1.88454786e-12
1.204193312e-12
9.498040001e-06
2.618379793e-12
1.972199374e-12
9.498038096e-06
3.622765317e-12
1.354052838e-12
9.498034017e-06
2.738945188e-12
3.323227006e-12
9.498027426e-06
4.022519131e-12
4.80751818e-12
4.633400449e-12
5.265619125e-12
9.497977988e-06
-1.159316455e-11
-1.343345697e-11
9.497993466e-06
-2.154069433e-11
-2.189287111e-11
9.498001548e-06
-1.184068781e-11
-1.174247319e-11
9.498001303e-06
-5.330685524e-12
-6.221861515e-12
9.498000177e-06
-2.808727476e-12
-1.401962494e-12
9.497999057e-06
-3.633539826e-13
4.332930452e-13
9.497993861e-06
2.0969525e-12
1.572210341e-12
9.497988477e-06
2.997239827e-12
2.889758378e-12
9.497987479e-06
1.93408298e-12
2.837666045e-12
9.497983243e-06
1.959927024e-12
1.456031709e-12
9.497979298e-06
4.163405073e-12
2.126613161e-12
9.497979736e-06
6.355311852e-12
4.309698215e-12
9.497975157e-06
5.584112649e-12
4.323686582e-12
3.968063065e-12
4.108378135e-12
9.498000977e-06
-1.676852401e-12
-2.163542777e-11
9.498007603e-06
-1.532722269e-11
-2.843193103e-11
9.498001498e-06
-4.80788322e-12
-8.022644698e-12
9.497990295e-06
-9.72971955e-13
1.681307799e-12
9.497981781e-06
2.607507697e-12
7.038208403e-12
9.497975721e-06
3.578750529e-12
8.995178765e-12
9.497969347e-06
2.792856577e-12
5.97749401e-12
9.497963203e-06
3.235627051e-12
5.057911159e-12
9.497962203e-06
4.878473918e-12
5.573789021e-12
9.497960487e-06
2.935547328e-12
3.249670875e-12
9.49795753e-06
1.720122376e-12
3.425746868e-12
9.497954226e-06
2.633502063e-12
2.872785467e-12
9.497951479e-06
3.227536563e-12
5.231917173e-12
4.407305373e-12
6.029519675e-12
9.498042164e-06
1.552853037e-11
4.64523414e-11
9.49804347e-06
3.558506066e-13
-3.766647865e-11
9.498030458e-06
3.243117456e-12
-5.395758428e-12
9.498020062e-06
6.139908893e-12
1.006031265e-11
9.498005737e-06
3.49127859e-12
1.155194285e-11
9.497998806e-06
2.597968311e-12
1.357510374e-11
9.497994733e-06
2.466956571e-12
1.213684052e-11
9.497994204e-06
2.610949171e-12
9.04026429e-12
9.497991414e-06
9.246727867e-13
5.863250278e-12
9.49799291e-06
1.015384457e-12
5.728531411e-12
9.497992306e-06
4.597130127e-13
4.135465346e-12
9.49799252e-06
6.734649075e-13
3.641225673e-12
9.497993702e-06
2.210193605e-13
6.055515015e-12
1.315879459e-12
6.374729822e-12
9.498088769e-06
-1.682964625e-11
2.250728224e-10
9.498034653e-06
3.568819231e-13
5.621352744e-11
9.498006177e-06
-1.798969209e-12
4.66982239e-11
9.497986676e-06
-5.206279106e-12
4.054130519e-11
9.497977e-06
-4.098795709e-12
2.848132078e-11
9.497974466e-06
-2.45555614e-12
2.134669522e-11
9.497972367e-06
-2.862489237e-12
1.359647757e-11
9.49797035e-06
-3.180865009e-12
9.616186194e-12
9.497972028e-06
-1.338066557e-12
7.555695378e-12
9.497972176e-06
-1.529970609e-12
5.813456878e-12
9.497975653e-06
-5.076272758e-13
5.087179993e-12
9.497975557e-06
-2.307914166e-12
3.969426165e-12
9.497975532e-06
-1.734058222e-12
7.054398796e-12
-8.928828854e-13
7.336916816e-12
9.498064971e-06
3.107180538e-12
4.609717697e-11
9.498064321e-06
1.65696969e-11
-3.742695262e-11
9.498052604e-06
4.969642878e-12
-4.996662528e-12
9.49803794e-06
1.606550276e-13
1.02379017e-11
9.49802748e-06
-1.961352621e-12
1.367651875e-11
9.498020888e-06
-4.798661993e-12
1.503992541e-11
9.498017455e-06
-3.785629585e-12
1.298629413e-11
9.498013144e-06
-2.796724069e-12
1.011781084e-11
9.498013223e-06
-1.86882268e-12
8.787809451e-12
9.498013179e-06
-3.279641626e-12
6.621123918e-12
9.498011892e-06
-3.68687463e-12
4.773402566e-12
9.498015607e-06
-2.743221086e-12
4.542301075e-12
9.49801665e-06
-3.536962507e-12
6.758409466e-12
-3.155227063e-12
5.683881491e-12
9.497984896e-06
1.179635457e-11
-1.928905631e-11
9.497988637e-06
2.106021166e-11
-2.97245763e-11
9.497983597e-06
1.250741356e-11
-7.904814701e-12
9.497972032e-06
3.608234479e-12
1.603839543e-12
9.497963034e-06
1.680182933e-12
6.243101648e-12
9.497957178e-06
-1.034908814e-12
9.103957617e-12
9.497952866e-06
-3.712133044e-12
9.775216972e-12
9.497947181e-06
-5.047173505e-12
8.225735796e-12
9.497944011e-06
-5.61336241e-12
6.799780058e-12
9.497944919e-06
-2.870581477e-12
4.740210262e-12
9.497943106e-06
-3.848989721e-12
4.007908658e-12
9.497942778e-06
-2.856968119e-12
4.758512185e-12
9.497940801e-06
-4.721222919e-12
5.77355306e-12
-5.083519734e-12
4.02945151e-12
9.498049323e-06
7.472375933e-12
-1.303682933e-11
9.498064385e-06
1.102171951e-11
-2.10543242e-11
9.498072849e-06
7.910711016e-12
-1.226494151e-11
9.498075902e-06
5.087588232e-12
-4.507021926e-12
9.49807425e-06
2.651031542e-12
-1.548446938e-12
9.498071266e-06
-6.526504598e-13
2.217553426e-12
9.498069487e-06
-1.761005999e-14
5.113757537e-12
9.498063678e-06
-2.276827243e-13
5.975827853e-12
9.498061305e-06
-1.343351852e-12
5.847417686e-12
9.498055784e-06
-3.131208694e-12
3.683233171e-12
9.498052784e-06
-3.042974167e-12
3.713933306e-12
9.498049566e-06
-2.7781993e-12
1.411588678e-12
9.498046703e-06
-3.294075191e-12
4.662834582e-12
-2.661615066e-12
3.941305557e-12
9.497928209e-06
-1.53748313e-11
9.497947207e-06
-1.732755237e-11
9.497955804e-06
-1.165204967e-11
9.497963493e-06
-6.112475892e-12
9.497964801e-06
-2.36900899e-12
9.497967212e-06
2.904417771e-13
9.497965721e-06
1.153365694e-12
9.49796036e-06
1.493779302e-12
9.497958523e-06
3.767879547e-12
9.497955778e-06
2.219119737e-12
9.49795222e-06
2.238829786e-12
9.497948533e-06
1.132721983e-12
9.49794477e-06
3.955994595e-12
3.971203317e-12
9.497987979e-06
-8.578605508e-11
-6.260194464e-11
9.498000548e-06
-1.612759143e-11
-1.390894625e-11
9.498017162e-06
-1.941120324e-11
-1.427210949e-11
9.498021038e-06
-7.900212814e-12
-6.079359247e-12
9.498021898e-06
-1.210769314e-12
-2.998564134e-12
9.498018216e-06
7.708619851e-13
-3.152653311e-12
9.498012992e-06
2.200590864e-12
1.905103017e-13
9.498009254e-06
3.74488106e-12
1.460715864e-12
9.498003964e-06
5.093154223e-12
1.6442186e-12
9.497999925e-06
3.795094439e-12
7.085161689e-13
9.497994374e-06
4.121912611e-12
3.677522394e-13
9.497992984e-06
5.701703949e-12
1.66697e-12
9.497990571e-06
4.626241867e-12
2.901425361e-12
9.497986167e-06
4.369892646e-12
3.5848613e-12
4.518023796e-12
3.984591123e-12
9.498101193e-06
-1.143736463e-10
9.498092096e-06
-1.929553513e-11
-2.706871154e-12
9.498097329e-06
-2.809158064e-11
-1.692767151e-11
9.498091428e-06
-7.617708518e-12
-6.900126574e-12
9.49808136e-06
2.267297753e-12
-2.236710415e-12
9.498070378e-06
5.460983286e-12
-4.028978129e-13
9.498063749e-06
8.345125013e-12
2.909295604e-12
9.498057754e-06
6.973171899e-12
4.28185409e-12
9.498051927e-06
5.569691202e-12
3.398676905e-12
9.498052789e-06
5.961946844e-12
2.676087188e-12
9.498049365e-06
4.595783515e-12
1.170042345e-12
9.498048209e-06
5.59035602e-12
1.38292734e-12
9.498048823e-06
5.011250376e-12
2.336305418e-12
9.498047314e-06
7.201658926e-12
5.00028149e-12
6.302340145e-12
4.73867989e-12
9.498124119e-06
1.795465472e-11
1.57316918e-11
9.498083971e-06
-1.060589612e-11
-1.146619632e-11
9.498047274e-06
1.120998265e-11
1.064992831e-11
9.498021404e-06
1.568570668e-11
1.438674367e-11
9.498005344e-06
1.264810541e-11
1.281087346e-11
9.497998533e-06
1.115779965e-11
1.044595294e-11
9.49799861e-06
1.047352355e-11
1.092112133e-11
9.497996845e-06
7.464552874e-12
8.273190642e-12
9.498000102e-06
6.772979294e-12
7.716420019e-12
9.498003319e-06
5.478693284e-12
5.220732084e-12
9.498004731e-06
3.641976461e-12
3.847487888e-12
9.498007968e-06
3.301135487e-12
3.842267146e-12
9.498009311e-06
5.463861209e-12
2.633125922e-12
4.933441774e-12
3.758472853e-12
9.498073459e-06
8.301623439e-11
2.011957288e-10
9.498015078e-06
2.501011484e-11
-9.553145926e-12
9.497970593e-06
2.20567929e-11
2.533401516e-11
9.497947343e-06
1.819913763e-11
3.159971818e-11
9.497941741e-06
1.081403156e-11
2.318485231e-11
9.497942233e-06
7.064866377e-12
1.748259565e-11
9.497947996e-06
4.380602262e-12
1.287828677e-11
9.497954454e-06
4.467184118e-12
1.071402287e-11
9.497961742e-06
4.298452484e-12
6.336412998e-12
9.497967477e-06
1.870263549e-12
4.270294886e-12
9.497973296e-06
2.240106364e-12
4.703572809e-12
9.497979908e-06
1.847344887e-12
2.889137343e-12
9.497982711e-06
2.00970998e-12
3.998821125e-12
3.394302897e-12
4.603013474e-12
9.498227684e-06
-8.361929276e-11
9.980016269e-10
9.498019016e-06
-2.323862332e-11
3.080850648e-10
9.497963361e-06
-2.140661249e-11
1.515763358e-10
9.497954264e-06
-1.650549012e-11
8.923084594e-11
9.497963433e-06
-1.007486111e-11
4.497357931e-11
9.497975675e-06
-5.640350373e-12
2.309992575e-11
9.497990157e-06
-4.641616201e-12
1.160303045e-11
9.497998067e-06
-3.552905598e-12
6.851803565e-12
9.498007235e-06
-2.865757393e-12
3.809154893e-12
9.498014935e-06
-2.570189511e-12
1.531344888e-12
9.49802116e-06
-1.985972865e-12
2.599623642e-12
9.498026885e-06
-2.862702978e-12
2.104219516e-12
9.498031943e-06
-2.329269711e-12
3.171883247e-12
-2.712134562e-12
3.745919188e-12
9.498092485e-06
-1.525960618e-11
2.010420832e-10
9.49802904e-06
1.009902969e-11
-1.229358692e-11
9.497986187e-06
-1.157011384e-11
2.465653084e-11
9.497964637e-06
-1.55488474e-11
3.038627377e-11
9.49795822e-06
-1.334327954e-11
2.380576434e-11
9.497959794e-06
-1.326045455e-11
1.738137955e-11
9.497965347e-06
-8.653017002e-12
1.135931492e-11
9.497973474e-06
-6.455942849e-12
1.021858959e-11
9.497978297e-06
-4.972939661e-12
6.557003693e-12
9.497985097e-06
-5.468098743e-12
4.458369452e-12
9.49799137e-06
-4.465602995e-12
5.385644964e-12
9.497998195e-06
-3.534465016e-12
4.713732641e-12
9.498002509e-06
-5.428213416e-12
6.41644025e-12
-5.82880044e-12
5.981755905e-12
9.498098806e-06
1.678907968e-11
1.436326678e-11
9.498061431e-06
2.847902576e-11
-1.23843303e-11
9.498022042e-06
7.771920417e-12
9.549531048e-12
9.497993622e-06
-1.991028915e-12
1.462567313e-11
9.497979461e-06
-6.438759343e-12
1.401606379e-11
9.497975802e-06
-7.443396434e-12
1.201533789e-11
9.497971517e-06
-7.756905542e-12
7.519448595e-12
9.497970366e-06
-6.908620694e-12
7.238879557e-12
9.497969893e-06
-7.023258548e-12
6.294162276e-12
9.497976969e-06
-3.270557336e-12
6.779270889e-12
9.497979562e-06
-3.737187205e-12
5.710627349e-12
9.497983174e-06
-5.524632845e-12
6.291872836e-12
9.497984218e-06
-5.019333657e-12
7.148360071e-12
-5.481753125e-12
6.602230464e-12
9.497988735e-06
1.796150366e-11
-1.758001123e-12
9.497993541e-06
1.919115133e-11
-1.693229245e-11
9.497985933e-06
7.466152387e-12
-8.494084471e-12
9.49797445e-06
1.681490284e-12
-1.461797397e-12
9.497966099e-06
8.556484969e-14
1.620470978e-12
9.497959027e-06
-4.36536688e-12
2.090730574e-12
9.497952717e-06
-4.636248981e-12
2.385157914e-12
9.497947718e-06
-4.109218582e-12
3.842958951e-12
9.497946263e-06
-3.793951318e-12
3.885624608e-12
9.497944884e-06
-4.191575899e-12
2.800954437e-12
9.497942973e-06
-3.96788246e-12
3.196671403e-12
9.497946389e-06
-2.657531129e-12
3.846005415e-12
9.497942932e-06
-4.055613451e-12
3.431776704e-12
-3.113009585e-12
4.047592312e-12
9.498045133e-06
-1.325108845e-11
9.498062122e-06
-1.520368919e-11
9.498065904e-06
-8.553711804e-12
9.498064381e-06
-5.081004396e-12
9.498062343e-06
-2.109977428e-12
9.498057429e-06
-1.532663414e-13
9.498054574e-06
-5.98329707e-13
9.49804834e-06
1.911961968e-12
9.498042282e-06
2.035823667e-12
9.49803861e-06
2.263780421e-12
9.498035154e-06
2.622511696e-12
9.498034814e-06
2.382976804e-12
9.498031424e-06
2.49513995e-12
2.756625293e-12
9.498018512e-06
-1.222374288e-10
-5.948422481e-11
9.498012318e-06
2.244854069e-12
-6.713172976e-12
9.498026259e-06
-2.428417396e-11
-5.335548288e-12
9.498025011e-06
-9.071022506e-12
-1.747307185e-12
9.498020038e-06
-1.054473877e-12
-1.616640488e-13
9.498017044e-06
4.674717328e-12
5.013137857e-13
9.49800589e-06
6.200663665e-12
-1.292427572e-12
9.497999041e-06
6.287973034e-12
-1.859474892e-12
9.497995003e-06
6.224757634e-12
1.574119612e-12
9.49798964e-06
4.942051868e-12
-4.25035114e-13
9.497985568e-06
4.273743187e-12
-2.001626526e-13
9.497983736e-06
4.584250954e-12
1.61359474e-13
9.49798296e-06
5.010584567e-12
-6.319468861e-13
9.497978479e-06
5.330168607e-12
6.815242904e-13
4.860655707e-12
1.116776974e-12
9.498069262e-06
-2.849090116e-10
-1.163026787e-10
9.498005686e-06
4.671825534e-11
1.634609835e-11
9.498003072e-06
-3.636257627e-11
6.0856476e-13
9.497991298e-06
-4.558365375e-12
1.999328354e-12
9.497978355e-06
1.035394945e-11
4.275842006e-12
9.497968143e-06
1.461789912e-11
3.510170158e-12
9.497958458e-06
1.354632664e-11
1.651599129e-12
9.497954055e-06
1.186127913e-11
1.18761263e-12
9.497950945e-06
1.039207571e-11
1.041611797e-12
9.497952274e-06
9.865762325e-12
2.563970345e-12
9.497953678e-06
9.284320824e-12
2.189622691e-12
9.497956476e-06
7.10319501e-12
7.691255277e-13
9.497956507e-06
4.876293019e-12
-6.246764466e-13
9.497956912e-06
4.599884701e-12
7.687355787e-13
4.787483532e-12
1.164095741e-12
9.49833143e-06
-3.577589155e-10
9.498111718e-06
2.026451708e-10
8.330829011e-11
9.498049511e-06
-9.208512847e-12
2.312642224e-11
9.498007169e-06
2.548862088e-11
2.180561118e-11
9.497988339e-06
3.266293761e-11
1.830497774e-11
9.497981561e-06
2.298038165e-11
1.03555468e-11
9.497983026e-06
1.784978234e-11
7.663318251e-12
9.497988101e-06
1.230278262e-11
5.37480788e-12
9.497995636e-06
1.04794332e-11
3.064943303e-12
9.498000744e-06
5.85568521e-12
6.482507852e-13
9.498007253e-06
5.00668802e-12
4.980303475e-13
9.498013826e-06
3.417065631e-12
-3.901396737e-13
9.498015691e-06
2.204116388e-12
8.484160812e-13
9.498022321e-06
6.086122218e-12
2.343677139e-12
5.249905834e-12
2.687163069e-12
9.497837066e-06
4.175078593e-10
4.168683056e-10
9.497860834e-06
-2.124150537e-11
-2.093314093e-11
9.497874456e-06
2.004239151e-11
1.849387109e-11
9.49788828e-06
2.383985495e-11
2.370331095e-11
9.497909975e-06
1.208564554e-11
1.304715846e-11
9.497928882e-06
6.677051002e-12
6.66651001e-12
9.497946332e-06
3.844705463e-12
4.659562507e-12
9.49795748e-06
2.295367317e-12
2.422079852e-12
9.49796941e-06
2.442609805e-12
1.691578103e-12
9.497975971e-06
7.849163979e-13
9.749575671e-13
9.497981957e-06
1.619696861e-12
1.413251922e-12
9.497989444e-06
1.177204567e-12
1.223940593e-12
9.497996001e-06
1.671325571e-12
2.727376784e-12
2.770778473e-12
2.483954722e-12
9.497620858e-06
-4.185644288e-10
3.253328362e-09
9.497650849e-06
2.067239298e-11
2.430820447e-10
9.497750127e-06
-1.971974375e-11
9.419166977e-11
9.497820084e-06
-2.520794525e-11
6.577780185e-11
9.497867491e-06
-1.293044286e-11
2.445850479e-11
9.497898781e-06
-7.034743395e-12
8.345752894e-12
9.497919557e-06
-4.397697787e-12
3.328518602e-12
9.497932279e-06
-1.656449401e-12
2.262967593e-12
9.497938914e-06
-1.335662222e-12
5.329878245e-13
9.497947248e-06
-1.84210706e-12
1.883674062e-13
9.497952592e-06
-8.377318368e-13
-1.836712406e-12
9.497958305e-06
-1.089930513e-12
-5.690997134e-13
9.49796687e-06
1.810109251e-13
1.573827618e-12
-1.42371284e-12
2.263700982e-12
9.497867544e-06
-2.014335946e-10
4.149198023e-10
9.497892697e-06
9.810522669e-12
-2.351393498e-11
9.497904155e-06
-2.704791845e-11
1.714730172e-11
9.497921842e-06
-3.169267315e-11
2.268488543e-11
9.49794245e-06
-2.387926749e-11
1.084830158e-11
9.497962685e-06
-1.910814206e-11
6.151073833e-12
9.49798321e-06
-1.36685328e-11
5.079780354e-12
9.497992925e-06
-9.101973192e-12
3.067617305e-12
9.498002971e-06
-6.085473856e-12
1.980487527e-12
9.498012596e-06
-4.736606948e-12
4.009917888e-13
9.498017083e-06
-4.497929208e-12
8.314899578e-13
9.49802636e-06
-2.541916676e-12
1.67609022e-12
9.498030164e-06
-5.315377003e-12
1.603410934e-12
-4.824343971e-12
2.208789256e-12
9.498070996e-06
-4.649874476e-11
8.020004248e-11
9.498009229e-06
3.743483834e-11
2.150545399e-11
9.497968971e-06
4.5322394e-12
2.047281807e-11
9.497947076e-06
-1.001430128e-11
1.570875164e-11
9.49794026e-06
-1.402977261e-11
8.693699627e-12
9.497942004e-06
-1.461537421e-11
6.0735759e-12
9.497951859e-06
-1.166922892e-11
5.532428434e-12
9.497957008e-06
-9.313861228e-12
2.674558271e-12
9.497961712e-06
-7.880351029e-12
2.305739758e-12
9.497969484e-06
-6.965235561e-12
2.645244378e-12
9.497975211e-06
-6.180051237e-12
2.116557745e-12
9.497980228e-06
-6.573376201e-12
5.387206997e-13
9.497985772e-06
-8.94816915e-12
5.353804396e-13
-7.960549442e-12
9.899248374e-13
9.498086633e-06
-1.060393841e-12
1.535339974e-11
9.498083889e-06
2.299401508e-11
-5.260134161e-13
9.498072556e-06
8.311881391e-12
1.901589431e-12
9.498058416e-06
-1.148152427e-12
1.554997469e-12
9.498046718e-06
-3.301875797e-12
2.59108091e-12
9.498039429e-06
-5.754054493e-12
2.812816492e-12
9.498035526e-06
-7.202740518e-12
1.450105615e-12
9.498030389e-06
-6.557392634e-12
6.291942464e-13
9.498027373e-06
-5.8028017e-12
9.018285741e-13
9.49803033e-06
-4.459533808e-12
2.466829834e-12
9.498028213e-06
-4.844144123e-12
1.265288189e-12
9.498030312e-06
-4.533411114e-12
2.338914787e-12
9.498031386e-06
-4.71119938e-12
1.984276795e-12
-3.22593529e-12
2.084985125e-12
9.498040276e-06
-5.653016255e-12
9.498054404e-06
-4.623425993e-12
9.498054385e-06
-2.482081102e-12
9.498049234e-06
-1.85887847e-13
9.498040725e-06
1.647092828e-12
9.498033448e-06
3.366457739e-14
9.498030222e-06
4.994229762e-13
9.498022493e-06
2.133717201e-13
9.498015941e-06
-3.716803518e-14
9.49801279e-06
1.770872555e-12
9.498011159e-06
2.17434886e-12
9.49800986e-06
1.973944966e-12
9.498008535e-06
1.876198649e-12
8.935686432e-13
9.49810127e-06
-3.313208158e-10
5.749292392e-11
9.498070674e-06
2.578419459e-11
6.965028628e-12
9.498062157e-06
1.071548527e-12
4.599181723e-12
9.498048211e-06
1.164113193e-11
-8.391457078e-13
9.498036206e-06
1.447743181e-11
-2.989957643e-12
9.49802655e-06
1.400900765e-11
-2.513931982e-12
9.498019053e-06
1.189799168e-11
-1.991644427e-12
9.498015171e-06
9.389697107e-12
-3.57483294e-13
9.498005598e-06
6.225725203e-12
-2.061425945e-12
9.498005019e-06
7.315182365e-12
-1.080735509e-12
9.498001912e-06
5.658414869e-12
3.275592324e-13
9.498002084e-06
5.397695191e-12
2.795326476e-14
9.498000172e-06
4.16448449e-12
-1.479053867e-13
9.49799606e-06
4.955783758e-12
-1.567627533e-12
5.275373415e-12
-2.00714249e-12
9.498302321e-06
-9.340650715e-10
1.166965803e-10
9.498133843e-06
2.245561315e-10
-1.742896718e-11
9.498081702e-06
5.58529755e-11
-4.015205763e-13
9.498050569e-06
4.672094707e-11
-3.222126256e-12
9.498032971e-06
4.336575648e-11
-4.541596604e-12
9.498021602e-06
2.905044957e-11
-3.412863688e-12
9.498018003e-06
2.176756914e-11
-3.317049864e-12
9.498015161e-06
1.582988419e-11
-2.541220658e-12
9.498014762e-06
1.06455787e-11
-1.304362306e-12
9.498014549e-06
6.824507413e-12
-7.712912435e-13
9.498016408e-06
6.498044326e-12
-7.064770491e-13
9.498021774e-06
5.693559167e-12
-8.96218104e-13
9.498025754e-06
5.941021053e-12
-1.709317309e-12
9.49802579e-06
6.834013192e-12
-1.695915043e-12
6.861140696e-12
-1.651031803e-12
9.498806836e-06
-2.569778237e-09
3.551019391e-10
9.498199669e-06
9.983075024e-10
-8.540051305e-11
9.497988904e-06
3.10024741e-10
-2.558762873e-11
9.4979344e-06
1.514309155e-10
-2.256831044e-11
9.49792441e-06
8.976782092e-11
-1.892203889e-11
9.497932033e-06
4.504594331e-11
-1.206862355e-11
9.497944389e-06
2.253692713e-11
-8.198578661e-12
9.497957129e-06
1.221687212e-11
-3.924729568e-12
9.497966777e-06
9.092296372e-12
-3.639730374e-12
9.497977522e-06
5.841973215e-12
-1.751379806e-12
9.497983129e-06
3.499193182e-12
-1.104358561e-12
9.497990001e-06
3.17916351e-12
-1.396115406e-12
9.49799429e-06
3.496817723e-12
-7.826396585e-13
9.49799924e-06
5.856159534e-12
-1.81121442e-12
5.601285471e-12
-1.346483016e-13
9.499074354e-06
6.028006307e-10
9.497659084e-06
3.254596552e-09
-4.192448917e-10
9.497685925e-06
2.430011778e-10
1.935252084e-11
9.497789142e-06
9.565169051e-11
-1.975429988e-11
9.497858136e-06
6.569575352e-11
-2.514291268e-11
9.497904566e-06
2.358741807e-11
-1.426689417e-11
9.497938601e-06
9.299438065e-12
-8.532159453e-12
9.497958894e-06
3.00187875e-12
-4.976331312e-12
9.497969669e-06
1.447273252e-12
-3.858133836e-12
9.497978818e-06
5.560499191e-13
-1.931435332e-12
9.497986814e-06
7.33067381e-13
-1.252785752e-12
9.497995311e-06
-7.33639724e-13
-2.023556478e-12
9.498000596e-06
-7.696525528e-13
-6.783449482e-14
9.498006262e-06
8.061339125e-13
2.164271666e-14
2.116580229e-12
-2.270600133e-13
9.526446282e-06
-3.25656062e-09
-3.257114749e-09
9.527449432e-06
-2.45869413e-10
-2.45756196e-10
9.527855406e-06
-9.661686898e-11
-9.566568911e-11
9.528144133e-06
-6.91260729e-11
-6.855589078e-11
9.528268598e-06
-2.614375542e-11
-2.742363261e-11
9.528328667e-06
-1.044459246e-11
-1.019157096e-11
9.52836468e-06
-3.35908664e-12
-3.870812653e-12
9.528386945e-06
-1.022476469e-12
-1.879269941e-12
9.528410217e-06
-2.562874741e-13
-7.471348979e-14
9.528432632e-06
-5.906364331e-13
2.988651656e-13
9.528457239e-06
1.042756046e-12
1.544218893e-12
9.528476041e-06
2.956105799e-14
6.180614515e-13
9.528502554e-06
-1.060973865e-12
-1.539126398e-12
-1.642327926e-12
-1.056938134e-12
9.497700032e-06
-9.989006391e-10
-4.172509147e-10
9.49772731e-06
-3.093850684e-10
2.025803973e-11
9.497829165e-06
-1.526722123e-10
-2.018966713e-11
9.497898742e-06
-9.012622324e-11
-2.5079415e-11
9.497945252e-06
-4.539178084e-11
-1.437228494e-11
9.497976594e-06
-2.519112373e-11
-9.173409122e-12
9.497997883e-06
-1.397973043e-11
-5.548978479e-12
9.498007748e-06
-8.496053099e-12
-3.523960541e-12
9.498016167e-06
-5.390061641e-12
-1.957809415e-12
9.498023395e-06
-2.117153445e-12
-1.458482846e-12
9.498027501e-06
-2.250406811e-12
-1.300862971e-12
9.498034487e-06
-3.30842436e-12
-7.486025856e-13
9.498042213e-06
-6.143344259e-12
-2.402690914e-12
-5.640416294e-12
-1.33387363e-12
9.498170361e-06
-2.243072816e-10
-8.336784972e-11
9.497958059e-06
-5.470846531e-11
-2.625041887e-11
9.49790168e-06
-4.695105464e-11
-2.366462943e-11
9.497892668e-06
-4.277970731e-11
-1.788431371e-11
9.497901474e-06
-2.901789487e-11
-1.082855608e-11
9.497916222e-06
-1.979425059e-11
-7.629217286e-12
9.497928205e-06
-1.487123731e-11
-5.569940252e-12
9.497937382e-06
-1.10821808e-11
-4.850391604e-12
9.49794579e-06
-7.367487382e-12
-3.247178016e-12
9.49795272e-06
-6.853776705e-12
-2.561758184e-12
9.497958655e-06
-6.722968606e-12
-2.42438264e-12
9.497965359e-06
-5.147289886e-12
-1.329843538e-12
9.497973544e-06
-7.356065641e-12
-1.591110713e-12
-6.84944751e-12
-2.439074935e-12
9.49808592e-06
-2.186913362e-11
-1.681772234e-11
9.498030651e-06
-1.649925196e-13
-5.031310241e-12
9.498002275e-06
-1.166054174e-11
-4.300854622e-12
9.497985624e-06
-1.398867238e-11
-3.073149577e-12
9.497974779e-06
-1.075731707e-11
-2.275813097e-12
9.497968738e-06
-1.088182636e-11
-3.289178129e-12
9.497967991e-06
-9.454647426e-12
-2.946859549e-12
9.497967583e-06
-6.063617359e-12
-4.060374281e-12
9.497968261e-06
-5.3836252e-12
-3.274163971e-12
9.497969545e-06
-3.852640919e-12
-6.46909729e-13
9.497972684e-06
-3.084690237e-12
-9.318906679e-13
9.497974207e-06
-4.692106958e-12
-1.542738357e-12
9.497977434e-06
-4.90240572e-12
-9.052257343e-13
-4.568018881e-12
-1.481230292e-12
9.498026028e-06
5.00098411e-12
9.498016762e-06
1.748476576e-12
9.498006034e-06
-1.317080975e-12
9.497995823e-06
-1.673264747e-12
9.497983532e-06
-2.025848229e-12
9.497976173e-06
-8.650395482e-13
9.497972579e-06
-3.706563077e-13
9.497965553e-06
-1.428344286e-12
9.497961069e-06
-2.073917056e-12
9.497957167e-06
-9.84301075e-13
9.497954399e-06
-1.05501091e-12
9.497954919e-06
-3.484101735e-13
9.497955046e-06
6.060853182e-13
-1.787575925e-12
9.498033448e-06