/*--------------------------------*- C++ -*----------------------------------*\
| =========                 |                                                 |
| \\      /  F ield         | OpenFOAM: The Open Source CFD Toolbox           |
|  \\    /   O peration     | Version:  4.x                                   |
|   \\  /    A nd           | Web:      www.OpenFOAM.org                      |
|    \\/     M anipulation  |                                                 |
\*---------------------------------------------------------------------------*/
FoamFile
{
    version     2.0;
    format      ascii;
    class       volScalarField;
    location    "8000";
    object      rho;
}
// * * * * * * * * * * * * * * * * * * * * * * * * * * * * * * * * * * * * * //

dimensions      [1 -3 0 0 0 0 0];

internalField   nonuniform List<scalar> 
1174
(
0.2797544505
0.2797546777
0.2797549943
0.2797554366
0.2797559783
0.279756568
0.2797572572
0.2797580379
0.2797588087
0.279759593
0.279760381
0.2797611247
0.2797618235
0.2797623653
0.2797556222
0.2797559914
0.2797565153
0.2797571415
0.2797578179
0.2797585758
0.2797594354
0.2797602557
0.279761073
0.279761874
0.2797626514
0.279763433
0.2797641121
0.2797645945
0.2797555117
0.2797561672
0.2797570073
0.2797579722
0.2797589773
0.2797600286
0.2797610185
0.2797619629
0.279762851
0.2797637046
0.2797644464
0.2797651339
0.2797657303
0.2797661375
0.2797563207
0.2797573401
0.2797585096
0.279759815
0.2797610556
0.2797622638
0.2797633734
0.2797643483
0.2797652066
0.2797659524
0.2797666293
0.2797671889
0.2797677021
0.2797680469
0.2797562164
0.2797574824
0.27975884
0.2797602068
0.2797615664
0.279762788
0.2797639018
0.2797648805
0.279765715
0.2797664152
0.2797670633
0.2797675634
0.2797679815
0.2797683089
0.279755596
0.2797566404
0.2797578597
0.2797591133
0.2797603662
0.2797615757
0.2797627094
0.2797637003
0.2797646014
0.2797653593
0.2797660404
0.2797666013
0.2797670684
0.2797673845
0.2797558691
0.2797565342
0.2797573348
0.2797582722
0.2797593271
0.2797603515
0.2797613694
0.2797623136
0.2797632338
0.2797640361
0.2797647612
0.2797654627
0.2797661049
0.2797665336
0.2797547156
0.2797551142
0.2797555871
0.2797562104
0.2797568835
0.2797577034
0.2797585218
0.2797593659
0.2797601878
0.2797610402
0.2797618607
0.2797626036
0.279763299
0.2797638438
0.2797542375
0.279754475
0.2797548008
0.2797552507
0.279755804
0.2797564054
0.279757114
0.2797578361
0.2797585909
0.2797593624
0.2797601278
0.2797608862
0.2797615728
0.2797621474
0.2797552887
0.2797555675
0.2797559335
0.2797564468
0.2797570859
0.2797577747
0.2797585384
0.2797593682
0.2797602182
0.2797610985
0.2797618957
0.2797626667
0.2797634199
0.2797641109
0.2797646125
0.2797547105
0.2797553768
0.2797561489
0.2797570266
0.279757966
0.2797589507
0.279759903
0.2797607954
0.2797616313
0.2797624235
0.2797631261
0.2797637925
0.2797643654
0.2797648415
0.2797555351
0.2797568348
0.2797582458
0.279759641
0.2797609759
0.2797621874
0.2797631923
0.2797640715
0.2797648337
0.2797654617
0.2797659691
0.2797664023
0.2797667307
0.2797669846
0.2797589639
0.279761121
0.2797632149
0.2797650049
0.2797664584
0.2797676139
0.2797685357
0.279769241
0.2797697098
0.2797700904
0.2797703504
0.2797705428
0.2797706544
0.2797707029
0.2797605336
0.2797631206
0.2797653617
0.2797671631
0.2797684549
0.2797694437
0.2797701235
0.2797706034
0.2797709284
0.2797711407
0.2797712308
0.2797712666
0.2797712377
0.2797711587
0.2797596006
0.279761821
0.2797638664
0.2797656448
0.2797671173
0.2797682879
0.2797691934
0.2797698749
0.2797703773
0.2797707278
0.2797710026
0.2797711876
0.2797713292
0.2797713754
0.2797550573
0.2797563131
0.2797577623
0.2797591454
0.2797604523
0.2797616772
0.2797627096
0.2797635837
0.2797643421
0.2797649852
0.279765567
0.2797659772
0.2797663712
0.2797665783
0.279756717
0.2797574255
0.2797582671
0.2797591954
0.2797601796
0.2797611621
0.2797620977
0.2797629899
0.279763806
0.2797645931
0.2797653273
0.2797659662
0.279766506
0.2797669207
0.2797531095
0.279753512
0.2797540181
0.2797546077
0.2797553096
0.2797560647
0.2797568986
0.2797577344
0.2797585854
0.2797594118
0.2797601954
0.2797609196
0.2797615673
0.2797621021
0.2797545598
0.2797550147
0.2797556741
0.2797565208
0.2797574601
0.2797584572
0.2797594657
0.2797604818
0.2797615065
0.2797623835
0.2797631759
0.2797639077
0.2797646118
0.2797652109
0.2797656195
0.2797571695
0.2797582389
0.2797595311
0.2797609421
0.2797623141
0.279763655
0.2797648272
0.2797658917
0.2797667383
0.2797674601
0.279768077
0.2797686249
0.2797690845
0.2797694261
0.2797696802
0.2797608263
0.2797635676
0.279766039
0.2797680882
0.279769667
0.2797707916
0.2797715475
0.2797720376
0.2797722743
0.2797723991
0.2797724199
0.2797723691
0.2797723027
0.2797722111
0.2797684133
0.2797730301
0.2797762193
0.2797781067
0.2797789705
0.2797791564
0.2797789058
0.2797783868
0.2797777755
0.2797770936
0.2797763836
0.2797757712
0.2797751941
0.2797747542
0.2797805388
0.27978517
0.279787146
0.2797875198
0.2797869538
0.2797859412
0.2797847172
0.279783436
0.2797822178
0.2797810047
0.2797799462
0.2797790217
0.2797781661
0.2797775619
0.2797688629
0.2797735075
0.279776685
0.2797785519
0.2797794875
0.2797796636
0.2797794131
0.2797789598
0.2797782968
0.2797776108
0.2797769578
0.2797763399
0.2797757486
0.2797752999
0.2797600833
0.2797627999
0.2797652921
0.2797673508
0.2797689161
0.2797699871
0.2797708137
0.279771289
0.2797715225
0.2797716445
0.2797716423
0.2797715965
0.279771535
0.2797714871
0.2797551172
0.27975647
0.2797578642
0.2797592778
0.2797605565
0.2797617216
0.2797627477
0.2797636566
0.2797644207
0.2797650452
0.2797656135
0.2797660131
0.2797663953
0.2797666616
0.2797562785
0.2797569295
0.2797577875
0.279758743
0.2797597841
0.279760838
0.2797618633
0.2797627848
0.2797636694
0.2797644802
0.2797652319
0.2797658981
0.2797665087
0.2797669425
0.2797548953
0.2797557405
0.2797567677
0.2797579859
0.2797592518
0.2797604975
0.2797616841
0.2797627962
0.2797637965
0.279764704
0.2797654379
0.279766097
0.2797666762
0.2797671401
0.2797674765
0.2797558609
0.2797578392
0.2797599769
0.2797620488
0.2797638226
0.2797652911
0.2797664237
0.2797673733
0.2797680399
0.2797685501
0.2797689324
0.2797692185
0.2797694038
0.2797695325
0.2797696008
0.279763737
0.2797694293
0.2797740861
0.2797773003
0.2797792084
0.2797801062
0.2797803046
0.2797800616
0.279779601
0.2797789819
0.2797783274
0.2797776009
0.2797769452
0.27977633
0.2797758899
0.2797971543
0.2798030372
0.279804024
0.2798023646
0.2797994663
0.2797962347
0.2797930913
0.2797901984
0.2797875893
0.2797852997
0.2797833078
0.2797815899
0.2797801439
0.2797791274
0.2798522492
0.279844934
0.2798336696
0.27982287
0.2798136869
0.2798061556
0.2798001007
0.2797952142
0.279791186
0.2797879429
0.2797852477
0.2797829865
0.2797811499
0.279779842
0.2797980664
0.2798039891
0.2798049487
0.2798033077
0.2798004535
0.2797972596
0.2797940823
0.2797911891
0.2797886423
0.279786369
0.2797844084
0.2797826355
0.2797812019
0.2797801371
0.2797682778
0.2797729072
0.2797761724
0.2797780704
0.2797789646
0.27977916
0.279778914
0.2797784751
0.2797778561
0.2797771906
0.2797765274
0.2797759133
0.2797753273
0.2797748714
0.2797602717
0.2797624195
0.2797644722
0.2797662472
0.2797677041
0.279768856
0.2797696937
0.2797703845
0.2797708607
0.2797712442
0.2797714406
0.2797716291
0.2797717354
0.2797718245
0.2797565533
0.2797575961
0.2797587804
0.2797600454
0.2797613272
0.2797625213
0.2797636139
0.2797646222
0.279765503
0.279766257
0.2797669254
0.2797674716
0.2797679878
0.2797683164
0.2797556835
0.2797566756
0.2797579709
0.279759343
0.2797607165
0.2797620461
0.2797633149
0.2797643933
0.2797654066
0.2797662389
0.2797669788
0.2797676078
0.2797681181
0.2797685335
0.2797688038
0.2797591594
0.2797618637
0.2797644688
0.2797666996
0.2797684595
0.2797697811
0.2797707468
0.2797714333
0.2797719103
0.2797722544
0.2797724625
0.2797725895
0.2797726366
0.2797726511
0.2797726341
0.2797714767
0.2797797038
0.2797843395
0.2797863205
0.2797866876
0.2797861026
0.2797850664
0.2797838212
0.2797825091
0.2797812848
0.279780113
0.2797790219
0.2797780521
0.2797772428
0.2797766101
0.2798432478
0.2798533905
0.2798460887
0.2798347697
0.2798240097
0.2798148087
0.2798072906
0.2798012328
0.2797963612
0.2797923934
0.279789113
0.2797864667
0.2797842388
0.2797823821
0.2797810543
0.2809884652
0.2808650155
0.280796921
0.2807572769
0.2807329345
0.2807172291
0.280706591
0.2806991023
0.2806936838
0.2806896252
0.2806865334
0.2806841731
0.280682358
0.2806812549
0.2798545328
0.2798472612
0.2798360008
0.2798251836
0.279815989
0.2798084608
0.2798023916
0.2797974952
0.2797934872
0.2797902033
0.279787497
0.2797851897
0.2797833879
0.2797820809
0.2797788363
0.2797834568
0.279785443
0.2797857407
0.2797851748
0.2797841676
0.2797829326
0.2797816532
0.2797804295
0.2797792358
0.2797781339
0.2797771765
0.2797763198
0.2797757006
0.2797605255
0.2797630988
0.2797653003
0.2797670445
0.279768355
0.2797693512
0.2797700475
0.2797705339
0.279770846
0.2797710292
0.2797711523
0.2797712188
0.2797712549
0.279771232
0.2797554551
0.2797567241
0.2797580861
0.2797594452
0.2797608173
0.2797620629
0.2797631934
0.2797641665
0.2797649728
0.2797657261
0.2797663275
0.279766853
0.2797672699
0.2797675767
0.2797552824
0.2797560904
0.2797571255
0.2797583292
0.279759569
0.279760853
0.279762049
0.2797631576
0.2797641846
0.2797650768
0.2797658621
0.2797664803
0.2797670602
0.279767505
0.2797678303
0.2797572972
0.2797592791
0.2797614506
0.2797634998
0.2797652547
0.2797667386
0.2797679375
0.2797688385
0.2797695209
0.2797699976
0.2797703575
0.2797706433
0.2797708458
0.2797710158
0.2797710925
0.2797625289
0.2797681824
0.2797728389
0.2797760742
0.2797779249
0.2797788066
0.2797789876
0.2797787597
0.2797782418
0.2797776457
0.2797769252
0.2797762402
0.2797756001
0.2797750305
0.2797746037
0.2797855883
0.2797987147
0.2798045729
0.2798055818
0.2798039508
0.2798011009
0.2797979054
0.2797947139
0.2797918366
0.2797892396
0.2797869626
0.2797849585
0.2797832278
0.2797818003
0.2797807774
0.2798432895
0.2798533686
0.2798461109
0.2798348096
0.279823977
0.2798147679
0.2798072852
0.2798012115
0.2797963517
0.2797923225
0.2797890841
0.2797863844
0.2797841571
0.2797823181
0.2797810083
0.2797839145
0.279797081
0.2798029956
0.2798039374
0.2798022888
0.2797994434
0.2797962483
0.2797931225
0.27979021
0.2797875961
0.2797853375
0.2797834129
0.2797817097
0.2797802595
0.2797791977
0.279769599
0.2797742199
0.2797774851
0.2797794067
0.2797802669
0.2797804649
0.2797802476
0.2797797844
0.2797791584
0.2797784646
0.2797777547
0.2797770967
0.2797765608
0.2797760702
0.2797581776
0.2797603412
0.2797624178
0.2797642239
0.279765705
0.2797668966
0.2797678138
0.2797685082
0.2797690395
0.2797693832
0.2797695994
0.2797698151
0.2797699542
0.2797700192
0.2797554978
0.27975654
0.2797577449
0.2797590309
0.2797602748
0.2797614721
0.2797625841
0.2797635731
0.2797644553
0.2797652483
0.2797659317
0.2797665007
0.2797670077
0.2797673081
0.2797546648
0.279755133
0.2797558284
0.279756693
0.2797576267
0.2797586296
0.2797597012
0.2797607177
0.2797616338
0.2797625339
0.2797633649
0.2797641657
0.2797648467
0.2797654435
0.2797659348
0.2797547658
0.2797557916
0.2797571287
0.2797585735
0.2797600066
0.2797613315
0.2797624882
0.2797635545
0.2797644333
0.2797652143
0.2797657787
0.2797663145
0.2797667263
0.2797671121
0.2797673589
0.2797577898
0.2797604484
0.2797632056
0.2797656961
0.2797677617
0.2797693257
0.2797704382
0.2797711803
0.2797716865
0.2797719416
0.2797720514
0.2797721135
0.2797721012
0.2797719644
0.2797719014
0.2797620077
0.2797676606
0.2797723226
0.2797754638
0.2797773663
0.2797782524
0.2797784493
0.2797781992
0.2797777161
0.2797771453
0.2797764716
0.2797757628
0.2797751123
0.2797745175
0.2797740243
0.2797723887
0.2797806691
0.2797853385
0.2797873191
0.2797876629
0.2797870809
0.2797860619
0.2797848455
0.2797835749
0.2797823279
0.2797811367
0.279780038
0.2797790783
0.2797782135
0.2797775613
0.2797630493
0.2797686902
0.2797733228
0.2797765298
0.2797784342
0.2797793516
0.2797795391
0.2797792881
0.2797787914
0.2797781745
0.2797774695
0.27977677
0.2797761659
0.2797755657
0.279775155
0.2797570659
0.2797596516
0.2797623842
0.2797648704
0.2797669017
0.2797684517
0.2797695512
0.2797703151
0.2797707734
0.2797710492
0.2797711779
0.2797712081
0.2797711752
0.2797710776
0.279771006
0.2797573178
0.2797586309
0.2797600332
0.2797614503
0.2797627509
0.2797639291
0.2797649956
0.2797658464
0.2797665827
0.279767226
0.2797677408
0.2797681964
0.2797685782
0.2797688474
0.2797560882
0.2797567821
0.2797576029
0.2797585525
0.2797595455
0.2797605768
0.2797615599
0.2797625075
0.2797634041
0.2797642376
0.2797649784
0.2797656844
0.2797662436
0.2797666743
0.2797547187
0.2797549619
0.2797553469
0.279755853
0.2797564786
0.2797571586
0.2797579653
0.279758768
0.2797596105
0.2797604194
0.2797612234
0.2797619646
0.2797627069
0.2797634002
0.2797639286
0.2797558987
0.2797563916
0.2797570271
0.279757803
0.2797587071
0.2797597011
0.2797606923
0.2797616294
0.2797625099
0.2797633629
0.2797641464
0.2797648978
0.279765576
0.2797661124
0.2797665333
0.2797557469
0.2797567752
0.2797580824
0.2797595626
0.2797609731
0.2797623039
0.2797635097
0.2797644917
0.2797654017
0.2797661268
0.2797668133
0.2797673396
0.2797678084
0.2797682171
0.2797684763
0.2797567803
0.2797587732
0.2797609125
0.2797629948
0.2797647978
0.2797662843
0.2797674552
0.2797683702
0.2797690428
0.2797695019
0.2797698623
0.2797700997
0.279770269
0.2797703794
0.2797704035
0.2797578697
0.2797605985
0.2797632245
0.2797654166
0.2797671865
0.2797685392
0.2797694943
0.2797702345
0.2797707268
0.2797710817
0.2797712723
0.2797713652
0.2797714087
0.2797713915
0.279771327
0.2797581122
0.2797601113
0.2797622561
0.2797642841
0.279766099
0.2797676074
0.2797687704
0.2797696824
0.2797703667
0.279770814
0.2797711919
0.2797714901
0.2797716674
0.2797717956
0.2797719101
0.2797557394
0.279756769
0.2797580969
0.2797595062
0.2797608975
0.2797622105
0.2797634214
0.2797644476
0.2797652832
0.279766022
0.2797666304
0.2797671767
0.2797676038
0.2797679489
0.2797682268
0.2797553669
0.2797558624
0.2797565757
0.2797574143
0.2797583392
0.2797593188
0.2797602727
0.2797612244
0.2797621422
0.2797629787
0.2797637458
0.2797644974
0.279765148
0.2797657451
0.2797661543
0.2797547316
0.279755069
0.2797555419
0.2797561894
0.2797568918
0.2797576488
0.2797584634
0.2797593026
0.2797601441
0.2797609093
0.2797617252
0.2797625193
0.2797631747
0.2797637181
0.2797545451
0.2797547071
0.2797549403
0.2797552831
0.2797556975
0.2797562886
0.2797568933
0.2797575805
0.2797583181
0.2797590967
0.2797598473
0.2797606761
0.279761413
0.2797621239
0.2797626804
0.2797549716
0.2797552045
0.2797555677
0.2797560979
0.2797567114
0.2797573929
0.2797581868
0.2797590177
0.2797598913
0.2797607585
0.2797615638
0.2797623184
0.2797630235
0.2797637028
0.2797642223
0.2797544535
0.2797549366
0.279755597
0.2797564447
0.279757379
0.2797583517
0.2797594029
0.2797604506
0.2797614027
0.2797623147
0.2797631483
0.2797638766
0.2797645924
0.2797652028
0.2797656711
0.2797576713
0.279758456
0.2797594439
0.279760633
0.2797618809
0.2797631333
0.2797643353
0.2797654766
0.2797664731
0.2797673532
0.2797681544
0.2797688223
0.2797694207
0.279769932
0.2797702931
0.2797563168
0.2797573144
0.2797585508
0.2797599604
0.2797613036
0.2797626619
0.2797638818
0.279764947
0.2797659562
0.2797667898
0.2797675306
0.2797681301
0.279768645
0.2797690539
0.2797692936
0.2797549886
0.2797557884
0.2797568509
0.2797580468
0.2797593302
0.2797606041
0.2797618453
0.279762954
0.2797639645
0.2797648741
0.2797656521
0.2797662975
0.2797668668
0.2797673744
0.2797677211
0.2797547945
0.2797552862
0.2797559905
0.2797568196
0.2797577561
0.2797587273
0.2797597801
0.2797607757
0.2797617105
0.2797626507
0.2797634919
0.279764244
0.2797649323
0.2797654871
0.2797659323
0.2797548383
0.2797550837
0.2797554655
0.2797560101
0.2797566165
0.2797573213
0.2797581268
0.2797589421
0.2797597553
0.2797605946
0.2797614004
0.2797621627
0.2797628953
0.2797635997
0.2797641132
0.2797548251
0.2797549874
0.2797552311
0.279755546
0.2797559897
0.2797565345
0.2797571736
0.2797578536
0.2797585681
0.2797593445
0.2797601017
0.2797608826
0.2797616026
0.2797622855
0.2797628698
)
;

boundaryField
{
    top
    {
        type            calculated;
        value           nonuniform List<scalar> 
127
(
0.2797548251
0.2797542375
0.2797531095
0.2797562785
0.2797565533
0.2797554551
0.2797554978
0.2797560882
0.2797547316
0.2797549874
0.279754475
0.279753512
0.2797569295
0.2797575961
0.2797567241
0.27975654
0.2797567821
0.279755069
0.2797552311
0.2797548008
0.2797540181
0.2797577875
0.2797587804
0.2797580861
0.2797577449
0.2797576029
0.2797555419
0.279755546
0.2797552507
0.2797546077
0.279758743
0.2797600454
0.2797594452
0.2797590309
0.2797585525
0.2797561894
0.2797559897
0.279755804
0.2797553096
0.2797597841
0.2797613272
0.2797608173
0.2797602748
0.2797595455
0.2797568918
0.2797565345
0.2797564054
0.2797560647
0.279760838
0.2797625213
0.2797620629
0.2797614721
0.2797605768
0.2797576488
0.2797571736
0.279757114
0.2797568986
0.2797618633
0.2797636139
0.2797631934
0.2797625841
0.2797615599
0.2797584634
0.2797578536
0.2797578361
0.2797577344
0.2797627848
0.2797646222
0.2797641665
0.2797635731
0.2797625075
0.2797593026
0.2797585681
0.2797585909
0.2797585854
0.2797636694
0.279765503
0.2797649728
0.2797644553
0.2797634041
0.2797601441
0.2797593445
0.2797593624
0.2797594118
0.2797644802
0.279766257
0.2797657261
0.2797652483
0.2797642376
0.2797609093
0.2797601017
0.2797601278
0.2797601954
0.2797652319
0.2797669254
0.2797663275
0.2797659317
0.2797649784
0.2797617252
0.2797608826
0.2797608862
0.2797609196
0.2797658981
0.2797674716
0.279766853
0.2797665007
0.2797656844
0.2797625193
0.2797616026
0.2797615728
0.2797615673
0.2797665087
0.2797679878
0.2797672699
0.2797670077
0.2797662436
0.2797631747
0.2797622855
0.2797621474
0.2797621021
0.2797669425
0.2797683164
0.2797675767
0.2797673081
0.2797666743
0.2797637181
0.2797628698
)
;
    }
    bottom
    {
        type            calculated;
        value           nonuniform List<scalar> 
134
(
0.2797552887
0.2797545598
0.2797548953
0.2797556835
0.2797552824
0.2797546648
0.2797547187
0.2797545451
0.2797544505
0.2797555675
0.2797550147
0.2797557405
0.2797566756
0.2797560904
0.279755133
0.2797549619
0.2797547071
0.2797546777
0.2797559335
0.2797556741
0.2797567677
0.2797579709
0.2797571255
0.2797558284
0.2797553469
0.2797549403
0.2797549943
0.2797564468
0.2797565208
0.2797579859
0.279759343
0.2797583292
0.279756693
0.279755853
0.2797552831
0.2797554366
0.2797570859
0.2797574601
0.2797592518
0.2797607165
0.279759569
0.2797576267
0.2797564786
0.2797556975
0.2797559783
0.2797577747
0.2797584572
0.2797604975
0.2797620461
0.279760853
0.2797586296
0.2797571586
0.2797562886
0.279756568
0.2797585384
0.2797594657
0.2797616841
0.2797633149
0.279762049
0.2797597012
0.2797579653
0.2797568933
0.2797572572
0.2797593682
0.2797604818
0.2797627962
0.2797643933
0.2797631576
0.2797607177
0.279758768
0.2797575805
0.2797580379
0.2797602182
0.2797615065
0.2797637965
0.2797654066
0.2797641846
0.2797616338
0.2797596105
0.2797583181
0.2797588087
0.2797610985
0.2797623835
0.279764704
0.2797662389
0.2797650768
0.2797625339
0.2797604194
0.2797590967
0.279759593
0.2797618957
0.2797631759
0.2797654379
0.2797669788
0.2797658621
0.2797633649
0.2797612234
0.2797598473
0.279760381
0.2797626667
0.2797639077
0.279766097
0.2797676078
0.2797664803
0.2797641657
0.2797619646
0.2797606761
0.2797611247
0.2797634199
0.2797646118
0.2797666762
0.2797681181
0.2797670602
0.2797648467
0.2797627069
0.279761413
0.2797618235
0.2797641109
0.2797652109
0.2797671401
0.2797685335
0.279767505
0.2797654435
0.2797634002
0.2797621239
0.2797623653
0.2797646125
0.2797656195
0.2797674765
0.2797688038
0.2797678303
0.2797659348
0.2797639286
0.2797626804
)
;
    }
    side-walls
    {
        type            calculated;
        value           nonuniform List<scalar> 
261
(
0.2797544505
0.2797556222
0.2797555117
0.2797563207
0.2797562164
0.279755596
0.2797558691
0.2797547156
0.2797542375
0.2797546777
0.2797559914
0.2797561672
0.2797573401
0.2797574824
0.2797566404
0.2797565342
0.2797551142
0.279754475
0.2797549943
0.2797565153
0.2797570073
0.2797585096
0.27975884
0.2797578597
0.2797573348
0.2797555871
0.2797548008
0.2797554366
0.2797571415
0.2797579722
0.279759815
0.2797602068
0.2797591133
0.2797582722
0.2797562104
0.2797552507
0.2797559783
0.2797578179
0.2797589773
0.2797610556
0.2797615664
0.2797603662
0.2797593271
0.2797568835
0.279755804
0.279756568
0.2797585758
0.2797600286
0.2797622638
0.279762788
0.2797615757
0.2797603515
0.2797577034
0.2797564054
0.2797572572
0.2797594354
0.2797610185
0.2797633734
0.2797639018
0.2797627094
0.2797613694
0.2797585218
0.279757114
0.2797580379
0.2797602557
0.2797619629
0.2797643483
0.2797648805
0.2797637003
0.2797623136
0.2797593659
0.2797578361
0.2797588087
0.279761073
0.279762851
0.2797652066
0.279765715
0.2797646014
0.2797632338
0.2797601878
0.2797585909
0.279759593
0.279761874
0.2797637046
0.2797659524
0.2797664152
0.2797653593
0.2797640361
0.2797610402
0.2797593624
0.279760381
0.2797626514
0.2797644464
0.2797666293
0.2797670633
0.2797660404
0.2797647612
0.2797618607
0.2797601278
0.2797611247
0.279763433
0.2797651339
0.2797671889
0.2797675634
0.2797666013
0.2797654627
0.2797626036
0.2797608862
0.2797618235
0.2797641121
0.2797657303
0.2797677021
0.2797679815
0.2797670684
0.2797661049
0.279763299
0.2797615728
0.2797623653
0.2797645945
0.2797661375
0.2797680469
0.2797683089
0.2797673845
0.2797665336
0.2797638438
0.2797621474
0.2797545451
0.2797549716
0.2797544535
0.2797576713
0.2797563168
0.2797549886
0.2797547945
0.2797548383
0.2797548251
0.2797547071
0.2797552045
0.2797549366
0.279758456
0.2797573144
0.2797557884
0.2797552862
0.2797550837
0.2797549874
0.2797549403
0.2797555677
0.279755597
0.2797594439
0.2797585508
0.2797568509
0.2797559905
0.2797554655
0.2797552311
0.2797552831
0.2797560979
0.2797564447
0.279760633
0.2797599604
0.2797580468
0.2797568196
0.2797560101
0.279755546
0.2797556975
0.2797567114
0.279757379
0.2797618809
0.2797613036
0.2797593302
0.2797577561
0.2797566165
0.2797559897
0.2797562886
0.2797573929
0.2797583517
0.2797631333
0.2797626619
0.2797606041
0.2797587273
0.2797573213
0.2797565345
0.2797568933
0.2797581868
0.2797594029
0.2797643353
0.2797638818
0.2797618453
0.2797597801
0.2797581268
0.2797571736
0.2797575805
0.2797590177
0.2797604506
0.2797654766
0.279764947
0.279762954
0.2797607757
0.2797589421
0.2797578536
0.2797583181
0.2797598913
0.2797614027
0.2797664731
0.2797659562
0.2797639645
0.2797617105
0.2797597553
0.2797585681
0.2797590967
0.2797607585
0.2797623147
0.2797673532
0.2797667898
0.2797648741
0.2797626507
0.2797605946
0.2797593445
0.2797598473
0.2797615638
0.2797631483
0.2797681544
0.2797675306
0.2797656521
0.2797634919
0.2797614004
0.2797601017
0.2797606761
0.2797623184
0.2797638766
0.2797688223
0.2797681301
0.2797662975
0.279764244
0.2797621627
0.2797608826
0.279761413
0.2797630235
0.2797645924
0.2797694207
0.279768645
0.2797668668
0.2797649323
0.2797628953
0.2797616026
0.2797621239
0.2797637028
0.2797652028
0.279769932
0.2797690539
0.2797673744
0.2797654871
0.2797635997
0.2797622855
0.2797626804
0.2797642223
0.2797656711
0.2797702931
0.2797692936
0.2797677211
0.2797659323
0.2797641132
0.2797628698
)
;
    }
    inlet
    {
        type            calculated;
        value           nonuniform 0();
    }
    outlet
    {
        type            calculated;
        value           nonuniform List<scalar> 
81
(
0.2797623653
0.2797645945
0.2797661375
0.2797680469
0.2797683089
0.2797673845
0.2797665336
0.2797638438
0.2797621474
0.2797646125
0.2797648415
0.2797669846
0.2797707029
0.2797711587
0.2797713754
0.2797665783
0.2797669207
0.2797621021
0.2797656195
0.2797696802
0.2797722111
0.2797747542
0.2797775619
0.2797752999
0.2797714871
0.2797666616
0.2797669425
0.2797674765
0.2797696008
0.2797758899
0.2797791274
0.279779842
0.2797801371
0.2797748714
0.2797718245
0.2797683164
0.2797688038
0.2797726341
0.2797766101
0.2797810543
0.2806812549
0.2797820809
0.2797757006
0.279771232
0.2797675767
0.2797678303
0.2797710925
0.2797746037
0.2797807774
0.2797810083
0.2797791977
0.2797760702
0.2797700192
0.2797673081
0.2797659348
0.2797673589
0.2797719014
0.2797740243
0.2797775613
0.279775155
0.279771006
0.2797688474
0.2797666743
0.2797639286
0.2797665333
0.2797684763
0.2797704035
0.279771327
0.2797719101
0.2797682268
0.2797661543
0.2797637181
0.2797626804
0.2797642223
0.2797656711
0.2797702931
0.2797692936
0.2797677211
0.2797659323
0.2797641132
0.2797628698
)
;
    }
    procBoundary1to0
    {
        type            processor;
        value           nonuniform List<scalar> 
97
(
0.2797542864
0.2797542864
0.2797553586
0.2797550239
0.2797554933
0.2797551232
0.2797548272
0.27975539
0.2797544938
0.2797541122
0.279755213
0.2797542153
0.2797542153
0.2797542153
0.2797545108
0.2797569319
0.2797577591
0.2797576398
0.279753986
0.2797562522
0.2797528377
0.2797542511
0.2797564681
0.2797582116
0.2797582116
0.2797582116
0.2797627149
0.2797723267
0.2797631287
0.2797574547
0.2797540871
0.2797557924
0.2797544144
0.2797543549
0.2797585092
0.2797840003
0.2797840003
0.2797840003
0.2798421581
0.2797849249
0.2797626254
0.2797582824
0.2797557561
0.2797550064
0.2797568322
0.2797604822
0.2797777151
0.2812254061
0.2812254061
0.2812254061
0.2798444703
0.2798444703
0.2797706253
0.2797577313
0.279754435
0.279754752
0.2797558372
0.2797573161
0.2797661971
0.2797777868
0.2797644921
0.2797639072
0.2797639072
0.2797639072
0.2797561603
0.2797546818
0.2797543395
0.2797540878
0.2797558494
0.2797568007
0.279761481
0.2797578727
0.2797551191
0.2797562802
0.2797562802
0.2797562802
0.2797555842
0.2797545795
0.2797555527
0.2797550555
0.2797552842
0.2797555237
0.2797566917
0.2797551005
0.2797550581
0.2797545039
0.2797545039
0.2797545039
0.2797544493
0.2797548339
0.2797541642
0.2797571504
0.2797556315
0.2797545068
0.2797544972
0.2797547107
0.279754737
)
;
    }
}


// ************************************************************************* //
