/*--------------------------------*- C++ -*----------------------------------*\
| =========                 |                                                 |
| \\      /  F ield         | OpenFOAM: The Open Source CFD Toolbox           |
|  \\    /   O peration     | Version:  4.x                                   |
|   \\  /    A nd           | Web:      www.OpenFOAM.org                      |
|    \\/     M anipulation  |                                                 |
\*---------------------------------------------------------------------------*/
FoamFile
{
    version     2.0;
    format      ascii;
    class       volScalarField;
    location    "8000";
    object      T;
}
// * * * * * * * * * * * * * * * * * * * * * * * * * * * * * * * * * * * * * //

dimensions      [0 0 0 1 0 0 0];

internalField   nonuniform List<scalar> 
1174
(
1223.150881
1223.15092
1223.150995
1223.150966
1223.150928
1223.151054
1223.151048
1223.150862
1223.150856
1223.150851
1223.150816
1223.150883
1223.15092
1223.150982
1223.146731
1223.146775
1223.146694
1223.146668
1223.146828
1223.146927
1223.146761
1223.14684
1223.146918
1223.146983
1223.147009
1223.146824
1223.146789
1223.146945
1223.149365
1223.149436
1223.1494
1223.149313
1223.149322
1223.149202
1223.149265
1223.149328
1223.149367
1223.149248
1223.14929
1223.149236
1223.149196
1223.149338
1223.148984
1223.149098
1223.149234
1223.149072
1223.149167
1223.149148
1223.149159
1223.149284
1223.149419
1223.149559
1223.14954
1223.149608
1223.149457
1223.149464
1223.151699
1223.151633
1223.151665
1223.151736
1223.151611
1223.151668
1223.151669
1223.151692
1223.15178
1223.15192
1223.1518
1223.151884
1223.151908
1223.151794
1223.152153
1223.152157
1223.152076
1223.15214
1223.152181
1223.152156
1223.152061
1223.152116
1223.152065
1223.152151
1223.152114
1223.152176
1223.152227
1223.15236
1223.147802
1223.147832
1223.147968
1223.148001
1223.147793
1223.14779
1223.14773
1223.147794
1223.147693
1223.147797
1223.147913
1223.147797
1223.147558
1223.147606
1223.150694
1223.15061
1223.150753
1223.150738
1223.150913
1223.150742
1223.150755
1223.15073
1223.150788
1223.150627
1223.150466
1223.150449
1223.150342
1223.150226
1223.151812
1223.151806
1223.151841
1223.151779
1223.15169
1223.151765
1223.151674
1223.151744
1223.151808
1223.151858
1223.151921
1223.151925
1223.152015
1223.151933
1223.147069
1223.146969
1223.147028
1223.146994
1223.146911
1223.147017
1223.147091
1223.147054
1223.147004
1223.146807
1223.146888
1223.146943
1223.146881
1223.146794
1223.146866
1223.152913
1223.15292
1223.153104
1223.153257
1223.153352
1223.153281
1223.153248
1223.153283
1223.153317
1223.153269
1223.153328
1223.153255
1223.153248
1223.153054
1223.154843
1223.154844
1223.154856
1223.15491
1223.154842
1223.15473
1223.154868
1223.15491
1223.154872
1223.154901
1223.155014
1223.155071
1223.155238
1223.155281
1223.149707
1223.149743
1223.149594
1223.149637
1223.149777
1223.149875
1223.149812
1223.149713
1223.149866
1223.149798
1223.149794
1223.149739
1223.149777
1223.149878
1223.152161
1223.152252
1223.152116
1223.151906
1223.152078
1223.152026
1223.152089
1223.152073
1223.152016
1223.151921
1223.151973
1223.15199
1223.15211
1223.15237
1223.146923
1223.146682
1223.146745
1223.146838
1223.146895
1223.146928
1223.146935
1223.146941
1223.146947
1223.14701
1223.146942
1223.146919
1223.146826
1223.146937
1223.156932
1223.157125
1223.15697
1223.157077
1223.15713
1223.15696
1223.156978
1223.157042
1223.15702
1223.156983
1223.156771
1223.156928
1223.156809
1223.157056
1223.14414
1223.143962
1223.143843
1223.143774
1223.143674
1223.143612
1223.143652
1223.143688
1223.143808
1223.143782
1223.143704
1223.143749
1223.143887
1223.143962
1223.157717
1223.157616
1223.157613
1223.157746
1223.157795
1223.157906
1223.157852
1223.157863
1223.157793
1223.157747
1223.157746
1223.157811
1223.157912
1223.15784
1223.151416
1223.151538
1223.151592
1223.151527
1223.151552
1223.151596
1223.151663
1223.151611
1223.151323
1223.151411
1223.151558
1223.151645
1223.151518
1223.151467
1223.151603
1223.143111
1223.143022
1223.143056
1223.143068
1223.143223
1223.143128
1223.143189
1223.143066
1223.143251
1223.143389
1223.143467
1223.143402
1223.143344
1223.143454
1223.143496
1223.148091
1223.148124
1223.148206
1223.148178
1223.148076
1223.148025
1223.147995
1223.147904
1223.148024
1223.148005
1223.148015
1223.148069
1223.148045
1223.14813
1223.151424
1223.151577
1223.151672
1223.151715
1223.151842
1223.151908
1223.151961
1223.152065
1223.151995
1223.152007
1223.152135
1223.151972
1223.151922
1223.151873
1223.146317
1223.14634
1223.146415
1223.146326
1223.146315
1223.146205
1223.146139
1223.146112
1223.145964
1223.146133
1223.146054
1223.14586
1223.145914
1223.145797
1223.149457
1223.149489
1223.149635
1223.149767
1223.14958
1223.149689
1223.149741
1223.149559
1223.149714
1223.149744
1223.149624
1223.149484
1223.149496
1223.149486
1223.151338
1223.151479
1223.15147
1223.151401
1223.151358
1223.151541
1223.151202
1223.151175
1223.151309
1223.151301
1223.151412
1223.151444
1223.1514
1223.151293
1223.15667
1223.156439
1223.156524
1223.156498
1223.156675
1223.156766
1223.15681
1223.156723
1223.156676
1223.15672
1223.156566
1223.15677
1223.156702
1223.15669
1223.146012
1223.146103
1223.145989
1223.145942
1223.145794
1223.145663
1223.14557
1223.145733
1223.145787
1223.145855
1223.145854
1223.145892
1223.14579
1223.145816
1223.151693
1223.151521
1223.151601
1223.151524
1223.151534
1223.151607
1223.151682
1223.151682
1223.151696
1223.151617
1223.151807
1223.151867
1223.151849
1223.151914
1223.151958
1223.154571
1223.154624
1223.154744
1223.154692
1223.154805
1223.154879
1223.155078
1223.154893
1223.154963
1223.154936
1223.15486
1223.154742
1223.154718
1223.154682
1223.154696
1223.14707
1223.146981
1223.14696
1223.146945
1223.146897
1223.146876
1223.146888
1223.146907
1223.146756
1223.146721
1223.146613
1223.146813
1223.146839
1223.146956
1223.146908
1223.15114
1223.151135
1223.151139
1223.151098
1223.151274
1223.151336
1223.151284
1223.15123
1223.151315
1223.151404
1223.151501
1223.151597
1223.151686
1223.151575
1223.156832
1223.156839
1223.156748
1223.156596
1223.156467
1223.156521
1223.156468
1223.1564
1223.156579
1223.156457
1223.15641
1223.156463
1223.156438
1223.156364
1223.147148
1223.14697
1223.147094
1223.146972
1223.146956
1223.146853
1223.146949
1223.146896
1223.14671
1223.146728
1223.146688
1223.147024
1223.147059
1223.147159
1223.152015
1223.152113
1223.151875
1223.151871
1223.151865
1223.151889
1223.151921
1223.151676
1223.151639
1223.15158
1223.151504
1223.151348
1223.151337
1223.151358
1223.143989
1223.144066
1223.144096
1223.144204
1223.144329
1223.144443
1223.144746
1223.144711
1223.144831
1223.14475
1223.145024
1223.144986
1223.145047
1223.144971
1223.147967
1223.147979
1223.14805
1223.148064
1223.147979
1223.148021
1223.148105
1223.148084
1223.148121
1223.148224
1223.148242
1223.148368
1223.148204
1223.148282
1223.149558
1223.14969
1223.149497
1223.149466
1223.149506
1223.149513
1223.149364
1223.149519
1223.149391
1223.149488
1223.149456
1223.149418
1223.149458
1223.149494
1223.149629
1223.14615
1223.146344
1223.146356
1223.146266
1223.146237
1223.14628
1223.146328
1223.146362
1223.146359
1223.146218
1223.146141
1223.146033
1223.146
1223.14593
1223.145919
1223.149978
1223.149965
1223.149969
1223.150023
1223.149963
1223.150036
1223.150028
1223.150055
1223.150163
1223.150042
1223.150031
1223.150095
1223.150099
1223.149951
1223.149958
1223.152106
1223.151838
1223.151789
1223.151937
1223.151613
1223.151562
1223.151558
1223.151518
1223.151386
1223.151301
1223.151341
1223.15108
1223.150989
1223.151051
1223.151064
1219.270182
1219.267413
1219.264678
1219.262083
1219.259534
1219.25691
1219.254378
1219.251849
1219.249201
1219.246657
1219.244155
1219.241617
1219.239279
1219.236835
1223.146849
1223.146662
1223.146552
1223.146477
1223.146398
1223.146439
1223.146449
1223.146425
1223.146516
1223.146572
1223.146574
1223.146829
1223.146652
1223.146574
1223.153759
1223.153828
1223.153857
1223.154099
1223.154088
1223.153954
1223.153936
1223.153902
1223.153778
1223.153862
1223.153973
1223.153923
1223.153982
1223.153931
1223.152196
1223.152346
1223.152383
1223.152422
1223.152512
1223.152427
1223.152418
1223.152374
1223.152373
1223.152404
1223.152312
1223.152195
1223.152031
1223.152046
1223.155027
1223.154948
1223.154961
1223.155064
1223.154884
1223.154837
1223.154764
1223.154811
1223.155021
1223.15493
1223.155012
1223.154986
1223.155015
1223.154991
1223.15
1223.149991
1223.150036
1223.150023
1223.150147
1223.150052
1223.150085
1223.150101
1223.149998
1223.149986
1223.149953
1223.15019
1223.150169
1223.150317
1223.150409
1223.14829
1223.148328
1223.148301
1223.148347
1223.148543
1223.14855
1223.148459
1223.148486
1223.148487
1223.148606
1223.148628
1223.148512
1223.148412
1223.148195
1223.148173
1223.15235
1223.15243
1223.15241
1223.152303
1223.152507
1223.152556
1223.152643
1223.152597
1223.152696
1223.15256
1223.152741
1223.15276
1223.152717
1223.152635
1223.152529
1223.144136
1223.144309
1223.144414
1223.144323
1223.144158
1223.144124
1223.144028
1223.144186
1223.144065
1223.144097
1223.144132
1223.144282
1223.144434
1223.144442
1223.144359
1223.151923
1223.151931
1223.151686
1223.151756
1223.151749
1223.151734
1223.151577
1223.151607
1223.151423
1223.151607
1223.151464
1223.151437
1223.151343
1223.151328
1223.151263
1223.151455
1223.151451
1223.151308
1223.151509
1223.15142
1223.151366
1223.151269
1223.15114
1223.151173
1223.151279
1223.151234
1223.151037
1223.151068
1223.151176
1223.151263
1223.14624
1223.146372
1223.146134
1223.146026
1223.146168
1223.146181
1223.146088
1223.145949
1223.145943
1223.146008
1223.146136
1223.146171
1223.145942
1223.146114
1223.153145
1223.153151
1223.153078
1223.153049
1223.153067
1223.153008
1223.152964
1223.152912
1223.152792
1223.152885
1223.153072
1223.152915
1223.152833
1223.152862
1223.152582
1223.152596
1223.152578
1223.1525
1223.152579
1223.152607
1223.152607
1223.152669
1223.152701
1223.152633
1223.152586
1223.152612
1223.152489
1223.152689
1223.150957
1223.15102
1223.150917
1223.150774
1223.150823
1223.150841
1223.150633
1223.150579
1223.150765
1223.150751
1223.15073
1223.150516
1223.15049
1223.150448
1223.150223
1223.153619
1223.153721
1223.153558
1223.153422
1223.153311
1223.153286
1223.153414
1223.153283
1223.153327
1223.153207
1223.153513
1223.153502
1223.153652
1223.153569
1223.153642
1223.149916
1223.149741
1223.149704
1223.149703
1223.149603
1223.149566
1223.149568
1223.149598
1223.149436
1223.149476
1223.149521
1223.149352
1223.149238
1223.149522
1223.149481
1223.154629
1223.154711
1223.154667
1223.15497
1223.154947
1223.154976
1223.154994
1223.155045
1223.154993
1223.154746
1223.154723
1223.154846
1223.154849
1223.154876
1223.15506
1223.145991
1223.145744
1223.145598
1223.145653
1223.145694
1223.145753
1223.145671
1223.145572
1223.1455
1223.145477
1223.145551
1223.145648
1223.145608
1223.145702
1223.145795
1223.150075
1223.150209
1223.150293
1223.150308
1223.150277
1223.150169
1223.150228
1223.150282
1223.15029
1223.150245
1223.150358
1223.150441
1223.15024
1223.150292
1223.150116
1223.153082
1223.153225
1223.153295
1223.153312
1223.153362
1223.153385
1223.153444
1223.153379
1223.153426
1223.153375
1223.153338
1223.153308
1223.153283
1223.153396
1223.153394
1223.147048
1223.146991
1223.14704
1223.146998
1223.147079
1223.147113
1223.146981
1223.147146
1223.147221
1223.147183
1223.147263
1223.147222
1223.147156
1223.147132
1223.146844
1223.146748
1223.146796
1223.146775
1223.146837
1223.146803
1223.146895
1223.146944
1223.146945
1223.146913
1223.14696
1223.146824
1223.146947
1223.146987
1223.149561
1223.149617
1223.149592
1223.149589
1223.149565
1223.14971
1223.149596
1223.149678
1223.14966
1223.149775
1223.149826
1223.150011
1223.149996
1223.149899
1223.149854
1223.145593
1223.145563
1223.145703
1223.145871
1223.145908
1223.145765
1223.145666
1223.145699
1223.145786
1223.145745
1223.145734
1223.145581
1223.145455
1223.145608
1223.145655
1223.14933
1223.14942
1223.149388
1223.149098
1223.149084
1223.149034
1223.148947
1223.149184
1223.149092
1223.149216
1223.14899
1223.149019
1223.148921
1223.148737
1223.148756
1223.150551
1223.15054
1223.150653
1223.150554
1223.150539
1223.150535
1223.150566
1223.150532
1223.150576
1223.150771
1223.150791
1223.150886
1223.150932
1223.150975
1223.151183
1223.151788
1223.151875
1223.151795
1223.151873
1223.1518
1223.151706
1223.151801
1223.1516
1223.151529
1223.151342
1223.151341
1223.151381
1223.151364
1223.151433
1223.151629
1223.144727
1223.144689
1223.144779
1223.144917
1223.14485
1223.14475
1223.144814
1223.144793
1223.144787
1223.145033
1223.144977
1223.144806
1223.144817
1223.144782
1223.144595
1223.149363
1223.149447
1223.149325
1223.149344
1223.149415
1223.149441
1223.149332
1223.149376
1223.149608
1223.149672
1223.149787
1223.149729
1223.149813
1223.149907
1223.149845
1223.147918
1223.147876
1223.147677
1223.147571
1223.147517
1223.147436
1223.1475
1223.147469
1223.147392
1223.147423
1223.147484
1223.147329
1223.147324
1223.147211
1223.147309
1223.150624
1223.150807
1223.15095
1223.15083
1223.150877
1223.150979
1223.151009
1223.151005
1223.150977
1223.151197
1223.151055
1223.150815
1223.150883
1223.150772
1223.149803
1223.149759
1223.149771
1223.149732
1223.149825
1223.149571
1223.149632
1223.149634
1223.149636
1223.149596
1223.149738
1223.149524
1223.149621
1223.149605
1223.149603
1223.148456
1223.148556
1223.148626
1223.148519
1223.148547
1223.148686
1223.148627
1223.148586
1223.148432
1223.148293
1223.148338
1223.148464
1223.148612
1223.148575
1223.148569
1223.15188
1223.151879
1223.151929
1223.151859
1223.151906
1223.152056
1223.151936
1223.151746
1223.151775
1223.151709
1223.151677
1223.151779
1223.1516
1223.151499
1223.151375
1223.139556
1223.139648
1223.139899
1223.139949
1223.140038
1223.140081
1223.140088
1223.13996
1223.139991
1223.140031
1223.139928
1223.139948
1223.139846
1223.139704
1223.13964
1223.146789
1223.146897
1223.14696
1223.146765
1223.146938
1223.146819
1223.146883
1223.147095
1223.146985
1223.147077
1223.14704
1223.147131
1223.147151
1223.147214
1223.147483
1223.151285
1223.151311
1223.151236
1223.151257
1223.15119
1223.151139
1223.150974
1223.150989
1223.150957
1223.150869
1223.150867
1223.150986
1223.151011
1223.150884
1223.150883
1223.150389
1223.15035
1223.150208
1223.15022
1223.150256
1223.150413
1223.150286
1223.150324
1223.150428
1223.150239
1223.150174
1223.150171
1223.150113
1223.150254
1223.150231
1223.149039
1223.149084
1223.149073
1223.148903
1223.148962
1223.148999
1223.148889
1223.148916
1223.149026
1223.149007
1223.14905
1223.149143
1223.149171
1223.149024
1223.149044
1223.148579
1223.148533
1223.1485
1223.148582
1223.148547
1223.148495
1223.148406
1223.148439
1223.148542
1223.148512
1223.148624
1223.148619
1223.14879
1223.148896
1223.148772
)
;

boundaryField
{
    top
    {
        type            zeroGradient;
    }
    bottom
    {
        type            zeroGradient;
    }
    side-walls
    {
        type            zeroGradient;
    }
    inlet
    {
        type            zeroGradient;
    }
    outlet
    {
        type            zeroGradient;
    }
    procBoundary1to0
    {
        type            processor;
        value           nonuniform List<scalar> 
97
(
1223.150935
1223.150935
1223.146764
1223.149386
1223.149078
1223.152007
1223.151991
1223.147786
1223.150545
1223.151696
1223.14674
1223.152953
1223.152953
1223.152953
1223.154735
1223.149887
1223.152271
1223.146792
1223.157029
1223.144047
1223.157786
1223.15147
1223.143137
1223.148073
1223.148073
1223.148073
1223.151536
1223.146257
1223.149725
1223.15138
1223.156587
1223.146027
1223.151526
1223.154779
1223.147103
1223.151081
1223.151081
1223.151081
1223.156829
1223.147027
1223.151926
1223.143982
1223.147929
1223.149488
1223.146219
1223.150154
1223.153727
1219.269273
1219.269273
1219.269273
1223.146723
1223.146723
1223.153695
1223.152392
1223.155016
1223.150049
1223.148298
1223.15232
1223.144041
1223.153415
1223.151494
1223.146326
1223.146326
1223.146326
1223.153261
1223.152626
1223.151083
1223.153544
1223.149835
1223.154573
1223.145787
1223.149886
1223.153028
1223.146998
1223.146998
1223.146998
1223.146937
1223.149509
1223.145789
1223.149313
1223.150716
1223.151939
1223.144562
1223.149117
1223.147952
1223.150501
1223.150501
1223.150501
1223.149841
1223.148397
1223.15185
1223.139563
1223.146754
1223.151122
1223.150394
1223.148936
1223.148584
)
;
    }
}


// ************************************************************************* //
