/*--------------------------------*- C++ -*----------------------------------*\
| =========                 |                                                 |
| \\      /  F ield         | OpenFOAM: The Open Source CFD Toolbox           |
|  \\    /   O peration     | Version:  4.x                                   |
|   \\  /    A nd           | Web:      www.OpenFOAM.org                      |
|    \\/     M anipulation  |                                                 |
\*---------------------------------------------------------------------------*/
FoamFile
{
    version     2.0;
    format      ascii;
    class       volVectorField;
    location    "8000";
    object      U;
}
// * * * * * * * * * * * * * * * * * * * * * * * * * * * * * * * * * * * * * //

dimensions      [0 1 -1 0 0 0 0];

internalField   nonuniform List<vector> 
1174
(
(0.01100015341 -2.922484816e-09 -3.677441978e-09)
(0.01100015699 -4.108384512e-09 -3.448782885e-09)
(0.01100016779 -3.658812514e-09 -1.367702221e-09)
(0.01100016214 -4.323213486e-09 -1.283901515e-09)
(0.01100014893 -2.46108329e-09 -1.156774295e-09)
(0.01100012994 -1.492958411e-09 -2.223262054e-09)
(0.01100010644 1.142019547e-11 3.219336051e-10)
(0.01100007388 1.010907057e-10 1.113207911e-09)
(0.01100004161 4.797015564e-10 1.101158911e-09)
(0.01100000974 -1.621713728e-09 1.77325019e-09)
(0.01099997241 -5.073177885e-10 1.028606641e-09)
(0.01099993574 1.299935857e-09 1.163406927e-09)
(0.01099990953 2.994480799e-09 1.996385498e-09)
(0.01099987315 2.451728509e-09 9.948457757e-10)
(0.01100016201 -2.401027548e-08 -2.480656732e-09)
(0.01100015326 -2.060030275e-08 -4.660215788e-09)
(0.0110001566 -1.299537378e-08 -3.571161714e-09)
(0.01100013887 -8.471423558e-09 -2.147680816e-09)
(0.01100011923 -6.893979133e-09 -1.19925655e-09)
(0.01100009204 -3.830583462e-09 -1.43728354e-10)
(0.01100005476 1.415448752e-10 -1.861238009e-10)
(0.01100001852 5.702844973e-10 1.358142067e-09)
(0.01099998282 8.105067226e-10 8.875148801e-10)
(0.01099994927 1.254576655e-09 2.706628066e-09)
(0.01099991244 2.081030724e-09 1.101128162e-09)
(0.01099987569 3.145161136e-09 1.346003733e-09)
(0.01099984666 4.157150791e-09 1.828942685e-09)
(0.01099981562 4.238478909e-09 1.253128455e-09)
(0.0110001845 -1.412160613e-08 -6.32163598e-09)
(0.01100014847 -2.054395693e-08 -9.574640779e-09)
(0.01100013829 -1.143229071e-08 -5.954148619e-09)
(0.01100009696 -5.920482033e-09 -4.571871871e-09)
(0.01100005603 -5.370905812e-09 1.340326812e-09)
(0.01100001069 -3.352272896e-09 -5.587527716e-10)
(0.01099996284 -1.763807547e-09 -1.312003375e-09)
(0.01099992185 1.317908199e-09 -7.040726836e-10)
(0.01099988147 2.937586935e-09 -7.216969848e-10)
(0.010999844 1.35679944e-09 -4.994036944e-10)
(0.01099981419 3.389418285e-09 5.751362963e-10)
(0.01099977906 4.142772083e-09 1.266096514e-09)
(0.01099975204 4.681766257e-09 6.954217666e-10)
(0.01099973063 3.815691162e-09 -3.980581619e-10)
(0.01100019159 -2.347316016e-08 9.181923799e-09)
(0.01100010759 -1.37795156e-08 -1.249947506e-08)
(0.01100008866 -3.792397163e-09 -6.256968627e-09)
(0.01100002959 6.939811594e-10 -2.181312236e-09)
(0.01099997208 1.264437367e-09 -4.928784736e-10)
(0.01099991537 5.963511305e-10 1.470120179e-09)
(0.01099986439 7.586926726e-10 3.560810694e-09)
(0.01099981952 1.485695634e-09 3.255560871e-09)
(0.01099978069 2.55837068e-09 2.467044546e-09)
(0.0109997455 1.244977522e-09 1.899079671e-09)
(0.01099971529 2.97252671e-09 1.439863036e-09)
(0.0109996884 3.859608358e-09 1.934911441e-09)
(0.01099966707 2.98461666e-09 2.84569124e-09)
(0.01099964962 3.648741589e-09 2.984652933e-09)
(0.01100026432 1.23139035e-09 1.745515852e-08)
(0.0110001081 2.33439315e-09 -3.263699981e-09)
(0.01100006384 9.049713036e-10 -1.111776357e-09)
(0.0109999912 -2.541310779e-10 3.389413407e-09)
(0.01099992683 8.292773399e-10 3.073561151e-09)
(0.01099986711 3.011175901e-10 2.034818451e-09)
(0.01099981553 1.611405611e-09 2.397288519e-09)
(0.01099977313 6.33378967e-10 2.744759059e-09)
(0.01099973122 1.738320997e-10 -4.933469111e-10)
(0.01099969927 4.24074932e-10 1.810493915e-09)
(0.01099967428 -7.226392961e-10 -1.179880581e-09)
(0.01099964956 -1.608499553e-09 -1.154258522e-09)
(0.01099963294 2.031838077e-10 -1.019857984e-10)
(0.0109996196 8.251554683e-10 8.721395758e-10)
(0.01100019392 2.317506288e-08 8.475278659e-09)
(0.01100010903 1.40292359e-08 -1.17949207e-08)
(0.01100008681 5.734927617e-09 -7.34897862e-09)
(0.01100002707 3.28638053e-10 -2.489157581e-09)
(0.01099997098 -3.356752112e-10 6.230784022e-11)
(0.01099991705 -1.665017867e-09 3.030948419e-09)
(0.01099986559 -9.669111786e-10 2.188726797e-09)
(0.01099981938 -2.113257125e-09 2.874291639e-09)
(0.01099977712 -2.262793304e-09 3.327418649e-09)
(0.0109997435 -2.41713699e-09 3.784306776e-09)
(0.0109997151 -2.779586818e-09 3.60921394e-09)
(0.01099969013 -2.247039838e-09 2.506114077e-09)
(0.01099966791 -1.921131228e-09 2.516597804e-09)
(0.01099965156 -2.138160755e-09 1.78413894e-09)
(0.01100018498 1.135755401e-08 -3.829263209e-09)
(0.01100014625 2.030451278e-08 -8.239950024e-09)
(0.01100013617 1.16266151e-08 -4.08868071e-09)
(0.01100009803 6.15444662e-09 -1.900184358e-10)
(0.01100005398 3.189752191e-09 -9.196185626e-10)
(0.01100000948 1.017471919e-09 -8.680596062e-10)
(0.01099996137 -1.058292136e-10 -5.890279519e-10)
(0.01099992025 -7.56116718e-10 3.660806275e-09)
(0.01099987829 -2.341297785e-09 2.348793946e-09)
(0.01099984442 -2.854461851e-09 3.07193629e-09)
(0.01099981188 -2.787042143e-09 2.532565259e-09)
(0.01099978048 -3.309792898e-09 1.425764362e-09)
(0.01099975315 -6.305256999e-09 2.660343345e-09)
(0.01099973093 -3.876079525e-09 2.808367193e-09)
(0.01100016455 2.27463955e-08 -7.617144614e-10)
(0.0110001515 1.998976471e-08 -5.623970612e-09)
(0.01100015498 1.380820413e-08 -3.306820944e-09)
(0.01100013909 7.751200474e-09 -1.98705339e-09)
(0.011000118 4.287996829e-09 -2.399102059e-09)
(0.01100008766 1.906827409e-09 2.602310925e-11)
(0.01100005538 -8.136909152e-10 -9.371522832e-10)
(0.01100002002 -6.621364603e-10 1.14534463e-09)
(0.01099998241 -1.82328072e-09 8.399555795e-10)
(0.01099994672 -1.721881611e-09 2.092532135e-09)
(0.01099991034 -3.091428768e-09 1.939910942e-09)
(0.01099987706 -4.151440099e-09 2.286014082e-09)
(0.01099984799 -5.089515907e-09 2.875371192e-09)
(0.01099981594 -4.311273102e-09 1.084623622e-09)
(0.01100015512 2.842109893e-09 -2.038990759e-09)
(0.01100015712 3.327136035e-09 -6.147523163e-09)
(0.01100016767 2.622943828e-09 -1.958966432e-09)
(0.01100015829 2.449536459e-09 -1.242395827e-09)
(0.01100014667 1.851789993e-09 -3.170044208e-09)
(0.0110001286 1.473766344e-09 -1.739929355e-09)
(0.01100010467 1.423707068e-09 -1.487164476e-09)
(0.01100007438 -2.827366563e-11 9.341862919e-10)
(0.01100004116 1.196116582e-09 1.873249759e-10)
(0.01100000793 1.790846744e-11 9.986870055e-11)
(0.01099997257 -2.378584283e-09 9.28759269e-10)
(0.01099994 -1.662419717e-09 2.356423944e-09)
(0.01099990758 -1.957368761e-09 3.367732976e-09)
(0.01099987747 -3.226751698e-09 2.88905068e-09)
(0.01100011377 -1.802337022e-08 -5.120924662e-08)
(0.01100016318 -8.145750011e-10 -2.312480828e-08)
(0.01100015471 -5.300383832e-09 -1.999087764e-08)
(0.01100015719 -5.540021529e-09 -1.22277376e-08)
(0.01100013885 -3.210044223e-09 -8.581179708e-09)
(0.01100011639 -3.514727743e-09 -4.96571042e-09)
(0.01100008877 -1.956859691e-10 -2.491003316e-09)
(0.01100005653 1.215134118e-09 -3.225980402e-10)
(0.01100002002 8.887770964e-10 5.938923026e-10)
(0.01099998037 2.350882452e-10 3.208236199e-09)
(0.01099994725 1.428486895e-09 2.798615539e-09)
(0.01099991127 2.576408017e-09 1.369222757e-09)
(0.01099987777 1.63165479e-09 4.593482844e-09)
(0.01099984682 8.334046433e-10 5.054158173e-09)
(0.01099981682 3.609899307e-09 4.444311982e-09)
(0.01100017127 -2.254729765e-08 -2.421716714e-08)
(0.01100013065 -2.60927608e-08 -2.55267897e-08)
(0.01100012396 -1.622180456e-08 -1.511386e-08)
(0.01100009181 -8.375820602e-09 -8.028081714e-09)
(0.01100005345 -3.751321386e-09 -3.907558182e-09)
(0.01100001268 -1.314262463e-09 -1.000203376e-09)
(0.01099997089 1.64672986e-09 2.886670367e-09)
(0.01099992998 2.163478452e-09 2.606781266e-09)
(0.01099989426 4.645425628e-09 3.594549365e-09)
(0.01099985879 3.954255185e-09 3.73925551e-09)
(0.01099982765 5.11297953e-09 4.278375195e-09)
(0.01099979812 6.108052392e-09 4.986259361e-09)
(0.01099977483 7.836922477e-09 4.672053428e-09)
(0.01099974694 5.654449886e-09 4.415898255e-09)
(0.01100019895 -1.356745223e-09 -4.248017187e-08)
(0.01100008796 -2.646984591e-08 -3.936159002e-08)
(0.01100005062 -1.457328177e-08 -1.48539136e-08)
(0.01099998067 -6.943277275e-09 -3.57786352e-09)
(0.01099991725 -2.10504032e-09 3.034492231e-09)
(0.01099985945 1.027111476e-09 6.87570312e-09)
(0.01099981259 3.055616076e-09 6.794264484e-09)
(0.01099977248 4.778603137e-09 7.319667911e-09)
(0.01099973725 3.7658167e-09 6.093681129e-09)
(0.01099971277 3.595535138e-09 6.171378247e-09)
(0.01099969064 4.319049099e-09 6.251265187e-09)
(0.01099966937 6.103134806e-09 4.752425201e-09)
(0.01099965317 6.055224034e-09 7.400633847e-09)
(0.01099964201 6.479907065e-09 6.458848106e-09)
(0.0110001626 -4.462544668e-10 -8.436955734e-09)
(0.01099994384 -6.108777e-09 -4.357482278e-08)
(0.0109998956 4.463323907e-09 -1.013179895e-08)
(0.01099980334 9.047874146e-09 3.315304833e-09)
(0.01099973032 7.460612905e-09 9.612791659e-09)
(0.01099967358 7.155945732e-09 1.307792922e-08)
(0.01099963099 4.714833167e-09 1.318589403e-08)
(0.01099960281 3.887761409e-09 1.080154853e-08)
(0.01099958041 4.051113022e-09 8.271956167e-09)
(0.01099956553 2.987350184e-09 8.584457843e-09)
(0.01099955631 1.708347434e-09 6.90222619e-09)
(0.01099954977 1.990945606e-09 5.47683052e-09)
(0.01099954422 3.516661674e-09 8.872914495e-09)
(0.01099954437 4.484460136e-09 8.780874996e-09)
(0.011000281 -9.274247918e-10 4.840412092e-08)
(0.0109998596 4.116583439e-10 9.162065575e-09)
(0.01099978478 1.1366905e-09 3.308388259e-08)
(0.01099968367 3.647922436e-10 3.19931363e-08)
(0.01099961502 1.224943417e-09 2.599369542e-08)
(0.0109995711 4.385334254e-10 2.24654698e-08)
(0.0109995412 -4.290296891e-10 1.674416435e-08)
(0.01099952062 5.506502608e-10 1.212328049e-08)
(0.01099950688 -4.138504154e-10 9.765297073e-09)
(0.01099950049 -4.613186805e-10 8.92595192e-09)
(0.01099950106 -1.535056379e-10 8.168883002e-09)
(0.01099949957 -8.300470856e-10 7.236539153e-09)
(0.01099950063 -1.424332021e-09 9.516619106e-09)
(0.01099950571 -7.95805135e-11 7.55818682e-09)
(0.01100016104 8.12281695e-10 -8.340140691e-09)
(0.0109999443 7.984327113e-09 -4.418996983e-08)
(0.01099989521 -3.143937723e-09 -1.018909265e-08)
(0.01099980208 -7.660363241e-09 4.766603619e-09)
(0.01099972834 -8.953640814e-09 1.238808578e-08)
(0.01099967432 -7.678709755e-09 1.484110351e-08)
(0.0109996311 -6.486574399e-09 1.390134782e-08)
(0.01099960142 -5.06997199e-09 1.203012007e-08)
(0.01099957875 -2.914930065e-09 1.084153575e-08)
(0.01099956467 -3.344867151e-09 1.047523044e-08)
(0.01099955414 -2.44623339e-09 6.884970138e-09)
(0.01099954929 -3.574570916e-09 5.973562737e-09)
(0.01099954465 -3.815268275e-09 8.730301624e-09)
(0.01099954439 -3.272980738e-09 8.415266861e-09)
(0.01100019569 2.286470825e-09 -4.118642355e-08)
(0.01100008781 2.747980587e-08 -4.03928192e-08)
(0.01100004826 1.550780978e-08 -1.416685601e-08)
(0.01099997982 4.666191696e-09 -1.905280569e-09)
(0.01099991494 2.017241094e-09 3.519580931e-09)
(0.01099985973 -1.996702964e-09 6.134801107e-09)
(0.01099981147 -4.062581098e-09 8.86823515e-09)
(0.01099977369 -5.281627453e-09 9.510516178e-09)
(0.01099973681 -5.333849924e-09 9.505140533e-09)
(0.01099971074 -4.814164463e-09 6.733058712e-09)
(0.01099968781 -4.874476339e-09 5.572968976e-09)
(0.01099967025 -4.586849484e-09 4.779861112e-09)
(0.01099965482 -5.189485868e-09 7.185509642e-09)
(0.01099964188 -6.839130469e-09 6.518213143e-09)
(0.01100017175 2.212291643e-08 -2.336159702e-08)
(0.01100013168 2.522424953e-08 -2.50996129e-08)
(0.01100012241 1.54033249e-08 -1.543539363e-08)
(0.01100008898 7.910215241e-09 -7.247580711e-09)
(0.01100005362 3.294132712e-09 -3.392837839e-09)
(0.0110000103 -1.503705573e-09 -1.804986229e-10)
(0.01099996958 -2.704285027e-09 3.432764219e-09)
(0.01099993156 -3.880832144e-09 3.432301693e-09)
(0.01099989452 -5.031551663e-09 5.422841008e-09)
(0.01099985954 -3.664204659e-09 5.461680505e-09)
(0.01099982492 -4.906636417e-09 4.652576772e-09)
(0.01099979788 -4.063217725e-09 3.608868369e-09)
(0.0109997728 -5.63020899e-09 5.425416183e-09)
(0.0109997506 -4.676269686e-09 4.708566937e-09)
(0.01100016386 1.143420262e-09 -2.21690567e-08)
(0.01100015014 5.782574227e-09 -1.912557782e-08)
(0.01100015545 4.469585344e-09 -1.177225708e-08)
(0.01100013766 4.013375333e-09 -8.677733257e-09)
(0.01100011635 3.301280743e-09 -3.877471049e-09)
(0.0110000867 2.777113828e-10 -1.150865984e-09)
(0.01100005483 1.542698638e-09 -8.358766469e-10)
(0.01100001829 8.5967847e-10 6.893290908e-10)
(0.01099998053 -5.595906332e-10 2.290796318e-09)
(0.01099994484 -3.007896421e-09 2.719019722e-09)
(0.01099991161 -2.663721762e-09 2.904903739e-09)
(0.01099987585 -2.114762806e-09 1.493491029e-09)
(0.01099985067 -2.756874821e-09 3.612793275e-09)
(0.01099982012 -1.945290409e-09 4.195452112e-09)
(0.01100011216 -3.952246183e-08 -6.220758026e-08)
(0.01100018449 -1.798528332e-09 -1.313662079e-08)
(0.01100014618 -9.859815677e-09 -1.948108666e-08)
(0.01100013525 -1.706744789e-09 -1.161969385e-08)
(0.01100009623 1.629498855e-10 -7.632433266e-09)
(0.01100005551 -1.591250304e-09 -4.732450071e-09)
(0.01100001075 1.27543414e-09 5.644538772e-10)
(0.01099996328 3.901827268e-09 2.311173666e-09)
(0.01099992143 5.203221808e-09 1.326433003e-09)
(0.01099987889 3.436036532e-09 -2.032668821e-11)
(0.01099984434 3.770744165e-09 1.360685335e-09)
(0.01099981155 5.026249583e-09 2.959765895e-09)
(0.01099978054 4.566053492e-09 5.381611209e-09)
(0.01099975367 4.863994798e-09 6.906008182e-09)
(0.01099972929 5.174432713e-09 6.392855416e-09)
(0.01100011619 -1.853203811e-07 -9.756473506e-08)
(0.01100019615 -4.101883921e-08 -2.002533516e-09)
(0.01100008572 -3.750676585e-08 -2.904307687e-08)
(0.01100004814 -1.534909711e-08 -1.543672639e-08)
(0.0109999804 -2.44148179e-09 -9.302436426e-09)
(0.01099991596 2.569730558e-09 -1.637392972e-09)
(0.01099986032 5.53615361e-09 1.152410921e-09)
(0.01099981015 6.751661369e-09 2.567247373e-09)
(0.01099976992 6.55537208e-09 4.99358225e-09)
(0.01099973862 6.416583132e-09 3.876211744e-09)
(0.01099971225 5.76359766e-09 1.631199814e-09)
(0.01099968783 7.629392822e-09 2.965930946e-09)
(0.0109996699 6.353299084e-09 4.089538217e-09)
(0.01099965637 6.946572985e-09 7.421240723e-09)
(0.01099964366 7.196705792e-09 6.035187163e-09)
(0.01100021575 3.611396279e-09 -1.469130708e-09)
(0.01099992057 -3.927169862e-08 -4.052666317e-08)
(0.01099981311 -8.024430351e-09 -8.601443503e-09)
(0.01099969011 5.408139729e-09 4.366535502e-09)
(0.01099960343 8.958934426e-09 1.08754696e-08)
(0.01099954595 1.224185155e-08 1.190277449e-08)
(0.01099951423 1.234401601e-08 1.188148868e-08)
(0.01099949581 9.459951692e-09 9.273966612e-09)
(0.01099948598 9.237656063e-09 9.315085555e-09)
(0.01099948594 7.417659334e-09 5.718162406e-09)
(0.01099948772 5.352337817e-09 4.224893354e-09)
(0.01099949311 5.187743388e-09 4.348076115e-09)
(0.01099949803 9.838041592e-09 5.100629797e-09)
(0.0109995038 7.58097644e-09 7.409845861e-09)
(0.01099999595 6.451459577e-08 1.112522288e-07)
(0.01099942458 3.31456674e-08 -7.76975326e-08)
(0.01099933355 4.218546914e-08 -9.770466292e-09)
(0.01099920697 3.680137878e-08 1.533531087e-08)
(0.01099915715 2.631073977e-08 1.789053288e-08)
(0.0109991493 1.839478183e-08 1.884170556e-08)
(0.01099916237 1.227087015e-08 1.649263851e-08)
(0.01099919209 8.595196642e-09 1.34361361e-08)
(0.01099922335 8.948449976e-09 9.604694441e-09)
(0.01099925858 5.286095738e-09 6.488932651e-09)
(0.01099929283 5.250336673e-09 4.41365555e-09)
(0.01099932332 4.772614426e-09 3.478230746e-09)
(0.01099935266 6.017131472e-09 5.471496388e-09)
(0.01099937455 5.152762987e-09 6.407153804e-09)
(0.01100012227 -3.209884721e-10 5.503043762e-07)
(0.01099892935 1.510596984e-09 3.214569219e-08)
(0.01099888758 3.445714846e-10 5.63468695e-08)
(0.01099883507 1.6846894e-09 5.970657556e-08)
(0.01099885928 1.002211695e-09 3.9921068e-08)
(0.01099891565 1.85396138e-09 2.734671142e-08)
(0.01099897853 1.094754166e-09 1.718188015e-08)
(0.01099904351 1.386448925e-09 1.282675353e-08)
(0.01099910139 4.079031165e-10 7.590831241e-09)
(0.01099915883 -6.334422591e-10 4.301643079e-09)
(0.01099920867 3.223737363e-10 3.972074052e-09)
(0.01099925202 -8.970633288e-10 3.460639335e-09)
(0.01099929015 -1.737648585e-09 7.107053349e-09)
(0.0109993234 1.259055218e-09 7.53048229e-09)
(0.01099999792 -6.290461602e-08 1.102717296e-07)
(0.01099942506 -3.309680275e-08 -8.039470431e-08)
(0.01099933169 -4.146270594e-08 -1.077726905e-08)
(0.01099920846 -3.595754808e-08 1.545708437e-08)
(0.01099915807 -2.606521189e-08 1.90637036e-08)
(0.01099914924 -1.948471001e-08 2.072253307e-08)
(0.01099916334 -1.418402065e-08 1.470210167e-08)
(0.01099919047 -8.373585314e-09 1.355129463e-08)
(0.0109992248 -5.685634234e-09 1.143123382e-08)
(0.0109992553 -5.760384729e-09 6.613077675e-09)
(0.01099929279 -5.262873367e-09 6.737982924e-09)
(0.01099932156 -4.887620887e-09 5.737609018e-09)
(0.01099935143 -4.776988737e-09 9.21405485e-09)
(0.01099937914 -4.612231573e-09 8.217596449e-09)
(0.01100021526 -3.247447279e-09 1.949097482e-10)
(0.01099992085 3.929891632e-08 -4.137456661e-08)
(0.0109998155 7.331518767e-09 -1.10524434e-08)
(0.01099968752 -4.985767471e-09 4.763907782e-09)
(0.0109996026 -1.072828583e-08 9.954896226e-09)
(0.01099955155 -1.165199427e-08 1.332552128e-08)
(0.01099951453 -9.090163025e-09 1.133631865e-08)
(0.01099949485 -8.509289786e-09 1.023318015e-08)
(0.01099948365 -8.639282417e-09 9.673801089e-09)
(0.01099948233 -5.785719927e-09 8.864600877e-09)
(0.01099948797 -4.920597055e-09 8.202879093e-09)
(0.01099949296 -6.167727877e-09 7.674979498e-09)
(0.01099949887 -7.595649812e-09 8.720230336e-09)
(0.01099950436 -8.756976748e-09 8.26167363e-09)
(0.01100019875 3.935630674e-08 -3.722710101e-09)
(0.01100008587 3.844397825e-08 -2.851552052e-08)
(0.01100004959 1.436879919e-08 -1.826654635e-08)
(0.01099997676 1.36948054e-09 -6.227918221e-09)
(0.01099991612 -3.027329902e-09 -1.385186765e-09)
(0.01099985984 -7.071177069e-09 3.434728049e-09)
(0.010999811 -9.281639351e-09 4.558434654e-09)
(0.01099977091 -7.957713842e-09 6.909148221e-09)
(0.01099973658 -8.112885293e-09 5.524844574e-09)
(0.01099970935 -6.361408566e-09 3.907086169e-09)
(0.01099968695 -5.91917753e-09 4.998144018e-09)
(0.01099966999 -5.519259428e-09 4.324831572e-09)
(0.0109996578 -7.153889516e-09 6.585937086e-09)
(0.01099964178 -6.241972649e-09 5.557256886e-09)
(0.01100018482 5.980532551e-09 -1.347733065e-08)
(0.01100014859 9.506868907e-09 -2.265999382e-08)
(0.01100013801 5.014910795e-09 -1.608530015e-08)
(0.01100009619 1.888092022e-09 -8.984143245e-09)
(0.01100005394 7.854489452e-10 -5.410359296e-09)
(0.01100000802 -2.465719039e-09 -7.73412435e-10)
(0.01099996396 -1.854850879e-09 5.033157528e-10)
(0.01099992229 -2.073194174e-09 3.026940572e-09)
(0.01099987864 -1.517809413e-09 3.496978205e-09)
(0.0109998435 -2.214969495e-09 1.862516547e-09)
(0.01099980881 -2.834327984e-09 3.241119226e-09)
(0.01099977945 -2.429048266e-09 3.416177637e-09)
(0.01099975555 -3.127689638e-09 5.673837241e-09)
(0.01099972953 -1.950414007e-09 4.552806891e-09)
(0.01100012054 -5.253804067e-08 -1.100833491e-07)
(0.01100019159 1.057606437e-08 -2.396435185e-08)
(0.01100010896 -1.267154709e-08 -1.376351048e-08)
(0.01100008507 -6.885818381e-09 -5.020501547e-09)
(0.01100002825 -3.422883033e-09 1.723964249e-10)
(0.01099997433 2.128034011e-09 -7.990271107e-11)
(0.01099991755 1.872909849e-09 1.232915317e-09)
(0.01099986358 4.070307585e-09 1.322844537e-09)
(0.0109998182 3.993043268e-09 2.01690487e-09)
(0.01099977694 3.11329127e-09 2.359187918e-09)
(0.01099974324 2.166914939e-09 1.261746574e-09)
(0.01099971416 3.67294832e-09 6.32220179e-10)
(0.01099969003 3.509841885e-09 1.281445411e-09)
(0.01099966929 4.7555921e-09 3.143710828e-09)
(0.01099964993 4.000396457e-09 4.651285169e-09)
(0.01100012367 -2.725915213e-07 -2.241132452e-07)
(0.01100016457 -8.541412425e-09 -7.171286533e-10)
(0.01099994411 -4.387692286e-08 -7.311390794e-09)
(0.01099989392 -1.025743332e-08 1.66433336e-09)
(0.01099980421 4.577621289e-09 7.748664789e-09)
(0.01099973085 1.155880188e-08 6.702862461e-09)
(0.01099967584 1.281942367e-08 5.365197159e-09)
(0.01099962907 1.198405886e-08 5.307945554e-09)
(0.01099960045 1.16984125e-08 2.947070944e-09)
(0.01099957879 1.18281908e-08 4.529393373e-09)
(0.01099956406 9.788561135e-09 2.307580816e-09)
(0.01099955562 8.657338201e-09 1.502452803e-09)
(0.01099955127 7.426376317e-09 2.339427712e-09)
(0.01099954757 6.461160985e-09 4.092563928e-09)
(0.01099954339 6.973295292e-09 3.721253054e-09)
(0.01100004574 -3.389174753e-07 -6.702115766e-07)
(0.01099999711 1.122233699e-07 6.427023148e-08)
(0.01099942432 -7.73398743e-08 3.184908662e-08)
(0.01099933162 -9.824213768e-09 4.157464025e-08)
(0.01099920738 1.665484359e-08 3.707952119e-08)
(0.01099915872 1.935555048e-08 2.572475271e-08)
(0.0109991511 1.943975244e-08 1.788860507e-08)
(0.01099916297 1.628880474e-08 1.436132312e-08)
(0.01099919111 1.477089667e-08 9.455917911e-09)
(0.01099922297 1.086371945e-08 6.898476128e-09)
(0.01099925584 1.011999942e-08 4.286853377e-09)
(0.01099929183 6.750919986e-09 2.980654786e-09)
(0.01099932081 3.778861265e-09 4.6958716e-09)
(0.01099935152 7.861453246e-09 4.534773515e-09)
(0.01099937698 6.989323464e-09 4.433111453e-09)
(0.01099875041 5.499558887e-07 5.475273221e-07)
(0.01099788202 6.623657276e-08 6.553114168e-08)
(0.01099813315 7.168141628e-08 7.052297408e-08)
(0.01099816892 6.63424071e-08 6.542827165e-08)
(0.01099829953 3.945379027e-08 4.050180394e-08)
(0.01099845415 2.527083308e-08 2.588117034e-08)
(0.01099859846 1.462349553e-08 1.636586607e-08)
(0.01099873055 9.85789819e-09 1.043944728e-08)
(0.01099884461 6.582398669e-09 5.849163176e-09)
(0.01099894563 4.082954017e-09 4.956437026e-09)
(0.01099903152 5.348965233e-09 5.847062248e-09)
(0.01099910585 4.583525798e-09 5.457014848e-09)
(0.01099916827 5.427541219e-09 6.224340368e-09)
(0.01099922314 5.630550471e-09 4.603480177e-09)
(0.0109974581 -1.489007281e-09 3.352909367e-06)
(0.01099559191 -6.215406933e-10 8.176354633e-07)
(0.01099680163 5.894098092e-10 3.214737789e-07)
(0.01099727544 -5.634804023e-10 1.723181297e-07)
(0.01099767998 -3.375365782e-11 7.626431405e-08)
(0.01099802571 -8.465935477e-10 3.299209129e-08)
(0.01099829181 -6.382097196e-10 1.373676143e-08)
(0.01099850341 7.879957651e-10 6.787824138e-09)
(0.01099867078 6.251054337e-10 4.04386276e-09)
(0.01099880593 -5.879942385e-10 9.466964115e-10)
(0.01099892147 -1.884945132e-10 1.260142737e-09)
(0.01099901617 -1.449464138e-09 1.67050481e-09)
(0.01099909382 9.927178641e-10 3.662750837e-09)
(0.01099916218 2.163220467e-09 4.511329754e-09)
(0.01099874978 -5.49193025e-07 5.46992599e-07)
(0.01099787982 -6.692332343e-08 6.429007262e-08)
(0.01099813294 -7.298315938e-08 7.004979735e-08)
(0.01099816972 -6.615045328e-08 6.290450343e-08)
(0.01099829834 -4.10765752e-08 3.90217891e-08)
(0.01099845247 -2.518744611e-08 2.302845985e-08)
(0.01099859929 -1.616285916e-08 1.592003413e-08)
(0.01099873259 -9.844521096e-09 1.114866146e-08)
(0.0109988427 -5.695570075e-09 5.497040655e-09)
(0.01099894627 -6.462487722e-09 4.374449554e-09)
(0.01099902853 -4.363528698e-09 4.80834898e-09)
(0.01099910653 -2.598718225e-09 5.062944056e-09)
(0.01099916792 -4.347305336e-09 5.61677892e-09)
(0.01099922434 -5.034295634e-09 5.762235364e-09)
(0.01099999822 -1.120280569e-07 6.095012512e-08)
(0.01099942341 7.839362426e-08 3.010399837e-08)
(0.0109993311 8.584149051e-09 4.097930357e-08)
(0.0109992078 -1.5975353e-08 3.542533802e-08)
(0.01099915579 -1.904303886e-08 2.552966652e-08)
(0.01099914907 -2.111110223e-08 1.718192614e-08)
(0.01099916587 -1.660452016e-08 1.271737669e-08)
(0.01099919256 -1.24888824e-08 8.597453967e-09)
(0.01099922326 -9.339589988e-09 6.60108135e-09)
(0.01099925443 -7.068539945e-09 5.943368403e-09)
(0.01099928945 -6.10573201e-09 4.872315429e-09)
(0.01099932185 -5.987307211e-09 4.789220657e-09)
(0.01099934904 -8.875717631e-09 4.743408284e-09)
(0.01099937564 -9.460093251e-09 3.637764532e-09)
(0.0110001614 8.891613241e-09 3.808754034e-10)
(0.01099994284 4.415371783e-08 -6.719340788e-09)
(0.01099989266 1.030117345e-08 2.276590471e-09)
(0.01099980192 -6.674820232e-09 5.470557503e-09)
(0.01099972861 -1.081936952e-08 6.959037099e-09)
(0.01099967142 -1.339635418e-08 5.571722854e-09)
(0.01099963328 -1.324753302e-08 4.04917411e-09)
(0.01099960076 -1.242942325e-08 3.782649256e-09)
(0.01099957602 -1.088128175e-08 5.067444471e-09)
(0.01099956291 -8.613225196e-09 3.677854343e-09)
(0.01099955335 -8.342840341e-09 2.439949764e-09)
(0.01099954974 -7.897296694e-09 3.597332055e-09)
(0.01099954607 -1.050554935e-08 3.699645136e-09)
(0.01099954313 -8.081006853e-09 3.841604824e-09)
(0.01100019239 -9.508666119e-09 -2.256306927e-08)
(0.01100010823 1.163938889e-08 -1.47806697e-08)
(0.01100008622 7.408098881e-09 -5.003095436e-09)
(0.01100002895 2.700727952e-09 -7.055616632e-11)
(0.0109999713 3.424220001e-10 2.61580218e-09)
(0.01099991512 -1.316093528e-09 2.462697446e-09)
(0.01099986467 -3.553462189e-09 1.40213533e-09)
(0.01099981996 -2.958114904e-09 1.729669303e-09)
(0.01099977581 -3.554707194e-09 2.699080373e-09)
(0.01099974114 -2.87867088e-09 3.961375665e-09)
(0.01099971361 -3.516149017e-09 2.728031695e-09)
(0.01099968882 -3.380716624e-09 2.149114641e-09)
(0.01099966945 -3.066148252e-09 3.372353881e-09)
(0.01099964973 -2.424433873e-09 3.436381257e-09)
(0.01100012972 -1.480505085e-07 -7.21812191e-10)
(0.0110002653 2.36727526e-08 -1.227894411e-10)
(0.01100010929 -2.765441664e-09 -6.420206973e-10)
(0.01100006302 4.430247527e-09 -1.589254171e-09)
(0.01099999184 6.922878452e-09 -2.645192285e-09)
(0.0109999264 8.234099721e-09 -1.682765759e-09)
(0.01099986716 7.617624473e-09 -2.54861556e-09)
(0.01099981704 7.20534999e-09 -2.170740393e-09)
(0.01099977174 5.506144157e-09 -3.634403819e-10)
(0.01099973061 7.054076092e-09 -9.618724907e-10)
(0.01099969944 4.212686354e-09 -4.363207667e-10)
(0.01099967278 5.033874109e-09 -3.872401891e-11)
(0.01099965371 3.981844915e-09 -5.909605996e-10)
(0.01099963355 5.021750866e-09 -3.169115226e-10)
(0.01099961892 4.751466876e-09 -1.655450502e-09)
(0.01100015741 -7.304778031e-07 7.948317843e-10)
(0.0110002825 4.896095186e-08 -1.502109503e-09)
(0.01099985769 8.798096664e-09 -1.971532637e-11)
(0.01099978545 3.122965866e-08 -1.215660638e-09)
(0.01099968371 3.433919966e-08 -5.05141454e-10)
(0.01099961577 2.736433932e-08 -4.3848839e-10)
(0.01099957163 2.1789754e-08 -8.451562739e-10)
(0.01099954015 1.841659437e-08 -8.109072954e-10)
(0.01099952034 1.284780751e-08 5.542027786e-11)
(0.01099950694 1.115785963e-08 7.178642342e-10)
(0.01099950095 8.938337362e-09 2.213957691e-09)
(0.01099949767 8.394249212e-09 -3.091581134e-10)
(0.01099950085 7.317579627e-09 -2.145365657e-09)
(0.01099950319 8.246225865e-09 -6.37634522e-10)
(0.01099950517 8.372325712e-09 -3.645725577e-10)
(0.01099996739 -1.365675111e-06 -2.205921268e-09)
(0.01100012378 5.520629403e-07 -1.818347282e-09)
(0.0109989276 3.387534548e-08 -1.467789983e-09)
(0.01099888518 5.846311871e-08 -3.897107962e-10)
(0.01099883435 6.037639656e-08 3.328920022e-10)
(0.01099885683 3.934957086e-08 -1.814924613e-09)
(0.01099891521 2.773253176e-08 -6.761817383e-10)
(0.01099897696 1.74660714e-08 1.406741554e-10)
(0.0109990429 1.353175446e-08 4.311769916e-10)
(0.01099910105 8.904361094e-09 -5.551926193e-10)
(0.01099915726 6.712363701e-09 -3.742135834e-10)
(0.01099920834 5.975263151e-09 -1.071910363e-09)
(0.0109992537 6.536270105e-09 -1.042827904e-09)
(0.01099928914 8.960422197e-09 1.64320108e-10)
(0.01099932305 8.926577661e-09 8.901476884e-10)
(0.01099735732 -6.781025595e-06 -1.013898745e-09)
(0.01099745464 3.353444715e-06 -4.459056344e-10)
(0.01099559025 8.193904521e-07 -4.857922766e-10)
(0.01099680158 3.212570388e-07 -3.562081933e-10)
(0.01099727331 1.727779504e-07 1.102156153e-11)
(0.01099768067 7.567882155e-08 -1.157858463e-09)
(0.01099802563 3.367362429e-08 -2.408781211e-09)
(0.01099829217 1.518505991e-08 -7.646896884e-10)
(0.01099850254 8.05705283e-09 -6.095834164e-10)
(0.01099866979 4.393562264e-09 8.26864878e-10)
(0.01099880736 1.888891584e-09 -9.887621151e-10)
(0.0109989203 2.550049345e-09 -1.714748116e-09)
(0.01099901596 3.705019238e-09 -1.497629063e-10)
(0.01099909303 4.887667657e-09 5.605031245e-10)
(0.01099916035 5.23798341e-09 2.246509583e-09)
(0.0109942678 -1.762288717e-09 -1.183651745e-09)
(0.01098793988 -1.514034719e-09 -1.813968636e-09)
(0.01099359183 -2.842442551e-10 -7.374695068e-10)
(0.01099563961 -1.250314437e-09 -1.715248883e-09)
(0.01099672421 -3.527393371e-10 -1.236020531e-09)
(0.01099743791 -1.490892304e-09 -2.253297277e-09)
(0.01099790426 -6.226466568e-10 2.996802561e-10)
(0.01099823088 -4.453700188e-10 7.920802935e-10)
(0.0109984676 5.880141398e-10 1.604568807e-10)
(0.01099865014 5.494798303e-10 1.06185852e-09)
(0.01099879857 -5.684708488e-10 4.421751207e-10)
(0.01099891944 -2.013890254e-09 -4.113309178e-10)
(0.01099901049 5.109328046e-10 2.538068425e-10)
(0.0109990988 1.154888198e-09 2.016146169e-09)
(0.01099745707 -3.354683374e-06 -9.550872359e-10)
(0.01099559274 -8.201967904e-07 -1.859953727e-09)
(0.0109968005 -3.222662609e-07 -7.649664002e-10)
(0.01099727533 -1.7551316e-07 -5.132946849e-10)
(0.01099768117 -7.804182512e-08 -2.268612396e-09)
(0.01099802492 -3.589869304e-08 -1.558443728e-09)
(0.01099829275 -1.534111232e-08 -1.12494277e-09)
(0.01099850222 -7.237907368e-09 -8.442270402e-10)
(0.01099867061 -5.236488769e-09 -1.592650493e-10)
(0.01099880724 -1.505845186e-09 -7.033229677e-10)
(0.01099891911 -1.05153508e-09 -1.197554346e-09)
(0.01099901783 -2.636590337e-09 2.378216967e-10)
(0.01099909269 -5.618809142e-09 -4.967805675e-10)
(0.01099916188 -6.37539044e-09 6.334689666e-10)
(0.01100012183 -5.516731285e-07 -1.808800339e-09)
(0.01099892624 -3.353095737e-08 -2.93269972e-09)
(0.01099888333 -6.012937536e-08 -1.36174958e-09)