/*--------------------------------*- C++ -*----------------------------------*\
| =========                 |                                                 |
| \\      /  F ield         | OpenFOAM: The Open Source CFD Toolbox           |
|  \\    /   O peration     | Version:  4.x                                   |
|   \\  /    A nd           | Web:      www.OpenFOAM.org                      |
|    \\/     M anipulation  |                                                 |
\*---------------------------------------------------------------------------*/
FoamFile
{
    version     2.0;
    format      ascii;
    class       volScalarField;
    location    "8000";
    object      X_CO2;
}
// * * * * * * * * * * * * * * * * * * * * * * * * * * * * * * * * * * * * * //

dimensions      [0 0 0 0 0 0 0];

internalField   nonuniform List<scalar> 
1174
(
0.004153293091
0.004154774676
0.00415686887
0.004159602005
0.004162945752
0.004166826088
0.004171141441
0.004175773082
0.004180601352
0.004185513564
0.0041904064
0.004195169503
0.004199606677
0.004203094765
0.004154688587
0.004157068603
0.004160240049
0.004164130072
0.00416860433
0.004173501351
0.004178655568
0.004183915721
0.004189155245
0.004194273079
0.004199188994
0.004203826214
0.004208036466
0.004211286693
0.004157775037
0.004161990266
0.004167209113
0.00417313776
0.004179456901
0.004185880582
0.004192180687
0.004198196417
0.004203824116
0.004209008097
0.004213724491
0.004217958578
0.004221643674
0.004224402842
0.004162305285
0.004168863772
0.004176397019
0.004184353819
0.004192273377
0.004199825363
0.004206803099
0.004213098371
0.004218678287
0.004223557244
0.004227776966
0.004231385127
0.004234388752
0.004236562497
0.004165545694
0.004173393319
0.004181957764
0.004190633727
0.004198985061
0.004206731244
0.0042137205
0.004219893424
0.00422525498
0.004229849336
0.004233742605
0.004237001638
0.004239658393
0.004241549172
0.004162304806
0.004168863643
0.004176397216
0.004184353649
0.004192272947
0.004199824939
0.00420680213
0.004213097633
0.00421867786
0.004223556603
0.0042277765
0.004231384736
0.004234387828
0.004236561373
0.004157774593
0.004161990116
0.004167208946
0.004173136977
0.004179456732
0.004185880118
0.004192180419
0.004198195691
0.004203823763
0.004209007083
0.004213722995
0.004217957245
0.004221642399
0.004224401575
0.004154688116
0.0041570683
0.004160239561
0.004164129865
0.004168604237
0.004173501473
0.004178654893
0.004183914712
0.0041891544
0.004194272421
0.004199188171
0.00420382473
0.004208034969
0.004211285673
0.004153292967
0.004154774487
0.004156868506
0.004159601792
0.00416294579
0.004166826645
0.004171141429
0.00417577205
0.004180599899
0.00418551239
0.004190405041
0.004195167221
0.00419960464
0.004203092845
0.004153082476
0.004154688275
0.00415706825
0.004160239434
0.004164129686
0.004168604497
0.00417350141
0.004178655239
0.004183915514
0.004189155858
0.004194273231
0.004199188917
0.00420382592
0.004208036083
0.004211286827
0.004157840681
0.004162029364
0.004167139602
0.00417286424
0.004178894997
0.004184971243
0.004190898493
0.004196547108
0.004201840598
0.00420674102
0.004211234694
0.004215309636
0.004218894288
0.004221603285
0.004165783346
0.004173939584
0.004182808708
0.004191639739
0.004199916721
0.004207357754
0.004213859254
0.004219435963
0.004224163637
0.004228145698
0.004231490117
0.00423429058
0.004236590449
0.004238244754
0.004179925246
0.00419351045
0.004206433648
0.004217724851
0.00422704418
0.004234435358
0.004240127138
0.00424441081
0.004247571511
0.004249861645
0.004251487741
0.004252615535
0.004253370267
0.004253819577
0.004193294085
0.004209655878
0.00422352111
0.004234521876
0.00424287374
0.004249001824
0.004253357061
0.004256345282
0.004258303047
0.00425949794
0.004260138652
0.004260387162
0.004260377993
0.004260254953
0.00417992473
0.004193510095
0.004206433105
0.004217723934
0.00422704336
0.004234434636
0.004240126504
0.004244409973
0.004247570956
0.004249860286
0.004251486868
0.004252614437
0.004253368925
0.004253818492
0.004165782888
0.004173938896
0.00418280849
0.004191638786
0.004199915506
0.004207356679
0.004213858432
0.00421943433
0.004224161492
0.00422814357
0.004231488507
0.004234288322
0.004236588883
0.004238242202
0.004157840157
0.004162028892
0.004167139251
0.004172864197
0.004178894944
0.004184970846
0.004190897844
0.004196546095
0.004201839174
0.00420673944
0.004211233263
0.004215307643
0.004218891811
0.004221600641
0.004154688562
0.004157068604
0.004160240068
0.004164129884
0.004168604542
0.004173501287
0.004178655099
0.004183915077
0.004189154644
0.004194271748
0.004199187309
0.004203823661
0.004208033389
0.004211284105
0.004154746664
0.00415777494
0.004161990317
0.004167209434
0.004173137761
0.004179456498
0.004185879697
0.004192180125
0.004198196493
0.004203823952
0.004209007602
0.004213723661
0.004217958311
0.004221643054
0.004224402235
0.004159201844
0.004165783153
0.004173939355
0.004182809004
0.004191639292
0.004199916243
0.004207357137
0.004213859641
0.004219435767
0.00422416295
0.004228145116
0.004231490035
0.004234290296
0.004236590233
0.004238244366
0.00418929019
0.004206535819
0.004222159957
0.00423497572
0.004244735046
0.004251717268
0.004256416805
0.004259360567
0.004261018033
0.004261772713
0.004261918289
0.004261677051
0.004261227182
0.00426077363
0.004241673648
0.004270858916
0.004291002747
0.004302906243
0.004308508415
0.00430976871
0.004308272216
0.004305165815
0.004301230418
0.004296969644
0.004292699095
0.004288621927
0.004284930096
0.00428210024
0.004310418047
0.004339507105
0.004352012155
0.004354229737
0.004350663287
0.004344151674
0.004336377735
0.004328301235
0.004320445171
0.004313077051
0.004306323583
0.004300245244
0.004294954946
0.004290996021
0.004241671596
0.004270857092
0.004291000611
0.004302904066
0.00430850619
0.004309766791
0.004308269525
0.004305164152
0.004301228128
0.004296967644
0.00429269756
0.004288620218
0.00428492796
0.004282098081
0.004189288662
0.004206534308
0.004222158569
0.004234973726
0.00424473313
0.004251714848
0.004256414377
0.004259357735
0.004261014907
0.004261769823
0.004261915223
0.004261674063
0.004261223942
0.004260770768
0.004165782529
0.00417393908
0.004182808376
0.004191639144
0.004199915489
0.00420735598
0.004213857619
0.004219433753
0.004224160698
0.004228142719
0.00423148699
0.004234286857
0.004236586855
0.004238240968
0.004157775016
0.00416198998
0.004167208951
0.00417313687
0.004179456091
0.004185879358
0.004192179356
0.004198194569
0.00420382147
0.00420900497
0.004213721241
0.004217954793
0.004221639664
0.004224399077
0.004157249202
0.004162305196
0.004168863532
0.004176397044
0.00418435378
0.00419227293
0.004199824611
0.004206801862
0.004213097743
0.004218677986
0.004223556564
0.004227776486
0.004231385188
0.004234387945
0.004236561786
0.004167436333
0.004179924566
0.0041935096
0.004206432669
0.004217723809
0.004227043517
0.004234434193
0.004240126785
0.004244409923
0.004247571312
0.004249860984
0.004251487511
0.004252614912
0.004253369509
0.004253819258
0.004206087724
0.004241671748
0.004270857415
0.004291001744
0.004302905256
0.004308507575
0.004309768112
0.004308271239
0.004305165524
0.004301230162
0.004296969521
0.004292699048
0.004288621696
0.004284929662
0.004282099805
0.004421584045
0.004458484437
0.004464682108
0.004454212083
0.004436281578
0.004416095897
0.004396298914
0.004378072156
0.004361825443
0.004347589059
0.004335231012
0.004324590171
0.004315645959
0.0043091093
0.004775413311
0.004729529128
0.00465872616
0.004590752469
0.004532952663
0.004485779759
0.004447715488
0.004416961275
0.004391944908
0.00437142272
0.004354445262
0.004340336298
0.004328777026
0.004320465268
0.004421576709
0.004458479698
0.00446467714
0.004454207698
0.00443627757
0.00441609231
0.004396295
0.004378068544
0.004361822118
0.004347586135
0.004335228576
0.004324587138
0.004315643518
0.004309106473
0.004241670907
0.004270855828
0.004290999924
0.004302901984
0.004308503439
0.004309764027
0.004308267144
0.004305161344
0.004301225815
0.004296965427
0.004292695113
0.004288617881
0.004284925996
0.004282095987
0.004179924782
0.00419350959
0.004206432172
0.004217722661
0.004227042073
0.004234432583
0.004240123772
0.004244407315
0.004247567956
0.004249857782
0.004251482806
0.004252610758
0.00425336523
0.004253814967
0.004162305014
0.004168863509
0.004176396238
0.004184352933
0.004192272514
0.004199823736
0.004206800197
0.004213095349
0.00421867489
0.004223553316
0.004227773016
0.004231380797
0.004234384161
0.004236557064
0.004159130454
0.004165545096
0.004173393341
0.004181956972
0.004190633212
0.004198984029
0.004206730059
0.00421371898
0.004219892416
0.004225254053
0.00422984888
0.004233741862
0.004237000802
0.004239657554
0.004241548107
0.004176047382
0.004193292519
0.004209654551
0.004223519604
0.004234520334
0.004242872526
0.004249000465
0.004253356103
0.00425634385
0.004258301911
0.004259496821
0.00426013782
0.004260386172
0.004260377286
0.004260254641
0.00425881868
0.004310415753
0.004339504664
0.004352010209
0.004354228391
0.004350661901
0.004344150004
0.004336376555
0.004328299954
0.004320444479
0.004313076563
0.004306322601
0.004300244251
0.004294954671
0.004290995201
0.00471215635
0.004775405823
0.004729524247
0.004658722694
0.004590750383
0.004532951007
0.004485778625
0.004447714814
0.004416960406
0.004391944997
0.00437142186
0.004354445419
0.004340336449
0.004328776751
0.004320465082
0.006302229648
0.00552618837
0.005096389336
0.00484471977
0.00468881254
0.004586813813
0.004516638028
0.004466163857
0.004428464849
0.004399419234
0.004376483365
0.004358066586
0.004343348975
0.004332931506
0.004775411268
0.004729521405
0.004658717241
0.004590743548
0.004532944911
0.004485773101
0.004447709595
0.004416956114
0.004391940811
0.004371418418
0.00435444118
0.004340332042
0.004328773495
0.004320461979
0.004310418308
0.004339504012
0.004352007826
0.004354223823
0.004350656749
0.004344144869
0.004336371342
0.004328295158
0.004320439212
0.004313071675
0.004306317598
0.004300239609
0.004294949492
0.004290990377
0.004193293957
0.004209654479
0.0042235187
0.00423451848
0.004242869831
0.004248997562
0.004253352643
0.004256340148
0.004258297456
0.00425949214
0.004260132758
0.004260381287
0.004260372339
0.004260249646
0.004165545616
0.00417339303
0.004181956452
0.004190632028
0.004198982681
0.004206728484
0.004213717441
0.004219889653
0.004225250418
0.0042298447
0.004233736973
0.004236996004
0.00423965261
0.004241542801
0.004157248892
0.004162304075
0.004168862884
0.004176396086
0.004184352455
0.004192272139
0.00419982402
0.00420680086
0.004213096815
0.004218677008
0.004223555928
0.004227775175
0.00423138366
0.004234386509
0.004236560605
0.004167435541
0.004179923658
0.004193508711
0.004206431643
0.004217722528
0.004227042026
0.004234433676
0.004240125362
0.004244408442
0.004247569258
0.004249858959
0.004251485291
0.004252613379
0.004253367875
0.00425381724
0.004206084973
0.004241668719
0.004270854109
0.004290998811
0.004302902167
0.004308504065
0.004309764978
0.004308268434
0.004305162586
0.004301227525
0.004296966642
0.004292696496
0.004288619356
0.004284927302
0.004282097219
0.004338968619
0.004421570458
0.004458473413
0.004464672668
0.004454204221
0.004436274767
0.004416089938
0.004396293016
0.004378067305
0.00436182081
0.004347585351
0.004335227384
0.00432458648
0.004315642717
0.004309105873
0.004712154284
0.004775402579
0.004729515531
0.004658713143
0.004590740404
0.004532942441
0.00448577147
0.004447708435
0.004416955082
0.00439193958
0.00437141751
0.004354440684
0.004340332219
0.004328772961
0.004320461434
0.004338970531
0.004421570531
0.004458471874
0.004464668902
0.004454199662
0.004436270452
0.004416085534
0.004396289115
0.004378062737
0.00436181612
0.004347580541
0.004335223696
0.004324583551
0.004315639568
0.004309102618
0.004241672739
0.0042708546
0.004290996944
0.004302898988
0.004308499459
0.004309760297
0.004308263277
0.004305157931
0.004301222358
0.004296961837
0.004292691393
0.004288614422
0.004284922852
0.004282092413
0.004179925002
0.00419350943
0.004206431519
0.004217721254
0.004227039703
0.004234430337
0.004240121985
0.004244405171
0.004247565925
0.004249854854
0.004251480535
0.004252608277
0.004253362915
0.00425381241
0.004162304993
0.00416886363
0.004176396866
0.004184352919
0.004192271633
0.004199822898
0.004206799259
0.004213093766
0.00421867319
0.004223552123
0.004227771282
0.004231379224
0.004234382327
0.004236555563
0.004154745996
0.004157773861
0.004161989768
0.004167208571
0.004173136613
0.004179455557
0.004185879185
0.004192179062
0.004198194197
0.004203822017
0.004209005485
0.004213722032
0.004217956201
0.004221640559
0.00422440063
0.00415920095
0.004165781888
0.004173938209
0.004182807333
0.004191638542
0.00419991481
0.004207355404
0.004213857527
0.004219433781
0.004224160877
0.004228142472
0.004231487012
0.00423428715
0.004236587504
0.004238241794
0.004172858808
0.00418928711
0.004206532716
0.004222156745
0.004234972221
0.004244731586
0.004251713292
0.004256412605
0.004259356309
0.004261014108
0.004261768174
0.004261914421
0.004261673473
0.004261222731
0.004260769603
0.004206084685
0.004241668161
0.004270853285
0.00429099641
0.004302899399
0.004308501146
0.004309762047
0.004308265132
0.004305159298
0.004301224777
0.004296964543
0.004292693933
0.004288616623
0.00428492494
0.004282094323
0.004258817987
0.004310412982
0.004339500218
0.004352003913
0.004354220881
0.004350653794
0.004344142959
0.004336369644
0.004328293546
0.004320437929
0.004313070311
0.004306316566
0.004300238583
0.004294948479
0.004290989286
0.004206084569
0.004241667526
0.004270851893
0.004290994836
0.004302896786
0.004308498878
0.004309759545
0.004308262815
0.004305156697
0.004301221594
0.004296961131
0.004292690986
0.004288614107
0.004284922155
0.004282092768
0.004172859557
0.004189287351
0.00420653274
0.004222155843
0.004234970686
0.004244729238
0.004251710629
0.004256409864
0.004259352897
0.00426101081
0.004261764901
0.004261910754
0.004261669532
0.004261219367
0.004260765955
0.004165783098
0.004173938587
0.004182807142
0.004191637447
0.004199913187
0.004207353582
0.004213855076
0.004219430175
0.004224157137
0.004228138943
0.004231483186
0.004234283657
0.004236583472
0.004238237404
0.004157774997
0.004161990338
0.004167208931
0.004173136761
0.004179455223
0.004185877857
0.004192177411
0.004198192352
0.004203819303
0.004209002953
0.004213718571
0.004217952717
0.004221636817
0.004224395758
0.004153081991
0.004154687274
0.0041570676
0.004160238846
0.004164129136
0.004168603571
0.00417350043
0.004178654146
0.004183914395
0.004189153748
0.004194271217
0.004199186586
0.004203823753
0.004208033498
0.004211284475
0.004154790467
0.004157839609
0.004162027974
0.004167138051
0.004172863055
0.004178893995
0.00418496994
0.004190897077
0.004196545394
0.004201838458
0.004206738798
0.004211232333
0.00421530713
0.004218891304
0.004221599686
0.004159201368
0.00416578194
0.0041739378
0.004182807333
0.004191637414
0.004199913797
0.004207354483
0.004213856065
0.004219432512
0.004224159332
0.004228141528
0.004231485912
0.004234286351
0.004236586466
0.00423824051
0.004167435877
0.004179923585
0.004193507968
0.004206430651
0.004217721145
0.004227039936
0.00423443064
0.004240122267
0.004244405556
0.004247566036
0.004249856001
0.004251481937
0.004252609365
0.004253363956
0.00425381323
0.004176046418
0.004193291338
0.004209652548
0.004223516122
0.004234516604
0.004242868429
0.004248995789
0.004253351412
0.004256339584
0.004258296893
0.004259491319
0.004260131887
0.004260380453
0.004260371389
0.00426024846
0.004167436048
0.004179923393
0.004193507456
0.004206429717
0.004217719887
0.004227038966
0.004234429328
0.004240121054
0.00424440432
0.004247564354
0.0042498538
0.004251480491
0.004252607595
0.004253362103
0.004253812223
0.004159201142
0.004165781885
0.004173938142
0.004182806931
0.004191636894
0.004199912994
0.004207353077
0.004213854619
0.004219429977
0.004224156911
0.004228138648
0.004231483125
0.004234283208
0.00423658311
0.004238237438
0.004154790752
0.004157840083
0.004162028777
0.004167138862
0.004172863346
0.00417889333
0.0041849688
0.004190895211
0.004196543368
0.004201836252
0.004206735842
0.004211229272
0.004215303516
0.004218888167
0.004221596292
0.004154688259
0.004157067926
0.004160239126
0.00416412898
0.004168603632
0.004173500139
0.004178653663
0.00418391313
0.004189152208
0.004194268879
0.004199184455
0.004203820961
0.004208029815
0.004211280727
0.004152340395
0.004153292549
0.004154773952
0.004156868086
0.004159600973
0.004162945229
0.004166825717
0.004171140562
0.004175771446
0.004180599422
0.004185511203
0.004190404279
0.00419516663
0.00419960376
0.004203091922
0.004153082529
0.004154687929
0.004157067507
0.004160239268
0.004164129019
0.004168603314
0.004173500477
0.004178654379
0.004183914637
0.004189154282
0.00419427144
0.004199186741
0.004203823111
0.004208032489
0.004211283307
0.004154746137
0.004157774328
0.004161989767
0.004167208093
0.004173136126
0.004179454599
0.004185877862
0.004192178193
0.004198193425
0.004203820937
0.004209004173
0.004213719928
0.004217954112
0.004221639043
0.004224398568
0.004157248789
0.004162304197
0.004168862488
0.004176395082
0.004184350963
0.004192269909
0.004199821677
0.00420679897
0.004213093449
0.004218673467
0.004223552103
0.004227771118
0.004231379658
0.004234383099
0.004236556499
0.004159129759
0.004165544033
0.004173391456
0.004181955553
0.004190630445
0.004198981541
0.004206726847
0.004213715192
0.004219887989
0.004225249441
0.004229843563
0.004233736191
0.004236994952
0.004239651489
0.004241541132
0.004157248445
0.00416230386
0.004168862551
0.004176395047
0.004184350975
0.004192270157
0.004199821368
0.004206797962
0.004213092703
0.004218672517
0.004223551156
0.004227770515
0.004231378289
0.00423438154
0.004236554981
0.004154745873
0.004157774121
0.004161989381
0.004167208159
0.004173136085
0.004179454494
0.004185877395
0.004192177083
0.004198191781
0.004203819369
0.004209002643
0.004213718173
0.004217952322
0.00422163614
0.004224395506
0.0041530823
0.004154687732
0.004157067864
0.004160239431
0.004164129159
0.004168603428
0.004173499946
0.004178653224
0.004183912636
0.004189151767
0.004194268672
0.004199183747
0.004203820427
0.004208029931
0.004211279969
0.004152340711
0.004153292617
0.004154774452
0.00415686816
0.004159601205
0.004162945083
0.004166825758
0.004171139931
0.004175770309
0.004180597857
0.004185509528
0.004190402151
0.004195163978
0.004199600705
0.004203088845
)
;

boundaryField
{
    top
    {
        type            calculated;
        value           nonuniform List<scalar> 
127
(
0.004152340711
0.004153292967
0.004154688562
0.004157775016
0.004162305014
0.004165545616
0.004162304993
0.004157774997
0.004154688259
0.004153292617
0.004154774487
0.004157068604
0.00416198998
0.004168863509
0.00417339303
0.00416886363
0.004161990338
0.004157067926
0.004154774452
0.004156868506
0.004160240068
0.004167208951
0.004176396238
0.004181956452
0.004176396866
0.004167208931
0.004160239126
0.00415686816
0.004159601792
0.004164129884
0.00417313687
0.004184352933
0.004190632028
0.004184352919
0.004173136761
0.00416412898
0.004159601205
0.00416294579
0.004168604542
0.004179456091
0.004192272514
0.004198982681
0.004192271633
0.004179455223
0.004168603632
0.004162945083
0.004166826645
0.004173501287
0.004185879358
0.004199823736
0.004206728484
0.004199822898
0.004185877857
0.004173500139
0.004166825758
0.004171141429
0.004178655099
0.004192179356
0.004206800197
0.004213717441
0.004206799259
0.004192177411
0.004178653663
0.004171139931
0.00417577205
0.004183915077
0.004198194569
0.004213095349
0.004219889653
0.004213093766
0.004198192352
0.00418391313
0.004175770309
0.004180599899
0.004189154644
0.00420382147
0.00421867489
0.004225250418
0.00421867319
0.004203819303
0.004189152208
0.004180597857
0.00418551239
0.004194271748
0.00420900497
0.004223553316
0.0042298447
0.004223552123
0.004209002953
0.004194268879
0.004185509528
0.004190405041
0.004199187309
0.004213721241
0.004227773016
0.004233736973
0.004227771282
0.004213718571
0.004199184455
0.004190402151
0.004195167221
0.004203823661
0.004217954793
0.004231380797
0.004236996004
0.004231379224
0.004217952717
0.004203820961
0.004195163978
0.00419960464
0.004208033389
0.004221639664
0.004234384161
0.00423965261
0.004234382327
0.004221636817
0.004208029815
0.004199600705
0.004203092845
0.004211284105
0.004224399077
0.004236557064
0.004241542801
0.004236555563
0.004224395758
0.004211280727
0.004203088845
)
;
    }
    bottom
    {
        type            calculated;
        value           nonuniform List<scalar> 
134
(
0.004153082476
0.004154746664
0.004157249202
0.004159130454
0.004157248892
0.004154745996
0.004153081991
0.004152340395
0.004153293091
0.004154688275
0.00415777494
0.004162305196
0.004165545096
0.004162304075
0.004157773861
0.004154687274
0.004153292549
0.004154774676
0.00415706825
0.004161990317
0.004168863532
0.004173393341
0.004168862884
0.004161989768
0.0041570676
0.004154773952
0.00415686887
0.004160239434
0.004167209434
0.004176397044
0.004181956972
0.004176396086
0.004167208571
0.004160238846
0.004156868086
0.004159602005
0.004164129686
0.004173137761
0.00418435378
0.004190633212
0.004184352455
0.004173136613
0.004164129136
0.004159600973
0.004162945752
0.004168604497
0.004179456498
0.00419227293
0.004198984029
0.004192272139
0.004179455557
0.004168603571
0.004162945229
0.004166826088
0.00417350141
0.004185879697
0.004199824611
0.004206730059
0.00419982402
0.004185879185
0.00417350043
0.004166825717
0.004171141441
0.004178655239
0.004192180125
0.004206801862
0.00421371898
0.00420680086
0.004192179062
0.004178654146
0.004171140562
0.004175773082
0.004183915514
0.004198196493
0.004213097743
0.004219892416
0.004213096815
0.004198194197
0.004183914395
0.004175771446
0.004180601352
0.004189155858
0.004203823952
0.004218677986
0.004225254053
0.004218677008
0.004203822017
0.004189153748
0.004180599422
0.004185513564
0.004194273231
0.004209007602
0.004223556564
0.00422984888
0.004223555928
0.004209005485
0.004194271217
0.004185511203
0.0041904064
0.004199188917
0.004213723661
0.004227776486
0.004233741862
0.004227775175
0.004213722032
0.004199186586
0.004190404279
0.004195169503
0.00420382592
0.004217958311
0.004231385188
0.004237000802
0.00423138366
0.004217956201
0.004203823753
0.00419516663
0.004199606677
0.004208036083
0.004221643054
0.004234387945
0.004239657554
0.004234386509
0.004221640559
0.004208033498
0.00419960376
0.004203094765
0.004211286827
0.004224402235
0.004236561786
0.004241548107
0.004236560605
0.00422440063
0.004211284475
0.004203091922
)
;
    }
    side-walls
    {
        type            calculated;
        value           nonuniform List<scalar> 
261
(
0.004153293091
0.004154688587
0.004157775037
0.004162305285
0.004165545694
0.004162304806
0.004157774593
0.004154688116
0.004153292967
0.004154774676
0.004157068603
0.004161990266
0.004168863772
0.004173393319
0.004168863643
0.004161990116
0.0041570683
0.004154774487
0.00415686887
0.004160240049
0.004167209113
0.004176397019
0.004181957764
0.004176397216
0.004167208946
0.004160239561
0.004156868506
0.004159602005
0.004164130072
0.00417313776
0.004184353819
0.004190633727
0.004184353649
0.004173136977
0.004164129865
0.004159601792
0.004162945752
0.00416860433
0.004179456901
0.004192273377
0.004198985061
0.004192272947
0.004179456732
0.004168604237
0.00416294579
0.004166826088
0.004173501351
0.004185880582
0.004199825363
0.004206731244
0.004199824939
0.004185880118
0.004173501473
0.004166826645
0.004171141441
0.004178655568
0.004192180687
0.004206803099
0.0042137205
0.00420680213
0.004192180419
0.004178654893
0.004171141429
0.004175773082
0.004183915721
0.004198196417
0.004213098371
0.004219893424
0.004213097633
0.004198195691
0.004183914712
0.00417577205
0.004180601352
0.004189155245
0.004203824116
0.004218678287
0.00422525498
0.00421867786
0.004203823763
0.0041891544
0.004180599899
0.004185513564
0.004194273079
0.004209008097
0.004223557244
0.004229849336
0.004223556603
0.004209007083
0.004194272421
0.00418551239
0.0041904064
0.004199188994
0.004213724491
0.004227776966
0.004233742605
0.0042277765
0.004213722995
0.004199188171
0.004190405041
0.004195169503
0.004203826214
0.004217958578
0.004231385127
0.004237001638
0.004231384736
0.004217957245
0.00420382473
0.004195167221
0.004199606677
0.004208036466
0.004221643674
0.004234388752
0.004239658393
0.004234387828
0.004221642399
0.004208034969
0.00419960464
0.004203094765
0.004211286693
0.004224402842
0.004236562497
0.004241549172
0.004236561373
0.004224401575
0.004211285673
0.004203092845
0.004152340395
0.004153082529
0.004154746137
0.004157248789
0.004159129759
0.004157248445
0.004154745873
0.0041530823
0.004152340711
0.004153292549
0.004154687929
0.004157774328
0.004162304197
0.004165544033
0.00416230386
0.004157774121
0.004154687732
0.004153292617
0.004154773952
0.004157067507
0.004161989767
0.004168862488
0.004173391456
0.004168862551
0.004161989381
0.004157067864
0.004154774452
0.004156868086
0.004160239268
0.004167208093
0.004176395082
0.004181955553
0.004176395047
0.004167208159
0.004160239431
0.00415686816
0.004159600973
0.004164129019
0.004173136126
0.004184350963
0.004190630445
0.004184350975
0.004173136085
0.004164129159
0.004159601205
0.004162945229
0.004168603314
0.004179454599
0.004192269909
0.004198981541
0.004192270157
0.004179454494
0.004168603428
0.004162945083
0.004166825717
0.004173500477
0.004185877862
0.004199821677
0.004206726847
0.004199821368
0.004185877395
0.004173499946
0.004166825758
0.004171140562
0.004178654379
0.004192178193
0.00420679897
0.004213715192
0.004206797962
0.004192177083
0.004178653224
0.004171139931
0.004175771446
0.004183914637
0.004198193425
0.004213093449
0.004219887989
0.004213092703
0.004198191781
0.004183912636
0.004175770309
0.004180599422
0.004189154282
0.004203820937
0.004218673467
0.004225249441
0.004218672517
0.004203819369
0.004189151767
0.004180597857
0.004185511203
0.00419427144
0.004209004173
0.004223552103
0.004229843563
0.004223551156
0.004209002643
0.004194268672
0.004185509528
0.004190404279
0.004199186741
0.004213719928
0.004227771118
0.004233736191
0.004227770515
0.004213718173
0.004199183747
0.004190402151
0.00419516663
0.004203823111
0.004217954112
0.004231379658
0.004236994952
0.004231378289
0.004217952322
0.004203820427
0.004195163978
0.00419960376
0.004208032489
0.004221639043
0.004234383099
0.004239651489
0.00423438154
0.00422163614
0.004208029931
0.004199600705
0.004203091922
0.004211283307
0.004224398568
0.004236556499
0.004241541132
0.004236554981
0.004224395506
0.004211279969
0.004203088845
)
;
    }
    inlet
    {
        type            calculated;
        value           nonuniform 0();
    }
    outlet
    {
        type            calculated;
        value           nonuniform List<scalar> 
81
(
0.004203094765
0.004211286693
0.004224402842
0.004236562497
0.004241549172
0.004236561373
0.004224401575
0.004211285673
0.004203092845
0.004211286827
0.004221603285
0.004238244754
0.004253819577
0.004260254953
0.004253818492
0.004238242202
0.004221600641
0.004211284105
0.004224402235
0.004238244366
0.00426077363
0.00428210024
0.004290996021
0.004282098081
0.004260770768
0.004238240968
0.004224399077
0.004236561786
0.004253819258
0.004282099805
0.0043091093
0.004320465268
0.004309106473
0.004282095987
0.004253814967
0.004236557064
0.004241548107
0.004260254641
0.004290995201
0.004320465082
0.004332931506
0.004320461979
0.004290990377
0.004260249646
0.004241542801
0.004236560605
0.00425381724
0.004282097219
0.004309105873
0.004320461434
0.004309102618
0.004282092413
0.00425381241
0.004236555563
0.00422440063
0.004238241794
0.004260769603
0.004282094323
0.004290989286
0.004282092768
0.004260765955
0.004238237404
0.004224395758
0.004211284475
0.004221599686
0.00423824051
0.00425381323
0.00426024846
0.004253812223
0.004238237438
0.004221596292
0.004211280727
0.004203091922
0.004211283307
0.004224398568
0.004236556499
0.004241541132
0.004236554981
0.004224395506
0.004211279969
0.004203088845
)
;
    }
    procBoundary1to0
    {
        type            processor;
        value           nonuniform List<scalar> 
97
(
0.004152340995
0.004152340995
0.004153082774
0.00415474635
0.004157248636
0.004159129483
0.00415724884
0.004154745948
0.004153082523
0.004152340901
0.004152134958
0.004154791478
0.004154791478
0.004154791478
0.004159201452
0.004167434833
0.0041760451
0.004167434912
0.004159200952
0.004154790533
0.004153082796
0.004152887231
0.004154839418
0.004172860337
0.004172860337
0.004172860337
0.004206083669
0.004258810246
0.004206081144
0.004172857484
0.004159200932
0.004154746514
0.004153991976
0.004158286507
0.004173336485
0.004338972147
0.004338972147
0.004338972147
0.004712099001
0.004338955341
0.004206081138
0.004167434332
0.004157248606
0.004154781729
0.004161545632
0.004190091467
0.004303336849
0.007782743733
0.007782743733
0.007782743733
0.004712099124
0.004712099124
0.004258810222
0.004176045163
0.004159129794
0.004153991264
0.00415828641
0.004173337011
0.004217174079
0.004303339301
0.004217172459
0.004206086575
0.004206086575
0.004206086575
0.004167434975
0.004157248672
0.004152886629
0.004154838912
0.004160569014
0.004173336651
0.004190092166
0.004173336554
0.004160568707
0.00415920143
0.00415920143
0.00415920143
0.004154746162
0.004152134144
0.004152902473
0.004154839372
0.004158286424
0.004161544947
0.004158287104
0.004154839189
0.004152903038
0.004153082774
0.004153082774
0.004153082774
0.00415179404
0.004152134474
0.004152887022
0.004153991127
0.004154781469
0.004153991478
0.004152886743
0.004152134333
0.004151794512
)
;
    }
}


// ************************************************************************* //
