/*--------------------------------*- C++ -*----------------------------------*\
| =========                 |                                                 |
| \\      /  F ield         | OpenFOAM: The Open Source CFD Toolbox           |
|  \\    /   O peration     | Version:  4.x                                   |
|   \\  /    A nd           | Web:      www.OpenFOAM.org                      |
|    \\/     M anipulation  |                                                 |
\*---------------------------------------------------------------------------*/
FoamFile
{
    version     2.0;
    format      ascii;
    class       volScalarField;
    location    "6000";
    object      CO;
}
// * * * * * * * * * * * * * * * * * * * * * * * * * * * * * * * * * * * * * //

dimensions      [0 0 0 0 0 0 0];

internalField   nonuniform List<scalar> 
1174
(
0.3315802304
0.3315783748
0.3315757586
0.331572351
0.3315681904
0.3315633705
0.331558021
0.3315522888
0.331546322
0.3315402597
0.3315342298
0.3315283682
0.3315229148
0.3315186352
0.3315784918
0.3315755239
0.3315715778
0.3315667473
0.3315612009
0.3315551414
0.331548774
0.3315422843
0.3315358286
0.3315295308
0.3315234883
0.331517795
0.3315126321
0.3315086517
0.3315746562
0.3315694216
0.3315629551
0.3315556244
0.3315478248
0.3315399098
0.331532158
0.3315247667
0.3315178605
0.3315115061
0.3315057307
0.3315005505
0.331496047
0.3314926787
0.3315690456
0.331560927
0.3315516222
0.331541814
0.3315320688
0.3315227916
0.3315142337
0.3315065226
0.3314996968
0.3314937357
0.3314885856
0.3314841862
0.3314805282
0.3314778839
0.3315650471
0.3315553491
0.3315447866
0.3315341048
0.3315238407
0.331514335
0.3315057713
0.3314982183
0.3314916671
0.3314860603
0.3314813154
0.3314773476
0.3314741167
0.3314718205
0.3315690457
0.3315609271
0.3315516224
0.3315418142
0.3315320691
0.3315227919
0.3315142339
0.3315065229
0.3314996971
0.331493736
0.3314885859
0.3314841865
0.3314805285
0.3314778842
0.3315746563
0.3315694217
0.3315629553
0.3315556246
0.331547825
0.33153991
0.3315321583
0.3315247671
0.3315178609
0.3315115064
0.3315057311
0.3315005509
0.3314960474
0.3314926792
0.3315784919
0.331575524
0.3315715779
0.3315667474
0.331561201
0.3315551417
0.3315487742
0.3315422846
0.3315358289
0.3315295312
0.3315234887
0.3315177955
0.3315126326
0.3315086522
0.3315802305
0.3315783749
0.3315757586
0.3315723511
0.3315681905
0.3315633706
0.3315580212
0.331552289
0.3315463223
0.33154026
0.3315342302
0.3315283686
0.3315229153
0.3315186358
0.3315804988
0.3315784918
0.331575524
0.3315715778
0.3315667473
0.3315612009
0.3315551415
0.331548774
0.3315422843
0.3315358286
0.3315295308
0.3315234883
0.3315177951
0.3315126322
0.3315086517
0.3315745798
0.3315693815
0.3315630531
0.3315559771
0.3315485359
0.33154105
0.331533757
0.3315268148
0.3315203156
0.3315143043
0.3315087964
0.3315038055
0.3314994189
0.3314961082
0.3315647517
0.331554677
0.3315437467
0.3315328864
0.3315227266
0.3315136079
0.3315056508
0.3314988347
0.3314930618
0.3314882025
0.3314841232
0.331480709
0.3314779055
0.331475891
0.3315473169
0.3315306006
0.3315147382
0.3315009104
0.3314895217
0.3314805078
0.3314735796
0.3314683752
0.3314645414
0.3314617688
0.3314598029
0.3314584413
0.3314575312
0.3314569893
0.3315309014
0.3315108166
0.3314938358
0.3314803928
0.3314702083
0.331462753
0.3314574674
0.3314538514
0.331451491
0.3314500574
0.3314492955
0.3314490072
0.3314490288
0.3314491843
0.331547317
0.3315306008
0.3315147384
0.3315009106
0.3314895219
0.3314805081
0.3314735799
0.3314683756
0.3314645417
0.3314617692
0.3314598032
0.3314584416
0.3314575316
0.3314569896
0.3315647519
0.3315546772
0.3315437469
0.3315328867
0.3315227269
0.3315136082
0.3315056512
0.3314988351
0.3314930623
0.3314882029
0.3314841237
0.3314807095
0.3314779061
0.3314758915
0.3315745799
0.3315693817
0.3315630533
0.3315559773
0.3315485361
0.3315410503
0.3315337574
0.3315268151
0.331520316
0.3315143047
0.3315087969
0.3315038061
0.3314994195
0.3314961089
0.3315784919
0.331575524
0.3315715779
0.3315667474
0.3315612011
0.3315551417
0.3315487743
0.3315422846
0.331535829
0.3315295313
0.3315234888
0.3315177956
0.3315126328
0.3315086524
0.3315784263
0.3315746563
0.3315694217
0.3315629553
0.3315556245
0.3315478249
0.3315399099
0.3315321582
0.3315247669
0.3315178607
0.3315115062
0.3315057309
0.3315005507
0.3314960471
0.3314926789
0.3315729018
0.3315647518
0.3315546771
0.3315437468
0.3315328866
0.3315227268
0.3315136081
0.331505651
0.3314988348
0.331493062
0.3314882026
0.3314841233
0.3314807091
0.3314779057
0.3314758911
0.3315357743
0.3315145827
0.3314954396
0.331479783
0.3314678958
0.3314594189
0.3314537347
0.3314501913
0.3314482103
0.3314473228
0.331447169
0.3314474791
0.3314480369
0.3314485932
0.3314714463
0.3314357623
0.3314112395
0.3313968367
0.3313901392
0.3313887284
0.3313906602
0.3313945302
0.3313993888
0.3314046239
0.3314098546
0.3314148372
0.3314193394
0.331422783
0.3313873689
0.3313519866
0.3313369213
0.33133441
0.3313389256
0.331346997
0.3313565725
0.3313664877
0.3313761103
0.3313851182
0.3313933635
0.3314007741
0.3314072142
0.3314120255
0.3314714473
0.3314357633
0.3314112405
0.3313968376
0.33139014
0.3313887292
0.3313906608
0.3313945308
0.3313993894
0.3314046245
0.3314098552
0.3314148377
0.3314193398
0.3314227835
0.3315357751
0.3315145834
0.3314954403
0.3314797837
0.3314678965
0.3314594197
0.3314537355
0.3314501921
0.3314482111
0.3314473235
0.3314471697
0.3314474798
0.3314480377
0.331448594
0.3315647519
0.3315546773
0.331543747
0.3315328868
0.3315227271
0.3315136085
0.3315056515
0.3314988354
0.3314930626
0.3314882033
0.331484124
0.3314807098
0.3314779064
0.3314758919
0.3315746563
0.3315694217
0.3315629553
0.3315556247
0.3315478251
0.3315399102
0.3315321585
0.3315247673
0.3315178612
0.3315115068
0.3315057315
0.3315005514
0.3314960479
0.3314926797
0.3315753188
0.3315690457
0.3315609272
0.3315516225
0.3315418143
0.3315320692
0.331522792
0.331514234
0.331506523
0.3314996971
0.331493736
0.3314885859
0.3314841865
0.3314805285
0.3314778842
0.3315627244
0.331547317
0.3315306008
0.3315147385
0.3315009107
0.3314895219
0.3314805081
0.3314735799
0.3314683755
0.3314645416
0.3314617691
0.3314598031
0.3314584415
0.3314575315
0.3314569895
0.3315151153
0.3314714465
0.3314357627
0.3314112398
0.331396837
0.3313901395
0.3313887286
0.3313906604
0.3313945304
0.331399389
0.3314046241
0.3314098548
0.3314148374
0.3314193395
0.3314227832
0.3312512961
0.331206651
0.3311995397
0.3312126921
0.3312348388
0.3312596391
0.3312838904
0.331306173
0.3313260046
0.3313433602
0.3313584093
0.3313713544
0.3313822231
0.3313901552
0.3308201797
0.3308771115
0.3309640319
0.3310472067
0.3311177992
0.3311753379
0.3312217217
0.3312591694
0.3312896097
0.3313145683
0.3313352027
0.3313523405
0.3313663705
0.3313764463
0.3312512996
0.3312066534
0.3311995416
0.3312126937
0.3312348402
0.3312596403
0.3312838915
0.3313061739
0.3313260054
0.331343361
0.33135841
0.331371355
0.3313822237
0.3313901558
0.3314714472
0.3314357635
0.3314112409
0.3313968381
0.3313901406
0.3313887298
0.3313906616
0.3313945315
0.3313993901
0.3314046251
0.3314098558
0.3314148383
0.3314193404
0.3314227841
0.331547317
0.331530601
0.3315147387
0.331500911
0.3314895225
0.3314805088
0.3314735806
0.3314683763
0.3314645425
0.33146177
0.331459804
0.3314584425
0.3314575324
0.3314569905
0.3315690456
0.3315609272
0.3315516225
0.3315418144
0.3315320694
0.3315227923
0.3315142344
0.3315065235
0.3314996977
0.3314937367
0.3314885867
0.3314841873
0.3314805294
0.3314778852
0.3315729919
0.3315650473
0.3315553494
0.3315447869
0.3315341052
0.3315238411
0.3315143354
0.3315057717
0.3314982188
0.3314916675
0.3314860607
0.3314813158
0.331477348
0.3314741171
0.3314718209
0.3315521238
0.3315309017
0.331510817
0.3314938363
0.3314803933
0.3314702088
0.3314627534
0.3314574678
0.3314538518
0.3314514914
0.3314500577
0.3314492958
0.3314490076
0.3314490291
0.3314491846
0.3314504481
0.3313873692
0.3313519874
0.3313369221
0.3313344107
0.3313389262
0.3313469976
0.3313565729
0.3313664881
0.3313761107
0.3313851185
0.3313933638
0.3314007744
0.3314072144
0.3314120258
0.3308961714
0.3308201819
0.330877113
0.330964033
0.3310472075
0.3311177997
0.3311753383
0.331221722
0.3312591697
0.33128961
0.3313145685
0.3313352029
0.3313523407
0.3313663706
0.3313764464
0.3289667701
0.3299113162
0.3304340588
0.3307399481
0.3309293498
0.331053223
0.3311384334
0.331199715
0.3312454824
0.33128074
0.3313085764
0.3313309207
0.3313487684
0.3313613901
0.3308201796
0.330877115
0.3309640353
0.3310472096
0.3311178015
0.3311753398
0.3312217233
0.3312591708
0.331289611
0.3313145694
0.3313352037
0.3313523414
0.3313663713
0.3313764471
0.331387369
0.331351988
0.3313369231
0.3313344119
0.3313389275
0.3313469989
0.3313565742
0.3313664894
0.3313761118
0.3313851197
0.3313933649
0.3314007754
0.3314072154
0.3314120267
0.3315309015
0.3315108171
0.3314938366
0.3314803938
0.3314702094
0.3314627542
0.3314574687
0.3314538527
0.3314514923
0.3314500588
0.3314492968
0.3314490086
0.3314490301
0.3314491856
0.3315650472
0.3315553493
0.3315447869
0.3315341054
0.3315238414
0.3315143358
0.3315057723
0.3314982194
0.3314916683
0.3314860615
0.3314813168
0.3314773489
0.3314741181
0.331471822
0.3315753189
0.3315690458
0.3315609274
0.3315516226
0.3315418145
0.3315320694
0.3315227923
0.3315142343
0.3315065233
0.3314996975
0.3314937364
0.3314885863
0.3314841869
0.3314805289
0.3314778846
0.3315627246
0.3315473174
0.3315306013
0.3315147389
0.3315009112
0.3314895225
0.3314805087
0.3314735805
0.331468376
0.3314645422
0.3314617696
0.3314598036
0.331458442
0.331457532
0.33145699
0.3315151167
0.331471448
0.3314357642
0.3314112414
0.3313968384
0.3313901408
0.3313887298
0.3313906615
0.3313945314
0.3313993899
0.3314046249
0.3314098556
0.3314148381
0.3314193402
0.3314227839
0.3313521015
0.3312513016
0.3312066553
0.3311995432
0.331212695
0.3312348412
0.3312596411
0.3312838922
0.3313061745
0.3313260059
0.3313433614
0.3313584104
0.3313713553
0.331382224
0.331390156
0.3308961719
0.330820183
0.3308771171
0.3309640366
0.3310472104
0.331117802
0.3311753402
0.3312217236
0.331259171
0.3312896111
0.3313145695
0.3313352038
0.3313523416
0.3313663714
0.3313764472
0.3313521008
0.3312513021
0.3312066563
0.3311995443
0.3312126961
0.3312348423
0.3312596421
0.3312838931
0.3313061754
0.3313260067
0.3313433621
0.3313584111
0.331371356
0.3313822246
0.3313901566
0.3314714463
0.3314357636
0.3314112414
0.3313968389
0.3313901415
0.3313887307
0.3313906624
0.3313945324
0.3313993909
0.3314046259
0.3314098566
0.3314148391
0.3314193411
0.3314227848
0.3315473168
0.3315306009
0.3315147389
0.3315009113
0.3314895228
0.3314805092
0.3314735811
0.3314683768
0.331464543
0.3314617705
0.3314598045
0.331458443
0.331457533
0.331456991
0.3315690456
0.3315609272
0.3315516225
0.3315418145
0.3315320696
0.3315227926
0.3315142348
0.3315065238
0.3314996981
0.3314937371
0.3314885872
0.3314841878
0.3314805299
0.3314778857
0.3315784264
0.3315746564
0.3315694218
0.3315629555
0.3315556248
0.3315478253
0.3315399103
0.3315321586
0.3315247674
0.3315178612
0.3315115068
0.3315057315
0.3315005513
0.3314960478
0.3314926796
0.331572902
0.3315647521
0.3315546775
0.3315437473
0.331532887
0.3315227273
0.3315136087
0.3315056516
0.3314988355
0.3314930627
0.3314882034
0.3314841241
0.3314807099
0.3314779065
0.3314758919
0.3315560226
0.3315357754
0.3315145838
0.3314954407
0.3314797842
0.331467897
0.3314594202
0.3314537359
0.3314501926
0.3314482115
0.331447324
0.3314471702
0.3314474803
0.3314480381
0.3314485944
0.3315151167
0.3314714482
0.3314357647
0.331411242
0.3313968391
0.3313901415
0.3313887306
0.3313906622
0.3313945321
0.3313993906
0.3314046256
0.3314098562
0.3314148388
0.3314193408
0.3314227844
0.3314504489
0.331387371
0.3313519899
0.3313369247
0.3313344132
0.3313389285
0.3313469997
0.3313565748
0.3313664899
0.3313761123
0.33138512
0.3313933652
0.3314007757
0.3314072157
0.331412027
0.3315151169
0.3314714485
0.3314357651
0.3314112424
0.3313968396
0.3313901421
0.3313887312
0.3313906628
0.3313945327
0.3313993911
0.3314046261
0.3314098567
0.3314148392
0.3314193413
0.3314227849
0.3315560222
0.3315357751
0.3315145837
0.3314954409
0.3314797845
0.3314678975
0.3314594208
0.3314537366
0.3314501933
0.3314482122
0.3314473247
0.3314471709
0.331447481
0.3314480388
0.3314485951
0.3315647517
0.3315546773
0.3315437472
0.3315328871
0.3315227275
0.331513609
0.3315056521
0.331498836
0.3314930633
0.331488204
0.3314841248
0.3314807107
0.3314779073
0.3314758928
0.3315746562
0.3315694217
0.3315629554
0.3315556248
0.3315478253
0.3315399105
0.3315321588
0.3315247678
0.3315178617
0.3315115074
0.3315057321
0.331500552
0.3314960486
0.3314926804
0.3315804989
0.3315784919
0.3315755241
0.331571578
0.3315667476
0.3315612012
0.3315551419
0.3315487745
0.3315422849
0.3315358292
0.3315295315
0.331523489
0.3315177959
0.331512633
0.3315086526
0.3315783736
0.33157458
0.3315693818
0.3315630535
0.3315559776
0.3315485364
0.3315410506
0.3315337577
0.3315268155
0.3315203164
0.3315143051
0.3315087974
0.3315038065
0.3314994199
0.3314961093
0.331572902
0.3315647521
0.3315546776
0.3315437474
0.3315328872
0.3315227275
0.3315136089
0.3315056519
0.3314988358
0.331493063
0.3314882037
0.3314841244
0.3314807102
0.3314779068
0.3314758923
0.3315627246
0.3315473175
0.3315306015
0.3315147393
0.3315009117
0.3314895231
0.3314805094
0.3314735812
0.3314683768
0.331464543
0.3314617704
0.3314598045
0.3314584429
0.3314575328
0.3314569908
0.3315521239
0.3315309022
0.3315108178
0.3314938373
0.3314803945
0.3314702101
0.3314627548
0.3314574693
0.3314538532
0.3314514928
0.3314500592
0.3314492972
0.331449009
0.3314490305
0.3314491859
0.3315627246
0.3315473176
0.3315306017
0.3315147395
0.3315009119
0.3314895233
0.3314805096
0.3314735815
0.3314683772
0.3314645433
0.3314617708
0.3314598048
0.3314584432
0.3314575332
0.3314569912
0.331572902
0.3315647521
0.3315546776
0.3315437474
0.3315328873
0.3315227277
0.3315136092
0.3315056522
0.3314988362
0.3314930634
0.3314882042
0.3314841249
0.3314807108
0.3314779074
0.3314758929
0.3315783735
0.3315745799
0.3315693817
0.3315630534
0.3315559775
0.3315485364
0.3315410507
0.3315337579
0.3315268158
0.3315203167
0.3315143055
0.3315087978
0.331503807
0.3314994204
0.3314961099
0.3315784918
0.331575524
0.3315715779
0.3315667475
0.3315612012
0.3315551419
0.3315487746
0.3315422851
0.3315358295
0.3315295318
0.3315234895
0.3315177963
0.3315126335
0.3315086532
0.3315814258
0.3315802305
0.331578375
0.3315757587
0.3315723512
0.3315681907
0.3315633708
0.3315580214
0.3315522893
0.3315463226
0.3315402603
0.3315342305
0.331528369
0.3315229156
0.3315186361
0.3315804989
0.3315784919
0.3315755241
0.331571578
0.3315667476
0.3315612013
0.3315551419
0.3315487745
0.331542285
0.3315358294
0.3315295316
0.3315234892
0.331517796
0.3315126332
0.3315086528
0.3315784264
0.3315746564
0.3315694219
0.3315629555
0.3315556249
0.3315478254
0.3315399105
0.3315321589
0.3315247677
0.3315178616
0.3315115072
0.3315057319
0.3315005518
0.3314960483
0.3314926801
0.3315753189
0.3315690458
0.3315609275
0.3315516228
0.3315418148
0.3315320698
0.3315227928
0.3315142349
0.3315065239
0.3314996982
0.3314937372
0.3314885871
0.3314841878
0.3314805298
0.3314778856
0.3315729919
0.3315650474
0.3315553496
0.3315447873
0.3315341058
0.3315238418
0.3315143362
0.3315057727
0.3314982198
0.3314916687
0.3314860619
0.3314813171
0.3314773493
0.3314741184
0.3314718223
0.3315753189
0.3315690458
0.3315609274
0.3315516228
0.3315418148
0.3315320698
0.3315227928
0.331514235
0.3315065241
0.3314996983
0.3314937373
0.3314885873
0.331484188
0.33148053
0.3314778858
0.3315784264
0.3315746564
0.3315694218
0.3315629555
0.3315556249
0.3315478255
0.3315399106
0.331532159
0.3315247679
0.3315178618
0.3315115074
0.3315057322
0.3315005521
0.3314960487
0.3314926805
0.3315804989
0.3315784919
0.3315755241
0.331571578
0.3315667476
0.3315612013
0.331555142
0.3315487747
0.3315422852
0.3315358296
0.3315295319
0.3315234895
0.3315177964
0.3315126336
0.3315086533
0.3315814258
0.3315802305
0.3315783749
0.3315757587
0.3315723512
0.3315681907
0.3315633708
0.3315580215
0.3315522894
0.3315463228
0.3315402606
0.3315342308
0.3315283694
0.3315229161
0.3315186367
)
;

boundaryField
{
    top
    {
        type            zeroGradient;
    }
    bottom
    {
        type            zeroGradient;
    }
    side-walls
    {
        type            zeroGradient;
    }
    inlet
    {
        type            zeroGradient;
    }
    outlet
    {
        type            zeroGradient;
    }
    procBoundary1to0
    {
        type            processor;
        value           nonuniform List<scalar> 
97
(
0.3315814258
0.3315814258
0.3315804989
0.3315784264
0.3315753189
0.331572992
0.331575319
0.3315784264
0.3315804989
0.3315814258
0.3315816874
0.3315783734
0.3315783734
0.3315783734
0.3315729019
0.3315627247
0.3315521242
0.3315627248
0.3315729021
0.3315783736
0.3315804989
0.3315807472
0.3315783195
0.3315560221
0.3315560221
0.3315560221
0.3315151167
0.33145045
0.3315151177
0.331556023
0.3315729021
0.3315784264
0.3315793719
0.3315740461
0.3315554518
0.3313520981
0.3313520981
0.3313520981
0.3308961807
0.3313521041
0.3315151176
0.3315627248
0.3315753189
0.3315783918
0.3315700225
0.3315348478
0.3313959247
0.3271634297
0.3271634297
0.3271634297
0.3308961791
0.3308961791
0.3314504499
0.3315521242
0.331572992
0.3315793719
0.3315740461
0.3315554519
0.3315015104
0.3313959244
0.3315015107
0.3315151158
0.3315151158
0.3315151158
0.3315627245
0.3315753189
0.3315807472
0.3315783195
0.3315712172
0.3315554519
0.331534848
0.331555452
0.3315712172
0.3315729018
0.3315729018
0.3315729018
0.3315784263
0.3315816874
0.3315807285
0.3315783195
0.3315740461
0.3315700225
0.3315740461
0.3315783195
0.3315807284
0.3315804988
0.3315804988
0.3315804988
0.3315821135
0.3315816874
0.3315807472
0.3315793719
0.3315783918
0.3315793719
0.3315807472
0.3315816874
0.3315821135
)
;
    }
}


// ************************************************************************* //
