/*--------------------------------*- C++ -*----------------------------------*\
| =========                 |                                                 |
| \\      /  F ield         | OpenFOAM: The Open Source CFD Toolbox           |
|  \\    /   O peration     | Version:  4.x                                   |
|   \\  /    A nd           | Web:      www.OpenFOAM.org                      |
|    \\/     M anipulation  |                                                 |
\*---------------------------------------------------------------------------*/
FoamFile
{
    version     2.0;
    format      ascii;
    class       volScalarField;
    location    "6000";
    object      CO2;
}
// * * * * * * * * * * * * * * * * * * * * * * * * * * * * * * * * * * * * * //

dimensions      [0 0 0 0 0 0 0];

internalField   nonuniform List<scalar> 
1174
(
0.0631528376
0.06315505595
0.06315818372
0.06316225753
0.06316723161
0.06317299401
0.06317938954
0.06318624269
0.06319337641
0.06320062446
0.06320783379
0.06321484201
0.06322136231
0.06322647914
0.06315491605
0.06315846412
0.06316318173
0.06316895664
0.06317558747
0.0631828317
0.06319044432
0.06319820309
0.06320592136
0.06321345097
0.06322067547
0.06322748248
0.06323365553
0.06323841482
0.0631595013
0.06316575928
0.06317348984
0.06318225376
0.06319157832
0.06320104097
0.0632103086
0.06321914531
0.06322740228
0.06323499975
0.06324190494
0.06324809872
0.0632534836
0.06325751109
0.06316620863
0.06317591421
0.06318703802
0.06319876376
0.06321041424
0.06322150544
0.06323173696
0.06324095613
0.06324911714
0.06325624444
0.06326240225
0.06326766272
0.06327203677
0.06327519881
0.06317098854
0.06318258234
0.06319520973
0.06320797978
0.06322025075
0.0632316152
0.06324185363
0.06325088385
0.06325871664
0.06326542046
0.06327109387
0.06327583846
0.06327970198
0.06328244789
0.06316620851
0.06317591404
0.06318703781
0.06319876352
0.06321041397
0.06322150516
0.06323173667
0.06324095584
0.06324911684
0.06325624414
0.06326240196
0.06326766244
0.0632720365
0.06327519855
0.06315950122
0.06316575916
0.06317348969
0.06318225358
0.06319157811
0.06320104073
0.06321030834
0.06321914502
0.06322740197
0.06323499942
0.0632419046
0.06324809837
0.06325348323
0.06325751071
0.06315491598
0.06315846401
0.0631631816
0.06316895649
0.06317558729
0.0631828315
0.06319044408
0.06319820282
0.06320592106
0.06321345064
0.06322067511
0.0632274821
0.06323365512
0.06323841439
0.06315283754
0.06315505588
0.06315818364
0.06316225743
0.06316723148
0.06317299385
0.06317938935
0.06318624247
0.06319337615
0.06320062416
0.06320783346
0.06321484164
0.0632213619
0.0632264787
0.06315251669
0.06315491604
0.06315846409
0.06316318169
0.06316895659
0.06317558742
0.06318283165
0.06319044426
0.06319820303
0.0632059213
0.06321345091
0.06322067541
0.06322748242
0.06323365547
0.06323841477
0.06315959271
0.06316580711
0.0631733727
0.06318183207
0.06319072817
0.06319967778
0.06320839686
0.06321669683
0.06322446718
0.06323165438
0.06323823974
0.06324420718
0.06324945226
0.06325341087
0.06317134171
0.06318338573
0.06319645281
0.0632094363
0.06322158251
0.06323248427
0.06324199748
0.06325014684
0.06325704902
0.06326285923
0.06326773695
0.0632718196
0.06327517208
0.06327758126
0.0631921841
0.06321216794
0.06323113124
0.06324766246
0.06326127803
0.06327205462
0.06328033804
0.06328656079
0.06329114517
0.06329446078
0.0632968122
0.06329844105
0.0632995301
0.06330017891
0.06321180788
0.0632358187
0.06325611904
0.06327219043
0.06328436652
0.06329328009
0.06329959994
0.06330392391
0.06330674691
0.06330846191
0.06330937396
0.06330971971
0.0633096951
0.06330951013
0.06319218394
0.06321216773
0.063231131
0.06324766221
0.06326127776
0.06327205435
0.06328033777
0.06328656051
0.06329114489
0.06329446051
0.06329681193
0.06329844078
0.06329952983
0.06330017864
0.0631713415
0.06318338549
0.06319645256
0.06320943603
0.06322158223
0.06323248397
0.06324199715
0.06325014649
0.06325704866
0.06326285885
0.06326773656
0.0632718192
0.06327517167
0.06327758085
0.06315959254
0.06316580695
0.06317337253
0.06318183187
0.06319072795
0.06319967752
0.06320839657
0.06321669651
0.06322446682
0.06323165399
0.06323823932
0.06324420674
0.0632494518
0.0632534104
0.06315491598
0.06315846401
0.0631631816
0.06316895647
0.06317558727
0.06318283146
0.06319044404
0.06319820277
0.06320592099
0.06321345056
0.06322067502
0.06322748199
0.06323365501
0.06323841427
0.06315499428
0.06315950126
0.06316575919
0.06317348973
0.06318225363
0.06319157817
0.06320104081
0.06321030843
0.06321914513
0.0632274021
0.06323499957
0.06324190476
0.06324809854
0.06325348342
0.06325751091
0.06316159855
0.06317134163
0.0631833856
0.06319645266
0.06320943613
0.06322158234
0.0632324841
0.0632419973
0.06325014667
0.06325704886
0.06326285908
0.0632677368
0.06327181946
0.06327517195
0.06327758114
0.06320598256
0.06323131652
0.06325420187
0.06327291941
0.06328713103
0.06329726584
0.06330406226
0.06330829939
0.06331066881
0.063311731
0.06331191603
0.06331154647
0.06331088071
0.06331021657
0.06328288283
0.06332554199
0.06335485892
0.06337207817
0.06338008618
0.06338177424
0.06337946641
0.06337484142
0.06336903453
0.06336277748
0.06335652563
0.06335057031
0.06334518932
0.06334107342
0.06338339209
0.06342569092
0.06344370238
0.06344670633
0.06344131003
0.06343166275
0.06342021742
0.06340836573
0.06339686378
0.06338609658
0.06337624095
0.06336738308
0.06335968529
0.06335393443
0.06328288178
0.06332554093
0.06335485795
0.06337207731
0.06338008542
0.06338177356
0.06337946581
0.06337484087
0.06336903404
0.06336277703
0.06335652522
0.06335056992
0.06334518895
0.06334107306
0.06320598167
0.06323131576
0.06325420114
0.0632729187
0.06328713033
0.06329726515
0.06330406158
0.06330829872
0.06331066817
0.06331173037
0.06331191543
0.06331154589
0.06331088014
0.06331021601
0.06317134146
0.06318338542
0.06319645245
0.06320943588
0.06322158205
0.06323248376
0.06324199692
0.06325014625
0.0632570484
0.06326285859
0.0632677363
0.06327181893
0.0632751714
0.06327758057
0.06315950122
0.06316575914
0.06317348965
0.0631822535
0.063191578
0.06320104058
0.06321030815
0.0632191448
0.06322740172
0.06323499914
0.06324190429
0.06324809803
0.06325348287
0.06325751033
0.06315870914
0.06316620849
0.06317591398
0.06318703773
0.06319876343
0.06321041388
0.06322150506
0.06323173657
0.06324095574
0.06324911675
0.06325624406
0.06326240189
0.06326766238
0.06327203645
0.0632751985
0.0631737651
0.06319218399
0.06321216771
0.06323113097
0.06324766218
0.06326127774
0.06327205433
0.06328033776
0.06328656052
0.0632911449
0.06329446053
0.06329681196
0.06329844083
0.06329952988
0.0633001787
0.06323067853
0.0632828827
0.0633255417
0.06335485862
0.06337207791
0.06338008594
0.06338177402
0.06337946622
0.06337484125
0.06336903438
0.06336277734
0.0633565255
0.06335057019
0.0633451892
0.06334107331
0.06354605783
0.063599431
0.06360793477
0.06359221435
0.06356574151
0.06353609623
0.06350710683
0.06348047079
0.06345676455
0.06343601803
0.06341802877
0.06340255467
0.06338956256
0.06338008095
0.06406142802
0.06399337444
0.0638894706
0.06379004351
0.06370565717
0.06363687515
0.0635814278
0.06353666263
0.06350027421
0.06347043875
0.06344577241
0.06342528601
0.0634085148
0.06339647042
0.06354605413
0.06359942849
0.06360793286
0.06359221282
0.06356574026
0.0635360952
0.06350710596
0.06348047004
0.06345676389
0.06343601745
0.06341802825
0.06340255419
0.06338956212
0.06338008054
0.06328288182
0.06332554069
0.06335485756
0.06337207683
0.06338008487
0.06338177299
0.06337946523
0.0633748403
0.06336903349
0.0633627765
0.06335652472
0.06335056945
0.06334518849
0.06334107262
0.0631921839
0.06321216756
0.06323113073
0.06324766184
0.0632612773
0.06327205383
0.0632803372
0.06328655991
0.06329114426
0.06329445987
0.06329681129
0.06329844014
0.06329952919
0.06330017799
0.06316620853
0.06317591401
0.06318703772
0.06319876335
0.06321041373
0.06322150484
0.06323173627
0.06324095537
0.06324911631
0.06325624357
0.06326240135
0.06326766179
0.06327203582
0.06327519784
0.06316149091
0.06317098838
0.06318258208
0.06319520941
0.06320797942
0.06322025035
0.06323161478
0.0632418532
0.06325088342
0.06325871622
0.06326542005
0.06327109347
0.06327583807
0.06327970161
0.06328244753
0.06318643746
0.06321180763
0.06323581825
0.06325611855
0.06327218992
0.06328436603
0.06329327962
0.06329959949
0.06330392349
0.06330674651
0.06330846154
0.06330937361
0.06330971937
0.06330969478
0.06330950982
0.06330798399
0.06338339198
0.06342569018
0.06344370164
0.06344670567
0.06344130945
0.06343166225
0.06342021698
0.06340836534
0.06339686344
0.06338609627
0.06337624066
0.06336738281
0.06335968504
0.06335393419
0.06397058139
0.06406142611
0.06399337298
0.06388946958
0.0637900428
0.06370565668
0.06363687478
0.0635814275
0.06353666238
0.06350027399
0.06347043857
0.06344577226
0.06342528587
0.06340851468
0.0633964703
0.06627704208
0.06514791664
0.0645230206
0.06415735438
0.06393093953
0.06378285882
0.06368099643
0.06360773914
0.06355302797
0.06351088044
0.06347760443
0.0634508938
0.06342955854
0.06341447059
0.06406142812
0.06399337076
0.0638894673
0.06379004091
0.06370565512
0.0636368735
0.06358142643
0.06353666147
0.06350027321
0.06347043788
0.06344577165
0.06342528532
0.06340851418
0.06339646984
0.06338339182
0.06342568949
0.06344370069
0.06344670464
0.06344130841
0.06343166124
0.06342021602
0.06340836443
0.06339686258
0.06338609547
0.06337623991
0.0633673821
0.06335968436
0.06335393353
0.06321180768
0.06323581816
0.06325611829
0.06327218952
0.06328436551
0.06329327902
0.06329959884
0.0633039228
0.06330674579
0.0633084608
0.06330937287
0.06330971863
0.06330969403
0.06330950908
0.06317098843
0.06318258209
0.06319520934
0.06320797926
0.0632202501
0.06323161444
0.06324185278
0.06325088292
0.06325871566
0.06326541943
0.06327109281
0.06327583737
0.06327970088
0.06328244678
0.0631587091
0.06316620839
0.06317591383
0.06318703754
0.0631987632
0.06321041362
0.06322150479
0.06323173628
0.06324095543
0.06324911643
0.06325624373
0.06326240156
0.06326766204
0.0632720361
0.06327519816
0.06317376489
0.06319218363
0.06321216726
0.06323113048
0.06324766167
0.06326127722
0.06327205382
0.06328033726
0.06328656002
0.06329114442
0.06329446006
0.0632968115
0.06329844038
0.06329952944
0.06330017826
0.06323067711
0.06328288117
0.06332554003
0.06335485706
0.0633720765
0.06338008469
0.0633817729
0.06337946521
0.06337484034
0.06336903355
0.06336277658
0.0633565248
0.06335056954
0.06334518859
0.06334107272
0.06342555075
0.0635460524
0.06359942657
0.06360793128
0.06359221158
0.0635657393
0.06353609442
0.06350710531
0.06348046951
0.06345676345
0.06343601706
0.06341802792
0.06340255389
0.06338956185
0.06338008028
0.06397058079
0.06406142492
0.0639933687
0.06388946604
0.06379004014
0.06370565464
0.06363687318
0.06358142621
0.06353666131
0.06350027308
0.06347043776
0.06344577154
0.06342528523
0.06340851409
0.06339646975
0.06342555142
0.06354605178
0.06359942564
0.06360793034
0.06359221071
0.06356573849
0.06353609368
0.06350710465
0.06348046889
0.06345676289
0.06343601655
0.06341802744
0.06340255345
0.06338956143
0.06338007989
0.06328288283
0.06332554071
0.06335485715
0.06337207622
0.0633800842
0.0633817723
0.06337946455
0.06337483965
0.06336903286
0.0633627759
0.06335652414
0.0633505689
0.06334518797
0.06334107212
0.06319218411
0.0632121676
0.06323113061
0.06324766161
0.063261277
0.06327205348
0.06328033682
0.06328655951
0.06329114386
0.06329445946
0.06329681088
0.06329843974
0.06329952879
0.0633001776
0.06316620855
0.06317591398
0.06318703764
0.06319876321
0.06321041354
0.0632215046
0.063231736
0.06324095507
0.06324911599
0.06325624323
0.063262401
0.06326766144
0.06327203546
0.06327519748
0.06315499422
0.06315950113
0.06316575901
0.0631734895
0.06318225334
0.06319157784
0.06320104043
0.063210308
0.06321914467
0.0632274016
0.06323499904
0.06324190421
0.06324809797
0.06325348283
0.06325751031
0.06316159834
0.06317134132
0.06318338521
0.06319645223
0.06320943565
0.06322158182
0.06323248354
0.06324199672
0.06325014605
0.06325704822
0.06326285842
0.06326773614
0.06327181878
0.06327517126
0.06327758045
0.06318177671
0.06320598145
0.0632313154
0.06325420073
0.06327291827
0.06328712988
0.0632972647
0.06330406113
0.06330829829
0.06331066774
0.06331172996
0.06331191502
0.06331154549
0.06331087976
0.06331021564
0.0632306771
0.06328288095
0.06332553961
0.0633548565
0.06337207586
0.06338008402
0.06338177223
0.06337946456
0.06337483972
0.06336903296
0.06336277603
0.06335652428
0.06335056905
0.06334518812
0.06334107228
0.06330798309
0.06338338991
0.06342568765
0.06344369915
0.0634467034
0.06344130742
0.06343166046
0.0634202154
0.06340836392
0.06339686216
0.06338609511
0.0633762396
0.06336738182
0.06335968411
0.06335393329
0.06323067694
0.06328288067
0.06332553927
0.06335485612
0.06337207547
0.06338008362
0.06338177185
0.06337946419
0.06337483936
0.06336903263
0.06336277571
0.06335652398
0.06335056876
0.06334518784
0.063341072
0.06318177706
0.06320598173
0.0632313155
0.06325420065
0.06327291804
0.06328712955
0.0632972643
0.06330406069
0.06330829783
0.06331066727
0.06331172948
0.06331191454
0.06331154502
0.06331087929
0.06331021517
0.0631713417
0.06318338547
0.06319645236
0.06320943567
0.06322158172
0.06323248335
0.06324199645
0.06325014572
0.06325704784
0.06326285799
0.06326773567
0.06327181829
0.06327517075
0.06327757991
0.0631595013
0.06316575918
0.06317348964
0.06318225343
0.06319157786
0.06320104037
0.06321030788
0.06321914447
0.06322740134
0.06323499872
0.06324190383
0.06324809754
0.06325348235
0.06325750979
0.06315251663
0.06315491593
0.06315846393
0.06316318148
0.06316895633
0.0631755871
0.06318283126
0.06319044382
0.06319820253
0.06320592074
0.0632134503
0.06322067475
0.06322748172
0.06323365474
0.063238414
0.06315505736
0.06315959245
0.06316580679
0.06317337232
0.06318183162
0.06319072765
0.06319967719
0.06320839622
0.06321669613
0.06322446643
0.06323165359
0.06323823891
0.06324420633
0.06324945139
0.06325340998
0.06316159832
0.06317134128
0.06318338514
0.06319645212
0.06320943551
0.06322158164
0.06323248334
0.06324199649
0.06325014582
0.06325704797
0.06326285817
0.06326773588
0.06327181852
0.063275171
0.06327758018
0.06317376485
0.06319218349
0.063212167
0.0632311301
0.0632476612
0.06326127668
0.06327205323
0.06328033663
0.06328655938
0.06329114378
0.06329445941
0.06329681086
0.06329843974
0.06329952881
0.06330017763
0.06318643726
0.0632118071
0.06323581746
0.06325611757
0.06327218883
0.06328436488
0.06329327843
0.0632995983
0.06330392231
0.06330674536
0.06330846041
0.0633093725
0.06330971829
0.06330969372
0.06330950878
0.06317376481
0.06319218342
0.06321216691
0.06323112999
0.06324766106
0.06326127652
0.06327205305
0.06328033644
0.06328655918
0.06329114357
0.0632944592
0.06329681065
0.06329843953
0.0632995286
0.06330017742
0.06316159837
0.06317134134
0.06318338518
0.06319645212
0.06320943545
0.06322158154
0.06323248319
0.0632419963
0.06325014559
0.06325704772
0.06326285789
0.06326773558
0.06327181821
0.06327517067
0.06327757984
0.06315505747
0.06315959258
0.06316580693
0.06317337245
0.06318183171
0.0631907277
0.06319967719
0.06320839617
0.06321669604
0.06322446629
0.06323165341
0.06323823869
0.06324420607
0.06324945109
0.06325340965
0.06315491605
0.06315846405
0.0631631816
0.06316895643
0.06317558717
0.0631828313
0.06319044381
0.06319820247
0.06320592063
0.06321345014
0.06322067454
0.06322748146
0.06323365443
0.06323841366
0.06315140856
0.0631528375
0.06315505581
0.06315818354
0.0631622573
0.06316723132
0.06317299365
0.06317938912
0.0631862422
0.06319337585
0.06320062383
0.0632078331
0.06321484127
0.06322136152
0.06322647831
0.06315251663
0.06315491592
0.06315846392
0.06316318146
0.0631689563
0.06317558706
0.06318283121
0.06319044375
0.06319820245
0.06320592065
0.06321345019
0.06322067464
0.0632274816
0.06323365461
0.06323841386
0.06315499422
0.06315950112
0.06316575898
0.06317348944
0.06318225325
0.06319157771
0.06320104026
0.0632103078
0.06321914443
0.06322740133
0.06323499875
0.0632419039
0.06324809764
0.06325348248
0.06325750995
0.06315870909
0.06316620835
0.06317591374
0.06318703738
0.06319876296
0.06321041331
0.0632215044
0.06323173582
0.06324095493
0.06324911588
0.06325624314
0.06326240094
0.06326766139
0.06327203544
0.06327519747
0.06316149086
0.06317098823
0.06318258181
0.06319520902
0.06320797891
0.06322024974
0.06323161408
0.06324185242
0.06325088258
0.06325871533
0.06326541912
0.06327109251
0.06327583709
0.06327970061
0.06328244652
0.06315870911
0.06316620837
0.06317591377
0.06318703741
0.06319876299
0.06321041333
0.0632215044
0.06323173582
0.0632409549
0.06324911583
0.06325624308
0.06326240086
0.0632676613
0.06327203533
0.06327519735
0.06315499424
0.06315950116
0.06316575903
0.06317348949
0.06318225329
0.06319157774
0.06320104026
0.06321030778
0.06321914438
0.06322740126
0.06323499865
0.06324190377
0.06324809749
0.0632534823
0.06325750975
0.06315251665
0.06315491596
0.06315846396
0.06316318151
0.06316895633
0.06317558707
0.0631828312
0.06319044371
0.06319820237
0.06320592054
0.06321345005
0.06322067445
0.06322748138
0.06323365436
0.06323841359
0.06315140859
0.06315283755
0.06315505588
0.06315818361
0.06316225737
0.06316723138
0.06317299369
0.06317938913
0.06318624218
0.06319337579
0.06320062373
0.06320783296
0.06321484108
0.06322136129
0.06322647804
)
;

boundaryField
{
    top
    {
        type            zeroGradient;
    }
    bottom
    {
        type            zeroGradient;
    }
    side-walls
    {
        type            zeroGradient;
    }
    inlet
    {
        type            zeroGradient;
    }
    outlet
    {
        type            zeroGradient;
    }
    procBoundary1to0
    {
        type            processor;
        value           nonuniform List<scalar> 
97
(
0.06315140859
0.06315140859
0.06315251666
0.06315499423
0.0631587091
0.06316149084
0.06315870903
0.06315499418
0.06315251661
0.06315140855
0.06315109586
0.06315505748
0.06315505748
0.06315505748
0.06316159841
0.06317376484
0.06318643717
0.06317376471
0.06316159825
0.06315505733
0.06315251661
0.0631522198
0.06315512201
0.06318177718
0.06318177718
0.06318177718
0.06323067733
0.06330798268
0.06323067634
0.06318177631
0.06316159823
0.06315499418
0.06315386388
0.0631602306
0.06318245897
0.06342555499
0.06342555499
0.06342555499
0.06397057681
0.06342554916
0.06323067643
0.06317376473
0.06315870906
0.06315503558
0.06316504058
0.06320708964
0.06337316312
0.06843283313
0.06843283313
0.06843283313
0.06397057847
0.06397057847
0.06330798277
0.06318643713
0.0631614908
0.06315386387
0.06316023056
0.06318245876
0.06324694227
0.0633731632
0.06324694217
0.0632306781
0.0632306781
0.0632306781
0.06317376496
0.06315870909
0.06315221979
0.06315512199
0.06316361237
0.0631824588
0.06320708935
0.06318245873
0.06316361239
0.06316159853
0.06316159853
0.06316159853
0.06315499426
0.06315109584
0.06315224216
0.06315512199
0.06316023056
0.06316504054
0.06316023054
0.06315512199
0.06315224219
0.06315251669
0.06315251669
0.06315251669
0.06315058636
0.06315109584
0.06315221979
0.06315386388
0.06315503557
0.06315386389
0.0631522198
0.06315109585
0.06315058637
)
;
    }
}


// ************************************************************************* //
