/*--------------------------------*- C++ -*----------------------------------*\
| =========                 |                                                 |
| \\      /  F ield         | OpenFOAM: The Open Source CFD Toolbox           |
|  \\    /   O peration     | Version:  4.x                                   |
|   \\  /    A nd           | Web:      www.OpenFOAM.org                      |
|    \\/     M anipulation  |                                                 |
\*---------------------------------------------------------------------------*/
FoamFile
{
    version     2.0;
    format      ascii;
    class       volScalarField;
    location    "6000";
    object      Cpv;
}
// * * * * * * * * * * * * * * * * * * * * * * * * * * * * * * * * * * * * * //

dimensions      [0 2 -2 -1 0 0 0];

internalField   nonuniform List<scalar> 
1174
(
1245.090845
1245.090843
1245.090831
1245.090795
1245.09074
1245.090721
1245.090677
1245.090654
1245.090589
1245.090529
1245.090488
1245.090454
1245.090442
1245.090427
1245.091302
1245.091282
1245.091247
1245.091193
1245.09115
1245.091087
1245.091055
1245.090999
1245.09097
1245.090917
1245.090895
1245.090859
1245.090803
1245.090758
1245.090366
1245.090312
1245.090296
1245.090258
1245.090218
1245.090187
1245.0901
1245.090042
1245.089983
1245.089948
1245.089903
1245.089871
1245.089843
1245.089815
1245.091521
1245.091474
1245.091397
1245.091354
1245.091301
1245.091235
1245.091207
1245.091173
1245.091137
1245.091108
1245.091093
1245.091056
1245.091056
1245.090993
1245.091198
1245.091121
1245.091029
1245.09095
1245.090881
1245.090819
1245.090778
1245.090742
1245.090679
1245.090671
1245.090606
1245.09056
1245.090575
1245.090547
1245.089896
1245.08983
1245.089756
1245.089727
1245.089672
1245.089604
1245.089529
1245.08947
1245.089425
1245.08937
1245.089344
1245.089317
1245.089319
1245.089319
1245.0904
1245.090369
1245.090316
1245.090258
1245.090223
1245.090183
1245.090125
1245.09006
1245.09003
1245.089991
1245.089978
1245.089935
1245.089922
1245.089896
1245.090981
1245.090964
1245.090939
1245.09092
1245.090885
1245.090863
1245.090807
1245.090762
1245.090726
1245.09071
1245.090665
1245.090621
1245.090597
1245.090609
1245.09075
1245.090747
1245.090725
1245.090696
1245.090666
1245.090626
1245.09058
1245.09055
1245.090512
1245.090449
1245.090395
1245.090351
1245.090327
1245.090298
1245.091082
1245.091062
1245.091032
1245.091003
1245.090944
1245.090915
1245.090875
1245.090843
1245.09082
1245.090815
1245.09078
1245.090728
1245.09069
1245.090677
1245.090666
1245.091016
1245.091013
1245.09097
1245.090916
1245.090873
1245.090823
1245.090757
1245.090704
1245.090661
1245.090609
1245.090575
1245.090535
1245.090512
1245.090519
1245.091198
1245.091121
1245.091036
1245.090942
1245.090869
1245.090799
1245.090727
1245.090709
1245.090695
1245.090666
1245.090645
1245.09061
1245.09058
1245.09058
1245.090203
1245.090105
1245.090027
1245.089949
1245.089876
1245.089826
1245.089785
1245.089757
1245.089749
1245.089723
1245.089721
1245.089719
1245.0897
1245.089749
1245.090691
1245.090546
1245.090431
1245.090337
1245.09028
1245.090204
1245.090161
1245.090128
1245.09011
1245.0901
1245.090093
1245.090082
1245.090091
1245.090088
1245.091024
1245.09091
1245.090806
1245.090723
1245.090611
1245.090584
1245.09054
1245.090524
1245.090507
1245.090482
1245.090485
1245.090474
1245.090456
1245.090435
1245.091783
1245.091701
1245.091643
1245.091572
1245.091517
1245.091442
1245.091396
1245.091361
1245.09132
1245.091296
1245.091274
1245.091242
1245.091226
1245.091223
1245.090451
1245.090398
1245.090352
1245.090275
1245.09022
1245.090171
1245.090127
1245.090082
1245.090024
1245.089972
1245.089941
1245.089942
1245.089915
1245.089895
1245.091147
1245.091135
1245.091099
1245.091065
1245.091025
1245.090994
1245.090948
1245.090935
1245.090883
1245.090854
1245.090842
1245.090804
1245.090789
1245.090746
1245.091045
1245.091006
1245.090969
1245.09092
1245.09087
1245.09083
1245.090771
1245.090718
1245.090686
1245.090636
1245.090595
1245.090546
1245.090498
1245.090481
1245.090446
1245.090363
1245.090291
1245.090209
1245.090124
1245.090063
1245.090031
1245.08997
1245.089923
1245.08987
1245.089823
1245.089816
1245.089786
1245.089758
1245.08976
1245.089739
1245.090335
1245.090207
1245.090097
1245.089994
1245.0899
1245.089881
1245.089854
1245.089844
1245.089806
1245.089802
1245.089793
1245.089781
1245.08976
1245.089763
1245.089711
1245.089474
1245.089323
1245.089241
1245.089207
1245.089209
1245.089211
1245.089226
1245.089258
1245.089285
1245.089319
1245.089341
1245.089377
1245.089402
1245.090347
1245.090136
1245.090052
1245.090031
1245.090037
1245.090109
1245.090157
1245.090203
1245.090298
1245.090403
1245.090482
1245.090549
1245.090591
1245.090626
1245.089277
1245.089069
1245.088928
1245.08883
1245.08879
1245.088803
1245.088848
1245.088888
1245.088934
1245.088978
1245.08901
1245.089028
1245.089061
1245.089093
1245.090366
1245.09022
1245.090074
1245.089986
1245.089899
1245.089819
1245.089791
1245.089765
1245.089738
1245.089743
1245.089729
1245.08978
1245.089787
1245.089818
1245.091051
1245.090983
1245.090894
1245.090821
1245.09075
1245.090666
1245.090586
1245.090553
1245.090533
1245.090507
1245.090483
1245.090461
1245.090425
1245.090402
1245.09051
1245.090493
1245.090444
1245.090434
1245.090382
1245.090313
1245.090254
1245.090218
1245.090173
1245.090132
1245.090103
1245.090061
1245.090038
1245.090027
1245.090389
1245.090336
1245.090271
1245.090235
1245.090183
1245.090101
1245.09006
1245.090015
1245.089942
1245.089876
1245.089821
1245.089803
1245.089781
1245.089776
1245.089752
1245.090289
1245.090167
1245.090072
1245.089988
1245.08991
1245.089857
1245.089761
1245.089726
1245.089687
1245.089654
1245.089637
1245.089621
1245.089579
1245.08958
1245.089607
1245.089744
1245.089477
1245.089246
1245.089116
1245.089021
1245.089
1245.088985
1245.08904
1245.089066
1245.089116
1245.089181
1245.089259
1245.089278
1245.089338
1245.089349
1245.088729
1245.088413
1245.088351
1245.088433
1245.08861
1245.088755
1245.088924
1245.08906
1245.089184
1245.089299
1245.089391
1245.089455
1245.08954
1245.089573
1245.085421
1245.085797
1245.086376
1245.0869
1245.0874
1245.087764
1245.088066
1245.088299
1245.08849
1245.088662
1245.088763
1245.088868
1245.088967
1245.089015
1245.088415
1245.088122
1245.088099
1245.088224
1245.088337
1245.088515
1245.088678
1245.088863
1245.088995
1245.089113
1245.089213
1245.089292
1245.089389
1245.089449
1245.08981
1245.089591
1245.089423
1245.089331
1245.089309
1245.089351
1245.089342
1245.089372
1245.089391
1245.089422
1245.089446
1245.089464
1245.089477
1245.089484
1245.091043
1245.090956
1245.090847
1245.090773
1245.090723
1245.090674
1245.090659
1245.090621
1245.090603
1245.090588
1245.090592
1245.090572
1245.090583
1245.090579
1245.091047
1245.090977
1245.090914
1245.090876
1245.090824
1245.090754
1245.090693
1245.090639
1245.090589
1245.090552
1245.090522
1245.090501
1245.090479
1245.090459
1245.090961
1245.090908
1245.090859
1245.090801
1245.090727
1245.090688
1245.090617
1245.090585
1245.090551
1245.090516
1245.090498
1245.090452
1245.090427
1245.09039
1245.090381
1245.090267
1245.090119
1245.089984
1245.089869
1245.089782
1245.089706
1245.089637
1245.089609
1245.089579
1245.089572
1245.089572
1245.089595
1245.089607
1245.089617
1245.089614
1245.090853
1245.09045
1245.090208
1245.0901
1245.090092
1245.090106
1245.090153
1245.090199
1245.090283
1245.090357
1245.090419
1245.090481
1245.090525
1245.090602
1245.090642
1245.085719
1245.085207
1245.085605
1245.086154
1245.086686
1245.087147
1245.087542
1245.087874
1245.088125
1245.088338
1245.088485
1245.08861
1245.088717
1245.088804
1245.088908
1244.240141
1244.246249
1244.249389
1244.250961
1244.251725
1244.252004
1244.252009
1244.251853
1244.251598
1244.251251
1244.250874
1244.250438
1244.249971
1244.249482
1245.085753
1245.086129
1245.086687
1245.08723
1245.087681
1245.088045
1245.088374
1245.088607
1245.088816
1245.088964
1245.089088
1245.089209
1245.089295
1245.089353
1245.089622
1245.0894
1245.089312
1245.08931
1245.089371
1245.089437
1245.089497
1245.089564
1245.089645
1245.089707
1245.089762
1245.089813
1245.089871
1245.08991
1245.090148
1245.090003
1245.089858
1245.08975
1245.08969
1245.089659
1245.08961
1245.089571
1245.08955
1245.089529
1245.089553
1245.089539
1245.089546
1245.089522
1245.09038
1245.090304
1245.090246
1245.090158
1245.090089
1245.090029
1245.089991
1245.089939
1245.089884
1245.089858
1245.089824
1245.089807
1245.089766
1245.089781
1245.090284
1245.090237
1245.090175
1245.090125
1245.090047
1245.089992
1245.089913
1245.089877
1245.089865
1245.089818
1245.089787
1245.089766
1245.089719
1245.089701
1245.089715
1245.090506
1245.090414
1245.090295
1245.090205
1245.090125
1245.090045
1245.089998
1245.089975
1245.089962
1245.089912
1245.089908
1245.089908
1245.089909
1245.089907
1245.089877
1245.089562
1245.089264
1245.089034
1245.088882
1245.088811
1245.088768
1245.08877
1245.088794
1245.088819
1245.088889
1245.088948
1245.088964
1245.088981
1245.088989
1245.088981
1245.089164
1245.088489
1245.088195
1245.088162
1245.088261
1245.088406
1245.088564
1245.088723
1245.088858
1245.088963
1245.089065
1245.089176
1245.089257
1245.089338
1245.089387
1245.085815
1245.085328
1245.085699
1245.086245
1245.086801
1245.087247
1245.08761
1245.087905
1245.088166
1245.088391
1245.088563
1245.088689
1245.088814
1245.088897
1245.088993
1245.089016
1245.088355
1245.088067
1245.08803
1245.088121
1245.088286
1245.088463
1245.088605
1245.088793
1245.088933
1245.089054
1245.089157
1245.089247
1245.08933
1245.089361
1245.090013
1245.089787
1245.089632
1245.089509
1245.089449
1245.089444
1245.089505
1245.089536
1245.089562
1245.089613
1245.089656
1245.089668
1245.089704
1245.089728
1245.09025
1245.09013
1245.090037
1245.089968
1245.089882
1245.089801
1245.089735
1245.089722
1245.089704
1245.089701
1245.089682
1245.089671
1245.089671
1245.089621
1245.090313
1245.090229
1245.09018
1245.09013
1245.09007
1245.090029
1245.089955
1245.089915
1245.089874
1245.089807
1245.08977
1245.08975
1245.08974
1245.089736
1245.090584
1245.090546
1245.09052
1245.090494
1245.090429
1245.090391
1245.090341
1245.090275
1245.090242
1245.090195
1245.090161
1245.090132
1245.090088
1245.090045
1245.090029
1245.090833
1245.090815
1245.090752
1245.090677
1245.09062
1245.09056
1245.090475
1245.090433
1245.090403
1245.09036
1245.090337
1245.090315
1245.090275
1245.090279
1245.090269
1245.091729
1245.091581
1245.091438
1245.091308
1245.091216
1245.091177
1245.091105
1245.091075
1245.091027
1245.091025
1245.091008
1245.090998
1245.091034
1245.091011
1245.090987
1245.090498
1245.090218
1245.089974
1245.089805
1245.089705
1245.089655
1245.089662
1245.089718
1245.089773
1245.08978
1245.089821
1245.08982
1245.089863
1245.089884
1245.08988
1245.089452
1245.089035
1245.08882
1245.088731
1245.088725
1245.088775
1245.088818
1245.088865
1245.088955
1245.089012
1245.089066
1245.089137
1245.089206
1245.089244
1245.089297
1245.090177
1245.089906
1245.089689
1245.089496
1245.089377
1245.089343
1245.089359
1245.089397
1245.089398
1245.089399
1245.089436
1245.08949
1245.089509
1245.089527
1245.089535
1245.090749
1245.090619
1245.090464
1245.090318
1245.090188
1245.090127
1245.09009
1245.090072
1245.090057
1245.090051
1245.09007
1245.090094
1245.090076
1245.090077
1245.090066
1245.09099
1245.090944
1245.090875
1245.090821
1245.090742
1245.090694
1245.09064
1245.090598
1245.090558
1245.090521
1245.090507
1245.090478
1245.090481
1245.090457
1245.090756
1245.090719
1245.09068
1245.090613
1245.090546
1245.090479
1245.090418
1245.090361
1245.090329
1245.090289
1245.090254
1245.090231
1245.090215
1245.090208
1245.091042
1245.091025
1245.090988
1245.09099
1245.090949
1245.090913
1245.090869
1245.090832
1245.090805
1245.090759
1245.090704
1245.090652
1245.090614
1245.090575
1245.090553
1245.090311
1245.090291
1245.090247
1245.090204
1245.09014
1245.090079
1245.090029
1245.089999
1245.089922
1245.089874
1245.089868
1245.089819
1245.089758
1245.089699
1245.089695
1245.090613
1245.090562
1245.090508
1245.090448
1245.090359
1245.090276
1245.090215
1245.090179
1245.090128
1245.090091
1245.090065
1245.090074
1245.090056
1245.090075
1245.090066
1245.090326
1245.090218
1245.090114
1245.090026
1245.08994
1245.089855
1245.089776
1245.089731
1245.089718
1245.089692
1245.089693
1245.089692
1245.08967
1245.089663
1245.089664
1245.091015
1245.090877
1245.090762
1245.090665
1245.090592
1245.090543
1245.090501
1245.090444
1245.09043
1245.090408
1245.090386
1245.090375
1245.090347
1245.090366
1245.090377
1245.090458
1245.090352
1245.090247
1245.090159
1245.090079
1245.090001
1245.089931
1245.089886
1245.08986
1245.089838
1245.089814
1245.089811
1245.089769
1245.089787
1245.089796
1245.090989
1245.090934
1245.090871
1245.0908
1245.090729
1245.090656
1245.090588
1245.090525
1245.090485
1245.090421
1245.090375
1245.090352
1245.090343
1245.090321
1245.090303
1245.09131
1245.091288
1245.091275
1245.09119
1245.091158
1245.091094
1245.091055
1245.091011
1245.090984
1245.090937
1245.090882
1245.09087
1245.090848
1245.090857
1245.090824
1245.091166
1245.091163
1245.091145
1245.091107
1245.091083
1245.091054
1245.091017
1245.090963
1245.090929
1245.090879
1245.090844
1245.090808
1245.090785
1245.090741
1245.090449
1245.090408
1245.09041
1245.090397
1245.090377
1245.090371
1245.090344
1245.090305
1245.090271
1245.090244
1245.090209
1245.090156
1245.090112
1245.09009
1245.090064
1245.09088
1245.090884
1245.090866
1245.090824
1245.090793
1245.090754
1245.090726
1245.090672
1245.090648
1245.0906
1245.090578
1245.090524
1245.090482
1245.09045
1245.090396
1245.090707
1245.090696
1245.090659
1245.090617
1245.090576
1245.090544
1245.090485
1245.090441
1245.090419
1245.090364
1245.090304
1245.090276
1245.090235
1245.090193
1245.090174
1245.090921
1245.09089
1245.090854
1245.090783
1245.090736
1245.090677
1245.090608
1245.090554
1245.090532
1245.090484
1245.090467
1245.090424
1245.090406
1245.090401
1245.090391
1245.090732
1245.090689
1245.090619
1245.090529
1245.09044
1245.090383
1245.090304
1245.09025
1245.090214
1245.090167
1245.090135
1245.090089
1245.090094
1245.090075
1245.090062
1245.091708
1245.091682
1245.091619
1245.09155
1245.091496
1245.09144
1245.091366
1245.091301
1245.091254
1245.091224
1245.091193
1245.091132
1245.091116
1245.091096
1245.091092
1245.091225
1245.091192
1245.091151
1245.091133
1245.091071
1245.091041
1245.090974
1245.090934
1245.09088
1245.090841
1245.090815
1245.090787
1245.09077
1245.090729
1245.090723
1245.089996
1245.089988
1245.089978
1245.08996
1245.089934
1245.08989
1245.089847
1245.089803
1245.089767
1245.089717
1245.089662
1245.089624
1245.089575
1245.089551
1245.089517
1245.090783
1245.090789
1245.090787
1245.090777
1245.09074
1245.090697
1245.090658
1245.090626
1245.090587
1245.09055
1245.090511
1245.090493
1245.090446
1245.090404
1245.09038
)
;

boundaryField
{
    top
    {
        type            calculated;
        value           nonuniform List<scalar> 
127
(
1245.090783
1245.09075
1245.091147
1245.09051
1245.091047
1245.09038
1245.090313
1245.090756
1245.091166
1245.090789
1245.090747
1245.091135
1245.090493
1245.090977
1245.090304
1245.090229
1245.090719
1245.091163
1245.090787
1245.090725
1245.091099
1245.090444
1245.090914
1245.090246
1245.09018
1245.09068
1245.091145
1245.090777
1245.090696
1245.091065
1245.090434
1245.090876
1245.090158
1245.09013
1245.090613
1245.091107
1245.09074
1245.090666
1245.091025
1245.090382
1245.090824
1245.090089
1245.09007
1245.090546
1245.091083
1245.090697
1245.090626
1245.090994
1245.090313
1245.090754
1245.090029
1245.090029
1245.090479
1245.091054
1245.090658
1245.09058
1245.090948
1245.090254
1245.090693
1245.089991
1245.089955
1245.090418
1245.091017
1245.090626
1245.09055
1245.090935
1245.090218
1245.090639
1245.089939
1245.089915
1245.090361
1245.090963
1245.090587
1245.090512
1245.090883
1245.090173
1245.090589
1245.089884
1245.089874
1245.090329
1245.090929
1245.09055
1245.090449
1245.090854
1245.090132
1245.090552
1245.089858
1245.089807
1245.090289
1245.090879
1245.090511
1245.090395
1245.090842
1245.090103
1245.090522
1245.089824
1245.08977
1245.090254
1245.090844
1245.090493
1245.090351
1245.090804
1245.090061
1245.090501
1245.089807
1245.08975
1245.090231
1245.090808
1245.090446
1245.090327
1245.090789
1245.090038
1245.090479
1245.089766
1245.08974
1245.090215
1245.090785
1245.090404
1245.090298
1245.090746
1245.090027
1245.090459
1245.089781
1245.089736
1245.090208
1245.090741
1245.09038
)
;
    }
    bottom
    {
        type            calculated;
        value           nonuniform List<scalar> 
134
(
1245.091082
1245.091045
1245.090389
1245.090961
1245.090284
1245.090584
1245.091042
1245.090449
1245.090845
1245.091062
1245.091006
1245.090336
1245.090908
1245.090237
1245.090546
1245.091025
1245.090408
1245.090843
1245.091032
1245.090969
1245.090271
1245.090859
1245.090175
1245.09052
1245.090988
1245.09041
1245.090831
1245.091003
1245.09092
1245.090235
1245.090801
1245.090125
1245.090494
1245.09099
1245.090397
1245.090795
1245.090944
1245.09087
1245.090183
1245.090727
1245.090047
1245.090429
1245.090949
1245.090377
1245.09074
1245.090915
1245.09083
1245.090101
1245.090688
1245.089992
1245.090391
1245.090913
1245.090371
1245.090721
1245.090875
1245.090771
1245.09006
1245.090617
1245.089913
1245.090341
1245.090869
1245.090344
1245.090677
1245.090843
1245.090718
1245.090015
1245.090585
1245.089877
1245.090275
1245.090832
1245.090305
1245.090654
1245.09082
1245.090686
1245.089942
1245.090551
1245.089865
1245.090242
1245.090805
1245.090271
1245.090589
1245.090815
1245.090636
1245.089876
1245.090516
1245.089818
1245.090195
1245.090759
1245.090244
1245.090529
1245.09078
1245.090595
1245.089821
1245.090498
1245.089787
1245.090161
1245.090704
1245.090209
1245.090488
1245.090728
1245.090546
1245.089803
1245.090452
1245.089766
1245.090132
1245.090652
1245.090156
1245.090454
1245.09069
1245.090498
1245.089781
1245.090427
1245.089719
1245.090088
1245.090614
1245.090112
1245.090442
1245.090677
1245.090481
1245.089776
1245.09039
1245.089701
1245.090045
1245.090575
1245.09009
1245.090427
1245.090666
1245.090446
1245.089752
1245.090381
1245.089715
1245.090029
1245.090553
1245.090064
)
;
    }
    side-walls
    {
        type            calculated;
        value           nonuniform List<scalar> 
261
(
1245.090845
1245.091302
1245.090366
1245.091521
1245.091198
1245.089896
1245.0904
1245.090981
1245.09075
1245.090843
1245.091282
1245.090312
1245.091474
1245.091121
1245.08983
1245.090369
1245.090964
1245.090747
1245.090831
1245.091247
1245.090296
1245.091397
1245.091029
1245.089756
1245.090316
1245.090939
1245.090725
1245.090795
1245.091193
1245.090258
1245.091354
1245.09095
1245.089727
1245.090258
1245.09092
1245.090696
1245.09074
1245.09115
1245.090218
1245.091301
1245.090881
1245.089672
1245.090223
1245.090885
1245.090666
1245.090721
1245.091087
1245.090187
1245.091235
1245.090819
1245.089604
1245.090183
1245.090863
1245.090626
1245.090677
1245.091055
1245.0901
1245.091207
1245.090778
1245.089529
1245.090125
1245.090807
1245.09058
1245.090654
1245.090999
1245.090042
1245.091173
1245.090742
1245.08947
1245.09006
1245.090762
1245.09055
1245.090589
1245.09097
1245.089983
1245.091137
1245.090679
1245.089425
1245.09003
1245.090726
1245.090512
1245.090529
1245.090917
1245.089948
1245.091108
1245.090671
1245.08937
1245.089991
1245.09071
1245.090449
1245.090488
1245.090895
1245.089903
1245.091093
1245.090606
1245.089344
1245.089978
1245.090665
1245.090395
1245.090454
1245.090859
1245.089871
1245.091056
1245.09056
1245.089317
1245.089935
1245.090621
1245.090351
1245.090442
1245.090803
1245.089843
1245.091056
1245.090575
1245.089319
1245.089922
1245.090597
1245.090327
1245.090427
1245.090758
1245.089815
1245.090993
1245.090547
1245.089319
1245.089896
1245.090609
1245.090298
1245.090449
1245.09088
1245.090707
1245.090921
1245.090732
1245.091708
1245.091225
1245.089996
1245.090783
1245.090408
1245.090884
1245.090696
1245.09089
1245.090689
1245.091682
1245.091192
1245.089988
1245.090789
1245.09041
1245.090866
1245.090659
1245.090854
1245.090619
1245.091619
1245.091151
1245.089978
1245.090787
1245.090397
1245.090824
1245.090617
1245.090783
1245.090529
1245.09155
1245.091133
1245.08996
1245.090777
1245.090377
1245.090793
1245.090576
1245.090736
1245.09044
1245.091496
1245.091071
1245.089934
1245.09074
1245.090371
1245.090754
1245.090544
1245.090677
1245.090383
1245.09144
1245.091041
1245.08989
1245.090697
1245.090344
1245.090726
1245.090485
1245.090608
1245.090304
1245.091366
1245.090974
1245.089847
1245.090658
1245.090305
1245.090672
1245.090441
1245.090554
1245.09025
1245.091301
1245.090934
1245.089803
1245.090626
1245.090271
1245.090648
1245.090419
1245.090532
1245.090214
1245.091254
1245.09088
1245.089767
1245.090587
1245.090244
1245.0906
1245.090364
1245.090484
1245.090167
1245.091224
1245.090841
1245.089717
1245.09055
1245.090209
1245.090578
1245.090304
1245.090467
1245.090135
1245.091193
1245.090815
1245.089662
1245.090511
1245.090156
1245.090524
1245.090276
1245.090424
1245.090089
1245.091132
1245.090787
1245.089624
1245.090493
1245.090112
1245.090482
1245.090235
1245.090406
1245.090094
1245.091116
1245.09077
1245.089575
1245.090446
1245.09009
1245.09045
1245.090193
1245.090401
1245.090075
1245.091096
1245.090729
1245.089551
1245.090404
1245.090064
1245.090396
1245.090174
1245.090391
1245.090062
1245.091092
1245.090723
1245.089517
1245.09038
)
;
    }
    inlet
    {
        type            calculated;
        value           nonuniform 0();
    }
    outlet
    {
        type            calculated;
        value           nonuniform List<scalar> 
81
(
1245.090427
1245.090758
1245.089815
1245.090993
1245.090547
1245.089319
1245.089896
1245.090609
1245.090298
1245.090666
1245.090519
1245.09058
1245.089749
1245.090088
1245.090435
1245.091223
1245.089895
1245.090746
1245.090446
1245.089739
1245.089763
1245.089402
1245.090626
1245.089093
1245.089818
1245.090402
1245.090027
1245.089752
1245.089607
1245.089349
1245.089573
1245.089015
1245.089449
1245.089484
1245.090579
1245.090459
1245.090381
1245.089614
1245.090642
1245.088908
1244.249482
1245.089353
1245.08991
1245.089522
1245.089781
1245.089715
1245.089877
1245.088981
1245.089387
1245.088993
1245.089361
1245.089728
1245.089621
1245.089736
1245.090029
1245.090269
1245.090987
1245.08988
1245.089297
1245.089535
1245.090066
1245.090457
1245.090208
1245.090553
1245.089695
1245.090066
1245.089664
1245.090377
1245.089796
1245.090303
1245.090824
1245.090741
1245.090064
1245.090396
1245.090174
1245.090391
1245.090062
1245.091092
1245.090723
1245.089517
1245.09038
)
;
    }
    procBoundary1to0
    {
        type            processor;
        value           nonuniform List<scalar> 
97
(
1245.090832
1245.090832
1245.091318
1245.090375
1245.091556
1245.091248
1245.089909
1245.090429
1245.090984
1245.090749
1245.091107
1245.09103
1245.09103
1245.09103
1245.091274
1245.090316
1245.090835
1245.091134
1245.091814
1245.090487
1245.091146
1245.091063
1245.090391
1245.090462
1245.090462
1245.090462
1245.089985
1245.090752
1245.08959
1245.090501
1245.091127
1245.090547
1245.090426
1245.090368
1245.090028
1245.089391
1245.089391
1245.089391
1245.085876
1245.089076
1245.090106
1245.091157
1245.091077
1245.091016
1245.090394
1245.091365
1245.089509
1244.227011
1244.227011
1244.227011
1245.08624
1245.08624
1245.09006
1245.090275
1245.090431
1245.090296
1245.090582
1245.089825
1245.090124
1245.089646
1245.090024
1245.090284
1245.090284
1245.090284
1245.09036
1245.090362
1245.090577
1245.090885
1245.091824
1245.090766
1245.090014
1245.090417
1245.090829
1245.091064
1245.091064
1245.091064
1245.090767
1245.091061
1245.090333
1245.090654
1245.090387
1245.091099
1245.090534
1245.091012
1245.09129
1245.091194
1245.091194
1245.091194
1245.090455
1245.090868
1245.090752
1245.090948
1245.090793
1245.091743
1245.091231
1245.089991
1245.090798
)
;
    }
}


// ************************************************************************* //
