/*--------------------------------*- C++ -*----------------------------------*\
| =========                 |                                                 |
| \\      /  F ield         | OpenFOAM: The Open Source CFD Toolbox           |
|  \\    /   O peration     | Version:  4.x                                   |
|   \\  /    A nd           | Web:      www.OpenFOAM.org                      |
|    \\/     M anipulation  |                                                 |
\*---------------------------------------------------------------------------*/
FoamFile
{
    version     2.0;
    format      ascii;
    class       volScalarField;
    location    "6000";
    object      H2;
}
// * * * * * * * * * * * * * * * * * * * * * * * * * * * * * * * * * * * * * //

dimensions      [0 0 0 0 0 0 0];

internalField   nonuniform List<scalar> 
1174
(
0.002172448812
0.002172400814
0.002172333143
0.002172245014
0.002172137422
0.002172012795
0.002171874496
0.002171726325
0.002171572117
0.002171415468
0.002171259689
0.00217110829
0.002170967462
0.002170856966
0.002172403821
0.002172327042
0.002172224964
0.002172100023
0.002171956584
0.002171799902
0.002171635282
0.002171467534
0.002171300699
0.002171137982
0.002170981899
0.002170834876
0.002170701582
0.002170598838
0.002172304559
0.002172169121
0.002172001831
0.002171812208
0.002171610488
0.002171405821
0.002171205418
0.002171014381
0.002170835929
0.002170671784
0.002170522651
0.002170388934
0.002170272728
0.002170185842
0.002172159341
0.00217194927
0.002171708536
0.00217145482
0.002171202783
0.002170962902
0.002170741677
0.002170542406
0.002170366074
0.002170212146
0.002170079224
0.00216996574
0.002169871436
0.0021698033
0.00217205584
0.002171804891
0.002171531614
0.002171255304
0.002170989854
0.002170744079
0.002170522725
0.002170327564
0.002170158356
0.002170013611
0.002169891189
0.002169788883
0.00216970564
0.002169646517
0.002172159343
0.002171949273
0.002171708541
0.002171454825
0.002171202788
0.002170962908
0.002170741683
0.002170542412
0.00217036608
0.002170212152
0.00217007923
0.002169965746
0.002169871442
0.002169803306
0.002172304561
0.002172169123
0.002172001834
0.002171812211
0.002171610492
0.002171405826
0.002171205423
0.002171014387
0.002170835935
0.002170671791
0.002170522658
0.002170388942
0.002170272736
0.00217018585
0.002172403823
0.002172327044
0.002172224966
0.002172100026
0.002171956588
0.002171799906
0.002171635286
0.00217146754
0.002171300706
0.002171137989
0.002170981906
0.002170834884
0.002170701591
0.002170598847
0.002172448813
0.002172400815
0.002172333145
0.002172245016
0.002172137425
0.002172012798
0.002171874499
0.00217172633
0.002171572122
0.002171415474
0.002171259696
0.002171108298
0.002170967471
0.002170856975
0.002172455747
0.002172403822
0.002172327042
0.002172224964
0.002172100024
0.002171956585
0.002171799903
0.002171635283
0.002171467536
0.002171300701
0.002171137983
0.0021709819
0.002170834878
0.002170701584
0.002170598839
0.002172302576
0.002172168079
0.002172004358
0.002171821323
0.002171628873
0.002171435306
0.002171246769
0.002171067343
0.002170899415
0.002170744141
0.00217060192
0.002170473094
0.002170359905
0.002170274504
0.002172048195
0.002171787496
0.002171504696
0.002171223759
0.002170961003
0.002170725237
0.002170519574
0.00217034347
0.002170194394
0.002170068979
0.002169963767
0.002169875775
0.00216980358
0.002169751735
0.002171596875
0.002171164281
0.002170753862
0.002170396176
0.00217010168
0.0021698687
0.002169689733
0.002169555405
0.002169456563
0.0021693852
0.002169334714
0.00216929987
0.002169276694
0.002169262969
0.002171171886
0.002170652114
0.002170212782
0.002169865099
0.002169601818
0.002169409217
0.0021692728
0.002169179612
0.002169118928
0.002169082236
0.002169062926
0.00216905587
0.00216905681
0.002169061139
0.002171596878
0.002171164285
0.002170753867
0.002170396181
0.002170101685
0.002169868705
0.002169689739
0.002169555411
0.002169456569
0.002169385205
0.00216933472
0.002169299876
0.002169276699
0.002169262975
0.002172048199
0.0021717875
0.0021715047
0.002171223764
0.002170961008
0.002170725243
0.00217051958
0.002170343477
0.002170194402
0.002170068987
0.002169963775
0.002169875783
0.002169803589
0.002169751744
0.002172302579
0.002172168082
0.002172004361
0.002171821327
0.002171628878
0.002171435311
0.002171246775
0.002171067349
0.002170899422
0.002170744149
0.002170601929
0.002170473103
0.002170359915
0.002170274514
0.002172403823
0.002172327044
0.002172224966
0.002172100026
0.002171956588
0.002171799907
0.002171635287
0.002171467541
0.002171300707
0.00217113799
0.002170981908
0.002170834887
0.002170701594
0.00217059885
0.002172402111
0.00217230456
0.002172169123
0.002172001834
0.002171812211
0.002171610491
0.002171405825
0.002171205421
0.002171014385
0.002170835933
0.002170671788
0.002170522654
0.002170388938
0.002170272732
0.002170185846
0.002172259115
0.002172048197
0.002171787499
0.002171504699
0.002171223763
0.002170961007
0.002170725241
0.002170519577
0.002170343474
0.002170194398
0.002170068983
0.00216996377
0.002169875778
0.002169803583
0.002169751738
0.002171298085
0.002170749658
0.002170254345
0.002169849357
0.002169541997
0.002169322952
0.002169176215
0.002169084905
0.002169034039
0.002169011476
0.0021690079
0.002169016323
0.002169031136
0.002169045833
0.002169632683
0.002168709173
0.002168074736
0.002167702362
0.002167529496
0.002167493491
0.002167544002
0.002167644666
0.002167770897
0.002167906851
0.00216804267
0.002168172044
0.002168288949
0.002168378378
0.002167455712
0.002166540151
0.002166150715
0.00216608633
0.002166203851
0.002166413392
0.002166661825
0.002166919012
0.002167168584
0.002167402209
0.002167616065
0.002167808287
0.002167975353
0.002168100178
0.002169632704
0.002168709194
0.002168074755
0.002167702379
0.002167529511
0.002167493505
0.002167544014
0.002167644677
0.002167770908
0.002167906861
0.002168042678
0.002168172052
0.002168288957
0.002168378386
0.002171298102
0.002170749673
0.002170254358
0.002169849371
0.002169542011
0.002169322966
0.002169176229
0.002169084919
0.002169034053
0.002169011489
0.002169007913
0.002169016336
0.002169031148
0.002169045845
0.0021720482
0.002171787502
0.002171504702
0.002171223767
0.002170961012
0.002170725247
0.002170519585
0.002170343482
0.002170194407
0.002170068993
0.002169963781
0.002169875789
0.002169803595
0.00216975175
0.00217230456
0.002172169123
0.002172001835
0.002171812213
0.002171610495
0.002171405829
0.002171205427
0.002171014392
0.002170835941
0.002170671797
0.002170522665
0.002170388949
0.002170272744
0.002170185859
0.00217232168
0.002172159344
0.002171949275
0.002171708542
0.002171454827
0.002171202791
0.002170962911
0.002170741685
0.002170542414
0.002170366082
0.002170212154
0.002170079232
0.002169965747
0.002169871443
0.002169803306
0.002171995654
0.002171596878
0.002171164286
0.002170753868
0.002170396182
0.002170101686
0.002169868706
0.002169689739
0.002169555411
0.002169456569
0.002169385205
0.002169334719
0.002169299875
0.002169276698
0.002169262974
0.002170763082
0.002169632687
0.00216870918
0.002168074743
0.002167702368
0.002167529501
0.002167493496
0.002167544006
0.002167644669
0.0021677709
0.002167906854
0.002168042672
0.002168172046
0.002168288952
0.00216837838
0.002163932608
0.002162777432
0.002162594168
0.002162935525
0.002163509667
0.002164152412
0.002164780855
0.002165358248
0.002165872125
0.002166321852
0.002166711826
0.002167047298
0.002167328985
0.002167534574
0.002152768941
0.002154244624
0.002156496569
0.002158651238
0.002160479869
0.002161970322
0.002163171815
0.002164141841
0.002164930364
0.002165576909
0.002166111462
0.002166555457
0.002166918961
0.002167180031
0.002163932677
0.00216277748
0.002162594204
0.002162935555
0.002163509692
0.002164152434
0.002164780873
0.002165358264
0.002165872139
0.002166321864
0.002166711837
0.002167047309
0.002167328994
0.002167534583
0.002169632703
0.002168709198
0.002168074763
0.002167702389
0.002167529522
0.002167493517
0.002167544026
0.002167644689
0.00216777092
0.002167906872
0.002168042689
0.002168172063
0.002168288967
0.002168378395
0.002171596879
0.002171164288
0.002170753872
0.002170396188
0.002170101695
0.002169868716
0.002169689751
0.002169555424
0.002169456583
0.002169385219
0.002169334734
0.00216929989
0.002169276714
0.002169262989
0.002172159343
0.002171949274
0.002171708542
0.002171454828
0.002171202793
0.002170962915
0.002170741692
0.002170542422
0.002170366092
0.002170212164
0.002170079244
0.00216996576
0.002169871457
0.002169803321
0.002172261443
0.002172055843
0.002171804896
0.002171531621
0.002171255312
0.002170989862
0.002170744087
0.002170522734
0.002170327573
0.002170158365
0.002170013619
0.002169891198
0.002169788891
0.002169705648
0.002169646525
0.0021717212
0.002171171892
0.002170652123
0.002170212792
0.002169865109
0.002169601828
0.002169409226
0.002169272809
0.00216917962
0.002169118937
0.002169082244
0.002169062934
0.002169055877
0.002169056816
0.002169061146
0.002169088609
0.002167455716
0.002166540166
0.00216615073
0.002166086344
0.002166203862
0.002166413402
0.002166661834
0.00216691902
0.002167168591
0.002167402216
0.002167616071
0.002167808292
0.002167975358
0.002168100183
0.002154735356
0.002152768983
0.002154244654
0.00215649659
0.002158651253
0.002160479879
0.00216197033
0.002163171821
0.002164141846
0.002164930368
0.002165576912
0.002166111465
0.00216655546
0.002166918963
0.002167180033
0.002104772002
0.002129235422
0.002142773943
0.002150696025
0.00215560119
0.002158809266
0.002161016056
0.00216260315
0.002163788472
0.002164701629
0.002165422607
0.002166001365
0.002166463678
0.002166790636
0.002152768938
0.002154244693
0.002156496634
0.002158651291
0.002160479912
0.002161970357
0.002163171844
0.002164141866
0.002164930386
0.002165576928
0.002166111479
0.002166555473
0.002166918975
0.002167180044
0.002167455716
0.002166540178
0.002166150749
0.002166086365
0.002166203884
0.002166413424
0.002166661855
0.00216691904
0.00216716861
0.002167402234
0.002167616088
0.002167808309
0.002167975374
0.002168100198
0.00217117189
0.002170652124
0.002170212797
0.002169865118
0.002169601839
0.002169409239
0.002169272824
0.002169179636
0.002169118953
0.00216908226
0.00216906295
0.002169055894
0.002169056833
0.002169061163
0.002172055842
0.002171804896
0.002171531622
0.002171255315
0.002170989867
0.002170744095
0.002170522743
0.002170327584
0.002170158377
0.002170013633
0.002169891213
0.002169788907
0.002169705664
0.002169646542
0.002172321681
0.002172159346
0.002171949278
0.002171708546
0.002171454831
0.002171202795
0.002170962916
0.002170741691
0.00217054242
0.002170366089
0.00217021216
0.002170079239
0.002169965754
0.00216987145
0.002169803314
0.002171995658
0.002171596885
0.002171164295
0.002170753877
0.002170396192
0.002170101697
0.002169868716
0.002169689749
0.002169555421
0.002169456579
0.002169385215
0.002169334729
0.002169299884
0.002169276707
0.002169262983
0.002170763109
0.002169632717
0.002168709212
0.002168074773
0.002167702396
0.002167529526
0.002167493518
0.002167544026
0.002167644688
0.002167770918
0.00216790687
0.002168042687
0.00216817206
0.002168288965
0.002168378392
0.002166542154
0.002163932714
0.002162777518
0.002162594236
0.00216293558
0.002163509712
0.002164152449
0.002164780887
0.002165358275
0.002165872148
0.002166321872
0.002166711844
0.002167047315
0.002167329
0.002167534588
0.002154735368
0.002152769005
0.002154244736
0.00215649666
0.002158651306
0.002160479921
0.002161970363
0.002163171848
0.002164141869
0.002164930388
0.00216557693
0.002166111481
0.002166555475
0.002166918976
0.002167180045
0.00216654214
0.002163932725
0.002162777536
0.002162594256
0.002162935599
0.00216350973
0.002164152466
0.002164780902
0.002165358289
0.002165872161
0.002166321884
0.002166711855
0.002167047325
0.00216732901
0.002167534598
0.002169632683
0.002168709199
0.002168074772
0.002167702402
0.002167529537
0.002167493532
0.002167544041
0.002167644704
0.002167770934
0.002167906886
0.002168042702
0.002168172075
0.002168288979
0.002168378407
0.002171596875
0.002171164288
0.002170753875
0.002170396194
0.002170101702
0.002169868724
0.002169689759
0.002169555433
0.002169456592
0.002169385229
0.002169334743
0.002169299899
0.002169276723
0.002169262998
0.002172159343
0.002171949275
0.002171708544
0.002171454831
0.002171202798
0.00217096292
0.002170741698
0.002170542429
0.002170366099
0.002170212172
0.002170079252
0.002169965768
0.002169871465
0.00216980333
0.002172402112
0.002172304562
0.002172169126
0.002172001838
0.002171812216
0.002171610498
0.002171405832
0.00217120543
0.002171014394
0.002170835943
0.002170671799
0.002170522666
0.00217038895
0.002170272744
0.002170185858
0.002172259119
0.002172048203
0.002171787506
0.002171504707
0.002171223772
0.002170961017
0.002170725251
0.002170519589
0.002170343486
0.002170194411
0.002170068996
0.002169963784
0.002169875792
0.002169803597
0.002169751752
0.002171822166
0.002171298106
0.00217074968
0.002170254366
0.002169849379
0.00216954202
0.002169322975
0.002169176238
0.002169084928
0.002169034061
0.002169011498
0.002169007921
0.002169016344
0.002169031156
0.002169045853
0.002170763109
0.002169632721
0.00216870922
0.002168074784
0.002167702409
0.00216752954
0.002167493532
0.00216754404
0.002167644701
0.00216777093
0.002167906882
0.002168042698
0.002168172071
0.002168288975
0.002168378402
0.002169088627
0.002167455757
0.002166540217
0.00216615078
0.002166086391
0.002166203905
0.00216641344
0.002166661867
0.00216691905
0.002167168619
0.002167402241
0.002167616094
0.002167808314
0.002167975379
0.002168100203
0.002170763112
0.002169632726
0.002168709227
0.002168074792
0.002167702418
0.002167529549
0.002167493541
0.002167544049
0.00216764471
0.002167770938
0.00216790689
0.002168042706
0.002168172078
0.002168288982
0.002168378409
0.002171822159
0.002171298101
0.002170749678
0.002170254369
0.002169849385
0.002169542028
0.002169322984
0.002169176249
0.002169084939
0.002169034073
0.002169011509
0.002169007933
0.002169016355
0.002169031167
0.002169045864
0.002172048196
0.002171787501
0.002171504705
0.002171223772
0.002170961019
0.002170725256
0.002170519596
0.002170343494
0.00217019442
0.002170069006
0.002169963795
0.002169875804
0.002169803609
0.002169751765
0.002172304559
0.002172169123
0.002172001836
0.002171812215
0.002171610498
0.002171405834
0.002171205433
0.002171014399
0.00217083595
0.002170671807
0.002170522675
0.002170388961
0.002170272756
0.002170185871
0.002172455748
0.002172403824
0.002172327045
0.002172224968
0.002172100029
0.002171956592
0.002171799911
0.002171635292
0.002171467546
0.002171300712
0.002171137996
0.002170981914
0.002170834892
0.002170701599
0.002170598855
0.002172400743
0.002172302581
0.002172168085
0.002172004365
0.002171821332
0.002171628884
0.002171435318
0.002171246782
0.002171067357
0.00217089943
0.002170744157
0.002170601938
0.002170473112
0.002170359923
0.002170274522
0.002172259119
0.002172048204
0.002171787507
0.002171504709
0.002171223775
0.00217096102
0.002170725256
0.002170519594
0.002170343491
0.002170194416
0.002170069002
0.002169963789
0.002169875798
0.002169803603
0.002169751758
0.002171995659
0.002171596888
0.0021711643
0.002170753885
0.002170396201
0.002170101708
0.002169868728
0.002169689762
0.002169555434
0.002169456593
0.002169385229
0.002169334743
0.002169299898
0.002169276721
0.002169262997
0.002171721204
0.002171171902
0.002170652139
0.002170212812
0.002169865132
0.002169601852
0.002169409251
0.002169272834
0.002169179646
0.002169118961
0.002169082268
0.002169062958
0.002169055901
0.00216905684
0.002169061169
0.00217199566
0.002171596889
0.002171164302
0.002170753887
0.002170396205
0.002170101712
0.002169868733
0.002169689767
0.002169555439
0.002169456598
0.002169385234
0.002169334748
0.002169299903
0.002169276727
0.002169263002
0.002172259119
0.002172048203
0.002171787507
0.00217150471
0.002171223776
0.002170961023
0.00217072526
0.002170519599
0.002170343497
0.002170194422
0.002170069008
0.002169963797
0.002169875805
0.002169803611
0.002169751767
0.002172400741
0.002172302579
0.002172168082
0.002172004363
0.002171821331
0.002171628883
0.002171435319
0.002171246784
0.00217106736
0.002170899434
0.002170744162
0.002170601943
0.002170473119
0.002170359931
0.002170274531
0.002172403821
0.002172327043
0.002172224966
0.002172100027
0.002171956591
0.002171799911
0.002171635293
0.002171467548
0.002171300715
0.002171138
0.002170981919
0.002170834899
0.002170701607
0.002170598864
0.002172479734
0.002172448814
0.002172400816
0.002172333147
0.002172245019
0.002172137428
0.002172012802
0.002171874504
0.002171726335
0.002171572128
0.00217141548
0.002171259703
0.002171108305
0.002170967479
0.002170856983
0.002172455748
0.002172403824
0.002172327046
0.002172224969
0.00217210003
0.002171956593
0.002171799912
0.002171635293
0.002171467547
0.002171300714
0.002171137998
0.002170981916
0.002170834895
0.002170701602
0.002170598858
0.002172402112
0.002172304563
0.002172169126
0.002172001839
0.002171812218
0.002171610501
0.002171405836
0.002171205434
0.002171014399
0.002170835949
0.002170671805
0.002170522673
0.002170388957
0.002170272752
0.002170185867
0.002172321681
0.002172159347
0.00217194928
0.002171708549
0.002171454836
0.002171202802
0.002170962924
0.002170741701
0.002170542431
0.002170366101
0.002170212173
0.002170079252
0.002169965768
0.002169871465
0.002169803329
0.002172261444
0.002172055846
0.002171804901
0.002171531629
0.002171255322
0.002170989875
0.002170744102
0.00217052275
0.002170327591
0.002170158384
0.00217001364
0.002169891219
0.002169788913
0.00216970567
0.002169646547
0.002172321681
0.002172159346
0.002171949279
0.002171708549
0.002171454835
0.002171202802
0.002170962924
0.002170741701
0.002170542432
0.002170366102
0.002170212175
0.002170079254
0.002169965771
0.002169871468
0.002169803332
0.002172402111
0.002172304562
0.002172169126
0.002172001839
0.002171812218
0.0021716105
0.002171405836
0.002171205435
0.002171014401
0.002170835951
0.002170671808
0.002170522676
0.002170388962
0.002170272756
0.002170185872
0.002172455748
0.002172403823
0.002172327045
0.002172224968
0.002172100029
0.002171956593
0.002171799913
0.002171635295
0.00217146755
0.002171300717
0.002171138002
0.002170981921
0.0021708349
0.002170701608
0.002170598865
0.002172479733
0.002172448813
0.002172400815
0.002172333146
0.002172245018
0.002172137427
0.002172012802
0.002171874505
0.002171726336
0.00217157213
0.002171415483
0.002171259707
0.002171108311
0.002170967485
0.002170856991
)
;

boundaryField
{
    top
    {
        type            zeroGradient;
    }
    bottom
    {
        type            zeroGradient;
    }
    side-walls
    {
        type            zeroGradient;
    }
    inlet
    {
        type            zeroGradient;
    }
    outlet
    {
        type            zeroGradient;
    }
    procBoundary1to0
    {
        type            processor;
        value           nonuniform List<scalar> 
97
(
0.002172479733
0.002172479733
0.002172455748
0.002172402112
0.002172321681
0.002172261445
0.002172321682
0.002172402113
0.002172455749
0.002172479734
0.002172486497
0.00217240074
0.00217240074
0.00217240074
0.002172259118
0.00217199566
0.002171721206
0.002171995662
0.002172259121
0.002172400743
0.002172455748
0.002172462166
0.002172399328
0.002171822157
0.002171822157
0.002171822157
0.002170763106
0.002169088639
0.002170763126
0.002171822174
0.002172259121
0.002172402113
0.00217242657
0.002172288707
0.002171807326
0.002166542077
0.002166542077
0.002166542077
0.002154735486
0.002166542193
0.002170763124
0.002171995662
0.002172321682
0.002172401199
0.002172184538
0.002171273841
0.002167676579
0.002058063927
0.002058063927
0.002058063927
0.00215473545
0.00215473545
0.002169088638
0.002171721207
0.002172261446
0.00217242657
0.002172288708
0.002171807329
0.002170410689
0.002167676575
0.002170410692
0.00217076309
0.00217076309
0.00217076309
0.002171995657
0.002172321681
0.002172462166
0.002172399328
0.002172215478
0.002171807328
0.002171273847
0.00217180733
0.002172215478
0.002172259116
0.002172259116
0.002172259116
0.002172402111
0.002172486497
0.00217246168
0.002172399329
0.002172288708
0.002172184539
0.002172288708
0.002172399328
0.00217246168
0.002172455747
0.002172455747
0.002172455747
0.002172497526
0.002172486497
0.002172462166
0.00217242657
0.002172401199
0.00217242657
0.002172462165
0.002172486497
0.002172497525
)
;
    }
}


// ************************************************************************* //
