/*--------------------------------*- C++ -*----------------------------------*\
| =========                 |                                                 |
| \\      /  F ield         | OpenFOAM: The Open Source CFD Toolbox           |
|  \\    /   O peration     | Version:  4.x                                   |
|   \\  /    A nd           | Web:      www.OpenFOAM.org                      |
|    \\/     M anipulation  |                                                 |
\*---------------------------------------------------------------------------*/
FoamFile
{
    version     2.0;
    format      ascii;
    class       volScalarField;
    location    "6000";
    object      H2O;
}
// * * * * * * * * * * * * * * * * * * * * * * * * * * * * * * * * * * * * * //

dimensions      [0 0 0 0 0 0 0];

internalField   nonuniform List<scalar> 
1174
(
1.54453069e-06
1.949573898e-06
2.520621039e-06
3.264319392e-06
4.172271167e-06
5.223997096e-06
6.391129427e-06
7.641596275e-06
8.943055046e-06
1.02651484e-05
1.157993845e-05
1.28578064e-05
1.404648672e-05
1.49791717e-05
1.924196474e-06
2.57209338e-06
3.433476147e-06
4.48779615e-06
5.698234181e-06
7.020464419e-06
8.409720897e-06
9.825409217e-06
1.123344559e-05
1.260678492e-05
1.392418043e-05
1.516515543e-05
1.629029105e-05
1.715757904e-05
2.761797429e-06
3.904638082e-06
5.316256304e-06
6.916366166e-06
8.618592927e-06
1.034574246e-05
1.203697657e-05
1.364922393e-05
1.515533395e-05
1.654076495e-05
1.779956786e-05
1.892830753e-05
1.990929695e-05
2.064278924e-05
3.987110169e-06
5.759654504e-06
7.790968719e-06
9.931887928e-06
1.205870084e-05
1.408301001e-05
1.594997295e-05
1.763175165e-05
1.912001818e-05
2.041929086e-05
2.154133931e-05
2.24994035e-05
2.329560764e-05
2.387091233e-05
4.860368768e-06
6.97780399e-06
9.283696855e-06
1.161525884e-05
1.385526733e-05
1.592933056e-05
1.779739747e-05
1.944451059e-05
2.087268997e-05
2.209448666e-05
2.312795399e-05
2.39917054e-05
2.469459106e-05
2.519384465e-05
3.987076749e-06
5.759606052e-06
7.790902576e-06
9.931802684e-06
1.205859325e-05
1.408287919e-05
1.594982043e-05
1.763157697e-05
1.911982135e-05
2.041907259e-05
2.154110603e-05
2.249915282e-05
2.329533949e-05
2.387062789e-05
2.761762658e-06
3.904592132e-06
5.316194833e-06
6.916284415e-06
8.618483523e-06
1.03455981e-05
1.203679306e-05
1.364899948e-05
1.5155067e-05
1.654045815e-05
1.779922262e-05
1.892792404e-05
1.990887797e-05
2.064233997e-05
1.924165291e-06
2.572056748e-06
3.433430604e-06
4.487734341e-06
5.698147532e-06
7.020343827e-06
8.409561244e-06
9.825203765e-06
1.123318886e-05
1.260647405e-05
1.392381596e-05
1.516473627e-05
1.628981937e-05
1.715705584e-05
1.544508647e-06
1.949552277e-06
2.520595081e-06
3.264282287e-06
4.172214078e-06
5.223911308e-06
6.391006293e-06
7.641426783e-06
8.942831202e-06
1.026486493e-05
1.157959141e-05
1.28573931e-05
1.404600328e-05
1.49786175e-05
1.485998804e-06
1.924170715e-06
2.572067699e-06
3.433449458e-06
4.487769089e-06
5.698205247e-06
7.020433524e-06
8.409690315e-06
9.825378494e-06
1.12334144e-05
1.26067534e-05
1.392415113e-05
1.516512818e-05
1.6290263e-05
1.715755145e-05
2.778545495e-06
3.913433516e-06
5.294936494e-06
6.839446991e-06
8.463455658e-06
1.009694725e-05
1.168805289e-05
1.320233913e-05
1.461964469e-05
1.593022344e-05
1.713069154e-05
1.82181703e-05
1.917369396e-05
1.989464609e-05
4.924989943e-06
7.124683357e-06
9.510922221e-06
1.188151177e-05
1.409878475e-05
1.608839912e-05
1.782408418e-05
1.931040333e-05
2.056871882e-05
2.16274215e-05
2.251568354e-05
2.325865957e-05
2.386832307e-05
2.430614753e-05
8.732915884e-06
1.238290678e-05
1.584592585e-05
1.886413518e-05
2.134928373e-05
2.331548373e-05
2.482600412e-05
2.595992727e-05
2.67944589e-05
2.739717066e-05
2.782371814e-05
2.811829495e-05
2.831438842e-05
2.843058395e-05
1.231839336e-05
1.670391458e-05
2.041092367e-05
2.334480144e-05
2.556665428e-05
2.719222143e-05
2.834378354e-05
2.913063907e-05
2.964324821e-05
2.995344244e-05
3.01169702e-05
3.017709991e-05
3.016972448e-05
3.013358814e-05
8.732827368e-06
1.238279932e-05
1.584579303e-05
1.88639732e-05
2.134909355e-05
2.331526337e-05
2.482575482e-05
2.595965449e-05
2.679416979e-05
2.739685793e-05
2.782339092e-05
2.811795486e-05
2.831403795e-05
2.843022187e-05
4.924887125e-06
7.124575909e-06
9.510796731e-06
1.188134961e-05
1.40985764e-05
1.608814102e-05
1.78237736e-05
1.931004085e-05
2.056830936e-05
2.162696821e-05
2.251519282e-05
2.325813537e-05
2.386776926e-05
2.430556883e-05
2.77847954e-06
3.913373378e-06
5.294864165e-06
6.839346539e-06
8.463313071e-06
1.009675205e-05
1.168779784e-05
1.320202218e-05
1.461926486e-05
1.592978082e-05
1.713018922e-05
1.821760738e-05
1.917308213e-05
1.989398609e-05
1.924168258e-06
2.57205767e-06
3.433426116e-06
4.487721098e-06
5.698121527e-06
7.020302076e-06
8.409500966e-06
9.825123083e-06
1.123308732e-05
1.260635098e-05
1.392367047e-05
1.516456973e-05
1.628963302e-05
1.715684357e-05
1.938589878e-06
2.761732907e-06
3.904566356e-06
5.316178158e-06
6.91628472e-06
8.618507856e-06
1.034565326e-05
1.203688555e-05
1.364913301e-05
1.515524189e-05
1.654067297e-05
1.779948218e-05
1.892822268e-05
1.990921551e-05
2.064270955e-05
3.14525561e-06
4.924896608e-06
7.124596675e-06
9.510839022e-06
1.18814296e-05
1.409870222e-05
1.608831843e-05
1.782400679e-05
1.931032698e-05
2.056864564e-05
2.162735327e-05
2.251561933e-05
2.325859787e-05
2.386826138e-05
2.430609348e-05
1.12540965e-05
1.588128212e-05
2.006053331e-05
2.347784097e-05
2.607156036e-05
2.792022792e-05
2.915885274e-05
2.99298605e-05
3.035964711e-05
3.0550631e-05
3.058140757e-05
3.051093448e-05
3.038649946e-05
3.026289412e-05
2.530503083e-05
3.309672808e-05
3.844986651e-05
4.159218249e-05
4.30513713e-05
4.335588611e-05
4.293047929e-05
4.208189504e-05
4.101757805e-05
3.987119085e-05
3.872592089e-05
3.763498439e-05
3.664918569e-05
3.589504866e-05
4.367054025e-05
5.139542706e-05
5.468188506e-05
5.522604006e-05
5.42354925e-05
5.246852371e-05
5.037336864e-05
4.820429006e-05
4.609939587e-05
4.412899102e-05
4.232533897e-05
4.070416209e-05
3.929516186e-05
3.824237728e-05
2.530455832e-05
3.309627232e-05
3.844939737e-05
4.15916959e-05
4.305085574e-05
4.335535618e-05
4.292993317e-05
4.208135045e-05
4.101703548e-05
3.987065769e-05
3.872539242e-05
3.763446706e-05
3.664867389e-05
3.589454103e-05
1.125374945e-05
1.588098238e-05
2.006019975e-05
2.347743251e-05
2.607107102e-05
2.791965975e-05
2.91582191e-05
2.992917435e-05
3.03589215e-05
3.054987653e-05
3.058063275e-05
3.051014531e-05
3.038570292e-05
3.026207519e-05
4.924886432e-06
7.124551475e-06
9.510740068e-06
1.188125398e-05
1.409843916e-05
1.608796104e-05
1.782355484e-05
1.930979055e-05
2.056802935e-05
2.162666432e-05
2.251487066e-05
2.32577938e-05
2.386741382e-05
2.43052012e-05
2.761769913e-06
3.904586148e-06
5.316163847e-06
6.916215288e-06
8.618367779e-06
1.034542909e-05
1.20365681e-05
1.36487187e-05
1.515473199e-05
1.65400685e-05
1.779878399e-05
1.89274401e-05
1.990835407e-05
2.064176534e-05
2.61725046e-06
3.986992846e-06
5.759517643e-06
7.790814419e-06
9.931720709e-06
1.205852603e-05
1.408282959e-05
1.594979083e-05
1.763157333e-05
1.911984395e-05
2.041912273e-05
2.154117589e-05
2.249924565e-05
2.329545617e-05
2.387076697e-05
5.368133779e-06
8.732719356e-06
1.238270811e-05
1.584572998e-05
1.886394382e-05
2.134909939e-05
2.33153102e-05
2.482583543e-05
2.59597701e-05
2.679431015e-05
2.739702485e-05
2.782358399e-05
2.811816876e-05
2.831426504e-05
2.843046608e-05
1.576783856e-05
2.530466265e-05
3.309644078e-05
3.844962695e-05
4.159198485e-05
4.30511995e-05
4.335574189e-05
4.293034529e-05
4.208178117e-05
4.101747217e-05
3.987109672e-05
3.872582906e-05
3.763490515e-05
3.664910984e-05
3.589498107e-05
7.339480776e-05
8.314067142e-05
8.468771272e-05
8.180890867e-05
7.696614891e-05
7.154452851e-05
6.624343256e-05
6.137292855e-05
5.703821129e-05
5.324461971e-05
4.99550864e-05
4.712532436e-05
4.474926193e-05
4.301505371e-05
0.0001675718611
0.000155124699
0.0001361286097
0.0001179526719
0.0001025269029
8.995384242e-05
7.981836797e-05
7.163549396e-05
6.498373561e-05
5.952969946e-05
5.502042411e-05
5.127508216e-05
4.820875846e-05
4.600646284e-05
7.339316376e-05
8.313948764e-05
8.468660303e-05
8.180781727e-05
7.696509543e-05
7.154349631e-05
6.624245875e-05
6.137200564e-05
5.703733722e-05
5.324380541e-05
4.995432648e-05
4.712459788e-05
4.474857438e-05
4.301438625e-05
2.530460936e-05
3.309613039e-05
3.844907287e-05
4.159122229e-05
4.305027813e-05
4.335471008e-05
4.292925466e-05
4.208065874e-05
4.101634319e-05
3.986997242e-05
3.872472933e-05
3.76338151e-05
3.664804026e-05
3.589391887e-05
8.73284953e-06
1.238272381e-05
1.584558916e-05
1.886363506e-05
2.134862649e-05
2.331468941e-05
2.482509158e-05
2.595892102e-05
2.679338234e-05
2.739603098e-05
2.782253775e-05
2.811708133e-05
2.831314511e-05
2.84293106e-05
3.987097883e-06
5.759587271e-06
7.790813457e-06
9.931620484e-06
1.205830441e-05
1.408247834e-05
1.594930944e-05
1.763096093e-05
1.91191134e-05
2.041828045e-05
2.154023666e-05
2.249821942e-05
2.329434834e-05
2.386957406e-05
3.125483672e-06
4.860232836e-06
6.977638098e-06
9.283506328e-06
1.161505046e-05
1.385504628e-05
1.592910249e-05
1.779716663e-05
1.944428064e-05
2.087246154e-05
2.209426443e-05
2.312773856e-05
2.399149681e-05
2.469439287e-05
2.519364968e-05
7.683598036e-06
1.231812504e-05
1.670361889e-05
2.041061616e-05
2.334449652e-05
2.556635981e-05
2.719193926e-05
2.834351363e-05
2.913038572e-05
2.964301005e-05
2.995321631e-05
3.011675874e-05
3.01768952e-05
3.016953036e-05
3.013340553e-05
2.989380038e-05
4.366994009e-05
5.139484059e-05
5.468135957e-05
5.522557848e-05
5.42350929e-05
5.246817958e-05
5.037307071e-05
4.820402332e-05
4.609916024e-05
4.412877516e-05
4.232514471e-05
4.070399e-05
3.929499898e-05
3.824222669e-05
0.0001509807098
0.0001675699721
0.0001551235468
0.0001361278284
0.000117952126
0.0001025265284
8.995354564e-05
7.981812615e-05
7.163528948e-05
6.498356603e-05
5.952956797e-05
5.502030268e-05
5.127497403e-05
4.820866179e-05
4.600637048e-05
0.000572472014
0.0003661019643
0.0002518930064
0.0001850634673
0.0001436841945
0.0001166212929
9.800510072e-05
8.4616579e-05
7.461737033e-05
6.691414219e-05
6.083212881e-05
5.594987911e-05
5.204994323e-05
4.929177157e-05
0.0001675719592
0.000155122978
0.0001361264086
0.0001179504939
0.0001025249128
8.995206982e-05
7.981677643e-05
7.163407213e-05
6.498246051e-05
5.952854304e-05
5.501936595e-05
5.127410786e-05
4.820785194e-05
4.600559867e-05
4.367063783e-05
5.139473694e-05
5.468066151e-05
5.522451497e-05
5.423381259e-05
5.246679598e-05
5.037165441e-05
4.820260981e-05
4.609778053e-05
4.412743447e-05
4.232384386e-05
4.070272834e-05
3.929377772e-05
3.824101738e-05
1.231842527e-05
1.670369134e-05
2.041042374e-05
2.334405255e-05
2.556570323e-05
2.719110748e-05
2.834255075e-05
2.912931832e-05
2.964187e-05
2.99520215e-05
3.011552109e-05
3.017563097e-05
3.01682441e-05
3.01320964e-05
4.860380852e-06
6.97772653e-06
9.283485339e-06
1.16148897e-05
1.385472845e-05
1.592862405e-05
1.779653464e-05
1.944350683e-05
2.087155933e-05
2.209324913e-05
2.312662393e-05
2.399029574e-05
2.469311386e-05
2.519228984e-05
2.617241639e-06
3.986962153e-06
5.759460017e-06
7.790728381e-06
9.931604797e-06
1.205837739e-05
1.408265125e-05
1.594958245e-05
1.763133113e-05
1.911957585e-05
2.041883097e-05
2.154086242e-05
2.249891315e-05
2.329510683e-05
2.387040169e-05
5.368053968e-06
8.732575033e-06
1.238250511e-05
1.584547759e-05
1.886364905e-05
2.13487648e-05
2.331494383e-05
2.482544502e-05
2.595935483e-05
2.679388172e-05
2.73965829e-05
2.782312924e-05
2.811770442e-05
2.831379581e-05
2.842999069e-05
1.576706938e-05
2.53039269e-05
3.309563744e-05
3.844879515e-05
4.159114051e-05
4.305035376e-05
4.335490334e-05
4.292952631e-05
4.20809877e-05
4.101670709e-05
3.987035378e-05
3.872511869e-05
3.763421134e-05
3.664844181e-05
3.589432038e-05
5.137704505e-05
7.339151107e-05
8.313814167e-05
8.468554126e-05
8.180696919e-05
7.69644162e-05
7.154294453e-05
6.624200117e-05
6.137163132e-05
5.703701889e-05
5.324352989e-05
4.995408555e-05
4.712438437e-05
4.474838241e-05
4.301421277e-05
0.0001509803833
0.0001675694225
0.0001551213964
0.0001361253879
0.0001179498062
0.0001025244301
8.995171299e-05
7.981651782e-05
7.163386178e-05
6.498228632e-05
5.9528395e-05
5.501923682e-05
5.127399892e-05
4.820775266e-05
4.600550682e-05
5.137757115e-05
7.339145584e-05
8.313750537e-05
8.468454968e-05
8.180582442e-05
7.69632077e-05
7.154176823e-05
6.624087917e-05
6.137056324e-05
5.703602577e-05
5.324259831e-05
4.995321038e-05
4.712356907e-05
4.474760479e-05
4.301346451e-05
2.530504477e-05
3.309592351e-05
3.844848315e-05
4.159041971e-05
4.304936729e-05
4.335375965e-05
4.292829761e-05
4.207972044e-05
4.101543247e-05
3.986909062e-05
3.872387633e-05
3.763300369e-05
3.664725407e-05
3.589314347e-05
8.732989543e-06
1.238271303e-05
1.584543022e-05
1.886334864e-05
2.134824116e-05
2.331423386e-05
2.48245843e-05
2.595837761e-05
2.679281438e-05
2.739544592e-05
2.782194722e-05
2.811648386e-05
2.831254727e-05
2.842871246e-05
3.987133854e-06
5.75958532e-06
7.79075492e-06
9.931496854e-06
1.205811741e-05
1.408222952e-05
1.594900578e-05
1.763061061e-05
1.911871951e-05
2.041785281e-05
2.153978197e-05
2.249774161e-05
2.329385203e-05
2.386906439e-05
1.938571544e-06
2.761686866e-06
3.90448948e-06
5.316065135e-06
6.916129716e-06
8.618306349e-06
1.034540349e-05
1.203658285e-05
1.364877792e-05
1.515483674e-05
1.65402194e-05
1.779898059e-05
1.892768109e-05
1.990863645e-05
2.064209712e-05
3.145131794e-06
4.92473424e-06
7.124382615e-06
9.510571247e-06
1.18811018e-05
1.409831301e-05
1.608786712e-05
1.782349399e-05
1.930976046e-05
2.056803004e-05
2.162669415e-05
2.251492385e-05
2.325787226e-05
2.38675134e-05
2.430531655e-05
6.831905776e-06
1.125341751e-05
1.588060684e-05
2.005980342e-05
2.347703444e-05
2.607067359e-05
2.7919276e-05
2.915785462e-05
2.992882816e-05
3.035859186e-05
3.054956591e-05
3.058034081e-05
3.050986726e-05
3.038543725e-05
3.026182445e-05
1.576708818e-05
2.530379974e-05
3.309532596e-05
3.844831872e-05
4.159053773e-05
4.30496742e-05
4.335417979e-05
4.29287825e-05
4.208023984e-05
4.101597147e-05
3.986964164e-05
3.872442576e-05
3.763354174e-05
3.66477898e-05
3.589367639e-05
2.989366287e-05
4.366921758e-05
5.139351621e-05
5.46796641e-05
5.522371185e-05
5.423316337e-05
5.246627531e-05
5.037121693e-05
4.820224552e-05
4.609746892e-05
4.41271692e-05
4.232361353e-05
4.070252224e-05
3.929358958e-05
3.824084554e-05
1.576703655e-05
2.530363308e-05
3.309499353e-05
3.844783515e-05
4.158994272e-05
4.30489983e-05
4.335346733e-05
4.292805573e-05
4.207952594e-05
4.10152642e-05
3.986895451e-05
3.872375665e-05
3.763289406e-05
3.664715793e-05
3.589305548e-05
6.832152924e-06
1.125359883e-05
1.588059721e-05
2.005956835e-05
2.347658851e-05
2.607006221e-05
2.79185334e-05
2.915701526e-05
2.992792435e-05
3.035764692e-05
3.054859643e-05
3.057935412e-05
3.050887669e-05
3.038444736e-05
3.026082507e-05
4.924990741e-06
7.124512595e-06
9.510553134e-06
1.188092373e-05
1.409797861e-05
1.608738648e-05
1.782288342e-05
1.930903831e-05
2.056721267e-05
2.162579523e-05
2.251395843e-05
2.325685182e-05
2.386644297e-05
2.430420385e-05
2.761818132e-06
3.904591918e-06
5.316104051e-06
6.916075942e-06
8.618139558e-06
1.034511013e-05
1.203616012e-05
1.364822737e-05
1.515416198e-05
1.653943102e-05
1.779808567e-05
1.892668661e-05
1.990755374e-05
2.064092577e-05
1.485968347e-06
1.924120781e-06
2.571992974e-06
3.4333452e-06
4.487626843e-06
5.698017908e-06
7.020193935e-06
8.409391779e-06
9.825017056e-06
1.123298779e-05
1.260626149e-05
1.392359423e-05
1.516450594e-05
1.62895871e-05
1.715682189e-05
1.950124772e-06
2.778398122e-06
3.913261651e-06
5.294724251e-06
6.839179749e-06
8.463122624e-06
1.00965426e-05
1.168757253e-05
1.320178534e-05
1.461901766e-05
1.592952794e-05
1.712993504e-05
1.821735523e-05
1.917282864e-05
1.989373239e-05
3.145131378e-06
4.924717984e-06
7.124338339e-06
9.510490559e-06
1.188097901e-05
1.409814762e-05
1.608766011e-05
1.782324972e-05
1.930948619e-05
2.056772863e-05
2.162637029e-05
2.25145816e-05
2.325751284e-05
2.386714104e-05
2.430493517e-05
5.368057135e-06
8.732508043e-06
1.238232389e-05
1.58451627e-05
1.886320066e-05
2.134819866e-05
2.33142771e-05
2.482470123e-05
2.595855115e-05
2.679303417e-05
2.73957048e-05
2.782223063e-05
2.811679137e-05
2.831287413e-05
2.842905183e-05
7.683575838e-06
1.23179067e-05
1.670314133e-05
2.040988299e-05
2.33435418e-05
2.556523232e-05
2.719067578e-05
2.834215823e-05
2.91289622e-05
2.964154295e-05
2.99517233e-05
3.011524954e-05
3.017538207e-05
3.016801354e-05
3.013187402e-05
5.368026206e-06
8.732439237e-06
1.2382199e-05
1.584496961e-05
1.8862942e-05
2.134788494e-05
2.331391421e-05
2.482430056e-05
2.595812472e-05
2.679258657e-05
2.739524143e-05
2.782176095e-05
2.811631735e-05
2.831239177e-05
2.842856613e-05
3.145151192e-06
4.924727691e-06
7.124296741e-06
9.510367407e-06
1.188076189e-05
1.409783362e-05
1.608725563e-05
1.782276398e-05
1.930893082e-05
2.056711737e-05
2.162570711e-05
2.251387918e-05
2.325677582e-05
2.386637466e-05
2.430414438e-05
1.950182109e-06
2.778462514e-06
3.913301114e-06
5.294709643e-06
6.83909126e-06
8.462947282e-06
1.009627352e-05
1.168720915e-05
1.320132727e-05
1.461847316e-05
1.592890316e-05
1.712923478e-05
1.821658201e-05
1.917199197e-05
1.989284257e-05
1.924199185e-06
2.572052748e-06
3.433370944e-06
4.48760061e-06
5.697922595e-06
7.020015793e-06
8.409118535e-06
9.824644448e-06
1.123251205e-05
1.260568263e-05
1.392291345e-05
1.516372853e-05
1.628871236e-05
1.715585845e-05
1.283556994e-06
1.544479252e-06
1.949508109e-06
2.52053339e-06
3.264201166e-06
4.172112188e-06
5.223788414e-06
6.390862845e-06
7.641263598e-06
8.942650067e-06
1.026466834e-05
1.157938375e-05
1.285717323e-05
1.404577634e-05
1.497838653e-05
1.485969253e-06
1.924120092e-06
2.57198807e-06
3.433332768e-06
4.487603557e-06
5.697980751e-06
7.020139673e-06
8.409317654e-06
9.824921762e-06
1.12328713e-05
1.260612296e-05
1.392343414e-05
1.516432733e-05
1.628938432e-05
1.715659544e-05
1.938573992e-06
2.761680782e-06
3.90446376e-06
5.3160085e-06
6.916030877e-06
8.61815679e-06
1.034519801e-05
1.203632157e-05
1.364845919e-05
1.515446547e-05
1.653980038e-05
1.779851495e-05
1.892717282e-05
1.990808898e-05
2.064150379e-05
2.61724716e-06
3.986939003e-06
5.759380662e-06
7.79056692e-06
9.931342501e-06
1.205800555e-05
1.408216755e-05
1.594899435e-05
1.763064527e-05
1.911879981e-05
2.041797582e-05
2.153994268e-05
2.249793418e-05
2.329407169e-05
2.386930764e-05
3.125481793e-06
4.860166558e-06
6.977462578e-06
9.283188521e-06
1.161457305e-05
1.385440431e-05
1.592830171e-05
1.779622053e-05
1.944320126e-05
2.087126631e-05
2.209297137e-05
2.31263614e-05
2.39900463e-05
2.469287749e-05
2.519206377e-05
2.61723911e-06
3.986918109e-06
5.759337584e-06
7.790494058e-06
9.93123364e-06
1.20578588e-05
1.408197989e-05
1.594876788e-05
1.763038383e-05
1.911850699e-05
2.04176528e-05
2.153959732e-05
2.249756563e-05
2.329368834e-05
2.386890708e-05
1.938573681e-06
2.761674306e-06
3.904437454e-06
5.315947828e-06
6.915921286e-06
8.617989533e-06
1.034496647e-05
1.203602502e-05
1.364809902e-05
1.515404232e-05
1.653931913e-05
1.779798182e-05
1.89265888e-05
1.990746258e-05
2.064084034e-05
1.485977187e-06
1.92413036e-06
2.571988526e-06
3.433308347e-06
4.487538431e-06
5.697861164e-06
7.019955517e-06
8.409059646e-06
9.824587472e-06
1.123245804e-05
1.260562987e-05
1.392286307e-05
1.516368149e-05
1.628867058e-05
1.715581826e-05
1.283573295e-06
1.544502265e-06
1.949528169e-06
2.52053801e-06
3.264175984e-06
4.172042191e-06
5.223658906e-06
6.390660087e-06
7.640977964e-06
8.942274549e-06
1.026419819e-05
1.157881197e-05
1.285650565e-05
1.404501321e-05
1.497752774e-05
)
;

boundaryField
{
    top
    {
        type            zeroGradient;
    }
    bottom
    {
        type            zeroGradient;
    }
    side-walls
    {
        type            zeroGradient;
    }
    inlet
    {
        type            zeroGradient;
    }
    outlet
    {
        type            zeroGradient;
    }
    procBoundary1to0
    {
        type            processor;
        value           nonuniform List<scalar> 
97
(
1.283572307e-06
1.283572307e-06
1.485972875e-06
1.938551581e-06
2.617181678e-06
3.125373151e-06
2.617156195e-06
1.938522861e-06
1.48594423e-06
1.283543871e-06
1.226467731e-06
1.950179812e-06
1.950179812e-06
1.950179812e-06
3.145125094e-06
5.367890548e-06
7.683174097e-06
5.367803457e-06
3.145014251e-06
1.950076077e-06
1.485945878e-06
1.431790041e-06
1.962000506e-06
6.832149877e-06
6.832149877e-06
6.832149877e-06
1.576670212e-05
2.98914995e-05
1.576610714e-05
6.831540578e-06
3.145014965e-06
1.938527421e-06
1.732148541e-06
2.89538142e-06
6.956788501e-06
5.137762012e-05
5.137762012e-05
5.137762012e-05
0.0001509653295
5.13734903e-05
1.576615588e-05
5.367822138e-06
2.617170647e-06
1.946224382e-06
3.774276452e-06
1.14576586e-05
4.180433579e-05
0.0009663788095
0.0009663788095
0.0009663788095
0.0001509662527
0.0001509662527
2.989168491e-05
7.683215889e-06
3.125385638e-06
1.732153511e-06
2.895401005e-06
6.956924256e-06
1.87399602e-05
4.180501846e-05
1.873952376e-05
1.576757058e-05
1.576757058e-05
1.576757058e-05
5.368031197e-06
2.617209848e-06
1.43179464e-06
1.962024668e-06
3.513301701e-06
6.95694408e-06
1.145769613e-05
6.956846674e-06
3.513252842e-06
3.145249125e-06
3.145249125e-06
3.145249125e-06
1.93858228e-06
1.226471486e-06
1.435889466e-06
1.962025378e-06
2.895405764e-06
3.774283154e-06
2.895381668e-06
1.962012996e-06
1.435886428e-06
1.486000471e-06
1.486000471e-06
1.486000471e-06
1.133403235e-06
1.226472002e-06
1.431796394e-06
1.732157714e-06
1.946227363e-06
1.732151876e-06
1.431792219e-06
1.226470317e-06
1.133403476e-06
)
;
    }
}


// ************************************************************************* //
