/*--------------------------------*- C++ -*----------------------------------*\
| =========                 |                                                 |
| \\      /  F ield         | OpenFOAM: The Open Source CFD Toolbox           |
|  \\    /   O peration     | Version:  4.x                                   |
|   \\  /    A nd           | Web:      www.OpenFOAM.org                      |
|    \\/     M anipulation  |                                                 |
\*---------------------------------------------------------------------------*/
FoamFile
{
    version     2.0;
    format      ascii;
    class       volScalarField;
    location    "6000";
    object      N2;
}
// * * * * * * * * * * * * * * * * * * * * * * * * * * * * * * * * * * * * * //

dimensions      [0 0 0 0 0 0 0];

internalField   nonuniform List<scalar> 
1174
(
0.6030929386
0.6030922188
0.603091204
0.6030898822
0.6030882683
0.6030863987
0.6030843238
0.6030821006
0.6030797864
0.6030774353
0.6030750968
0.6030728237
0.603070709
0.6030690495
0.6030922641
0.6030911128
0.603089582
0.6030877083
0.6030855568
0.6030832065
0.6030807367
0.6030782197
0.6030757159
0.6030732735
0.6030709302
0.6030687225
0.6030667205
0.6030651771
0.6030907761
0.6030887454
0.6030862369
0.6030833933
0.6030803678
0.6030772977
0.603074291
0.6030714243
0.6030687459
0.6030662816
0.6030640421
0.6030620335
0.6030602874
0.6030589816
0.6030885994
0.6030854499
0.6030818403
0.6030780356
0.6030742555
0.603070657
0.6030673377
0.6030643471
0.6030617
0.6030593884
0.6030573916
0.603055686
0.603054268
0.603053243
0.6030870481
0.6030832859
0.6030791884
0.6030750448
0.6030710634
0.6030673764
0.603064055
0.6030611257
0.6030585852
0.6030564112
0.6030545715
0.6030530334
0.6030517811
0.6030508912
0.6030885994
0.6030854499
0.6030818404
0.6030780357
0.6030742556
0.6030706572
0.6030673379
0.6030643473
0.6030617002
0.6030593886
0.6030573918
0.6030556862
0.6030542682
0.6030532433
0.6030907761
0.6030887455
0.603086237
0.6030833933
0.6030803679
0.6030772978
0.6030742912
0.6030714245
0.6030687462
0.6030662819
0.6030640424
0.6030620338
0.6030602878
0.6030589819
0.6030922642
0.6030911129
0.6030895821
0.6030877083
0.6030855569
0.6030832066
0.6030807369
0.6030782199
0.6030757161
0.6030732737
0.6030709305
0.6030687228
0.6030667209
0.6030651775
0.6030929387
0.6030922189
0.603091204
0.6030898822
0.6030882684
0.6030863988
0.603084324
0.6030821007
0.6030797866
0.6030774355
0.6030750971
0.603072824
0.6030707094
0.60306905
0.6030930427
0.6030922642
0.6030911128
0.6030895821
0.6030877083
0.6030855569
0.6030832065
0.6030807368
0.6030782197
0.6030757159
0.6030732735
0.6030709302
0.6030687225
0.6030667205
0.6030651771
0.6030907464
0.6030887298
0.6030862749
0.60308353
0.6030806436
0.60307774
0.6030749113
0.6030722187
0.6030696982
0.603067367
0.6030652312
0.603063296
0.6030615952
0.6030603117
0.6030869334
0.6030830251
0.6030787849
0.603074572
0.6030706311
0.6030670942
0.603064008
0.6030613646
0.603059126
0.6030572419
0.6030556604
0.603054337
0.6030532505
0.6030524699
0.6030801692
0.6030736843
0.6030675308
0.6030621669
0.6030577494
0.6030542534
0.6030515666
0.6030495486
0.6030480624
0.603046988
0.6030462265
0.6030456995
0.6030453476
0.6030451383
0.6030738005
0.6030660087
0.6030594214
0.6030542069
0.6030502567
0.6030473655
0.6030453161
0.6030439145
0.603043
0.603042445
0.6030421507
0.6030420401
0.6030420496
0.6030421109
0.6030801693
0.6030736844
0.6030675309
0.603062167
0.6030577495
0.6030542535
0.6030515668
0.6030495489
0.6030480627
0.6030469883
0.6030462268
0.6030456997
0.6030453478
0.6030451385
0.6030869335
0.6030830252
0.603078785
0.6030745722
0.6030706313
0.6030670944
0.6030640083
0.6030613649
0.6030591264
0.6030572422
0.6030556608
0.6030543374
0.6030532509
0.6030524703
0.6030907465
0.6030887299
0.603086275
0.6030835302
0.6030806437
0.6030777401
0.6030749115
0.603072219
0.6030696985
0.6030673674
0.6030652316
0.6030632965
0.6030615957
0.6030603122
0.6030922642
0.6030911129
0.6030895821
0.6030877083
0.6030855569
0.6030832066
0.6030807369
0.6030782199
0.6030757162
0.6030732738
0.6030709306
0.6030687229
0.603066721
0.6030651777
0.6030922387
0.6030907761
0.6030887455
0.603086237
0.6030833933
0.6030803679
0.6030772978
0.6030742911
0.6030714244
0.603068746
0.6030662817
0.6030640422
0.6030620336
0.6030602875
0.6030589817
0.6030900953
0.6030869335
0.6030830252
0.603078785
0.6030745721
0.6030706312
0.6030670943
0.6030640081
0.6030613647
0.6030591261
0.603057242
0.6030556605
0.6030543371
0.6030532506
0.6030524699
0.603075691
0.6030674698
0.6030600437
0.6030539704
0.6030493596
0.603046072
0.603043868
0.6030424945
0.6030417272
0.6030413841
0.6030413257
0.6030414472
0.6030416647
0.6030418815
0.6030507332
0.6030368898
0.6030273769
0.6030217906
0.6030191937
0.603018648
0.6030193989
0.6030209018
0.6030227882
0.6030248206
0.6030268511
0.6030287854
0.6030305332
0.6030318701
0.6030181128
0.6030043869
0.6029985437
0.6029975713
0.602999325
0.6030024583
0.6030061749
0.6030100233
0.6030137579
0.603017254
0.6030204542
0.6030233304
0.60302583
0.6030276975
0.6030507337
0.6030368903
0.6030273774
0.6030217911
0.6030191942
0.6030186484
0.6030193994
0.6030209023
0.6030227886
0.603024821
0.6030268516
0.6030287858
0.6030305336
0.6030318705
0.6030756914
0.6030674702
0.603060044
0.6030539708
0.6030493601
0.6030460725
0.6030438685
0.6030424951
0.6030417278
0.6030413847
0.6030413263
0.6030414478
0.6030416653
0.6030418821
0.6030869336
0.6030830252
0.6030787851
0.6030745723
0.6030706314
0.6030670946
0.6030640085
0.6030613651
0.6030591266
0.6030572425
0.6030556611
0.6030543377
0.6030532512
0.6030524706
0.6030907761
0.6030887455
0.603086237
0.6030833934
0.603080368
0.603077298
0.6030742914
0.6030714248
0.6030687464
0.6030662822
0.6030640427
0.6030620342
0.6030602881
0.6030589824
0.6030910331
0.6030885995
0.60308545
0.6030818405
0.6030780357
0.6030742556
0.6030706572
0.6030673379
0.6030643473
0.6030617002
0.6030593886
0.6030573918
0.6030556861
0.6030542681
0.6030532432
0.6030861467
0.6030801694
0.6030736845
0.603067531
0.603062167
0.6030577495
0.6030542535
0.6030515667
0.6030495488
0.6030480626
0.6030469882
0.6030462266
0.6030456996
0.6030453477
0.6030451384
0.6030676752
0.6030507334
0.60303689
0.6030273772
0.6030217908
0.6030191939
0.6030186481
0.6030193991
0.6030209019
0.6030227883
0.6030248206
0.6030268512
0.6030287855
0.6030305333
0.6030318702
0.6029653186
0.6029479999
0.6029452437
0.6029503491
0.6029589438
0.6029685677
0.6029779784
0.602986625
0.6029943205
0.6030010553
0.603006895
0.6030119183
0.6030161361
0.6030192142
0.6027980515
0.6028201448
0.6028538723
0.6028861459
0.6029135369
0.6029358628
0.6029538603
0.6029683906
0.602980202
0.6029898864
0.602997893
0.6030045429
0.603009987
0.6030138968
0.6029653204
0.6029480012
0.6029452447
0.6029503501
0.6029589447
0.6029685686
0.6029779792
0.6029866258
0.6029943212
0.6030010559
0.6030068956
0.6030119189
0.6030161366
0.6030192147
0.6030507337
0.6030368904
0.6030273777
0.6030217915
0.6030191947
0.6030186489
0.6030193999
0.6030209028
0.6030227892
0.6030248215
0.6030268521
0.6030287863
0.6030305341
0.603031871
0.6030801693
0.6030736845
0.6030675311
0.6030621673
0.6030577499
0.603054254
0.6030515673
0.6030495494
0.6030480633
0.6030469889
0.6030462274
0.6030457004
0.6030453485
0.6030451392
0.6030885994
0.60308545
0.6030818405
0.6030780358
0.6030742558
0.6030706575
0.6030673383
0.6030643478
0.6030617007
0.6030593893
0.6030573925
0.6030556869
0.603054269
0.6030532441
0.6030901303
0.6030870482
0.603083286
0.6030791886
0.603075045
0.6030710636
0.6030673766
0.6030640552
0.603061126
0.6030585854
0.6030564114
0.6030545718
0.6030530336
0.6030517813
0.6030508914
0.603082034
0.6030738007
0.603066009
0.6030594217
0.6030542072
0.603050257
0.6030473658
0.6030453163
0.6030439147
0.6030430002
0.6030424453
0.6030421509
0.6030420403
0.6030420498
0.6030421111
0.6030425855
0.6030181132
0.6030043874
0.6029985442
0.6029975717
0.6029993254
0.6030024586
0.6030061752
0.6030100235
0.6030137581
0.6030172542
0.6030204543
0.6030233305
0.6030258302
0.6030276976
0.6028275312
0.602798053
0.6028201458
0.602853873
0.6028861463
0.6029135372
0.602935863
0.6029538606
0.6029683908
0.6029802021
0.6029898865
0.6029978931
0.603004543
0.6030099871
0.6030138969
0.6020789438
0.6024454298
0.6026482537
0.6027669381
0.6028404253
0.6028884876
0.602921549
0.6029453261
0.6029630838
0.6029767638
0.6029875644
0.6029962342
0.6030031594
0.6030080569
0.6027980514
0.6028201466
0.6028538744
0.6028861478
0.6029135386
0.6029358642
0.6029538616
0.6029683917
0.602980203
0.6029898873
0.6029978938
0.6030045437
0.6030099877
0.6030138975
0.6030181128
0.6030043876
0.6029985448
0.6029975726
0.6029993264
0.6030024597
0.6030061763
0.6030100246
0.6030137592
0.6030172552
0.6030204553
0.6030233315
0.6030258311
0.6030276985
0.6030738005
0.6030660089
0.6030594219
0.6030542076
0.6030502575
0.6030473664
0.6030453171
0.6030439155
0.603043001
0.6030424461
0.6030421518
0.6030420412
0.6030420507
0.603042112
0.6030870481
0.603083286
0.6030791886
0.6030750452
0.6030710639
0.603067377
0.6030640557
0.6030611266
0.6030585861
0.6030564121
0.6030545726
0.6030530345
0.6030517822
0.6030508924
0.6030910331
0.6030885995
0.6030854501
0.6030818406
0.6030780359
0.6030742558
0.6030706574
0.6030673381
0.6030643475
0.6030617004
0.6030593889
0.603057392
0.6030556864
0.6030542684
0.6030532435
0.6030861468
0.6030801696
0.6030736847
0.6030675312
0.6030621673
0.6030577498
0.6030542539
0.6030515671
0.6030495492
0.603048063
0.6030469885
0.603046227
0.6030457
0.6030453481
0.6030451388
0.603067676
0.6030507342
0.6030368909
0.603027378
0.6030217916
0.6030191947
0.6030186488
0.6030193998
0.6030209026
0.6030227889
0.6030248213
0.6030268518
0.6030287861
0.6030305338
0.6030318707
0.6030044285
0.6029653218
0.6029480024
0.6029452457
0.6029503509
0.6029589454
0.6029685691
0.6029779796
0.6029866261
0.6029943215
0.6030010561
0.6030068958
0.6030119191
0.6030161368
0.6030192149
0.6028275315
0.6027980536
0.602820148
0.6028538753
0.6028861483
0.602913539
0.6029358645
0.6029538618
0.6029683919
0.6029802031
0.6029898874
0.6029978939
0.6030045437
0.6030099878
0.6030138975
0.6030044281
0.602965322
0.602948003
0.6029452466
0.6029503518
0.6029589463
0.60296857
0.6029779805
0.6029866269
0.6029943222
0.6030010568
0.6030068964
0.6030119197
0.6030161373
0.6030192154
0.6030507332
0.6030368906
0.6030273782
0.6030217921
0.6030191954
0.6030186497
0.6030194007
0.6030209036
0.6030227899
0.6030248222
0.6030268527
0.6030287869
0.6030305347
0.6030318716
0.6030801692
0.6030736845
0.6030675312
0.6030621675
0.6030577502
0.6030542544
0.6030515677
0.6030495499
0.6030480637
0.6030469894
0.6030462279
0.6030457009
0.603045349
0.6030451397
0.6030885994
0.60308545
0.6030818405
0.6030780359
0.603074256
0.6030706577
0.6030673385
0.603064348
0.603061701
0.6030593896
0.6030573928
0.6030556873
0.6030542693
0.6030532445
0.6030922387
0.6030907762
0.6030887455
0.6030862371
0.6030833935
0.6030803681
0.603077298
0.6030742914
0.6030714248
0.6030687464
0.6030662821
0.6030640426
0.6030620341
0.603060288
0.6030589822
0.6030900954
0.6030869337
0.6030830254
0.6030787852
0.6030745724
0.6030706315
0.6030670947
0.6030640086
0.6030613652
0.6030591266
0.6030572425
0.6030556611
0.6030543377
0.6030532512
0.6030524705
0.6030835466
0.6030756916
0.6030674705
0.6030600444
0.6030539711
0.6030493604
0.6030460729
0.6030438688
0.6030424954
0.6030417281
0.603041385
0.6030413265
0.603041448
0.6030416656
0.6030418823
0.603067676
0.6030507343
0.6030368912
0.6030273784
0.6030217921
0.6030191952
0.6030186494
0.6030194004
0.6030209032
0.6030227895
0.6030248218
0.6030268524
0.6030287866
0.6030305343
0.6030318712
0.6030425858
0.6030181141
0.6030043887
0.6029985458
0.6029975733
0.602999327
0.6030024602
0.6030061767
0.6030100249
0.6030137595
0.6030172555
0.6030204555
0.6030233317
0.6030258312
0.6030276987
0.603067676
0.6030507345
0.6030368914
0.6030273788
0.6030217925
0.6030191957
0.60301865
0.6030194009
0.6030209037
0.60302279
0.6030248223
0.6030268528
0.603028787
0.6030305348
0.6030318716
0.6030835464
0.6030756915
0.6030674705
0.6030600445
0.6030539714
0.6030493609
0.6030460734
0.6030438695
0.6030424961
0.6030417288
0.6030413857
0.6030413273
0.6030414488
0.6030416663
0.6030418831
0.6030869334
0.6030830252
0.6030787852
0.6030745725
0.6030706318
0.603067095
0.603064009
0.6030613657
0.6030591272
0.6030572432
0.6030556618
0.6030543384
0.6030532519
0.6030524713
0.6030907761
0.6030887454
0.6030862371
0.6030833935
0.6030803682
0.6030772982
0.6030742917
0.6030714251
0.6030687469
0.6030662827
0.6030640433
0.6030620348
0.6030602888
0.603058983
0.6030930428
0.6030922642
0.6030911129
0.6030895822
0.6030877084
0.6030855571
0.6030832067
0.603080737
0.60307822
0.6030757163
0.603073274
0.6030709307
0.603068723
0.6030667211
0.6030651777
0.6030922182
0.6030907466
0.60308873
0.6030862751
0.6030835303
0.6030806439
0.6030777403
0.6030749117
0.6030722192
0.6030696987
0.6030673676
0.6030652319
0.6030632967
0.603061596
0.6030603125
0.6030900954
0.6030869337
0.6030830254
0.6030787853
0.6030745725
0.6030706317
0.6030670948
0.6030640088
0.6030613654
0.6030591269
0.6030572428
0.6030556613
0.6030543379
0.6030532514
0.6030524708
0.6030861469
0.6030801696
0.6030736848
0.6030675315
0.6030621677
0.6030577503
0.6030542544
0.6030515677
0.6030495498
0.6030480636
0.6030469892
0.6030462277
0.6030457007
0.6030453488
0.6030451395
0.603082034
0.6030738009
0.6030660094
0.6030594224
0.603054208
0.603050258
0.6030473668
0.6030453174
0.6030439158
0.6030430013
0.6030424464
0.6030421521
0.6030420415
0.603042051
0.6030421122
0.6030861469
0.6030801697
0.6030736849
0.6030675316
0.6030621679
0.6030577505
0.6030542547
0.603051568
0.6030495501
0.6030480639
0.6030469895
0.603046228
0.603045701
0.6030453491
0.6030451398
0.6030900954
0.6030869337
0.6030830254
0.6030787854
0.6030745727
0.6030706319
0.6030670951
0.6030640091
0.6030613658
0.6030591273
0.6030572432
0.6030556618
0.6030543385
0.603053252
0.6030524714
0.6030922182
0.6030907465
0.60308873
0.6030862751
0.6030835303
0.603080644
0.6030777405
0.6030749119
0.6030722195
0.6030696991
0.603067368
0.6030652323
0.6030632972
0.6030615965
0.6030603131
0.6030922641
0.6030911129
0.6030895821
0.6030877084
0.6030855571
0.6030832068
0.6030807372
0.6030782203
0.6030757166
0.6030732743
0.6030709312
0.6030687236
0.6030667217
0.6030651784
0.6030934024
0.6030929387
0.6030922189
0.603091204
0.6030898823
0.6030882685
0.6030863989
0.6030843241
0.6030821009
0.6030797868
0.6030774357
0.6030750973
0.6030728243
0.6030707096
0.6030690502
0.6030930428
0.6030922642
0.6030911129
0.6030895822
0.6030877085
0.6030855571
0.6030832068
0.6030807371
0.6030782201
0.6030757164
0.6030732741
0.6030709308
0.6030687232
0.6030667212
0.6030651779
0.6030922387
0.6030907762
0.6030887456
0.6030862372
0.6030833936
0.6030803682
0.6030772982
0.6030742916
0.603071425
0.6030687467
0.6030662825
0.603064043
0.6030620344
0.6030602884
0.6030589826
0.6030910331
0.6030885995
0.6030854501
0.6030818407
0.6030780361
0.6030742561
0.6030706578
0.6030673386
0.603064348
0.603061701
0.6030593895
0.6030573927
0.6030556872
0.6030542692
0.6030532443
0.6030901303
0.6030870483
0.6030832862
0.6030791889
0.6030750454
0.6030710642
0.6030673773
0.6030640559
0.6030611268
0.6030585864
0.6030564124
0.6030545728
0.6030530347
0.6030517824
0.6030508926
0.6030910331
0.6030885995
0.6030854502
0.6030818407
0.6030780361
0.6030742562
0.6030706579
0.6030673387
0.6030643482
0.6030617012
0.6030593897
0.603057393
0.6030556874
0.6030542695
0.6030532446
0.6030922387
0.6030907762
0.6030887456
0.6030862372
0.6030833936
0.6030803683
0.6030772983
0.6030742918
0.6030714252
0.6030687469
0.6030662828
0.6030640433
0.6030620348
0.6030602888
0.6030589831
0.6030930428
0.6030922642
0.6030911129
0.6030895822
0.6030877085
0.6030855572
0.6030832069
0.6030807373
0.6030782203
0.6030757167
0.6030732744
0.6030709312
0.6030687236
0.6030667217
0.6030651785
0.6030934023
0.6030929387
0.6030922189
0.603091204
0.6030898823
0.6030882685
0.603086399
0.6030843242
0.6030821011
0.603079787
0.603077436
0.6030750977
0.6030728247
0.6030707101
0.6030690508
)
;

boundaryField
{
    top
    {
        type            zeroGradient;
    }
    bottom
    {
        type            zeroGradient;
    }
    side-walls
    {
        type            zeroGradient;
    }
    inlet
    {
        type            zeroGradient;
    }
    outlet
    {
        type            zeroGradient;
    }
    procBoundary1to0
    {
        type            processor;
        value           nonuniform List<scalar> 
97
(
0.6030934023
0.6030934023
0.6030930428
0.6030922387
0.6030910331
0.6030901304
0.6030910332
0.6030922388
0.6030930428
0.6030934024
0.6030935038
0.6030922182
0.6030922182
0.6030922182
0.6030900954
0.603086147
0.6030820343
0.603086147
0.6030900955
0.6030922183
0.6030930428
0.6030931391
0.6030921972
0.6030835464
0.6030835464
0.6030835464
0.6030676762
0.6030425872
0.6030676768
0.603083547
0.6030900955
0.6030922388
0.6030926055
0.6030905392
0.6030833251
0.6030044273
0.6030044273
0.6030044273
0.6028275417
0.6030044311
0.6030676767
0.603086147
0.6030910332
0.6030922252
0.6030889782
0.6030753311
0.6030214313
0.6013792945
0.6013792945
0.6013792945
0.6028275407
0.6028275407
0.603042587
0.6030820343
0.6030901304
0.6030926055
0.6030905392
0.6030833251
0.6030623967
0.6030214308
0.603062397
0.6030676755
0.6030676755
0.6030676755
0.6030861468
0.6030910331
0.6030931391
0.6030921972
0.6030894417
0.6030833251
0.6030753311
0.6030833251
0.6030894417
0.6030900953
0.6030900953
0.6030900953
0.6030922387
0.6030935038
0.6030931318
0.6030921972
0.6030905392
0.6030889782
0.6030905393
0.6030921972
0.6030931318
0.6030930427
0.6030930427
0.6030930427
0.6030936692
0.6030935038
0.6030931391
0.6030926055
0.6030922252
0.6030926055
0.6030931391
0.6030935038
0.6030936692
)
;
    }
}


// ************************************************************************* //
