/*--------------------------------*- C++ -*----------------------------------*\
| =========                 |                                                 |
| \\      /  F ield         | OpenFOAM: The Open Source CFD Toolbox           |
|  \\    /   O peration     | Version:  4.x                                   |
|   \\  /    A nd           | Web:      www.OpenFOAM.org                      |
|    \\/     M anipulation  |                                                 |
\*---------------------------------------------------------------------------*/
FoamFile
{
    version     2.0;
    format      ascii;
    class       surfaceScalarField;
    location    "6000";
    object      phi;
}
// * * * * * * * * * * * * * * * * * * * * * * * * * * * * * * * * * * * * * //

dimensions      [1 0 -1 0 0 0 0];

internalField   nonuniform List<scalar> 
3172
(
9.428483044e-06
-2.060634579e-11
-2.072337195e-11
9.42851997e-06
-2.03235745e-11
-1.824053854e-11
9.428548424e-06
-1.297999451e-11
-1.397855363e-11
9.428565604e-06
-8.383959366e-12
-8.776052322e-12
9.428575241e-06
-4.874830675e-12
-4.446773988e-12
9.428576608e-06
-1.779549758e-12
-3.175654516e-12
9.428577457e-06
1.28364901e-12
1.315356751e-12
9.428575977e-06
2.361278845e-12
2.821659006e-12
9.42856943e-06
2.403550438e-12
2.533345926e-12
9.428563143e-06
2.951961306e-12
3.706674153e-12
9.428553679e-06
4.646439533e-12
4.359395417e-12
9.428542607e-06
5.245036563e-12
5.998812933e-12
9.428531552e-06
6.198136563e-12
5.86683902e-12
5.225408582e-12
5.914068432e-12
9.428471899e-06
-3.693922162e-11
-2.527508974e-11
9.428510118e-06
-3.345224243e-11
-2.526946997e-11
9.42853476e-06
-2.08894184e-11
-1.674606583e-11
9.428547524e-06
-1.165581973e-11
-8.756638456e-12
9.428553747e-06
-6.060212728e-12
-3.450593186e-12
9.428550114e-06
-5.296533187e-13
-2.177001979e-13
9.428547194e-06
2.367524651e-12
4.378474692e-12
9.428541492e-06
4.243896341e-12
5.313632141e-12
9.42853395e-06
6.440532729e-12
6.553326349e-12
9.428524908e-06
6.397048853e-12
6.168880739e-12
9.428513717e-06
6.064853461e-12
4.719733505e-12
9.428503753e-06
6.091977865e-12
5.285618334e-12
9.428494901e-06
8.856209659e-12
5.956153815e-12
7.707667308e-12
6.257358521e-12
9.428547143e-06
-3.257000612e-11
-4.444513644e-11
9.428585523e-06
-2.540117046e-11
-3.766198062e-11
9.428596723e-06
-1.413743311e-11
-1.940151674e-11
9.428596867e-06
-5.595468232e-12
-7.305810257e-12
9.428591605e-06
-2.011534552e-12
2.579011308e-12
9.428578915e-06
1.521247864e-12
5.941724028e-12
9.428569136e-06
5.442242668e-12
1.013256231e-11
9.428560468e-06
6.898669546e-12
1.053501979e-11
9.428549718e-06
7.132089066e-12
1.006345572e-11
9.428542622e-06
6.401062313e-12
1.053162409e-11
9.428534976e-06
6.410204166e-12
8.62687109e-12
9.428525787e-06
4.887479084e-12
7.469267852e-12
9.428516797e-06
6.419682963e-12
6.901126726e-12
6.73496654e-12
6.481263222e-12
9.428506505e-06
-1.835277458e-11
-3.116101211e-11
9.428532473e-06
-1.22616714e-11
-4.41320569e-11
9.428536666e-06
-4.571211032e-12
-1.71029119e-11
9.428527033e-06
1.38835699e-13
1.541550316e-12
9.428516438e-06
1.467506431e-12
9.652764939e-12
9.428500339e-06
2.02846182e-12
1.461786268e-11
9.428486436e-06
2.623506567e-12
1.589329676e-11
9.428473686e-06
3.879089174e-12
1.512147264e-11
9.428463576e-06
3.518970145e-12
1.358451128e-11
9.42845498e-06
3.943943211e-12
1.190786745e-11
9.42844813e-06
2.189870161e-12
1.022150079e-11
9.428442716e-06
2.729079318e-12
9.292800065e-12
9.428437259e-06
2.460385767e-12
8.232559475e-12
3.791229106e-12
8.894321404e-12
9.42857369e-06
1.971042815e-11
-3.700362096e-11
9.428575747e-06
1.406884303e-11
-2.613280388e-11
9.428560752e-06
5.237082882e-12
5.379719173e-12
9.428541417e-06
1.301623635e-12
1.966123197e-11
9.428524021e-06
3.398518473e-13
2.228129714e-11
9.42850579e-06
-1.697231585e-12
2.090583646e-11
9.428494221e-06
-1.288212681e-12
2.039947507e-11
9.428479824e-06
-2.478425135e-12
1.688960969e-11
9.42847152e-06
-3.684261748e-12
1.489445676e-11
9.428462384e-06
-3.807210993e-12
1.318621139e-11
9.428460212e-06
-2.190400837e-12
1.204982591e-11
9.428456173e-06
-2.001676204e-12
9.357576952e-12
9.428451931e-06
-5.991344742e-13
9.797286764e-12
-1.087316205e-12
7.62613574e-12
9.428588638e-06
3.284957154e-11
-3.035968426e-11
9.428612466e-06
2.820367724e-11
-4.426692054e-11
9.42861922e-06
1.73178554e-11
-1.418222063e-11
9.428608333e-06
7.752407618e-12
4.81523113e-13
9.42859576e-06
3.243579546e-12
9.603487422e-12
9.428583275e-06
5.843042383e-13
1.385341748e-11
9.428569843e-06
-1.649865101e-12
1.589299059e-11
9.428555923e-06
-5.167358044e-12
1.495362869e-11
9.428548089e-06
-4.176801818e-12
1.599786963e-11
9.428539682e-06
-5.179691035e-12
1.470696886e-11
9.428532972e-06
-7.227141611e-12
1.161267172e-11
9.42852966e-06
-6.145092758e-12
1.014847908e-11
9.428521485e-06
-7.385790677e-12
9.492650939e-12
-6.545871117e-12
8.419974453e-12
9.428548207e-06
3.607476383e-11
-4.39238757e-11
9.428580177e-06
3.092404743e-11
-3.958986413e-11
9.428595018e-06
2.017512975e-11
-1.921668854e-11
9.42859548e-06
1.263635631e-11
-6.597623378e-12
9.428587368e-06
6.030034926e-12
-2.05716342e-15
9.428578837e-06
1.919833087e-12
5.556471637e-12
9.428565668e-06
-2.330634989e-12
7.613411041e-12
9.428558132e-06
-3.409032561e-12
1.032167108e-11
9.428546827e-06
-6.290782487e-12
1.098914135e-11
9.428536831e-06
-6.278117439e-12
1.152079777e-11
9.428530106e-06
-7.734048857e-12
1.023395834e-11
9.42852311e-06
-7.593807701e-12
6.923418641e-12
9.428512219e-06
-1.085310118e-11
7.972700783e-12
-1.032905415e-11
7.734749376e-12
9.428489355e-06
1.985272136e-11
-2.524024261e-11
9.428525602e-06
1.883202701e-11
-2.496373825e-11
9.428550163e-06
1.326879789e-11
-1.578145966e-11
9.428557897e-06
7.490201225e-12
-8.765585905e-12
9.428564536e-06
4.992421493e-12
-3.645256829e-12
9.428563471e-06
1.512274144e-12
-1.965421752e-12
9.428557719e-06
-8.184033523e-13
2.957649782e-12
9.428550013e-06
-2.024626079e-12
5.794433524e-12
9.42854239e-06
-2.859638413e-12
8.343140264e-12
9.428532034e-06
-4.508959055e-12
7.487396356e-12
9.428525015e-06
-4.2671208e-12
8.258426516e-12
9.428515404e-06
-4.079353522e-12
6.982423218e-12
9.428506012e-06
-3.47747465e-12
7.403128015e-12
-4.52525826e-12
6.473016387e-12
9.428489573e-06
-1.962945633e-11
9.428526772e-06
-1.924164562e-11
9.428553626e-06
-1.334421533e-11
9.428569031e-06
-7.849825843e-12
9.428580718e-06
-4.213381078e-12
9.428582964e-06
-4.027674595e-12
9.428583204e-06
2.503032882e-13
9.428577642e-06
3.382622189e-12
9.428573288e-06
3.203879105e-12
9.428564982e-06
4.548955018e-12
9.42855843e-06
6.309401297e-12
9.428547809e-06
5.858403404e-12
9.428537425e-06
5.33827202e-12
4.540461998e-12
9.428445579e-06
-7.401605548e-11
9.428485791e-06
-2.467453531e-11
-3.643597656e-11
9.428521221e-06
-2.535750089e-11
-3.297507409e-11
9.42854615e-06
-1.517630049e-11
-2.069262551e-11
9.428559772e-06
-7.587222865e-12
-1.125568552e-11
9.428563952e-06
-3.753873064e-12
-5.854439576e-12
9.428564632e-06
1.440228986e-12
1.770460119e-14
9.428556566e-06
4.026155183e-12
3.8753774e-12
9.428547882e-06
5.967505064e-12
7.462729663e-12
9.428541185e-06
7.361098905e-12
7.904985177e-12
9.428532337e-06
7.130371907e-12
7.146887335e-12
9.428522866e-06
6.524878869e-12
8.397703711e-12
9.428510982e-06
5.691036822e-12
7.946179436e-12
9.42850103e-06
7.052395413e-12
9.171615318e-12
6.694752983e-12
7.297358767e-12
9.428501704e-06
-3.940968358e-11
-3.963119311e-11
9.428533585e-06
-4.043454703e-11
-4.026714155e-11
9.428552824e-06
-2.256933985e-11
-2.362541032e-11
9.428555241e-06
-1.126684998e-11
-1.009391681e-11
9.428552656e-06
-9.5657431e-13
-2.214604838e-12
9.428546656e-06
4.958680236e-12
3.765420579e-12
9.4285365e-06
7.937762075e-12
7.848255641e-12
9.428528721e-06
1.024734775e-11
9.764259352e-12
9.42851975e-06
1.10424023e-11
9.293916298e-12
9.428512294e-06
1.165950307e-11
1.022325633e-11
9.428506731e-06
1.174888904e-11
9.981370499e-12
9.428495919e-06
9.839920252e-12
8.340514128e-12
9.428489518e-06
1.084815116e-11
9.624254561e-12
9.881199104e-12
8.766321798e-12
9.428535712e-06
-3.145614608e-11
-7.006129074e-11
9.428554061e-06
-3.411134493e-11
-6.177738291e-11
9.428547585e-06
-1.376309169e-11
-2.262388911e-11
9.428534854e-06
1.379706785e-12
4.366823919e-14
9.428517999e-06
5.587787502e-12
9.17576938e-12
9.428504705e-06
9.497477244e-12
1.755305143e-11
9.428490019e-06
1.055037995e-11
1.945152882e-11
9.428479834e-06
1.121273463e-11
1.940129094e-11
9.428473439e-06
1.067370695e-11
1.864104009e-11
9.428467176e-06
8.680505215e-12
1.553568307e-11
9.428464844e-06
8.197346536e-12
1.414458389e-11
9.428458167e-06
7.378348845e-12
1.218652644e-11
9.428456973e-06
8.533594463e-12
1.256640309e-11
8.968881622e-12
1.05395794e-11
9.428583085e-06
-1.951365575e-12
-5.745494667e-12
9.428577559e-06
-7.198700556e-12
-6.549102464e-11
9.428558828e-06
2.537337091e-12
-1.045173047e-11
9.428531112e-06
5.928493097e-12
1.822891566e-11
9.428513175e-06
6.710382223e-12
2.697371657e-11
9.428497958e-06
5.589625475e-12
3.027608842e-11
9.428486934e-06
5.582556179e-12
3.063175233e-11
9.428480708e-06
6.083519371e-12
2.683502857e-11
9.428477527e-06
5.292942511e-12
2.372022856e-11
9.428475173e-06
5.476050755e-12
2.119497884e-11
9.428475557e-06
4.409777275e-12
1.817119071e-11
9.428474985e-06
3.186351704e-12
1.627801068e-11
9.428478574e-06
4.894554592e-12
1.561000397e-11
2.522148951e-12
1.180067511e-11
9.428632597e-06
3.38035657e-12
1.163974264e-10
9.428564335e-06
9.113938492e-12
2.446445724e-11
9.42851623e-06
-4.696959577e-14
5.00775268e-11
9.428481697e-06
-5.476615186e-12
6.075863008e-11
9.42846004e-06
-5.917570325e-12
5.270489619e-11
9.428449714e-06
-5.915291916e-12
4.512438543e-11
9.428444356e-06
-5.805853429e-12
3.752839423e-11
9.428441297e-06
-5.266883874e-12
3.080159123e-11
9.428440738e-06
-4.513137386e-12
2.609818942e-11
9.428441121e-06
-3.325161472e-12
2.178872811e-11
9.428443623e-06
-3.64607212e-12
1.946341961e-11
9.428445822e-06
-2.853023845e-12
1.684761857e-11
9.42844812e-06
-3.464291215e-12
1.653056999e-11
-3.144311394e-12
1.2334835e-11
9.428541928e-06
3.050047898e-11
-8.003149213e-12
9.428538242e-06
3.360185853e-11
-6.608375137e-11
9.428518328e-06
1.3759796e-11
-1.141972859e-11
9.428496846e-06
1.422728464e-12
1.860561661e-11
9.42847363e-06
-5.490568076e-12
2.817677144e-11
9.428460047e-06
-7.367114614e-12
3.166874599e-11
9.428449473e-06
-9.353115477e-12
2.955899724e-11
9.428442428e-06
-1.043957248e-11
2.86750683e-11
9.428439109e-06
-1.007741016e-11
2.514757813e-11
9.428435315e-06
-1.000430114e-11
2.074261198e-11
9.428437147e-06
-9.298466975e-12
1.995088079e-11
9.428438364e-06
-9.479313237e-12
1.676337434e-11
9.428439791e-06
-9.059084814e-12
1.696209177e-11
-7.878945566e-12
1.287051423e-11
9.428509056e-06
3.973040974e-11
-7.250139274e-11
9.428522555e-06
3.947990088e-11
-6.336735437e-11
9.428515797e-06
2.340110849e-11
-2.355379902e-11
9.428502228e-06
1.212710022e-11
9.680583562e-13
9.428485326e-06
3.594357124e-12
1.203415708e-11
9.428471033e-06
-4.30707262e-12
1.62830294e-11
9.428456946e-06
-7.119591336e-12
1.921248859e-11
9.428448296e-06
-8.026944941e-12
2.068665998e-11
9.428440605e-06
-9.225561339e-12
1.829982067e-11
9.428435392e-06
-1.08049545e-11
1.559912781e-11
9.42843e-06
-9.568866245e-12
1.507411529e-11
9.428429991e-06
-8.853007874e-12
1.511788453e-11
9.428424214e-06
-1.188321817e-11
1.397903489e-11
-1.080020333e-11
9.414129521e-12
9.428532756e-06
2.562678851e-11
-4.084875369e-11
9.428565604e-06
2.491137684e-11
-4.163485171e-11
9.428582722e-06
1.645136204e-11
-2.378876603e-11
9.428586344e-06
8.742764676e-12
-1.164540554e-11
9.428581794e-06
4.182626859e-12
-1.68944599e-12
9.428577518e-06
3.730100043e-13
6.107369326e-12
9.428567702e-06
-3.151625235e-12
8.713454836e-12
9.428558012e-06
-4.551035395e-12
8.429829512e-12
9.428548086e-06
-7.180395816e-12
1.099539722e-11
9.428541654e-06
-6.763976279e-12
1.176533462e-11
9.42853301e-06
-6.525482233e-12
1.090247523e-11
9.428526719e-06
-5.525330323e-12
1.097470011e-11
9.428520359e-06
-5.768321053e-12
1.090277954e-11
-6.495415873e-12
8.148824436e-12
9.428481294e-06
-3.72455808e-11
9.428518222e-06
-3.360837435e-11
9.428541175e-06
-2.311427632e-11
9.428552222e-06
-1.514046997e-11
9.428555776e-06
-7.145434181e-12
9.428557188e-06
-1.733178654e-13
9.428552004e-06
3.357890444e-12
9.428540978e-06
4.987716332e-12
9.428533534e-06
8.121730661e-12
9.428525774e-06
8.500877068e-12
9.428515485e-06
7.928502499e-12
9.428505393e-06
7.440179222e-12
9.428495909e-06
8.033480742e-12
7.113567425e-12
9.428475099e-06
-1.249863824e-10
-9.236919353e-11
9.42851577e-06
-4.17998851e-11
-3.401843547e-11
9.428549985e-06
-3.715652198e-11
-2.888297383e-11
9.428566484e-06
-1.717613652e-11
-1.545222728e-11
9.428565934e-06
-4.162864829e-12
-7.998304792e-12
9.428559099e-06
2.529379094e-13
-1.408691836e-12
9.428551105e-06
6.921705115e-12
2.159640764e-12
9.428538731e-06
9.38910383e-12
2.931685772e-12
9.428524969e-06
8.459428385e-12
3.800419663e-12
9.428517797e-06
1.001023286e-11
6.291158275e-12
9.428510343e-06
1.172616615e-11
8.467050997e-12
9.428503676e-06
9.955938827e-12
8.627512708e-12
9.428492049e-06
6.83853418e-12
6.983295402e-12
9.428483609e-06
7.832996477e-12
7.542603601e-12
9.071940165e-12
6.415323887e-12
9.42856379e-06
-1.72592093e-10
9.428580032e-06
-7.025112742e-11
-3.280011792e-11
9.428596336e-06
-6.281421471e-11
-3.650327564e-11
9.428591468e-06
-2.293004758e-11
-1.371721124e-11
9.428574981e-06
-1.999935818e-12
-2.333892825e-12
9.428560242e-06
9.307191866e-12
4.263758498e-12
9.428546763e-06
1.855209923e-11
9.156881596e-12
9.428530493e-06
1.907317787e-11
9.958198975e-12
9.428522448e-06
2.102253281e-11
1.141831313e-11
9.428516972e-06
2.090324486e-11
1.191950632e-11
9.428508345e-06
1.775814433e-11
9.660748549e-12
9.42850548e-06
1.628849225e-11
9.746549138e-12
9.428502075e-06
1.419238196e-11
9.0228684e-12
9.428498819e-06
1.393914231e-11
8.523086589e-12
1.266618203e-11
6.156189801e-12
9.428642498e-06
-4.434122529e-11
-4.521277472e-11
9.428599426e-06
-4.028390376e-11
-4.060925972e-11
9.42854454e-06
4.804009893e-12
3.892246798e-12
9.428501598e-06
2.232961998e-11
2.250728361e-11
9.428476573e-06
2.568301619e-11
2.593975109e-11
9.428457481e-06
2.391717343e-11
2.363445626e-11
9.428449991e-06
2.249194611e-11
2.23137573e-11
9.428446892e-06
1.91307291e-11
1.829616986e-11
9.428449433e-06
1.675081988e-11
1.720129991e-11
9.428451416e-06
1.426038572e-11
1.47338174e-11
9.428456748e-06
1.266477363e-11
1.260069899e-11
9.428460972e-06
1.145262509e-11
1.039189581e-11
9.428466475e-06
1.109864361e-11
1.123779073e-11
1.038566354e-11
8.649886801e-12
9.428597527e-06
4.289623568e-11
1.540069571e-10
9.428503931e-06
1.072947856e-11
-1.768482964e-11
9.428434815e-06
2.320786721e-11
4.088457083e-11
9.428396042e-06
2.438677937e-11
5.784727179e-11
9.428384207e-06
1.941674618e-11
5.072416031e-11
9.428384792e-06
1.505270473e-11
4.305541846e-11
9.428391224e-06
1.202811274e-11
3.463571557e-11
9.428403438e-06
1.09678752e-11
2.646672112e-11
9.428418004e-06
8.630167963e-12
2.171016962e-11
9.428427122e-06
6.52334443e-12
1.926636676e-11
9.428438239e-06
5.681818257e-12
1.731576882e-11
9.428447616e-06
5.104275636e-12
1.296181188e-11
9.428460211e-06
7.399735432e-12
1.409408563e-11
4.186342305e-12
1.151944514e-11
9.428652828e-06
-4.374039356e-11
8.428769261e-10
9.428380883e-06
-1.015117051e-11
3.150898252e-10
9.428284889e-06
-2.095298398e-11
1.926333927e-10
9.428258331e-06
-2.282977213e-11
1.36866841e-10
9.428263183e-06
-1.628066961e-11
8.761237075e-11
9.428283748e-06
-1.484632901e-11
5.93552248e-11
9.428303449e-06
-1.201326408e-11
4.02818154e-11
9.428321734e-06
-7.884670045e-12
3.010742061e-11
9.428340123e-06
-6.700067699e-12
2.232107074e-11
9.42835206e-06
-5.270211464e-12
1.745846297e-11
9.428365148e-06
-3.78423903e-12
1.64506519e-11
9.428375655e-06
-3.54107035e-12
1.289428406e-11
9.428388728e-06
-3.852073095e-12
1.408585777e-11
-3.103947162e-12
1.181019304e-11
9.42862094e-06
4.38346044e-11
1.542455285e-10
9.428525723e-06
4.0291263e-11
-1.847785089e-11
9.428454691e-06
-4.159852895e-12
4.003242678e-11
9.428417493e-06
-2.029050122e-11
5.788668457e-11
9.428399584e-06
-2.407282733e-11
5.08825713e-11
9.428402813e-06
-2.421049234e-11
4.401167174e-11
9.428412122e-06
-2.112979155e-11
3.522247774e-11
9.428419401e-06
-1.921693704e-11
2.752031119e-11
9.428429854e-06
-1.690339224e-11
2.176670298e-11
9.428441846e-06
-1.490351479e-11
1.823923625e-11
9.428452416e-06
-1.374756423e-11
1.640875341e-11
9.428463722e-06
-1.250164047e-11
1.316796608e-11
9.428473161e-06
-1.196317025e-11
1.398365459e-11
-1.077069594e-11
1.209781548e-11
9.42864409e-06
7.126862426e-11
-4.410540717e-11
9.428600054e-06
6.169831745e-11
-3.984334066e-11
9.42854622e-06
2.337401654e-11
2.728091785e-12
9.42850192e-06
7.396517698e-14
2.287819537e-11
9.428471304e-06
-9.716197769e-12
2.493201661e-11
9.428460313e-06
-1.485493577e-11
2.666341689e-11
9.428454844e-06
-1.788941079e-11
2.320401041e-11
9.428449213e-06
-2.045605229e-11
1.919815929e-11
9.428450374e-06
-1.633839917e-11
1.661357805e-11
9.428452988e-06
-1.489402954e-11
1.425946547e-11
9.428457115e-06
-1.413228888e-11
1.493134754e-11
9.428459126e-06
-1.298961297e-11
1.25831383e-11
9.428460553e-06
-1.548567321e-11
1.169058699e-11
-1.242081862e-11
9.806711216e-12
9.428544681e-06
4.411115266e-11
-3.1969014e-11
9.428562131e-06
3.868648612e-11
-3.315151441e-11
9.428553145e-06
1.782531582e-11
-1.567862977e-11
9.428538531e-06
4.891623903e-12
-1.799189254e-12
9.428521973e-06
-2.979571684e-12
4.640311674e-12
9.428510104e-06
-7.53766511e-12
9.439519523e-12
9.42849678e-06
-9.196865498e-12
1.00795626e-11
9.428489002e-06
-8.403521435e-12
1.06618525e-11
9.42847838e-06
-1.02924893e-11
9.258833921e-12
9.428472468e-06
-1.002216026e-11
8.649291863e-12
9.428470104e-06
-9.439962908e-12
1.057514005e-11
9.428466233e-06
-8.813374254e-12
9.174033344e-12
9.428463579e-06
-8.394522713e-12
9.903784637e-12
-7.667924233e-12
8.629663126e-12
9.428542284e-06
-3.321734068e-11
9.428576647e-06
-2.790375785e-11
9.428588691e-06
-1.607525975e-11
9.428587879e-06
-6.734246924e-12
9.428581098e-06
-2.066964062e-12
9.428572533e-06
1.839201572e-12
9.428561806e-06
2.872872629e-12
9.428549192e-06
4.937076207e-12
9.428538113e-06
6.007344305e-12
9.428529014e-06
6.409430371e-12
9.428523327e-06
8.645448241e-12
9.428515571e-06
8.093238741e-12
9.42850567e-06
7.298602388e-12
7.954300701e-12
9.428545553e-06
-1.871661468e-10
-8.471348983e-11
9.428561731e-06
-2.924276429e-11
-2.067232622e-11
9.428590268e-06
-4.296175167e-11
-1.337264163e-11
9.428594403e-06
-1.466175799e-11
-4.01454868e-12
9.42858918e-06
1.25250009e-12
7.126308553e-14
9.428574503e-06
9.609326609e-12
1.984199927e-13
9.428560593e-06
1.459840844e-11
2.366375492e-12
9.428547193e-06
1.672169031e-11
3.782371073e-12
9.42853495e-06
1.589629677e-11
3.414456016e-12
9.428524763e-06
1.489970372e-11
3.664545567e-12
9.428515613e-06
1.2730946e-11
2.77531282e-12
9.428511532e-06
1.114616777e-11
2.594725375e-12
9.428502653e-06
8.470420136e-12
2.247842204e-12
9.42849648e-06
8.315671329e-12
3.320965355e-12
8.58077932e-12
2.785866254e-12
9.428633809e-06
-4.42542804e-10
-1.683550706e-10
9.428580917e-06
-4.869576081e-12
-4.127499033e-12
9.428580013e-06
-6.347849589e-11
-9.843506649e-12
9.428559332e-06
-1.092184091e-11
-1.517224444e-12
9.428534669e-06
1.945669191e-11
4.745625567e-12
9.428515683e-06
2.95132988e-11
6.515031346e-12
9.428499999e-06
3.171091081e-11
4.611501129e-12
9.428490045e-06
3.071483995e-11
3.990857855e-12
9.428484283e-06
2.717903326e-11
3.293450621e-12
9.428481561e-06
2.570408002e-11
4.294113946e-12
9.428479909e-06
2.195183618e-11
4.597701779e-12
9.428480677e-06
1.802287206e-11
4.065161983e-12
9.42847866e-06
1.441316295e-11
3.339272014e-12
9.428482371e-06
1.75055301e-11
4.830273493e-12
1.482610021e-11
4.571566125e-12
9.428856336e-06
-4.979425191e-10
9.428606484e-06
1.534254023e-10
3.958706262e-11
9.428513269e-06
-1.72446843e-11
6.717982407e-12
9.428445989e-06
4.231018886e-11
2.047084746e-11
9.428406298e-06
5.791005084e-11
2.342190765e-11
9.428393242e-06
5.091457183e-11
1.879975315e-11
9.428393018e-06
4.372926369e-11
1.417052212e-11
9.428400168e-06
3.517336083e-11
1.13792837e-11
9.428411191e-06
2.728849385e-11
7.651300378e-12
9.428421489e-06
2.145834764e-11
6.903248705e-12
9.428429228e-06
1.781755816e-11
4.058107393e-12
9.428441521e-06
1.73485298e-11
5.012138078e-12
9.428449987e-06
1.399015228e-11
4.324255367e-12
9.428460146e-06
1.459451425e-11
4.658468494e-12
1.250431474e-11
4.296385505e-12
9.42813852e-06
4.391081257e-10
4.368093623e-10
9.428118287e-06
-5.332712445e-12
-6.311979793e-12
9.428128751e-06
3.869705184e-11
3.705002202e-11
9.428160267e-06
4.394996353e-11
4.341919443e-11
9.428202895e-06
3.093070789e-11
3.092014774e-11
9.428246448e-06
2.22892763e-11
2.129206235e-11
9.428285625e-06
1.564040158e-11
1.532019652e-11
9.4283192e-06
1.435782712e-11
1.147970884e-11
9.428348346e-06
9.907864657e-12
9.586799456e-12
9.428369777e-06
5.982510059e-12
6.968955673e-12
9.428388868e-06
6.288158795e-12
5.507113644e-12
9.428406956e-06
6.478492064e-12
4.540355284e-12
9.428426797e-06
6.937343776e-12
5.742004911e-12
5.517285379e-12
4.133472074e-12
9.427775475e-06
-4.398161345e-10
3.282186937e-09
9.427787251e-06
4.598760002e-12
2.954663239e-10
9.427927249e-06
-3.876401251e-11
1.291315127e-10
9.428057443e-06
-4.219134528e-11
9.97569326e-11
9.428153018e-06
-2.96215611e-11
5.091231967e-11
9.428228283e-06
-2.245498808e-11
2.767789622e-11
9.428283842e-06
-1.623518721e-11
1.697089565e-11
9.428323824e-06
-1.222295988e-11
1.087290439e-11
9.42835806e-06
-8.560847139e-12
7.518814475e-12
9.428385225e-06
-6.35601048e-12
4.991408262e-12
9.428405824e-06
-4.942490732e-12
3.026451498e-12
9.428424266e-06
-4.892600449e-12
2.648124298e-12
9.428446024e-06
-5.219561776e-12
3.747578857e-12
-3.734508274e-12
2.413590268e-12
9.42815437e-06
-1.547326208e-10
4.38411533e-10
9.428132798e-06
1.791159941e-11
-5.934795706e-12
9.428142297e-06
-4.118644895e-11
3.804505292e-11
9.428173751e-06
-5.61384507e-11
4.309084593e-11
9.428212032e-06
-5.07827366e-11
2.902671253e-11
9.428259146e-06
-4.132255486e-11
2.169653648e-11
9.428298693e-06
-3.378133222e-11
1.562610806e-11
9.428328646e-06
-2.87529728e-11
1.120646157e-11
9.428356379e-06
-2.285060934e-11
7.597078002e-12
9.428378604e-06
-1.864070364e-11
4.464238108e-12
9.42839705e-06
-1.712521311e-11
4.125852844e-12
9.428414323e-06
-1.350832751e-11
4.416069671e-12
9.428432826e-06
-1.423632482e-11
5.044769026e-12
-1.319777703e-11
3.366849391e-12
9.428593295e-06
5.303416741e-12
4.345975699e-11
9.428497187e-06
6.453381295e-11
9.703546454e-12
9.428430545e-06
9.471998782e-12
2.199463725e-11
9.428389651e-06
-2.032114692e-11
2.12387141e-11
9.42837435e-06
-2.751217193e-11
1.743506168e-11
9.428375141e-06
-3.072262116e-11
1.480210272e-11
9.428384959e-06
-2.960351613e-11
1.099338094e-11
9.428396379e-06
-2.793603343e-11
7.731228986e-12
9.428409369e-06
-2.352326895e-11
6.381998229e-12
9.428421063e-06
-1.969855282e-11
5.886304692e-12
9.428430827e-06
-1.770869425e-11
4.222603274e-12
9.428441404e-06
-1.465820206e-11
4.744086896e-12
9.428451385e-06
-1.634630051e-11
4.499609404e-12
-1.255495635e-11
4.149001556e-12
9.428540746e-06
3.165819251e-11
-1.628573323e-12
9.428534104e-06
4.3237762e-11
-7.750285106e-12
9.428516787e-06
1.604741557e-11
3.928637038e-13
9.428491963e-06
-1.158461487e-12
4.212638725e-12
9.428469705e-06
-1.02838651e-11
4.328808105e-12
9.428453145e-06
-1.544004264e-11
5.476817707e-12
9.428442746e-06
-1.537527484e-11
5.164713848e-12
9.428436651e-06
-1.453674328e-11
3.436868994e-12
9.428433351e-06
-1.405129478e-11
2.759144889e-12
9.428431129e-06
-1.255830794e-11
1.842729886e-12
9.428430464e-06
-1.140377021e-11
2.771264378e-12
9.428429888e-06
-8.946555265e-12
3.476544282e-12
9.428432187e-06
-1.040353333e-11
3.76461516e-12
-8.570491736e-12
3.420390202e-12
9.428529796e-06
-1.966146958e-11
9.428556488e-06
-1.227739884e-11
9.428561606e-06
-3.526933551e-12
9.428551471e-06
-1.385336663e-12
9.428539585e-06
2.41930105e-13
9.428525273e-06
1.59173049e-12
9.428512363e-06
2.478649683e-12
9.428500152e-06
1.868646567e-12
9.428488704e-06
8.15009642e-14
9.428480579e-06
7.389751052e-13
9.428474166e-06
2.637066626e-13
9.428466428e-06
1.314191583e-12
9.428463039e-06
1.786239273e-12
2.461092549e-12
9.428592105e-06
-4.681335124e-10
8.213325293e-11
9.428587478e-06
-3.359359321e-11
1.9843456e-11
9.428590315e-06
-2.605197816e-11
1.231064585e-11
9.42857375e-06
5.221955698e-12
4.307218418e-12
9.428554293e-06
1.99373876e-11
1.143158615e-12
9.42853683e-06
2.378788042e-11
-9.445666584e-13
9.428518417e-06
2.124149313e-11
-2.354235072e-12
9.42850225e-06
1.884301504e-11
-3.41716658e-12
9.428489943e-06
1.678765823e-11
-2.477311349e-12
9.428480597e-06
1.551871718e-11
-2.664964487e-12
9.428472357e-06
1.367770698e-11
-1.193414878e-12
9.428466833e-06
1.1494625e-11
-3.284226872e-12
9.428460908e-06
9.592019875e-12
-4.502846219e-12
9.428454696e-06
9.7670896e-12
-4.20317998e-12
1.014350738e-11
-2.557038037e-12
9.428816005e-06
-1.319762743e-09
1.65810117e-10
9.428658316e-06
1.165849264e-10
2.768544035e-12
9.428592943e-06
2.642327182e-11
8.962457863e-12
9.428544735e-06
5.222950153e-11
1.595946373e-13
9.428511141e-06
6.283033407e-11
-5.159193305e-12
9.428488098e-06
5.45000485e-11
-7.771393545e-12
9.428475955e-06
4.686169922e-11
-5.203130754e-12
9.42847161e-06
3.904949443e-11
-3.802458287e-12
9.428468859e-06
3.19537219e-11
-3.669787454e-12
9.428467896e-06
2.700401154e-11
-3.757519565e-12
9.428466453e-06
2.134787446e-11
-3.714922803e-12
9.428467333e-06
1.838914001e-11
-2.517072708e-12
9.428467805e-06
1.555266683e-11
-2.3109208e-12
9.428471699e-06
1.692211451e-11
-3.853082761e-12
1.427341167e-11
-3.82532632e-12
9.429289111e-06
-3.522925719e-09
4.950813046e-10
9.428647637e-06
8.435576607e-10
-4.399232567e-11
9.4283753e-06
3.169388825e-10
-8.377136241e-12
9.42828036e-06
1.938593538e-10
-2.123158583e-11
9.428255225e-06
1.374134028e-10
-2.29248329e-11
9.428259531e-06
8.741782814e-11
-1.907223816e-11
9.428279225e-06
5.893114682e-11
-1.340029885e-11
9.428299397e-06
4.126906414e-11
-1.179689477e-11
9.428319732e-06
2.989119009e-11
-9.687533846e-12
9.428335539e-06
2.240162205e-11
-7.608682451e-12
9.428352025e-06
1.913384895e-11
-4.827914729e-12
9.428365002e-06
1.66255116e-11
-3.640318018e-12
9.428376671e-06
1.306533882e-11
-4.386210847e-12
9.42838796e-06
1.481389152e-11
-4.239401086e-12
1.221557805e-11
-5.350093054e-12
9.429345989e-06
9.061790321e-10
9.427784336e-06
3.283740046e-09
-4.395735439e-10
9.42779404e-06
2.960644054e-10
5.492151578e-12
9.427937565e-06
1.303519628e-10
-3.60418643e-11
9.428067603e-06
1.004366638e-10
-4.254054446e-11
9.428162652e-06
5.061536485e-11
-2.995159092e-11
9.428237923e-06
2.803966801e-11
-2.212338983e-11
9.42829141e-06
1.704641951e-11
-1.737002251e-11
9.428335753e-06
1.237855024e-11
-1.070514679e-11
9.428368123e-06
8.002517914e-12
-8.909866361e-12
9.428390961e-06
4.019355875e-12
-8.318170635e-12
9.428411765e-06
4.063765937e-12
-5.516646446e-12
9.428432804e-06
4.948991066e-12
-3.445234713e-12
9.428451619e-06
4.918755225e-12
-5.169076124e-12
3.831992986e-12
-4.488636625e-12
9.467169721e-06
-3.284135975e-09
-3.285583662e-09
9.468396762e-06
-2.968652943e-10
-2.974187215e-10
9.468950307e-06
-1.292076895e-10
-1.312536704e-10
9.469385621e-06
-9.875751308e-11
-1.003999759e-10
9.469616518e-06
-5.072914805e-11
-5.123553732e-11
9.469759417e-06
-2.734866118e-11
-2.770906931e-11
9.469859762e-06
-1.76647701e-11
-1.807734656e-11
9.469936111e-06
-1.116418647e-11
-1.16760806e-11
9.46999878e-06
-7.834156496e-12
-8.804296165e-12
9.47005462e-06
-6.484959046e-12
-7.538528041e-12
9.470106019e-06
-4.880103916e-12
-5.540794228e-12
9.470152744e-06
-3.401938675e-12
-3.815410961e-12
9.470206557e-06
-3.63886555e-12
-5.841690369e-12
-2.472627653e-12
-4.005891002e-12
9.427760345e-06
-8.428979899e-10
-4.392130706e-10
9.427770642e-06
-3.153247971e-10
5.949398331e-12
9.42791067e-06
-1.9322864e-10
-3.91077659e-11
9.428040102e-06
-1.371581733e-10
-4.38899258e-11
9.428136399e-06
-8.665452281e-11
-3.047072296e-11
9.428211868e-06
-5.613143729e-11
-1.976042875e-11
9.428268915e-06
-3.967922389e-11
-1.534281683e-11
9.428309852e-06
-3.087632077e-11
-1.291306208e-11
9.42834187e-06
-2.242598894e-11
-1.006025743e-11
9.428369992e-06
-1.655246354e-11
-7.4476924e-12
9.428390156e-06
-1.525463165e-11
-7.334034161e-12
9.428408282e-06
-1.30209101e-11
-5.861623831e-12
9.42842836e-06
-1.526465648e-11
-8.384394749e-12
-1.217008484e-11
-7.356415337e-12
9.428687771e-06
-1.162006596e-10
-4.223221744e-11
9.428413972e-06
-2.451947824e-11
-8.168728063e-12
9.428316306e-06
-5.333406639e-11
-2.311366202e-11
9.428290999e-06
-6.361847028e-11
-2.485852564e-11
9.428296901e-06
-5.426957524e-11
-1.95912347e-11
9.428313619e-06
-4.563177443e-11
-1.522914348e-11
9.428332238e-06
-3.797851314e-11
-1.169515095e-11
9.428355008e-06
-3.157210354e-11
-9.022195954e-12
9.4283712e-06
-2.598790212e-11
-7.244185298e-12
9.428386903e-06
-2.186260107e-11
-7.894548323e-12
9.428401742e-06
-1.750015222e-11
-6.315857235e-12
9.428410482e-06
-1.60022687e-11
-5.266709983e-12
9.428425285e-06
-1.643729177e-11
-5.108640084e-12
-1.288103805e-11
-4.78924051e-12
9.428657689e-06
3.542850268e-11
2.758449749e-12
9.428587568e-06
2.568852586e-11
7.136093974e-12
9.428542221e-06
-3.651484769e-12
-2.126186187e-12
9.428510375e-06
-1.848516531e-11
-6.612021576e-12
9.428489554e-06
-2.147731672e-11
-7.024457731e-12
9.428474844e-06
-2.276672639e-11
-7.138398429e-12
9.428468144e-06
-2.00882487e-11
-6.338281447e-12
9.428468852e-06
-1.621007145e-11
-4.136238231e-12
9.428467781e-06
-1.614185605e-11
-5.378104162e-12
9.428469029e-06
-1.368380111e-11
-4.572729527e-12
9.42847062e-06
-1.256613369e-11
-4.268782882e-12
9.428471202e-06
-1.042127413e-11
-4.011585723e-12
9.428476117e-06
-1.14302598e-11
-5.328465066e-12
-9.363010863e-12
-4.257872676e-12
9.428614563e-06
1.889741057e-11
9.42861615e-06
1.16569023e-11
9.428599386e-06
2.078519761e-12
9.428582108e-06
-1.707226373e-12
9.428564107e-06
-1.77334133e-12
9.428546933e-06
-2.291383293e-12
9.428529963e-06
-3.35820495e-12
9.428518691e-06
-3.115961145e-12
9.428511821e-06
-1.431248641e-12
9.428502761e-06
-3.359736477e-12
9.428498518e-06
-3.329266957e-12
9.428491766e-06
-3.861578229e-12
9.428489956e-06
-2.681500363e-12
-3.588515394e-12
9.428552083e-06