/*--------------------------------*- C++ -*----------------------------------*\
| =========                 |                                                 |
| \\      /  F ield         | OpenFOAM: The Open Source CFD Toolbox           |
|  \\    /   O peration     | Version:  4.x                                   |
|   \\  /    A nd           | Web:      www.OpenFOAM.org                      |
|    \\/     M anipulation  |                                                 |
\*---------------------------------------------------------------------------*/
FoamFile
{
    version     2.0;
    format      ascii;
    class       volScalarField;
    location    "6000";
    object      T;
}
// * * * * * * * * * * * * * * * * * * * * * * * * * * * * * * * * * * * * * //

dimensions      [0 0 0 1 0 0 0];

internalField   nonuniform List<scalar> 
1174
(
1223.150906
1223.15118
1223.151508
1223.151754
1223.151924
1223.152461
1223.153018
1223.153529
1223.154008
1223.154496
1223.155112
1223.155705
1223.156346
1223.156707
1223.1541
1223.154302
1223.154666
1223.155136
1223.155559
1223.156
1223.15661
1223.157299
1223.15788
1223.158377
1223.159033
1223.159534
1223.160086
1223.160273
1223.148633
1223.149057
1223.149792
1223.15069
1223.151455
1223.152173
1223.152805
1223.153493
1223.154011
1223.154599
1223.155261
1223.155604
1223.156092
1223.156377
1223.156746
1223.157635
1223.158439
1223.159457
1223.160464
1223.161319
1223.162422
1223.163256
1223.164067
1223.164592
1223.165235
1223.165645
1223.16596
1223.166119
1223.155271
1223.156089
1223.156951
1223.158065
1223.159051
1223.159933
1223.160863
1223.161584
1223.162139
1223.162811
1223.163143
1223.163464
1223.163855
1223.163901
1223.146334
1223.147097
1223.147946
1223.148965
1223.150074
1223.15089
1223.151632
1223.15227
1223.152955
1223.153467
1223.153882
1223.154327
1223.154827
1223.155243
1223.148876
1223.149266
1223.149936
1223.150581
1223.151305
1223.152135
1223.152958
1223.153723
1223.154431
1223.15493
1223.155572
1223.155988
1223.156627
1223.156759
1223.152037
1223.152367
1223.15268
1223.153223
1223.153796
1223.154526
1223.15502
1223.155605
1223.15634
1223.157015
1223.157652
1223.158153
1223.158732
1223.159356
1223.150328
1223.150505
1223.150768
1223.151067
1223.151462
1223.151944
1223.152375
1223.152899
1223.153448
1223.153955
1223.154408
1223.154881
1223.155573
1223.15593
1223.152366
1223.152563
1223.152775
1223.153222
1223.153421
1223.154044
1223.154743
1223.155336
1223.156085
1223.156856
1223.157545
1223.158046
1223.158448
1223.15923
1223.159625
1223.152758
1223.153359
1223.154067
1223.154811
1223.155465
1223.156167
1223.156861
1223.157376
1223.158035
1223.158578
1223.159152
1223.159421
1223.160007
1223.160476
1223.155359
1223.156275
1223.157304
1223.158063
1223.159012
1223.159903
1223.160551
1223.161285
1223.161892
1223.162433
1223.162922
1223.163176
1223.163349
1223.16374
1223.15147
1223.153054
1223.154683
1223.156187
1223.157273
1223.158293
1223.158921
1223.15943
1223.159986
1223.160088
1223.160422
1223.160579
1223.160641
1223.1608
1223.156804
1223.158728
1223.160257
1223.161496
1223.162621
1223.163108
1223.163622
1223.163892
1223.164175
1223.164209
1223.164264
1223.164177
1223.164054
1223.164168
1223.156647
1223.158147
1223.159814
1223.161289
1223.162143
1223.163121
1223.16386
1223.164401
1223.164688
1223.164971
1223.165313
1223.165412
1223.16537
1223.165386
1223.159122
1223.160035
1223.161042
1223.162264
1223.163388
1223.164173
1223.164765
1223.165532
1223.166087
1223.166622
1223.167082
1223.167293
1223.16751
1223.16768
1223.149157
1223.14958
1223.15012
1223.150625
1223.15128
1223.152016
1223.152769
1223.153255
1223.153807
1223.15439
1223.155011
1223.155706
1223.156015
1223.156354
1223.153062
1223.153372
1223.153733
1223.154149
1223.154707
1223.155444
1223.155966
1223.156705
1223.157371
1223.15801
1223.158753
1223.159313
1223.159797
1223.160186
1223.152505
1223.152701
1223.153283
1223.153938
1223.154493
1223.155268
1223.156071
1223.156764
1223.157482
1223.158221
1223.158919
1223.159216
1223.159679
1223.160122
1223.160398
1223.148761
1223.149622
1223.150465
1223.151399
1223.152424
1223.153705
1223.154719
1223.155279
1223.156059
1223.156512
1223.156945
1223.157403
1223.157708
1223.158083
1223.158242
1223.153807
1223.155958
1223.157949
1223.159408
1223.160489
1223.161336
1223.162134
1223.162465
1223.162538
1223.162655
1223.16259
1223.162403
1223.162369
1223.162108
1223.158846
1223.162307
1223.164633
1223.166295
1223.166878
1223.167109
1223.166733
1223.16649
1223.165844
1223.165423
1223.164826
1223.164212
1223.163761
1223.163358
1223.174736
1223.178236
1223.179793
1223.180038
1223.179408
1223.178609
1223.177608
1223.176543
1223.175844
1223.175121
1223.17444
1223.173876
1223.173263
1223.172848
1223.156101
1223.159634
1223.162123
1223.163488
1223.164232
1223.164414
1223.164371
1223.164135
1223.163635
1223.163136
1223.162769
1223.162119
1223.161798
1223.161291
1223.153985
1223.156015
1223.157807
1223.159362
1223.160325
1223.161128
1223.161778
1223.162051
1223.162056
1223.162232
1223.162234
1223.162271
1223.162258
1223.162486
1223.154523
1223.155533
1223.15629
1223.157278
1223.158222
1223.159063
1223.159698
1223.160336
1223.160986
1223.161562
1223.161896
1223.162233
1223.162334
1223.16248
1223.149573
1223.150146
1223.150795
1223.151672
1223.152337
1223.153109
1223.153825
1223.154559
1223.155147
1223.155865
1223.156487
1223.156949
1223.157407
1223.157812
1223.148647
1223.149174
1223.149865
1223.150933
1223.152005
1223.152888
1223.153833
1223.154809
1223.155295
1223.155899
1223.156261
1223.156939
1223.157434
1223.157766
1223.157946
1223.149699
1223.151242
1223.152897
1223.15451
1223.156032
1223.157051
1223.157776
1223.158508
1223.15888
1223.159391
1223.15966
1223.159725
1223.159645
1223.159811
1223.15991
1223.152881
1223.157155
1223.160763
1223.163366
1223.164845
1223.165499
1223.16559
1223.16562
1223.16531
1223.164933
1223.164558
1223.164386
1223.16382
1223.163513
1223.163013
1223.183192
1223.187464
1223.187987
1223.186583
1223.184616
1223.181934
1223.17969
1223.177494
1223.175394
1223.173766
1223.172364
1223.170923
1223.169996
1223.169142
1223.222053
1223.216695
1223.208137
1223.199914
1223.193173
1223.187565
1223.182951
1223.179097
1223.176088
1223.173701
1223.171471
1223.169837
1223.168381
1223.167437
1223.181214
1223.185586
1223.186518
1223.185283
1223.182906
1223.18053
1223.178177
1223.176156
1223.174354
1223.172638
1223.171161
1223.169977
1223.168974
1223.168199
1223.15938
1223.163002
1223.165233
1223.166678
1223.167465
1223.167804
1223.167632
1223.167232
1223.166697
1223.166226
1223.165476
1223.164958
1223.164507
1223.163853
1223.156855
1223.158521
1223.160153
1223.161555
1223.162716
1223.163644
1223.164436
1223.165025
1223.165391
1223.165708
1223.165941
1223.166023
1223.166218
1223.166377
1223.153696
1223.154534
1223.155441
1223.156477
1223.157523
1223.158363
1223.159166
1223.159865
1223.160414
1223.160967
1223.161542
1223.161955
1223.162343
1223.162703
1223.152783
1223.153511
1223.154559
1223.155574
1223.156689
1223.157798
1223.158689
1223.159649
1223.160383
1223.161093
1223.161707
1223.162051
1223.162415
1223.162627
1223.162849
1223.151164
1223.153132
1223.155106
1223.156711
1223.157944
1223.158964
1223.159529
1223.160126
1223.160393
1223.160672
1223.160802
1223.160904
1223.16118
1223.161119
1223.161135
1223.169036
1223.175299
1223.178631
1223.180033
1223.180371
1223.179777
1223.178919
1223.177779
1223.176833
1223.175974
1223.175357
1223.174584
1223.173729
1223.173268
1223.172755
1223.213562
1223.220876
1223.215221
1223.206786
1223.198547
1223.19145
1223.186068
1223.181599
1223.178048
1223.17514
1223.172459
1223.170436
1223.168751
1223.167312
1223.166517
1218.055861
1217.960258
1217.9056
1217.87219
1217.849912
1217.83404
1217.821846
1217.812131
1217.803962
1217.796674
1217.790207
1217.784222
1217.778779
1217.773789
1223.224453
1223.218791
1223.210146
1223.201992
1223.195071
1223.189297
1223.184913
1223.181158
1223.178199
1223.17578
1223.173621
1223.171894
1223.170433
1223.169462
1223.170071
1223.173492
1223.175032
1223.175256
1223.174999
1223.174301
1223.173207
1223.172427
1223.17143
1223.170639
1223.169941
1223.169195
1223.168617
1223.168306
1223.153106
1223.155105
1223.1566
1223.157851
1223.158789
1223.159526
1223.160016
1223.160324
1223.160433
1223.160506
1223.160692
1223.16081
1223.160768
1223.160593
1223.150056
1223.150823
1223.151944
1223.152866
1223.153963
1223.154863
1223.15579
1223.156456
1223.157073
1223.157645
1223.158091
1223.158468
1223.15876
1223.159118
1223.148026
1223.148505
1223.149305
1223.150228
1223.15112
1223.152095
1223.152846
1223.153806
1223.154848
1223.155525
1223.15597
1223.156658
1223.157097
1223.157388
1223.15766
1223.151162
1223.152692
1223.1544
1223.155933
1223.157364
1223.15852
1223.159284
1223.16004
1223.160667
1223.160972
1223.161299
1223.161625
1223.161756
1223.161921
1223.161786
1223.151756
1223.155919
1223.159416
1223.161882
1223.163306
1223.163953
1223.164221
1223.164124
1223.16369
1223.163251
1223.162992
1223.162451
1223.161886
1223.16128
1223.160781
1223.171849
1223.181778
1223.186073
1223.186799
1223.185545
1223.183284
1223.180935
1223.178637
1223.176229
1223.174198
1223.172313
1223.170811
1223.169671
1223.168697
1223.167757
1223.21423
1223.221648
1223.21608
1223.207399
1223.199187
1223.192282
1223.186566
1223.181864
1223.178283
1223.175373
1223.173138
1223.171127
1223.16941
1223.168021
1223.167067
1223.171025
1223.180768
1223.185307
1223.185973
1223.184581
1223.182628
1223.180194
1223.177879
1223.175909
1223.17389
1223.172234
1223.170819
1223.169505
1223.168698
1223.167634
1223.160647
1223.164218
1223.166662
1223.167955
1223.168514
1223.168621
1223.16862
1223.168189
1223.167737
1223.16744
1223.16694
1223.166173
1223.165869
1223.165494
1223.151822
1223.153285
1223.154856
1223.156283
1223.157415
1223.158067
1223.158705
1223.159231
1223.159601
1223.160048
1223.160015
1223.160192
1223.160267
1223.160079
1223.149077
1223.149726
1223.150679
1223.151767
1223.152608
1223.153585
1223.154397
1223.155105
1223.155831
1223.156313
1223.156786
1223.157216
1223.157652
1223.157894
1223.149352
1223.149778
1223.150251
1223.151088
1223.151739
1223.152502
1223.15318
1223.15397
1223.154704
1223.155342
1223.15604
1223.156705
1223.157072
1223.157496
1223.157761
1223.151935
1223.152779
1223.153826
1223.15493
1223.156007
1223.157054
1223.157897
1223.158603
1223.159389
1223.159933
1223.1604
1223.160853
1223.161156
1223.161326
1223.161647
1223.159988
1223.161893
1223.163915
1223.165754
1223.167301
1223.168701
1223.169485
1223.170035
1223.170288
1223.170371
1223.170379
1223.170322
1223.170378
1223.170311
1223.170131
1223.157745
1223.16216
1223.165438
1223.167707
1223.169115
1223.169696
1223.169937
1223.169941
1223.169744
1223.169191
1223.168703
1223.168122
1223.167524
1223.167001
1223.16659
1223.160127
1223.166175
1223.169812
1223.171351
1223.171584
1223.17125
1223.170265
1223.16931
1223.16844
1223.167453
1223.166544
1223.165743
1223.165052
1223.164539
1223.164203
1223.155708
1223.160185
1223.163618
1223.165782
1223.167102
1223.167835
1223.167931
1223.167996
1223.16733
1223.166836
1223.166205
1223.16576
1223.165158
1223.164739
1223.164257
1223.153696
1223.155651
1223.157638
1223.159411
1223.160882
1223.161982
1223.162872
1223.163571
1223.163944
1223.16418
1223.164299
1223.164526
1223.164461
1223.164303
1223.164231
1223.15413
1223.155142
1223.156201
1223.157398
1223.158363
1223.159247
1223.159937
1223.160622
1223.161142
1223.161675
1223.162189
1223.162416
1223.162746
1223.162937
1223.151218
1223.151619
1223.152252
1223.15289
1223.153505
1223.154187
1223.154864
1223.1555
1223.15625
1223.15689
1223.157515
1223.158128
1223.158579
1223.158967
1223.152234
1223.152476
1223.152704
1223.153066
1223.153461
1223.154003
1223.154618
1223.155195
1223.155894
1223.156542
1223.157046
1223.157516
1223.158135
1223.158484
1223.158971
1223.147824
1223.148105
1223.148796
1223.149184
1223.149843
1223.150538
1223.151153
1223.151971
1223.152363
1223.153119
1223.153712
1223.154183
1223.154398
1223.154748
1223.155225
1223.150483
1223.151293
1223.152352
1223.15332
1223.154304
1223.155248
1223.156194
1223.156981
1223.157622
1223.158193
1223.158712
1223.15925
1223.159719
1223.160003
1223.160292
1223.149923
1223.15141
1223.153203
1223.154724
1223.156098
1223.157175
1223.157985
1223.158561
1223.159102
1223.159498
1223.159862
1223.160138
1223.160207
1223.160254
1223.160405
1223.155874
1223.157972
1223.160126
1223.161835
1223.163207
1223.164166
1223.165008
1223.165491
1223.165811
1223.165993
1223.166035
1223.166075
1223.166046
1223.165948
1223.166082
1223.15097
1223.152305
1223.153883
1223.15559
1223.157052
1223.158028
1223.159039
1223.159651
1223.160153
1223.160517
1223.160857
1223.160866
1223.160839
1223.161032
1223.161018
1223.152909
1223.153715
1223.154762
1223.155813
1223.156732
1223.157692
1223.158515
1223.159228
1223.159861
1223.160174
1223.160763
1223.161109
1223.161531
1223.161737
1223.161739
1223.154141
1223.154437
1223.155076
1223.155618
1223.15632
1223.157005
1223.1578
1223.158488
1223.15918
1223.159828
1223.160316
1223.160841
1223.161498
1223.162058
1223.162413
1223.15325
1223.153567
1223.153996
1223.154496
1223.155148
1223.155699
1223.156463
1223.156987
1223.157658
1223.158184
1223.158719
1223.15922
1223.159858
1223.160184
1223.148191
1223.148196
1223.148419
1223.148673
1223.148962
1223.149469
1223.150023
1223.1505
1223.151085
1223.151768
1223.152334
1223.152716
1223.153409
1223.154017
1223.1543
1223.151128
1223.151412
1223.151692
1223.152024
1223.152478
1223.15294
1223.153538
1223.154152
1223.15491
1223.155508
1223.156204
1223.15676
1223.15718
1223.157786
1223.157913
1223.150381
1223.150772
1223.151252
1223.151912
1223.152609
1223.153497
1223.154234
1223.154995
1223.155922
1223.156456
1223.156933
1223.157552
1223.157953
1223.158324
1223.158666
1223.152214
1223.152787
1223.153527
1223.154428
1223.155527
1223.156558
1223.157456
1223.158208
1223.15906
1223.159822
1223.160358
1223.160917
1223.161369
1223.161874
1223.162158
1223.151206
1223.152013
1223.152956
1223.153898
1223.154896
1223.155918
1223.15668
1223.157433
1223.158237
1223.158927
1223.159391
1223.159757
1223.160241
1223.160597
1223.160841
1223.157132
1223.157873
1223.158658
1223.159436
1223.160467
1223.161367
1223.162313
1223.163072
1223.163881
1223.164558
1223.165162
1223.165465
1223.166042
1223.166363
1223.166621
1223.153592
1223.154008
1223.154539
1223.155098
1223.155865
1223.156671
1223.157463
1223.158116
1223.158901
1223.159607
1223.160205
1223.160815
1223.161498
1223.161931
1223.162223
1223.145289
1223.145582
1223.145986
1223.146403
1223.146981
1223.147461
1223.147888
1223.148662
1223.1492
1223.149724
1223.150329
1223.150926
1223.151386
1223.151856
1223.152307
1223.150417
1223.150554
1223.150824
1223.151143
1223.151335
1223.151637
1223.152058
1223.152635
1223.153194
1223.153741
1223.154228
1223.15504
1223.155499
1223.156004
1223.15647
)
;

boundaryField
{
    top
    {
        type            zeroGradient;
    }
    bottom
    {
        type            zeroGradient;
    }
    side-walls
    {
        type            zeroGradient;
    }
    inlet
    {
        type            zeroGradient;
    }
    outlet
    {
        type            zeroGradient;
    }
    procBoundary1to0
    {
        type            processor;
        value           nonuniform List<scalar> 
97
(
1223.150811
1223.150811
1223.15389
1223.148247
1223.156268
1223.154562
1223.145624
1223.148503
1223.151829
1223.150089
1223.152462
1223.152455
1223.152455
1223.152455
1223.154695
1223.149991
1223.154852
1223.155198
1223.158253
1223.148932
1223.152816
1223.152265
1223.148314
1223.152008
1223.152008
1223.152008
1223.154309
1223.168431
1223.151893
1223.152036
1223.153717
1223.149246
1223.148357
1223.148677
1223.149013
1223.173526
1223.173526
1223.173526
1223.214708
1223.171422
1223.155226
1223.155394
1223.15312
1223.152294
1223.149345
1223.160749
1223.168051
1218.229877
1218.229877
1218.229877
1223.217043
1223.217043
1223.163887
1223.151141
1223.149253
1223.147497
1223.150022
1223.14784
1223.157443
1223.168771
1223.156673
1223.156528
1223.156528
1223.156528
1223.150028
1223.14851
1223.149194
1223.151497
1223.158417
1223.153902
1223.151934
1223.15157
1223.152065
1223.153421
1223.153421
1223.153421
1223.150642
1223.152125
1223.147498
1223.149853
1223.148829
1223.154069
1223.14978
1223.152316
1223.153894
1223.153097
1223.153097
1223.153097
1223.148185
1223.150866
1223.150199
1223.151632
1223.15078
1223.156938
1223.153379
1223.145248
1223.150354
)
;
    }
}


// ************************************************************************* //
