/*--------------------------------*- C++ -*----------------------------------*\
| =========                 |                                                 |
| \\      /  F ield         | OpenFOAM: The Open Source CFD Toolbox           |
|  \\    /   O peration     | Version:  4.x                                   |
|   \\  /    A nd           | Web:      www.OpenFOAM.org                      |
|    \\/     M anipulation  |                                                 |
\*---------------------------------------------------------------------------*/
FoamFile
{
    version     2.0;
    format      ascii;
    class       volVectorField;
    location    "6000";
    object      U;
}
// * * * * * * * * * * * * * * * * * * * * * * * * * * * * * * * * * * * * * //

dimensions      [0 1 -1 0 0 0 0];

internalField   nonuniform List<vector> 
1174
(
(0.0110002524 -1.026719712e-08 -9.628227008e-09)
(0.01100027324 -1.038627457e-08 -9.181423232e-09)
(0.01100030189 -6.283740086e-09 -7.09466067e-09)
(0.01100030389 -4.24653597e-09 -4.36124327e-09)
(0.01100028972 -2.545554034e-09 -1.660355568e-09)
(0.01100026802 -1.273136328e-09 -1.296149231e-09)
(0.01100023538 2.640975457e-10 1.323854451e-09)
(0.01100020011 5.732973417e-10 1.201699547e-09)
(0.01100015602 2.007894889e-09 1.966353081e-09)
(0.01100010859 4.324853984e-10 4.115787318e-09)
(0.01100006402 3.322106343e-09 3.034383573e-09)
(0.01100001296 2.292772316e-09 4.577869218e-09)
(0.01099997294 4.563462059e-09 4.911344181e-09)
(0.0109999265 3.649922238e-09 4.766557983e-09)
(0.0110002633 -4.574526309e-08 -9.721019636e-09)
(0.01100026897 -4.149417903e-08 -1.179450569e-08)
(0.01100028754 -2.776365037e-08 -8.735954141e-09)
(0.01100027651 -1.828197909e-08 -5.915862052e-09)
(0.01100024957 -9.671921553e-09 -1.742094621e-09)
(0.0110002132 -2.423680306e-09 -9.253546298e-10)
(0.01100016949 1.241432205e-09 2.725809283e-09)
(0.01100012422 3.647083629e-09 4.235157856e-09)
(0.01100007459 5.155575334e-09 4.091506628e-09)
(0.01100002606 6.007238012e-09 3.985992964e-09)
(0.01099997905 7.19713598e-09 2.847735398e-09)
(0.01099992734 8.57285604e-09 4.791648028e-09)
(0.01099988964 9.467989736e-09 3.672356119e-09)
(0.0109998457 9.018064695e-09 4.478641311e-09)
(0.01100028657 -3.872493823e-08 -2.064147714e-08)
(0.01100026515 -3.798185441e-08 -1.99486387e-08)
(0.01100026263 -2.309211992e-08 -1.251280398e-08)
(0.0110002226 -1.151618817e-08 -7.803825098e-09)
(0.01100016981 -4.767279977e-09 1.048790036e-09)
(0.01100010939 7.055953903e-10 2.086192601e-09)
(0.01100004624 4.106078266e-09 5.398125112e-09)
(0.01099998893 8.486991848e-09 5.555819337e-09)
(0.01099993465 1.039958132e-08 5.309402747e-09)
(0.01099988105 1.002483458e-08 4.295108288e-09)
(0.01099984147 8.588304554e-09 3.97354317e-09)
(0.01099979573 9.169229422e-09 3.540277421e-09)
(0.01099976023 1.272696519e-08 3.083962723e-09)
(0.01099972492 1.007790981e-08 3.079643264e-09)
(0.01100030206 -5.250864342e-08 -7.986971315e-09)
(0.01100022021 -3.14102676e-08 -2.239622411e-08)
(0.01100019708 -1.484644935e-08 -1.110582515e-08)
(0.01100012728 -2.344175278e-09 -1.46210689e-09)
(0.01100005559 4.750107733e-10 3.0636239e-09)
(0.01099997932 4.051299569e-09 6.769337804e-09)
(0.01099991257 8.002834545e-09 9.182373583e-09)
(0.01099984841 7.076616471e-09 8.527700979e-09)
(0.01099979324 6.888627342e-09 8.024761753e-09)
(0.01099974549 6.961540534e-09 7.523991215e-09)
(0.01099970551 6.727534117e-09 5.202455138e-09)
(0.01099967262 4.609731627e-09 5.768213441e-09)
(0.01099964269 4.891866507e-09 5.172314364e-09)
(0.01099961849 7.940409056e-09 6.421704403e-09)
(0.01100038801 7.489179067e-10 -1.339606233e-08)
(0.01100022579 8.426585596e-10 -1.566290473e-08)
(0.01100017133 1.273636675e-09 -1.605170104e-09)
(0.01100008191 -1.732244874e-10 5.844838939e-09)
(0.01099999414 2.616880571e-09 8.87816201e-09)
(0.01099991425 -1.072788996e-10 8.870988307e-09)
(0.01099984524 6.561598698e-10 8.358381935e-09)
(0.01099978331 1.505331558e-09 7.03431564e-09)
(0.01099972785 9.860882867e-10 8.188825125e-09)
(0.01099968578 6.432214255e-10 7.100616571e-09)
(0.0109996463 2.908555869e-10 5.876957425e-09)
(0.01099961889 1.480649272e-09 4.196294315e-09)
(0.01099959605 2.609120162e-09 5.099107942e-09)
(0.01099957383 2.700512246e-09 3.169717882e-09)
(0.01100030407 5.307789375e-08 -7.299032344e-09)
(0.01100021801 3.441692082e-08 -2.340985151e-08)
(0.01100019768 1.546595187e-08 -8.303807076e-09)
(0.01100012871 4.575024504e-09 -3.041920838e-09)
(0.01100005509 -7.174056255e-11 3.17510677e-09)
(0.01099998046 -3.006590195e-09 6.330559171e-09)
(0.01099991138 -5.219590772e-09 8.55309905e-09)
(0.01099984549 -6.576948555e-09 8.715406732e-09)
(0.01099979253 -6.605049879e-09 9.132214154e-09)
(0.01099974445 -6.374985047e-09 8.259570777e-09)
(0.01099970519 -6.52928791e-09 7.740392347e-09)
(0.01099966971 -6.301757973e-09 6.55649656e-09)
(0.0109996447 -6.780499684e-09 6.359945697e-09)
(0.01099961842 -6.565069235e-09 4.828689409e-09)
(0.01100028915 3.885586505e-08 -1.819459795e-08)
(0.0110002635 3.799356714e-08 -2.054538566e-08)
(0.01100026143 2.529856645e-08 -1.016256926e-08)
(0.01100022006 1.485413674e-08 -4.820359804e-09)
(0.01100016754 7.061126835e-09 -2.739890634e-09)
(0.01100010731 1.996318059e-09 1.336412268e-09)
(0.01100004611 -2.724876842e-09 4.193156465e-09)
(0.01099998682 -6.373257163e-09 6.738295228e-09)
(0.01099993255 -7.28162325e-09 5.910220749e-09)
(0.01099988116 -7.550395103e-09 7.672347381e-09)
(0.01099983919 -1.138759246e-08 6.644911395e-09)
(0.01099979357 -1.00429713e-08 4.588103338e-09)
(0.01099976305 -1.267353801e-08 6.738363771e-09)
(0.01099972352 -1.167789237e-08 5.249330683e-09)
(0.0110002612 4.403369576e-08 -1.131487769e-08)
(0.01100027124 4.009561734e-08 -1.302658354e-08)
(0.01100028582 2.718608839e-08 -8.428524268e-09)
(0.01100027511 1.70107846e-08 -4.819455531e-09)
(0.01100024734 9.38648946e-09 -3.389173869e-09)
(0.01100021446 3.759566996e-09 -1.854243177e-09)
(0.01100016881 -8.367680603e-10 9.218762825e-10)
(0.01100012159 -2.170394077e-09 3.737762348e-09)
(0.01100007182 -6.009522827e-09 6.29918403e-09)
(0.01100002313 -8.183641847e-09 4.343129882e-09)
(0.01099997616 -8.939532286e-09 5.087764719e-09)
(0.01099992674 -8.792965711e-09 5.798849882e-09)
(0.01099989067 -1.032568886e-08 5.001971497e-09)
(0.01099985022 -1.034813192e-08 5.156481724e-09)
(0.01100025296 9.522087533e-09 -8.229484623e-09)
(0.01100027449 8.799701374e-09 -1.145678261e-08)
(0.01100030109 6.640683818e-09 -7.52551478e-09)
(0.01100030259 3.458964788e-09 -3.248450652e-09)
(0.01100029104 2.362539303e-09 -4.524561916e-09)
(0.01100026944 3.052974411e-11 -3.802025577e-09)
(0.01100023743 -8.377740767e-10 1.869232962e-10)
(0.01100019787 -1.582818409e-09 3.129932434e-09)
(0.01100015442 -2.10166743e-09 1.00920475e-09)
(0.01100010747 -4.25635404e-09 4.117208903e-09)
(0.01100006195 -1.754641976e-09 4.92925435e-09)
(0.01100001265 -1.611822494e-09 3.250878621e-09)
(0.01099997242 -2.738724329e-09 4.099977333e-09)
(0.01099992644 -3.272230205e-09 2.824267574e-09)
(0.01100017129 -3.149850852e-08 -7.854564526e-08)
(0.01100026251 -9.370747504e-09 -4.553775825e-08)
(0.01100026954 -1.238565822e-08 -3.899464018e-08)
(0.01100028661 -7.593872228e-09 -2.812029389e-08)
(0.01100027452 -4.163780242e-09 -1.781489447e-08)
(0.01100025091 -1.782419125e-09 -8.721154746e-09)
(0.0110002152 1.264601313e-09 -4.383358164e-09)
(0.01100017047 3.2293961e-09 1.400839807e-09)
(0.01100012246 4.473695882e-09 6.242460223e-09)
(0.01100007401 6.021376343e-09 6.662092245e-09)
(0.01100002662 4.705390162e-09 7.453218252e-09)
(0.01099997842 4.094834546e-09 9.407279247e-09)
(0.01099992678 3.46662765e-09 9.316529002e-09)
(0.01099989002 4.111743912e-09 9.791938993e-09)
(0.01099984458 5.377170754e-09 8.708189009e-09)
(0.01100027345 -5.511857579e-08 -5.648246866e-08)
(0.01100024563 -5.116647189e-08 -5.101064818e-08)
(0.01100024602 -3.105488181e-08 -3.249830747e-08)
(0.01100021169 -1.732625595e-08 -1.623929226e-08)
(0.011000165 -6.485910305e-09 -6.905846681e-09)
(0.0110001121 2.871281274e-09 1.505756029e-09)
(0.01100005601 6.261314972e-09 6.508195818e-09)
(0.01100000207 1.007769006e-08 8.886501828e-09)
(0.01099995149 1.182724454e-08 1.099731826e-08)
(0.01099990356 1.181587859e-08 1.147428274e-08)
(0.01099986401 1.338356726e-08 1.071998013e-08)
(0.01099981858 1.213097545e-08 1.001260099e-08)
(0.01099978693 1.242294829e-08 1.165896068e-08)
(0.01099975357 1.118032275e-08 1.120321217e-08)
(0.01100030439 -3.654924359e-08 -9.793488647e-08)
(0.0110001917 -5.110270791e-08 -7.752892831e-08)
(0.01100014963 -2.655395696e-08 -3.693388812e-08)
(0.01100006278 -8.118817151e-09 -9.393698045e-09)
(0.01099997951 2.53080062e-09 4.079690724e-09)
(0.01099990584 9.859729832e-09 1.280478415e-08)
(0.01099983764 1.321405875e-08 1.845173807e-08)
(0.01099978373 1.590750875e-08 1.949788539e-08)
(0.01099973827 1.542873191e-08 1.877140204e-08)
(0.01099970091 1.377657017e-08 1.847060709e-08)
(0.01099967093 1.357250083e-08 1.670216729e-08)
(0.01099964418 1.15985341e-08 1.517863528e-08)
(0.01099962249 1.383325973e-08 1.461537763e-08)
(0.01099960637 1.358320692e-08 1.33836883e-08)
(0.01100026989 -4.724747769e-08 -7.60178576e-08)
(0.01100001229 -2.931600249e-08 -8.810658027e-08)
(0.01099994083 -4.843373318e-09 -2.896505403e-08)
(0.01099982217 1.011343118e-08 4.921098357e-09)
(0.01099972244 1.198562208e-08 1.905716672e-08)
(0.01099964875 1.466388804e-08 2.759922191e-08)
(0.01099958954 1.41572015e-08 3.045278701e-08)
(0.0109995494 1.384530712e-08 2.936835875e-08)
(0.01099952134 1.225148108e-08 2.621473757e-08)
(0.01099949921 1.046601834e-08 2.324896504e-08)
(0.0109994883 8.319572341e-09 2.060888153e-08)
(0.01099947727 8.449982771e-09 1.86600366e-08)
(0.01099947657 1.025003528e-08 1.814277105e-08)
(0.01099947218 8.893706722e-09 1.496212747e-08)
(0.01100041071 1.0602294e-09 -7.50207577e-08)
(0.01099991421 1.112333985e-09 -4.991745053e-08)
(0.01099980243 2.901357119e-09 1.644386053e-08)
(0.01099966847 4.892552065e-10 4.146677566e-08)
(0.01099957217 7.855002555e-10 4.334709909e-08)
(0.01099950618 -1.377339636e-09 4.278588253e-08)
(0.01099946605 -1.09740696e-09 3.934575955e-08)
(0.01099943723 2.60920168e-10 3.434824269e-08)
(0.01099942117 8.041163532e-10 2.913800976e-08)
(0.01099941198 3.048434666e-09 2.614046037e-08)
(0.01099941023 8.703761867e-10 2.318126581e-08)
(0.01099940931 -4.677375676e-11 2.057579624e-08)
(0.01099941231 1.807118587e-09 1.944000346e-08)
(0.01099941591 -2.937389318e-10 1.502287037e-08)
(0.01100027045 4.715091342e-08 -7.696347424e-08)
(0.01100000965 3.10553992e-08 -8.837549701e-08)
(0.01099994233 6.098289829e-09 -2.732629005e-08)
(0.0109998216 -8.307161913e-09 5.179312971e-09)
(0.01099972224 -1.261472706e-08 1.975290704e-08)
(0.0109996468 -1.323809796e-08 2.765252818e-08)
(0.01099959083 -1.324371105e-08 3.034597239e-08)
(0.01099954779 -1.232063536e-08 2.876006362e-08)
(0.01099951991 -1.118382828e-08 2.827656688e-08)
(0.01099949778 -1.065994792e-08 2.570502383e-08)
(0.01099948653 -9.798794105e-09 2.209745323e-08)
(0.01099947965 -8.964474219e-09 1.887655158e-08)
(0.0109994749 -9.7672713e-09 1.876445259e-08)
(0.0109994703 -8.72581435e-09 1.627252585e-08)
(0.01100030553 3.466907641e-08 -9.865766587e-08)
(0.01100019109 4.90173799e-08 -8.073280084e-08)
(0.01100014618 2.736126291e-08 -3.654162608e-08)
(0.01100006162 1.115129478e-08 -9.644272245e-09)
(0.01099998008 2.032902808e-10 5.000402451e-09)
(0.01099990438 -7.713239252e-09 1.278440888e-08)
(0.01099983775 -1.154511831e-08 1.755730902e-08)
(0.01099978277 -1.384229918e-08 2.006013383e-08)
(0.01099973666 -1.428041642e-08 2.028156347e-08)
(0.01099970015 -1.534270725e-08 1.832149547e-08)
(0.01099966989 -1.278256744e-08 1.726352825e-08)
(0.01099964464 -1.344312907e-08 1.523751569e-08)
(0.01099962381 -1.479711847e-08 1.478619188e-08)
(0.01099960308 -1.306547625e-08 1.299525766e-08)
(0.01100027641 5.61501288e-08 -5.534112973e-08)
(0.01100024713 5.127723634e-08 -5.181792665e-08)
(0.01100024725 3.119245923e-08 -3.266749143e-08)
(0.01100021005 1.83110926e-08 -1.714904544e-08)
(0.01100016118 7.87421764e-09 -6.886315795e-09)
(0.01100010879 -1.732380867e-09 1.473556264e-09)
(0.01100005703 -5.367116976e-09 7.616555544e-09)
(0.01100000078 -8.553873609e-09 8.504794861e-09)
(0.01099994726 -1.111960612e-08 1.246657495e-08)
(0.01099990064 -1.15271108e-08 1.359922175e-08)
(0.01099985902 -1.161634622e-08 1.385618496e-08)
(0.01099981957 -9.161681521e-09 1.24355236e-08)
(0.01099978596 -1.228648845e-08 1.24116733e-08)
(0.01099975348 -1.148840048e-08 1.061177285e-08)
(0.0110002617 1.073929288e-08 -4.646022109e-08)
(0.01100027049 1.270068278e-08 -4.018679806e-08)
(0.01100028733 9.316777565e-09 -2.837906013e-08)
(0.01100027545 4.935238204e-09 -1.86904344e-08)
(0.01100024692 2.608335419e-09 -9.454271838e-09)
(0.01100021247 4.01528095e-10 -3.831609393e-09)
(0.01100017095 -2.336148388e-09 1.384764186e-09)
(0.01100012081 -2.85185523e-09 3.650153874e-09)
(0.01100007042 -4.192055073e-09 7.574083153e-09)
(0.01100002223 -5.229228648e-09 8.046483282e-09)
(0.01099997677 -4.542230945e-09 8.241449462e-09)
(0.01099992779 -4.159266607e-09 9.915086484e-09)
(0.01099988798 -3.504723949e-09 9.097404512e-09)
(0.01099984771 -4.569484444e-09 8.76206253e-09)
(0.01100016152 -6.179663768e-08 -9.647266963e-08)
(0.01100028671 -1.402683108e-08 -3.900630388e-08)
(0.01100026296 -1.78991163e-08 -4.00346185e-08)
(0.01100026271 -7.642447247e-09 -2.29913637e-08)
(0.01100021937 -1.2805387e-09 -1.192483256e-08)
(0.01100016851 -1.034629745e-09 -6.342029292e-09)
(0.01100010935 5.006733645e-09 2.702043739e-09)
(0.0110000487 6.688422254e-09 5.250965419e-09)
(0.01099998748 6.089061019e-09 8.064925236e-09)
(0.01099993106 7.610268779e-09 1.028392741e-08)
(0.01099988574 9.203097863e-09 1.234683075e-08)
(0.01099983929 7.232999558e-09 1.183406631e-08)
(0.01099979422 7.032848988e-09 1.059785057e-08)
(0.01099975868 7.225467294e-09 1.205384592e-08)
(0.01099972254 8.439779334e-09 9.800592375e-09)
(0.01100015532 -2.694366231e-07 -1.583856407e-07)
(0.01100030379 -9.717040334e-08 -3.636732828e-08)
(0.01100018848 -7.922834813e-08 -5.332712982e-08)
(0.01100014699 -3.661743491e-08 -2.754813815e-08)
(0.01100006065 -1.069638162e-08 -9.685179526e-09)
(0.01099997813 3.00350897e-09 6.878674905e-12)
(0.01099990635 1.328458409e-08 7.513015647e-09)
(0.01099983847 1.684215715e-08 1.181213961e-08)
(0.01099978308 1.965647949e-08 1.516624764e-08)
(0.01099973948 2.068675635e-08 1.415595945e-08)
(0.01099970056 1.958463357e-08 1.486831595e-08)
(0.01099966924 1.864850091e-08 1.429466845e-08)
(0.01099964363 1.487294099e-08 1.24474303e-08)
(0.01099962546 1.489322324e-08 1.2156914e-08)
(0.0109996056 1.499412727e-08 1.009359935e-08)
(0.01100031504 -6.012998862e-08 -6.158761025e-08)
(0.01099997291 -7.84995546e-08 -7.915851292e-08)
(0.01099983683 -2.25212035e-08 -2.257732468e-08)
(0.01099967094 7.336349157e-09 8.457884829e-09)
(0.0109995588 2.05302667e-08 2.005543605e-08)
(0.01099948033 2.865036968e-08 2.776614936e-08)
(0.01099943416 2.981750258e-08 2.801658161e-08)
(0.01099940583 2.826047965e-08 2.663546559e-08)
(0.01099939202 2.672220709e-08 2.524762482e-08)
(0.01099938941 2.222166315e-08 2.211564286e-08)
(0.01099939387 1.968366137e-08 1.781484142e-08)
(0.010999398 1.748446425e-08 1.464026357e-08)
(0.01099940875 1.796915465e-08 1.61554886e-08)
(0.01099941411 1.584224769e-08 1.235679827e-08)
(0.01100003378 -3.837094909e-08 6.806865115e-08)
(0.01099932735 -5.989968999e-09 -1.016422744e-07)
(0.01099917937 3.940166819e-08 -4.389624795e-09)
(0.0109990177 5.171745348e-08 3.848150471e-08)
(0.01099894484 4.383185158e-08 4.709624604e-08)
(0.01099893668 3.605408987e-08 4.910935663e-08)
(0.01099895082 2.996680105e-08 4.465900615e-08)
(0.01099898861 2.330956912e-08 3.622884869e-08)
(0.01099903265 1.867481423e-08 3.136775471e-08)
(0.01099908029 1.693425126e-08 2.830892755e-08)
(0.01099912266 1.43340282e-08 2.471992543e-08)
(0.01099916663 1.235595415e-08 1.985419112e-08)
(0.010999206 1.326343591e-08 2.097666499e-08)
(0.01099924029 1.041824486e-08 1.712369617e-08)
(0.01100013714 -1.296731499e-09 4.701651074e-07)
(0.01099872092 6.460164263e-10 2.609632622e-08)
(0.01099861026 1.644007603e-09 8.769989009e-08)
(0.01099852956 1.304245382e-09 1.039553128e-07)
(0.01099854497 1.711123597e-09 8.542597301e-08)
(0.01099861616 -1.935573417e-10 6.90612831e-08)
(0.0109986983 -5.462157349e-10 5.439689302e-08)
(0.01099878262 2.827220769e-09 4.232831296e-08)
(0.01099886498 2.743365195e-09 3.347274062e-08)
(0.01099894231 7.618264549e-10 2.753213429e-08)
(0.01099900772 8.352972675e-10 2.538580303e-08)
(0.01099907104 1.366081147e-09 1.915686885e-08)
(0.01099911928 3.513956566e-09 2.063778613e-08)
(0.01099917051 9.789800515e-10 1.702845986e-08)
(0.01100003705 3.740544848e-08 6.626207347e-08)
(0.01099932862 6.147132033e-09 -1.015103592e-07)
(0.01099918231 -3.787481587e-08 -6.896687499e-09)
(0.01099901541 -4.89807235e-08 3.916724924e-08)
(0.01099894506 -4.199742525e-08 4.899740998e-08)
(0.01099893164 -3.587138952e-08 5.119747772e-08)
(0.01099895274 -2.821021411e-08 4.456569585e-08)
(0.0109989892 -2.207339401e-08 3.989076442e-08)
(0.01099903193 -1.88120214e-08 3.246505205e-08)
(0.0109990755 -1.624816316e-08 2.720752564e-08)
(0.01099912293 -1.280678872e-08 2.592485676e-08)
(0.01099916536 -1.137965127e-08 2.157572078e-08)
(0.01099920422 -1.151501629e-08 2.239481709e-08)
(0.01099923853 -1.013062841e-08 1.826091805e-08)
(0.0110003156 6.180135571e-08 -6.272548617e-08)
(0.01099997693 7.950048464e-08 -8.003437498e-08)
(0.01099983595 2.219073651e-08 -2.395152498e-08)
(0.01099967338 -7.660088419e-09 9.163724141e-09)
(0.01099955265 -1.946902685e-08 2.267025221e-08)
(0.01099947875 -2.56364735e-08 2.916231588e-08)
(0.01099943332 -2.764772315e-08 2.966059836e-08)
(0.01099940558 -2.836408075e-08 2.815488687e-08)
(0.01099938922 -2.375741316e-08 2.537066878e-08)
(0.01099938921 -2.03789117e-08 2.056249997e-08)
(0.01099939186 -1.936594497e-08 2.123532774e-08)
(0.01099939838 -1.746181743e-08 1.995207876e-08)
(0.01099940359 -2.011759205e-08 1.910692806e-08)
(0.01099941544 -1.753394821e-08 1.334369903e-08)
(0.01100030393 9.82585201e-08 -3.744471915e-08)
(0.01100019397 7.79194345e-08 -5.097088394e-08)
(0.01100014923 3.713005175e-08 -2.964974754e-08)
(0.01100006066 1.003037444e-08 -1.182775156e-08)
(0.01099997751 -2.601492745e-09 1.512509152e-09)
(0.01099990279 -1.242755851e-08 9.995532059e-09)
(0.01099983769 -1.781198044e-08 1.28721369e-08)
(0.01099978324 -1.927292089e-08 1.376134278e-08)
(0.01099973639 -1.87458118e-08 1.467155404e-08)
(0.01099969825 -1.736489798e-08 1.298009935e-08)
(0.01099966891 -1.719051925e-08 1.511925154e-08)
(0.01099964291 -1.623098032e-08 1.35108745e-08)
(0.01099962227 -1.692430617e-08 1.563373078e-08)
(0.01099960367 -1.426637543e-08 1.185597815e-08)
(0.01100028821 1.813201884e-08 -3.877778661e-08)
(0.0110002644 1.963733171e-08 -3.948521146e-08)
(0.01100026479 1.10500305e-08 -2.518733812e-08)
(0.01100022144 4.191025261e-09 -1.45009508e-08)
(0.01100016638 -2.195878517e-09 -6.174383528e-09)
(0.01100010913 -4.197462663e-09 9.225059143e-10)
(0.01100004763 -4.306158841e-09 4.36074867e-09)
(0.0109999894 -5.401882285e-09 6.375310264e-09)
(0.01099993134 -6.117970218e-09 9.719804899e-09)
(0.01099987953 -6.612347913e-09 1.039287134e-08)
(0.0109998364 -6.271948204e-09 1.237770073e-08)
(0.01099979559 -5.856434228e-09 1.061987433e-08)
(0.01099976012 -5.448328915e-09 1.178473098e-08)
(0.0109997267 -4.950334752e-09 1.090381067e-08)
(0.01100016599 -8.774120564e-08 -1.586693195e-07)
(0.01100029855 -5.006030177e-09 -5.566184481e-08)
(0.01100021699 -2.26906857e-08 -3.48276037e-08)
(0.0110001972 -9.013453394e-09 -1.44326128e-08)
(0.0110001305 -9.932900058e-10 -5.287524743e-09)
(0.01100005528 6.708422982e-09 1.281197726e-09)
(0.01099998178 8.347945213e-09 4.208499449e-09)
(0.01099991382 1.085033213e-08 6.264414776e-09)
(0.0109998476 1.068530585e-08 6.767283227e-09)
(0.01099979243 8.686730741e-09 6.980788679e-09)
(0.01099974219 8.052448091e-09 6.202918127e-09)
(0.01099970409 7.775871e-09 7.313067713e-09)
(0.01099966937 5.698509345e-09 6.90322064e-09)
(0.0109996413 5.875242052e-09 8.932880228e-09)
(0.01099961409 6.074119152e-09 6.497532261e-09)
(0.01100015784 -4.118148812e-07 -3.229288017e-07)
(0.01100026791 -7.345576953e-08 -4.965774998e-08)
(0.0110000088 -8.643664619e-08 -3.224998115e-08)
(0.01099993977 -2.8027346e-08 -6.735110656e-09)
(0.0109998232 4.65857369e-09 6.627952413e-09)
(0.01099972301 1.98621821e-08 1.253995247e-08)
(0.01099964888 2.730680464e-08 1.501730121e-08)
(0.01099959008 2.972119688e-08 1.428395844e-08)
(0.0109995475 2.895720936e-08 1.303139099e-08)
(0.01099951965 2.751375867e-08 1.280936637e-08)
(0.01099949987 2.478315985e-08 1.006421343e-08)
(0.01099948606 2.129707912e-08 9.922180178e-09)
(0.01099947659 1.726832101e-08 9.025106683e-09)
(0.01099947315 1.784338944e-08 9.829679991e-09)
(0.01099947349 1.679019687e-08 8.080630899e-09)
(0.01099999577 -5.636164271e-07 -9.348245754e-07)
(0.01100003317 6.884140312e-08 -4.044612685e-08)
(0.01099932327 -9.889545433e-08 -8.216648474e-09)
(0.01099918027 -3.504522027e-09 3.666015933e-08)
(0.01099901696 4.026323056e-08 4.897090546e-08)
(0.01099894455 5.016722715e-08 4.546267877e-08)
(0.01099893221 5.07181494e-08 3.509016059e-08)
(0.01099895191 4.652935363e-08 2.852921786e-08)
(0.01099898804 3.750200971e-08 2.284311472e-08)
(0.01099903144 3.48313001e-08 1.879008034e-08)
(0.01099907754 2.774081055e-08 1.366828399e-08)
(0.01099912327 2.386900725e-08 1.397199954e-08)
(0.01099916564 2.020029944e-08 1.182023012e-08)
(0.01099920452 2.353807253e-08 1.221592479e-08)
(0.01099923846 1.98977907e-08 9.787212731e-09)
(0.01099841979 4.826427005e-07 4.814541405e-07)
(0.01099726273 7.523602418e-08 7.480950639e-08)
(0.01099752055 1.08381958e-07 1.068342229e-07)
(0.01099758879 1.096149974e-07 1.091692684e-07)
(0.01099776504 8.094969955e-08 8.12643834e-08)
(0.01099797451 6.011594256e-08 5.889665123e-08)
(0.01099817287 4.265674801e-08 4.338872755e-08)
(0.01099835542 3.306541592e-08 3.13486982e-08)
(0.01099851094 2.412749762e-08 2.480333236e-08)
(0.01099865022 1.753632674e-08 1.997198315e-08)
(0.01099876589 1.732690496e-08 1.732452986e-08)
(0.01099886805 1.485891737e-08 1.283700206e-08)
(0.01099895311 1.582773711e-08 1.413420654e-08)
(0.01099903033 1.21108259e-08 1.174416497e-08)
(0.01099661965 -9.321696606e-10 3.084193572e-06)
(0.01099436225 -3.251914824e-12 8.608398782e-07)
(0.01099574549 -3.271183012e-10 3.972907048e-07)
(0.01099638611 5.120767219e-10 2.49045758e-07)
(0.0109969305 3.919343592e-10 1.385878818e-07)
(0.01099739227 -1.148673929e-09 7.989860313e-08)
(0.01099775374 -3.496993452e-10 4.977192873e-08)
(0.01099804037 1.982827648e-09 3.364928803e-08)
(0.01099826981 -2.106596864e-11 2.371562471e-08)
(0.0109984596 3.613422894e-10 1.798413854e-08)
(0.01099861306 1.640651194e-09 1.397756806e-08)
(0.01099874353 1.167013913e-09 1.222526711e-08)
(0.01099884736 1.139204733e-09 1.466125716e-08)
(0.01099894432 1.481991223e-09 1.052214712e-08)
(0.01099841975 -4.839949025e-07 4.829270503e-07)
(0.01099726339 -7.59289762e-08 7.424788596e-08)
(0.01099752312 -1.07895273e-07 1.080413718e-07)
(0.01099759192 -1.070680142e-07 1.08582147e-07)
(0.01099776347 -8.063691171e-08 7.996900176e-08)
(0.01099797381 -5.802485062e-08 5.899572753e-08)
(0.01099817641 -4.302995863e-08 4.267317359e-08)
(0.01099835632 -3.302980822e-08 3.218817909e-08)
(0.01099851196 -2.412850296e-08 2.384765557e-08)
(0.01099864969 -1.877706672e-08 1.684712539e-08)
(0.01099876395 -1.558368105e-08 1.498620586e-08)
(0.01099886826 -1.363658073e-08 1.235373284e-08)
(0.01099895176 -1.442820582e-08 1.357888217e-08)
(0.01099902901 -1.31197541e-08 1.091672256e-08)
(0.01100003651 -6.878898425e-08 -3.767288579e-08)
(0.01099932651 1.010511552e-07 -6.56102781e-09)
(0.01099917984 3.554833957e-09 3.760514744e-08)
(0.0109990148 -3.971931371e-08 4.847302449e-08)
(0.01099894294 -4.693980411e-08 4.229812255e-08)
(0.01099893133 -4.833574179e-08 3.765690298e-08)
(0.01099895109 -4.401628944e-08 2.890729598e-08)
(0.01099898784 -3.871948036e-08 2.172288628e-08)
(0.0109990302 -3.262134733e-08 1.875176678e-08)
(0.01099908054 -2.62836701e-08 1.631188192e-08)
(0.01099912143 -2.412201224e-08 1.369507798e-08)
(0.01099916619 -1.928457376e-08 1.209456803e-08)
(0.01099920292 -2.103911456e-08 1.112092672e-08)
(0.01099923893 -1.744133874e-08 9.420153537e-09)
(0.01100027136 7.563064321e-08 -4.649789777e-08)
(0.01100001047 8.764790261e-08 -2.911277242e-08)
(0.01099993907 2.755365113e-08 -5.712312123e-09)
(0.01099982327 -4.880755147e-09 7.318513856e-09)
(0.01099972236 -2.014520871e-08 1.125642002e-08)
(0.01099964573 -2.742177732e-08 1.459188907e-08)
(0.01099958916 -2.986746654e-08 1.373722651e-08)
(0.0109995485 -2.963701001e-08 1.109727372e-08)
(0.01099951771 -2.67469284e-08 1.008982987e-08)
(0.01099949929 -2.349977694e-08 1.004465224e-08)
(0.01099948528 -2.139647913e-08 1.003459605e-08)
(0.01099947634 -1.879826858e-08 9.0622738e-09)
(0.01099947212 -1.971666106e-08 9.698889191e-09)
(0.01099946937 -1.630135868e-08 7.491559575e-09)
(0.01100030214 7.132185024e-09 -5.313368144e-08)
(0.01100021821 2.310233579e-08 -3.331354947e-08)
(0.01100019834 1.027637432e-08 -1.474247164e-08)
(0.01100012922 3.114533949e-10 -4.851231337e-09)
(0.01100005508 -5.432350228e-09 -1.45546878e-10)
(0.01099998145 -9.007425412e-09 4.63122946e-09)
(0.01099991109 -9.06919183e-09 6.062883366e-09)
(0.01099984882 -8.128711116e-09 7.137486853e-09)
(0.01099979179 -7.731806331e-09 6.475211255e-09)
(0.01099974244 -7.972677384e-09 6.614465778e-09)
(0.01099970313 -7.182537313e-09 6.619074273e-09)
(0.01099966778 -4.957621098e-09 7.18824017e-09)
(0.01099963875 -7.495253697e-09 6.311197159e-09)
(0.01099961737 -5.397640943e-09 7.449933107e-09)
(0.01100016294 -2.1888306e-07 -2.25974115e-09)
(0.01100038566 -6.11259531e-09 -1.851892857e-10)
(0.01100022785 -1.496017494e-08 -1.16193973e-09)
(0.01100017489 1.872732077e-09 1.709483789e-10)
(0.01100008325 1.046216731e-08 1.461107834e-09)
(0.01099999831 1.374953705e-08 -7.839199409e-10)
(0.01099991571 1.281376681e-08 -7.526217483e-10)
(0.01099984609 1.245995656e-08 7.401536661e-10)
(0.0109997832 1.272567977e-08 1.399221857e-09)
(0.01099972897 1.210916482e-08 6.72786581e-10)
(0.01099968639 8.847431955e-09 2.445758083e-09)
(0.01099964771 9.166666042e-09 8.830131399e-10)
(0.01099961729 7.332236817e-09 -1.269869957e-09)
(0.0109995905 8.409683715e-09 -1.000784448e-09)
(0.01099956905 8.536856517e-09 2.636158553e-10)
(0.01100014917 -1.02783615e-06 -2.187919303e-09)
(0.01100040738 -7.393918676e-08 -1.147297969e-09)
(0.01099991355 -4.908243928e-08 -6.063629706e-10)
(0.0109998038 1.786463236e-08 -9.042746569e-10)
(0.01099966961 4.189115673e-08 2.886246654e-10)
(0.01099957167 4.526601868e-08 -2.119710127e-09)
(0.01099950693 4.403383838e-08 -1.181070595e-09)
(0.01099946522 3.878096043e-08 2.760974432e-10)
(0.01099943784 3.318260562e-08 -2.19141352e-10)
(0.01099942045 2.927035584e-08 2.234947979e-11)
(0.01099941409 2.562532804e-08 1.457999674e-09)
(0.01099940665 2.09884225e-08 1.196090709e-09)
(0.01099940975 1.825004133e-08 2.740224659e-10)
(0.0109994115 1.968161307e-08 5.08789473e-10)
(0.01099941589 1.666305489e-08 -2.763162451e-10)
(0.01099970737 -2.00026522e-06 -1.676988764e-09)
(0.01100013707 4.720422092e-07 -2.538010309e-09)
(0.01099871815 2.975232405e-08 -1.273146663e-09)
(0.01099860795 8.897485565e-08 -7.069381281e-10)
(0.01099852838 1.060253638e-07 9.11122514e-10)
(0.01099854318 8.665707197e-08 -1.256910771e-09)
(0.01099861505 6.98877373e-08 4.208471682e-10)
(0.01099869832 5.535465128e-08 4.049680282e-10)
(0.01099878352 4.338021278e-08 -9.719474812e-10)
(0.01099886301 3.561030647e-08 9.975609971e-10)
(0.01099894198 2.715136929e-08 3.380588444e-10)
(0.01099900796 2.416472155e-08 1.38036455e-09)
(0.01099906931 2.000387102e-08 -9.835762103e-10)
(0.01099912144 2.158632693e-08 -7.506666381e-10)
(0.01099916791 1.934026118e-08 -1.299572929e-09)
(0.01099584844 -9.317520635e-06 -4.630583627e-10)
(0.01099661863 3.084020158e-06 -7.369422902e-10)
(0.01099435765 8.611897857e-07 -6.820928518e-10)
(0.01099574326 3.97530034e-07 3.03116904e-10)
(0.01099638602 2.502062148e-07 -1.63256555e-10)
(0.01099692702 1.370781824e-07 9.813159337e-10)
(0.01099739167 7.935793491e-08 -1.497541128e-09)
(0.01099775288 5.087019749e-08 -1.884001811e-09)
(0.01099804006 3.298624661e-08 3.238388218e-10)
(0.01099827485 2.291947266e-08 1.499324624e-09)
(0.01099845851 1.821397258e-08 -9.509060751e-10)
(0.01099861174 1.563683478e-08 8.25355076e-10)
(0.01099874472 1.336435249e-08 8.201548593e-10)
(0.01099884579 1.553714724e-08 4.621806054e-11)
(0.0109989442 1.059933415e-08 -2.461437787e-10)
(0.01099182445 2.418161956e-10 -2.253371913e-09)
(0.01098523538 -5.262619569e-10 -1.254309013e-09)
(0.01099165265 9.908677464e-10 -1.39979171e-09)
(0.01099423724 1.33747407e-09 7.760680042e-11)
(0.01099565166 1.639713381e-11 1.807678273e-10)
(0.01099659332 -3.831049139e-10 -8.957122789e-10)
(0.01099721916 -1.201897274e-09 -1.223339552e-09)
(0.01099766544 1.141279277e-09 -5.916627176e-10)
(0.01099799341 2.47007991e-10 -6.193863738e-10)
(0.01099824438 -1.604716265e-09 -2.354316363e-09)
(0.01099844538 6.59182224e-10 -6.882569845e-11)
(0.01099860795 1.520278822e-09 -6.120451705e-10)
(0.0109987323 2.067830914e-10 -1.636689761e-09)
(0.01099885909 1.278125076e-09 -5.867711898e-10)
(0.01099662139 -3.084365963e-06 2.467279695e-10)
(0.01099436262 -8.612105277e-07 6.155328383e-10)
(0.0109957439 -3.970729978e-07 -2.720267785e-10)
(0.01099638523 -2.491014964e-07 -1.901661187e-10)
(0.01099692872 -1.373966169e-07 -1.214520962e-09)
(0.01099739026 -7.779078315e-08 3.47390262e-10)
(0.01099775388 -4.866001457e-08 3.197555325e-10)
(0.01099803938 -3.337559756e-08 -1.922113338e-09)
(0.01099827119 -2.278497517e-08 -7.647394233e-10)
(0.0109984601 -1.806040644e-08 -2.336373531e-09)
(0.01099861444 -1.558809454e-08 -2.462867394e-09)
(0.01099874618 -1.295632772e-08 -8.693795047e-10)
(0.01099884511 -1.316304964e-08 -2.798161263e-09)
(0.01099894312 -1.136453628e-08 -3.152184935e-09)
(0.01100013688 -4.700484143e-07 1.069656951e-09)
(0.01099871665 -2.631579886e-08 -2.143099648e-10)
(0.01099860729 -8.940950783e-08 -1.043066615e-09)