/*--------------------------------*- C++ -*----------------------------------*\
| =========                 |                                                 |
| \\      /  F ield         | OpenFOAM: The Open Source CFD Toolbox           |
|  \\    /   O peration     | Version:  4.x                                   |
|   \\  /    A nd           | Web:      www.OpenFOAM.org                      |
|    \\/     M anipulation  |                                                 |
\*---------------------------------------------------------------------------*/
FoamFile
{
    version     2.0;
    format      ascii;
    class       volScalarField;
    location    "6000";
    object      X_CO;
}
// * * * * * * * * * * * * * * * * * * * * * * * * * * * * * * * * * * * * * //

dimensions      [0 0 0 0 0 0 0];

internalField   nonuniform List<scalar> 
1174
(
0.3299569518
0.3299554989
0.3299534502
0.3299507819
0.329947524
0.3299437497
0.3299395606
0.3299350717
0.329930399
0.3299256514
0.3299209291
0.3299163385
0.3299120674
0.3299087156
0.3299555905
0.3299532666
0.3299501766
0.3299463941
0.329942051
0.329937306
0.3299323197
0.3299272376
0.329922182
0.3299172498
0.3299125175
0.3299080586
0.3299040149
0.3299008972
0.3299525872
0.3299484884
0.329943425
0.3299376847
0.3299315771
0.329925379
0.3299193085
0.3299135202
0.3299081115
0.3299031348
0.3298986115
0.3298945541
0.3298910266
0.3298883883
0.3299481941
0.3299418371
0.3299345511
0.3299268707
0.3299192395
0.3299119745
0.3299052725
0.3298992335
0.3298938876
0.3298892187
0.3298851849
0.3298817388
0.3298788733
0.3298768018
0.3299450634
0.3299374696
0.3299291987
0.3299208343
0.3299127965
0.3299053525
0.3298986458
0.3298927306
0.3298875996
0.329883208
0.3298794914
0.3298763832
0.3298738522
0.3298720532
0.3299481942
0.3299418372
0.3299345513
0.3299268709
0.3299192397
0.3299119748
0.3299052728
0.3298992338
0.3298938879
0.329889219
0.3298851852
0.3298817391
0.3298788736
0.3298768021
0.3299525873
0.3299484885
0.3299434251
0.3299376848
0.3299315773
0.3299253792
0.3299193087
0.3299135205
0.3299081119
0.3299031352
0.3298986119
0.3298945546
0.3298910271
0.3298883887
0.3299555905
0.3299532667
0.3299501767
0.3299463943
0.3299420511
0.3299373062
0.3299323199
0.3299272379
0.3299221823
0.3299172502
0.3299125179
0.329908059
0.3299040154
0.3299008978
0.3299569519
0.3299554989
0.3299534503
0.329950782
0.3299475241
0.3299437498
0.3299395608
0.3299350719
0.3299303993
0.3299256517
0.3299209295
0.3299163389
0.3299120679
0.3299087161
0.329957162
0.3299555905
0.3299532666
0.3299501767
0.3299463942
0.329942051
0.3299373061
0.3299323198
0.3299272377
0.329922182
0.3299172499
0.3299125175
0.3299080586
0.3299040149
0.3299008973
0.3299525274
0.3299484571
0.3299435017
0.3299379609
0.3299321339
0.3299262719
0.3299205607
0.329915124
0.3299100341
0.3299053261
0.3299010123
0.3298971032
0.3298936673
0.3298910741
0.329944832
0.3299369434
0.3299283845
0.3299198802
0.3299119242
0.3299047831
0.3298985516
0.3298932133
0.3298886918
0.3298848857
0.3298816903
0.3298790157
0.3298768194
0.3298752411
0.3299311806
0.3299180911
0.3299056699
0.3298948414
0.3298859225
0.3298788631
0.3298734368
0.3298693603
0.329866357
0.3298641848
0.3298626442
0.3298615769
0.3298608632
0.329860438
0.3299183272
0.3299025997
0.3298893023
0.3298787747
0.3298707985
0.3298649593
0.3298608191
0.3298579863
0.3298561368
0.329855013
0.3298544153
0.3298541885
0.3298542044
0.3298543254
0.3299311807
0.3299180913
0.3299056701
0.3298948416
0.3298859227
0.3298788634
0.3298734371
0.3298693606
0.3298663573
0.3298641851
0.3298626445
0.3298615772
0.3298608636
0.3298604384
0.3299448322
0.3299369435
0.3299283847
0.3299198804
0.3299119244
0.3299047835
0.3298985519
0.3298932137
0.3298886923
0.3298848861
0.3298816908
0.3298790162
0.32987682
0.3298752417
0.3299525275
0.3299484572
0.3299435019
0.3299379611
0.3299321342
0.3299262721
0.329920561
0.3299151243
0.3299100345
0.3299053266
0.3299010128
0.3298971038
0.3298936679
0.3298910747
0.3299555905
0.3299532667
0.3299501767
0.3299463943
0.3299420512
0.3299373063
0.32993232
0.3299272379
0.3299221824
0.3299172503
0.329912518
0.3299080592
0.3299040155
0.329900898
0.3299555393
0.3299525873
0.3299484885
0.3299434251
0.3299376848
0.3299315772
0.3299253791
0.3299193086
0.3299135203
0.3299081117
0.329903135
0.3298986116
0.3298945543
0.3298910268
0.3298883884
0.3299512136
0.3299448321
0.3299369435
0.3299283846
0.3299198803
0.3299119243
0.3299047833
0.3298985517
0.3298932134
0.329888692
0.3298848858
0.3298816904
0.3298790158
0.3298768195
0.3298752412
0.3299221425
0.3299055485
0.329890558
0.329878297
0.3298689875
0.3298623483
0.3298578959
0.32985512
0.3298535676
0.3298528715
0.32985275
0.3298529918
0.3298534276
0.3298538625
0.3298717709
0.3298438263
0.3298246208
0.32981334
0.3298080935
0.3298069873
0.3298084988
0.3298115284
0.3298153323
0.329819431
0.3298235263
0.3298274274
0.3298309522
0.3298336484
0.3298059293
0.3297782177
0.3297664169
0.3297644484
0.3297679834
0.3297743034
0.3297818015
0.3297895657
0.3297971007
0.3298041542
0.3298106106
0.3298164132
0.3298214558
0.3298252231
0.3298717718
0.3298438271
0.3298246216
0.3298133408
0.3298080942
0.329806988
0.3298084995
0.329811529
0.3298153328
0.3298194316
0.3298235269
0.3298274279
0.3298309527
0.3298336488
0.3299221432
0.3299055491
0.3298905586
0.3298782977
0.3298689881
0.329862349
0.3298578966
0.3298551208
0.3298535683
0.3298528722
0.3298527507
0.3298529925
0.3298534284
0.3298538633
0.3299448322
0.3299369436
0.3299283848
0.3299198806
0.3299119246
0.3299047837
0.3298985522
0.3298932139
0.3298886926
0.3298848865
0.3298816911
0.3298790166
0.3298768203
0.329875242
0.3299525873
0.3299484885
0.3299434252
0.3299376849
0.3299315774
0.3299253794
0.329919309
0.3299135207
0.3299081122
0.3299031355
0.3298986123
0.329894555
0.3298910276
0.3298883893
0.3299531061
0.3299481943
0.3299418373
0.3299345514
0.329926871
0.3299192398
0.3299119748
0.3299052728
0.3298992339
0.3298938879
0.329889219
0.3298851852
0.329881739
0.3298788736
0.3298768021
0.3299432448
0.3299311807
0.3299180914
0.3299056701
0.3298948416
0.3298859228
0.3298788634
0.3298734371
0.3298693605
0.3298663572
0.329864185
0.3298626444
0.3298615771
0.3298608634
0.3298604382
0.3299059665
0.3298717712
0.3298438266
0.3298246211
0.3298133403
0.3298080937
0.3298069875
0.329808499
0.3298115286
0.3298153324
0.3298194311
0.3298235265
0.3298274275
0.3298309523
0.3298336485
0.3296993539
0.3296643811
0.3296588084
0.329669109
0.329686455
0.3297058792
0.3297248732
0.3297423247
0.3297578562
0.3297714483
0.3297832337
0.3297933711
0.3298018824
0.3298080939
0.3293615757
0.3294061886
0.3294742975
0.329539465
0.329594769
0.3296398427
0.3296761757
0.3297055073
0.3297293492
0.3297488968
0.3297650572
0.3297784788
0.3297894661
0.3297973567
0.3296993569
0.3296643831
0.3296588101
0.3296691105
0.3296864563
0.3297058804
0.3297248742
0.3297423256
0.329757857
0.3297714491
0.3297832344
0.3297933718
0.329801883
0.3298080945
0.3298717717
0.3298438273
0.329824622
0.3298133413
0.3298080949
0.3298069886
0.3298085002
0.3298115297
0.3298153335
0.3298194322
0.3298235275
0.3298274285
0.3298309533
0.3298336494
0.3299311807
0.3299180915
0.3299056703
0.329894842
0.3298859233
0.329878864
0.3298734378
0.3298693614
0.3298663581
0.3298641859
0.3298626453
0.3298615781
0.3298608644
0.3298604392
0.3299481942
0.3299418373
0.3299345514
0.3299268711
0.32991924
0.3299119752
0.3299052733
0.3298992344
0.3298938886
0.3298892198
0.329885186
0.3298817399
0.3298788745
0.3298768031
0.3299512842
0.3299450636
0.3299374699
0.329929199
0.3299208346
0.3299127969
0.3299053528
0.3298986462
0.3298927309
0.3298875999
0.3298832084
0.3298794918
0.3298763836
0.3298738525
0.3298720536
0.3299349447
0.3299183274
0.3299026001
0.3298893027
0.3298787751
0.3298707989
0.3298649597
0.3298608195
0.3298579867
0.3298561371
0.3298550134
0.3298544156
0.3298541888
0.3298542047
0.3298543257
0.3298553289
0.3298059297
0.3297782184
0.3297664176
0.329764449
0.3297679839
0.3297743039
0.3297818019
0.329789566
0.329797101
0.3298041545
0.3298106108
0.3298164134
0.3298214561
0.3298252233
0.3294211321
0.3293615778
0.3294061901
0.3294742985
0.3295394657
0.3295947695
0.3296398431
0.329676176
0.3297055076
0.3297293494
0.329748897
0.3297650574
0.3297784789
0.3297894663
0.3297973568
0.3279073056
0.3286488663
0.3290588831
0.3292986819
0.3294471143
0.3295441731
0.3296109293
0.3296589344
0.3296947839
0.3297223997
0.3297442017
0.3297617016
0.3297756794
0.3297855641
0.3293615756
0.3294061916
0.3294743006
0.3295394677
0.3295947713
0.3296398446
0.3296761773
0.3297055088
0.3297293505
0.3297488979
0.3297650583
0.3297784797
0.329789467
0.3297973575
0.3298059294
0.3297782188
0.3297664185
0.3297644502
0.3297679852
0.3297743053
0.3297818032
0.3297895673
0.3297971022
0.3298041557
0.329810612
0.3298164145
0.3298214571
0.3298252243
0.3299183272
0.3299026001
0.329889303
0.3298787756
0.3298707996
0.3298649605
0.3298608204
0.3298579877
0.3298561382
0.3298550145
0.3298544167
0.32985419
0.3298542058
0.3298543268
0.3299450634
0.3299374698
0.3299291991
0.3299208348
0.3299127972
0.3299053533
0.3298986468
0.3298927316
0.3298876007
0.3298832093
0.3298794928
0.3298763846
0.3298738536
0.3298720547
0.3299531062
0.3299481943
0.3299418374
0.3299345515
0.3299268712
0.3299192401
0.3299119751
0.3299052731
0.3298992342
0.3298938882
0.3298892194
0.3298851855
0.3298817394
0.329878874
0.3298768025
0.329943245
0.329931181
0.3299180917
0.3299056705
0.3298948421
0.3298859232
0.3298788639
0.3298734376
0.3298693611
0.3298663577
0.3298641855
0.3298626449
0.3298615776
0.3298608639
0.3298604387
0.3299059677
0.3298717724
0.329843828
0.3298246225
0.3298133416
0.3298080949
0.3298069886
0.3298085
0.3298115295
0.3298153333
0.329819432
0.3298235272
0.3298274283
0.3298309531
0.3298336492
0.3297783102
0.3296993588
0.329664385
0.3296588115
0.3296691116
0.3296864572
0.3297058811
0.3297248748
0.3297423261
0.3297578575
0.3297714494
0.3297832347
0.3297933721
0.3298018833
0.3298080947
0.3294211327
0.3293615788
0.3294061937
0.3294743019
0.3295394685
0.3295947718
0.329639845
0.3296761776
0.329705509
0.3297293506
0.3297488981
0.3297650584
0.3297784798
0.3297894671
0.3297973576
0.3297783095
0.3296993592
0.3296643859
0.3296588126
0.3296691128
0.3296864583
0.3297058822
0.3297248758
0.329742327
0.3297578583
0.3297714502
0.3297832355
0.3297933728
0.329801884
0.3298080954
0.3298717709
0.3298438274
0.3298246226
0.3298133421
0.3298080957
0.3298069895
0.3298085011
0.3298115306
0.3298153344
0.3298194331
0.3298235283
0.3298274293
0.3298309541
0.3298336501
0.3299311805
0.3299180914
0.3299056705
0.3298948423
0.3298859236
0.3298788645
0.3298734383
0.3298693619
0.3298663586
0.3298641865
0.3298626459
0.3298615786
0.329860865
0.3298604398
0.3299481941
0.3299418373
0.3299345515
0.3299268713
0.3299192402
0.3299119754
0.3299052736
0.3298992348
0.329893889
0.3298892202
0.3298851864
0.3298817404
0.329878875
0.3298768036
0.3299555393
0.3299525874
0.3299484886
0.3299434253
0.3299376851
0.3299315775
0.3299253795
0.329919309
0.3299135208
0.3299081122
0.3299031355
0.3298986122
0.3298945549
0.3298910274
0.3298883891
0.3299512138
0.3299448324
0.3299369438
0.329928385
0.3299198808
0.3299119248
0.3299047839
0.3298985523
0.3298932141
0.3298886927
0.3298848865
0.3298816912
0.3298790166
0.3298768203
0.329875242
0.3299379974
0.3299221435
0.3299055496
0.329890559
0.3298782981
0.3298689886
0.3298623495
0.3298578971
0.3298551212
0.3298535688
0.3298528726
0.3298527511
0.3298529929
0.3298534288
0.3298538636
0.3299059677
0.3298717726
0.3298438284
0.329824623
0.3298133423
0.3298080957
0.3298069894
0.3298085008
0.3298115303
0.329815334
0.3298194327
0.3298235279
0.3298274289
0.3298309537
0.3298336498
0.3298553295
0.3298059313
0.3297782206
0.32976642
0.3297644513
0.3297679861
0.329774306
0.3297818038
0.3297895678
0.3297971026
0.3298041561
0.3298106123
0.3298164148
0.3298214574
0.3298252246
0.3299059678
0.3298717729
0.3298438288
0.3298246235
0.3298133428
0.3298080963
0.32980699
0.3298085014
0.3298115309
0.3298153346
0.3298194332
0.3298235285
0.3298274294
0.3298309542
0.3298336503
0.329937997
0.3299221432
0.3299055495
0.3298905592
0.3298782985
0.3298689891
0.3298623501
0.3298578978
0.329855122
0.3298535695
0.3298528734
0.3298527519
0.3298529937
0.3298534296
0.3298538645
0.329944832
0.3299369436
0.3299283849
0.3299198809
0.329911925
0.3299047842
0.3298985528
0.3298932146
0.3298886933
0.3298848873
0.329881692
0.3298790174
0.3298768212
0.3298752429
0.3299525872
0.3299484885
0.3299434252
0.329937685
0.3299315776
0.3299253797
0.3299193093
0.3299135212
0.3299081127
0.3299031361
0.3298986129
0.3298945557
0.3298910283
0.32988839
0.3299571621
0.3299555906
0.3299532667
0.3299501768
0.3299463944
0.3299420513
0.3299373064
0.3299323202
0.3299272381
0.3299221826
0.3299172505
0.3299125182
0.3299080593
0.3299040157
0.3299008981
0.329955498
0.3299525276
0.3299484573
0.3299435021
0.3299379613
0.3299321344
0.3299262724
0.3299205613
0.3299151247
0.3299100349
0.3299053269
0.3299010132
0.3298971042
0.3298936683
0.3298910751
0.3299512138
0.3299448324
0.3299369439
0.3299283851
0.3299198809
0.329911925
0.3299047841
0.3298985526
0.3298932143
0.329888693
0.3298848869
0.3298816915
0.329879017
0.3298768207
0.3298752424
0.329943245
0.3299311811
0.329918092
0.3299056709
0.3298948426
0.3298859239
0.3298788646
0.3298734383
0.3298693619
0.3298663586
0.3298641864
0.3298626457
0.3298615785
0.3298608648
0.3298604396
0.3299349449
0.3299183279
0.3299026008
0.3298893037
0.3298787763
0.3298708002
0.3298649611
0.3298608209
0.3298579882
0.3298561386
0.3298550148
0.3298544171
0.3298541903
0.3298542061
0.3298543271
0.329943245
0.3299311812
0.3299180921
0.3299056711
0.3298948428
0.3298859241
0.3298788649
0.3298734387
0.3298693622
0.3298663589
0.3298641867
0.3298626461
0.3298615788
0.3298608652
0.32986044
0.3299512137
0.3299448324
0.3299369439
0.3299283852
0.3299198811
0.3299119252
0.3299047844
0.329898553
0.3298932148
0.3298886935
0.3298848874
0.3298816921
0.3298790175
0.3298768213
0.329875243
0.3299554979
0.3299525275
0.3299484572
0.329943502
0.3299379613
0.3299321345
0.3299262726
0.3299205615
0.329915125
0.3299100352
0.3299053274
0.3299010137
0.3298971047
0.3298936689
0.3298910758
0.3299555905
0.3299532666
0.3299501768
0.3299463944
0.3299420513
0.3299373065
0.3299323203
0.3299272384
0.3299221829
0.3299172509
0.3299125187
0.3299080599
0.3299040164
0.3299008988
0.3299578878
0.3299569519
0.329955499
0.3299534504
0.3299507821
0.3299475242
0.32994375
0.329939561
0.3299350722
0.3299303996
0.329925652
0.3299209298
0.3299163392
0.3299120682
0.3299087165
0.3299571621
0.3299555906
0.3299532668
0.3299501769
0.3299463944
0.3299420514
0.3299373065
0.3299323203
0.3299272382
0.3299221827
0.3299172506
0.3299125184
0.3299080595
0.3299040159
0.3299008983
0.3299555393
0.3299525874
0.3299484887
0.3299434254
0.3299376852
0.3299315777
0.3299253797
0.3299193093
0.3299135211
0.3299081125
0.3299031359
0.3298986127
0.3298945554
0.3298910279
0.3298883896
0.3299531062
0.3299481944
0.3299418375
0.3299345517
0.3299268715
0.3299192404
0.3299119756
0.3299052737
0.3298992348
0.329893889
0.3298892202
0.3298851864
0.3298817403
0.3298788749
0.3298768035
0.3299512842
0.3299450637
0.3299374701
0.3299291994
0.3299208351
0.3299127976
0.3299053537
0.3298986472
0.329892732
0.3298876011
0.3298832096
0.3298794931
0.3298763849
0.3298738539
0.329872055
0.3299531062
0.3299481944
0.3299418375
0.3299345517
0.3299268715
0.3299192405
0.3299119757
0.3299052738
0.329899235
0.3298938892
0.3298892204
0.3298851866
0.3298817406
0.3298788752
0.3298768038
0.3299555393
0.3299525874
0.3299484887
0.3299434254
0.3299376852
0.3299315778
0.3299253798
0.3299193095
0.3299135213
0.3299081128
0.3299031362
0.329898613
0.3298945558
0.3298910284
0.3298883901
0.3299571621
0.3299555906
0.3299532667
0.3299501768
0.3299463945
0.3299420514
0.3299373066
0.3299323204
0.3299272385
0.329922183
0.329917251
0.3299125188
0.32990806
0.3299040164
0.3299008989
0.3299578878
0.3299569519
0.3299554989
0.3299534503
0.3299507821
0.3299475242
0.32994375
0.3299395611
0.3299350724
0.3299303998
0.3299256523
0.3299209302
0.3299163397
0.3299120688
0.3299087171
)
;

boundaryField
{
    top
    {
        type            calculated;
        value           nonuniform List<scalar> 
127
(
0.3299578878
0.3299569519
0.3299555905
0.3299525873
0.3299481942
0.3299450634
0.3299481941
0.3299525872
0.3299555905
0.3299569519
0.3299554989
0.3299532667
0.3299484885
0.3299418373
0.3299374698
0.3299418373
0.3299484885
0.3299532666
0.3299554989
0.3299534503
0.3299501767
0.3299434252
0.3299345514
0.3299291991
0.3299345515
0.3299434252
0.3299501768
0.3299534503
0.329950782
0.3299463943
0.3299376849
0.3299268711
0.3299208348
0.3299268713
0.329937685
0.3299463944
0.3299507821
0.3299475241
0.3299420512
0.3299315774
0.32991924
0.3299127972
0.3299192402
0.3299315776
0.3299420513
0.3299475242
0.3299437498
0.3299373063
0.3299253794
0.3299119752
0.3299053533
0.3299119754
0.3299253797
0.3299373065
0.32994375
0.3299395608
0.32993232
0.329919309
0.3299052733
0.3298986468
0.3299052736
0.3299193093
0.3299323203
0.3299395611
0.3299350719
0.3299272379
0.3299135207
0.3298992344
0.3298927316
0.3298992348
0.3299135212
0.3299272384
0.3299350724
0.3299303993
0.3299221824
0.3299081122
0.3298938886
0.3298876007
0.329893889
0.3299081127
0.3299221829
0.3299303998
0.3299256517
0.3299172503
0.3299031355
0.3298892198
0.3298832093
0.3298892202
0.3299031361
0.3299172509
0.3299256523
0.3299209295
0.329912518
0.3298986123
0.329885186
0.3298794928
0.3298851864
0.3298986129
0.3299125187
0.3299209302
0.3299163389
0.3299080592
0.329894555
0.3298817399
0.3298763846
0.3298817404
0.3298945557
0.3299080599
0.3299163397
0.3299120679
0.3299040155
0.3298910276
0.3298788745
0.3298738536
0.329878875
0.3298910283
0.3299040164
0.3299120688
0.3299087161
0.329900898
0.3298883893
0.3298768031
0.3298720547
0.3298768036
0.32988839
0.3299008988
0.3299087171
)
;
    }
    bottom
    {
        type            calculated;
        value           nonuniform List<scalar> 
134
(
0.329957162
0.3299555393
0.3299531061
0.3299512842
0.3299531062
0.3299555393
0.3299571621
0.3299578878
0.3299569518
0.3299555905
0.3299525873
0.3299481943
0.3299450636
0.3299481943
0.3299525874
0.3299555906
0.3299569519
0.3299554989
0.3299532666
0.3299484885
0.3299418373
0.3299374699
0.3299418374
0.3299484886
0.3299532667
0.329955499
0.3299534502
0.3299501767
0.3299434251
0.3299345514
0.329929199
0.3299345515
0.3299434253
0.3299501768
0.3299534504
0.3299507819
0.3299463942
0.3299376848
0.329926871
0.3299208346
0.3299268712
0.3299376851
0.3299463944
0.3299507821
0.329947524
0.329942051
0.3299315772
0.3299192398
0.3299127969
0.3299192401
0.3299315775
0.3299420513
0.3299475242
0.3299437497
0.3299373061
0.3299253791
0.3299119748
0.3299053528
0.3299119751
0.3299253795
0.3299373064
0.32994375
0.3299395606
0.3299323198
0.3299193086
0.3299052728
0.3298986462
0.3299052731
0.329919309
0.3299323202
0.329939561
0.3299350717
0.3299272377
0.3299135203
0.3298992339
0.3298927309
0.3298992342
0.3299135208
0.3299272381
0.3299350722
0.329930399
0.329922182
0.3299081117
0.3298938879
0.3298875999
0.3298938882
0.3299081122
0.3299221826
0.3299303996
0.3299256514
0.3299172499
0.329903135
0.329889219
0.3298832084
0.3298892194
0.3299031355
0.3299172505
0.329925652
0.3299209291
0.3299125175
0.3298986116
0.3298851852
0.3298794918
0.3298851855
0.3298986122
0.3299125182
0.3299209298
0.3299163385
0.3299080586
0.3298945543
0.329881739
0.3298763836
0.3298817394
0.3298945549
0.3299080593
0.3299163392
0.3299120674
0.3299040149
0.3298910268
0.3298788736
0.3298738525
0.329878874
0.3298910274
0.3299040157
0.3299120682
0.3299087156
0.3299008973
0.3298883884
0.3298768021
0.3298720536
0.3298768025
0.3298883891
0.3299008981
0.3299087165
)
;
    }
    side-walls
    {
        type            calculated;
        value           nonuniform List<scalar> 
261
(
0.3299569518
0.3299555905
0.3299525872
0.3299481941
0.3299450634
0.3299481942
0.3299525873
0.3299555905
0.3299569519
0.3299554989
0.3299532666
0.3299484884
0.3299418371
0.3299374696
0.3299418372
0.3299484885
0.3299532667
0.3299554989
0.3299534502
0.3299501766
0.329943425
0.3299345511
0.3299291987
0.3299345513
0.3299434251
0.3299501767
0.3299534503
0.3299507819
0.3299463941
0.3299376847
0.3299268707
0.3299208343
0.3299268709
0.3299376848
0.3299463943
0.329950782
0.329947524
0.329942051
0.3299315771
0.3299192395
0.3299127965
0.3299192397
0.3299315773
0.3299420511
0.3299475241
0.3299437497
0.329937306
0.329925379
0.3299119745
0.3299053525
0.3299119748
0.3299253792
0.3299373062
0.3299437498
0.3299395606
0.3299323197
0.3299193085
0.3299052725
0.3298986458
0.3299052728
0.3299193087
0.3299323199
0.3299395608
0.3299350717
0.3299272376
0.3299135202
0.3298992335
0.3298927306
0.3298992338
0.3299135205
0.3299272379
0.3299350719
0.329930399
0.329922182
0.3299081115
0.3298938876
0.3298875996
0.3298938879
0.3299081119
0.3299221823
0.3299303993
0.3299256514
0.3299172498
0.3299031348
0.3298892187
0.329883208
0.329889219
0.3299031352
0.3299172502
0.3299256517
0.3299209291
0.3299125175
0.3298986115
0.3298851849
0.3298794914
0.3298851852
0.3298986119
0.3299125179
0.3299209295
0.3299163385
0.3299080586
0.3298945541
0.3298817388
0.3298763832
0.3298817391
0.3298945546
0.329908059
0.3299163389
0.3299120674
0.3299040149
0.3298910266
0.3298788733
0.3298738522
0.3298788736
0.3298910271
0.3299040154
0.3299120679
0.3299087156
0.3299008972
0.3298883883
0.3298768018
0.3298720532
0.3298768021
0.3298883887
0.3299008978
0.3299087161
0.3299578878
0.3299571621
0.3299555393
0.3299531062
0.3299512842
0.3299531062
0.3299555393
0.3299571621
0.3299578878
0.3299569519
0.3299555906
0.3299525874
0.3299481944
0.3299450637
0.3299481944
0.3299525874
0.3299555906
0.3299569519
0.329955499
0.3299532668
0.3299484887
0.3299418375
0.3299374701
0.3299418375
0.3299484887
0.3299532667
0.3299554989
0.3299534504
0.3299501769
0.3299434254
0.3299345517
0.3299291994
0.3299345517
0.3299434254
0.3299501768
0.3299534503
0.3299507821
0.3299463944
0.3299376852
0.3299268715
0.3299208351
0.3299268715
0.3299376852
0.3299463945
0.3299507821
0.3299475242
0.3299420514
0.3299315777
0.3299192404
0.3299127976
0.3299192405
0.3299315778
0.3299420514
0.3299475242
0.32994375
0.3299373065
0.3299253797
0.3299119756
0.3299053537
0.3299119757
0.3299253798
0.3299373066
0.32994375
0.329939561
0.3299323203
0.3299193093
0.3299052737
0.3298986472
0.3299052738
0.3299193095
0.3299323204
0.3299395611
0.3299350722
0.3299272382
0.3299135211
0.3298992348
0.329892732
0.329899235
0.3299135213
0.3299272385
0.3299350724
0.3299303996
0.3299221827
0.3299081125
0.329893889
0.3298876011
0.3298938892
0.3299081128
0.329922183
0.3299303998
0.329925652
0.3299172506
0.3299031359
0.3298892202
0.3298832096
0.3298892204
0.3299031362
0.329917251
0.3299256523
0.3299209298
0.3299125184
0.3298986127
0.3298851864
0.3298794931
0.3298851866
0.329898613
0.3299125188
0.3299209302
0.3299163392
0.3299080595
0.3298945554
0.3298817403
0.3298763849
0.3298817406
0.3298945558
0.32990806
0.3299163397
0.3299120682
0.3299040159
0.3298910279
0.3298788749
0.3298738539
0.3298788752
0.3298910284
0.3299040164
0.3299120688
0.3299087165
0.3299008983
0.3298883896
0.3298768035
0.329872055
0.3298768038
0.3298883901
0.3299008989
0.3299087171
)
;
    }
    inlet
    {
        type            calculated;
        value           nonuniform 0();
    }
    outlet
    {
        type            calculated;
        value           nonuniform List<scalar> 
81
(
0.3299087156
0.3299008972
0.3298883883
0.3298768018
0.3298720532
0.3298768021
0.3298883887
0.3299008978
0.3299087161
0.3299008973
0.3298910741
0.3298752411
0.329860438
0.3298543254
0.3298604384
0.3298752417
0.3298910747
0.329900898
0.3298883884
0.3298752412
0.3298538625
0.3298336484
0.3298252231
0.3298336488
0.3298538633
0.329875242
0.3298883893
0.3298768021
0.3298604382
0.3298336485
0.3298080939
0.3297973567
0.3298080945
0.3298336494
0.3298604392
0.3298768031
0.3298720536
0.3298543257
0.3298252233
0.3297973568
0.3297855641
0.3297973575
0.3298252243
0.3298543268
0.3298720547
0.3298768025
0.3298604387
0.3298336492
0.3298080947
0.3297973576
0.3298080954
0.3298336501
0.3298604398
0.3298768036
0.3298883891
0.329875242
0.3298538636
0.3298336498
0.3298252246
0.3298336503
0.3298538645
0.3298752429
0.32988839
0.3299008981
0.3298910751
0.3298752424
0.3298604396
0.3298543271
0.32986044
0.329875243
0.3298910758
0.3299008988
0.3299087165
0.3299008983
0.3298883896
0.3298768035
0.329872055
0.3298768038
0.3298883901
0.3299008989
0.3299087171
)
;
    }
    procBoundary1to0
    {
        type            processor;
        value           nonuniform List<scalar> 
97
(
0.3299578878
0.3299578878
0.3299571621
0.3299555393
0.3299531062
0.3299512843
0.3299531063
0.3299555394
0.3299571621
0.3299578879
0.3299580927
0.3299554979
0.3299554979
0.3299554979
0.3299512137
0.3299432451
0.3299349451
0.3299432452
0.3299512139
0.329955498
0.3299571621
0.3299573565
0.3299554556
0.329937997
0.329937997
0.329937997
0.3299059678
0.3298553309
0.3299059687
0.3299379978
0.3299512139
0.3299555394
0.3299562797
0.3299521097
0.3299375507
0.3297783075
0.3297783075
0.3297783075
0.3294211432
0.329778313
0.3299059686
0.3299432452
0.3299531062
0.3299555123
0.3299489593
0.3299214179
0.329812632
0.3264890302
0.3264890302
0.3264890302
0.3294211417
0.3294211417
0.3298553308
0.3299349451
0.3299512843
0.3299562797
0.3299521097
0.3299375507
0.3298953139
0.3298126316
0.3298953142
0.3299059669
0.3299059669
0.3299059669
0.329943245
0.3299531062
0.3299573565
0.3299554556
0.3299498947
0.3299375507
0.329921418
0.3299375508
0.3299498947
0.3299512136
0.3299512136
0.3299512136
0.3299555393
0.3299580927
0.3299573419
0.3299554556
0.3299521097
0.3299489593
0.3299521097
0.3299554556
0.3299573418
0.329957162
0.329957162
0.329957162
0.3299584264
0.3299580927
0.3299573565
0.3299562797
0.3299555123
0.3299562797
0.3299573565
0.3299580927
0.3299584264
)
;
    }
}


// ************************************************************************* //
