/*--------------------------------*- C++ -*----------------------------------*\
| =========                 |                                                 |
| \\      /  F ield         | OpenFOAM: The Open Source CFD Toolbox           |
|  \\    /   O peration     | Version:  4.x                                   |
|   \\  /    A nd           | Web:      www.OpenFOAM.org                      |
|    \\/     M anipulation  |                                                 |
\*---------------------------------------------------------------------------*/
FoamFile
{
    version     2.0;
    format      ascii;
    class       volScalarField;
    location    "6000";
    object      X_CO2;
}
// * * * * * * * * * * * * * * * * * * * * * * * * * * * * * * * * * * * * * //

dimensions      [0 0 0 0 0 0 0];

internalField   nonuniform List<scalar> 
1174
(
0.03999661772
0.03999807063
0.04000011918
0.04000278735
0.04000604516
0.04000981931
0.04001400815
0.04001849674
0.04002316912
0.04002791641
0.04003263837
0.04003722862
0.04004149932
0.04004485078
0.03999797902
0.04000030284
0.04000339267
0.04000717501
0.04001151797
0.04001626271
0.04002124876
0.04002633056
0.04003138587
0.04003631764
0.04004104959
0.0400455081
0.0400495514
0.04005266871
0.04000098217
0.04000508089
0.04001014414
0.04001588424
0.0400219916
0.04002818944
0.0400342596
0.04004004755
0.04004545581
0.04005043213
0.04005495502
0.04005901195
0.04006253905
0.04006517706
0.04000537522
0.04001173206
0.04001901786
0.040026698
0.04003432891
0.04004159358
0.04004829521
0.0400543338
0.04005967932
0.04006434776
0.04006838119
0.04007182684
0.04007469188
0.04007676304
0.04000850592
0.04001609953
0.0400243702
0.04003273442
0.04004077183
0.04004821554
0.04005492177
0.04006083665
0.04006596722
0.04007035832
0.04007407447
0.04007718223
0.04007971287
0.04008151147
0.04000537515
0.04001173195
0.04001901773
0.04002669784
0.04003432874
0.0400415934
0.04004829503
0.04005433361
0.04005967912
0.04006434757
0.040068381
0.04007182666
0.04007469171
0.04007676287
0.04000098211
0.04000508082
0.04001014404
0.04001588413
0.04002199146
0.04002818929
0.04003425943
0.04004004737
0.04004545561
0.04005043192
0.0400549548
0.04005901172
0.04006253881
0.04006517682
0.03999797897
0.04000030277
0.04000339259
0.04000717492
0.04001151786
0.04001626258
0.04002124861
0.04002633039
0.04003138568
0.04003631743
0.04004104936
0.04004550786
0.04004955114
0.04005266844
0.03999661768
0.03999807059
0.04000011913
0.04000278728
0.04000604508
0.04000981921
0.04001400803
0.0400184966
0.04002316896
0.04002791622
0.04003263816
0.04003722839
0.04004149907
0.04004485051
0.03999640754
0.03999797901
0.04000030282
0.04000339265
0.04000717499
0.04001151794
0.04001626267
0.04002124872
0.04002633053
0.04003138583
0.0400363176
0.04004104955
0.04004550807
0.04004955136
0.04005266867
0.04000104203
0.04000511222
0.04001006742
0.04001560805
0.04002143477
0.04002729657
0.04003300743
0.04003844381
0.04004353331
0.04004824089
0.04005255427
0.04005646293
0.04005989845
0.04006249134
0.04000873722
0.04001662572
0.04002518441
0.04003368843
0.04004164414
0.0400487848
0.040055016
0.0400603539
0.0400648749
0.04006868064
0.04007187559
0.04007454974
0.04007674563
0.04007832364
0.04002238854
0.04003547777
0.04004789878
0.04005872695
0.04006764544
0.04007470439
0.04008013026
0.04008420633
0.0400872092
0.04008938096
0.04009092113
0.04009198798
0.04009270123
0.04009312613
0.04003524199
0.04005096923
0.04006426635
0.04007479358
0.04008276936
0.04008860808
0.04009274781
0.04009558013
0.04009742923
0.04009855251
0.04009914981
0.04009937615
0.04009935989
0.04009923861
0.04002238844
0.04003547763
0.04004789863
0.04005872679
0.04006764526
0.04007470422
0.04008013009
0.04008420615
0.04008720902
0.04008938079
0.04009092096
0.04009198781
0.04009270106
0.04009312596
0.04000873709
0.04001662557
0.04002518425
0.04003368826
0.04004164396
0.04004878461
0.0400550158
0.04006035368
0.04006487467
0.04006868041
0.04007187535
0.0400745495
0.04007674537
0.04007832338
0.04000104193
0.04000511212
0.04001006731
0.04001560792
0.04002143462
0.04002729641
0.04003300725
0.0400384436
0.04004353309
0.04004824064
0.04005255401
0.04005646266
0.04005989816
0.04006249104
0.03999797897
0.04000030277
0.04000339259
0.04000717491
0.04001151784
0.04001626256
0.04002124858
0.04002633036
0.04003138564
0.04003631738
0.0400410493
0.0400455078
0.04004955107
0.04005266836
0.03999803026
0.04000098214
0.04000508084
0.04001014407
0.04001588416
0.0400219915
0.04002818934
0.04003425949
0.04004004743
0.04004545569
0.04005043201
0.0400549549
0.04005901183
0.04006253893
0.04006517695
0.0400023558
0.04000873717
0.04001662564
0.04002518431
0.04003368832
0.04004164403
0.04004878469
0.04005501589
0.04006035379
0.04006487479
0.04006868054
0.0400718755
0.04007454965
0.04007674554
0.04007832356
0.04003142639
0.04004802021
0.04006301052
0.04007527107
0.04008458023
0.04009121896
0.04009567089
0.04009844634
0.04009999832
0.04010069397
0.04010081503
0.0401005728
0.04010013655
0.04009970138
0.04008179789
0.04010974233
0.04012894743
0.04014022772
0.0401454737
0.04014657939
0.04014506731
0.04014203722
0.04013823288
0.04013413367
0.04013003791
0.04012613644
0.04012261123
0.04011991484
0.04014764023
0.04017535158
0.04018715171
0.04018911957
0.04018558387
0.04017926316
0.04017176454
0.0401639998
0.0401564643
0.04014941025
0.04014295349
0.04013715044
0.04013210743
0.04012833993
0.04008179721
0.04010974165
0.04012894681
0.04014022716
0.04014547321
0.04014657896
0.04014506692
0.04014203687
0.04013823257
0.04013413339
0.04013003765
0.04012613619
0.040122611
0.04011991462
0.04003142582
0.04004801971
0.04006301005
0.04007527062
0.04008457978
0.04009121852
0.04009567046
0.04009844592
0.04009999791
0.04010069358
0.04010081466
0.04010057244
0.04010013619
0.04009970102
0.04000873706
0.04001662552
0.04002518417
0.04003368816
0.04004164384
0.04004878447
0.04005501565
0.04006035353
0.04006487451
0.04006868024
0.04007187518
0.04007454932
0.0400767452
0.04007832321
0.04000098211
0.0400050808
0.04001014401
0.04001588408
0.04002199139
0.04002818919
0.04003425931
0.04004004722
0.04004545545
0.04005043174
0.0400549546
0.04005901151
0.04006253859
0.04006517659
0.04000046334
0.04000537513
0.04001173191
0.04001901768
0.04002669778
0.04003432868
0.04004159333
0.04004829496
0.04005433355
0.04005967906
0.04006434752
0.04006838095
0.04007182662
0.04007469167
0.04007676284
0.0400103245
0.04002238847
0.04003547762
0.04004789861
0.04005872677
0.04006764525
0.0400747042
0.04008013008
0.04008420615
0.04008720902
0.0400893808
0.04009092098
0.04009198783
0.04009270109
0.04009312599
0.04004760244
0.04008179781
0.04010974214
0.04012894724
0.04014022754
0.04014547355
0.04014657925
0.04014506718
0.04014203711
0.04013823278
0.04013413358
0.04013003782
0.04012613636
0.04012261116
0.04011991477
0.04025421549
0.04028918831
0.04029476035
0.04028445885
0.04026711199
0.04024768697
0.04022869234
0.04021124022
0.04019570816
0.04018211559
0.04017032975
0.04016019191
0.04015168027
0.04014546857
0.04059199948
0.04054738455
0.04047927338
0.04041410403
0.04035879862
0.04031372376
0.04027738991
0.04024805753
0.04022421505
0.04020466689
0.04018850601
0.04017508405
0.04016409637
0.04015620559
0.04025421309
0.04028918669
0.04029475913
0.04028445787
0.04026711119
0.04024768631
0.04022869179
0.04021123975
0.04019570775
0.04018211523
0.04017032942
0.04016019161
0.04015167999
0.04014546831
0.04008179723
0.04010974149
0.04012894656
0.04014022685
0.04014547286
0.04014657859
0.04014506655
0.04014203651
0.04013823222
0.04013413306
0.04013003733
0.04012613589
0.04012261072
0.04011991434
0.04002238841
0.04003547752
0.04004789845
0.04005872655
0.04006764497
0.04007470388
0.04008012973
0.04008420577
0.04008720863
0.04008938038
0.04009092055
0.0400919874
0.04009270066
0.04009312555
0.04000537516
0.04001173193
0.04001901767
0.04002669774
0.04003432859
0.04004159319
0.04004829478
0.04005433332
0.04005967879
0.04006434721
0.04006838062
0.04007182626
0.04007469128
0.04007676243
0.0400022853
0.04000850581
0.04001609936
0.04002436999
0.04003273418
0.04004077157
0.04004821527
0.04005492149
0.04006083637
0.04006596695
0.04007035805
0.04007407421
0.04007718198
0.04007971263
0.04008151123
0.04001862463
0.04003524183
0.04005096893
0.04006426603
0.04007479325
0.04008276904
0.04008860778
0.04009274752
0.04009557986
0.04009742897
0.04009855227
0.04009914959
0.04009937593
0.04009935968
0.04009923841
0.04009824083
0.04014764017
0.0401753511
0.04018715123
0.04018911914
0.0401855835
0.04017926283
0.04017176425
0.04016399954
0.04015646407
0.04014941005
0.0401429533
0.04013715027
0.04013210727
0.04012833978
0.04053244376
0.04059199827
0.0405473836
0.04047927272
0.04041410358
0.0403587983
0.04031372352
0.04027738972
0.04024805737
0.04022421491
0.04020466678
0.04018850591
0.04017508397
0.04016409629
0.04015620551
0.04204629728
0.04130472055
0.0408946948
0.04065489084
0.04050645528
0.04040939445
0.04034263681
0.04029463064
0.04025878038
0.04023116405
0.04020936148
0.04019186112
0.04017788298
0.04016799804
0.04059199953
0.04054738216
0.04047927125
0.04041410236
0.04035879732
0.04031372271
0.04027738904
0.04024805679
0.04022421442
0.04020466635
0.04018850553
0.04017508362
0.04016409598
0.04015620523
0.04014764006
0.04017535065
0.04018715063
0.04018911848
0.04018558284
0.0401792622
0.04017176365
0.04016399898
0.04015646354
0.04014940956
0.04014295283
0.04013714982
0.04013210685
0.04012833937
0.04003524187
0.04005096888
0.04006426586
0.040074793
0.04008276871
0.0400886074
0.04009274711
0.04009557942
0.04009742852
0.04009855181
0.04009914912
0.04009937547
0.04009935922
0.04009923795
0.04000850584
0.04001609936
0.04002436995
0.04003273408
0.04004077141
0.04004821506
0.04005492123
0.04006083606
0.0400659666
0.04007035767
0.0400740738
0.04007718155
0.04007971218
0.04008151077
0.04000046331
0.04000537506
0.04001173182
0.04001901756
0.04002669764
0.04003432852
0.04004159316
0.04004829477
0.04005433335
0.04005967886
0.04006434731
0.04006838074
0.0400718264
0.04007469145
0.04007676262
0.04001032436
0.04002238824
0.04003547733
0.04004789829
0.04005872644
0.04006764491
0.04007470387
0.04008012976
0.04008420584
0.04008720872
0.0400893805
0.04009092068
0.04009198755
0.04009270081
0.04009312571
0.04004760152
0.04008179682
0.04010974107
0.04012894623
0.04014022664
0.04014547274
0.04014657853
0.04014506654
0.04014203653
0.04013823225
0.0401341331
0.04013003738
0.04012613595
0.04012261077
0.0401199144
0.0401752601
0.040254212
0.04028918546
0.0402947581
0.04028445708
0.04026711057
0.04024768581
0.04022869137
0.04021123941
0.04019570746
0.04018211498
0.04017032921
0.04016019142
0.04015167982
0.04014546814
0.04053244329
0.0405919975
0.04054738084
0.04047927045
0.04041410188
0.04035879701
0.04031372251
0.04027738891
0.04024805669
0.04022421434
0.04020466627
0.04018850547
0.04017508356
0.04016409592
0.04015620517
0.04017526052
0.04025421158
0.04028918486
0.0402947575
0.04028445652
0.04026711006
0.04024768535
0.04022869096
0.04021123903
0.04019570711
0.04018211466
0.04017032891
0.04016019114
0.04015167956
0.0401454679
0.04008179789
0.04010974151
0.0401289463
0.04014022647
0.04014547244
0.04014657816
0.04014506612
0.0401420361
0.04013823183
0.04013413268
0.04013003697
0.04012613555
0.04012261039
0.04011991402
0.04002238854
0.04003547754
0.04004789838
0.04005872641
0.04006764478
0.04007470366
0.04008012949
0.04008420552
0.04008720837
0.04008938013
0.0400909203
0.04009198715
0.0400927004
0.0400931253
0.04000537517
0.04001173191
0.04001901762
0.04002669765
0.04003432847
0.04004159304
0.0400482946
0.04005433313
0.04005967859
0.040064347
0.0400683804
0.04007182603
0.04007469106
0.0400767622
0.03999803022
0.04000098206
0.04000508072
0.04001014392
0.04001588397
0.04002199128
0.04002818909
0.04003425922
0.04004004714
0.04004545538
0.04005043167
0.04005495455
0.04005901147
0.04006253856
0.04006517657
0.04000235566
0.04000873697
0.04001662539
0.04002518403
0.04003368802
0.0400416437
0.04004878433
0.04005501551
0.0400603534
0.04006487439
0.04006868013
0.04007187507
0.04007454923
0.04007674511
0.04007832312
0.04001557191
0.04003142568
0.04004801948
0.04006300979
0.04007527034
0.0400845795
0.04009121823
0.04009567017
0.04009844564
0.04009999764
0.04010069331
0.04010081439
0.04010057218
0.04010013594
0.04009970079
0.04004760152
0.04008179668
0.04010974079
0.04012894587
0.04014022623
0.04014547231
0.04014657811
0.04014506612
0.04014203613
0.04013823188
0.04013413275
0.04013003705
0.04012613564
0.04012261048
0.04011991412
0.04009824024
0.04014763883
0.04017534947
0.04018714964
0.04018911768
0.04018558221
0.0401792617
0.04017176325
0.04016399865
0.04015646327
0.04014940932
0.04014295263
0.04013714965
0.04013210669
0.04012833922
0.04004760142
0.0400817965
0.04010974058
0.04012894564
0.04014022598
0.04014547207
0.04014657787
0.04014506589
0.04014203591
0.04013823168
0.04013413256
0.04013003687
0.04012613546
0.0401226103
0.04011991394
0.04001557214
0.04003142586
0.04004801954
0.04006300974
0.0400752702
0.04008457929
0.04009121799
0.0400956699
0.04009844535
0.04009999735
0.04010069302
0.0401008141
0.04010057189
0.04010013565
0.0400997005
0.04000873722
0.04001662556
0.04002518412
0.04003368803
0.04004164364
0.04004878422
0.04005501535
0.04006035319
0.04006487415
0.04006867986
0.04007187479
0.04007454892
0.04007674479
0.04007832279
0.04000098216
0.04000508083
0.04001014401
0.04001588403
0.0400219913
0.04002818906
0.04003425914
0.04004004702
0.04004545522
0.04005043147
0.04005495432
0.0400590112
0.04006253827
0.04006517625
0.0399964075
0.03999797893
0.04000030272
0.04000339252
0.04000717481
0.04001151773
0.04001626243
0.04002124844
0.0400263302
0.04003138547
0.04003631721
0.04004104913
0.04004550762
0.04004955089
0.04005266819
0.03999807157
0.04000104186
0.04000511202
0.04001006718
0.04001560776
0.04002143443
0.0400272962
0.04003300702
0.04003844336
0.04004353283
0.04004824038
0.04005255374
0.04005646239
0.04005989789
0.04006249077
0.04000235565
0.04000873695
0.04001662535
0.04002518396
0.04003368792
0.04004164358
0.0400487842
0.04005501537
0.04006035325
0.04006487423
0.04006867997
0.04007187491
0.04007454906
0.04007674494
0.04007832296
0.04001032434
0.04002238815
0.04003547716
0.04004789805
0.04005872614
0.04006764457
0.0400747035
0.04008012936
0.04008420543
0.04008720831
0.04008938009
0.04009092028
0.04009198714
0.04009270041
0.04009312532
0.0400186245
0.04003524149
0.04005096843
0.0400642654
0.04007479255
0.0400827683
0.04008860702
0.04009274677
0.04009557911
0.04009742824
0.04009855156
0.04009914889
0.04009937526
0.04009935902
0.04009923776
0.04001032432
0.04002238811
0.04003547711
0.04004789798
0.04005872605
0.04006764447
0.04007470339
0.04008012925
0.04008420531
0.04008720819
0.04008937996
0.04009092015
0.04009198702
0.04009270028
0.04009312519
0.04000235568
0.04000873699
0.04001662537
0.04002518396
0.04003368789
0.04004164352
0.04004878411
0.04005501525
0.04006035311
0.04006487408
0.0400686798
0.04007187473
0.04007454887
0.04007674475
0.04007832275
0.03999807164
0.04000104195
0.04000511211
0.04001006726
0.04001560782
0.04002143447
0.0400272962
0.04003300699
0.04003844331
0.04004353275
0.04004824027
0.04005255361
0.04005646223
0.04005989772
0.04006249058
0.03999797902
0.0400003028
0.04000339259
0.04000717488
0.04001151778
0.04001626245
0.04002124844
0.04002633017
0.04003138541
0.04003631712
0.040041049
0.04004550747
0.04004955071
0.04005266798
0.03999568177
0.03999661766
0.03999807055
0.04000011907
0.0400027872
0.04000604497
0.04000981908
0.04001400788
0.04001849643
0.04002316876
0.04002791601
0.04003263793
0.04003722815
0.04004149882
0.04004485025
0.0399964075
0.03999797893
0.04000030271
0.0400033925
0.0400071748
0.04001151771
0.04001626239
0.0400212484
0.04002633015
0.04003138542
0.04003631714
0.04004104906
0.04004550754
0.04004955081
0.0400526681
0.03999803022
0.04000098205
0.0400050807
0.04001014388
0.04001588391
0.0400219912
0.04002818898
0.04003425908
0.04004004699
0.04004545521
0.04005043149
0.04005495435
0.04005901126
0.04006253834
0.04006517634
0.04000046331
0.04000537504
0.04001173176
0.04001901745
0.04002669748
0.04003432832
0.04004159291
0.04004829449
0.04005433303
0.04005967851
0.04006434694
0.04006838035
0.040071826
0.04007469104
0.04007676219
0.04000228526
0.04000850572
0.04001609919
0.04002436975
0.04003273386
0.04004077118
0.04004821482
0.040054921
0.04006083584
0.04006596639
0.04007035747
0.04007407361
0.04007718137
0.04007971201
0.0400815106
0.04000046332
0.04000537505
0.04001173178
0.04001901747
0.04002669751
0.04003432833
0.04004159292
0.04004829449
0.04005433302
0.04005967849
0.0400643469
0.04006838031
0.04007182595
0.04007469097
0.04007676212
0.03999803023
0.04000098207
0.04000508074
0.04001014392
0.04001588395
0.04002199122
0.04002818899
0.04003425908
0.04004004697
0.04004545517
0.04005043143
0.04005495428
0.04005901117
0.04006253824
0.04006517622
0.03999640752
0.03999797896
0.04000030274
0.04000339253
0.04000717482
0.04001151772
0.04001626239
0.04002124837
0.04002633011
0.04003138535
0.04003631706
0.04004104895
0.04004550741
0.04004955066
0.04005266794
0.03999568179
0.03999661769
0.03999807059
0.04000011911
0.04000278724
0.04000604501
0.0400098191
0.04001400789
0.04001849642
0.04002316873
0.04002791596
0.04003263785
0.04003722804
0.04004149868
0.04004485009
)
;

boundaryField
{
    top
    {
        type            calculated;
        value           nonuniform List<scalar> 
127
(
0.03999568179
0.03999661768
0.03999797897
0.04000098211
0.04000537516
0.04000850584
0.04000537517
0.04000098216
0.03999797902
0.03999661769
0.03999807059
0.04000030277
0.0400050808
0.04001173193
0.04001609936
0.04001173191
0.04000508083
0.0400003028
0.03999807059
0.04000011913
0.04000339259
0.04001014401
0.04001901767
0.04002436995
0.04001901762
0.04001014401
0.04000339259
0.04000011911
0.04000278728
0.04000717491
0.04001588408
0.04002669774
0.04003273408
0.04002669765
0.04001588403
0.04000717488
0.04000278724
0.04000604508
0.04001151784
0.04002199139
0.04003432859
0.04004077141
0.04003432847
0.0400219913
0.04001151778
0.04000604501
0.04000981921
0.04001626256
0.04002818919
0.04004159319
0.04004821506
0.04004159304
0.04002818906
0.04001626245
0.0400098191
0.04001400803
0.04002124858
0.04003425931
0.04004829478
0.04005492123
0.0400482946
0.04003425914
0.04002124844
0.04001400789
0.0400184966
0.04002633036
0.04004004722
0.04005433332
0.04006083606
0.04005433313
0.04004004702
0.04002633017
0.04001849642
0.04002316896
0.04003138564
0.04004545545
0.04005967879
0.0400659666
0.04005967859
0.04004545522
0.04003138541
0.04002316873
0.04002791622
0.04003631738
0.04005043174
0.04006434721
0.04007035767
0.040064347
0.04005043147
0.04003631712
0.04002791596
0.04003263816
0.0400410493
0.0400549546
0.04006838062
0.0400740738
0.0400683804
0.04005495432
0.040041049
0.04003263785
0.04003722839
0.0400455078
0.04005901151
0.04007182626
0.04007718155
0.04007182603
0.0400590112
0.04004550747
0.04003722804
0.04004149907
0.04004955107
0.04006253859
0.04007469128
0.04007971218
0.04007469106
0.04006253827
0.04004955071
0.04004149868
0.04004485051
0.04005266836
0.04006517659
0.04007676243
0.04008151077
0.0400767622
0.04006517625
0.04005266798
0.04004485009
)
;
    }
    bottom
    {
        type            calculated;
        value           nonuniform List<scalar> 
134
(
0.03999640754
0.03999803026
0.04000046334
0.0400022853
0.04000046331
0.03999803022
0.0399964075
0.03999568177
0.03999661772
0.03999797901
0.04000098214
0.04000537513
0.04000850581
0.04000537506
0.04000098206
0.03999797893
0.03999661766
0.03999807063
0.04000030282
0.04000508084
0.04001173191
0.04001609936
0.04001173182
0.04000508072
0.04000030272
0.03999807055
0.04000011918
0.04000339265
0.04001014407
0.04001901768
0.04002436999
0.04001901756
0.04001014392
0.04000339252
0.04000011907
0.04000278735
0.04000717499
0.04001588416
0.04002669778
0.04003273418
0.04002669764
0.04001588397
0.04000717481
0.0400027872
0.04000604516
0.04001151794
0.0400219915
0.04003432868
0.04004077157
0.04003432852
0.04002199128
0.04001151773
0.04000604497
0.04000981931
0.04001626267
0.04002818934
0.04004159333
0.04004821527
0.04004159316
0.04002818909
0.04001626243
0.04000981908
0.04001400815
0.04002124872
0.04003425949
0.04004829496
0.04005492149
0.04004829477
0.04003425922
0.04002124844
0.04001400788
0.04001849674
0.04002633053
0.04004004743
0.04005433355
0.04006083637
0.04005433335
0.04004004714
0.0400263302
0.04001849643
0.04002316912
0.04003138583
0.04004545569
0.04005967906
0.04006596695
0.04005967886
0.04004545538
0.04003138547
0.04002316876
0.04002791641
0.0400363176
0.04005043201
0.04006434752
0.04007035805
0.04006434731
0.04005043167
0.04003631721
0.04002791601
0.04003263837
0.04004104955
0.0400549549
0.04006838095
0.04007407421
0.04006838074
0.04005495455
0.04004104913
0.04003263793
0.04003722862
0.04004550807
0.04005901183
0.04007182662
0.04007718198
0.0400718264
0.04005901147
0.04004550762
0.04003722815
0.04004149932
0.04004955136
0.04006253893
0.04007469167
0.04007971263
0.04007469145
0.04006253856
0.04004955089
0.04004149882
0.04004485078
0.04005266867
0.04006517695
0.04007676284
0.04008151123
0.04007676262
0.04006517657
0.04005266819
0.04004485025
)
;
    }
    side-walls
    {
        type            calculated;
        value           nonuniform List<scalar> 
261
(
0.03999661772
0.03999797902
0.04000098217
0.04000537522
0.04000850592
0.04000537515
0.04000098211
0.03999797897
0.03999661768
0.03999807063
0.04000030284
0.04000508089
0.04001173206
0.04001609953
0.04001173195
0.04000508082
0.04000030277
0.03999807059
0.04000011918
0.04000339267
0.04001014414
0.04001901786
0.0400243702
0.04001901773
0.04001014404
0.04000339259
0.04000011913
0.04000278735
0.04000717501
0.04001588424
0.040026698
0.04003273442
0.04002669784
0.04001588413
0.04000717492
0.04000278728
0.04000604516
0.04001151797
0.0400219916
0.04003432891
0.04004077183
0.04003432874
0.04002199146
0.04001151786
0.04000604508
0.04000981931
0.04001626271
0.04002818944
0.04004159358
0.04004821554
0.0400415934
0.04002818929
0.04001626258
0.04000981921
0.04001400815
0.04002124876
0.0400342596
0.04004829521
0.04005492177
0.04004829503
0.04003425943
0.04002124861
0.04001400803
0.04001849674
0.04002633056
0.04004004755
0.0400543338
0.04006083665
0.04005433361
0.04004004737
0.04002633039
0.0400184966
0.04002316912
0.04003138587
0.04004545581
0.04005967932
0.04006596722
0.04005967912
0.04004545561
0.04003138568
0.04002316896
0.04002791641
0.04003631764
0.04005043213
0.04006434776
0.04007035832
0.04006434757
0.04005043192
0.04003631743
0.04002791622
0.04003263837
0.04004104959
0.04005495502
0.04006838119
0.04007407447
0.040068381
0.0400549548
0.04004104936
0.04003263816
0.04003722862
0.0400455081
0.04005901195
0.04007182684
0.04007718223
0.04007182666
0.04005901172
0.04004550786
0.04003722839
0.04004149932
0.0400495514
0.04006253905
0.04007469188
0.04007971287
0.04007469171
0.04006253881
0.04004955114
0.04004149907
0.04004485078
0.04005266871
0.04006517706
0.04007676304
0.04008151147
0.04007676287
0.04006517682
0.04005266844
0.04004485051
0.03999568177
0.0399964075
0.03999803022
0.04000046331
0.04000228526
0.04000046332
0.03999803023
0.03999640752
0.03999568179
0.03999661766
0.03999797893
0.04000098205
0.04000537504
0.04000850572
0.04000537505
0.04000098207
0.03999797896
0.03999661769
0.03999807055
0.04000030271
0.0400050807
0.04001173176
0.04001609919
0.04001173178
0.04000508074
0.04000030274
0.03999807059
0.04000011907
0.0400033925
0.04001014388
0.04001901745
0.04002436975
0.04001901747
0.04001014392
0.04000339253
0.04000011911
0.0400027872
0.0400071748
0.04001588391
0.04002669748
0.04003273386
0.04002669751
0.04001588395
0.04000717482
0.04000278724
0.04000604497
0.04001151771
0.0400219912
0.04003432832
0.04004077118
0.04003432833
0.04002199122
0.04001151772
0.04000604501
0.04000981908
0.04001626239
0.04002818898
0.04004159291
0.04004821482
0.04004159292
0.04002818899
0.04001626239
0.0400098191
0.04001400788
0.0400212484
0.04003425908
0.04004829449
0.040054921
0.04004829449
0.04003425908
0.04002124837
0.04001400789
0.04001849643
0.04002633015
0.04004004699
0.04005433303
0.04006083584
0.04005433302
0.04004004697
0.04002633011
0.04001849642
0.04002316876
0.04003138542
0.04004545521
0.04005967851
0.04006596639
0.04005967849
0.04004545517
0.04003138535
0.04002316873
0.04002791601
0.04003631714
0.04005043149
0.04006434694
0.04007035747
0.0400643469
0.04005043143
0.04003631706
0.04002791596
0.04003263793
0.04004104906
0.04005495435
0.04006838035
0.04007407361
0.04006838031
0.04005495428
0.04004104895
0.04003263785
0.04003722815
0.04004550754
0.04005901126
0.040071826
0.04007718137
0.04007182595
0.04005901117
0.04004550741
0.04003722804
0.04004149882
0.04004955081
0.04006253834
0.04007469104
0.04007971201
0.04007469097
0.04006253824
0.04004955066
0.04004149868
0.04004485025
0.0400526681
0.04006517634
0.04007676219
0.0400815106
0.04007676212
0.04006517622
0.04005266794
0.04004485009
)
;
    }
    inlet
    {
        type            calculated;
        value           nonuniform 0();
    }
    outlet
    {
        type            calculated;
        value           nonuniform List<scalar> 
81
(
0.04004485078
0.04005266871
0.04006517706
0.04007676304
0.04008151147
0.04007676287
0.04006517682
0.04005266844
0.04004485051
0.04005266867
0.04006249134
0.04007832364
0.04009312613
0.04009923861
0.04009312596
0.04007832338
0.04006249104
0.04005266836
0.04006517695
0.04007832356
0.04009970138
0.04011991484
0.04012833993
0.04011991462
0.04009970102
0.04007832321
0.04006517659
0.04007676284
0.04009312599
0.04011991477
0.04014546857
0.04015620559
0.04014546831
0.04011991434
0.04009312555
0.04007676243
0.04008151123
0.04009923841
0.04012833978
0.04015620551
0.04016799804
0.04015620523
0.04012833937
0.04009923795
0.04008151077
0.04007676262
0.04009312571
0.0401199144
0.04014546814
0.04015620517
0.0401454679
0.04011991402
0.0400931253
0.0400767622
0.04006517657
0.04007832312
0.04009970079
0.04011991412
0.04012833922
0.04011991394
0.0400997005
0.04007832279
0.04006517625
0.04005266819
0.04006249077
0.04007832296
0.04009312532
0.04009923776
0.04009312519
0.04007832275
0.04006249058
0.04005266798
0.04004485025
0.0400526681
0.04006517634
0.04007676219
0.0400815106
0.04007676212
0.04006517622
0.04005266794
0.04004485009
)
;
    }
    procBoundary1to0
    {
        type            processor;
        value           nonuniform List<scalar> 
97
(
0.03999568179
0.03999568179
0.03999640752
0.03999803023
0.04000046331
0.04000228525
0.04000046327
0.03999803019
0.03999640749
0.03999568176
0.03999547697
0.03999807165
0.03999807165
0.03999807165
0.0400023557
0.04001032434
0.04001862445
0.04001032425
0.0400023556
0.03999807155
0.03999640749
0.0399962131
0.03999811392
0.04001557222
0.04001557222
0.04001557222
0.04004760168
0.04009824003
0.04004760104
0.04001557166
0.04000235559
0.0399980302
0.0399972899
0.04000145985
0.0400160188
0.04017526288
0.04017526288
0.04017526288
0.04053244106
0.04017525913
0.0400476011
0.04001032426
0.04000046329
0.03999805731
0.04000461023
0.04003215163
0.04014093929
0.0434646717
0.0434646717
0.0434646717
0.04053244213
0.04053244213
0.04009824008
0.04001862442
0.04000228523
0.03999728989
0.04000145982
0.04001601867
0.04005825557
0.04014093933
0.04005825552
0.04004760217
0.04004760217
0.04004760217
0.04001032441
0.04000046331
0.03999621309
0.03999811391
0.04000367479
0.04001601869
0.04003215144
0.04001601864
0.0400036748
0.04000235578
0.04000235578
0.04000235578
0.03999803024
0.03999547696
0.03999622774
0.0399981139
0.04000145982
0.0400046102
0.04000145981
0.03999811391
0.03999622776
0.03999640754
0.03999640754
0.03999640754
0.03999514327
0.03999547696
0.03999621309
0.0399972899
0.03999805731
0.0399972899
0.0399962131
0.03999547696
0.03999514327
)
;
    }
}


// ************************************************************************* //
