/*--------------------------------*- C++ -*----------------------------------*\
| =========                 |                                                 |
| \\      /  F ield         | OpenFOAM: The Open Source CFD Toolbox           |
|  \\    /   O peration     | Version:  4.x                                   |
|   \\  /    A nd           | Web:      www.OpenFOAM.org                      |
|    \\/     M anipulation  |                                                 |
\*---------------------------------------------------------------------------*/
FoamFile
{
    version     2.0;
    format      ascii;
    class       volScalarField;
    location    "6000";
    object      X_H2;
}
// * * * * * * * * * * * * * * * * * * * * * * * * * * * * * * * * * * * * * //

dimensions      [0 0 0 0 0 0 0];

internalField   nonuniform List<scalar> 
1174
(
0.02997643238
0.02997580576
0.02997492233
0.02997377182
0.02997236721
0.02997074022
0.02996893473
0.02996700037
0.02996498719
0.02996294214
0.02996090846
0.02995893195
0.02995709345
0.02995565093
0.02997584502
0.02997484266
0.02997351003
0.02997187892
0.02997000633
0.02996796083
0.0299658117
0.02996362174
0.0299614437
0.0299593194
0.02995728173
0.02995536235
0.0299536222
0.02995228087
0.02997454913
0.02997278096
0.02997059697
0.02996812139
0.02996548789
0.0299628159
0.02996019956
0.02995770551
0.02995537577
0.02995323281
0.02995128584
0.02994954016
0.02994802309
0.0299468888
0.02997265326
0.02996991072
0.02996676785
0.02996345547
0.029960165
0.02995703322
0.029954145
0.0299515434
0.0299492413
0.0299472317
0.02994549638
0.02994401484
0.02994278373
0.02994189423
0.029971302
0.02996802577
0.02996445801
0.02996085062
0.029957385
0.02995417624
0.02995128632
0.02994873837
0.02994652926
0.02994463956
0.02994304132
0.02994170572
0.02994061902
0.02993984721
0.02997265329
0.02996991077
0.02996676791
0.02996345553
0.02996016507
0.0299570333
0.02995414508
0.02995154348
0.02994924138
0.02994723179
0.02994549647
0.02994401492
0.02994278381
0.02994189431
0.02997454915
0.02997278099
0.02997059701
0.02996812144
0.02996548794
0.02996281596
0.02996019963
0.02995770559
0.02995537585
0.0299532329
0.02995128594
0.02994954027
0.02994802319
0.02994688891
0.02997584504
0.02997484269
0.02997351006
0.02997187896
0.02997000637
0.02996796089
0.02996581176
0.02996362182
0.02996144378
0.0299593195
0.02995728183
0.02995536246
0.02995362232
0.02995228099
0.02997643239
0.02997580578
0.02997492235
0.02997377184
0.02997236725
0.02997074026
0.02996893478
0.02996700043
0.02996498726
0.02996294222
0.02996090855
0.02995893206
0.02995709357
0.02995565106
0.02997652291
0.02997584502
0.02997484267
0.02997351004
0.02997187894
0.02997000634
0.02996796085
0.02996581172
0.02996362176
0.02996144372
0.02995931942
0.02995728175
0.02995536236
0.02995362221
0.02995228088
0.02997452324
0.02997276735
0.02997062995
0.02996824039
0.02996572791
0.02996320084
0.02996073943
0.02995839696
0.02995620462
0.02995417749
0.02995232078
0.02995063894
0.02994916127
0.02994804636
0.0299712022
0.02996779867
0.02996410656
0.02996043877
0.02995700831
0.02995393022
0.02995124515
0.02994894602
0.02994699977
0.02994536245
0.0299439889
0.0299428402
0.02994189774
0.02994122096
0.02996530992
0.02995966207
0.02995430365
0.02994963366
0.02994578869
0.02994274687
0.0299404103
0.02993865657
0.02993736618
0.02993643457
0.02993577558
0.02993532081
0.02993501838
0.02993483934
0.02995976127
0.02995297507
0.02994723903
0.02994269955
0.02993926206
0.02993674744
0.02993496641
0.02993374983
0.02993295768
0.02993247878
0.02993222686
0.02993213492
0.02993214739
0.02993220407
0.02996530996
0.02995966212
0.02995430371
0.02994963373
0.02994578876
0.02994274695
0.02994041038
0.02993865665
0.02993736626
0.02993643465
0.02993577566
0.02993532089
0.02993501846
0.02993483942
0.02997120225
0.02996779872
0.02996410662
0.02996043883
0.02995700838
0.0299539303
0.02995124524
0.02994894612
0.02994699987
0.02994536256
0.02994398902
0.02994284031
0.02994189786
0.02994122109
0.02997452328
0.02997276739
0.02997062999
0.02996824044
0.02996572797
0.0299632009
0.02996073951
0.02995839705
0.02995620472
0.0299541776
0.0299523209
0.02995063907
0.0299491614
0.02994804651
0.02997584503
0.02997484269
0.02997351006
0.02997187897
0.02997000638
0.0299679609
0.02996581178
0.02996362183
0.0299614438
0.02995931952
0.02995728186
0.02995536249
0.02995362235
0.02995228103
0.02997582268
0.02997454914
0.02997278099
0.029970597
0.02996812143
0.02996548793
0.02996281595
0.02996019961
0.02995770557
0.02995537582
0.02995323286
0.02995128589
0.02994954021
0.02994802314
0.02994688885
0.02997395583
0.02997120223
0.02996779871
0.02996410661
0.02996043882
0.02995700836
0.02995393027
0.0299512452
0.02994894607
0.02994699982
0.02994536249
0.02994398894
0.02994284023
0.02994189778
0.029941221
0.02996140895
0.02995424867
0.02994778171
0.02994249403
0.029938481
0.02993562107
0.02993370529
0.02993251323
0.02993184926
0.02993155485
0.02993150836
0.02993161854
0.02993181215
0.02993200421
0.02993966447
0.02992760597
0.02991932176
0.02991445946
0.02991220235
0.02991173245
0.02991239229
0.02991370705
0.02991535565
0.02991713119
0.02991890493
0.02992059451
0.02992212124
0.02992328914
0.02991123781
0.02989928188
0.02989419643
0.02989335592
0.02989489098
0.02989762772
0.02990087231
0.02990423116
0.0299074905
0.02991054154
0.02991333438
0.02991584467
0.02991802644
0.02991965655
0.02993966474
0.02992760624
0.02991932201
0.02991445968
0.02991220256
0.02991173263
0.02991239246
0.0299137072
0.02991535579
0.02991713132
0.02991890506
0.02992059462
0.02992212135
0.02992328925
0.02996140916
0.02995424886
0.0299477819
0.02994249421
0.02993848118
0.02993562126
0.02993370548
0.02993251342
0.02993184944
0.02993155503
0.02993150854
0.02993161872
0.02993181232
0.02993200438
0.02997120226
0.02996779874
0.02996410665
0.02996043888
0.02995700844
0.02995393036
0.02995124531
0.02994894619
0.02994699995
0.02994536264
0.0299439891
0.0299428404
0.02994189795
0.02994122117
0.02997454915
0.029972781
0.02997059702
0.02996812146
0.02996548797
0.02996281601
0.02996019969
0.02995770566
0.02995537593
0.02995323299
0.02995128603
0.02994954037
0.02994802331
0.02994688903
0.02997477263
0.0299726533
0.02996991079
0.02996676794
0.02996345556
0.0299601651
0.02995703333
0.02995414511
0.02995154351
0.02994924141
0.02994723181
0.02994549648
0.02994401493
0.02994278382
0.02994189432
0.02997051622
0.02996530996
0.02995966214
0.02995430372
0.02994963375
0.02994578877
0.02994274696
0.02994041038
0.02993865665
0.02993736626
0.02993643464
0.02993577565
0.02993532087
0.02993501844
0.02993483939
0.02995442373
0.02993966453
0.02992760606
0.02991932184
0.02991445953
0.02991220242
0.02991173251
0.02991239234
0.02991370709
0.02991535569
0.02991713123
0.02991890497
0.02992059454
0.02992212127
0.02992328917
0.02986522701
0.02985013938
0.02984774607
0.02985220517
0.0298597046
0.02986809977
0.02987630783
0.0298838489
0.02989056022
0.0298964336
0.02990152651
0.02990590759
0.0299095862
0.02991227102
0.02971937869
0.0297386632
0.0297680888
0.02979624012
0.02982012926
0.02983959884
0.02985529272
0.0298679625
0.02987826118
0.02988670523
0.02989368645
0.02989948487
0.029904232
0.02990764137
0.02986522793
0.02985014
0.02984774656
0.02985220558
0.02985970494
0.02986810006
0.02987630808
0.02988384912
0.02989056042
0.02989643377
0.02990152667
0.02990590773
0.02990958634
0.02991227116
0.02993966473
0.0299276063
0.02991932211
0.02991445982
0.02991220271
0.0299117328
0.02991239263
0.02991370737
0.02991535596
0.02991713148
0.02991890521
0.02992059477
0.0299221215
0.02992328938
0.02996530997
0.02995966216
0.02995430378
0.02994963383
0.02994578889
0.0299427471
0.02994041055
0.02993865683
0.02993736645
0.02993643485
0.02993577586
0.02993532109
0.02993501866
0.02993483962
0.02997265328
0.02996991077
0.02996676793
0.02996345558
0.02996016514
0.02995703339
0.0299541452
0.02995154362
0.02994924154
0.02994723196
0.02994549665
0.02994401512
0.02994278402
0.02994189453
0.02997398622
0.02997130205
0.02996802584
0.0299644581
0.02996085073
0.02995738511
0.02995417636
0.02995128644
0.02994873849
0.02994652938
0.02994463967
0.02994304143
0.02994170583
0.02994061912
0.02993984731
0.02996693303
0.02995976135
0.02995297519
0.02994723917
0.02994269969
0.0299392622
0.02993674757
0.02993496654
0.02993374995
0.02993295779
0.02993247889
0.02993222695
0.02993213502
0.02993214748
0.02993220416
0.02993256011
0.02991123788
0.02989928209
0.02989419663
0.02989335611
0.02989489113
0.02989762786
0.02990087243
0.02990423126
0.02990749059
0.02991054163
0.02991333445
0.02991584474
0.0299180265
0.02991965662
0.02974507418
0.02971937925
0.02973866361
0.02976808908
0.02979624031
0.02982012939
0.02983959894
0.0298552928
0.02986796257
0.02987826124
0.02988670528
0.02989368649
0.0298994849
0.02990423204
0.02990764141
0.02909139494
0.0294116589
0.02958873145
0.02969229032
0.02975639104
0.02979830574
0.0298271344
0.02984786563
0.02986334771
0.0298752743
0.0298846905
0.02989224903
0.02989828667
0.02990255654
0.02971937865
0.02973866411
0.02976808967
0.02979624083
0.02982012984
0.02983959932
0.02985529312
0.02986796285
0.02987826149
0.0298867055
0.02989368668
0.02989948508
0.0299042322
0.02990764155
0.02991123786
0.02989928225
0.02989419688
0.0298933564
0.02989489144
0.02989762817
0.02990087273
0.02990423155
0.02990749086
0.02991054189
0.0299133347
0.02991584497
0.02991802673
0.02991965684
0.02995976132
0.02995297521
0.02994723923
0.02994269981
0.02993926235
0.02993674775
0.02993496674
0.02993375017
0.02993295801
0.02993247912
0.02993222719
0.02993213526
0.02993214772
0.0299322044
0.02997130203
0.02996802583
0.02996445812
0.02996085077
0.02995738519
0.02995417646
0.02995128657
0.02994873865
0.02994652956
0.02994463987
0.02994304165
0.02994170606
0.02994061936
0.02993984755
0.02997477265
0.02997265333
0.02996991083
0.02996676798
0.02996345562
0.02996016517
0.0299570334
0.02995414519
0.02995154359
0.0299492415
0.0299472319
0.02994549658
0.02994401503
0.02994278391
0.02994189442
0.02997051628
0.02996531005
0.02995966225
0.02995430385
0.02994963388
0.02994578891
0.02994274709
0.02994041052
0.02993865678
0.02993736639
0.02993643478
0.02993577578
0.029935321
0.02993501857
0.02993483952
0.0299544241
0.02993966492
0.02992760649
0.02991932225
0.0299144599
0.02991220275
0.02991173281
0.02991239262
0.02991370735
0.02991535593
0.02991713145
0.02991890517
0.02992059473
0.02992212145
0.02992328934
0.02989930756
0.02986522843
0.02985014053
0.02984774699
0.02985220591
0.0298597052
0.02986810027
0.02987630826
0.02988384927
0.02989056054
0.02989643388
0.02990152676
0.02990590782
0.02990958642
0.02991227123
0.02974507437
0.02971937954
0.02973866468
0.02976809001
0.02979624104
0.02982012997
0.0298395994
0.02985529318
0.02986796289
0.02987826152
0.02988670553
0.02989368671
0.02989948511
0.02990423222
0.02990764158
0.02989930737
0.02986522857
0.02985014077
0.02984774726
0.02985220618
0.02985970545
0.0298681005
0.02987630847
0.02988384947
0.02989056072
0.02989643405
0.02990152692
0.02990590796
0.02990958656
0.02991227136
0.02993966447
0.02992760631
0.02991932224
0.02991446
0.02991220292
0.02991173301
0.02991239284
0.02991370758
0.02991535615
0.02991713167
0.02991890539
0.02992059494
0.02992212166
0.02992328954
0.02996530992
0.02995966216
0.02995430382
0.0299496339
0.02994578898
0.02994274721
0.02994041066
0.02993865695
0.02993736658
0.02993643498
0.02993577599
0.02993532122
0.02993501879
0.02993483974
0.02997265328
0.02996991078
0.02996676796
0.02996345562
0.0299601652
0.02995703347
0.02995414528
0.02995154372
0.02994924164
0.02994723207
0.02994549676
0.02994401523
0.02994278413
0.02994189464
0.02997582269
0.02997454917
0.02997278103
0.02997059706
0.02996812151
0.02996548802
0.02996281605
0.02996019972
0.02995770569
0.02995537596
0.02995323301
0.02995128605
0.02994954037
0.0299480233
0.02994688902
0.02997395588
0.0299712023
0.0299677988
0.02996410671
0.02996043894
0.02995700849
0.02995393042
0.02995124536
0.02994894624
0.02994699999
0.02994536268
0.02994398913
0.02994284043
0.02994189798
0.0299412212
0.02996825122
0.02996140923
0.02995424895
0.02994778201
0.02994249433
0.0299384813
0.02993562138
0.0299337056
0.02993251354
0.02993184956
0.02993155514
0.02993150865
0.02993161883
0.02993181243
0.02993200448
0.0299544241
0.02993966497
0.0299276066
0.0299193224
0.02991446008
0.02991220295
0.02991173301
0.02991239281
0.02991370753
0.0299153561
0.02991713161
0.02991890533
0.02992059488
0.0299221216
0.02992328948
0.02993256035
0.02991123841
0.02989928276
0.02989419731
0.02989335674
0.02989489171
0.02989762838
0.0299008729
0.02990423169
0.02990749098
0.02991054198
0.02991333478
0.02991584505
0.02991802679
0.0299196569
0.02995442414
0.02993966505
0.0299276067
0.02991932252
0.02991446021
0.02991220308
0.02991173314
0.02991239294
0.02991370765
0.02991535622
0.02991713172
0.02991890544
0.02992059498
0.0299221217
0.02992328958
0.02996825113
0.02996140916
0.02995424894
0.02994778204
0.02994249441
0.02993848142
0.02993562152
0.02993370575
0.0299325137
0.02993184972
0.02993155531
0.02993150882
0.02993161899
0.02993181259
0.02993200464
0.0299712022
0.02996779874
0.02996410669
0.02996043895
0.02995700854
0.02995393049
0.02995124546
0.02994894636
0.02994700013
0.02994536282
0.02994398929
0.0299428406
0.02994189815
0.02994122138
0.02997454913
0.02997278099
0.02997059703
0.02996812149
0.02996548802
0.02996281607
0.02996019977
0.02995770576
0.02995537605
0.02995323313
0.02995128618
0.02994954053
0.02994802347
0.0299468892
0.02997652292
0.02997584505
0.02997484271
0.02997351009
0.02997187901
0.02997000643
0.02996796095
0.02996581184
0.0299636219
0.02996144387
0.02995931959
0.02995728193
0.02995536256
0.02995362242
0.0299522811
0.02997580482
0.02997452331
0.02997276744
0.02997063005
0.02996824051
0.02996572805
0.02996320099
0.02996073961
0.02995839715
0.02995620483
0.02995417771
0.02995232101
0.02995063919
0.02994916152
0.02994804662
0.02997395588
0.02997120231
0.02996779882
0.02996410674
0.02996043898
0.02995700855
0.02995393048
0.02995124543
0.02994894631
0.02994700007
0.02994536275
0.02994398921
0.02994284051
0.02994189806
0.02994122128
0.02997051628
0.02996531009
0.02995966232
0.02995430395
0.02994963401
0.02994578906
0.02994274726
0.0299404107
0.02993865697
0.02993736658
0.02993643497
0.02993577597
0.0299353212
0.02993501877
0.02993483972
0.02996693308
0.02995976148
0.0299529754
0.02994723943
0.0299427
0.02993926253
0.02993674791
0.02993496689
0.0299337503
0.02993295813
0.02993247923
0.02993222729
0.02993213535
0.0299321478
0.02993220448
0.02997051629
0.02996531011
0.02995966234
0.02995430399
0.02994963405
0.02994578912
0.02994274733
0.02994041077
0.02993865704
0.02993736665
0.02993643505
0.02993577605
0.02993532127
0.02993501884
0.02993483979
0.02997395587
0.0299712023
0.02996779881
0.02996410675
0.029960439
0.02995700859
0.02995393054
0.0299512455
0.02994894639
0.02994700016
0.02994536285
0.02994398932
0.02994284062
0.02994189817
0.0299412214
0.02997580479
0.02997452327
0.0299727674
0.02997063002
0.02996824049
0.02996572804
0.02996320101
0.02996073963
0.0299583972
0.02995620489
0.02995417778
0.0299523211
0.02995063929
0.02994916163
0.02994804674
0.02997584502
0.02997484268
0.02997351006
0.02997187898
0.02997000642
0.02996796095
0.02996581185
0.02996362193
0.02996144392
0.02995931966
0.02995728201
0.02995536266
0.02995362254
0.02995228123
0.02997683606
0.0299764324
0.0299758058
0.02997492238
0.02997377188
0.02997236729
0.02997074031
0.02996893484
0.02996700051
0.02996498734
0.02996294231
0.02996090865
0.02995893216
0.02995709368
0.02995565117
0.02997652292
0.02997584505
0.02997484271
0.0299735101
0.02997187901
0.02997000644
0.02996796097
0.02996581186
0.02996362192
0.0299614439
0.02995931962
0.02995728197
0.0299553626
0.02995362246
0.02995228114
0.02997582269
0.02997454918
0.02997278104
0.02997059708
0.02996812153
0.02996548805
0.02996281609
0.02996019978
0.02995770576
0.02995537604
0.0299532331
0.02995128614
0.02994954048
0.02994802341
0.02994688914
0.02997477264
0.02997265334
0.02996991085
0.02996676803
0.02996345569
0.02996016525
0.02995703352
0.02995414532
0.02995154374
0.02994924166
0.02994723208
0.02994549677
0.02994401523
0.02994278412
0.02994189463
0.02997398624
0.02997130209
0.02996802591
0.02996445821
0.02996085087
0.02995738529
0.02995417656
0.02995128667
0.02994873874
0.02994652965
0.02994463996
0.02994304173
0.02994170613
0.02994061943
0.02993984763
0.02997477264
0.02997265333
0.02996991084
0.02996676802
0.02996345568
0.02996016526
0.02995703352
0.02995414533
0.02995154376
0.02994924168
0.02994723211
0.0299454968
0.02994401527
0.02994278416
0.02994189468
0.02997582269
0.02997454917
0.02997278103
0.02997059707
0.02996812152
0.02996548805
0.0299628161
0.0299601998
0.02995770579
0.02995537607
0.02995323314
0.0299512862
0.02994954054
0.02994802348
0.02994688922
0.02997652292
0.02997584504
0.0299748427
0.02997351009
0.02997187901
0.02997000644
0.02996796098
0.02996581188
0.02996362196
0.02996144394
0.02995931968
0.02995728204
0.02995536268
0.02995362256
0.02995228125
0.02997683605
0.02997643239
0.02997580578
0.02997492236
0.02997377186
0.02997236728
0.02997074031
0.02996893485
0.02996700052
0.02996498737
0.02996294236
0.02996090871
0.02995893224
0.02995709377
0.02995565128
)
;

boundaryField
{
    top
    {
        type            calculated;
        value           nonuniform List<scalar> 
127
(
0.02997683605
0.02997643239
0.02997584503
0.02997454915
0.02997265328
0.02997130203
0.02997265328
0.02997454913
0.02997584502
0.02997643239
0.02997580578
0.02997484269
0.029972781
0.02996991077
0.02996802583
0.02996991078
0.02997278099
0.02997484268
0.02997580578
0.02997492235
0.02997351006
0.02997059702
0.02996676793
0.02996445812
0.02996676796
0.02997059703
0.02997351006
0.02997492236
0.02997377184
0.02997187897
0.02996812146
0.02996345558
0.02996085077
0.02996345562
0.02996812149
0.02997187898
0.02997377186
0.02997236725
0.02997000638
0.02996548797
0.02996016514
0.02995738519
0.0299601652
0.02996548802
0.02997000642
0.02997236728
0.02997074026
0.0299679609
0.02996281601
0.02995703339
0.02995417646
0.02995703347
0.02996281607
0.02996796095
0.02997074031
0.02996893478
0.02996581178
0.02996019969
0.0299541452
0.02995128657
0.02995414528
0.02996019977
0.02996581185
0.02996893485
0.02996700043
0.02996362183
0.02995770566
0.02995154362
0.02994873865
0.02995154372
0.02995770576
0.02996362193
0.02996700052
0.02996498726
0.0299614438
0.02995537593
0.02994924154
0.02994652956
0.02994924164
0.02995537605
0.02996144392
0.02996498737
0.02996294222
0.02995931952
0.02995323299
0.02994723196
0.02994463987
0.02994723207
0.02995323313
0.02995931966
0.02996294236
0.02996090855
0.02995728186
0.02995128603
0.02994549665
0.02994304165
0.02994549676
0.02995128618
0.02995728201
0.02996090871
0.02995893206
0.02995536249
0.02994954037
0.02994401512
0.02994170606
0.02994401523
0.02994954053
0.02995536266
0.02995893224
0.02995709357
0.02995362235
0.02994802331
0.02994278402
0.02994061936
0.02994278413
0.02994802347
0.02995362254
0.02995709377
0.02995565106
0.02995228103
0.02994688903
0.02994189453
0.02993984755
0.02994189464
0.0299468892
0.02995228123
0.02995565128
)
;
    }
    bottom
    {
        type            calculated;
        value           nonuniform List<scalar> 
134
(
0.02997652291
0.02997582268
0.02997477263
0.02997398622
0.02997477265
0.02997582269
0.02997652292
0.02997683606
0.02997643238
0.02997584502
0.02997454914
0.0299726533
0.02997130205
0.02997265333
0.02997454917
0.02997584505
0.0299764324
0.02997580576
0.02997484267
0.02997278099
0.02996991079
0.02996802584
0.02996991083
0.02997278103
0.02997484271
0.0299758058
0.02997492233
0.02997351004
0.029970597
0.02996676794
0.0299644581
0.02996676798
0.02997059706
0.02997351009
0.02997492238
0.02997377182
0.02997187894
0.02996812143
0.02996345556
0.02996085073
0.02996345562
0.02996812151
0.02997187901
0.02997377188
0.02997236721
0.02997000634
0.02996548793
0.0299601651
0.02995738511
0.02996016517
0.02996548802
0.02997000643
0.02997236729
0.02997074022
0.02996796085
0.02996281595
0.02995703333
0.02995417636
0.0299570334
0.02996281605
0.02996796095
0.02997074031
0.02996893473
0.02996581172
0.02996019961
0.02995414511
0.02995128644
0.02995414519
0.02996019972
0.02996581184
0.02996893484
0.02996700037
0.02996362176
0.02995770557
0.02995154351
0.02994873849
0.02995154359
0.02995770569
0.0299636219
0.02996700051
0.02996498719
0.02996144372
0.02995537582
0.02994924141
0.02994652938
0.0299492415
0.02995537596
0.02996144387
0.02996498734
0.02996294214
0.02995931942
0.02995323286
0.02994723181
0.02994463967
0.0299472319
0.02995323301
0.02995931959
0.02996294231
0.02996090846
0.02995728175
0.02995128589
0.02994549648
0.02994304143
0.02994549658
0.02995128605
0.02995728193
0.02996090865
0.02995893195
0.02995536236
0.02994954021
0.02994401493
0.02994170583
0.02994401503
0.02994954037
0.02995536256
0.02995893216
0.02995709345
0.02995362221
0.02994802314
0.02994278382
0.02994061912
0.02994278391
0.0299480233
0.02995362242
0.02995709368
0.02995565093
0.02995228088
0.02994688885
0.02994189432
0.02993984731
0.02994189442
0.02994688902
0.0299522811
0.02995565117
)
;
    }
    side-walls
    {
        type            calculated;
        value           nonuniform List<scalar> 
261
(
0.02997643238
0.02997584502
0.02997454913
0.02997265326
0.029971302
0.02997265329
0.02997454915
0.02997584504
0.02997643239
0.02997580576
0.02997484266
0.02997278096
0.02996991072
0.02996802577
0.02996991077
0.02997278099
0.02997484269
0.02997580578
0.02997492233
0.02997351003
0.02997059697
0.02996676785
0.02996445801
0.02996676791
0.02997059701
0.02997351006
0.02997492235
0.02997377182
0.02997187892
0.02996812139
0.02996345547
0.02996085062
0.02996345553
0.02996812144
0.02997187896
0.02997377184
0.02997236721
0.02997000633
0.02996548789
0.029960165
0.029957385
0.02996016507
0.02996548794
0.02997000637
0.02997236725
0.02997074022
0.02996796083
0.0299628159
0.02995703322
0.02995417624
0.0299570333
0.02996281596
0.02996796089
0.02997074026
0.02996893473
0.0299658117
0.02996019956
0.029954145
0.02995128632
0.02995414508
0.02996019963
0.02996581176
0.02996893478
0.02996700037
0.02996362174
0.02995770551
0.0299515434
0.02994873837
0.02995154348
0.02995770559
0.02996362182
0.02996700043
0.02996498719
0.0299614437
0.02995537577
0.0299492413
0.02994652926
0.02994924138
0.02995537585
0.02996144378
0.02996498726
0.02996294214
0.0299593194
0.02995323281
0.0299472317
0.02994463956
0.02994723179
0.0299532329
0.0299593195
0.02996294222
0.02996090846
0.02995728173
0.02995128584
0.02994549638
0.02994304132
0.02994549647
0.02995128594
0.02995728183
0.02996090855
0.02995893195
0.02995536235
0.02994954016
0.02994401484
0.02994170572
0.02994401492
0.02994954027
0.02995536246
0.02995893206
0.02995709345
0.0299536222
0.02994802309
0.02994278373
0.02994061902
0.02994278381
0.02994802319
0.02995362232
0.02995709357
0.02995565093
0.02995228087
0.0299468888
0.02994189423
0.02993984721
0.02994189431
0.02994688891
0.02995228099
0.02995565106
0.02997683606
0.02997652292
0.02997582269
0.02997477264
0.02997398624
0.02997477264
0.02997582269
0.02997652292
0.02997683605
0.0299764324
0.02997584505
0.02997454918
0.02997265334
0.02997130209
0.02997265333
0.02997454917
0.02997584504
0.02997643239
0.0299758058
0.02997484271
0.02997278104
0.02996991085
0.02996802591
0.02996991084
0.02997278103
0.0299748427
0.02997580578
0.02997492238
0.0299735101
0.02997059708
0.02996676803
0.02996445821
0.02996676802
0.02997059707
0.02997351009
0.02997492236
0.02997377188
0.02997187901
0.02996812153
0.02996345569
0.02996085087
0.02996345568
0.02996812152
0.02997187901
0.02997377186
0.02997236729
0.02997000644
0.02996548805
0.02996016525
0.02995738529
0.02996016526
0.02996548805
0.02997000644
0.02997236728
0.02997074031
0.02996796097
0.02996281609
0.02995703352
0.02995417656
0.02995703352
0.0299628161
0.02996796098
0.02997074031
0.02996893484
0.02996581186
0.02996019978
0.02995414532
0.02995128667
0.02995414533
0.0299601998
0.02996581188
0.02996893485
0.02996700051
0.02996362192
0.02995770576
0.02995154374
0.02994873874
0.02995154376
0.02995770579
0.02996362196
0.02996700052
0.02996498734
0.0299614439
0.02995537604
0.02994924166
0.02994652965
0.02994924168
0.02995537607
0.02996144394
0.02996498737
0.02996294231
0.02995931962
0.0299532331
0.02994723208
0.02994463996
0.02994723211
0.02995323314
0.02995931968
0.02996294236
0.02996090865
0.02995728197
0.02995128614
0.02994549677
0.02994304173
0.0299454968
0.0299512862
0.02995728204
0.02996090871
0.02995893216
0.0299553626
0.02994954048
0.02994401523
0.02994170613
0.02994401527
0.02994954054
0.02995536268
0.02995893224
0.02995709368
0.02995362246
0.02994802341
0.02994278412
0.02994061943
0.02994278416
0.02994802348
0.02995362256
0.02995709377
0.02995565117
0.02995228114
0.02994688914
0.02994189463
0.02993984763
0.02994189468
0.02994688922
0.02995228125
0.02995565128
)
;
    }
    inlet
    {
        type            calculated;
        value           nonuniform 0();
    }
    outlet
    {
        type            calculated;
        value           nonuniform List<scalar> 
81
(
0.02995565093
0.02995228087
0.0299468888
0.02994189423
0.02993984721
0.02994189431
0.02994688891
0.02995228099
0.02995565106
0.02995228088
0.02994804636
0.02994122096
0.02993483934
0.02993220407
0.02993483942
0.02994122109
0.02994804651
0.02995228103
0.02994688885
0.029941221
0.02993200421
0.02992328914
0.02991965655
0.02992328925
0.02993200438
0.02994122117
0.02994688903
0.02994189432
0.02993483939
0.02992328917
0.02991227102
0.02990764137
0.02991227116
0.02992328938
0.02993483962
0.02994189453
0.02993984731
0.02993220416
0.02991965662
0.02990764141
0.02990255654
0.02990764155
0.02991965684
0.0299322044
0.02993984755
0.02994189442
0.02993483952
0.02992328934
0.02991227123
0.02990764158
0.02991227136
0.02992328954
0.02993483974
0.02994189464
0.02994688902
0.0299412212
0.02993200448
0.02992328948
0.0299196569
0.02992328958
0.02993200464
0.02994122138
0.0299468892
0.0299522811
0.02994804662
0.02994122128
0.02993483972
0.02993220448
0.02993483979
0.0299412214
0.02994804674
0.02995228123
0.02995565117
0.02995228114
0.02994688914
0.02994189463
0.02993984763
0.02994189468
0.02994688922
0.02995228125
0.02995565128
)
;
    }
    procBoundary1to0
    {
        type            processor;
        value           nonuniform List<scalar> 
97
(
0.02997683605
0.02997683605
0.02997652291
0.02997582269
0.02997477265
0.02997398625
0.02997477266
0.0299758227
0.02997652293
0.02997683606
0.02997692435
0.02997580479
0.02997580479
0.02997580479
0.02997395587
0.02997051629
0.02996693311
0.02997051633
0.02997395591
0.02997580482
0.02997652293
0.0299766067
0.02997578634
0.02996825111
0.02996825111
0.02996825111
0.02995442407
0.02993256054
0.02995442433
0.02996825134
0.02997395591
0.0299758227
0.02997614199
0.02997434215
0.02996805745
0.02989930656
0.02989930656
0.02989930656
0.02974507613
0.02989930811
0.0299544243
0.02997051632
0.02997477266
0.02997581077
0.02997298218
0.02996109229
0.02991412172
0.02847883122
0.02847883122
0.02847883122
0.02974507566
0.02974507566
0.02993256052
0.02996693313
0.02997398626
0.029976142
0.02997434216
0.02996805749
0.02994982265
0.02991412166
0.0299498227
0.02995442384
0.02995442384
0.02995442384
0.02997051626
0.02997477265
0.0299766067
0.02997578635
0.02997338611
0.02996805748
0.02996109237
0.0299680575
0.02997338611
0.02997395583
0.02997395583
0.02997395583
0.02997582268
0.02997692435
0.02997660036
0.02997578635
0.02997434216
0.02997298219
0.02997434216
0.02997578635
0.02997660036
0.02997652291
0.02997652291
0.02997652291
0.02997706833
0.02997692435
0.0299766067
0.02997614199
0.02997581077
0.02997614199
0.0299766067
0.02997692435
0.02997706832
)
;
    }
}


// ************************************************************************* //
