/*--------------------------------*- C++ -*----------------------------------*\
| =========                 |                                                 |
| \\      /  F ield         | OpenFOAM: The Open Source CFD Toolbox           |
|  \\    /   O peration     | Version:  4.x                                   |
|   \\  /    A nd           | Web:      www.OpenFOAM.org                      |
|    \\/     M anipulation  |                                                 |
\*---------------------------------------------------------------------------*/
FoamFile
{
    version     2.0;
    format      ascii;
    class       volScalarField;
    location    "1000";
    object      CO;
}
// * * * * * * * * * * * * * * * * * * * * * * * * * * * * * * * * * * * * * //

dimensions      [0 0 0 0 0 0 0];

internalField   nonuniform List<scalar> 
1175
(
0.3719638845
0.3719638845
0.3719638845
0.3719638845
0.3719638844
0.3719638842
0.3719638832
0.3719638801
0.3719638701
0.37196384
0.3719637544
0.3719635266
0.3719629695
0.3719617368
0.3719593071
0.3719638845
0.3719638846
0.3719638846
0.3719638846
0.3719638844
0.3719638841
0.3719638828
0.3719638783
0.3719638639
0.3719638184
0.3719636835
0.3719633102
0.3719623654
0.3719602289
0.3719560169
0.3719638847
0.3719638847
0.3719638846
0.3719638846
0.3719638844
0.371963884
0.3719638821
0.3719638754
0.3719638525
0.3719637771
0.3719635427
0.371962863
0.3719610699
0.3719568959
0.3719486454
0.3719638846
0.3719638847
0.3719638846
0.3719638845
0.3719638843
0.3719638837
0.3719638812
0.371963872
0.3719638394
0.3719637282
0.3719633672
0.3719622739
0.3719592625
0.3719520084
0.3719375636
0.3719638847
0.3719638847
0.3719638846
0.3719638844
0.3719638842
0.3719638835
0.3719638808
0.3719638704
0.371963833
0.3719637026
0.3719632692
0.3719619179
0.3719580726
0.3719485149
0.3719292359
0.3719638847
0.3719638847
0.3719638846
0.3719638846
0.3719638843
0.3719638837
0.3719638811
0.371963872
0.3719638394
0.3719637283
0.3719633673
0.371962274
0.3719592626
0.3719520085
0.3719375639
0.3719638846
0.3719638846
0.3719638847
0.3719638845
0.3719638843
0.3719638838
0.371963882
0.3719638752
0.3719638523
0.3719637769
0.3719635424
0.3719628629
0.37196107
0.3719568961
0.3719486458
0.3719638845
0.3719638845
0.3719638846
0.3719638846
0.3719638845
0.3719638841
0.3719638828
0.3719638785
0.3719638639
0.3719638184
0.3719636833
0.37196331
0.3719623653
0.3719602291
0.3719560173
0.3719638846
0.3719638846
0.3719638845
0.3719638845
0.3719638845
0.3719638841
0.3719638831
0.37196388
0.3719638701
0.37196384
0.3719637543
0.3719635266
0.3719629696
0.3719617371
0.3719593075
0.3719638845
0.3719638846
0.3719638846
0.3719638845
0.3719638844
0.371963884
0.3719638829
0.3719638785
0.371963864
0.3719638184
0.3719636835
0.3719633101
0.3719623653
0.3719602286
0.3719638845
0.3719638846
0.3719638846
0.3719638845
0.3719638843
0.3719638839
0.3719638821
0.3719638756
0.3719638532
0.3719637791
0.3719635468
0.3719628675
0.3719610601
0.3719568263
0.3719484501
0.3719638846
0.3719638845
0.3719638845
0.3719638845
0.3719638843
0.3719638836
0.3719638809
0.3719638705
0.3719638325
0.3719636991
0.3719632536
0.3719618637
0.3719579296
0.3719482606
0.3719289276
0.3719638846
0.3719638846
0.3719638846
0.3719638845
0.3719638843
0.3719638833
0.3719638794
0.3719638644
0.3719638073
0.3719635959
0.3719628466
0.3719603519
0.3719527921
0.371933026
0.37189251
0.3719638847
0.3719638847
0.3719638846
0.3719638845
0.3719638842
0.3719638832
0.3719638788
0.3719638615
0.3719637938
0.3719635356
0.3719625848
0.3719592599
0.3719485592
0.371918638
0.3718544258
0.3719638845
0.3719638846
0.3719638846
0.3719638845
0.3719638843
0.3719638833
0.3719638794
0.3719638644
0.3719638073
0.371963596
0.3719628466
0.3719603518
0.3719527922
0.3719330265
0.3718925112
0.3719638846
0.3719638846
0.3719638846
0.3719638845
0.3719638844
0.3719638836
0.3719638808
0.3719638703
0.3719638323
0.371963699
0.3719632536
0.3719618637
0.3719579299
0.3719482613
0.3719289291
0.3719638845
0.3719638845
0.3719638845
0.3719638845
0.3719638845
0.3719638839
0.3719638821
0.3719638756
0.3719638531
0.3719637791
0.3719635469
0.3719628676
0.3719610602
0.3719568267
0.3719484514
0.3719638845
0.3719638845
0.3719638845
0.3719638845
0.3719638845
0.3719638841
0.3719638828
0.3719638783
0.3719638638
0.3719638184
0.3719636835
0.3719633101
0.3719623654
0.371960229
0.3719560172
0.3719638845
0.3719638845
0.3719638845
0.3719638845
0.3719638844
0.3719638838
0.3719638819
0.3719638753
0.3719638523
0.3719637769
0.3719635424
0.3719628628
0.3719610697
0.3719568953
0.3719638845
0.3719638845
0.3719638846
0.3719638845
0.3719638843
0.3719638836
0.3719638809
0.3719638704
0.3719638324
0.3719636991
0.3719632535
0.3719618635
0.3719579295
0.3719482596
0.3719638845
0.3719638844
0.3719638845
0.3719638845
0.3719638842
0.3719638831
0.3719638786
0.3719638608
0.3719637914
0.3719635287
0.3719625775
0.3719593457
0.3719493735
0.3719229407
0.3718685317
0.3719638846
0.3719638846
0.3719638846
0.3719638844
0.3719638842
0.3719638826
0.3719638761
0.371963849
0.3719637374
0.3719632864
0.3719615194
0.3719549479
0.3719325159
0.3718665966
0.3717217598
0.3719638845
0.3719638845
0.3719638845
0.3719638845
0.3719638841
0.3719638823
0.3719638748
0.3719638427
0.3719637057
0.3719631265
0.3719607216
0.3719510582
0.371914558
0.3717927583
0.371488827
0.3719638845
0.3719638846
0.3719638845
0.3719638844
0.3719638841
0.3719638826
0.3719638761
0.371963849
0.3719637375
0.3719632863
0.3719615195
0.371954948
0.3719325164
0.371866599
0.3717217671
0.3719638848
0.3719638847
0.3719638846
0.3719638845
0.3719638842
0.3719638831
0.3719638787
0.3719638608
0.3719637913
0.3719635285
0.3719625775
0.3719593459
0.3719493741
0.371922943
0.3718685388
0.3719638845
0.3719638846
0.3719638846
0.3719638846
0.3719638843
0.3719638836
0.3719638808
0.3719638703
0.3719638323
0.371963699
0.3719632535
0.3719618637
0.3719579299
0.3719482611
0.371928929
0.3719638845
0.3719638845
0.3719638845
0.3719638845
0.3719638844
0.3719638838
0.371963882
0.3719638753
0.3719638523
0.371963777
0.3719635425
0.3719628629
0.3719610698
0.371956896
0.3719486457
0.3719638844
0.3719638844
0.3719638844
0.3719638844
0.3719638843
0.3719638836
0.3719638811
0.3719638719
0.3719638393
0.371963728
0.3719633671
0.3719622738
0.3719592621
0.3719520074
0.3719638845
0.3719638845
0.3719638845
0.3719638845
0.3719638842
0.3719638832
0.3719638794
0.3719638644
0.3719638072
0.3719635958
0.3719628464
0.3719603515
0.3719527913
0.3719330233
0.3719638846
0.3719638846
0.3719638845
0.3719638844
0.3719638841
0.3719638825
0.371963876
0.3719638491
0.3719637375
0.3719632863
0.3719615193
0.3719549475
0.3719325145
0.3718665898
0.3719638846
0.3719638846
0.3719638845
0.3719638845
0.371963884
0.3719638818
0.3719638721
0.3719638292
0.3719636392
0.3719628019
0.3719591668
0.3719438728
0.3718834339
0.3716734255
0.3711355732
0.3719638845
0.3719638845
0.3719638844
0.3719638844
0.3719638838
0.3719638814
0.37196387
0.3719638176
0.3719635749
0.3719624364
0.3719570504
0.3719315376
0.3718127415
0.3712945449
0.3694917864
0.3719638846
0.3719638846
0.3719638845
0.3719638844
0.3719638839
0.3719638817
0.3719638721
0.3719638292
0.3719636392
0.3719628018
0.3719591669
0.3719438735
0.3718834365
0.3716734388
0.3711356258
0.3719638846
0.3719638846
0.3719638845
0.3719638844
0.3719638841
0.3719638825
0.3719638761
0.371963849
0.3719637376
0.3719632863
0.3719615194
0.3719549479
0.3719325162
0.3718665984
0.3717217665
0.3719638846
0.3719638846
0.3719638847
0.3719638846
0.3719638843
0.3719638833
0.3719638794
0.3719638644
0.3719638073
0.3719635958
0.3719628465
0.3719603518
0.371952792
0.3719330262
0.3718925109
0.3719638846
0.3719638845
0.3719638846
0.3719638846
0.3719638845
0.3719638838
0.3719638812
0.371963872
0.3719638393
0.3719637281
0.3719633672
0.371962274
0.3719592625
0.3719520083
0.3719375637
0.3719638843
0.3719638843
0.3719638844
0.3719638845
0.3719638843
0.3719638836
0.3719638808
0.3719638704
0.371963833
0.3719637025
0.3719632691
0.3719619177
0.3719580721
0.3719485135
0.3719638845
0.3719638845
0.3719638845
0.3719638845
0.3719638843
0.3719638832
0.3719638788
0.3719638614
0.3719637937
0.3719635356
0.3719625848
0.3719592597
0.3719485581
0.3719186339
0.3719638845
0.3719638846
0.3719638845
0.3719638844
0.371963884
0.3719638822
0.3719638748
0.3719638426
0.3719637057
0.3719631265
0.3719607214
0.3719510574
0.3719145543
0.3717927424
0.3719638846
0.3719638846
0.3719638846
0.3719638845
0.3719638839
0.3719638812
0.3719638699
0.3719638176
0.371963575
0.3719624364
0.3719570502
0.3719315362
0.3718127327
0.3712944877
0.3719638846
0.3719638846
0.3719638845
0.3719638844
0.3719638838
0.3719638809
0.3719638673
0.3719638021
0.3719634821
0.3719618501
0.3719531343
0.3719038635
0.3716061206
0.3696701245
0.3560239438
0.3719638847
0.3719638846
0.3719638846
0.3719638844
0.3719638838
0.3719638813
0.3719638699
0.3719638176
0.3719635748
0.3719624363
0.3719570503
0.3719315371
0.3718127395
0.3712945379
0.3694917752
0.3719638847
0.3719638846
0.3719638845
0.3719638843
0.3719638839
0.3719638823
0.3719638748
0.3719638427
0.3719637056
0.3719631265
0.3719607216
0.3719510579
0.371914557
0.3717927557
0.3714888236
0.3719638846
0.3719638846
0.3719638845
0.3719638845
0.3719638842
0.3719638832
0.3719638788
0.3719638614
0.3719637938
0.3719635357
0.3719625848
0.3719592598
0.3719485589
0.3719186372
0.371854425
0.3719638846
0.3719638846
0.3719638845
0.3719638845
0.3719638844
0.3719638836
0.3719638808
0.3719638704
0.371963833
0.3719637026
0.3719632691
0.3719619179
0.3719580724
0.3719485145
0.3719292355
0.3719638844
0.3719638844
0.3719638844
0.3719638845
0.3719638843
0.3719638836
0.3719638811
0.371963872
0.3719638395
0.3719637282
0.3719633671
0.3719622738
0.3719592621
0.3719520074
0.3719638844
0.3719638845
0.3719638845
0.3719638844
0.3719638842
0.3719638832
0.3719638794
0.3719638645
0.3719638073
0.3719635959
0.3719628465
0.3719603516
0.3719527913
0.3719330237
0.3719638845
0.3719638845
0.3719638845
0.3719638843
0.3719638841
0.3719638825
0.371963876
0.371963849
0.3719637375
0.3719632864
0.3719615193
0.3719549474
0.3719325139
0.3718665901
0.3719638845
0.3719638845
0.3719638845
0.3719638844
0.3719638839
0.3719638817
0.3719638721
0.3719638292
0.3719636392
0.3719628018
0.3719591666
0.3719438722
0.3718834307
0.3716734132
0.3719638846
0.3719638845
0.3719638845
0.3719638844
0.3719638838
0.3719638813
0.3719638699
0.3719638175
0.3719635748
0.3719624362
0.37195705
0.3719315359
0.3718127318
0.3712944853
0.3719638845
0.3719638845
0.3719638845
0.3719638845
0.371963884
0.3719638818
0.371963872
0.371963829
0.371963639
0.3719628017
0.3719591667
0.3719438724
0.3718834316
0.3716734157
0.3719638847
0.3719638847
0.3719638846
0.3719638845
0.3719638842
0.3719638826
0.3719638762
0.371963849
0.3719637375
0.3719632862
0.3719615193
0.3719549475
0.3719325148
0.3718665934
0.3717217513
0.3719638847
0.3719638847
0.3719638846
0.3719638845
0.3719638843
0.3719638833
0.3719638795
0.3719638644
0.3719638073
0.3719635959
0.3719628465
0.3719603517
0.3719527917
0.3719330251
0.3718925084
0.3719638846
0.3719638846
0.3719638845
0.3719638845
0.3719638844
0.3719638837
0.3719638812
0.3719638721
0.3719638394
0.3719637282
0.3719633672
0.3719622739
0.3719592623
0.3719520081
0.3719375632
0.3719638846
0.3719638846
0.3719638846
0.3719638845
0.3719638843
0.3719638838
0.371963882
0.3719638752
0.3719638523
0.371963777
0.3719635425
0.3719628629
0.3719610697
0.3719568955
0.3719638846
0.3719638846
0.3719638846
0.3719638845
0.3719638843
0.3719638836
0.3719638808
0.3719638704
0.3719638324
0.3719636991
0.3719632536
0.3719618635
0.3719579293
0.3719482598
0.3719638847
0.3719638847
0.3719638845
0.3719638845
0.3719638841
0.3719638831
0.3719638786
0.3719638607
0.3719637913
0.3719635286
0.3719625774
0.3719593455
0.3719493729
0.3719229394
0.3719638846
0.3719638846
0.3719638846
0.3719638845
0.3719638841
0.3719638827
0.3719638761
0.371963849
0.3719637375
0.3719632862
0.3719615192
0.3719549474
0.3719325139
0.3718665902
0.3719638846
0.3719638846
0.3719638845
0.3719638844
0.3719638841
0.3719638824
0.3719638748
0.3719638427
0.3719637057
0.3719631264
0.3719607214
0.3719510573
0.3719145538
0.371792742
0.3719638846
0.3719638846
0.3719638846
0.3719638845
0.3719638841
0.3719638826
0.371963876
0.371963849
0.3719637374
0.3719632862
0.3719615193
0.3719549474
0.371932514
0.3718665908
0.3719638847
0.3719638846
0.3719638846
0.3719638845
0.3719638843
0.3719638832
0.3719638787
0.3719638608
0.3719637913
0.3719635285
0.3719625774
0.3719593455
0.3719493729
0.3719229393
0.3719638848
0.3719638847
0.3719638846
0.3719638846
0.3719638843
0.3719638835
0.3719638808
0.3719638704
0.3719638324
0.371963699
0.3719632535
0.3719618636
0.3719579295
0.3719482601
0.3719289265
0.3719638847
0.3719638846
0.3719638845
0.3719638844
0.3719638843
0.3719638838
0.371963882
0.3719638752
0.3719638523
0.3719637769
0.3719635424
0.3719628628
0.3719610697
0.3719568956
0.3719486452
0.3719638846
0.3719638846
0.3719638846
0.3719638845
0.3719638845
0.371963884
0.3719638828
0.3719638783
0.3719638638
0.3719638184
0.3719636835
0.3719633101
0.3719623654
0.3719602288
0.3719638846
0.3719638846
0.3719638846
0.3719638845
0.3719638844
0.3719638839
0.3719638821
0.3719638756
0.3719638532
0.3719637791
0.3719635468
0.3719628676
0.3719610601
0.3719568262
0.3719638846
0.3719638846
0.3719638846
0.3719638846
0.3719638844
0.3719638837
0.3719638809
0.3719638704
0.3719638324
0.371963699
0.3719632536
0.3719618635
0.3719579294
0.3719482598
0.3719638846
0.3719638846
0.3719638846
0.3719638846
0.3719638843
0.3719638832
0.3719638794
0.3719638644
0.3719638073
0.3719635959
0.3719628465
0.3719603516
0.3719527912
0.3719330236
0.3719638846
0.3719638846
0.3719638846
0.3719638845
0.3719638842
0.3719638831
0.3719638787
0.3719638614
0.3719637938
0.3719635357
0.3719625848
0.3719592595
0.3719485578
0.3719186339
0.3719638845
0.3719638846
0.3719638846
0.3719638845
0.3719638843
0.3719638833
0.3719638794
0.3719638644
0.3719638072
0.3719635958
0.3719628465
0.3719603515
0.3719527911
0.3719330237
0.3719638847
0.3719638847
0.3719638846
0.3719638845
0.3719638843
0.3719638836
0.3719638809
0.3719638704
0.3719638324
0.371963699
0.3719632536
0.3719618635
0.3719579293
0.3719482598
0.3719638846
0.3719638846
0.3719638846
0.3719638846
0.3719638844
0.3719638839
0.3719638821
0.3719638756
0.3719638532
0.3719637792
0.3719635469
0.3719628676
0.3719610601
0.371956826
0.3719638846
0.3719638845
0.3719638845
0.3719638845
0.3719638844
0.3719638841
0.3719638828
0.3719638784
0.3719638639
0.3719638185
0.3719636835
0.3719633101
0.3719623653
0.3719602288
0.3719560166
0.3719638846
0.3719638846
0.3719638846
0.3719638846
0.3719638846
0.3719638843
0.3719638833
0.3719638801
0.3719638701
0.37196384
0.3719637543
0.3719635266
0.3719629696
0.3719617369
0.3719638846
0.3719638847
0.3719638846
0.3719638846
0.3719638845
0.3719638841
0.3719638827
0.3719638784
0.3719638639
0.3719638184
0.3719636834
0.3719633101
0.3719623653
0.3719602288
0.3719638845
0.3719638845
0.3719638846
0.3719638846
0.3719638845
0.371963884
0.3719638821
0.3719638754
0.3719638524
0.371963777
0.3719635424
0.3719628627
0.3719610696
0.3719568954
0.3719638846
0.3719638846
0.3719638846
0.3719638845
0.3719638844
0.3719638837
0.3719638812
0.371963872
0.3719638395
0.3719637281
0.3719633671
0.3719622738
0.371959262
0.3719520074
0.3719638847
0.3719638847
0.3719638846
0.3719638845
0.3719638843
0.3719638836
0.3719638808
0.3719638704
0.3719638329
0.3719637025
0.371963269
0.3719619176
0.371958072
0.3719485136
0.3719638846
0.3719638846
0.3719638846
0.3719638846
0.3719638844
0.3719638837
0.3719638812
0.371963872
0.3719638394
0.3719637282
0.3719633671
0.3719622738
0.3719592622
0.3719520075
0.3719638847
0.3719638847
0.3719638846
0.3719638846
0.3719638844
0.371963884
0.3719638821
0.3719638754
0.3719638524
0.3719637771
0.3719635426
0.3719628629
0.3719610696
0.3719568954
0.3719638847
0.3719638847
0.3719638846
0.3719638846
0.3719638845
0.3719638841
0.3719638828
0.3719638784
0.3719638639
0.3719638184
0.3719636834
0.3719633101
0.3719623653
0.3719602287
0.3719638847
0.3719638846
0.3719638846
0.3719638846
0.3719638845
0.3719638842
0.3719638833
0.3719638801
0.37196387
0.37196384
0.3719637543
0.3719635265
0.3719629694
0.3719617368
)
;

boundaryField
{
    top
    {
        type            zeroGradient;
    }
    bottom
    {
        type            zeroGradient;
    }
    side-walls
    {
        type            zeroGradient;
    }
    inlet
    {
        type            zeroGradient;
    }
    outlet
    {
        type            zeroGradient;
    }
    procBoundary0to1
    {
        type            processor;
        value           nonuniform List<scalar> 
97
(
0.3719550708
0.3719560165
0.3719488809
0.3719351985
0.3719151325
0.371900785
0.3719151329
0.371935199
0.3719488814
0.3719550712
0.3719560165
0.3719560165
0.3719349129
0.371928926
0.3718997438
0.3718371812
0.3717780656
0.3718371825
0.3718997454
0.3719349141
0.3719488814
0.3719486449
0.371928926
0.371928926
0.371795768
0.3717217472
0.3715643107
0.3712607589
0.3715643173
0.3717957739
0.3718997455
0.371935199
0.3719375627
0.371892507
0.3717217472
0.3717217472
0.3707703414
0.3694916917
0.3692107835
0.3707703717
0.3715643172
0.3718371825
0.3719151328
0.3719292347
0.3718544218
0.371488807
0.3694916917
0.3694916917
0.3624757795
0.3694916974
0.3692107833
0.3711355923
0.3712607581
0.3717780655
0.371900785
0.3719375631
0.3718925087
0.3717217579
0.3711355967
0.3694916974
0.3711355923
0.3711355923
0.3715643099
0.3718685323
0.3718371806
0.3719151322
0.3719486454
0.371928928
0.3718685359
0.3717217585
0.3714888092
0.3717217591
0.3718685323
0.3718685323
0.3718997438
0.3719484502
0.3719351983
0.3719560171
0.371948451
0.3719289282
0.371892509
0.3718544224
0.3718925092
0.3719289276
0.3719484502
0.3719484502
0.3719488808
0.371959307
0.3719593074
0.371956017
0.3719486454
0.3719375632
0.371929235
0.3719375634
0.3719486454
0.3719560169
0.371959307
)
;
    }
}


// ************************************************************************* //
