/*--------------------------------*- C++ -*----------------------------------*\
| =========                 |                                                 |
| \\      /  F ield         | OpenFOAM: The Open Source CFD Toolbox           |
|  \\    /   O peration     | Version:  4.x                                   |
|   \\  /    A nd           | Web:      www.OpenFOAM.org                      |
|    \\/     M anipulation  |                                                 |
\*---------------------------------------------------------------------------*/
FoamFile
{
    version     2.0;
    format      ascii;
    class       volScalarField;
    location    "1000";
    object      CO2;
}
// * * * * * * * * * * * * * * * * * * * * * * * * * * * * * * * * * * * * * //

dimensions      [0 0 0 0 0 0 0];

internalField   nonuniform List<scalar> 
1175
(
0.006506719303
0.006506719202
0.006506719122
0.00650671914
0.006506719321
0.006506719528
0.006506720685
0.006506724811
0.006506737548
0.006506776504
0.006506887289
0.006507181614
0.006507902066
0.006509495794
0.006512637242
0.006506719057
0.00650671881
0.006506718836
0.006506718993
0.006506719126
0.006506719618
0.006506721244
0.006506727069
0.006506745691
0.006506804596
0.006506978917
0.006507461471
0.006508682976
0.006511445243
0.006516891053
0.006506718647
0.006506718715
0.006506718864
0.00650671873
0.006506719064
0.00650671966
0.006506721973
0.006506730622
0.006506760351
0.006506857829
0.006507160866
0.006508039642
0.006510357974
0.006515754555
0.006526421864
0.006506718825
0.006506718751
0.00650671892
0.006506719015
0.006506719319
0.006506720007
0.006506723212
0.006506735071
0.00650677727
0.006506921029
0.006507387887
0.006508801378
0.006512694739
0.006522073358
0.0065407494
0.006506718581
0.006506718604
0.006506718929
0.00650671926
0.00650671967
0.006506720368
0.006506723845
0.006506737261
0.006506785599
0.006506954211
0.006507514517
0.006509261718
0.006514232977
0.006526590068
0.006551516327
0.006506718746
0.006506718748
0.0065067188
0.006506718878
0.006506719358
0.006506720171
0.006506723427
0.00650673508
0.006506777325
0.00650692094
0.006507387563
0.006508801209
0.006512694567
0.00652207332
0.006540748976
0.00650671898
0.006506718914
0.006506718659
0.006506719067
0.006506719447
0.006506719985
0.006506722348
0.00650673112
0.006506760869
0.006506858226
0.006507161503
0.006508039923
0.00651035777
0.006515754152
0.00652642116
0.006506719192
0.00650671912
0.006506718944
0.006506718903
0.006506719116
0.006506719484
0.00650672113
0.006506726747
0.006506745639
0.006506804669
0.006506979431
0.006507461959
0.006508683189
0.00651144513
0.006516890568
0.006506719025
0.006506718955
0.006506719089
0.006506719034
0.006506719003
0.006506719573
0.006506720931
0.006506724928
0.00650673775
0.006506776627
0.006506887416
0.006507181804
0.006507901947
0.006509495369
0.006512636648
0.006506719085
0.006506719007
0.006506718974
0.006506719123
0.006506719264
0.006506719697
0.006506721083
0.006506726601
0.00650674553
0.006506804455
0.006506978923
0.006507461686
0.006508683271
0.006511445808
0.006506719181
0.00650671901
0.006506718842
0.006506719079
0.006506719393
0.006506719882
0.006506722216
0.006506730474
0.00650675955
0.006506855366
0.006507155812
0.006508033968
0.006510370605
0.00651584452
0.006526674556
0.006506718822
0.006506719094
0.006506719212
0.006506719058
0.006506719409
0.006506720277
0.006506723691
0.006506737113
0.00650678614
0.006506958663
0.006507534564
0.006509331672
0.006514418012
0.006526919137
0.00655191526
0.006506718872
0.006506718799
0.006506718943
0.006506719162
0.006506719388
0.006506720697
0.006506725611
0.006506745037
0.006506818912
0.006507092174
0.006508060835
0.006511286084
0.006521059974
0.006546615339
0.00659899924
0.006506718657
0.006506718764
0.006506718917
0.006506719111
0.006506719354
0.006506720781
0.006506726438
0.006506748749
0.006506836409
0.00650717026
0.006508399528
0.006512698067
0.006526532569
0.006565217104
0.006648237236
0.006506719091
0.006506719013
0.00650671887
0.006506719103
0.00650671936
0.006506720703
0.006506725674
0.006506744972
0.006506818931
0.006507091985
0.006508060875
0.00651128633
0.00652105995
0.006546614862
0.006598997657
0.006506718899
0.006506718865
0.0065067189
0.00650671898
0.006506719169
0.006506720108
0.006506723807
0.006506737439
0.006506786591
0.006506958965
0.0065075348
0.006509331628
0.006514417552
0.006526917912
0.006551912968
0.006506719229
0.006506719042
0.006506719107
0.006506718989
0.006506718943
0.006506719758
0.006506722052
0.006506730536
0.006506759703
0.006506855436
0.00650715561
0.006508033833
0.006510370538
0.006515844077
0.006526672714
0.006506719193
0.006506719095
0.00650671909
0.006506718997
0.006506719116
0.006506719643
0.006506721304
0.006506727192
0.006506746008
0.006506804502
0.006506978808
0.006507461684
0.006508683101
0.006511445303
0.006516890761
0.006506719125
0.006506719085
0.006506719094
0.006506719092
0.006506719266
0.006506719977
0.006506722525
0.006506731017
0.006506760869
0.006506858365
0.006507161451
0.006508039996
0.006510358324
0.006515755427
0.006506719094
0.006506719099
0.006506718869
0.006506719074
0.006506719241
0.006506720104
0.006506723543
0.006506737239
0.006506786415
0.006506958782
0.006507534889
0.006509332019
0.006514418277
0.0065269207
0.006506719204
0.006506719329
0.006506719154
0.00650671905
0.006506719477
0.006506720966
0.006506726748
0.00650674964
0.006506839228
0.006507178941
0.00650840874
0.006512587186
0.006525480028
0.006559655085
0.006630002632
0.006506718832
0.006506718879
0.00650671885
0.006506719189
0.006506719428
0.006506721542
0.006506729948
0.006506765083
0.006506909209
0.006507492289
0.006509776784
0.006518272957
0.006547274628
0.006632500686
0.006819761625
0.006506719139
0.006506719162
0.006506719013
0.006506719068
0.00650671964
0.006506721954
0.006506731725
0.006506773027
0.006506950231
0.006507699068
0.006510808311
0.006523301656
0.00657049126
0.006727961787
0.007120908374
0.006506719132
0.00650671902
0.006506719129
0.006506719367
0.006506719665
0.006506721559
0.006506729898
0.006506764899
0.00650690912
0.006507492494
0.006509776692
0.006518272597
0.006547273847
0.006632497137
0.00681975027
0.00650671844
0.006506718699
0.006506718865
0.006506719029
0.006506719513
0.006506720827
0.006506726548
0.00650674953
0.006506839578
0.006507179416
0.00650840893
0.006512586897
0.006525479203
0.006559651733
0.006629991716
0.006506719076
0.006506718962
0.006506718924
0.006506718849
0.006506719283
0.006506720308
0.006506723879
0.006506737482
0.006506786706
0.006506959004
0.006507534844
0.006509331712
0.006514417628
0.006526918422
0.006551913255
0.006506719217
0.006506719124
0.006506719098
0.006506719008
0.006506719201
0.006506719957
0.006506722296
0.00650673092
0.006506760786
0.006506858148
0.006507161292
0.006508039828
0.006510358087
0.006515754507
0.006526421616
0.006506719471
0.006506719531
0.006506719379
0.006506719243
0.006506719429
0.006506720451
0.006506723451
0.00650673534
0.006506777546
0.006506921532
0.006507388121
0.006508801679
0.006512695498
0.006522075214
0.00650671913
0.00650671914
0.006506719038
0.006506719092
0.006506719459
0.006506720742
0.0065067256
0.006506745173
0.006506819075
0.00650709252
0.006508061403
0.006511286903
0.006521061506
0.006546620043
0.00650671884
0.006506719009
0.00650671908
0.006506719267
0.006506719617
0.006506721648
0.006506730045
0.006506764785
0.006506909042
0.0065074924
0.006509776925
0.006518273576
0.00654727687
0.006632511754
0.006506718905
0.006506718981
0.006506719133
0.006506719057
0.00650671966
0.006506722558
0.006506734975
0.006506790501
0.006507036167
0.006508118534
0.006512818467
0.00653259161
0.006610731244
0.00688224711
0.007577635449
0.006506719162
0.006506719085
0.006506719341
0.006506719348
0.006506720004
0.006506723086
0.00650673775
0.006506805445
0.006507119191
0.006508591147
0.006515554481
0.006548538783
0.006702124342
0.007372074084
0.009702770755
0.006506718957
0.006506718856
0.006506719067
0.006506719169
0.006506719969
0.006506722824
0.006506734974
0.006506790476
0.006507036074
0.006508118776
0.006512818248
0.006532590402
0.006610727207
0.00688222616
0.007577552318
0.0065067188
0.006506718843
0.006506719135
0.006506719222
0.006506719618
0.006506721639
0.006506729957
0.006506764905
0.006506908909
0.00650749249
0.006509776782
0.006518272962
0.006547274251
0.006632498198
0.006819751181
0.006506718883
0.006506718851
0.00650671862
0.00650671867
0.006506719203
0.006506720624
0.006506725639
0.006506745066
0.006506818934
0.00650709239
0.006508061164
0.006511286361
0.006521060248
0.006546615315
0.006598998108
0.006506718907
0.006506719051
0.006506718886
0.00650671883
0.006506718978
0.006506719757
0.006506723339
0.006506735236
0.006506777546
0.006506921234
0.006507387829
0.006508801256
0.006512694759
0.006522073616
0.006540749378
0.006506719577
0.00650671973
0.006506719438
0.006506719155
0.006506719404
0.006506720325
0.006506723829
0.006506737175
0.006506785565
0.006506954373
0.006507514858
0.006509261945
0.00651423403
0.00652659261
0.006506719191
0.006506719086
0.006506719084
0.006506719034
0.006506719342
0.006506720732
0.006506726479
0.006506748948
0.006506836613
0.006507170367
0.006508399384
0.006512698235
0.006526534444
0.006565224152
0.006506719041
0.006506718958
0.006506719017
0.006506719223
0.006506719762
0.006506722227
0.006506731696
0.006506773258
0.006506950082
0.006507699087
0.006510808512
0.006523302947
0.006570497595
0.006727989027
0.006506718861
0.006506718839
0.00650671887
0.006506718842
0.006506719885
0.006506723568
0.006506738032
0.006506805443
0.006507119056
0.006508591163
0.006515554904
0.006548541129
0.006702138768
0.007372167052
0.006506718941
0.006506718794
0.006506719002
0.006506719089
0.00650671991
0.006506723754
0.006506741325
0.006506825559
0.006507239304
0.006509349315
0.006520617442
0.006584317189
0.006969251694
0.009472174051
0.02711432786
0.006506718693
0.006506718763
0.006506718872
0.006506719187
0.006506719996
0.006506723359
0.006506737984
0.006506805666
0.006507119434
0.006508591465
0.006515554749
0.006548539705
0.006702128134
0.007372087386
0.009702789116
0.006506718718
0.006506718925
0.00650671912
0.006506719428
0.006506719919
0.006506721896
0.006506731583
0.006506773126
0.006506950329
0.006507699199
0.006510808298
0.006523302143
0.006570493071
0.006727966512
0.007120913745
0.006506718941
0.006506718904
0.006506719034
0.006506718999
0.006506719356
0.006506720701
0.00650672631
0.006506748917
0.006506836246
0.006507170016
0.006508399376
0.006512698174
0.006526533254
0.00656521853
0.006648238635
0.006506718818
0.006506718844
0.006506719028
0.006506719095
0.006506719188
0.00650672013
0.006506723921
0.006506737187
0.006506785679
0.006506954143
0.006507514681
0.006509261644
0.006514233463
0.006526590855
0.006551516982
0.006506719394
0.00650671936
0.006506719417
0.006506719158
0.006506719359
0.006506720264
0.006506723591
0.006506735191
0.006506777198
0.006506921106
0.006507388192
0.006508801705
0.006512695372
0.006522075214
0.006506719362
0.006506719042
0.006506719099
0.006506719347
0.006506719516
0.006506720776
0.00650672567
0.006506744817
0.006506818711
0.006507092066
0.006508061099
0.006511286724
0.006521061324
0.006546619512
0.006506719113
0.006506719195
0.00650671918
0.006506719421
0.006506719646
0.006506721719
0.006506730055
0.006506764946
0.006506909013
0.006507492347
0.006509777002
0.006518273797
0.00654727802
0.00663251234
0.006506719265
0.006506719211
0.006506719034
0.006506719138
0.006506719755
0.006506722683
0.006506735102
0.006506790434
0.006507036013
0.006508118925
0.006512818761
0.006532592667
0.006610737058
0.006882270314
0.006506718946
0.00650671904
0.006506719147
0.006506719186
0.006506720071
0.006506723303
0.006506738024
0.006506805739
0.006507119633
0.006508591522
0.006515555175
0.006548541705
0.006702140902
0.007372173631
0.006506719135
0.006506719049
0.006506719027
0.006506718964
0.00650671967
0.006506722569
0.00650673535
0.006506790999
0.006507036677
0.006508119046
0.006512818559
0.006532592357
0.006610735472
0.006882264767
0.00650671858
0.006506718734
0.006506718857
0.006506719004
0.00650671944
0.006506721369
0.006506729671
0.00650676494
0.006506909189
0.006507492667
0.006509777057
0.00651827354
0.006547276487
0.006632506301
0.006819776102
0.006506718676
0.006506718617
0.006506718805
0.006506719005
0.006506719393
0.006506720582
0.006506725554
0.006506745205
0.006506818968
0.006507092251
0.00650806115
0.006511286616
0.006521060882
0.006546616975
0.006599002065
0.006506718812
0.006506718832
0.006506719083
0.006506719083
0.006506719127
0.00650672003
0.006506723219
0.006506735002
0.006506777267
0.006506921044
0.006507387783
0.006508801298
0.006512695024
0.006522073911
0.006540750064
0.006506718895
0.006506718976
0.006506718993
0.006506719119
0.00650671936
0.006506720002
0.006506722366
0.006506731309
0.006506760896
0.006506858132
0.006507161249
0.006508039855
0.006510358245
0.006515755134
0.006506718876
0.006506718869
0.006506718964
0.006506718967
0.00650671925
0.006506720136
0.006506723759
0.006506737213
0.006506786372
0.006506958632
0.00650753453
0.006509331875
0.006514418583
0.006526920397
0.006506718591
0.006506718764
0.006506719116
0.006506719121
0.006506719611
0.00650672081
0.006506726591
0.006506749802
0.006506839561
0.006507179145
0.006508409033
0.006512587627
0.006525481238
0.006559657778
0.006506718883
0.006506719026
0.006506718886
0.006506718942
0.006506719523
0.006506721224
0.006506729793
0.006506764955
0.006506909018
0.006507492661
0.006509777255
0.00651827378
0.006547278153
0.006632512265
0.006506718907
0.006506719006
0.006506719098
0.006506719185
0.006506719635
0.006506721627
0.006506731481
0.006506773057
0.006506950311
0.006507699248
0.006510808631
0.006523303175
0.00657049844
0.006727990182
0.006506718902
0.006506718871
0.006506718842
0.006506718947
0.006506719557
0.00650672148
0.006506730127
0.006506765097
0.006506909433
0.006507492769
0.006509777089
0.006518273782
0.006547277997
0.006632511227
0.006506718651
0.006506718788
0.006506718895
0.006506719074
0.006506719239
0.006506720741
0.006506726537
0.006506749539
0.006506839455
0.006507179513
0.006508409117
0.006512587581
0.006525481129
0.006559657756
0.006506718503
0.006506718606
0.00650671882
0.006506718884
0.006506719317
0.006506720367
0.006506723786
0.006506737364
0.00650678634
0.00650695901
0.00650753492
0.006509331886
0.006514418099
0.006526919861
0.006551917152
0.006506718738
0.006506718888
0.006506719112
0.00650671932
0.006506719499
0.006506720007
0.006506722395
0.006506731096
0.00650676069
0.006506858313
0.006507161428
0.006508040067
0.006510358191
0.006515754926
0.006526422197
0.006506718961
0.006506719001
0.006506719022
0.006506719039
0.006506719078
0.006506719734
0.00650672128
0.006506727085
0.006506745837
0.006506804408
0.006506978951
0.006507461592
0.006508682964
0.00651144544
0.006506718811
0.006506718877
0.006506718992
0.006506719197
0.0065067191
0.006506719819
0.006506722155
0.006506730544
0.006506759473
0.006506855347
0.006507155635
0.006508033819
0.006510370732
0.006515844698
0.006506718965
0.006506718893
0.00650671878
0.006506718744
0.006506719157
0.006506720021
0.006506723608
0.006506737161
0.006506786485
0.006506958905
0.006507534743
0.006509331944
0.006514418474
0.006526920599
0.006506718864
0.006506719003
0.006506718813
0.006506718799
0.006506719204
0.006506720739
0.006506725567
0.006506745081
0.006506818902
0.006507092055
0.006508060963
0.00651128677
0.006521061698
0.00654661976
0.006506718789
0.006506718841
0.006506718817
0.006506718973
0.00650671953
0.006506720878
0.006506726536
0.006506749008
0.006506836415
0.006507170081
0.006508399512
0.006512698714
0.006526535052
0.006565224192
0.006506719158
0.006506718922
0.006506718901
0.006506718964
0.006506719328
0.006506720601
0.006506725635
0.006506745169
0.006506819049
0.006507092298
0.006508061049
0.006511286937
0.006521061822
0.0065466196
0.006506718643
0.006506718731
0.006506718953
0.006506719116
0.00650671947
0.006506720325
0.006506723724
0.006506737257
0.006506786384
0.006506958949
0.006507534786
0.006509332046
0.006514418616
0.006526920532
0.006506718798
0.006506718892
0.006506718945
0.006506718952
0.006506719279
0.006506719866
0.006506722063
0.00650673044
0.006506759533
0.006506855173
0.006507155515
0.006508033827
0.006510370709
0.00651584516
0.006506718894
0.006506719175
0.006506719127
0.006506719214
0.006506719199
0.006506719545
0.006506721246
0.00650672699
0.006506745707
0.006506804231
0.006506978979
0.006507461716
0.006508683242
0.006511445587
0.006516891686
0.00650671902
0.006506718933
0.006506718796
0.006506718826
0.006506718816
0.00650671925
0.006506720443
0.006506724629
0.006506737658
0.006506776645
0.006506887323
0.006507181823
0.006507901848
0.006509495663
0.006506718784
0.00650671876
0.006506718962
0.006506718836
0.006506719045
0.006506719638
0.006506721452
0.006506726976
0.006506745562
0.006506804585
0.006506979087
0.006507461722
0.006508683181
0.006511445606
0.006506719117
0.006506719065
0.006506718898
0.006506718901
0.006506718956
0.006506719563
0.006506721996
0.006506730566
0.006506760583
0.00650685804
0.006507161493
0.006508040296
0.006510358577
0.006515755527
0.006506718895
0.006506719029
0.006506718928
0.0065067191
0.006506719191
0.006506719985
0.006506723154
0.006506735116
0.006506777205
0.006506921273
0.006507388107
0.00650880169
0.006512695584
0.00652207518
0.006506718735
0.006506718716
0.006506718817
0.006506719106
0.006506719386
0.0065067202
0.006506723738
0.006506737229
0.006506785757
0.006506954425
0.006507514957
0.006509262174
0.006514234183
0.006526592378
0.006506718906
0.006506718877
0.006506718885
0.006506718867
0.006506719214
0.006506719985
0.006506723206
0.006506735246
0.006506777454
0.006506921176
0.006507388099
0.006508801481
0.006512695215
0.00652207513
0.006506718681
0.006506718702
0.006506718871
0.006506718854
0.006506719138
0.006506719659
0.006506721913
0.006506730731
0.006506760446
0.006506857772
0.006507161094
0.006508039856
0.006510358467
0.006515755354
0.006506718563
0.006506718724
0.006506718809
0.006506718826
0.006506719059
0.006506719518
0.006506721219
0.006506726857
0.006506745747
0.006506804633
0.006506979043
0.006507461644
0.006508683186
0.006511445731
0.006506718775
0.006506718863
0.006506718835
0.006506718911
0.006506718963
0.006506719475
0.006506720596
0.006506724794
0.006506737838
0.006506776683
0.00650688746
0.00650718192
0.006507902173
0.006509495734
)
;

boundaryField
{
    top
    {
        type            zeroGradient;
    }
    bottom
    {
        type            zeroGradient;
    }
    side-walls
    {
        type            zeroGradient;
    }
    inlet
    {
        type            zeroGradient;
    }
    outlet
    {
        type            zeroGradient;
    }
    procBoundary0to1
    {
        type            processor;
        value           nonuniform List<scalar> 
97
(
0.006518114362
0.006516891734
0.006526117403
0.006543807427
0.006569751008
0.006588300995
0.006569750549
0.006543806994
0.006526116729
0.006518113944
0.006516891734
0.006516891734
0.006544176885
0.006551917741
0.006589647346
0.006670535286
0.006746965555
0.006670533463
0.006589645387
0.006544175176
0.006526116712
0.006526422509
0.006551917741
0.006551917741
0.006724079104
0.006819782248
0.007023331583
0.007415788954
0.007023321949
0.00672407119
0.006589645278
0.006543806855
0.006540750735
0.006599004174
0.006819782248
0.006819782248
0.008049853014
0.009702966235
0.01006616473
0.008049808486
0.007023322232
0.006670533534
0.006569750877
0.006551518065
0.006648244131
0.007120946589
0.009702966235
0.009702966235
0.01877361602
0.009702958308
0.01006616586
0.007577615879
0.007415790754
0.006746965923
0.006588301123
0.00654075025
0.006599001632
0.006819766419
0.007577610531
0.009702958308
0.007577615879
0.007577615879
0.007023332514
0.006630002121
0.006670536262
0.00656975159
0.006526421935
0.006551914737
0.006629996477
0.006819765519
0.007120943941
0.006819765128
0.006630002121
0.006630002121
0.006589647398
0.006526674486
0.006543807814
0.006516890761
0.006526673199
0.006551914373
0.006599001267
0.00664824366
0.006599001074
0.006551915523
0.006526674486
0.006526674486
0.006526117682
0.006512637456
0.00651263676
0.006516891065
0.006526421899
0.006540750092
0.006551517805
0.006540749923
0.006526421872
0.006516891253
0.006512637456
)
;
    }
}


// ************************************************************************* //
