/*--------------------------------*- C++ -*----------------------------------*\
| =========                 |                                                 |
| \\      /  F ield         | OpenFOAM: The Open Source CFD Toolbox           |
|  \\    /   O peration     | Version:  4.x                                   |
|   \\  /    A nd           | Web:      www.OpenFOAM.org                      |
|    \\/     M anipulation  |                                                 |
\*---------------------------------------------------------------------------*/
FoamFile
{
    version     2.0;
    format      ascii;
    class       volScalarField;
    location    "1000";
    object      Cpv;
}
// * * * * * * * * * * * * * * * * * * * * * * * * * * * * * * * * * * * * * //

dimensions      [0 2 -2 -1 0 0 0];

internalField   nonuniform List<scalar> 
1175
(
1210.518947
1210.518963
1210.518963
1210.518945
1210.51896
1210.518957
1210.518954
1210.518963
1210.518976
1210.518969
1210.518982
1210.518996
1210.519046
1210.519144
1210.519333
1210.518984
1210.518985
1210.518993
1210.518977
1210.518991
1210.518997
1210.518981
1210.518958
1210.518954
1210.518958
1210.518978
1210.519029
1210.519109
1210.519287
1210.51964
1210.519014
1210.519
1210.518988
1210.518976
1210.518944
1210.518939
1210.518939
1210.518937
1210.518917
1210.518918
1210.518954
1210.518994
1210.519129
1210.519471
1210.520128
1210.51891
1210.518916
1210.518887
1210.518902
1210.518917
1210.51892
1210.518919
1210.51894
1210.518928
1210.518945
1210.518965
1210.519063
1210.519321
1210.519916
1210.521081
1210.51888
1210.518893
1210.518867
1210.518858
1210.518821
1210.518831
1210.518826
1210.518824
1210.518841
1210.518876
1210.518926
1210.519032
1210.519369
1210.520143
1210.521737
1210.519177
1210.519166
1210.519159
1210.519156
1210.519146
1210.519149
1210.519142
1210.519169
1210.519175
1210.519176
1210.519198
1210.519299
1210.519539
1210.520129
1210.521343
1210.518996
1210.51901
1210.519042
1210.519021
1210.519018
1210.51903
1210.519043
1210.519044
1210.51903
1210.519028
1210.519033
1210.519107
1210.51928
1210.51963
1210.52032
1210.518885
1210.518885
1210.518898
1210.518904
1210.518902
1210.518897
1210.518891
1210.5189
1210.518893
1210.518877
1210.518864
1210.518898
1210.518955
1210.519146
1210.519521
1210.519101
1210.51912
1210.519111
1210.519105
1210.519114
1210.519113
1210.519098
1210.519095
1210.519117
1210.519115
1210.519115
1210.519146
1210.5192
1210.519313
1210.519502
1210.518817
1210.518804
1210.518808
1210.518811
1210.518809
1210.518829
1210.518836
1210.518851
1210.518832
1210.518825
1210.518829
1210.518854
1210.51895
1210.519133
1210.518779
1210.518776
1210.518779
1210.518768
1210.518772
1210.518769
1210.518758
1210.518794
1210.518804
1210.518821
1210.518839
1210.518904
1210.519046
1210.519416
1210.520108
1210.51927
1210.519257
1210.519259
1210.519257
1210.519241
1210.519226
1210.519223
1210.519229
1210.51926
1210.519265
1210.519302
1210.519388
1210.519708
1210.520497
1210.5221
1210.518941
1210.518942
1210.518916
1210.5189
1210.518904
1210.518899
1210.51889
1210.518872
1210.518893
1210.518906
1210.518975
1210.519186
1210.519808
1210.521403
1210.524723
1210.518925
1210.5189
1210.518887
1210.518896
1210.518904
1210.5189
1210.51891
1210.518921
1210.51893
1210.518946
1210.519035
1210.519297
1210.520155
1210.522602
1210.527852
1210.518523
1210.518518
1210.518531
1210.518521
1210.518534
1210.518531
1210.518541
1210.51857
1210.518593
1210.518625
1210.518682
1210.518888
1210.519491
1210.521098
1210.524408
1210.519325
1210.519337
1210.519302
1210.519305
1210.519279
1210.519253
1210.519249
1210.519245
1210.519226
1210.51923
1210.519304
1210.519435
1210.51974
1210.520547
1210.522133
1210.518667
1210.518672
1210.518665
1210.518701
1210.518707
1210.518694
1210.5187
1210.518699
1210.518688
1210.518696
1210.518721
1210.518759
1210.518904
1210.519267
1210.519917
1210.519009
1210.519012
1210.519029
1210.519024
1210.519006
1210.519007
1210.519021
1210.519015
1210.51902
1210.519038
1210.519055
1210.519075
1210.519146
1210.519307
1210.519674
1210.519046
1210.519035
1210.519017
1210.51899
1210.518998
1210.518993
1210.518983
1210.518986
1210.518963
1210.518989
1210.519019
1210.51906
1210.519206
1210.519533
1210.519384
1210.519398
1210.519411
1210.519405
1210.519404
1210.519414
1210.519433
1210.519436
1210.519447
1210.519462
1210.519497
1210.519627
1210.519959
1210.520738
1210.518737
1210.518739
1210.518767
1210.518795
1210.518795
1210.518807
1210.518799
1210.518826
1210.518855
1210.518868
1210.518938
1210.519188
1210.520033
1210.522196
1210.526663
1210.51827
1210.518295
1210.518308
1210.518291
1210.51832
1210.518307
1210.518296
1210.518278
1210.518285
1210.518338
1210.518496
1210.519041
1210.520879
1210.526302
1210.538177
1210.518847
1210.518879
1210.518895
1210.518922
1210.518912
1210.518889
1210.518866
1210.518859
1210.518868
1210.518893
1210.519105
1210.519915
1210.522941
1210.532944
1210.557837
1210.518983
1210.519001
1210.519015
1210.519025
1210.519033
1210.519045
1210.519073
1210.519083
1210.519081
1210.519136
1210.519307
1210.519842
1210.521692
1210.527092
1210.538955
1210.518783
1210.518769
1210.51875
1210.518757
1210.51877
1210.518806
1210.518801
1210.518807
1210.518805
1210.518821
1210.518921
1210.519188
1210.520008
1210.522165
1210.526615
1210.519287
1210.519284
1210.519269
1210.519269
1210.519257
1210.519273
1210.519293
1210.519279
1210.519282
1210.519294
1210.519337
1210.51945
1210.519773
1210.520539
1210.522126
1210.518623
1210.518628
1210.518638
1210.518637
1210.518645
1210.51863
1210.518622
1210.518625
1210.518609
1210.518627
1210.518646
1210.51871
1210.518854
1210.51922
1210.519893
1210.519128
1210.519134
1210.519119
1210.519112
1210.519107
1210.519102
1210.519136
1210.519129
1210.519108
1210.519107
1210.519169
1210.519248
1210.519501
1210.520102
1210.519037
1210.519077
1210.519097
1210.519068
1210.519079
1210.519093
1210.519094
1210.519081
1210.519076
1210.519075
1210.519116
1210.519296
1210.519949
1210.521559
1210.518891
1210.518885
1210.51887
1210.518871
1210.518891
1210.518889
1210.51889
1210.518903
1210.518913
1210.518966
1210.519097
1210.519653
1210.521499
1210.526919
1210.519161
1210.519151
1210.519146
1210.51915
1210.519153
1210.519158
1210.519181
1210.519168
1210.519177
1210.519254
1210.519524
1210.52077
1210.525756
1210.542991
1210.587067
1210.518539
1210.518542
1210.518537
1210.518562
1210.518566
1210.518556
1210.518577
1210.518595
1210.518627
1210.518715
1210.519139
1210.521225
1210.53098
1210.573431
1210.717463
1210.518905
1210.518898
1210.518915
1210.518936
1210.518933
1210.518913
1210.518931
1210.518913
1210.518941
1210.519007
1210.51929
1210.520572
1210.525526
1210.542751
1210.586816
1210.519192
1210.519189
1210.519179
1210.519183
1210.519176
1210.519157
1210.519166
1210.519168
1210.519185
1210.519202
1210.519347
1210.519879
1210.52174
1210.527142
1210.539023
1210.518594
1210.518598
1210.518622
1210.518618
1210.518587
1210.518601
1210.518602
1210.518591
1210.518608
1210.518634
1210.518702
1210.518925
1210.519552
1210.521177
1210.524502
1210.518919
1210.518926
1210.518923
1210.518929
1210.518942
1210.518959
1210.518948
1210.51894
1210.51894
1210.518946
1210.518977
1210.519051
1210.519306
1210.519894
1210.521081
1210.518887
1210.518866
1210.518892
1210.518925
1210.518895
1210.518888
1210.518896
1210.518879
1210.518889
1210.518912
1210.518957
1210.519063
1210.519361
1210.520156
1210.5187
1210.518729
1210.518705
1210.518708
1210.518701
1210.518715
1210.51872
1210.518714
1210.518712
1210.518717
1210.518822
1210.519111
1210.519984
1210.522436
1210.519001
1210.519005
1210.519002
1210.518974
1210.518983
1210.518974
1210.518981
1210.518962
1210.518995
1210.519026
1210.519233
1210.52003
1210.522984
1210.53298
1210.519101
1210.519107
1210.51911
1210.519129
1210.519111
1210.519104
1210.519103
1210.519096
1210.51911
1210.519222
1210.519652
1210.521747
1210.531473
1210.573953
1210.519251
1210.519261
1210.519256
1210.51927
1210.519266
1210.519268
1210.519271
1210.519269
1210.519294
1210.519433
1210.520144
1210.524183
1210.548606
1210.70726
1209.7186
1210.519054
1210.519045
1210.519064
1210.519072
1210.519048
1210.519032
1210.519049
1210.519054
1210.519083
1210.51916
1210.519578
1210.521693
1210.531429
1210.573888
1210.717919
1210.519274
1210.519266
1210.519253
1210.519234
1210.519231
1210.51922
1210.519219
1210.519239
1210.519205
1210.519244
1210.51944
1210.520231
1210.523203
1210.533175
1210.558072
1210.518573
1210.518569
1210.518548
1210.518573
1210.518581
1210.518586
1210.518577
1210.518572
1210.518597
1210.51861
1210.518688
1210.518972
1210.519821
1210.522251
1210.527528
1210.518824
1210.518807
1210.5188
1210.518783
1210.518806
1210.518792
1210.518767
1210.518773
1210.518767
1210.518785
1210.518802
1210.518923
1210.519215
1210.51998
1210.521538
1210.518798
1210.51879
1210.51879
1210.518812
1210.518845
1210.518852
1210.51885
1210.518852
1210.518874
1210.518877
1210.518894
1210.518984
1210.51927
1210.519869
1210.518737
1210.518752
1210.518764
1210.518728
1210.518742
1210.518762
1210.518765
1210.518764
1210.518767
1210.518785
1210.518843
1210.519046
1210.519666
1210.521293
1210.519027
1210.519005
1210.51899
1210.519006
1210.519033
1210.519039
1210.519035
1210.519029
1210.519029
1210.519085
1210.519207
1210.519766
1210.521602
1210.527013
1210.518795
1210.518794
1210.518787
1210.51878
1210.518777
1210.518797
1210.518797
1210.518786
1210.518799
1210.518818
1210.519101
1210.520354
1210.52531
1210.5425
1210.519004
1210.51904
1210.51902
1210.519028
1210.518992
1210.518987
1210.518996
1210.519017
1210.519022
1210.519124
1210.519565
1210.521655
1210.531414
1210.573889
1210.519073
1210.519078
1210.519092
1210.5191
1210.519112
1210.519111
1210.519103
1210.519094
1210.519095
1210.519156
1210.519491
1210.520739
1210.525691
1210.542881
1210.51876
1210.518765
1210.518772
1210.518755
1210.518761
1210.518762
1210.518779
1210.518759
1210.518787
1210.518815
1210.518963
1210.519479
1210.521308
1210.526695
1210.538578
1210.518801
1210.518814
1210.518825
1210.518826
1210.518819
1210.518849
1210.518834
1210.518809
1210.518847
1210.51886
1210.518912
1210.519127
1210.519749
1210.521399
1210.524726
1210.519256
1210.519253
1210.51923
1210.519234
1210.519221
1210.519223
1210.519233
1210.519242
1210.519235
1210.519248
1210.51926
1210.519328
1210.519565
1210.520153
1210.521339
1210.51895
1210.518938
1210.518938
1210.518947
1210.518939
1210.518914
1210.518902
1210.518915
1210.518914
1210.518917
1210.518956
1210.51903
1210.519166
1210.519495
1210.519188
1210.5192
1210.519182
1210.519205
1210.519198
1210.519192
1210.519208
1210.519198
1210.51919
1210.519211
1210.51926
1210.519351
1210.519629
1210.520423
1210.518774
1210.518765
1210.518737
1210.518759
1210.518741
1210.518739
1210.518748
1210.518756
1210.518759
1210.51877
1210.518818
1210.519082
1210.51991
1210.522065
1210.518981
1210.518982
1210.519019
1210.519008
1210.519006
1210.519013
1210.519
1210.519008
1210.519033
1210.519043
1210.519184
1210.519735
1210.521564
1210.52698
1210.519024
1210.51901
1210.518985
1210.519001
1210.519025
1210.51903
1210.519044
1210.519037
1210.519047
1210.519095
1210.519307
1210.520092
1210.523074
1210.533028
1210.518728
1210.518731
1210.518765
1210.518771
1210.518749
1210.518744
1210.518701
1210.518698
1210.518713
1210.518755
1210.518915
1210.519462
1210.521304
1210.526717
1210.519041
1210.519004
1210.518975
1210.518977
1210.518985
1210.518987
1210.519003
1210.519015
1210.519032
1210.51903
1210.519097
1210.519362
1210.520169
1210.522317
1210.518814
1210.51883
1210.518822
1210.518827
1210.518826
1210.518815
1210.518848
1210.518843
1210.51884
1210.518838
1210.518895
1210.518991
1210.519295
1210.520092
1210.521685
1210.518849
1210.518825
1210.518827
1210.518847
1210.518855
1210.518876
1210.518866
1210.518858
1210.518871
1210.518844
1210.518855
1210.518899
1210.519068
1210.519393
1210.520063
1210.519081
1210.51909
1210.519074
1210.519075
1210.519087
1210.519107
1210.519106
1210.519082
1210.519071
1210.519079
1210.519098
1210.51911
1210.51918
1210.519344
1210.518806
1210.518802
1210.518785
1210.518794
1210.518796
1210.518821
1210.518841
1210.518846
1210.518881
1210.518882
1210.518882
1210.518946
1210.519102
1210.519474
1210.519113
1210.519129
1210.51914
1210.519153
1210.519121
1210.519115
1210.519116
1210.519109
1210.519095
1210.519095
1210.519175
1210.519272
1210.519569
1210.520369
1210.518766
1210.51874
1210.518766
1210.518793
1210.518778
1210.518755
1210.518796
1210.518784
1210.51878
1210.518822
1210.518858
1210.519046
1210.519666
1210.521288
1210.519
1210.519016
1210.51904
1210.519021
1210.519016
1210.519012
1210.518993
1210.518991
1210.51901
1210.519037
1210.519095
1210.519368
1210.520249
1210.522705
1210.518822
1210.518822
1210.518812
1210.518816
1210.51882
1210.518792
1210.518782
1210.518769
1210.518771
1210.518797
1210.518878
1210.519072
1210.519692
1210.521315
1210.518949
1210.518961
1210.518954
1210.518942
1210.518902
1210.518918
1210.518936
1210.51895
1210.518951
1210.518979
1210.519018
1210.519131
1210.519448
1210.520245
1210.519015
1210.519019
1210.519021
1210.519025
1210.519003
1210.519014
1210.519056
1210.519056
1210.519038
1210.519042
1210.519034
1210.519071
1210.519235
1210.519572
1210.519183
1210.519172
1210.519173
1210.519175
1210.519184
1210.519193
1210.519181
1210.519166
1210.519162
1210.519195
1210.519191
1210.519241
1210.519298
1210.519484
1210.519827
1210.519014
1210.519018
1210.519031
1210.519041
1210.519057
1210.519051
1210.519024
1210.519022
1210.519006
1210.519021
1210.519042
1210.51905
1210.519124
1210.519215
1210.518845
1210.518845
1210.518816
1210.51883
1210.518824
1210.51883
1210.518813
1210.518818
1210.518833
1210.518824
1210.518825
1210.51884
1210.518907
1210.519072
1210.519123
1210.519132
1210.519144
1210.519135
1210.519137
1210.519142
1210.519141
1210.519151
1210.519116
1210.519145
1210.519156
1210.519197
1210.519356
1210.519685
1210.518724
1210.518725
1210.51875
1210.518758
1210.518772
1210.51879
1210.518789
1210.518804
1210.518826
1210.518824
1210.518864
1210.518966
1210.5192
1210.519797
1210.518604
1210.518608
1210.518619
1210.518621
1210.518626
1210.518622
1210.518612
1210.518624
1210.518617
1210.51863
1210.51866
1210.518765
1210.519078
1210.519879
1210.518804
1210.51881
1210.518819
1210.518823
1210.518825
1210.518831
1210.518805
1210.518784
1210.518795
1210.518804
1210.51881
1210.518902
1210.519151
1210.519731
1210.519073
1210.519094
1210.519088
1210.519085
1210.51907
1210.519086
1210.519107
1210.519088
1210.519095
1210.519121
1210.519142
1210.519215
1210.519359
1210.5197
1210.518599
1210.518598
1210.518609
1210.518647
1210.518633
1210.518643
1210.518619
1210.518632
1210.518641
1210.518638
1210.518664
1210.518697
1210.51876
1210.518931
1210.518827
1210.518818
1210.51882
1210.518811
1210.518819
1210.518818
1210.518838
1210.518835
1210.518835
1210.518842
1210.518841
1210.518882
1210.518917
1210.519036
)
;

boundaryField
{
    top
    {
        type            calculated;
        value           nonuniform List<scalar> 
134
(
1210.519101
1210.519009
1210.518623
1210.518919
1210.518824
1210.519256
1210.518849
1210.519183
1210.518827
1210.51912
1210.519012
1210.518628
1210.518926
1210.518807
1210.519253
1210.518825
1210.519172
1210.518818
1210.519111
1210.519029
1210.518638
1210.518923
1210.5188
1210.51923
1210.518827
1210.519173
1210.51882
1210.519105
1210.519024
1210.518637
1210.518929
1210.518783
1210.519234
1210.518847
1210.519175
1210.518811
1210.519114
1210.519006
1210.518645
1210.518942
1210.518806
1210.519221
1210.518855
1210.519184
1210.518819
1210.519113
1210.519007
1210.51863
1210.518959
1210.518792
1210.519223
1210.518876
1210.519193
1210.518818
1210.519098
1210.519021
1210.518622
1210.518948
1210.518767
1210.519233
1210.518866
1210.519181
1210.518838
1210.519095
1210.519015
1210.518625
1210.51894
1210.518773
1210.519242
1210.518858
1210.519166
1210.518835
1210.519117
1210.51902
1210.518609
1210.51894
1210.518767
1210.519235
1210.518871
1210.519162
1210.518835
1210.519115
1210.519038
1210.518627
1210.518946
1210.518785
1210.519248
1210.518844
1210.519195
1210.518842
1210.519115
1210.519055
1210.518646
1210.518977
1210.518802
1210.51926
1210.518855
1210.519191
1210.518841
1210.519146
1210.519075
1210.51871
1210.519051
1210.518923
1210.519328
1210.518899
1210.519241
1210.518882
1210.5192
1210.519146
1210.518854
1210.519306
1210.519215
1210.519565
1210.519068
1210.519298
1210.518917
1210.519313
1210.519307
1210.51922
1210.519894
1210.51998
1210.520153
1210.519393
1210.519484
1210.519036
1210.519502
1210.519674
1210.519893
1210.521081
1210.521538
1210.521339
1210.520063
1210.519827
)
;
    }
    bottom
    {
        type            calculated;
        value           nonuniform List<scalar> 
127
(
1210.518947
1210.518817
1210.519046
1210.519128
1210.518887
1210.518798
1210.51895
1210.519081
1210.519014
1210.518963
1210.518804
1210.519035
1210.519134
1210.518866
1210.51879
1210.518938
1210.51909
1210.519018
1210.518963
1210.518808
1210.519017
1210.519119
1210.518892
1210.51879
1210.518938
1210.519074
1210.519031
1210.518945
1210.518811
1210.51899
1210.519112
1210.518925
1210.518812
1210.518947
1210.519075
1210.519041
1210.51896
1210.518809
1210.518998
1210.519107
1210.518895
1210.518845
1210.518939
1210.519087
1210.519057
1210.518957
1210.518829
1210.518993
1210.519102
1210.518888
1210.518852
1210.518914
1210.519107
1210.519051
1210.518954
1210.518836
1210.518983
1210.519136
1210.518896
1210.51885
1210.518902
1210.519106
1210.519024
1210.518963
1210.518851
1210.518986
1210.519129
1210.518879
1210.518852
1210.518915
1210.519082
1210.519022
1210.518976
1210.518832
1210.518963
1210.519108
1210.518889
1210.518874
1210.518914
1210.519071
1210.519006
1210.518969
1210.518825
1210.518989
1210.519107
1210.518912
1210.518877
1210.518917
1210.519079
1210.519021
1210.518982
1210.518829
1210.519019
1210.519169
1210.518957
1210.518894
1210.518956
1210.519098
1210.519042
1210.518996
1210.518854
1210.51906
1210.519248
1210.519063
1210.518984
1210.51903
1210.51911
1210.51905
1210.519046
1210.51895
1210.519206
1210.519501
1210.519361
1210.51927
1210.519166
1210.51918
1210.519124
1210.519144
1210.519133
1210.519533
1210.520102
1210.520156
1210.519869
1210.519495
1210.519344
1210.519215
1210.519333
)
;
    }
    side-walls
    {
        type            calculated;
        value           nonuniform List<scalar> 
261
(
1210.518947
1210.518984
1210.519014
1210.51891
1210.51888
1210.519177
1210.518996
1210.518885
1210.519101
1210.518963
1210.518985
1210.519
1210.518916
1210.518893
1210.519166
1210.51901
1210.518885
1210.51912
1210.518963
1210.518993
1210.518988
1210.518887
1210.518867
1210.519159
1210.519042
1210.518898
1210.519111
1210.518945
1210.518977
1210.518976
1210.518902
1210.518858
1210.519156
1210.519021
1210.518904
1210.519105
1210.51896
1210.518991
1210.518944
1210.518917
1210.518821
1210.519146
1210.519018
1210.518902
1210.519114
1210.518957
1210.518997
1210.518939
1210.51892
1210.518831
1210.519149
1210.51903
1210.518897
1210.519113
1210.518954
1210.518981
1210.518939
1210.518919
1210.518826
1210.519142
1210.519043
1210.518891
1210.519098
1210.518963
1210.518958
1210.518937
1210.51894
1210.518824
1210.519169
1210.519044
1210.5189
1210.519095
1210.518976
1210.518954
1210.518917
1210.518928
1210.518841
1210.519175
1210.51903
1210.518893
1210.519117
1210.518969
1210.518958
1210.518918
1210.518945
1210.518876
1210.519176
1210.519028
1210.518877
1210.519115
1210.518982
1210.518978
1210.518954
1210.518965
1210.518926
1210.519198
1210.519033
1210.518864
1210.519115
1210.518996
1210.519029
1210.518994
1210.519063
1210.519032
1210.519299
1210.519107
1210.518898
1210.519146
1210.519046
1210.519109
1210.519129
1210.519321
1210.519369
1210.519539
1210.51928
1210.518955
1210.5192
1210.519144
1210.519287
1210.519471
1210.519916
1210.520143
1210.520129
1210.51963
1210.519146
1210.519313
1210.519333
1210.51964
1210.520128
1210.521081
1210.521737
1210.521343
1210.52032
1210.519521
1210.519502
1210.519014
1210.518845
1210.519123
1210.518724
1210.518604
1210.518804
1210.519073
1210.518599
1210.518827
1210.519018
1210.518845
1210.519132
1210.518725
1210.518608
1210.51881
1210.519094
1210.518598
1210.518818
1210.519031
1210.518816
1210.519144
1210.51875
1210.518619
1210.518819
1210.519088
1210.518609
1210.51882
1210.519041
1210.51883
1210.519135
1210.518758
1210.518621
1210.518823
1210.519085
1210.518647
1210.518811
1210.519057
1210.518824
1210.519137
1210.518772
1210.518626
1210.518825
1210.51907
1210.518633
1210.518819
1210.519051
1210.51883
1210.519142
1210.51879
1210.518622
1210.518831
1210.519086
1210.518643
1210.518818
1210.519024
1210.518813
1210.519141
1210.518789
1210.518612
1210.518805
1210.519107
1210.518619
1210.518838
1210.519022
1210.518818
1210.519151
1210.518804
1210.518624
1210.518784
1210.519088
1210.518632
1210.518835
1210.519006
1210.518833
1210.519116
1210.518826
1210.518617
1210.518795
1210.519095
1210.518641
1210.518835
1210.519021
1210.518824
1210.519145
1210.518824
1210.51863
1210.518804
1210.519121
1210.518638
1210.518842
1210.519042
1210.518825
1210.519156
1210.518864
1210.51866
1210.51881
1210.519142
1210.518664
1210.518841
1210.51905
1210.51884
1210.519197
1210.518966
1210.518765
1210.518902
1210.519215
1210.518697
1210.518882
1210.519124
1210.518907
1210.519356
1210.5192
1210.519078
1210.519151
1210.519359
1210.51876
1210.518917
1210.519215
1210.519072
1210.519685
1210.519797
1210.519879
1210.519731
1210.5197
1210.518931
1210.519036
)
;
    }
    inlet
    {
        type            calculated;
        value           nonuniform List<scalar> 
81
(
1210.518947
1210.518984
1210.519014
1210.51891
1210.51888
1210.519177
1210.518996
1210.518885
1210.519101
1210.518817
1210.518779
1210.51927
1210.518941
1210.518925
1210.518523
1210.519325
1210.518667
1210.519009
1210.519046
1210.519384
1210.518737
1210.51827
1210.518847
1210.518983
1210.518783
1210.519287
1210.518623
1210.519128
1210.519037
1210.518891
1210.519161
1210.518539
1210.518905
1210.519192
1210.518594
1210.518919
1210.518887
1210.5187
1210.519001
1210.519101
1210.519251
1210.519054
1210.519274
1210.518573
1210.518824
1210.518798
1210.518737
1210.519027
1210.518795
1210.519004
1210.519073
1210.51876
1210.518801
1210.519256
1210.51895
1210.519188
1210.518774
1210.518981
1210.519024
1210.518728
1210.519041
1210.518814
1210.518849
1210.519081
1210.518806
1210.519113
1210.518766
1210.519
1210.518822
1210.518949
1210.519015
1210.519183
1210.519014
1210.518845
1210.519123
1210.518724
1210.518604
1210.518804
1210.519073
1210.518599
1210.518827
)
;
    }
    outlet
    {
        type            calculated;
        value           nonuniform 0();
    }
    procBoundary0to1
    {
        type            processor;
        value           nonuniform List<scalar> 
97
(
1210.51968
1210.519483
1210.520204
1210.521243
1210.522925
1210.524043
1210.523165
1210.521428
1210.520083
1210.519818
1210.519483
1210.519483
1210.5212
1210.522336
1210.524511
1210.529253
1210.534127
1210.528925
1210.524507
1210.52103
1210.520265
1210.52021
1210.522336
1210.522336
1210.532603
1210.538789
1210.551076
1210.576541
1210.551859
1210.532602
1210.524535
1210.521
1210.521278
1210.524888
1210.538789
1210.538789
1210.616981
1210.717992
1210.740455
1210.616726
1210.55193
1210.529051
1210.522906
1210.521749
1210.527685
1210.557876
1210.717992
1210.717992
1209.191314
1210.71792
1210.74092
1210.586939
1210.576755
1210.533784
1210.52387
1210.521047
1210.524608
1210.538858
1210.586611
1210.71792
1210.586939
1210.586939
1210.551483
1210.526769
1210.52927
1210.523155
1210.52017
1210.521991
1210.526564
1210.538824
1210.557961
1210.538545
1210.526769
1210.526769
1210.524105
1210.520264
1210.521157
1210.519686
1210.520156
1210.521942
1210.524611
1210.527951
1210.524654
1210.521829
1210.520264
1210.520264
1210.520397
1210.519192
1210.519401
1210.51942
1210.520369
1210.520993
1210.52146
1210.520933
1210.520363
1210.519299
1210.519192
)
;
    }
}


// ************************************************************************* //
