/*--------------------------------*- C++ -*----------------------------------*\
| =========                 |                                                 |
| \\      /  F ield         | OpenFOAM: The Open Source CFD Toolbox           |
|  \\    /   O peration     | Version:  4.x                                   |
|   \\  /    A nd           | Web:      www.OpenFOAM.org                      |
|    \\/     M anipulation  |                                                 |
\*---------------------------------------------------------------------------*/
FoamFile
{
    version     2.0;
    format      ascii;
    class       volScalarField;
    location    "1000";
    object      molarConc;
}
// * * * * * * * * * * * * * * * * * * * * * * * * * * * * * * * * * * * * * //

dimensions      [0 -3 0 0 1 0 0];

internalField   nonuniform List<scalar> 
1175
(
9.963277118
9.963276217
9.963276218
9.963277186
9.963276391
9.963276528
9.963276737
9.963276243
9.963275551
9.96327609
9.963275744
9.963276044
9.963275788
9.963275952
9.963276496
9.963275049
9.96327504
9.963274574
9.963275476
9.963274669
9.963274386
9.96327524
9.963276544
9.963276815
9.963276772
9.963276299
9.963275204
9.963275057
9.963274851
9.963274431
9.963273424
9.963274223
9.963274829
9.963275502
9.963277255
9.963277554
9.963277521
9.963277685
9.963278877
9.963279177
9.963278234
9.963279133
9.963279744
9.963279754
9.963280766
9.963279125
9.963278801
9.963280403
9.963279581
9.96327876
9.963278602
9.963278674
9.963277512
9.963278341
9.963277933
9.963278455
9.963277966
9.963277364
9.963277278
9.963278296
9.963280794
9.963280029
9.963281466
9.963281987
9.963284014
9.963283437
9.963283717
9.963283898
9.963283138
9.96328179
9.963280987
9.963281271
9.963280053
9.96328055
9.963279681
9.963264486
9.963265087
9.963265467
9.963265666
9.963266219
9.963266064
9.963266427
9.963265013
9.963264827
9.963265243
9.963265697
9.963265063
9.963265416
9.963265624
9.963263906
9.96327442
9.963273653
9.96327191
9.963273061
9.963273219
9.963272541
9.96327188
9.963271835
9.963272726
9.963273147
9.963273937
9.963272928
9.963271473
9.963271047
9.963270244
9.963280505
9.963280482
9.963279793
9.963279452
9.963279556
9.963279865
9.9632802
9.9632797
9.963280164
9.963281235
9.963282539
9.963282334
9.963283456
9.963282585
9.963280938
9.963268671
9.963267616
9.963268104
9.963268468
9.963267974
9.963267994
9.963268828
9.96326901
9.963267829
9.963268113
9.963268465
9.963267799
9.963267351
9.963266698
9.963267205
9.963284238
9.96328495
9.963284729
9.963284561
9.963284677
9.963283558
9.963283205
9.963282407
9.963283513
9.963284074
9.963284468
9.963284743
9.963283735
9.963283298
9.963286283
9.963286452
9.963286289
9.963286878
9.963286679
9.963286865
9.963287463
9.963285519
9.963285076
9.963284486
9.96328451
9.963283992
9.963284353
9.963283087
9.963282734
9.963259424
9.963260149
9.963260013
9.963260112
9.963261018
9.963261816
9.963262019
9.963261714
9.96326017
9.963260517
9.963260509
9.963262013
9.96326211
9.963262291
9.963261209
9.963277405
9.963277385
9.96327879
9.963279651
9.963279443
9.963279708
9.96328024
9.963281308
9.963280423
9.963280627
9.963280232
9.963279833
9.963279692
9.963280986
9.963280898
9.963278318
9.963279663
9.963280388
9.96327991
9.963279466
9.963279653
9.963279166
9.963278615
9.963278437
9.963278735
9.963278098
9.963278645
9.963279675
9.963279853
9.963280311
9.963300305
9.963300617
9.963299877
9.963300413
9.963299697
9.963299891
9.963299374
9.963297817
9.96329683
9.963296018
9.963296267
9.963296161
9.96329706
9.96329766
9.96329811
9.963256414
9.963255715
9.963257641
9.963257483
9.963258905
9.963260365
9.963260568
9.963260863
9.963262054
9.96326243
9.963260388
9.963259436
9.963260398
9.963259522
9.963259381
9.963292458
9.963292142
9.963292541
9.963290573
9.963290246
9.963290981
9.963290652
9.963290698
9.963291421
9.963291315
9.963290992
9.963291974
9.963292111
9.963291255
9.963293191
9.963273682
9.963273527
9.963272606
9.963272894
9.963273879
9.963273826
9.963273056
9.963273427
9.963273171
9.963272428
9.963272075
9.963272646
9.96327302
9.963273754
9.963272588
9.963271681
9.963272295
9.963273252
9.963274738
9.963274296
9.96327457
9.963275123
9.963275003
9.963276349
9.963275298
9.963274688
9.963275513
9.963275564
9.963276326
9.963253159
9.963252388
9.963251683
9.963251996
9.963252068
9.963251503
9.963250484
9.963250358
9.96324993
9.963249709
9.963249795
9.963248945
9.963248395
9.963249078
9.963288601
9.96328847
9.963286935
9.963285434
9.963285417
9.963284777
9.963285226
9.963283846
9.963282535
9.963283018
9.963283439
9.963284262
9.963282689
9.963282805
9.96328219
9.963314178
9.963312783
9.963312083
9.963313004
9.963311421
9.963312137
9.963312778
9.963313905
9.963314034
9.963313125
9.963312415
9.963312048
9.963311954
9.963310592
9.963309838
9.963282572
9.963280801
9.963279959
9.963278472
9.963279021
9.963280301
9.963281554
9.96328211
9.963282213
9.963283452
9.963282648
9.963281608
9.963279579
9.963277952
9.963277699
9.963275116
9.963274136
9.963273374
9.963272838
9.963272378
9.96327172
9.963270211
9.963269805
9.96327043
9.963269427
9.963268007
9.963268162
9.963267446
9.963267305
9.963267161
9.963286079
9.963286866
9.963287891
9.963287495
9.963286804
9.963284848
9.96328513
9.963284869
9.963285304
9.963285576
9.963284377
9.963284231
9.963284081
9.963284475
9.963284755
9.963258461
9.963258668
9.963259439
9.963259465
9.963260145
9.963259233
9.963258177
9.963258999
9.963258964
9.963258915
9.963258544
9.963258597
9.96325855
9.963259994
9.96325974
9.963294859
9.963294556
9.963294005
9.963294096
9.963293666
9.963294464
9.963294932
9.96329479
9.963295763
9.963295101
9.963295128
9.963294637
9.963294824
9.963293464
9.963293613
9.963267183
9.963266881
9.963267693
9.963268054
9.963268358
9.963268619
9.96326676
9.963267191
9.96326849
9.963269031
9.963267263
9.963267836
9.963267504
9.963267092
9.963272173
9.96326998
9.963268868
9.963270468
9.963269858
9.963269094
9.963269086
9.963269853
9.963270404
9.96327138
9.963272486
9.963273853
9.963271979
9.963272445
9.963280178
9.963280515
9.963281326
9.96328129
9.963280173
9.963280287
9.963280237
9.963279685
9.963279611
9.963278767
9.963279507
9.963278498
9.963278022
9.963276859
9.963265402
9.963265915
9.963266228
9.96326598
9.963265842
9.963265566
9.96326433
9.963265265
9.963265587
9.963265147
9.963266643
9.963267018
9.963265
9.963262901
9.963261284
9.963299464
9.963299273
9.963299565
9.963298211
9.963297992
9.963298508
9.963297423
9.963296698
9.96329601
9.963296309
9.963297257
9.963297382
9.963295886
9.963294865
9.963491188
9.963279389
9.963279809
9.963278879
9.963277703
9.963277886
9.963278998
9.963278011
9.963279219
9.963278503
9.963278649
9.963279465
9.963277847
9.963277539
9.963275981
9.963274646
9.9632637
9.963263835
9.963264404
9.963264197
9.963264538
9.963265591
9.963265146
9.963265149
9.963264734
9.963265814
9.963265782
9.963266137
9.963264803
9.963264566
9.963263473
9.963296437
9.963296204
9.963294899
9.963295128
9.963296812
9.963296068
9.963295991
9.963296699
9.96329599
9.963295556
9.963295153
9.963294173
9.963293728
9.963293379
9.963292954
9.963278649
9.963278274
9.963278412
9.963278102
9.963277369
9.963276463
9.963277074
9.963277561
9.963277678
9.963277843
9.963277788
9.963278608
9.963278171
9.963278523
9.963278269
9.963280401
9.963281526
9.963280111
9.963278301
9.96327995
9.96328035
9.963279913
9.963280889
9.963280505
9.963279836
9.963279329
9.963279594
9.963280493
9.963279833
9.963290651
9.963289048
9.963290331
9.963290185
9.96329058
9.963289828
9.963289536
9.963289984
9.963290355
9.963291246
9.963289796
9.963288869
9.963289058
9.96328899
9.963274166
9.963273922
9.963274076
9.963275609
9.963275156
9.963275655
9.96327527
9.963276484
9.963275292
9.963276181
9.963275643
9.963275317
9.963277227
9.963276113
9.963268686
9.963268319
9.963268164
9.963267129
9.963268125
9.963268499
9.963268616
9.963269243
9.963269542
9.963268511
9.963269119
9.963268838
9.96326894
9.963266735
9.963260441
9.963259912
9.963260167
9.963259436
9.963259634
9.963259515
9.963259408
9.963259813
9.963259875
9.963259594
9.963259728
9.963259522
9.96325713
9.963250058
10.07856856
9.963271225
9.963271725
9.963270682
9.963270265
9.963271572
9.96327244
9.963271571
9.963271527
9.963271062
9.963271954
9.963273191
9.963271758
9.963271327
9.963269891
9.963466337
9.963259204
9.96325965
9.96326033
9.963261358
9.963261537
9.963262154
9.963262269
9.963261274
9.963263769
9.963264252
9.963264274
9.963264322
9.963265251
9.963265319
9.96326486
9.963297607
9.963297822
9.963298931
9.963297609
9.963297163
9.963296888
9.963297373
9.963297745
9.963296673
9.963297129
9.963297099
9.963296462
9.963297952
9.963299048
9.963298073
9.96328382
9.96328476
9.963285145
9.963286061
9.96328485
9.96328561
9.963286988
9.963286683
9.963287202
9.963286795
9.963287787
9.963287243
9.963288477
9.963289444
9.963290613
9.963285242
9.963285674
9.963285685
9.963284476
9.963282666
9.963282329
9.963282448
9.963282376
9.963281321
9.963281654
9.963282303
9.963282274
9.963280122
9.963279854
9.963288609
9.963287783
9.963287141
9.963289113
9.963288309
9.963287233
9.963287099
9.963287204
9.963287329
9.963287241
9.96328746
9.963287543
9.963287457
9.963287011
9.96327272
9.963273943
9.963274742
9.963273869
9.963272418
9.963272055
9.963272321
9.963272742
9.963273264
9.963272228
9.963273458
9.963272339
9.963272388
9.963271705
9.963285446
9.963285457
9.963285843
9.963286269
9.963286437
9.963285305
9.963285357
9.963286174
9.963286281
9.963288996
9.963289807
9.963289774
9.963289411
9.963289947
9.963273979
9.963272027
9.963273113
9.963272651
9.963274621
9.963274914
9.963274488
9.963273575
9.963274359
9.963273906
9.963273931
9.963273839
9.963272213
9.963270284
9.963270217
9.963269944
9.963269161
9.963268716
9.96326809
9.963268144
9.963268618
9.963269319
9.963270114
9.963270533
9.963268442
9.963268684
9.963268574
9.963269007
9.963287322
9.96328707
9.963286676
9.963287597
9.963287308
9.963287226
9.963286329
9.963287563
9.9632865
9.963287012
9.963286834
9.963288018
9.963288499
9.963289082
9.963287935
9.963285104
9.96328437
9.963283775
9.963283731
9.96328411
9.963282487
9.963283333
9.96328475
9.963282906
9.963283172
9.963283696
9.963283097
9.963282928
9.963281228
9.963280744
9.963260176
9.963260363
9.963261581
9.963261404
9.963262111
9.963261984
9.963261436
9.963260999
9.963261527
9.963261308
9.963262276
9.963263468
9.963263992
9.963264336
9.963264122
9.963276949
9.963277601
9.963277604
9.963277083
9.963277552
9.963278887
9.963279599
9.963278873
9.963279041
9.963279228
9.963278143
9.963277163
9.963277754
9.963278431
9.963263915
9.963263215
9.963264226
9.963262954
9.963263337
9.963263703
9.963262844
9.963263437
9.963264042
9.963263488
9.963262775
9.963264041
9.963266467
9.963266354
9.963286578
9.963287041
9.963288603
9.963287392
9.963288382
9.963288521
9.963288037
9.963287652
9.963287794
9.963288378
9.963290046
9.963290043
9.963289467
9.963289996
9.963275222
9.963275179
9.963273162
9.963273732
9.963273845
9.963273512
9.963274254
9.963273901
9.963273071
9.963274515
9.963274731
9.963274004
9.963274468
9.963273524
9.963272855
9.963273633
9.963275037
9.963274147
9.963272855
9.963272541
9.963271849
9.96327235
9.963272449
9.963272393
9.963271547
9.963271895
9.963272317
9.963273466
9.963289116
9.963288902
9.963287042
9.963286738
9.96328793
9.963288221
9.963290606
9.963290919
9.963290574
9.963290283
9.963289478
9.963288982
9.96328871
9.963287897
9.963271957
9.963274004
9.963275557
9.963275475
9.963275002
9.963274942
9.963274045
9.963273464
9.963272868
9.963274165
9.963274767
9.963274737
9.963275244
9.963276184
9.9632844
9.963283519
9.96328394
9.963283687
9.963283732
9.963284352
9.963282537
9.963282875
9.963283175
9.963283887
9.963282762
9.963283733
9.963284758
9.963284475
9.963283954
9.963282493
9.963283781
9.96328368
9.96328258
9.963282123
9.963280996
9.963281524
9.963282009
9.963281402
9.963283209
9.963283694
9.963284317
9.963283117
9.96328404
9.963284333
9.963269755
9.963269255
9.963270154
9.963270109
9.963269407
9.963268359
9.963268398
9.963269716
9.963270388
9.963270168
9.963269705
9.963270758
9.963271132
9.963271778
9.963284811
9.963285016
9.963285966
9.963285485
9.963285378
9.963283981
9.963282903
9.96328268
9.963280861
9.963281158
9.963282199
9.963281691
9.963281283
9.963279887
9.963267986
9.963267158
9.963266505
9.963265815
9.963267566
9.963267876
9.963267849
9.963268269
9.963269247
9.963269836
9.963267454
9.963268343
9.963269758
9.963269303
9.963287006
9.963288434
9.963287017
9.963285547
9.963286368
9.963287645
9.963285397
9.963286104
9.963286571
9.963285233
9.963286635
9.963287526
9.963287448
9.963287289
9.963274192
9.963273315
9.963272019
9.963273073
9.963273321
9.963273545
9.96327458
9.963274787
9.963274051
9.96327375
9.963274851
9.963274802
9.963274543
9.963274242
9.963283966
9.963283935
9.963284501
9.96328426
9.963284068
9.963285603
9.96328616
9.963286963
9.963287085
9.96328663
9.963285537
9.963286077
9.963286055
9.963285824
9.963276982
9.963276329
9.963276717
9.963277377
9.96327958
9.963278675
9.96327773
9.963277026
9.963277116
9.963276179
9.963276028
9.96327608
9.963276389
9.963276086
9.96327336
9.963273168
9.963273066
9.963272829
9.963274019
9.96327341
9.963271124
9.963271157
9.963272232
9.963272377
9.963273862
9.963274854
9.963273971
9.963274554
9.963264154
9.963264769
9.963264727
9.963264592
9.963264115
9.963263608
9.963264303
9.963265109
9.96326543
9.963263814
9.963264662
9.963263588
9.963264698
9.963264103
9.963264204
9.96327342
9.963273197
9.963272504
9.963271958
9.963271096
9.963271415
9.96327289
9.963272999
9.963273933
9.963273255
9.963272457
9.963273037
9.963271532
9.963272032
9.963282686
9.963282708
9.963284283
9.963283495
9.963283836
9.963283503
9.963284472
9.963284167
9.963283427
9.963284132
9.963284688
9.963285527
9.963286124
9.963286645
9.963267452
9.963266959
9.963266302
9.96326681
9.963266689
9.963266427
9.963266486
9.963265948
9.963267997
9.963266734
9.963267165
9.963267964
9.963267348
9.963268034
9.963289307
9.963289251
9.963287876
9.963287462
9.963286665
9.963285706
9.963285782
9.963284996
9.963283945
9.963284556
9.963283982
9.963283274
9.96328399
9.963283797
9.963295875
9.963295655
9.963295041
9.963294969
9.963294691
9.963294931
9.963295489
9.963294878
9.963295396
9.963295253
9.963295557
9.96329589
9.963295997
9.963295016
9.963284958
9.963284591
9.963284095
9.963283874
9.963283787
9.963283433
9.963284892
9.963286098
9.96328563
9.963285647
9.963286901
9.963286805
9.963286645
9.963287438
9.963270175
9.963269046
9.963269362
9.963269556
9.963270379
9.963269487
9.96326834
9.963269404
9.963269135
9.963268056
9.963267958
9.963267001
9.963267147
9.963267184
9.96329617
9.963296224
9.963295629
9.963293531
9.963294307
9.963293749
9.963295075
9.963294373
9.963293953
9.963294328
9.96329351
9.96329338
9.96329416
9.963294375
9.963283667
9.963284155
9.963284078
9.963284562
9.963284096
9.963284143
9.963283082
9.963283254
9.963283294
9.963283035
9.963283511
9.963282285
9.963282837
9.963281878
)
;

boundaryField
{
    top
    {
        type            calculated;
        value           nonuniform List<scalar> 
134
(
9.963268671
9.963273682
9.963294859
9.963278649
9.96328382
9.963260176
9.963282493
9.963264154
9.963283667
9.963267616
9.963273527
9.963294556
9.963278274
9.96328476
9.963260363
9.963283781
9.963264769
9.963284155
9.963268104
9.963272606
9.963294005
9.963278412
9.963285145
9.963261581
9.96328368
9.963264727
9.963284078
9.963268468
9.963272894
9.963294096
9.963278102
9.963286061
9.963261404
9.96328258
9.963264592
9.963284562
9.963267974
9.963273879
9.963293666
9.963277369
9.96328485
9.963262111
9.963282123
9.963264115
9.963284096
9.963267994
9.963273826
9.963294464
9.963276463
9.96328561
9.963261984
9.963280996
9.963263608
9.963284143
9.963268828
9.963273056
9.963294932
9.963277074
9.963286988
9.963261436
9.963281524
9.963264303
9.963283082
9.96326901
9.963273427
9.96329479
9.963277561
9.963286683
9.963260999
9.963282009
9.963265109
9.963283254
9.963267829
9.963273171
9.963295763
9.963277678
9.963287202
9.963261527
9.963281402
9.96326543
9.963283294
9.963268113
9.963272428
9.963295101
9.963277843
9.963286795
9.963261308
9.963283209
9.963263814
9.963283035
9.963268465
9.963272075
9.963295128
9.963277788
9.963287787
9.963262276
9.963283694
9.963264662
9.963283511
9.963267799
9.963272646
9.963294637
9.963278608
9.963287243
9.963263468
9.963284317
9.963263588
9.963282285
9.963267351
9.96327302
9.963294824
9.963278171
9.963288477
9.963263992
9.963283117
9.963264698
9.963282837
9.963266698
9.963273754
9.963293464
9.963278523
9.963289444
9.963264336
9.96328404
9.963264103
9.963281878
9.963267205
9.963272588
9.963293613
9.963278269
9.963290613
9.963264122
9.963284333
9.963264204
)
;
    }
    bottom
    {
        type            calculated;
        value           nonuniform List<scalar> 
127
(
9.963277118
9.963284238
9.963271681
9.963267183
9.963280401
9.963285242
9.963276949
9.963269755
9.96327342
9.963276217
9.96328495
9.963272295
9.963266881
9.963281526
9.963285674
9.963277601
9.963269255
9.963273197
9.963276218
9.963284729
9.963273252
9.963267693
9.963280111
9.963285685
9.963277604
9.963270154
9.963272504
9.963277186
9.963284561
9.963274738
9.963268054
9.963278301
9.963284476
9.963277083
9.963270109
9.963271958
9.963276391
9.963284677
9.963274296
9.963268358
9.96327995
9.963282666
9.963277552
9.963269407
9.963271096
9.963276528
9.963283558
9.96327457
9.963268619
9.96328035
9.963282329
9.963278887
9.963268359
9.963271415
9.963276737
9.963283205
9.963275123
9.96326676
9.963279913
9.963282448
9.963279599
9.963268398
9.96327289
9.963276243
9.963282407
9.963275003
9.963267191
9.963280889
9.963282376
9.963278873
9.963269716
9.963272999
9.963275551
9.963283513
9.963276349
9.96326849
9.963280505
9.963281321
9.963279041
9.963270388
9.963273933
9.96327609
9.963284074
9.963275298
9.963269031
9.963279836
9.963281654
9.963279228
9.963270168
9.963273255
9.963275744
9.963284468
9.963274688
9.963267263
9.963279329
9.963282303
9.963278143
9.963269705
9.963272457
9.963276044
9.963284743
9.963275513
9.963267836
9.963279594
9.963282274
9.963277163
9.963270758
9.963273037
9.963275788
9.963283735
9.963275564
9.963267504
9.963280493
9.963280122
9.963277754
9.963271132
9.963271532
9.963275952
9.963283298
9.963276326
9.963267092
9.963279833
9.963279854
9.963278431
9.963271778
9.963272032
9.963276496
)
;
    }
    side-walls
    {
        type            calculated;
        value           nonuniform List<scalar> 
261
(
9.963277118
9.963275049
9.963273424
9.963279125
9.963280794
9.963264486
9.96327442
9.963280505
9.963268671
9.963276217
9.96327504
9.963274223
9.963278801
9.963280029
9.963265087
9.963273653
9.963280482
9.963267616
9.963276218
9.963274574
9.963274829
9.963280403
9.963281466
9.963265467
9.96327191
9.963279793
9.963268104
9.963277186
9.963275476
9.963275502
9.963279581
9.963281987
9.963265666
9.963273061
9.963279452
9.963268468
9.963276391
9.963274669
9.963277255
9.96327876
9.963284014
9.963266219
9.963273219
9.963279556
9.963267974
9.963276528
9.963274386
9.963277554
9.963278602
9.963283437
9.963266064
9.963272541
9.963279865
9.963267994
9.963276737
9.96327524
9.963277521
9.963278674
9.963283717
9.963266427
9.96327188
9.9632802
9.963268828
9.963276243
9.963276544
9.963277685
9.963277512
9.963283898
9.963265013
9.963271835
9.9632797
9.96326901
9.963275551
9.963276815
9.963278877
9.963278341
9.963283138
9.963264827
9.963272726
9.963280164
9.963267829
9.96327609
9.963276772
9.963279177
9.963277933
9.96328179
9.963265243
9.963273147
9.963281235
9.963268113
9.963275744
9.963276299
9.963278234
9.963278455
9.963280987
9.963265697
9.963273937
9.963282539
9.963268465
9.963276044
9.963275204
9.963279133
9.963277966
9.963281271
9.963265063
9.963272928
9.963282334
9.963267799
9.963275788
9.963275057
9.963279744
9.963277364
9.963280053
9.963265416
9.963271473
9.963283456
9.963267351
9.963275952
9.963274851
9.963279754
9.963277278
9.96328055
9.963265624
9.963271047
9.963282585
9.963266698
9.963276496
9.963274431
9.963280766
9.963278296
9.963279681
9.963263906
9.963270244
9.963280938
9.963267205
9.96327342
9.963282686
9.963267452
9.963289307
9.963295875
9.963284958
9.963270175
9.96329617
9.963283667
9.963273197
9.963282708
9.963266959
9.963289251
9.963295655
9.963284591
9.963269046
9.963296224
9.963284155
9.963272504
9.963284283
9.963266302
9.963287876
9.963295041
9.963284095
9.963269362
9.963295629
9.963284078
9.963271958
9.963283495
9.96326681
9.963287462
9.963294969
9.963283874
9.963269556
9.963293531
9.963284562
9.963271096
9.963283836
9.963266689
9.963286665
9.963294691
9.963283787
9.963270379
9.963294307
9.963284096
9.963271415
9.963283503
9.963266427
9.963285706
9.963294931
9.963283433
9.963269487
9.963293749
9.963284143
9.96327289
9.963284472
9.963266486
9.963285782
9.963295489
9.963284892
9.96326834
9.963295075
9.963283082
9.963272999
9.963284167
9.963265948
9.963284996
9.963294878
9.963286098
9.963269404
9.963294373
9.963283254
9.963273933
9.963283427
9.963267997
9.963283945
9.963295396
9.96328563
9.963269135
9.963293953
9.963283294
9.963273255
9.963284132
9.963266734
9.963284556
9.963295253
9.963285647
9.963268056
9.963294328
9.963283035
9.963272457
9.963284688
9.963267165
9.963283982
9.963295557
9.963286901
9.963267958
9.96329351
9.963283511
9.963273037
9.963285527
9.963267964
9.963283274
9.96329589
9.963286805
9.963267001
9.96329338
9.963282285
9.963271532
9.963286124
9.963267348
9.96328399
9.963295997
9.963286645
9.963267147
9.96329416
9.963282837
9.963272032
9.963286645
9.963268034
9.963283797
9.963295016
9.963287438
9.963267184
9.963294375
9.963281878
)
;
    }
    inlet
    {
        type            calculated;
        value           nonuniform List<scalar> 
81
(
9.963277118
9.963275049
9.963273424
9.963279125
9.963280794
9.963264486
9.96327442
9.963280505
9.963268671
9.963284238
9.963286283
9.963259424
9.963277405
9.963278318
9.963300305
9.963256414
9.963292458
9.963273682
9.963271681
9.963253159
9.963288601
9.963314178
9.963282572
9.963275116
9.963286079
9.963258461
9.963294859
9.963267183
9.963272173
9.963280178
9.963265402
9.963299464
9.963279389
9.9632637
9.963296437
9.963278649
9.963280401
9.963290651
9.963274166
9.963268686
9.963260441
9.963271225
9.963259204
9.963297607
9.96328382
9.963285242
9.963288609
9.96327272
9.963285446
9.963273979
9.963270217
9.963287322
9.963285104
9.963260176
9.963276949
9.963263915
9.963286578
9.963275222
9.963272855
9.963289116
9.963271957
9.9632844
9.963282493
9.963269755
9.963284811
9.963267986
9.963287006
9.963274192
9.963283966
9.963276982
9.96327336
9.963264154
9.96327342
9.963282686
9.963267452
9.963289307
9.963295875
9.963284958
9.963270175
9.96329617
9.963283667
)
;
    }
    outlet
    {
        type            calculated;
        value           nonuniform 0();
    }
    procBoundary0to1
    {
        type            processor;
        value           nonuniform List<scalar> 
97
(
9.963276487
9.963283011
9.963275574
9.963280034
9.963277858
9.96328099
9.96326476
9.96326989
9.963282188
9.96326891
9.963283011
9.963283011
9.963283631
9.963248285
9.96326005
9.963280947
9.963279109
9.963298894
9.963260253
9.963292944
9.963272179
9.963276268
9.963248285
9.963248285
9.963283186
9.96327641
9.963309566
9.963276343
9.963266669
9.96328324
9.9632587
9.963293326
9.963267489
9.963271828
9.96327641
9.96327641
9.963261038
9.963463875
9.963493135
9.963274878
9.96326276
9.963291994
9.963278902
9.963279039
9.963289457
9.963275727
9.963463875
9.963463875
10.07875118
9.96346775
9.963467679
9.963268267
9.963264621
9.963297935
9.963290484
9.963280157
9.963287194
9.963272562
9.963286151
9.96346775
9.963268267
9.963268267
9.963287281
9.963276368
9.963279984
9.963265279
9.963278489
9.963267166
9.963287567
9.9632744
9.963271067
9.963289692
9.963276368
9.963276368
9.963282264
9.963274197
9.963284731
9.963271931
9.963280106
9.963269861
9.963287016
9.963274878
9.963284657
9.963276017
9.963274197
9.963274197
9.963264981
9.963284236
9.963272778
9.96328649
9.963267548
9.963283113
9.963294866
9.963286404
9.963267921
9.963293117
9.963284236
)
;
    }
}


// ************************************************************************* //
