/*--------------------------------*- C++ -*----------------------------------*\
| =========                 |                                                 |
| \\      /  F ield         | OpenFOAM: The Open Source CFD Toolbox           |
|  \\    /   O peration     | Version:  4.x                                   |
|   \\  /    A nd           | Web:      www.OpenFOAM.org                      |
|    \\/     M anipulation  |                                                 |
\*---------------------------------------------------------------------------*/
FoamFile
{
    version     2.0;
    format      ascii;
    class       volScalarField;
    location    "1000";
    object      N2;
}
// * * * * * * * * * * * * * * * * * * * * * * * * * * * * * * * * * * * * * //

dimensions      [0 0 0 0 0 0 0];

internalField   nonuniform List<scalar> 
1175
(
0.6215293962
0.6215293963
0.6215293964
0.6215293964
0.6215293963
0.6215293963
0.6215293961
0.6215293951
0.6215293923
0.6215293835
0.6215293583
0.6215292917
0.6215291284
0.6215287674
0.6215280557
0.6215293964
0.6215293966
0.6215293965
0.6215293965
0.6215293964
0.6215293963
0.621529396
0.6215293946
0.6215293904
0.621529377
0.6215293376
0.6215292284
0.6215289516
0.6215283258
0.621527092
0.6215293967
0.6215293966
0.6215293965
0.6215293966
0.6215293965
0.6215293964
0.6215293959
0.621529394
0.6215293872
0.6215293651
0.6215292965
0.6215290974
0.6215285722
0.6215273496
0.6215249327
0.6215293965
0.6215293966
0.6215293965
0.6215293965
0.6215293964
0.6215293963
0.6215293956
0.6215293929
0.6215293833
0.6215293507
0.6215292449
0.6215289247
0.6215280428
0.6215259182
0.621521687
0.6215293967
0.6215293967
0.6215293965
0.6215293963
0.6215293961
0.6215293961
0.6215293954
0.6215293923
0.6215293814
0.6215293432
0.6215292163
0.6215288204
0.6215276944
0.621524895
0.6215192478
0.6215293966
0.6215293966
0.6215293966
0.6215293965
0.6215293963
0.6215293962
0.6215293954
0.6215293929
0.6215293833
0.6215293508
0.6215292451
0.6215289248
0.6215280429
0.6215259182
0.6215216871
0.6215293964
0.6215293965
0.6215293967
0.6215293964
0.6215293963
0.6215293962
0.6215293957
0.6215293936
0.6215293869
0.6215293648
0.6215292961
0.6215290972
0.6215285723
0.6215273498
0.621524933
0.6215293963
0.6215293964
0.6215293965
0.6215293965
0.6215293964
0.6215293964
0.621529396
0.6215293948
0.6215293905
0.621529377
0.6215293373
0.621529228
0.6215289515
0.6215283258
0.6215270921
0.6215293964
0.6215293965
0.6215293964
0.6215293964
0.6215293965
0.6215293963
0.6215293959
0.6215293951
0.6215293922
0.6215293834
0.6215293583
0.6215292916
0.6215291285
0.6215287676
0.6215280559
0.6215293964
0.6215293964
0.6215293965
0.6215293964
0.6215293963
0.6215293963
0.6215293961
0.6215293949
0.6215293905
0.6215293771
0.6215293376
0.6215292282
0.6215289515
0.6215283256
0.6215293963
0.6215293964
0.6215293965
0.6215293964
0.6215293963
0.6215293962
0.6215293957
0.6215293939
0.6215293873
0.6215293655
0.6215292974
0.6215290985
0.6215285693
0.6215273291
0.6215248753
0.6215293965
0.6215293964
0.6215293963
0.6215293964
0.6215293963
0.6215293961
0.6215293954
0.6215293924
0.6215293813
0.6215293422
0.6215292118
0.6215288047
0.6215276523
0.6215248203
0.6215191571
0.6215293965
0.6215293966
0.6215293965
0.6215293964
0.6215293964
0.621529396
0.621529395
0.6215293905
0.6215293738
0.6215293119
0.6215290925
0.621528362
0.6215261479
0.6215203586
0.6215084907
0.6215293967
0.6215293966
0.6215293965
0.6215293964
0.6215293964
0.6215293961
0.6215293948
0.6215293898
0.6215293698
0.6215292941
0.6215290157
0.621528042
0.6215249082
0.6215161449
0.6214973369
0.6215293964
0.6215293964
0.6215293965
0.6215293964
0.6215293964
0.621529396
0.6215293949
0.6215293906
0.6215293738
0.6215293121
0.6215290925
0.6215283618
0.6215261478
0.6215203587
0.6215084912
0.6215293965
0.6215293965
0.6215293965
0.6215293965
0.6215293965
0.6215293962
0.6215293954
0.6215293922
0.6215293811
0.621529342
0.6215292116
0.6215288047
0.6215276525
0.6215248208
0.6215191579
0.6215293963
0.6215293964
0.6215293964
0.6215293965
0.6215293966
0.6215293963
0.6215293958
0.6215293939
0.6215293872
0.6215293655
0.6215292975
0.6215290986
0.6215285692
0.6215273292
0.6215248759
0.6215293963
0.6215293964
0.6215293964
0.6215293965
0.6215293964
0.6215293963
0.6215293959
0.6215293945
0.6215293902
0.6215293771
0.6215293377
0.6215292282
0.6215289515
0.6215283257
0.621527092
0.6215293964
0.6215293964
0.6215293964
0.6215293964
0.6215293964
0.6215293962
0.6215293956
0.6215293937
0.6215293869
0.6215293647
0.6215292961
0.6215290972
0.621528572
0.6215273492
0.6215293964
0.6215293964
0.6215293965
0.6215293964
0.6215293964
0.6215293963
0.6215293955
0.6215293924
0.6215293812
0.6215293421
0.6215292116
0.6215288045
0.6215276523
0.6215248197
0.6215293963
0.6215293962
0.6215293963
0.6215293964
0.6215293963
0.621529396
0.6215293947
0.6215293896
0.6215293694
0.6215292924
0.6215290137
0.6215280671
0.6215251465
0.6215174042
0.6215014657
0.6215293965
0.6215293965
0.6215293965
0.6215293964
0.6215293964
0.6215293959
0.621529394
0.6215293859
0.6215293533
0.6215292213
0.6215287038
0.6215267792
0.6215202095
0.6215009027
0.6214584786
0.6215293964
0.6215293963
0.6215293964
0.6215293965
0.6215293963
0.6215293958
0.6215293935
0.6215293843
0.6215293441
0.6215291744
0.6215284701
0.6215256401
0.6215149507
0.6214792799
0.6213902647
0.6215293964
0.6215293964
0.6215293964
0.6215293963
0.6215293963
0.6215293959
0.621529394
0.6215293861
0.6215293534
0.6215292212
0.6215287038
0.6215267794
0.6215202097
0.6215009039
0.6214584826
0.6215293968
0.6215293966
0.6215293965
0.6215293965
0.6215293963
0.6215293961
0.6215293948
0.6215293896
0.6215293692
0.6215292921
0.6215290136
0.6215280672
0.6215251467
0.6215174053
0.6215014695
0.6215293964
0.6215293965
0.6215293965
0.6215293966
0.6215293964
0.6215293961
0.6215293953
0.6215293922
0.621529381
0.621529342
0.6215292116
0.6215288046
0.6215276525
0.6215248205
0.6215191578
0.6215293963
0.6215293964
0.6215293964
0.6215293965
0.6215293964
0.6215293962
0.6215293957
0.6215293938
0.6215293869
0.6215293649
0.6215292962
0.6215290973
0.6215285721
0.6215273495
0.6215249327
0.6215293961
0.6215293961
0.6215293962
0.6215293963
0.6215293963
0.621529396
0.6215293954
0.6215293927
0.6215293831
0.6215293504
0.6215292448
0.6215289246
0.6215280425
0.6215259174
0.6215293964
0.6215293964
0.6215293964
0.6215293964
0.6215293963
0.621529396
0.621529395
0.6215293905
0.6215293737
0.6215293117
0.6215290922
0.6215283616
0.6215261472
0.6215203566
0.6215293965
0.6215293964
0.6215293964
0.6215293963
0.6215293963
0.6215293958
0.6215293939
0.6215293861
0.6215293534
0.6215292213
0.6215287037
0.6215267789
0.6215202086
0.6215008984
0.6215293965
0.6215293965
0.6215293964
0.6215293965
0.6215293964
0.6215293957
0.6215293929
0.6215293803
0.6215293247
0.6215290795
0.6215280148
0.6215235356
0.6215058349
0.6214443274
0.6212867914
0.6215293963
0.6215293964
0.6215293962
0.6215293963
0.6215293962
0.6215293955
0.6215293923
0.6215293769
0.6215293059
0.6215289725
0.6215273951
0.6215199236
0.6214851342
0.621333381
0.6208054429
0.6215293965
0.6215293965
0.6215293964
0.6215293964
0.6215293962
0.6215293955
0.6215293929
0.6215293803
0.6215293247
0.6215290794
0.6215280149
0.6215235361
0.6215058363
0.621444335
0.6212868219
0.6215293966
0.6215293965
0.6215293964
0.6215293964
0.6215293963
0.6215293958
0.621529394
0.6215293861
0.6215293535
0.6215292212
0.6215287038
0.6215267792
0.6215202095
0.6215009034
0.6214584824
0.6215293965
0.6215293965
0.6215293967
0.6215293967
0.6215293965
0.6215293961
0.6215293949
0.6215293905
0.6215293738
0.6215293118
0.6215290923
0.6215283618
0.6215261477
0.6215203585
0.621508491
0.6215293965
0.6215293964
0.6215293965
0.6215293966
0.6215293966
0.6215293964
0.6215293955
0.6215293928
0.6215293831
0.6215293506
0.6215292449
0.6215289248
0.6215280428
0.621525918
0.6215216869
0.6215293961
0.621529396
0.6215293962
0.6215293964
0.6215293963
0.6215293961
0.6215293954
0.6215293924
0.6215293814
0.6215293431
0.6215292161
0.6215288203
0.6215276939
0.6215248939
0.6215293963
0.6215293964
0.6215293964
0.6215293965
0.6215293964
0.6215293961
0.6215293948
0.6215293896
0.6215293697
0.6215292941
0.6215290158
0.621528042
0.6215249075
0.621516142
0.6215293964
0.6215293965
0.6215293964
0.6215293964
0.6215293962
0.6215293956
0.6215293935
0.6215293841
0.6215293442
0.6215291744
0.62152847
0.6215256396
0.6215149481
0.6214792686
0.6215293965
0.6215293965
0.6215293965
0.6215293966
0.6215293963
0.6215293952
0.6215293921
0.6215293769
0.621529306
0.6215289725
0.6215273949
0.6215199227
0.6214851285
0.6213333452
0.6215293965
0.6215293966
0.6215293965
0.6215293965
0.6215293963
0.6215293954
0.6215293914
0.6215293723
0.6215292786
0.6215288006
0.6215262482
0.6215118193
0.6214246278
0.6208577015
0.6168617283
0.6215293966
0.6215293966
0.6215293965
0.6215293964
0.6215293962
0.6215293954
0.6215293921
0.6215293768
0.6215293057
0.6215289723
0.621527395
0.6215199232
0.6214851324
0.6213333747
0.6208054357
0.6215293966
0.6215293965
0.6215293964
0.6215293962
0.6215293961
0.6215293958
0.6215293936
0.6215293842
0.621529344
0.6215291743
0.6215284701
0.6215256399
0.6215149499
0.6214792778
0.6213902626
0.6215293965
0.6215293965
0.6215293964
0.6215293965
0.6215293964
0.6215293961
0.6215293949
0.6215293897
0.6215293699
0.6215292943
0.6215290158
0.621528042
0.6215249079
0.6215161443
0.6214973364
0.6215293965
0.6215293965
0.6215293964
0.6215293964
0.6215293964
0.6215293962
0.6215293953
0.6215293924
0.6215293813
0.6215293432
0.6215292162
0.6215288205
0.6215276941
0.6215248946
0.6215192475
0.6215293962
0.6215293962
0.6215293962
0.6215293964
0.6215293963
0.6215293961
0.6215293953
0.6215293928
0.6215293833
0.6215293507
0.6215292447
0.6215289245
0.6215280425
0.6215259174
0.6215293962
0.6215293964
0.6215293964
0.6215293963
0.6215293963
0.621529396
0.6215293949
0.6215293907
0.6215293739
0.621529312
0.6215290924
0.6215283617
0.6215261473
0.6215203568
0.6215293964
0.6215293963
0.6215293963
0.6215293962
0.6215293963
0.6215293958
0.6215293939
0.621529386
0.6215293535
0.6215292213
0.6215287037
0.6215267788
0.621520208
0.6215008975
0.6215293963
0.6215293963
0.6215293964
0.6215293964
0.6215293963
0.6215293956
0.6215293928
0.6215293803
0.6215293248
0.6215290793
0.6215280146
0.6215235351
0.6215058323
0.6214443165
0.6215293965
0.6215293964
0.6215293964
0.6215293964
0.6215293961
0.6215293954
0.6215293921
0.6215293767
0.6215293056
0.6215289722
0.6215273948
0.6215199224
0.6214851273
0.6213333411
0.6215293964
0.6215293964
0.6215293964
0.6215293965
0.6215293963
0.6215293957
0.6215293927
0.62152938
0.6215293243
0.6215290792
0.6215280147
0.6215235353
0.6215058329
0.6214443195
0.6215293967
0.6215293966
0.6215293965
0.6215293965
0.6215293964
0.621529396
0.6215293941
0.621529386
0.6215293534
0.6215292211
0.6215287036
0.6215267789
0.6215202087
0.6215009002
0.6214584726
0.6215293966
0.6215293967
0.6215293966
0.6215293965
0.6215293964
0.6215293961
0.621529395
0.6215293904
0.6215293738
0.6215293119
0.6215290924
0.6215283617
0.6215261475
0.6215203579
0.6215084895
0.6215293966
0.6215293965
0.6215293964
0.6215293964
0.6215293965
0.6215293963
0.6215293956
0.6215293929
0.6215293833
0.6215293507
0.621529245
0.6215289248
0.6215280427
0.621525918
0.6215216867
0.6215293965
0.6215293965
0.6215293964
0.6215293964
0.6215293963
0.6215293962
0.6215293957
0.6215293935
0.6215293868
0.6215293649
0.6215292962
0.6215290973
0.6215285721
0.6215273494
0.6215293965
0.6215293965
0.6215293965
0.6215293965
0.6215293964
0.6215293962
0.6215293954
0.6215293924
0.6215293812
0.6215293422
0.6215292118
0.6215288046
0.6215276521
0.6215248198
0.6215293967
0.6215293966
0.6215293964
0.6215293964
0.6215293962
0.6215293961
0.6215293948
0.6215293895
0.6215293692
0.6215292922
0.6215290136
0.6215280669
0.6215251459
0.6215174028
0.6215293965
0.6215293964
0.6215293965
0.6215293965
0.6215293964
0.6215293961
0.6215293941
0.621529386
0.6215293535
0.6215292211
0.6215287035
0.6215267789
0.621520208
0.6215008976
0.6215293965
0.6215293964
0.6215293964
0.6215293964
0.6215293963
0.621529396
0.6215293937
0.6215293842
0.621529344
0.6215291743
0.62152847
0.6215256395
0.6215149477
0.6214792678
0.6215293965
0.6215293965
0.6215293965
0.6215293965
0.6215293963
0.6215293959
0.6215293939
0.6215293859
0.6215293532
0.621529221
0.6215287036
0.6215267788
0.621520208
0.621500898
0.6215293967
0.6215293966
0.6215293965
0.6215293964
0.6215293965
0.6215293961
0.6215293948
0.6215293896
0.6215293692
0.621529292
0.6215290135
0.6215280669
0.6215251459
0.621517403
0.6215293967
0.6215293967
0.6215293966
0.6215293965
0.6215293964
0.6215293961
0.6215293954
0.6215293923
0.6215293812
0.621529342
0.6215292116
0.6215288046
0.6215276524
0.62152482
0.6215191564
0.6215293966
0.6215293965
0.6215293964
0.6215293963
0.6215293962
0.6215293962
0.6215293957
0.6215293937
0.621529387
0.6215293648
0.6215292961
0.6215290971
0.6215285721
0.6215273494
0.6215249327
0.6215293965
0.6215293964
0.6215293964
0.6215293964
0.6215293965
0.6215293962
0.6215293959
0.6215293946
0.6215293903
0.6215293771
0.6215293376
0.6215292283
0.6215289517
0.6215283257
0.6215293966
0.6215293965
0.6215293964
0.6215293963
0.6215293965
0.6215293963
0.6215293958
0.6215293939
0.6215293873
0.6215293655
0.6215292975
0.6215290986
0.6215285692
0.6215273291
0.6215293965
0.6215293965
0.6215293966
0.6215293966
0.6215293965
0.6215293963
0.6215293955
0.6215293924
0.6215293811
0.6215293421
0.6215292117
0.6215288045
0.6215276522
0.6215248196
0.6215293965
0.6215293964
0.6215293966
0.6215293966
0.6215293965
0.621529396
0.621529395
0.6215293905
0.6215293738
0.621529312
0.6215290925
0.6215283617
0.6215261471
0.6215203566
0.6215293966
0.6215293965
0.6215293966
0.6215293965
0.6215293963
0.621529396
0.6215293947
0.6215293896
0.6215293698
0.6215292942
0.6215290157
0.6215280418
0.6215249072
0.6215161419
0.6215293963
0.6215293965
0.6215293965
0.6215293965
0.6215293964
0.6215293961
0.6215293949
0.6215293905
0.6215293737
0.6215293119
0.6215290924
0.6215283616
0.621526147
0.6215203567
0.6215293967
0.6215293966
0.6215293965
0.6215293964
0.6215293963
0.6215293961
0.6215293954
0.6215293923
0.6215293812
0.621529342
0.6215292117
0.6215288045
0.6215276521
0.6215248197
0.6215293966
0.6215293965
0.6215293965
0.6215293965
0.6215293964
0.6215293962
0.6215293958
0.6215293939
0.6215293873
0.6215293656
0.6215292976
0.6215290986
0.6215285692
0.6215273288
0.6215293965
0.6215293963
0.6215293964
0.6215293963
0.6215293964
0.6215293964
0.621529396
0.6215293946
0.6215293904
0.6215293773
0.6215293376
0.6215292282
0.6215289515
0.6215283257
0.6215270917
0.6215293964
0.6215293965
0.6215293966
0.6215293966
0.6215293966
0.6215293965
0.6215293962
0.6215293952
0.6215293922
0.6215293834
0.6215293583
0.6215292916
0.6215291286
0.6215287674
0.6215293966
0.6215293966
0.6215293965
0.6215293966
0.6215293965
0.6215293963
0.6215293958
0.6215293947
0.6215293905
0.621529377
0.6215293375
0.6215292282
0.6215289515
0.6215283256
0.6215293964
0.6215293964
0.6215293965
0.6215293965
0.6215293966
0.6215293964
0.6215293959
0.621529394
0.621529387
0.621529365
0.6215292961
0.621529097
0.6215285719
0.6215273491
0.6215293965
0.6215293964
0.6215293965
0.6215293964
0.6215293964
0.6215293963
0.6215293956
0.6215293929
0.6215293833
0.6215293506
0.6215292448
0.6215289246
0.6215280424
0.6215259174
0.6215293966
0.6215293966
0.6215293966
0.6215293964
0.6215293963
0.6215293962
0.6215293954
0.6215293923
0.6215293813
0.621529343
0.621529216
0.6215288202
0.6215276938
0.621524894
0.6215293965
0.6215293965
0.6215293965
0.6215293965
0.6215293964
0.6215293963
0.6215293956
0.6215293928
0.6215293832
0.6215293507
0.6215292448
0.6215289247
0.6215280426
0.6215259174
0.6215293966
0.6215293966
0.6215293965
0.6215293966
0.6215293964
0.6215293964
0.621529396
0.6215293939
0.6215293871
0.6215293651
0.6215292963
0.6215290973
0.6215285719
0.6215273492
0.6215293967
0.6215293966
0.6215293966
0.6215293966
0.6215293965
0.6215293964
0.621529396
0.6215293947
0.6215293904
0.621529377
0.6215293375
0.6215292283
0.6215289515
0.6215283256
0.6215293966
0.6215293965
0.6215293965
0.6215293965
0.6215293965
0.6215293963
0.6215293961
0.6215293951
0.6215293921
0.6215293833
0.6215293582
0.6215292916
0.6215291284
0.6215287674
)
;

boundaryField
{
    top
    {
        type            zeroGradient;
    }
    bottom
    {
        type            zeroGradient;
    }
    side-walls
    {
        type            zeroGradient;
    }
    inlet
    {
        type            zeroGradient;
    }
    outlet
    {
        type            zeroGradient;
    }
    procBoundary0to1
    {
        type            processor;
        value           nonuniform List<scalar> 
97
(
0.6215268149
0.6215270917
0.6215250017
0.621520994
0.6215151165
0.621510914
0.6215151166
0.621520994
0.6215250019
0.6215268149
0.6215270917
0.6215270917
0.6215209103
0.6215191563
0.6215106088
0.6214922835
0.6214749689
0.621492284
0.6215106092
0.6215209107
0.6215250019
0.6215249326
0.6215191563
0.6215191563
0.6214801529
0.6214584705
0.6214123577
0.6213234521
0.6214123607
0.6214801549
0.6215106092
0.6215209941
0.6215216865
0.6215084888
0.6214584705
0.6214584705
0.6211798055
0.6208053421
0.6207230518
0.6211798198
0.6214123606
0.6214922839
0.6215151164
0.6215192472
0.6214973341
0.6213902464
0.6208053421
0.6208053421
0.6187506045
0.6208053443
0.6207230508
0.6212867918
0.6213234511
0.6214749686
0.6215109139
0.6215216866
0.6215084896
0.6214584757
0.6212867928
0.6208053443
0.6212867918
0.6212867918
0.6214123575
0.6215014656
0.6214922832
0.6215151162
0.6215249327
0.6215191572
0.6215014677
0.6214584759
0.6213902468
0.6214584758
0.6215014656
0.6215014656
0.6215106088
0.6215248753
0.6215209938
0.6215270921
0.6215248758
0.6215191574
0.6215084897
0.6214973339
0.6215084897
0.6215191569
0.6215248753
0.6215248753
0.6215250016
0.6215280555
0.6215280559
0.6215270919
0.6215249327
0.6215216867
0.6215192472
0.6215216867
0.6215249327
0.6215270919
0.6215280555
)
;
    }
}


// ************************************************************************* //
