/*--------------------------------*- C++ -*----------------------------------*\
| =========                 |                                                 |
| \\      /  F ield         | OpenFOAM: The Open Source CFD Toolbox           |
|  \\    /   O peration     | Version:  4.x                                   |
|   \\  /    A nd           | Web:      www.OpenFOAM.org                      |
|    \\/     M anipulation  |                                                 |
\*---------------------------------------------------------------------------*/
FoamFile
{
    version     2.0;
    format      ascii;
    class       surfaceScalarField;
    location    "1000";
    object      phi;
}
// * * * * * * * * * * * * * * * * * * * * * * * * * * * * * * * * * * * * * //

dimensions      [1 0 -1 0 0 0 0];

internalField   nonuniform List<scalar> 
3175
(
9.497829435e-06
1.448446855e-12
-1.534130871e-13
9.497831272e-06
5.452566814e-13
4.288127135e-13
9.497828936e-06
1.300989398e-13
-8.982814545e-13
9.497830795e-06
-4.64164404e-14
1.207063965e-12
9.497829068e-06
-1.50016444e-12
-9.852627742e-13
9.49782499e-06
-5.650865503e-13
-6.352027229e-13
9.497826601e-06
5.497216346e-14
5.15871872e-13
9.497823399e-06
-1.609931073e-12
6.038058623e-13
9.497821099e-06
1.314883813e-12
-3.138843971e-13
9.497820949e-06
2.25907362e-12
1.188064725e-12
9.497826226e-06
-2.857507581e-12
-3.853225017e-12
9.497829501e-06
-3.074240378e-12
-2.220779275e-12
9.497874575e-06
-2.46530073e-11
-2.353343781e-11
9.497906123e-06
-1.570080741e-11
-1.747169483e-11
-8.404251425e-11
9.497826066e-06
-5.528424556e-13
-1.53528806e-12
9.497829266e-06
9.481716691e-13
-9.60752346e-13
9.497827846e-06
-1.511840228e-14
-5.679949768e-13
9.497826699e-06
-5.253899757e-13
-3.271422701e-13
9.497827136e-06
-2.307289698e-14
-1.660093214e-12
9.49782379e-06
-1.752810002e-12
-2.210485261e-13
9.497823578e-06
3.495540073e-14
1.248891532e-12
9.49782497e-06
1.869859217e-12
2.670683938e-12
9.497821099e-06
-5.532799393e-13
1.604780438e-13
9.497818245e-06
1.924508309e-13
2.759745391e-12
9.497818726e-06
-4.647206798e-12
-1.868685651e-12
9.497818778e-06
-2.548082399e-12
1.308455695e-13
9.497860746e-06
-4.02107136e-11
-2.438016113e-11
9.497881555e-06
-2.823163172e-11
-1.088037954e-11
-1.670279718e-10
-1.326875465e-10
9.497827407e-06
6.573592574e-14
-1.077230172e-12
9.497828782e-06
-7.122456803e-13
-1.131106723e-12
9.497828498e-06
-1.723546099e-13
-5.782820398e-13
9.497829009e-06
-1.013705383e-12
-8.546720613e-14
9.497829157e-06
-6.008171548e-13
-9.656486043e-13
9.497829013e-06
3.00272447e-13
4.529182545e-13
9.49782843e-06
8.639589183e-13
1.918788083e-12
9.497825204e-06
1.880435549e-12
2.275447769e-12
9.497820898e-06
-4.845391252e-14
1.332142019e-12
9.49781734e-06
2.798849031e-12
5.163111016e-12
9.497811584e-06
-1.841117498e-12
1.819045091e-12
9.497799244e-06
1.676420892e-12
6.356562183e-12
9.497826966e-06
-3.509032687e-11
-3.070328304e-11
9.497819851e-06
-1.808462499e-11
-4.636392137e-12
-2.062712912e-10
-2.845976015e-10
9.497830277e-06
-3.120141581e-13
-2.243161354e-12
9.497832497e-06
-4.679039325e-13
2.495975294e-13
9.497831615e-06
-1.74534227e-12
8.79220363e-13
9.497832701e-06
-1.654440869e-12
2.47131642e-13
9.497830766e-06
-1.814128086e-13
1.714473014e-13
9.497829713e-06
-9.439898837e-13
1.070678923e-13
9.497828626e-06
-7.664002021e-15
1.666109455e-12
9.497823966e-06
-4.654276728e-13
2.601195137e-12
9.497822405e-06
3.573720742e-14
3.562181802e-12
9.49781633e-06
1.021298854e-12
6.716096329e-12
9.497807766e-06
-3.454900098e-12
9.507244976e-12
9.497792267e-06
-4.050619871e-12
1.609577316e-11
9.497805519e-06
-3.589662308e-11
-1.681881767e-11
9.497796973e-06
-3.233971183e-11
1.773075104e-11
-1.94497787e-10
-4.478479098e-10
9.497832375e-06
-9.693200505e-13
-1.890448342e-12
9.497834972e-06
2.884577152e-13
-1.006775394e-12
9.497834961e-06
2.345524171e-13
8.696854923e-13
9.497837809e-06
-5.962891595e-13
1.67938434e-12
9.49783291e-06
-3.071961226e-13
-1.005562524e-12
9.497834938e-06
4.750869086e-13
-7.810045439e-13
9.497834086e-06
-1.307067067e-12
2.630820446e-12
9.497829847e-06
-2.604176915e-12
3.254914007e-12
9.497825884e-06
-5.477468194e-15
5.690336549e-12
9.497814519e-06
-3.646832849e-13
1.052397076e-11
9.497792555e-06
1.483938986e-12
1.377364065e-11
9.49775685e-06
2.29338228e-12
2.975832357e-11
9.49772373e-06
3.396563343e-11
-3.434248623e-11
9.49762221e-06
3.017303816e-11
4.245847837e-11
1.945333687e-10
-1.091598191e-09
9.497818597e-06
-3.582410823e-13
1.650333311e-13
9.497819406e-06
-1.496493427e-12
1.84477073e-13
9.497817888e-06
-1.211595167e-12
1.596786609e-13
9.497822074e-06
-3.766039571e-13
2.300926388e-12
9.497817237e-06
-2.60433877e-12
9.584539776e-13
9.497816818e-06
-3.261418153e-12
9.673054408e-13
9.497816374e-06
-1.357266985e-12
1.940914437e-12
9.497813876e-06
-1.398254523e-12
3.271566043e-12
9.497810262e-06
-1.237290515e-12
5.306978998e-12
9.497803565e-06
-3.388492492e-12
8.346053549e-12
9.497794973e-06
2.502197307e-12
1.065262844e-11
9.497781148e-06
9.807207216e-13
1.587586593e-11
9.497794831e-06
3.750670873e-11
-1.541764436e-11
9.497784147e-06
1.9441108e-11
1.949718301e-11
2.047834213e-10
-4.488283056e-10
9.497825837e-06
-1.781447808e-12
1.223538536e-13
9.49782719e-06
-6.245893126e-13
1.584467581e-12
9.497828415e-06
-3.162657849e-13
1.6152357e-12
9.497827212e-06
-5.722258542e-13
1.423792732e-12
9.497825086e-06
-1.810593258e-12
3.409868237e-13
9.497824469e-06
-9.901250985e-13
1.244907738e-12
9.497818695e-06
-3.273142414e-12
4.130648783e-14
9.497817863e-06
-2.280455069e-12
2.371789135e-12
9.497816291e-06
-9.556735806e-13
3.604365728e-12
9.497810887e-06
-1.195895792e-12
6.036739606e-12
9.497804779e-06
5.125733787e-12
3.689935807e-12
9.497790352e-06
2.995384322e-12
5.800143156e-12
9.497819217e-06
3.927849281e-11
-3.186335214e-11
9.497812426e-06
2.769890669e-11
-4.17693823e-12
1.663953024e-10
-2.820358068e-10
9.497834992e-06
9.137014317e-14
1.341066425e-12
9.497833502e-06
-6.193503278e-13
8.33317888e-13
9.497834113e-06
-9.98902517e-13
-8.573873543e-13
9.49783219e-06
-6.248777294e-13
1.482399995e-12
9.497832848e-06
6.336263744e-13
3.313708993e-12
9.497829886e-06
-1.686885032e-12
1.769927799e-12
9.497830152e-06
-1.060840429e-12
1.989044472e-12
9.497828962e-06
-3.15618111e-13
2.962174568e-12
9.497827474e-06
-2.701699165e-13
2.820945861e-12
9.497824723e-06
1.506285769e-14
5.323649732e-12
9.49782688e-06
3.636846068e-12
2.984428453e-13
9.497826177e-06
3.192015075e-12
9.661817165e-13
9.497866192e-06
2.227567182e-11
-2.574344707e-11
9.497888381e-06
1.623327082e-11
-9.403394806e-12
8.400234669e-11
-1.313266932e-10
9.497823494e-06
3.624597816e-13
9.497820113e-06
-7.75265222e-13
9.497821911e-06
-1.186460361e-12
9.497821464e-06
1.656102612e-12
9.497819083e-06
2.09989957e-12
9.497819476e-06
1.507645508e-12
9.4978191e-06
1.449088903e-12
9.49781706e-06
1.157412193e-12
9.497815318e-06
5.967097842e-13
9.497814548e-06
2.558709956e-12
9.497820079e-06
-7.793752413e-13
9.497821027e-06
-1.238171944e-12
9.497866784e-06
-2.318573318e-11
9.497898825e-06
-1.448770183e-11
-8.233335297e-11
9.497837098e-06
-4.143256796e-13
7.397178362e-13
9.497838347e-06
3.564679526e-13
4.341806838e-13
9.49783709e-06
4.389803289e-14
-6.069184685e-13
9.497836365e-06
-1.255123161e-12
4.170034287e-14
9.497836105e-06
-1.930519085e-12
2.3756108e-13
9.497833173e-06
-4.744830456e-13
-4.384728801e-13
9.497832866e-06
3.880292632e-13
4.573326584e-13
9.497830925e-06
1.012123218e-12
6.360205882e-13
9.497830099e-06
9.495541211e-13
2.039059585e-13
9.497825802e-06
2.919138076e-12
-1.347090199e-12
9.497828355e-06
-1.127431888e-12
-4.761380234e-12
9.497828274e-06
-4.483876511e-13
-4.446164556e-12
9.497866728e-06
-2.565951141e-11
-4.115333386e-11
-9.991451342e-12
-2.796854598e-11
9.497839624e-06
-4.479324511e-13
8.972999754e-13
9.497840148e-06
2.001373434e-13
2.092547902e-12
9.497839082e-06
-1.14632015e-12
4.616255887e-13
9.497838066e-06
-5.83171331e-13
-1.249531653e-12
9.497839116e-06
-2.355508347e-13
1.211988244e-12
9.497836634e-06
5.266806995e-13
8.014090752e-13
9.497836193e-06
5.432517702e-13
1.396199075e-12
9.497832852e-06
1.279485352e-12
1.275321008e-12
9.497831885e-06
1.667878842e-12
1.918509297e-12
9.497823657e-06
3.318753929e-12
2.305169796e-12
9.497822258e-06
9.027603061e-13
-9.201223764e-13
9.497818554e-06
3.896699568e-12
2.553289884e-12
9.497849419e-06
-4.207079523e-11
-4.204095339e-11
9.497863808e-06
-1.734002664e-11
-1.793271995e-11
-2.787335946e-10
9.497814416e-06
1.160433441e-13
1.172663537e-12
9.497816108e-06
2.669093402e-13
8.649811756e-13
9.497812831e-06
8.24948974e-13
4.408360352e-13
9.49781335e-06
2.156036045e-14
1.502289015e-12
9.497817e-06
1.668692594e-12
2.562587556e-12
9.49781367e-06
-1.123725337e-13
1.062918111e-12
9.497813786e-06
1.147945721e-12
2.032575962e-12
9.497811998e-06
2.438305393e-12
2.044073742e-12
9.497807498e-06
1.410295348e-12
5.376413805e-12
9.497798612e-06
3.578430299e-12
8.530425947e-12
9.49779021e-06
4.874231208e-12
9.169171132e-12
9.497773517e-06
1.189718437e-11
1.658474223e-11
9.497778677e-06
-3.348315172e-11
-4.548810693e-11
9.49775754e-06
4.75492584e-13
-5.004327458e-12
-3.982921191e-10
-6.482971311e-10
9.497829847e-06
1.397846251e-13
-1.679650524e-13
9.497832042e-06
-1.486905385e-12
2.713650966e-14
9.497831643e-06
-1.640007035e-12
-2.296977042e-13
9.497834416e-06
-1.105193395e-12
8.902799483e-13
9.497832115e-06
-1.494294401e-12
1.738499866e-12
9.497832281e-06
-5.070247221e-13
3.273399613e-12
9.497832122e-06
1.351666717e-12
3.709664801e-12
9.497827722e-06
6.23929101e-13
3.968355005e-12
9.497828909e-06
2.024823017e-12
1.125108881e-11
9.497825494e-06
2.5839078e-12
1.656650703e-11
9.497811752e-06
-1.016847242e-12
2.867262395e-11
9.497799329e-06
2.023530569e-12
3.724167978e-11
9.497780124e-06
-4.410037795e-11
1.278898764e-11
9.497802759e-06
-3.157493616e-11
3.079585208e-11
-4.061730069e-10
-1.093172291e-09
9.497831274e-06
8.339766781e-14
-1.344943582e-13
9.497834129e-06
9.012351398e-13
8.45804646e-13
9.497833419e-06
1.664225493e-13
2.682127341e-13
9.497833482e-06
9.279931616e-14
9.010084095e-13
9.497832393e-06
8.166923144e-13
1.247275784e-12
9.497834396e-06
2.793460106e-13
2.133351185e-12
9.497830383e-06
-1.529489679e-12
2.689385214e-12
9.497828982e-06
-2.145899023e-12
7.338831115e-12
9.497828532e-06
-6.961901327e-13
1.478020478e-11
9.49782048e-06
-2.308675988e-12
2.596962606e-11
9.497792797e-06
7.317759079e-14
4.556160036e-11
9.49775011e-06
-3.782023074e-12
8.145582784e-11
9.49761453e-06
4.252844888e-11
1.671801184e-11
9.49744659e-06
3.163253757e-11
1.454010015e-10
4.043761162e-10
-3.167815432e-09
9.497852655e-06
-8.92431656e-13
4.852706388e-13
9.497852554e-06
3.045072695e-14
3.67050541e-14
9.497853383e-06
-6.788711722e-13
8.075393679e-13
9.497852971e-06
-4.536564014e-13
1.000666231e-12
9.49785053e-06
-2.836644888e-12
9.156952121e-13
9.497849313e-06
-3.022886221e-12
3.672841174e-12
9.497849329e-06
-1.870490779e-12
4.281753232e-12
9.497847626e-06
-2.613532098e-12
7.971163931e-12
9.497844263e-06
-4.274766965e-12
1.093406858e-11
9.497838367e-06
-6.534261101e-12
1.680900747e-11
9.497825219e-06
-2.968612033e-12
2.980681616e-11
9.497815032e-06
-1.088977165e-11
3.85907192e-11
9.497794261e-06
3.367997339e-11
1.27810377e-11
9.497815028e-06
3.317712439e-13
3.107760388e-11
3.99616153e-10
-1.090993254e-09
9.497810992e-06
-1.681641147e-12
5.048193615e-14
9.497810712e-06
-1.318967495e-12
-4.537891453e-13
9.497812534e-06
-1.233104118e-12
9.998406091e-13
9.497811805e-06
2.658955916e-13
7.089761329e-13
9.497813592e-06
1.620238648e-12
1.785543329e-12
9.497813281e-06
-4.03064387e-13
2.669778909e-12
9.497811663e-06
-1.676296932e-12
3.659694144e-12
9.497809125e-06
-3.02902856e-12
5.575730312e-12
9.497808279e-06
-2.519007133e-12
8.214114683e-12
9.497801356e-06
-2.792392056e-12
9.913903937e-12
9.497786503e-06
-1.255951486e-13
9.23976612e-12
9.497771751e-06
-2.653024483e-12
1.807913871e-11
9.497775937e-06
4.228418082e-11
-4.495834486e-11
9.497755674e-06
1.87886246e-11
-2.938345541e-12
2.782431943e-10
-6.481958963e-10
9.497845336e-06
-5.685855306e-13
1.759770436e-12
9.497844818e-06
1.062820265e-13
1.259578832e-12
9.497846942e-06
5.450603799e-13
2.298590133e-12
9.497843376e-06
-6.091256524e-13
-7.752829591e-13
9.497839986e-06
-2.089319203e-12
-1.034242065e-12
9.497841216e-06
-1.09420676e-12
1.375390737e-12
9.497839871e-06
-1.253951905e-12
2.876585642e-12
9.497838667e-06
-1.837436846e-12
3.883837476e-12
9.49783747e-06
-2.19812208e-12
2.894351518e-12
9.497830894e-06
-3.718158424e-12
3.555864971e-12
9.497829587e-06
1.572322742e-12
6.219277515e-14
9.49782667e-06
-1.364352988e-13
3.908014939e-12
9.497858807e-06
2.42535754e-11
-4.15258071e-11
9.497871517e-06
9.65243401e-12
-1.805770252e-11
1.326301183e-10
-2.788232727e-10
9.497827886e-06
2.083478543e-12
9.497826204e-06
2.041445052e-12
9.497829217e-06
3.470413527e-14
9.497825491e-06
-1.724483393e-12
9.497823442e-06
6.605194859e-13
9.497824398e-06
1.322997216e-12
9.497822749e-06
2.114706867e-12
9.497822119e-06
2.29398772e-12
9.497819449e-06
1.759109116e-12
9.497816585e-06
1.708157909e-12
9.497817176e-06
-3.029292829e-12
9.497816953e-06
-3.322433227e-12
9.497859756e-06
-3.890329876e-11
9.497879823e-06
-2.790244598e-11
-1.664000772e-10
9.497825659e-06
5.530711051e-13
-8.470300044e-13
9.497826096e-06
1.600659391e-12
4.06710579e-14
9.497826668e-06
3.836396557e-13
8.141495721e-13
9.497827059e-06
-2.366474173e-12
-8.327774044e-13
9.497825591e-06
-1.566336604e-12
-1.122623072e-12
9.497826296e-06
8.96712709e-13
-2.698272764e-15
9.497824817e-06
6.185169334e-13
1.027148004e-12
9.497823951e-06
3.216616679e-12
2.742865696e-12
9.497818684e-06
4.479217665e-12
1.056542058e-12
9.497812882e-06
5.734882362e-12
2.579970065e-12
9.497807171e-06
2.488647135e-12
-2.686143365e-12
9.497796304e-06
7.648757888e-12
6.241387941e-13
9.49782269e-06
-3.079082196e-11
-3.614808351e-11
-3.541921589e-12
-1.883137963e-11
9.4978072e-06
-2.045468409e-13
-2.159795008e-12
9.497807311e-06
-1.470942325e-12
-1.556915079e-12
9.497804609e-06
1.472601743e-13
-4.369370883e-13
9.497806867e-06
2.233746972e-12
5.291744729e-13
9.497806429e-06
9.573118342e-13
8.963984625e-13
9.497804295e-06
1.021120173e-12
2.584380283e-13
9.497802193e-06
1.605791768e-12
8.673606513e-13
9.497800957e-06
1.708359024e-12
1.719872689e-12
9.497795583e-06
4.396939956e-12
1.684981156e-12
9.497789651e-06
9.5253164e-12
5.352498708e-12
9.497778009e-06
1.016260294e-11
3.796642716e-12
9.497761572e-06
1.817726037e-11
9.878032211e-12
9.497764775e-06
-4.437228905e-11
-3.393814444e-11
-3.70965565e-12
-2.872643425e-14
9.497840623e-06
-1.017033793e-12
3.951109027e-13
9.497841076e-06
-6.512979604e-13
-1.151600095e-12
9.497839994e-06
-3.15100839e-13
-2.596939165e-13
9.497838096e-06
-8.646079276e-13
-2.629323001e-13
9.497837858e-06
1.216735433e-12
1.491272898e-12
9.497835887e-06
1.384607838e-12
1.512540006e-12
9.497836544e-06
3.277439764e-12
1.937645044e-12
9.497834724e-06
3.988144859e-12
5.021307383e-12
9.497830442e-06
6.759659993e-12
8.713889701e-12
9.497822326e-06
1.172954367e-11
1.21190176e-11
9.497804432e-06
1.967854389e-11
1.887093759e-11
9.497767202e-06
3.45684585e-11
3.411364941e-11
9.497714604e-06
-1.96978248e-11
-1.973265839e-11
9.497608854e-06
5.030205422e-11
5.115117286e-11
-1.10113519e-09
9.49786659e-06
-6.543856233e-14
6.458333323e-13
9.497866025e-06
-6.849120539e-13
-1.792789837e-14
9.497865089e-06
-3.036744154e-13
1.397789297e-12
9.49786474e-06
-5.432637676e-13
1.723115757e-12
9.497864285e-06
-7.098524225e-13
3.498122185e-13
9.497864255e-06
-5.289552237e-13
1.799316629e-12
9.497864095e-06
1.58051848e-13
3.605711024e-12
9.497867714e-06
1.326471414e-12
6.530471719e-12
9.497868706e-06
3.80303496e-12
1.426498134e-11
9.497867964e-06
8.215359279e-12
2.379140309e-11
9.497855304e-06
8.852217412e-12
5.028375399e-11
9.497831514e-06
1.983833759e-11
7.369462861e-11
9.497760026e-06
-5.441111217e-11
1.193763275e-10
9.497723386e-06
-2.498565983e-11
1.442775855e-10
-1.199749451e-09
-2.201370908e-09
9.497834605e-06
8.26711572e-13
9.544256418e-13
9.497835183e-06
3.873490185e-13
1.362852535e-12
9.497834115e-06
-3.262665027e-13
8.65744244e-13
9.497833913e-06
-1.404584643e-13
1.45346544e-12
9.497834582e-06
-8.384206257e-13
5.824071367e-13
9.497837615e-06
1.249621537e-12
2.536817821e-12
9.49783809e-06
-1.349072494e-12
4.821907251e-12
9.497842342e-06
-3.144945761e-14
9.013849413e-12
9.497845034e-06
-2.222277893e-12
2.040158435e-11
9.497848459e-06
-7.73935971e-12
3.861606073e-11
9.497822806e-06
-8.742891443e-12
8.372861871e-11
9.497757167e-06
-2.168237847e-11
1.863716063e-10
9.49742978e-06
5.291399077e-11
2.337249245e-10
9.49665946e-06
2.479795879e-11
8.644518162e-10
1.199486395e-09
-8.506556579e-09
9.497827458e-06
-9.787623792e-13
-6.106563803e-13
9.497827736e-06
-2.29128012e-13
5.367193283e-15
9.497827583e-06
-4.801804143e-13
-5.091764025e-13
9.497826033e-06
-1.198911467e-12
-3.835345933e-13
9.497827639e-06
-9.593197351e-13
6.922499205e-13
9.497823523e-06
-2.753179638e-12
9.286109336e-13
9.497826274e-06
-2.59851518e-12
3.683932443e-12
9.497826197e-06
-4.826023279e-12
6.712650243e-12
9.497825707e-06
-6.750963862e-12
1.311673734e-11
9.497825339e-06
-1.313856505e-11
2.334050589e-11
9.49781238e-06
-1.943809373e-11
5.24436647e-11
9.497790308e-06
-3.422108512e-11
7.519435091e-11
9.497719298e-06
1.917123241e-11
1.204078117e-10
9.497683128e-06
-5.024017959e-11
1.441241485e-10
1.101432272e-09
-2.199983979e-09
9.497840515e-06
3.54913675e-13
7.617076956e-13
9.497841531e-06
-6.569698807e-13
-6.428401359e-13
9.497840455e-06
1.812843479e-14
-5.783722596e-13
9.497840813e-06
-3.204021132e-13
1.299860696e-12
9.497838301e-06
-1.126443475e-12
1.472774701e-12
9.497835963e-06
-2.049405781e-12
3.606432076e-13
9.497836238e-06
-2.203750631e-12
2.240802169e-12
9.497836869e-06
-4.223414997e-12
3.739631886e-12
9.49783181e-06
-7.316539775e-12
8.363033598e-12
9.497826619e-06
-8.957274512e-12
1.419658197e-11
9.497803649e-06
-9.216294554e-12
1.952689532e-11
9.497768061e-06
-1.618942053e-11
3.523263639e-11
9.497719467e-06
4.634654021e-11
-1.786456492e-11
9.497609434e-06
3.009212215e-12
4.899735728e-11
6.48395919e-10
-1.102093131e-09
9.497811698e-06
3.320112344e-13
-2.250173705e-13
9.497813865e-06
1.472978404e-12
-3.796567566e-13
9.49781197e-06
-1.632973096e-12
-9.066227042e-14
9.497812253e-06
-2.110091291e-12
1.214708964e-12
9.497813364e-06
-4.765011134e-14
2.023518969e-12
9.497811362e-06
-1.075094666e-12
2.492302169e-12
9.497809351e-06
-1.416750395e-12
2.708179646e-12
9.497807393e-06
-2.187050773e-12
3.160966977e-12
9.497805191e-06
-2.084808355e-12
6.076433126e-12
9.497798381e-06
-4.292644972e-12
7.423230327e-12
9.497787116e-06
-1.219981407e-12
6.242719304e-12
9.497770572e-06
-6.863105385e-12
1.16907059e-11
9.497775743e-06
3.151466383e-11
-3.377956386e-11
9.497755552e-06
3.395544505e-12
-1.414034023e-13
2.843002032e-10
-3.990945845e-10
9.497848101e-06
7.325151956e-13
9.497845961e-06
-3.67911087e-13
9.497846401e-06
1.398580897e-12
9.497848438e-06
2.096259413e-12
9.497845261e-06
1.919026935e-12
9.497845492e-06
2.9667028e-12
9.497843763e-06
2.415876396e-12
9.497842181e-06
3.242267984e-12
9.497838394e-06
3.570969617e-12
9.497832865e-06
3.522460769e-12
9.49782556e-06
-2.112576557e-12
9.497813282e-06
5.81154962e-13
9.497841725e-06
-3.637331311e-11
9.497833732e-06
-1.835424695e-11
-2.051678505e-10
9.497820511e-06
-4.384384064e-13
-3.035268776e-13
9.497822592e-06
-8.055591242e-13
-1.366205369e-12
9.497820784e-06
-1.02643488e-12
3.10182992e-13
9.497820485e-06
2.38710838e-13
3.412972851e-13
9.497821185e-06
1.705292925e-12
7.330008352e-13
9.49781988e-06
8.597368143e-13
-2.809946146e-14
9.497818796e-06
6.743528933e-13
9.499471673e-13
9.497814188e-06
9.579803876e-13
-1.431381131e-12
9.497811437e-06
4.636400637e-12
3.539138306e-13
9.497805578e-06
7.662719066e-12
6.18533509e-13
9.49779578e-06
9.607165571e-12
-3.387900048e-12
9.497782044e-06
1.62125359e-11
-2.529097129e-12
9.497795662e-06
-1.595704642e-11
-3.497294087e-11
1.783226792e-11
-3.017575185e-11
9.497826832e-06
2.508805935e-12
1.012412716e-12
9.497825118e-06
-4.622961811e-13
-3.449808096e-13
9.497823686e-06
2.186368901e-13
5.348819814e-13
9.497824868e-06
1.242720152e-12
1.510210262e-12
9.497823566e-06
2.113273604e-12
8.383080216e-13
9.497823588e-06
2.606668939e-12
3.937999732e-13
9.497822679e-06
2.309003714e-12
1.402461436e-12
9.497821505e-06
5.751616304e-12
1.569554373e-12
9.497818242e-06
1.149568734e-11
2.207249699e-12
9.497814686e-06
1.716192754e-11
3.19204501e-12
9.497802691e-06
2.878410148e-11
-4.273082267e-13
9.497791877e-06
3.916828563e-11
2.553940133e-12
9.497768857e-06
1.278649158e-11
-4.387003324e-11
3.249900829e-11
-3.247724557e-11
9.497830872e-06
-2.795032095e-13
-9.671676241e-13
9.497835764e-06
3.117249735e-13
2.870189295e-13
9.497835073e-06
2.284835567e-13
1.477831817e-12
9.497835113e-06
2.084469268e-12
1.448900175e-12
9.497832911e-06
3.180487978e-13
7.376690901e-13
9.497832947e-06
1.304766262e-12
5.664876978e-13
9.49783535e-06
4.247376164e-12
3.29218688e-12
9.497837051e-06
5.369397881e-12
3.289944012e-12
9.497834711e-06
1.243061052e-11
3.503549995e-12
9.497833876e-06
2.251830365e-11
8.372124468e-12
9.49782238e-06
5.06519396e-11
8.02539527e-12
9.497800156e-06
7.354619948e-11
1.97358742e-11
9.497727317e-06
1.188193008e-10
-5.444622839e-11
1.431690245e-10
-2.542023572e-11
9.497819234e-06
-2.349054382e-13
-6.676954595e-13
9.497821503e-06
-6.955648847e-14
7.727241274e-13
9.497821513e-06
-5.900720007e-13
9.049394693e-13
9.497819892e-06
-7.685337456e-13
-8.369210313e-13
9.497821953e-06
-7.566170734e-13
2.002506617e-13
9.497820892e-06
-3.150184383e-13
6.56116197e-13
9.49782188e-06
1.171725945e-12
4.166835076e-13
9.49783055e-06
2.606573511e-12
3.392530448e-12
9.497841935e-06
7.646227122e-12
6.530264232e-12
9.497856192e-06
1.575012286e-11
1.521825273e-11
9.497899151e-06
3.139450859e-11
3.151721995e-11
9.497925073e-06
5.956177262e-11
6.173093092e-11
9.498082897e-06
3.923274668e-11
3.985331486e-11
9.498544921e-06
-8.553020369e-11
-8.580506965e-11
-2.467796125e-09
9.497852884e-06
-3.50663939e-13
-3.955732898e-14
9.497851936e-06
-6.02733654e-13
-1.575932454e-12
9.497852753e-06
-8.407134408e-13
3.24212166e-13
9.497850881e-06
-1.920819385e-12
7.889620678e-13
9.497854523e-06
-1.211354554e-12
8.036864938e-13
9.497856124e-06
-1.263363503e-12
1.589536397e-12
9.497858498e-06
-2.259950792e-12
1.727995971e-12
9.497871687e-06
-1.85834948e-12
5.281404252e-12
9.497889607e-06
-7.052542728e-12
1.11085432e-11
9.497927429e-06
-1.42474167e-11
3.128107294e-11
9.498009165e-06
-2.965629261e-11
6.921877577e-11
9.498081404e-06
-5.871908237e-11
2.384652358e-10
9.498023524e-06
-3.914588066e-11
3.709994019e-10
9.496830437e-06
8.562279795e-11
1.889811475e-09
2.468108684e-09
-1.684399485e-08
9.497833733e-06
4.222931289e-14
1.428115601e-12
9.497830809e-06
-6.684010425e-13
-1.098034013e-12
9.497833767e-06
2.075001983e-13
4.170266582e-13
9.497833208e-06
-6.224179797e-13
1.097403882e-12
9.497834404e-06
3.147304509e-13
9.185474383e-13
9.497834678e-06
-2.280049094e-12
3.250585428e-13
9.497839e-06
-4.129811261e-12
1.44857445e-12
9.497843363e-06
-6.926480728e-12
3.782690803e-12
9.49785593e-06
-1.211849591e-11
7.472339744e-12
9.497868893e-06
-2.248067366e-11
1.674367564e-11
9.497907903e-06
-5.099635296e-11
3.176351158e-11
9.497935953e-06
-7.403106187e-11
6.142267663e-11
9.498097349e-06
-1.198882494e-10
3.945291521e-11
9.498558017e-06
-1.457386687e-10
-8.621249896e-11
2.199687639e-09
-2.468173129e-09
9.497816594e-06
-3.622558497e-13
8.795546525e-13
9.497818587e-06
-3.435339399e-13
8.739595798e-13
9.497819871e-06
-4.736388052e-13
1.16952092e-13
9.497819012e-06
-3.688102625e-13
7.188796737e-14
9.497817905e-06
-9.953680706e-13
2.076040341e-13
9.497821186e-06
-2.153241861e-14
1.261116459e-12
9.497821865e-06
-2.324219508e-12
2.287652377e-12
9.497823512e-06
-4.545714372e-12
3.902847396e-12
9.497823312e-06
-9.150306133e-12
4.40457881e-12
9.497823306e-06
-1.544494033e-11
9.21452149e-12
9.497809587e-06
-2.754139096e-11
9.379117384e-12
9.49778621e-06
-3.795710913e-11
1.955780237e-11
9.497715145e-06
-1.329264587e-11
-5.478461707e-11
9.49767925e-06
-3.055796021e-11
-2.55657923e-11
1.093674243e-09
-1.199772341e-09
9.497847293e-06
5.082142666e-13
6.136279364e-13
9.497850394e-06
6.537005092e-13
1.23979067e-12
9.497850353e-06
-2.33203664e-14
-8.729506765e-14
9.497849165e-06
-8.72581183e-13
1.075821313e-12
9.49784856e-06
-3.71707197e-13
9.871560072e-13
9.497848834e-06
-1.707245576e-14
2.581145844e-12
9.497848335e-06
-1.560222051e-12
1.368827425e-12
9.497847399e-06
-2.689314318e-12
1.84898152e-12
9.497842003e-06
-3.777283192e-12
2.647522918e-12
9.497838909e-06
-7.771155063e-12
3.763346414e-12
9.497822627e-06
-1.108993853e-11
-5.27257433e-15
9.497810408e-06
-1.654342655e-11
2.935172412e-12
9.497791495e-06
1.603891607e-11
-4.304387714e-11
9.497811922e-06
-1.870933708e-11
-3.178829774e-11
4.486150369e-10
-4.056329743e-10
9.497830306e-06
5.312661648e-13
9.49783192e-06
1.366441548e-12
9.497831575e-06
4.599464082e-13
9.497832772e-06
-6.974127164e-14
9.497831654e-06
-7.744501044e-13
9.497827734e-06
2.114945584e-14
9.497828981e-06
2.38759593e-12
9.497825579e-06
1.264795895e-12
9.497821205e-06
1.39139731e-12
9.497817634e-06
2.013116924e-12
9.497805055e-06
-2.680339095e-12
9.497792984e-06
-2.407139203e-12
9.497807966e-06
-3.270353654e-11
9.497798852e-06
-2.973536835e-11
-1.95008192e-10
9.497834307e-06
9.624699086e-13
-7.989321147e-13
9.497835425e-06
9.774886111e-13
-1.166012412e-12
9.49783356e-06
-3.188144318e-14
-5.407173332e-13
9.497832321e-06
1.112454198e-12
-3.150770902e-14
9.497832067e-06
1.295832089e-12
2.646121553e-13
9.497833503e-06
1.141211879e-12
1.336477228e-13
9.497829491e-06
1.624406484e-12
-1.481210013e-12
9.49782852e-06
4.270571109e-12
-2.152966467e-12
9.497821469e-06
6.260275168e-12
-2.236504238e-12
9.497813357e-06
1.032510828e-11
-6.301817721e-13
9.497793056e-06
1.469229314e-11
2.070943228e-12
9.497755806e-06
2.945244969e-11
8.365278401e-13
9.497723153e-06
-3.528541923e-11
3.168749827e-11
4.113659645e-11
2.793847162e-11
9.497843297e-06
-6.389764153e-14
2.608800656e-13
9.497844216e-06
8.739603052e-14
-1.428827825e-12
9.497844274e-06
1.114856914e-12
-9.852335788e-13
9.497841935e-06
1.312306928e-12
-1.644877234e-12
9.497843159e-06
1.995645598e-12
-1.482670695e-12
9.497843718e-06
2.588214577e-12
-1.602620404e-12
9.497842191e-06
4.063317988e-12
-1.271701055e-12
9.497842564e-06
7.549984259e-12
-1.495997028e-12
9.49783739e-06
1.419367698e-11
-2.164976385e-12
9.497831369e-06
2.679500065e-11
-2.411278676e-12
9.497801698e-06
4.473027454e-11
-1.86004319e-13
9.497760072e-06
8.228119407e-11
-3.096291352e-12
9.497623344e-06
1.683588753e-11
4.062865686e-11
1.458292587e-10
3.025740381e-11
9.497826982e-06
4.476819432e-13
-3.595468542e-13
9.497829618e-06
1.174374133e-12
7.104776471e-13
9.497828887e-06
4.736039721e-13
-1.441621675e-12
9.497828704e-06
-3.080511419e-13
-1.0180677e-12
9.497829798e-06
6.914481561e-13
-3.155367064e-13
9.497831446e-06
2.247624948e-12
-1.252394543e-12
9.497831122e-06
2.998674159e-12
-2.201690738e-12
9.497836763e-06
7.606934027e-12
-3.613980939e-12
9.497838862e-06
1.658818328e-11
-6.336238755e-12
9.497840543e-06
3.690908912e-11
-9.366368562e-12
9.497818705e-06
8.546283536e-11
-9.473789098e-12
9.497753319e-06
1.890822331e-10
-2.199969151e-11
9.497424754e-06
2.341806494e-10
5.191021713e-11
8.645354553e-10
2.297974004e-11
9.497822825e-06
3.156823114e-13
-2.989022773e-13
9.497823509e-06
-2.143737259e-12
-5.899075447e-13
9.497822643e-06
-1.484770505e-12
-7.150315397e-13
9.497823961e-06
5.235600536e-13
4.9039655e-13
9.497823958e-06
-9.266676073e-13
-3.031267226e-13
9.497826884e-06
1.000625817e-12
-2.819461806e-12
9.497831322e-06
3.450850111e-12
-1.98816192e-12
9.497842719e-06
5.54135456e-12
-3.414154636e-12
9.497864549e-06
1.226269185e-11
-7.721608688e-12
9.49790264e-06
3.236484685e-11
-1.748343569e-11
9.49798267e-06
6.927969642e-11
-3.161949141e-11
9.49805406e-06
2.366183281e-10
-6.178452974e-11
9.497995686e-06
3.697761119e-10
-4.079912961e-11
1.889566987e-09
8.501738239e-11
9.497813659e-06
8.920715963e-13
-4.92192817e-13
9.497815182e-06
8.211133485e-13
1.511081309e-12
9.497815177e-06
-5.382816528e-13
9.94156859e-13
9.497813948e-06
-6.65166138e-13
3.493579717e-13
9.497818058e-06
-1.373420361e-14
4.627844012e-13
9.497822342e-06
-1.400814971e-12
-4.170868489e-13
9.497829281e-06
-2.620672483e-12
-1.563403308e-12
9.497850811e-06
-3.314340134e-12
-3.864277378e-12
9.497896186e-06
-1.048988588e-11
-1.270467587e-11
9.498018918e-06
-3.001535622e-11
-3.221142435e-11
9.49829154e-06
-6.778799241e-11
-6.847787141e-11
9.499241775e-06
-2.35923627e-10
-2.383600265e-10
9.500725303e-06
-3.698410539e-10
-3.712197829e-10
9.508302166e-06
-1.890738158e-09
-1.889770412e-09
1.684485301e-08
9.497822906e-06
-7.889146711e-13
-1.667371086e-12
9.497826174e-06
1.082328328e-12
9.516420335e-13
9.497825825e-06
-8.920573866e-13
1.338633164e-12
9.497827545e-06
-8.6929709e-13
8.626490308e-13
9.497827105e-06
-9.328008963e-13
-1.428341882e-12
9.497829424e-06
-2.561046411e-12
-1.079848893e-12
9.497836598e-06
-3.911362642e-12
-1.645882058e-12
9.497843386e-06
-7.97485874e-12
-3.80825959e-12
9.497868643e-06
-1.71641273e-11
-6.954352431e-12
9.497903201e-06
-3.764325916e-11
-1.70531123e-11
9.497985551e-06
-8.440422333e-11
-3.327765048e-11
9.498055032e-06
-1.890457588e-10
-6.2526333e-11
9.497998173e-06
-2.354197059e-10
-4.074795979e-11
9.496806684e-06
-8.653785455e-10
8.625570927e-11
8.505092242e-09
9.497813055e-06
-4.190428312e-13
-1.523980542e-13
9.497813979e-06
2.793930223e-13
-7.184405717e-13
9.497815304e-06
-3.640220087e-13
-9.325034901e-13
9.497816664e-06
5.386218626e-14
-6.24886321e-13
9.497816767e-06
6.531460242e-13
-9.494313601e-13
9.497818717e-06
-3.382200702e-13
-2.663339875e-12
9.49782196e-06
-3.61213594e-12
-1.235112084e-12
9.497822496e-06
-7.602548205e-12
-3.64005902e-12
9.497828359e-06
-1.294770608e-11
-3.118496695e-12
9.497829442e-06
-2.547153783e-11
-9.213107025e-12
9.497806047e-06
-4.383386164e-11
-9.430556814e-12
9.49774131e-06
-7.965560649e-11
-2.017647789e-11
9.49741724e-06
-1.603848715e-11
5.551552431e-11
9.496647301e-06
-1.454954648e-10
2.531252729e-11
3.168523985e-09
1.19944038e-09
9.497849581e-06
2.297936992e-13
-5.678258391e-13