/*--------------------------------*- C++ -*----------------------------------*\
| =========                 |                                                 |
| \\      /  F ield         | OpenFOAM: The Open Source CFD Toolbox           |
|  \\    /   O peration     | Version:  4.x                                   |
|   \\  /    A nd           | Web:      www.OpenFOAM.org                      |
|    \\/     M anipulation  |                                                 |
\*---------------------------------------------------------------------------*/
FoamFile
{
    version     2.0;
    format      ascii;
    class       volScalarField;
    location    "1000";
    object      rhoeps;
}
// * * * * * * * * * * * * * * * * * * * * * * * * * * * * * * * * * * * * * //

dimensions      [1 -3 0 0 0 0 0];

internalField   nonuniform List<scalar> 
1175
(
0.2797542625
0.2797542449
0.2797542316
0.279754245
0.2797542631
0.2797542543
0.2797542374
0.2797542704
0.2797542364
0.2797542414
0.2797542755
0.2797542848
0.2797543536
0.2797545309
0.2797548486
0.2797542184
0.2797542163
0.2797542118
0.2797542285
0.279754204
0.2797541982
0.2797541953
0.2797542209
0.2797542579
0.2797542492
0.279754278
0.2797542977
0.2797544105
0.279754695
0.279755246
0.2797541575
0.2797541535
0.2797541884
0.2797542178
0.2797542491
0.2797542664
0.2797542801
0.2797542719
0.2797543186
0.2797543288
0.2797543255
0.279754458
0.2797547185
0.2797552858
0.2797563859
0.2797543215
0.2797543309
0.2797543612
0.2797543296
0.2797543376
0.2797542898
0.2797543157
0.2797543001
0.2797542867
0.2797543151
0.2797543628
0.2797544951
0.2797548993
0.2797558591
0.2797577694
0.2797543918
0.2797543501
0.2797543763
0.2797544115
0.2797544625
0.2797544502
0.279754419
0.2797544344
0.279754419
0.2797544531
0.2797544611
0.2797546548
0.2797551084
0.2797563955
0.2797589243
0.2797539083
0.2797539213
0.2797539522
0.2797539361
0.2797539695
0.2797539677
0.2797539491
0.2797539389
0.279753952
0.2797539451
0.2797540148
0.2797541493
0.2797545632
0.2797555253
0.2797573881
0.2797542057
0.279754172
0.2797541011
0.2797541453
0.279754148
0.2797541368
0.2797541419
0.2797541503
0.2797541385
0.2797541553
0.2797542287
0.2797543039
0.2797544804
0.2797550173
0.2797560719
0.2797543482
0.2797543423
0.2797543474
0.2797543344
0.2797543094
0.279754322
0.2797543222
0.279754332
0.2797543509
0.2797543715
0.2797544456
0.2797544953
0.2797546604
0.2797548947
0.2797554053
0.2797540287
0.2797540198
0.2797540278
0.2797540101
0.2797540164
0.2797540306
0.2797540333
0.279754051
0.279754015
0.279754016
0.2797540253
0.2797540541
0.2797541155
0.2797542697
0.2797545752
0.279754475
0.2797544874
0.2797545051
0.2797544973
0.2797544921
0.2797544591
0.2797544362
0.279754431
0.2797544328
0.2797544723
0.2797544963
0.2797545635
0.2797546418
0.2797549031
0.2797545112
0.2797545045
0.2797545128
0.2797545401
0.2797545351
0.2797545457
0.2797545542
0.279754526
0.2797544934
0.2797544767
0.279754533
0.2797546135
0.2797548505
0.2797553654
0.279756467
0.2797537671
0.2797537675
0.2797537988
0.2797538045
0.2797538043
0.2797538357
0.2797538375
0.2797538185
0.2797537799
0.279753845
0.279753877
0.2797540617
0.279754611
0.2797558869
0.2797584189
0.2797543111
0.2797542947
0.2797543015
0.2797543139
0.2797543124
0.2797543375
0.2797543413
0.2797544144
0.2797543625
0.2797543858
0.2797544805
0.2797548024
0.2797557666
0.2797583826
0.2797637355
0.2797542977
0.2797543239
0.2797543561
0.2797543449
0.2797543346
0.2797543314
0.2797543438
0.2797543083
0.2797542964
0.2797543488
0.2797544266
0.2797548926
0.2797563519
0.2797603143
0.279768785
0.2797549208
0.2797549079
0.2797549086
0.2797549059
0.279754903
0.2797548933
0.2797548717
0.2797548619
0.2797548643
0.279754845
0.2797549372
0.2797552706
0.2797562982
0.2797589037
0.2797642442
0.2797536889
0.27975368
0.2797536923
0.2797537378
0.2797537161
0.2797537852
0.2797538303
0.2797538105
0.2797538548
0.2797538582
0.2797538966
0.279754042
0.2797545907
0.2797558485
0.2797583702
0.2797546831
0.2797546611
0.279754682
0.2797546699
0.2797546404
0.279754661
0.2797546448
0.2797546616
0.2797546666
0.2797546774
0.2797547031
0.2797547864
0.2797550475
0.2797556311
0.2797567552
0.2797541508
0.2797541665
0.2797541405
0.2797541454
0.2797541785
0.2797541835
0.279754167
0.2797541362
0.2797541532
0.2797541593
0.279754164
0.279754232
0.2797543326
0.2797546256
0.2797551853
0.2797541047
0.279754118
0.2797541695
0.279754196
0.279754196
0.2797541907
0.2797541953
0.279754198
0.2797542256
0.2797542285
0.2797542668
0.2797543488
0.2797545922
0.2797551524
0.2797535959
0.2797535962
0.2797535611
0.279753563
0.2797535561
0.2797535258
0.2797535171
0.279753534
0.2797535066
0.2797535174
0.2797535716
0.2797537255
0.2797542592
0.2797555509
0.2797545928
0.2797545881
0.2797545419
0.2797545224
0.2797544852
0.2797545021
0.2797544736
0.2797544619
0.279754444
0.2797544926
0.2797546109
0.2797550619
0.2797563578
0.2797598278
0.2797670189
0.2797552587
0.2797552675
0.2797552735
0.2797552872
0.2797552528
0.2797552454
0.279755288
0.279755274
0.2797552948
0.279755358
0.2797555595
0.2797564326
0.279759386
0.2797680535
0.2797870905
0.2797544216
0.2797543841
0.2797543503
0.279754316
0.2797543246
0.2797543298
0.2797543752
0.2797544194
0.2797544306
0.2797545573
0.2797548468
0.2797560785
0.2797608646
0.279776861
0.2798168795
0.2797542217
0.279754196
0.2797541623
0.2797541596
0.2797541398
0.2797541449
0.2797540764
0.2797540612
0.2797540954
0.2797541349
0.2797543187
0.2797551833
0.2797581265
0.2797668147
0.2797858861
0.2797545091
0.2797545338
0.2797545483
0.2797545533
0.2797545571
0.2797545202
0.279754505
0.2797545104
0.27975451
0.2797545482
0.27975464
0.279755073
0.279756389
0.2797598849
0.2797670464
0.2797537707
0.279753768
0.2797537705
0.2797537943
0.2797537861
0.2797537654
0.2797537459
0.2797537539
0.2797537787
0.2797537979
0.279753824
0.2797540035
0.2797545422
0.2797558143
0.2797583836
0.2797547501
0.27975476
0.2797547379
0.2797547391
0.2797547419
0.2797547361
0.2797547703
0.2797547834
0.2797547719
0.2797547835
0.2797548311
0.279754881
0.2797551258
0.2797556346
0.2797567436
0.2797540071
0.2797539895
0.2797539928
0.2797539967
0.27975401
0.2797540373
0.2797540071
0.2797540182
0.2797540285
0.2797540608
0.2797540874
0.2797542387
0.2797546371
0.2797555582
0.2797541181
0.2797540852
0.2797540511
0.2797540653
0.2797540604
0.2797540471
0.2797540224
0.2797540706
0.2797540866
0.2797541371
0.2797542729
0.2797546332
0.2797555896
0.2797582067
0.2797543724
0.2797543656
0.2797543717
0.2797543979
0.2797543703
0.2797543562
0.2797543308
0.279754325
0.2797543528
0.2797543956
0.2797546334
0.2797554877
0.2797583798
0.2797670802
0.2797539364
0.2797539326
0.2797539695
0.2797539653
0.2797539571
0.2797539679
0.2797539617
0.2797539569
0.2797539785
0.2797540753
0.2797545804
0.2797565934
0.279764546
0.2797921367
0.2798630057
0.2797548815
0.279754882
0.2797549022
0.2797548864
0.2797548446
0.2797548369
0.2797548336
0.2797548277
0.2797548594
0.2797550105
0.2797557154
0.279759108
0.2797747497
0.2798429905
0.2800863913
0.2797543409
0.2797543285
0.2797543411
0.2797542713
0.2797542801
0.2797543343
0.2797542996
0.2797543257
0.2797543135
0.2797544423
0.2797549408
0.2797569301
0.2797648654
0.279792513
0.2798633927
0.2797538987
0.2797538897
0.2797538895
0.2797539169
0.2797539195
0.2797539197
0.2797539211
0.2797539207
0.2797539277
0.2797540146
0.2797542572
0.2797551512
0.2797580594
0.2797667104
0.2797857731
0.2797548066
0.2797548092
0.2797547499
0.2797547875
0.2797548124
0.2797547771
0.2797547921
0.2797548045
0.279754809
0.2797548417
0.2797549027
0.2797552209
0.2797561985
0.2797588005
0.2797640998
0.2797543219
0.2797542961
0.2797543076
0.279754298
0.2797542677
0.2797542527
0.2797542668
0.2797542929
0.2797543232
0.2797542893
0.2797543595
0.2797545139
0.2797549149
0.2797558534
0.2797577872
0.2797543496
0.2797543721
0.2797543598
0.2797542908
0.2797543306
0.2797543552
0.2797543785
0.2797543677
0.2797543959
0.279754384
0.2797544191
0.2797545977
0.2797551185
0.2797563896
0.2797546404
0.2797546156
0.2797546373
0.2797546388
0.2797546151
0.2797545843
0.2797546084
0.2797545967
0.2797546556
0.2797546829
0.2797547594
0.2797552313
0.2797566249
0.2797605865
0.2797541663
0.2797541899
0.2797541957
0.2797542072
0.2797542078
0.2797542214
0.279754246
0.2797542588
0.2797542504
0.2797543217
0.2797546243
0.2797559222
0.2797608005
0.2797768072
0.279754017
0.2797540101
0.2797540118
0.279753971
0.2797540115
0.2797540388
0.2797540218
0.2797540601
0.2797540841
0.2797542388
0.2797549375
0.2797582998
0.2797739623
0.2798422241
0.2797538103
0.2797537768
0.27975382
0.2797538133
0.27975378
0.2797537953
0.2797537616
0.2797537729
0.2797538284
0.2797540349
0.2797551917
0.2797616591
0.2798008765
0.2800561046
0.2838441718
0.2797541234
0.2797540844
0.2797540833
0.2797540757
0.2797541099
0.279754166
0.279754111
0.2797541299
0.2797541541
0.2797543226
0.2797550597
0.2797583881
0.2797740302
0.2798422844
0.2800856835
0.2797537613
0.2797537693
0.2797537843
0.279753808
0.2797538064
0.2797538287
0.2797538187
0.2797538491
0.2797538997
0.2797540101
0.2797543103
0.2797555954
0.2797604179
0.2797764681
0.2798165214
0.2797548426
0.2797548307
0.2797548734
0.2797548626
0.2797548165
0.2797548345
0.2797548263
0.2797548476
0.279754865
0.2797548607
0.27975502
0.2797554448
0.2797568838
0.2797608483
0.2797692653
0.2797544788
0.2797544973
0.279754521
0.2797545093
0.2797544949
0.2797545148
0.2797545367
0.279754519
0.2797545474
0.2797545625
0.2797546583
0.2797547975
0.2797553221
0.2797566275
0.2797591974
0.2797544879
0.2797544902
0.2797545044
0.2797544708
0.2797544583
0.279754408
0.2797544156
0.2797544068
0.2797543925
0.2797544047
0.2797544673
0.2797546213
0.2797549823
0.2797559133
0.279754592
0.2797545649
0.2797545771
0.2797546116
0.279754584
0.279754557
0.2797545534
0.2797545618
0.2797545581
0.2797545942
0.2797547047
0.2797550429
0.2797560242
0.279758603
0.2797541564
0.2797541906
0.2797541958
0.2797541646
0.2797541298
0.279754122
0.2797541083
0.2797541566
0.2797541527
0.2797542115
0.2797544606
0.2797552961
0.2797582553
0.2797669633
0.2797545119
0.279754492
0.2797545077
0.2797545072
0.2797545191
0.2797544672
0.2797544616
0.2797545283
0.2797545605
0.2797547292
0.2797552386
0.2797572462
0.2797651929
0.2797928914
0.2797541805
0.2797541693
0.2797541683
0.2797541722
0.2797541861
0.2797541951
0.2797541951
0.2797541882
0.2797542279
0.2797543706
0.2797550667
0.2797584146
0.2797740717
0.2798422825
0.2797540493
0.2797540837
0.2797540614
0.2797540437
0.2797540077
0.2797540141
0.2797540178
0.2797540533
0.2797541079
0.2797542305
0.2797546478
0.279756655
0.2797646173
0.2797923458
0.2797545653
0.2797545439
0.2797545571
0.279754579
0.2797545779
0.2797545279
0.2797545687
0.27975456
0.2797545664
0.2797546206
0.2797548556
0.2797557567
0.2797587406
0.2797674269
0.2797864839
0.2797544859
0.2797544813
0.2797544653
0.2797544657
0.2797544398
0.2797544594
0.2797544487
0.2797544847
0.2797544518
0.2797545061
0.2797546101
0.2797548971
0.2797558894
0.2797584713
0.279763797
0.2797537961
0.2797538104
0.279753806
0.2797538363
0.27975383
0.2797538371
0.2797538377
0.2797538374
0.279753875
0.2797538488
0.2797539127
0.2797540766
0.2797545188
0.2797554786
0.2797573837
0.2797542716
0.2797542911
0.2797542755
0.2797542845
0.2797542873
0.2797543119
0.2797543361
0.2797543262
0.2797543044
0.2797543356
0.2797543298
0.2797544023
0.2797546339
0.2797551989
0.2797538807
0.2797538944
0.2797539129
0.2797538759
0.2797538753
0.2797538985
0.2797538876
0.2797539033
0.2797538841
0.2797538949
0.279753956
0.2797541313
0.2797547356
0.279756016
0.2797545065
0.2797545416
0.2797545764
0.2797545638
0.2797545846
0.2797545792
0.2797545816
0.2797545739
0.2797545689
0.2797546187
0.2797547749
0.279755227
0.2797565345
0.2797600462
0.2797541977
0.2797542107
0.2797541925
0.2797541855
0.2797541938
0.2797541677
0.2797541741
0.2797541654
0.2797542069
0.2797542773
0.2797545424
0.2797553408
0.279758342
0.2797669854
0.2797541378
0.2797541419
0.27975419
0.2797541802
0.2797541562
0.279754151
0.2797541256
0.2797541343
0.2797541512
0.2797542414
0.2797545461
0.279755817
0.2797606372
0.2797766998
0.2797545642
0.2797546041
0.279754573
0.2797545427
0.2797545551
0.279754572
0.2797546261
0.2797546291
0.2797546796
0.2797547075
0.2797549354
0.2797557891
0.2797587228
0.2797673811
0.2797541283
0.2797541564
0.2797542114
0.2797542409
0.2797542281
0.2797542296
0.2797541805
0.2797541891
0.279754167
0.2797542247
0.2797543654
0.2797547855
0.2797561198
0.2797596505
0.279754456
0.2797544239
0.2797544727
0.2797544522
0.2797544423
0.2797544632
0.2797544475
0.2797544555
0.2797544448
0.2797544657
0.2797545195
0.2797547097
0.2797552809
0.2797565367
0.2797590668
0.2797544329
0.2797544297
0.2797544289
0.2797544515
0.279754407
0.279754405
0.279754398
0.2797544151
0.2797544099
0.2797544675
0.2797544774
0.2797545806
0.2797547922
0.2797553684
0.2797564562
0.2797540729
0.2797540675
0.2797540491
0.279754081
0.2797540511
0.2797540257
0.2797540487
0.2797540766
0.2797540757
0.2797540701
0.2797540889
0.2797541473
0.2797543006
0.2797546026
0.2797544726
0.2797545019
0.2797545067
0.2797545208
0.2797544846
0.2797544713
0.2797544404
0.2797544081
0.2797543691
0.2797544188
0.2797544601
0.279754508
0.2797547783
0.2797553029
0.2797540111
0.2797539729
0.2797539539
0.2797539556
0.2797540169
0.2797540024
0.2797540189
0.2797540117
0.2797540636
0.279754089
0.2797541011
0.2797542991
0.2797548468
0.2797561193
0.2797545362
0.2797545698
0.2797545589
0.2797545212
0.2797545257
0.2797545552
0.2797545083
0.2797545309
0.2797545443
0.279754553
0.279754676
0.2797550193
0.2797560211
0.2797586051
0.2797541679
0.2797541649
0.2797541427
0.279754169
0.2797541656
0.2797541624
0.2797542021
0.2797541859
0.2797542051
0.2797542394
0.2797543703
0.279754813
0.2797562178
0.2797601551
0.2797544745
0.2797544402
0.2797544782
0.279754479
0.2797544719
0.2797544948
0.2797545232
0.2797545499
0.2797545604
0.2797545895
0.2797546303
0.2797549755
0.2797559812
0.2797585957
0.2797542784
0.2797542406
0.2797542469
0.2797542635
0.2797543108
0.2797543065
0.2797542822
0.2797542406
0.2797542457
0.2797542778
0.2797543047
0.2797545147
0.2797550159
0.2797563059
0.2797541613
0.2797541812
0.2797541699
0.2797541568
0.2797541805
0.2797541653
0.2797541016
0.2797541097
0.2797541737
0.2797541698
0.2797542254
0.2797543122
0.2797545674
0.2797551186
0.2797539109
0.279753922
0.2797539292
0.2797539143
0.2797539233
0.2797538951
0.2797539178
0.2797539324
0.2797539393
0.2797539081
0.279753955
0.2797539966
0.2797541014
0.2797543804
0.2797549437
0.2797541718
0.2797541407
0.2797541238
0.2797541353
0.2797541146
0.2797541122
0.279754146
0.2797541506
0.2797541648
0.2797541416
0.2797541608
0.2797542121
0.2797542428
0.2797543998
0.2797544273
0.2797543972
0.2797544535
0.2797544476
0.2797544433
0.2797544551
0.2797544412
0.2797544521
0.2797544509
0.2797544808
0.2797545046
0.2797545721
0.2797547081
0.2797550306
0.2797539925
0.27975396
0.2797539597
0.2797539701
0.2797539871
0.2797539593
0.279753969
0.279753968
0.2797540165
0.2797540163
0.2797540352
0.27975412
0.2797543738
0.2797549262
0.2797545887
0.2797546091
0.279754581
0.2797545797
0.2797545394
0.279754527
0.2797545361
0.2797544956
0.2797544498
0.2797544617
0.2797545391
0.2797546616
0.2797550742
0.2797560193
0.2797547922
0.2797547881
0.2797547702
0.27975477
0.2797547643
0.2797547734
0.2797547827
0.2797547537
0.2797547899
0.2797547942
0.2797548762
0.2797550561
0.279755557
0.2797567975
0.2797544847
0.2797544521
0.2797544631
0.2797544594
0.2797544653
0.279754458
0.2797544789
0.2797545408
0.2797544906
0.279754538
0.279754607
0.2797547398
0.2797551482
0.2797560999
0.2797540422
0.2797540487
0.2797540705
0.2797540659
0.2797540776
0.2797540556
0.2797540396
0.27975406
0.2797540485
0.2797540315
0.279754044
0.2797541232
0.2797543639
0.2797549223
0.279754798
0.2797548003
0.2797547894
0.2797547512
0.2797547353
0.2797547388
0.2797547688
0.2797547609
0.2797547451
0.2797547478
0.2797547692
0.2797548186
0.279754935
0.2797552277
0.2797544452
0.2797544552
0.2797544705
0.2797544664
0.279754468
0.2797544759
0.2797544432
0.2797544489
0.2797544275
0.2797544318
0.2797544555
0.2797544661
0.2797545445
0.2797546825
)
;

boundaryField
{
    top
    {
        type            calculated;
        value           nonuniform List<scalar> 
134
(
0.2797540287
0.2797541508
0.2797547501
0.2797543219
0.2797544788
0.2797537961
0.2797544329
0.2797539109
0.2797544452
0.2797540198
0.2797541665
0.27975476
0.2797542961
0.2797544973
0.2797538104
0.2797544297
0.279753922
0.2797544552
0.2797540278
0.2797541405
0.2797547379
0.2797543076
0.279754521
0.279753806
0.2797544289
0.2797539292
0.2797544705
0.2797540101
0.2797541454
0.2797547391
0.279754298
0.2797545093
0.2797538363
0.2797544515
0.2797539143
0.2797544664
0.2797540164
0.2797541785
0.2797547419
0.2797542677
0.2797544949
0.27975383
0.279754407
0.2797539233
0.279754468
0.2797540306
0.2797541835
0.2797547361
0.2797542527
0.2797545148
0.2797538371
0.279754405
0.2797538951
0.2797544759
0.2797540333
0.279754167
0.2797547703
0.2797542668
0.2797545367
0.2797538377
0.279754398
0.2797539178
0.2797544432
0.279754051
0.2797541362
0.2797547834
0.2797542929
0.279754519
0.2797538374
0.2797544151
0.2797539324
0.2797544489
0.279754015
0.2797541532
0.2797547719
0.2797543232
0.2797545474
0.279753875
0.2797544099
0.2797539393
0.2797544275
0.279754016
0.2797541593
0.2797547835
0.2797542893
0.2797545625
0.2797538488
0.2797544675
0.2797539081
0.2797544318
0.2797540253
0.279754164
0.2797548311
0.2797543595
0.2797546583
0.2797539127
0.2797544774
0.279753955
0.2797544555
0.2797540541
0.279754232
0.279754881
0.2797545139
0.2797547975
0.2797540766
0.2797545806
0.2797539966
0.2797544661
0.2797541155
0.2797543326
0.2797551258
0.2797549149
0.2797553221
0.2797545188
0.2797547922
0.2797541014
0.2797545445
0.2797542697
0.2797546256
0.2797556346
0.2797558534
0.2797566275
0.2797554786
0.2797553684
0.2797543804
0.2797546825
0.2797545752
0.2797551853
0.2797567436
0.2797577872
0.2797591974
0.2797573837
0.2797564562
0.2797549437
)
;
    }
    bottom
    {
        type            calculated;
        value           nonuniform List<scalar> 
127
(
0.2797542625
0.279754475
0.2797541047
0.2797540071
0.2797543496
0.2797544879
0.2797542716
0.2797540729
0.2797541718
0.2797542449
0.2797544874
0.279754118
0.2797539895
0.2797543721
0.2797544902
0.2797542911
0.2797540675
0.2797541407
0.2797542316
0.2797545051
0.2797541695
0.2797539928
0.2797543598
0.2797545044
0.2797542755
0.2797540491
0.2797541238
0.279754245
0.2797544973
0.279754196
0.2797539967
0.2797542908
0.2797544708
0.2797542845
0.279754081
0.2797541353
0.2797542631
0.2797544921
0.279754196
0.27975401
0.2797543306
0.2797544583
0.2797542873
0.2797540511
0.2797541146
0.2797542543
0.2797544591
0.2797541907
0.2797540373
0.2797543552
0.279754408
0.2797543119
0.2797540257
0.2797541122
0.2797542374
0.2797544362
0.2797541953
0.2797540071
0.2797543785
0.2797544156
0.2797543361
0.2797540487
0.279754146
0.2797542704
0.279754431
0.279754198
0.2797540182
0.2797543677
0.2797544068
0.2797543262
0.2797540766
0.2797541506
0.2797542364
0.2797544328
0.2797542256
0.2797540285
0.2797543959
0.2797543925
0.2797543044
0.2797540757
0.2797541648
0.2797542414
0.2797544723
0.2797542285
0.2797540608
0.279754384
0.2797544047
0.2797543356
0.2797540701
0.2797541416
0.2797542755
0.2797544963
0.2797542668
0.2797540874
0.2797544191
0.2797544673
0.2797543298
0.2797540889
0.2797541608
0.2797542848
0.2797545635
0.2797543488
0.2797542387
0.2797545977
0.2797546213
0.2797544023
0.2797541473
0.2797542121
0.2797543536
0.2797546418
0.2797545922
0.2797546371
0.2797551185
0.2797549823
0.2797546339
0.2797543006
0.2797542428
0.2797545309
0.2797549031
0.2797551524
0.2797555582
0.2797563896
0.2797559133
0.2797551989
0.2797546026
0.2797543998
0.2797548486
)
;
    }
    side-walls
    {
        type            calculated;
        value           nonuniform List<scalar> 
261
(
0.2797542625
0.2797542184
0.2797541575
0.2797543215
0.2797543918
0.2797539083
0.2797542057
0.2797543482
0.2797540287
0.2797542449
0.2797542163
0.2797541535
0.2797543309
0.2797543501
0.2797539213
0.279754172
0.2797543423
0.2797540198
0.2797542316
0.2797542118
0.2797541884
0.2797543612
0.2797543763
0.2797539522
0.2797541011
0.2797543474
0.2797540278
0.279754245
0.2797542285
0.2797542178
0.2797543296
0.2797544115
0.2797539361
0.2797541453
0.2797543344
0.2797540101
0.2797542631
0.279754204
0.2797542491
0.2797543376
0.2797544625
0.2797539695
0.279754148
0.2797543094
0.2797540164
0.2797542543
0.2797541982
0.2797542664
0.2797542898
0.2797544502
0.2797539677
0.2797541368
0.279754322
0.2797540306
0.2797542374
0.2797541953
0.2797542801
0.2797543157
0.279754419
0.2797539491
0.2797541419
0.2797543222
0.2797540333
0.2797542704
0.2797542209
0.2797542719
0.2797543001
0.2797544344
0.2797539389
0.2797541503
0.279754332
0.279754051
0.2797542364
0.2797542579
0.2797543186
0.2797542867
0.279754419
0.279753952
0.2797541385
0.2797543509
0.279754015
0.2797542414
0.2797542492
0.2797543288
0.2797543151
0.2797544531
0.2797539451
0.2797541553
0.2797543715
0.279754016
0.2797542755
0.279754278
0.2797543255
0.2797543628
0.2797544611
0.2797540148
0.2797542287
0.2797544456
0.2797540253
0.2797542848
0.2797542977
0.279754458
0.2797544951
0.2797546548
0.2797541493
0.2797543039
0.2797544953
0.2797540541
0.2797543536
0.2797544105
0.2797547185
0.2797548993
0.2797551084
0.2797545632
0.2797544804
0.2797546604
0.2797541155
0.2797545309
0.279754695
0.2797552858
0.2797558591
0.2797563955
0.2797555253
0.2797550173
0.2797548947
0.2797542697
0.2797548486
0.279755246
0.2797563859
0.2797577694
0.2797589243
0.2797573881
0.2797560719
0.2797554053
0.2797545752
0.2797541718
0.2797544273
0.2797539925
0.2797545887
0.2797547922
0.2797544847
0.2797540422
0.279754798
0.2797544452
0.2797541407
0.2797543972
0.27975396
0.2797546091
0.2797547881
0.2797544521
0.2797540487
0.2797548003
0.2797544552
0.2797541238
0.2797544535
0.2797539597
0.279754581
0.2797547702
0.2797544631
0.2797540705
0.2797547894
0.2797544705
0.2797541353
0.2797544476
0.2797539701
0.2797545797
0.27975477
0.2797544594
0.2797540659
0.2797547512
0.2797544664
0.2797541146
0.2797544433
0.2797539871
0.2797545394
0.2797547643
0.2797544653
0.2797540776
0.2797547353
0.279754468
0.2797541122
0.2797544551
0.2797539593
0.279754527
0.2797547734
0.279754458
0.2797540556
0.2797547388
0.2797544759
0.279754146
0.2797544412
0.279753969
0.2797545361
0.2797547827
0.2797544789
0.2797540396
0.2797547688
0.2797544432
0.2797541506
0.2797544521
0.279753968
0.2797544956
0.2797547537
0.2797545408
0.27975406
0.2797547609
0.2797544489
0.2797541648
0.2797544509
0.2797540165
0.2797544498
0.2797547899
0.2797544906
0.2797540485
0.2797547451
0.2797544275
0.2797541416
0.2797544808
0.2797540163
0.2797544617
0.2797547942
0.279754538
0.2797540315
0.2797547478
0.2797544318
0.2797541608
0.2797545046
0.2797540352
0.2797545391
0.2797548762
0.279754607
0.279754044
0.2797547692
0.2797544555
0.2797542121
0.2797545721
0.27975412
0.2797546616
0.2797550561
0.2797547398
0.2797541232
0.2797548186
0.2797544661
0.2797542428
0.2797547081
0.2797543738
0.2797550742
0.279755557
0.2797551482
0.2797543639
0.279754935
0.2797545445
0.2797543998
0.2797550306
0.2797549262
0.2797560193
0.2797567975
0.2797560999
0.2797549223
0.2797552277
0.2797546825
)
;
    }
    inlet
    {
        type            calculated;
        value           nonuniform List<scalar> 
81
(
0.2797542625
0.2797542184
0.2797541575
0.2797543215
0.2797543918
0.2797539083
0.2797542057
0.2797543482
0.2797540287
0.279754475
0.2797545112
0.2797537671
0.2797543111
0.2797542977
0.2797549208
0.2797536889
0.2797546831
0.2797541508
0.2797541047
0.2797535959
0.2797545928
0.2797552587
0.2797544216
0.2797542217
0.2797545091
0.2797537707
0.2797547501
0.2797540071
0.2797541181
0.2797543724
0.2797539364
0.2797548815
0.2797543409
0.2797538987
0.2797548066
0.2797543219
0.2797543496
0.2797546404
0.2797541663
0.279754017
0.2797538103
0.2797541234
0.2797537613
0.2797548426
0.2797544788
0.2797544879
0.279754592
0.2797541564
0.2797545119
0.2797541805
0.2797540493
0.2797545653
0.2797544859
0.2797537961
0.2797542716
0.2797538807
0.2797545065
0.2797541977
0.2797541378
0.2797545642
0.2797541283
0.279754456
0.2797544329
0.2797540729
0.2797544726
0.2797540111
0.2797545362
0.2797541679
0.2797544745
0.2797542784
0.2797541613
0.2797539109
0.2797541718
0.2797544273
0.2797539925
0.2797545887
0.2797547922
0.2797544847
0.2797540422
0.279754798
0.2797544452
)
;
    }
    outlet
    {
        type            calculated;
        value           nonuniform 0();
    }
    procBoundary0to1
    {
        type            processor;
        value           nonuniform List<scalar> 
97
(
0.2797554175
0.2797554643
0.2797561892
0.279758131
0.2797607322
0.2797626739
0.2797603328
0.2797578741
0.2797563894
0.2797552036
0.2797554643
0.2797554643
0.2797582709
0.2797580407
0.2797622515
0.2797710428
0.2797787778
0.2797715555
0.2797622479
0.279758523
0.279756106
0.2797562557
0.2797580407
0.2797580407
0.2797765622
0.2797861632
0.2798078401
0.2798469215
0.279806651
0.2797766047
0.2797622162
0.2797585189
0.2797574613
0.2797635255
0.2797861632
0.2797861632
0.2799111568
0.2800856576
0.2801235939
0.2799115671
0.279806523
0.2797714119
0.2797607348
0.2797588693
0.2797690742
0.2798168342
0.2800856576
0.2800856576
0.2842662673
0.2800857765
0.2801228825
0.2798632081
0.2798465904
0.2797793551
0.2797629493
0.279757837
0.2797639364
0.2797860385
0.2798637107
0.2800857765
0.2798632081
0.2798632081
0.2798072241
0.2797668211
0.2797710778
0.2797603403
0.2797563332
0.2797585788
0.2797671291
0.2797861013
0.279816724
0.2797865524
0.2797668211
0.2797668211
0.2797628624
0.2797561902
0.2797582746
0.2797551495
0.2797563767
0.2797586436
0.2797639573
0.279768647
0.2797638887
0.2797588254
0.2797561902
0.2797561902
0.2797558896
0.2797550257
0.2797547419
0.2797555826
0.2797560001
0.2797579101
0.279759344
0.2797580108
0.2797560204
0.2797557661
0.2797550257
)
;
    }
}


// ************************************************************************* //
