/*--------------------------------*- C++ -*----------------------------------*\
| =========                 |                                                 |
| \\      /  F ield         | OpenFOAM: The Open Source CFD Toolbox           |
|  \\    /   O peration     | Version:  4.x                                   |
|   \\  /    A nd           | Web:      www.OpenFOAM.org                      |
|    \\/     M anipulation  |                                                 |
\*---------------------------------------------------------------------------*/
FoamFile
{
    version     2.0;
    format      ascii;
    class       volScalarField;
    location    "1000";
    object      T;
}
// * * * * * * * * * * * * * * * * * * * * * * * * * * * * * * * * * * * * * //

dimensions      [0 0 0 1 0 0 0];

internalField   nonuniform List<scalar> 
1175
(
1223.150321
1223.150398
1223.150456
1223.150397
1223.150319
1223.150357
1223.150431
1223.150289
1223.150443
1223.150439
1223.150339
1223.15043
1223.15045
1223.150385
1223.150396
1223.150514
1223.150523
1223.150542
1223.15047
1223.150577
1223.150602
1223.150616
1223.150507
1223.150353
1223.150418
1223.150369
1223.150498
1223.15055
1223.150537
1223.150555
1223.15078
1223.150798
1223.150645
1223.150517
1223.150379
1223.150304
1223.150246
1223.150285
1223.150094
1223.150093
1223.150243
1223.150055
1223.149949
1223.149875
1223.149819
1223.150063
1223.150022
1223.149889
1223.150028
1223.149993
1223.150202
1223.15009
1223.150164
1223.150241
1223.150181
1223.150181
1223.150232
1223.150201
1223.150184
1223.150157
1223.149756
1223.149938
1223.149823
1223.14967
1223.149447
1223.149501
1223.149639
1223.149577
1223.149666
1223.149593
1223.149807
1223.149739
1223.149972
1223.149852
1223.149907
1223.151869
1223.151813
1223.151678
1223.151748
1223.151602
1223.15161
1223.151693
1223.151743
1223.151705
1223.151799
1223.151702
1223.151744
1223.15167
1223.151644
1223.151824
1223.15057
1223.150717
1223.151027
1223.150834
1223.150822
1223.150871
1223.15085
1223.150817
1223.150882
1223.150852
1223.150666
1223.150729
1223.15099
1223.151048
1223.151192
1223.149947
1223.149972
1223.14995
1223.150006
1223.150116
1223.150061
1223.150061
1223.150021
1223.149947
1223.149883
1223.149636
1223.149634
1223.149457
1223.149663
1223.149858
1223.151343
1223.151382
1223.151347
1223.151424
1223.151397
1223.151335
1223.151324
1223.151249
1223.151411
1223.151424
1223.151433
1223.151439
1223.151491
1223.151527
1223.151591
1223.149392
1223.149338
1223.14926
1223.149294
1223.149317
1223.149462
1223.149562
1223.149588
1223.149588
1223.149442
1223.149415
1223.149336
1223.149538
1223.149627
1223.149234
1223.149263
1223.149226
1223.149107
1223.149129
1223.149083
1223.149047
1223.149174
1223.149329
1223.149445
1223.149333
1223.149372
1223.149378
1223.149567
1223.149578
1223.152487
1223.152485
1223.152348
1223.152323
1223.152325
1223.152188
1223.152182
1223.15227
1223.152461
1223.152253
1223.15237
1223.152363
1223.152229
1223.152223
1223.152294
1223.150108
1223.15018
1223.150151
1223.150096
1223.150103
1223.149994
1223.14998
1223.149668
1223.149928
1223.149948
1223.149966
1223.149996
1223.150137
1223.15009
1223.150037
1223.150167
1223.150053
1223.149912
1223.149961
1223.150006
1223.150021
1223.149969
1223.150134
1223.150225
1223.150145
1223.150353
1223.150231
1223.150017
1223.149936
1223.149908
1223.147443
1223.147499
1223.147496
1223.147508
1223.147521
1223.147564
1223.14766
1223.147712
1223.147735
1223.147941
1223.147969
1223.147949
1223.147813
1223.147812
1223.147812
1223.152829
1223.152868
1223.152814
1223.152615
1223.15271
1223.152408
1223.152213
1223.152306
1223.152134
1223.152196
1223.152285
1223.152449
1223.152318
1223.15239
1223.152506
1223.148482
1223.148578
1223.148487
1223.14854
1223.148669
1223.148579
1223.148651
1223.148581
1223.148572
1223.148568
1223.148589
1223.148617
1223.148516
1223.148405
1223.148316
1223.150809
1223.150741
1223.150854
1223.150833
1223.150688
1223.150667
1223.15074
1223.150877
1223.150811
1223.15081
1223.150867
1223.150785
1223.15089
1223.15084
1223.15082
1223.151011
1223.150953
1223.150728
1223.150612
1223.150612
1223.150635
1223.150617
1223.150609
1223.150501
1223.150532
1223.150499
1223.150533
1223.150502
1223.150458
1223.153236
1223.153234
1223.153388
1223.153379
1223.15341
1223.153543
1223.153582
1223.153514
1223.153656
1223.153686
1223.153705
1223.153834
1223.153767
1223.153693
1223.148877
1223.148898
1223.149099
1223.149185
1223.149347
1223.149274
1223.149402
1223.149463
1223.149581
1223.14952
1223.149551
1223.149442
1223.149522
1223.149584
1223.149501
1223.145965
1223.145927
1223.145901
1223.145841
1223.145991
1223.146025
1223.145842
1223.145919
1223.145892
1223.145876
1223.146013
1223.145983
1223.145997
1223.146092
1223.14634
1223.149626
1223.149789
1223.149937
1223.150087
1223.15005
1223.150028
1223.149834
1223.149659
1223.149689
1223.149469
1223.149589
1223.149773
1223.149881
1223.150139
1223.150372
1223.150499
1223.150612
1223.150759
1223.150771
1223.150858
1223.150836
1223.15114
1223.151222
1223.151136
1223.151224
1223.151438
1223.151445
1223.151504
1223.151506
1223.1516
1223.149243
1223.149135
1223.149071
1223.14905
1223.149033
1223.149195
1223.149264
1223.149251
1223.149293
1223.149277
1223.149424
1223.149393
1223.149386
1223.149333
1223.149376
1223.152471
1223.152483
1223.152472
1223.152368
1223.152404
1223.152495
1223.152582
1223.152553
1223.152466
1223.152459
1223.152602
1223.152618
1223.15253
1223.15254
1223.152448
1223.148189
1223.148146
1223.148243
1223.148237
1223.148225
1223.148251
1223.148102
1223.148049
1223.148113
1223.148105
1223.148032
1223.148206
1223.148168
1223.148349
1223.148255
1223.151438
1223.151515
1223.1515
1223.151483
1223.151425
1223.151306
1223.15144
1223.151396
1223.15137
1223.151293
1223.151385
1223.151353
1223.151347
1223.151501
1223.150953
1223.151096
1223.151246
1223.151183
1223.151205
1223.151264
1223.151374
1223.151172
1223.151135
1223.151036
1223.150874
1223.150736
1223.150912
1223.150862
1223.14984
1223.14987
1223.149844
1223.149729
1223.14985
1223.149912
1223.150027
1223.150068
1223.150011
1223.150084
1223.150062
1223.150115
1223.150398
1223.150352
1223.151747
1223.151763
1223.151602
1223.15162
1223.151657
1223.151611
1223.151643
1223.151689
1223.151704
1223.151763
1223.15165
1223.151662
1223.151723
1223.152135
1223.152401
1223.147615
1223.147613
1223.147524
1223.147594
1223.147776
1223.147811
1223.147832
1223.147888
1223.14789
1223.147885
1223.147907
1223.147776
1223.147852
1223.148223
1223.124462
1223.149978
1223.150032
1223.149978
1223.150283
1223.150244
1223.150009
1223.150166
1223.150076
1223.15024
1223.150159
1223.150074
1223.15019
1223.150324
1223.150481
1223.150673
1223.151912
1223.151951
1223.151952
1223.151832
1223.151821
1223.151821
1223.151818
1223.151836
1223.15187
1223.15175
1223.151707
1223.151585
1223.151797
1223.151963
1223.152095
1223.147942
1223.147931
1223.14819
1223.148025
1223.147917
1223.148072
1223.148008
1223.147963
1223.147976
1223.147955
1223.14812
1223.148167
1223.148249
1223.148264
1223.148444
1223.150061
1223.150174
1223.150124
1223.150166
1223.150298
1223.150364
1223.150304
1223.150196
1223.150082
1223.150294
1223.150195
1223.15015
1223.150132
1223.150209
1223.150079
1223.14994
1223.149842
1223.149896
1223.150197
1223.150023
1223.149916
1223.149816
1223.149869
1223.149768
1223.149895
1223.149991
1223.149989
1223.149928
1223.149879
1223.148669
1223.148777
1223.148683
1223.148676
1223.14878
1223.148915
1223.148812
1223.148873
1223.148655
1223.148684
1223.148897
1223.148751
1223.148825
1223.148749
1223.150742
1223.150639
1223.150613
1223.150563
1223.150561
1223.150502
1223.150399
1223.150362
1223.150477
1223.150499
1223.150562
1223.150456
1223.150165
1223.150386
1223.151395
1223.151425
1223.151417
1223.151596
1223.151419
1223.151301
1223.151382
1223.151245
1223.15128
1223.151259
1223.151308
1223.151311
1223.1513
1223.151614
1223.152298
1223.152444
1223.152256
1223.152285
1223.152431
1223.152366
1223.152521
1223.152509
1223.152451
1223.152489
1223.152453
1223.152571
1223.152715
1223.153832
1209.164112
1223.150929
1223.1511
1223.151105
1223.151138
1223.150989
1223.150745
1223.150992
1223.150939
1223.150974
1223.150893
1223.150774
1223.150924
1223.150999
1223.151316
1223.127561
1223.152512
1223.152477
1223.152412
1223.152308
1223.152316
1223.152219
1223.152267
1223.152153
1223.15201
1223.151862
1223.151935
1223.151885
1223.151835
1223.151859
1223.15194
1223.147785
1223.147837
1223.14765
1223.147697
1223.147899
1223.147821
1223.147859
1223.147776
1223.147739
1223.147907
1223.147758
1223.147817
1223.147692
1223.147602
1223.147809
1223.149375
1223.149295
1223.149191
1223.149242
1223.149305
1223.149218
1223.149125
1223.149208
1223.149105
1223.149114
1223.148945
1223.149115
1223.149038
1223.148838
1223.148713
1223.149336
1223.149326
1223.149263
1223.14941
1223.149465
1223.149685
1223.149654
1223.149697
1223.149779
1223.149789
1223.149724
1223.14968
1223.149838
1223.149948
1223.14888
1223.148999
1223.148946
1223.148795
1223.148916
1223.149034
1223.149052
1223.149024
1223.149073
1223.149037
1223.148986
1223.148945
1223.149012
1223.149129
1223.150785
1223.150635
1223.150613
1223.150749
1223.150902
1223.150937
1223.151
1223.150805
1223.150886
1223.150889
1223.150818
1223.150952
1223.150942
1223.150863
1223.149231
1223.149318
1223.149249
1223.149251
1223.1492
1223.149428
1223.149458
1223.149191
1223.149159
1223.148905
1223.148772
1223.148809
1223.148897
1223.148846
1223.150679
1223.150729
1223.150733
1223.150716
1223.150656
1223.150618
1223.150624
1223.150684
1223.150651
1223.150683
1223.150743
1223.150809
1223.150823
1223.151362
1223.151253
1223.151103
1223.1512
1223.151278
1223.151436
1223.151409
1223.151398
1223.151268
1223.151139
1223.151085
1223.151355
1223.151393
1223.151413
1223.151229
1223.148997
1223.149091
1223.149033
1223.148937
1223.148942
1223.149162
1223.148987
1223.149041
1223.149077
1223.1491
1223.149091
1223.148938
1223.14882
1223.148834
1223.148998
1223.149344
1223.149364
1223.149434
1223.149432
1223.149546
1223.149461
1223.14951
1223.149361
1223.149538
1223.149422
1223.1494
1223.149583
1223.149601
1223.149703
1223.149769
1223.15236
1223.152298
1223.152317
1223.152185
1223.152212
1223.152181
1223.15218
1223.152187
1223.152041
1223.15222
1223.152149
1223.152062
1223.151864
1223.151848
1223.151843
1223.150281
1223.150196
1223.150264
1223.150225
1223.150213
1223.150106
1223.150001
1223.150048
1223.150157
1223.150063
1223.150224
1223.150298
1223.150319
1223.150255
1223.15199
1223.15193
1223.151849
1223.152011
1223.152014
1223.151913
1223.151962
1223.1519
1223.152006
1223.152035
1223.152025
1223.152059
1223.151684
1223.151659
1223.149254
1223.149101
1223.148948
1223.149004
1223.148913
1223.148937
1223.148929
1223.148973
1223.149035
1223.148969
1223.148834
1223.14872
1223.148751
1223.148631
1223.150604
1223.150547
1223.150627
1223.150658
1223.150622
1223.150736
1223.150712
1223.150766
1223.150649
1223.150601
1223.15046
1223.150757
1223.150564
1223.150767
1223.150866
1223.150848
1223.150638
1223.150681
1223.150786
1223.15081
1223.150925
1223.150906
1223.150911
1223.15085
1223.150904
1223.150917
1223.150879
1223.150856
1223.149002
1223.148827
1223.148963
1223.149096
1223.149042
1223.148969
1223.148736
1223.148739
1223.148582
1223.14872
1223.148742
1223.148797
1223.148899
1223.149036
1223.150908
1223.150785
1223.150544
1223.150415
1223.150472
1223.150466
1223.150683
1223.150655
1223.150792
1223.150692
1223.150624
1223.15065
1223.150563
1223.150361
1223.149475
1223.149615
1223.149402
1223.149491
1223.149535
1223.149444
1223.149514
1223.149485
1223.149554
1223.149539
1223.149561
1223.14953
1223.1493
1223.149382
1223.149462
1223.149576
1223.14959
1223.149594
1223.149495
1223.14969
1223.149698
1223.14973
1223.149659
1223.149695
1223.149487
1223.149579
1223.149519
1223.149627
1223.149513
1223.149512
1223.15115
1223.151174
1223.151254
1223.151115
1223.151245
1223.151357
1223.151257
1223.151137
1223.15115
1223.1512
1223.151196
1223.151156
1223.15103
1223.150941
1223.149402
1223.149274
1223.149253
1223.149192
1223.14935
1223.149408
1223.149545
1223.149689
1223.149873
1223.149699
1223.149652
1223.149834
1223.149694
1223.14984
1223.15142
1223.151587
1223.15167
1223.151663
1223.151395
1223.151459
1223.151388
1223.151426
1223.151221
1223.151186
1223.15139
1223.151326
1223.151198
1223.151207
1223.149124
1223.148977
1223.149025
1223.14919
1223.149171
1223.149042
1223.149249
1223.149159
1223.149134
1223.149217
1223.149111
1223.149048
1223.149025
1223.14912
1223.150735
1223.150748
1223.150845
1223.15073
1223.150745
1223.150759
1223.150589
1223.150669
1223.150624
1223.150623
1223.150599
1223.15058
1223.150605
1223.150636
1223.149394
1223.149544
1223.149378
1223.149374
1223.149406
1223.149306
1223.149184
1223.149076
1223.149063
1223.149058
1223.149311
1223.14924
1223.1492
1223.149161
1223.150252
1223.150417
1223.150389
1223.150317
1223.15011
1223.150129
1223.150237
1223.150425
1223.150425
1223.150361
1223.1505
1223.150383
1223.150459
1223.150391
1223.150763
1223.150677
1223.150726
1223.150783
1223.15068
1223.150746
1223.151026
1223.150994
1223.150727
1223.150787
1223.150678
1223.15069
1223.150616
1223.150646
1223.151858
1223.15181
1223.151778
1223.151844
1223.151804
1223.151928
1223.151829
1223.151768
1223.151746
1223.151908
1223.151782
1223.151815
1223.151901
1223.151912
1223.151877
1223.150718
1223.150853
1223.150927
1223.150877
1223.150967
1223.150978
1223.150831
1223.150813
1223.150757
1223.150875
1223.150841
1223.150748
1223.150934
1223.150958
1223.1496
1223.149732
1223.149486
1223.149512
1223.149531
1223.149479
1223.149541
1223.149496
1223.149509
1223.149405
1223.149378
1223.149298
1223.149248
1223.14907
1223.151502
1223.151644
1223.151645
1223.151599
1223.151525
1223.151647
1223.151606
1223.151614
1223.151415
1223.151459
1223.151512
1223.151533
1223.151457
1223.151447
1223.148895
1223.148806
1223.148929
1223.148934
1223.149111
1223.149165
1223.149127
1223.149309
1223.149528
1223.14954
1223.14941
1223.149505
1223.149436
1223.149485
1223.148005
1223.148023
1223.148101
1223.148102
1223.148127
1223.148088
1223.148049
1223.148181
1223.148045
1223.148101
1223.147993
1223.147985
1223.148011
1223.148096
1223.14935
1223.149492
1223.149444
1223.14946
1223.149434
1223.149467
1223.149377
1223.149111
1223.14935
1223.149207
1223.149113
1223.149163
1223.149112
1223.149132
1223.151284
1223.151256
1223.15116
1223.15118
1223.151129
1223.151226
1223.151297
1223.151212
1223.151275
1223.151393
1223.151473
1223.151519
1223.1515
1223.151464
1223.14798
1223.147969
1223.148017
1223.148184
1223.148254
1223.148239
1223.148109
1223.148146
1223.148223
1223.148237
1223.148222
1223.148221
1223.148256
1223.148208
1223.149522
1223.149479
1223.149411
1223.149429
1223.149422
1223.149388
1223.149532
1223.149509
1223.149608
1223.149607
1223.149552
1223.149637
1223.149616
1223.149722
)
;

boundaryField
{
    top
    {
        type            zeroGradient;
    }
    bottom
    {
        type            zeroGradient;
    }
    side-walls
    {
        type            zeroGradient;
    }
    inlet
    {
        type            zeroGradient;
    }
    outlet
    {
        type            zeroGradient;
    }
    procBoundary0to1
    {
        type            processor;
        value           nonuniform List<scalar> 
97
(
1223.15035
1223.149601
1223.150544
1223.149939
1223.15013
1223.149909
1223.151876
1223.151062
1223.149668
1223.151286
1223.149601
1223.149601
1223.149492
1223.153949
1223.152356
1223.149977
1223.15023
1223.147734
1223.152371
1223.148389
1223.150907
1223.150389
1223.153949
1223.153949
1223.149715
1223.150403
1223.146384
1223.150533
1223.151578
1223.149525
1223.15251
1223.148243
1223.151505
1223.150957
1223.150403
1223.150403
1223.152558
1223.127753
1223.124184
1223.150745
1223.152138
1223.148363
1223.150119
1223.150148
1223.148647
1223.150587
1223.127753
1223.127753
1209.141081
1223.127231
1223.127291
1223.151508
1223.151981
1223.147707
1223.148706
1223.149862
1223.14916
1223.150941
1223.149309
1223.127231
1223.151508
1223.151508
1223.149077
1223.150366
1223.149824
1223.151844
1223.15005
1223.151595
1223.149017
1223.150666
1223.151068
1223.148694
1223.150366
1223.150366
1223.149686
1223.150788
1223.149311
1223.150977
1223.149972
1223.151311
1223.149068
1223.150515
1223.149368
1223.150517
1223.150788
1223.150788
1223.151854
1223.149622
1223.150863
1223.149083
1223.151506
1223.149542
1223.148073
1223.149102
1223.151417
1223.148281
1223.149622
)
;
    }
}


// ************************************************************************* //
