/*--------------------------------*- C++ -*----------------------------------*\
| =========                 |                                                 |
| \\      /  F ield         | OpenFOAM: The Open Source CFD Toolbox           |
|  \\    /   O peration     | Version:  4.x                                   |
|   \\  /    A nd           | Web:      www.OpenFOAM.org                      |
|    \\/     M anipulation  |                                                 |
\*---------------------------------------------------------------------------*/
FoamFile
{
    version     2.0;
    format      ascii;
    class       volScalarField;
    location    "1000";
    object      X_CO2;
}
// * * * * * * * * * * * * * * * * * * * * * * * * * * * * * * * * * * * * * //

dimensions      [0 0 0 0 0 0 0];

internalField   nonuniform List<scalar> 
1175
(
0.004151310457
0.004151310378
0.00415131032
0.004151310333
0.004151310479
0.004151310555
0.00415131131
0.004151313987
0.004151322072
0.004151347034
0.004151417918
0.004151606151
0.004152067146
0.004153086714
0.004155096437
0.00415131029
0.004151310055
0.004151310122
0.00415131026
0.004151310309
0.004151310646
0.00415131167
0.004151315454
0.004151327302
0.004151365046
0.004151476497
0.00415178519
0.00415256667
0.004154333842
0.004157817805
0.004151309984
0.004151310045
0.004151310172
0.004151309996
0.004151310291
0.004151310634
0.004151312094
0.004151317645
0.004151336692
0.004151399057
0.004151592872
0.004152155118
0.004153638267
0.004157090727
0.004163915276
0.004151310146
0.004151310067
0.004151310217
0.00415131025
0.004151310463
0.004151310842
0.004151312923
0.004151320508
0.004151347535
0.004151439462
0.004151738227
0.004152642467
0.004155133199
0.004161133139
0.004173081454
0.004151309953
0.004151309961
0.004151310246
0.004151310478
0.00415131075
0.004151311094
0.004151313318
0.004151321942
0.004151352832
0.004151460732
0.004151819145
0.004152936988
0.00415611723
0.004164022778
0.004179969787
0.004151310063
0.004151310067
0.004151310117
0.004151310126
0.004151310505
0.004151310972
0.004151313087
0.004151320459
0.004151347571
0.004151439371
0.004151737908
0.004152642347
0.00415513307
0.004161133181
0.004173081139
0.004151310235
0.004151310186
0.004151309934
0.004151310357
0.004151310598
0.004151310872
0.004151312372
0.004151318041
0.004151337074
0.004151399312
0.004151593395
0.004152155276
0.00415363805
0.004157090448
0.00416391479
0.00415131038
0.00415131033
0.004151310175
0.004151310148
0.004151310336
0.004151310512
0.004151311579
0.004151315136
0.004151327273
0.004151365082
0.004151476944
0.004151785552
0.00415256681
0.004154333763
0.004157817496
0.004151310248
0.004151310182
0.00415131033
0.004151310261
0.004151310204
0.004151310652
0.004151311523
0.004151314033
0.00415132222
0.004151347103
0.004151417992
0.004151606293
0.004152067017
0.004153086384
0.004155096049
0.004151310285
0.004151310223
0.004151310206
0.004151310342
0.004151310409
0.004151310693
0.004151311498
0.004151315017
0.004151327215
0.004151364917
0.004151476497
0.004151785373
0.004152566882
0.00415433425
0.00415131039
0.004151310225
0.004151310079
0.004151310323
0.004151310548
0.004151310784
0.004151312329
0.004151317556
0.004151336229
0.004151397516
0.004151589761
0.004152151511
0.004153646308
0.004157148237
0.004164076982
0.004151310092
0.004151310365
0.004151310445
0.004151310243
0.004151310539
0.00415131106
0.004151313199
0.00415132181
0.004151353158
0.004151463596
0.004151831952
0.004152981675
0.004156235741
0.004164233289
0.004180224982
0.004151310176
0.004151310082
0.004151310216
0.004151310385
0.004151310474
0.004151311353
0.004151314469
0.004151326923
0.004151374172
0.004151548967
0.004152168643
0.004154231948
0.004160484825
0.00417683407
0.004210348399
0.004151309977
0.004151310083
0.004151310203
0.004151310331
0.004151310424
0.004151311365
0.004151314995
0.004151329233
0.004151385387
0.004151599026
0.004152385392
0.004155135327
0.004163985949
0.004188734945
0.004241851155
0.004151310338
0.004151310266
0.004151310112
0.004151310341
0.004151310455
0.004151311361
0.004151314524
0.00415132684
0.004151374195
0.004151548754
0.004152168713
0.004154232214
0.004160484831
0.004176833835
0.004210347471
0.004151310172
0.004151310139
0.004151310184
0.004151310224
0.00415131032
0.004151310924
0.00415131333
0.004151322086
0.004151353505
0.004151463783
0.004151832114
0.004152981603
0.004156235376
0.004164232401
0.004180223508
0.004151310417
0.004151310236
0.004151310348
0.004151310223
0.004151310126
0.004151310752
0.00415131216
0.00415131761
0.004151336326
0.004151397543
0.004151589526
0.004152151408
0.004153646324
0.004157148034
0.004164075713
0.004151310373
0.004151310291
0.004151310301
0.004151310215
0.004151310322
0.00415131066
0.004151311703
0.004151315531
0.004151327563
0.004151364883
0.004151476385
0.004151785403
0.004152566753
0.004154333925
0.004157817634
0.004151310312
0.004151310273
0.004151310305
0.004151310285
0.004151310406
0.00415131087
0.004151312562
0.004151317911
0.004151337089
0.004151399443
0.00415159331
0.00415215531
0.004153638456
0.004157091299
0.004151310291
0.004151310309
0.004151310082
0.004151310317
0.004151310363
0.004151310908
0.004151313054
0.004151321933
0.004151353384
0.00415146362
0.004151832201
0.004152981912
0.004156235805
0.004164234367
0.004151310413
0.004151310528
0.004151310335
0.004151310221
0.004151310565
0.004151311524
0.004151315223
0.004151329809
0.004151387057
0.004151604469
0.004152391256
0.004155064423
0.004163312545
0.004185176463
0.004230184849
0.004151310101
0.004151310145
0.004151310093
0.004151310429
0.004151310447
0.004151311878
0.004151317241
0.004151339792
0.004151431944
0.004151804922
0.004153266467
0.004158701868
0.004177255876
0.004231782158
0.004351601948
0.004151310359
0.00415131039
0.004151310213
0.004151310241
0.004151310656
0.00415131215
0.004151318434
0.004151344751
0.004151458177
0.004151937256
0.004153926382
0.004161918986
0.004192109153
0.004292860674
0.004544325413
0.004151310365
0.004151310242
0.00415131036
0.004151310547
0.004151310644
0.00415131185
0.004151317201
0.004151339626
0.004151431867
0.00415180513
0.00415326635
0.004158701591
0.004177255457
0.004231780032
0.004351594796
0.00415130979
0.004151310054
0.004151310153
0.004151310256
0.004151310611
0.004151311383
0.004151315038
0.004151329699
0.004151387391
0.004151604849
0.004152391377
0.00415506418
0.004163312071
0.004185174438
0.004230177471
0.004151310315
0.004151310203
0.004151310189
0.004151310101
0.004151310466
0.004151311108
0.004151313368
0.004151322116
0.004151353615
0.004151463787
0.004151832145
0.00415298168
0.004156235391
0.004164232859
0.004180223678
0.004151310402
0.004151310314
0.004151310318
0.004151310235
0.00415131038
0.004151310893
0.004151312329
0.004151317834
0.004151337006
0.004151399254
0.004151593219
0.004152155213
0.004153638355
0.004157090683
0.004163915147
0.004151310562
0.004151310622
0.004151310484
0.004151310378
0.00415131051
0.004151311233
0.004151313045
0.004151320699
0.00415134771
0.004151439853
0.004151738295
0.004152642632
0.004155133692
0.004161134389
0.00415131032
0.00415131033
0.004151310235
0.004151310284
0.004151310553
0.004151311374
0.004151314435
0.004151327045
0.004151374276
0.004151549231
0.0041521691
0.004154232555
0.004160485827
0.00417683735
0.004151310097
0.00415131026
0.004151310296
0.004151310454
0.004151310614
0.004151311935
0.004151317335
0.004151339466
0.004151431823
0.004151805044
0.004153266532
0.004158702286
0.004177257235
0.004231789779
0.004151310174
0.004151310241
0.004151310372
0.004151310221
0.004151310634
0.004151312508
0.004151320413
0.004151355989
0.004151513149
0.004152205517
0.00415521243
0.004167862344
0.004217853973
0.004391585725
0.004836699935
0.004151310375
0.004151310291
0.004151310548
0.004151310475
0.004151310898
0.004151312813
0.004151322205
0.004151365547
0.004151566225
0.004152507916
0.004156962695
0.004178064584
0.004276328588
0.004705091389
0.006198362446
0.00415131022
0.004151310111
0.004151310309
0.004151310316
0.004151310902
0.00415131273
0.004151320372
0.004151355962
0.004151513042
0.004152205767
0.004155212232
0.004167861426
0.004217851556
0.004391572429
0.004836643422
0.004151310119
0.004151310137
0.004151310409
0.004151310404
0.004151310614
0.004151311942
0.004151317253
0.004151339623
0.004151431648
0.00415180514
0.004153266415
0.004158701905
0.004177255662
0.004231780744
0.004351595275
0.00415131016
0.004151310136
0.004151309897
0.004151309969
0.004151310388
0.004151311319
0.004151314502
0.004151326927
0.004151374165
0.004151549148
0.004152168923
0.004154232156
0.004160485052
0.004176834081
0.004210347729
0.004151310167
0.00415131032
0.004151310138
0.004151310105
0.004151310194
0.004151310653
0.004151313068
0.004151320625
0.004151347746
0.004151439597
0.004151738103
0.004152642341
0.004155133194
0.004161133355
0.004173081406
0.004151310629
0.004151310794
0.004151310498
0.00415131028
0.004151310507
0.004151311083
0.004151313297
0.00415132184
0.004151352794
0.004151460853
0.004151819412
0.004152937065
0.004156117975
0.004164024508
0.004151310354
0.004151310258
0.004151310287
0.004151310214
0.004151310424
0.004151311304
0.004151315039
0.004151329414
0.004151385562
0.004151599081
0.004152385169
0.004155135339
0.00416398712
0.004188739723
0.004151310277
0.004151310186
0.004151310248
0.004151310409
0.004151310738
0.00415131238
0.004151318324
0.004151345
0.004151457991
0.00415193729
0.004153926498
0.004161919816
0.004192113273
0.004292879326
0.004151310126
0.00415131011
0.004151310138
0.004151310046
0.00415131085
0.004151313306
0.004151322401
0.004151365492
0.004151566096
0.004152507931
0.004156962988
0.0041780661
0.004276338
0.004705155978
0.004151310214
0.004151310053
0.004151310268
0.004151310269
0.004151310791
0.004151313266
0.004151324498
0.004151378433
0.004151643115
0.004152993008
0.004160201725
0.004200954686
0.004447262588
0.006050494457
0.01743471887
0.004151310004
0.004151310075
0.004151310137
0.004151310386
0.004151310896
0.004151313084
0.004151322375
0.004151365695
0.004151566394
0.004152508159
0.004156962862
0.00417806523
0.00427633132
0.004705101694
0.006198375006
0.004151310046
0.004151310239
0.004151310361
0.004151310598
0.004151310878
0.004151312043
0.004151318301
0.004151344864
0.004151458259
0.004151937354
0.004153926302
0.004161919315
0.004192110383
0.00429286387
0.004544328556
0.004151310231
0.004151310181
0.00415131031
0.00415131021
0.004151310464
0.004151311309
0.004151314878
0.004151329423
0.004151385193
0.004151598793
0.004152385248
0.004155135395
0.004163986425
0.004188735899
0.00424185196
0.004151310116
0.004151310128
0.004151310292
0.004151310324
0.004151310341
0.004151310964
0.004151313446
0.004151321843
0.004151352924
0.004151460642
0.00415181932
0.004152936862
0.004156117638
0.00416402334
0.004179970187
0.004151310508
0.004151310475
0.004151310557
0.004151310281
0.00415131046
0.004151311055
0.004151313226
0.004151320546
0.004151347428
0.004151439523
0.004151738459
0.004152642662
0.004155133574
0.004161134459
0.00415131052
0.004151310195
0.004151310294
0.004151310531
0.004151310564
0.004151311399
0.004151314501
0.004151326688
0.004151374006
0.004151548874
0.004152168889
0.004154232433
0.004160485644
0.004176836943
0.004151310317
0.004151310412
0.004151310361
0.004151310577
0.004151310602
0.004151312002
0.004151317324
0.004151339639
0.004151431773
0.004151804987
0.004153266599
0.004158702392
0.004177258049
0.004231790292
0.00415131046
0.004151310403
0.004151310228
0.004151310327
0.004151310702
0.004151312613
0.004151320517
0.004151355892
0.004151512979
0.004152205903
0.004155212566
0.004167862961
0.004217857818
0.004391602778
0.004151310185
0.004151310283
0.004151310369
0.004151310342
0.004151310994
0.004151313027
0.004151322422
0.004151365757
0.004151566584
0.004152508155
0.004156963164
0.0041780665
0.004276339525
0.00470516197
0.004151310385
0.004151310287
0.004151310272
0.004151310158
0.004151310655
0.004151312513
0.004151320769
0.004151356378
0.004151513508
0.004152205886
0.004155212359
0.004167862799
0.004217856905
0.004391598999
0.004151309933
0.004151310077
0.004151310149
0.004151310234
0.004151310499
0.004151311727
0.004151316999
0.004151339672
0.004151431898
0.004151805248
0.004153266619
0.004158702236
0.004177257055
0.004231785832
0.004351612618
0.004151310031
0.004151309954
0.00415131012
0.004151310265
0.004151310522
0.004151311243
0.004151314436
0.004151327094
0.004151374194
0.004151549003
0.004152168911
0.00415423236
0.004160485463
0.004176835086
0.00421035025
0.004151310127
0.004151310132
0.00415131035
0.004151310286
0.004151310264
0.004151310898
0.004151312912
0.004151320418
0.004151347526
0.004151439462
0.004151738086
0.00415264236
0.004155133403
0.004161133484
0.00417308182
0.00415131015
0.004151310228
0.004151310218
0.004151310336
0.004151310501
0.004151310889
0.004151312368
0.004151318212
0.004151337077
0.004151399243
0.004151593171
0.004152155221
0.004153638421
0.004157091075
0.004151310156
0.004151310145
0.004151310222
0.004151310173
0.004151310391
0.004151310935
0.00415131328
0.004151321863
0.004151353354
0.004151463511
0.004151831884
0.004152981818
0.004156236112
0.004164234108
0.004151309916
0.004151310071
0.004151310403
0.004151310314
0.0041513107
0.004151311366
0.004151315086
0.004151329985
0.004151387354
0.004151604588
0.004152391483
0.004155064718
0.004163313353
0.004185178478
0.004151310156
0.004151310294
0.00415131012
0.00415131017
0.004151310601
0.004151311557
0.004151317159
0.004151339692
0.004151431747
0.004151805288
0.0041532668
0.004158702311
0.004177258125
0.004231790161
0.004151310182
0.004151310268
0.004151310344
0.004151310381
0.004151310636
0.004151311833
0.004151318227
0.004151344799
0.004151458224
0.004151937377
0.004153926546
0.004161919931
0.004192113793
0.004292880186
0.004151310171
0.004151310144
0.004151310109
0.004151310184
0.004151310636
0.004151311808
0.004151317436
0.004151339743
0.004151432111
0.004151805303
0.004153266613
0.004158702359
0.004177258075
0.004231789443
0.004151310011
0.004151310133
0.00415131019
0.004151310326
0.004151310326
0.004151311349
0.00415131505
0.004151329719
0.00415138726
0.004151604944
0.004152391491
0.004155064665
0.004163313329
0.004185178379
0.004151309886
0.00415130997
0.004151310144
0.004151310128
0.004151310471
0.004151311165
0.004151313267
0.004151322021
0.004151353278
0.004151463861
0.004151832205
0.004152981778
0.004156235668
0.004164233728
0.00418022633
0.004151310067
0.004151310188
0.004151310356
0.004151310505
0.004151310602
0.004151310875
0.00415131242
0.004151318013
0.004151336909
0.004151399444
0.004151593304
0.004152155408
0.004153638362
0.004157090968
0.004163915396
0.004151310221
0.004151310257
0.004151310269
0.004151310267
0.004151310268
0.004151310766
0.00415131168
0.004151315434
0.004151327428
0.004151364819
0.00415147655
0.004151785292
0.00415256662
0.004154334006
0.004151310104
0.004151310169
0.004151310257
0.004151310454
0.004151310251
0.004151310782
0.004151312254
0.004151317626
0.004151336121
0.004151397516
0.00415158959
0.004152151375
0.004153646429
0.00415714837
0.00415131024
0.004151310159
0.004151310055
0.004151310013
0.004151310369
0.00415131086
0.004151313167
0.004151321851
0.004151353471
0.004151463762
0.004151832045
0.004152981836
0.004156235952
0.004164234325
0.004151310145
0.004151310284
0.004151310082
0.004151310071
0.004151310354
0.00415131145
0.004151314423
0.004151326968
0.004151374156
0.004151548816
0.004152168731
0.004154232467
0.004160485966
0.004176837133
0.004151310084
0.004151310139
0.004151310099
0.004151310221
0.004151310642
0.00415131145
0.004151315082
0.004151329469
0.004151385341
0.004151598821
0.004152385338
0.00415513575
0.004163987562
0.004188739625
0.004151310406
0.004151310164
0.004151310175
0.004151310211
0.004151310443
0.004151311263
0.004151314493
0.004151327025
0.004151374257
0.004151549031
0.004152168772
0.004154232619
0.004160486083
0.00417683702
0.004151309982
0.004151310061
0.004151310251
0.004151310352
0.004151310601
0.00415131111
0.004151313233
0.004151321936
0.004151353351
0.004151463816
0.00415183209
0.004152981937
0.004156236086
0.004164234185
0.004151310131
0.004151310199
0.004151310218
0.004151310189
0.004151310455
0.004151310793
0.004151312163
0.004151317533
0.004151336211
0.004151397323
0.004151589484
0.004152151399
0.004153646386
0.004157148776
0.004151310175
0.004151310439
0.004151310328
0.004151310411
0.004151310345
0.00415131055
0.004151311681
0.004151315359
0.004151327325
0.004151364666
0.004151476596
0.004151785384
0.004152566854
0.004154334066
0.004157818266
0.004151310269
0.004151310192
0.00415131007
0.004151310127
0.004151310084
0.004151310394
0.004151311125
0.00415131384
0.004151322196
0.004151347148
0.004151417907
0.004151606345
0.004152066913
0.004153086639
0.004151310082
0.004151310051
0.004151310267
0.004151310088
0.004151310292
0.004151310687
0.004151311884
0.004151315338
0.004151327183
0.004151365038
0.004151476636
0.004151785368
0.004152566789
0.004154334101
0.004151310345
0.0041513103
0.004151310147
0.004151310176
0.004151310177
0.004151310567
0.004151312134
0.004151317575
0.004151336913
0.004151399175
0.004151593396
0.004152155586
0.004153638636
0.004157091385
0.004151310167
0.004151310299
0.00415131018
0.004151310351
0.004151310346
0.004151310854
0.004151312874
0.004151320567
0.004151347439
0.00415143969
0.004151738339
0.004152642626
0.00415513375
0.004161134378
0.004151310058
0.004151310029
0.004151310123
0.004151310363
0.004151310511
0.004151310991
0.004151313252
0.004151321906
0.00415135298
0.004151460882
0.004151819488
0.004152937254
0.004156118069
0.004164024267
0.004151310187
0.004151310168
0.004151310172
0.004151310125
0.004151310399
0.004151310849
0.004151312919
0.004151320664
0.004151347662
0.004151439552
0.00415173837
0.00415264245
0.004155133429
0.00416113442
0.004151310033
0.004151310038
0.004151310189
0.004151310123
0.004151310345
0.004151310625
0.004151312031
0.004151317754
0.004151336749
0.004151398956
0.004151593074
0.004152155239
0.004153638624
0.004157091241
0.004151309933
0.004151310079
0.004151310125
0.004151310113
0.004151310293
0.004151310563
0.004151311684
0.004151315246
0.00415132738
0.004151365069
0.004151476602
0.004151785313
0.004152566796
0.004154334201
0.004151310097
0.004151310164
0.004151310117
0.004151310187
0.004151310192
0.004151310584
0.004151311231
0.004151313967
0.004151322331
0.004151347149
0.004151418026
0.004151606395
0.004152067186
0.004153086604
)
;

boundaryField
{
    top
    {
        type            calculated;
        value           nonuniform List<scalar> 
134
(
0.004151310248
0.004151310373
0.004151310402
0.004151310167
0.004151310116
0.004151310127
0.004151310067
0.004151310175
0.004151310097
0.004151310182
0.004151310291
0.004151310314
0.00415131032
0.004151310128
0.004151310132
0.004151310188
0.004151310439
0.004151310164
0.00415131033
0.004151310301
0.004151310318
0.004151310138
0.004151310292
0.00415131035
0.004151310356
0.004151310328
0.004151310117
0.004151310261
0.004151310215
0.004151310235
0.004151310105
0.004151310324
0.004151310286
0.004151310505
0.004151310411
0.004151310187
0.004151310204
0.004151310322
0.00415131038
0.004151310194
0.004151310341
0.004151310264
0.004151310602
0.004151310345
0.004151310192
0.004151310652
0.00415131066
0.004151310893
0.004151310653
0.004151310964
0.004151310898
0.004151310875
0.00415131055
0.004151310584
0.004151311523
0.004151311703
0.004151312329
0.004151313068
0.004151313446
0.004151312912
0.00415131242
0.004151311681
0.004151311231
0.004151314033
0.004151315531
0.004151317834
0.004151320625
0.004151321843
0.004151320418
0.004151318013
0.004151315359
0.004151313967
0.00415132222
0.004151327563
0.004151337006
0.004151347746
0.004151352924
0.004151347526
0.004151336909
0.004151327325
0.004151322331
0.004151347103
0.004151364883
0.004151399254
0.004151439597
0.004151460642
0.004151439462
0.004151399444
0.004151364666
0.004151347149
0.004151417992
0.004151476385
0.004151593219
0.004151738103
0.00415181932
0.004151738086
0.004151593304
0.004151476596
0.004151418026
0.004151606293
0.004151785403
0.004152155213
0.004152642341
0.004152936862
0.00415264236
0.004152155408
0.004151785384
0.004151606395
0.004152067017
0.004152566753
0.004153638355
0.004155133194
0.004156117638
0.004155133403
0.004153638362
0.004152566854
0.004152067186
0.004153086384
0.004154333925
0.004157090683
0.004161133355
0.00416402334
0.004161133484
0.004157090968
0.004154334066
0.004153086604
0.004155096049
0.004157817634
0.004163915147
0.004173081406
0.004179970187
0.00417308182
0.004163915396
0.004157818266
)
;
    }
    bottom
    {
        type            calculated;
        value           nonuniform List<scalar> 
127
(
0.004151310457
0.004151310285
0.004151310312
0.004151310562
0.004151310629
0.004151310508
0.00415131015
0.004151310221
0.004151310269
0.004151310378
0.004151310223
0.004151310273
0.004151310622
0.004151310794
0.004151310475
0.004151310228
0.004151310257
0.004151310192
0.00415131032
0.004151310206
0.004151310305
0.004151310484
0.004151310498
0.004151310557
0.004151310218
0.004151310269
0.00415131007
0.004151310333
0.004151310342
0.004151310285
0.004151310378
0.00415131028
0.004151310281
0.004151310336
0.004151310267
0.004151310127
0.004151310479
0.004151310409
0.004151310406
0.00415131051
0.004151310507
0.00415131046
0.004151310501
0.004151310268
0.004151310084
0.004151310555
0.004151310693
0.00415131087
0.004151311233
0.004151311083
0.004151311055
0.004151310889
0.004151310766
0.004151310394
0.00415131131
0.004151311498
0.004151312562
0.004151313045
0.004151313297
0.004151313226
0.004151312368
0.00415131168
0.004151311125
0.004151313987
0.004151315017
0.004151317911
0.004151320699
0.00415132184
0.004151320546
0.004151318212
0.004151315434
0.00415131384
0.004151322072
0.004151327215
0.004151337089
0.00415134771
0.004151352794
0.004151347428
0.004151337077
0.004151327428
0.004151322196
0.004151347034
0.004151364917
0.004151399443
0.004151439853
0.004151460853
0.004151439523
0.004151399243
0.004151364819
0.004151347148
0.004151417918
0.004151476497
0.00415159331
0.004151738295
0.004151819412
0.004151738459
0.004151593171
0.00415147655
0.004151417907
0.004151606151
0.004151785373
0.00415215531
0.004152642632
0.004152937065
0.004152642662
0.004152155221
0.004151785292
0.004151606345
0.004152067146
0.004152566882
0.004153638456
0.004155133692
0.004156117975
0.004155133574
0.004153638421
0.00415256662
0.004152066913
0.004153086714
0.00415433425
0.004157091299
0.004161134389
0.004164024508
0.004161134459
0.004157091075
0.004154334006
0.004153086639
0.004155096437
)
;
    }
    side-walls
    {
        type            calculated;
        value           nonuniform List<scalar> 
261
(
0.004151310457
0.00415131029
0.004151309984
0.004151310146
0.004151309953
0.004151310063
0.004151310235
0.00415131038
0.004151310248
0.004151310378
0.004151310055
0.004151310045
0.004151310067
0.004151309961
0.004151310067
0.004151310186
0.00415131033
0.004151310182
0.00415131032
0.004151310122
0.004151310172
0.004151310217
0.004151310246
0.004151310117
0.004151309934
0.004151310175
0.00415131033
0.004151310333
0.00415131026
0.004151309996
0.00415131025
0.004151310478
0.004151310126
0.004151310357
0.004151310148
0.004151310261
0.004151310479
0.004151310309
0.004151310291
0.004151310463
0.00415131075
0.004151310505
0.004151310598
0.004151310336
0.004151310204
0.004151310555
0.004151310646
0.004151310634
0.004151310842
0.004151311094
0.004151310972
0.004151310872
0.004151310512
0.004151310652
0.00415131131
0.00415131167
0.004151312094
0.004151312923
0.004151313318
0.004151313087
0.004151312372
0.004151311579
0.004151311523
0.004151313987
0.004151315454
0.004151317645
0.004151320508
0.004151321942
0.004151320459
0.004151318041
0.004151315136
0.004151314033
0.004151322072
0.004151327302
0.004151336692
0.004151347535
0.004151352832
0.004151347571
0.004151337074
0.004151327273
0.00415132222
0.004151347034
0.004151365046
0.004151399057
0.004151439462
0.004151460732
0.004151439371
0.004151399312
0.004151365082
0.004151347103
0.004151417918
0.004151476497
0.004151592872
0.004151738227
0.004151819145
0.004151737908
0.004151593395
0.004151476944
0.004151417992
0.004151606151
0.00415178519
0.004152155118
0.004152642467
0.004152936988
0.004152642347
0.004152155276
0.004151785552
0.004151606293
0.004152067146
0.00415256667
0.004153638267
0.004155133199
0.00415611723
0.00415513307
0.00415363805
0.00415256681
0.004152067017
0.004153086714
0.004154333842
0.004157090727
0.004161133139
0.004164022778
0.004161133181
0.004157090448
0.004154333763
0.004153086384
0.004155096437
0.004157817805
0.004163915276
0.004173081454
0.004179969787
0.004173081139
0.00416391479
0.004157817496
0.004155096049
0.004151310269
0.004151310082
0.004151310345
0.004151310167
0.004151310058
0.004151310187
0.004151310033
0.004151309933
0.004151310097
0.004151310192
0.004151310051
0.0041513103
0.004151310299
0.004151310029
0.004151310168
0.004151310038
0.004151310079
0.004151310164
0.00415131007
0.004151310267
0.004151310147
0.00415131018
0.004151310123
0.004151310172
0.004151310189
0.004151310125
0.004151310117
0.004151310127
0.004151310088
0.004151310176
0.004151310351
0.004151310363
0.004151310125
0.004151310123
0.004151310113
0.004151310187
0.004151310084
0.004151310292
0.004151310177
0.004151310346
0.004151310511
0.004151310399
0.004151310345
0.004151310293
0.004151310192
0.004151310394
0.004151310687
0.004151310567
0.004151310854
0.004151310991
0.004151310849
0.004151310625
0.004151310563
0.004151310584
0.004151311125
0.004151311884
0.004151312134
0.004151312874
0.004151313252
0.004151312919
0.004151312031
0.004151311684
0.004151311231
0.00415131384
0.004151315338
0.004151317575
0.004151320567
0.004151321906
0.004151320664
0.004151317754
0.004151315246
0.004151313967
0.004151322196
0.004151327183
0.004151336913
0.004151347439
0.00415135298
0.004151347662
0.004151336749
0.00415132738
0.004151322331
0.004151347148
0.004151365038
0.004151399175
0.00415143969
0.004151460882
0.004151439552
0.004151398956
0.004151365069
0.004151347149
0.004151417907
0.004151476636
0.004151593396
0.004151738339
0.004151819488
0.00415173837
0.004151593074
0.004151476602
0.004151418026
0.004151606345
0.004151785368
0.004152155586
0.004152642626
0.004152937254
0.00415264245
0.004152155239
0.004151785313
0.004151606395
0.004152066913
0.004152566789
0.004153638636
0.00415513375
0.004156118069
0.004155133429
0.004153638624
0.004152566796
0.004152067186
0.004153086639
0.004154334101
0.004157091385
0.004161134378
0.004164024267
0.00416113442
0.004157091241
0.004154334201
0.004153086604
)
;
    }
    inlet
    {
        type            calculated;
        value           nonuniform List<scalar> 
81
(
0.004151310457
0.00415131029
0.004151309984
0.004151310146
0.004151309953
0.004151310063
0.004151310235
0.00415131038
0.004151310248
0.004151310285
0.00415131039
0.004151310092
0.004151310176
0.004151309977
0.004151310338
0.004151310172
0.004151310417
0.004151310373
0.004151310312
0.004151310291
0.004151310413
0.004151310101
0.004151310359
0.004151310365
0.00415130979
0.004151310315
0.004151310402
0.004151310562
0.00415131032
0.004151310097
0.004151310174
0.004151310375
0.00415131022
0.004151310119
0.00415131016
0.004151310167
0.004151310629
0.004151310354
0.004151310277
0.004151310126
0.004151310214
0.004151310004
0.004151310046
0.004151310231
0.004151310116
0.004151310508
0.00415131052
0.004151310317
0.00415131046
0.004151310185
0.004151310385
0.004151309933
0.004151310031
0.004151310127
0.00415131015
0.004151310156
0.004151309916
0.004151310156
0.004151310182
0.004151310171
0.004151310011
0.004151309886
0.004151310067
0.004151310221
0.004151310104
0.00415131024
0.004151310145
0.004151310084
0.004151310406
0.004151309982
0.004151310131
0.004151310175
0.004151310269
0.004151310082
0.004151310345
0.004151310167
0.004151310058
0.004151310187
0.004151310033
0.004151309933
0.004151310097
)
;
    }
    outlet
    {
        type            calculated;
        value           nonuniform 0();
    }
    procBoundary0to1
    {
        type            processor;
        value           nonuniform List<scalar> 
97
(
0.00415860046
0.004157818297
0.004163720475
0.004175037825
0.004191635838
0.004203503876
0.00419163556
0.004175037663
0.004163720034
0.004158600241
0.004157818297
0.004157818297
0.004175274242
0.004180226695
0.004204365126
0.004256117929
0.004305021518
0.004256116832
0.004204364075
0.004175273125
0.004163719985
0.004163915612
0.004180226695
0.004180226695
0.004290376992
0.004351616555
0.004481875449
0.004733082167
0.004481869629
0.00429037231
0.004204363935
0.004175037459
0.004173082218
0.004210351513
0.004351616555
0.004351616555
0.005139086744
0.006198530153
0.006431441098
0.005139060477
0.004481869838
0.004256116885
0.004191635829
0.00417997079
0.00424185527
0.004544350653
0.006198530153
0.006198530153
0.01203445328
0.006198523443
0.006431441916
0.00483668977
0.004733083593
0.004305021811
0.004203503915
0.004173081909
0.004210349889
0.004351604685
0.00483668113
0.006198523443
0.00483668977
0.00483668977
0.004481875653
0.004230184442
0.004256118493
0.004191636267
0.004163915327
0.004180224639
0.004230180295
0.00435160407
0.004544349116
0.0043516041
0.004230184442
0.004230184442
0.004204365211
0.004164076893
0.004175038145
0.004157817625
0.00416407603
0.004180224273
0.004210349618
0.004241855185
0.004210349511
0.004180225184
0.004164076893
0.004164076893
0.004163720712
0.004155096668
0.004155096117
0.004157817881
0.004163915248
0.004173081811
0.004179970706
0.0041730817
0.00416391521
0.004157817968
0.004155096668
)
;
    }
}


// ************************************************************************* //
