/*--------------------------------*- C++ -*----------------------------------*\
| =========                 |                                                 |
| \\      /  F ield         | OpenFOAM: The Open Source CFD Toolbox           |
|  \\    /   O peration     | Version:  4.x                                   |
|   \\  /    A nd           | Web:      www.OpenFOAM.org                      |
|    \\/     M anipulation  |                                                 |
\*---------------------------------------------------------------------------*/
FoamFile
{
    version     2.0;
    format      ascii;
    class       volScalarField;
    location    "1000";
    object      CO;
}
// * * * * * * * * * * * * * * * * * * * * * * * * * * * * * * * * * * * * * //

dimensions      [0 0 0 0 0 0 0];

internalField   nonuniform List<scalar> 
1175
(
0.4000000001
0.4000000001
0.4000000001
0.4000000001
0.4
0.3999999996
0.3999999985
0.3999999949
0.3999999834
0.3999999487
0.39999985
0.3999995881
0.3999989482
0.3999975339
0.3999947486
0.4000000001
0.4000000001
0.4000000001
0.4000000001
0.3999999999
0.3999999995
0.399999998
0.3999999929
0.3999999762
0.3999999239
0.3999997687
0.3999993399
0.3999982563
0.3999958086
0.3999909877
0.4000000001
0.4000000001
0.4000000001
0.4
0.3999999999
0.3999999993
0.3999999971
0.3999999894
0.399999963
0.3999998763
0.3999996071
0.3999988277
0.399996774
0.3999919988
0.3999825694
0.4000000001
0.4000000001
0.4000000001
0.4
0.3999999998
0.3999999991
0.3999999962
0.3999999856
0.3999999481
0.3999998203
0.3999994062
0.3999981538
0.3999947083
0.3999864187
0.3999699287
0.4000000001
0.4000000001
0.4000000001
0.4
0.3999999998
0.399999999
0.3999999957
0.3999999838
0.3999999407
0.399999791
0.399999294
0.3999977469
0.3999933501
0.3999824353
0.3999604413
0.4000000001
0.4000000001
0.4000000001
0.4
0.3999999998
0.3999999991
0.3999999962
0.3999999856
0.3999999481
0.3999998203
0.3999994063
0.3999981538
0.3999947084
0.3999864189
0.3999699291
0.4000000001
0.4000000001
0.4000000001
0.4
0.3999999999
0.3999999993
0.3999999971
0.3999999894
0.399999963
0.3999998763
0.3999996071
0.3999988277
0.399996774
0.399991999
0.3999825699
0.4000000001
0.4000000001
0.4000000001
0.4000000001
0.3999999999
0.3999999995
0.399999998
0.3999999929
0.3999999762
0.3999999239
0.3999997687
0.3999993399
0.3999982563
0.3999958088
0.3999909881
0.4000000001
0.4000000001
0.4000000001
0.4000000001
0.4
0.3999999996
0.3999999985
0.3999999949
0.3999999834
0.3999999487
0.3999998501
0.3999995881
0.3999989482
0.399997534
0.399994749
0.4000000001
0.4000000001
0.4000000001
0.4000000001
0.3999999999
0.3999999995
0.399999998
0.3999999929
0.3999999762
0.3999999239
0.3999997687
0.3999993399
0.3999982562
0.3999958084
0.4000000001
0.4000000001
0.4000000001
0.4000000001
0.3999999999
0.3999999993
0.3999999972
0.3999999897
0.399999964
0.3999998788
0.3999996121
0.3999988333
0.3999967636
0.3999919211
0.3999823504
0.4000000001
0.4000000001
0.4000000001
0.4
0.3999999998
0.399999999
0.3999999958
0.3999999837
0.3999999401
0.399999787
0.3999992763
0.399997685
0.3999931872
0.3999821451
0.3999600893
0.4000000001
0.4000000001
0.4000000001
0.4
0.3999999997
0.3999999986
0.3999999942
0.3999999769
0.3999999113
0.3999996688
0.3999988107
0.399995958
0.399987325
0.3999647802
0.399918616
0.4000000001
0.4000000001
0.4000000001
0.4
0.3999999997
0.3999999984
0.3999999934
0.3999999735
0.3999998958
0.3999996
0.3999985118
0.3999947124
0.3999825021
0.3999484033
0.3998753001
0.4000000001
0.4000000001
0.4000000001
0.4
0.3999999997
0.3999999986
0.3999999942
0.3999999769
0.3999999113
0.3999996688
0.3999988108
0.3999959581
0.3999873252
0.3999647808
0.3999186175
0.4000000001
0.4000000001
0.4000000001
0.4
0.3999999998
0.399999999
0.3999999958
0.3999999837
0.3999999401
0.399999787
0.3999992763
0.399997685
0.3999931874
0.3999821457
0.3999600909
0.4000000001
0.4000000001
0.4000000001
0.4000000001
0.3999999999
0.3999999993
0.3999999972
0.3999999897
0.399999964
0.3999998788
0.3999996121
0.3999988333
0.3999967638
0.3999919216
0.3999823517
0.4000000001
0.4000000001
0.4000000001
0.4000000001
0.3999999999
0.3999999995
0.399999998
0.3999999929
0.3999999762
0.3999999239
0.3999997687
0.3999993399
0.3999982563
0.3999958087
0.3999909881
0.4000000001
0.4000000001
0.4000000001
0.4
0.3999999999
0.3999999993
0.3999999971
0.3999999894
0.399999963
0.3999998763
0.3999996071
0.3999988276
0.3999967738
0.3999919983
0.4000000001
0.4000000001
0.4000000001
0.4
0.3999999998
0.399999999
0.3999999958
0.3999999837
0.3999999401
0.399999787
0.3999992762
0.3999976849
0.3999931869
0.3999821441
0.4000000001
0.4000000001
0.4000000001
0.4
0.3999999997
0.3999999984
0.3999999932
0.3999999727
0.3999998929
0.3999995918
0.3999985031
0.399994809
0.399983425
0.3999532865
0.3998913133
0.4000000001
0.4000000001
0.4000000001
0.4
0.3999999996
0.3999999978
0.3999999903
0.3999999592
0.3999998313
0.3999993147
0.3999972946
0.3999897923
0.3999642177
0.3998891552
0.3997243982
0.4000000001
0.4000000001
0.4000000001
0.4
0.3999999995
0.3999999975
0.3999999889
0.399999952
0.3999997949
0.3999991322
0.3999963847
0.3999853619
0.3999437873
0.3998052328
0.3994598223
0.4000000001
0.4000000001
0.4000000001
0.4
0.3999999996
0.3999999978
0.3999999903
0.3999999592
0.3999998313
0.3999993147
0.3999972946
0.3999897925
0.3999642185
0.3998891583
0.3997244065
0.4000000001
0.4000000001
0.4000000001
0.4
0.3999999997
0.3999999984
0.3999999932
0.3999999727
0.3999998929
0.3999995918
0.3999985031
0.3999948091
0.3999834257
0.3999532889
0.3998913206
0.4000000001
0.4000000001
0.4000000001
0.4
0.3999999998
0.399999999
0.3999999958
0.3999999837
0.3999999401
0.399999787
0.3999992763
0.399997685
0.3999931873
0.3999821456
0.3999600908
0.4000000001
0.4000000001
0.4000000001
0.4
0.3999999999
0.3999999993
0.3999999971
0.3999999894
0.399999963
0.3999998763
0.3999996071
0.3999988277
0.399996774
0.3999919989
0.3999825698
0.4000000001
0.4000000001
0.4000000001
0.4
0.3999999998
0.3999999991
0.3999999962
0.3999999856
0.3999999481
0.3999998203
0.3999994062
0.3999981537
0.399994708
0.3999864178
0.4000000001
0.4000000001
0.4000000001
0.4
0.3999999997
0.3999999986
0.3999999942
0.3999999769
0.3999999113
0.3999996688
0.3999988107
0.3999959578
0.3999873244
0.399964778
0.4000000001
0.4000000001
0.4000000001
0.4
0.3999999996
0.3999999978
0.3999999903
0.3999999592
0.3999998313
0.3999993147
0.3999972945
0.399989792
0.3999642165
0.3998891494
0.4000000001
0.4000000001
0.4000000001
0.3999999999
0.3999999994
0.3999999968
0.3999999857
0.3999999365
0.3999997188
0.3999987612
0.3999946108
0.3999771746
0.3999083658
0.3996695727
0.3990586211
0.4000000001
0.4000000001
0.4000000001
0.3999999999
0.3999999993
0.3999999964
0.3999999833
0.3999999232
0.3999996453
0.3999983443
0.3999922002
0.3999631435
0.3998280495
0.3992395369
0.3971940837
0.4000000001
0.4000000001
0.4000000001
0.3999999999
0.3999999994
0.3999999968
0.3999999857
0.3999999365
0.3999997188
0.3999987612
0.3999946109
0.3999771752
0.3999083686
0.3996695864
0.3990586733
0.4000000001
0.4000000001
0.4000000001
0.4
0.3999999996
0.3999999978
0.3999999903
0.3999999592
0.3999998313
0.3999993147
0.3999972946
0.3999897924
0.3999642183
0.3998891577
0.3997244058
0.4000000001
0.4000000001
0.4000000001
0.4
0.3999999997
0.3999999986
0.3999999942
0.3999999769
0.3999999113
0.3999996688
0.3999988107
0.399995958
0.3999873251
0.3999647806
0.3999186173
0.4000000001
0.4000000001
0.4000000001
0.4
0.3999999998
0.3999999991
0.3999999962
0.3999999856
0.3999999481
0.3999998203
0.3999994062
0.3999981538
0.3999947083
0.3999864187
0.3999699289
0.4000000001
0.4000000001
0.4000000001
0.4
0.3999999998
0.399999999
0.3999999957
0.3999999838
0.3999999407
0.399999791
0.399999294
0.3999977468
0.3999933497
0.3999824342
0.4000000001
0.4000000001
0.4000000001
0.4
0.3999999997
0.3999999984
0.3999999934
0.3999999735
0.3999998958
0.3999996
0.3999985117
0.3999947121
0.3999825011
0.3999484
0.4000000001
0.4000000001
0.4000000001
0.4
0.3999999995
0.3999999975
0.3999999889
0.399999952
0.3999997949
0.3999991322
0.3999963845
0.3999853613
0.3999437842
0.3998052197
0.4000000001
0.4000000001
0.4000000001
0.3999999999
0.3999999993
0.3999999964
0.3999999833
0.3999999232
0.3999996453
0.3999983443
0.3999922
0.3999631424
0.3998280421
0.3992394856
0.4000000001
0.4000000001
0.4000000001
0.3999999999
0.3999999992
0.3999999958
0.3999999802
0.3999999056
0.3999995395
0.3999976763
0.3999877448
0.3999317029
0.3995936006
0.3973983686
0.3819361789
0.4000000001
0.4000000001
0.4000000001
0.3999999999
0.3999999993
0.3999999964
0.3999999833
0.3999999232
0.3999996453
0.3999983443
0.3999922001
0.3999631434
0.3998280488
0.3992395341
0.3971940778
0.4000000001
0.4000000001
0.4000000001
0.4
0.3999999995
0.3999999975
0.3999999889
0.399999952
0.3999997949
0.3999991322
0.3999963846
0.3999853618
0.3999437867
0.3998052313
0.3994598206
0.4000000001
0.4000000001
0.4000000001
0.4
0.3999999997
0.3999999984
0.3999999934
0.3999999735
0.3999998958
0.3999996
0.3999985118
0.3999947123
0.3999825019
0.3999484029
0.3998752997
0.4000000001
0.4000000001
0.4000000001
0.4
0.3999999998
0.399999999
0.3999999957
0.3999999838
0.3999999407
0.399999791
0.399999294
0.3999977469
0.3999933501
0.3999824352
0.3999604412
0.4000000001
0.4000000001
0.4000000001
0.4
0.3999999998
0.3999999991
0.3999999962
0.3999999856
0.3999999481
0.3999998203
0.3999994062
0.3999981537
0.399994708
0.3999864179
0.4000000001
0.4000000001
0.4000000001
0.4
0.3999999997
0.3999999986
0.3999999942
0.3999999769
0.3999999113
0.3999996688
0.3999988107
0.3999959578
0.3999873244
0.3999647784
0.4000000001
0.4000000001
0.4000000001
0.4
0.3999999996
0.3999999978
0.3999999903
0.3999999592
0.3999998313
0.3999993147
0.3999972945
0.3999897919
0.3999642163
0.3998891508
0.4000000001
0.4000000001
0.4000000001
0.3999999999
0.3999999994
0.3999999968
0.3999999857
0.3999999365
0.3999997188
0.3999987612
0.3999946107
0.3999771742
0.3999083635
0.3996695644
0.4000000001
0.4000000001
0.4000000001
0.3999999999
0.3999999993
0.3999999964
0.3999999833
0.3999999232
0.3999996453
0.3999983443
0.3999922
0.3999631422
0.3998280415
0.3992394849
0.4000000001
0.4000000001
0.4000000001
0.3999999999
0.3999999994
0.3999999968
0.3999999857
0.3999999365
0.3999997188
0.3999987612
0.3999946107
0.3999771744
0.3999083644
0.399669566
0.4000000001
0.4000000001
0.4000000001
0.4
0.3999999996
0.3999999978
0.3999999903
0.3999999592
0.3999998313
0.3999993147
0.3999972945
0.3999897921
0.3999642171
0.3998891533
0.3997243921
0.4000000001
0.4000000001
0.4000000001
0.4
0.3999999997
0.3999999986
0.3999999942
0.3999999769
0.3999999113
0.3999996688
0.3999988107
0.3999959579
0.3999873248
0.3999647795
0.399918615
0.4000000001
0.4000000001
0.4000000001
0.4
0.3999999998
0.3999999991
0.3999999962
0.3999999856
0.3999999481
0.3999998203
0.3999994062
0.3999981538
0.3999947082
0.3999864185
0.3999699284
0.4000000001
0.4000000001
0.4000000001
0.4
0.3999999999
0.3999999993
0.3999999971
0.3999999894
0.399999963
0.3999998763
0.3999996071
0.3999988276
0.3999967738
0.3999919984
0.4000000001
0.4000000001
0.4000000001
0.4
0.3999999998
0.399999999
0.3999999958
0.3999999837
0.3999999401
0.399999787
0.3999992762
0.3999976849
0.3999931869
0.3999821444
0.4000000001
0.4000000001
0.4000000001
0.4
0.3999999997
0.3999999984
0.3999999932
0.3999999727
0.3999998929
0.3999995918
0.399998503
0.3999948088
0.3999834246
0.3999532858
0.4000000001
0.4000000001
0.4000000001
0.4
0.3999999996
0.3999999978
0.3999999903
0.3999999592
0.3999998313
0.3999993147
0.3999972945
0.3999897919
0.3999642162
0.3998891507
0.4000000001
0.4000000001
0.4000000001
0.4
0.3999999995
0.3999999975
0.3999999889
0.399999952
0.3999997949
0.3999991321
0.3999963845
0.3999853611
0.3999437839
0.3998052198
0.4000000001
0.4000000001
0.4000000001
0.4
0.3999999996
0.3999999978
0.3999999903
0.3999999592
0.3999998313
0.3999993147
0.3999972945
0.3999897919
0.3999642164
0.3998891513
0.4000000001
0.4000000001
0.4000000001
0.4
0.3999999997
0.3999999984
0.3999999932
0.3999999727
0.3999998929
0.3999995918
0.3999985031
0.3999948089
0.3999834248
0.3999532855
0.4000000001
0.4000000001
0.4000000001
0.4
0.3999999998
0.399999999
0.3999999958
0.3999999837
0.3999999401
0.399999787
0.3999992762
0.3999976849
0.399993187
0.3999821446
0.3999600882
0.4000000001
0.4000000001
0.4000000001
0.4
0.3999999999
0.3999999993
0.3999999971
0.3999999894
0.399999963
0.3999998763
0.3999996071
0.3999988277
0.3999967739
0.3999919986
0.3999825692
0.4000000001
0.4000000001
0.4000000001
0.4000000001
0.3999999999
0.3999999995
0.399999998
0.3999999929
0.3999999762
0.3999999239
0.3999997687
0.3999993399
0.3999982562
0.3999958085
0.4000000001
0.4000000001
0.4000000001
0.4000000001
0.3999999999
0.3999999993
0.3999999972
0.3999999897
0.399999964
0.3999998788
0.3999996121
0.3999988333
0.3999967635
0.399991921
0.4000000001
0.4000000001
0.4000000001
0.4
0.3999999998
0.399999999
0.3999999958
0.3999999837
0.3999999401
0.399999787
0.3999992762
0.3999976849
0.3999931869
0.3999821444
0.4000000001
0.4000000001
0.4000000001
0.4
0.3999999997
0.3999999986
0.3999999942
0.3999999769
0.3999999113
0.3999996688
0.3999988107
0.3999959578
0.3999873243
0.3999647784
0.4000000001
0.4000000001
0.4000000001
0.4
0.3999999997
0.3999999984
0.3999999934
0.3999999735
0.3999998958
0.3999996
0.3999985117
0.3999947121
0.399982501
0.3999484001
0.4000000001
0.4000000001
0.4000000001
0.4
0.3999999997
0.3999999986
0.3999999942
0.3999999769
0.3999999113
0.3999996688
0.3999988107
0.3999959578
0.3999873244
0.3999647786
0.4000000001
0.4000000001
0.4000000001
0.4
0.3999999998
0.399999999
0.3999999958
0.3999999837
0.3999999401
0.399999787
0.3999992762
0.3999976849
0.3999931869
0.3999821444
0.4000000001
0.4000000001
0.4000000001
0.4000000001
0.3999999999
0.3999999993
0.3999999972
0.3999999897
0.399999964
0.3999998788
0.3999996121
0.3999988333
0.3999967635
0.3999919209
0.4000000001
0.4000000001
0.4000000001
0.4000000001
0.3999999999
0.3999999995
0.399999998
0.3999999929
0.3999999762
0.3999999239
0.3999997687
0.3999993399
0.3999982562
0.3999958085
0.3999909875
0.4000000001
0.4000000001
0.4000000001
0.4000000001
0.4
0.3999999996
0.3999999985
0.3999999949
0.3999999834
0.3999999487
0.39999985
0.3999995881
0.3999989482
0.3999975339
0.4000000001
0.4000000001
0.4000000001
0.4000000001
0.3999999999
0.3999999995
0.399999998
0.3999999929
0.3999999762
0.3999999239
0.3999997687
0.3999993399
0.3999982562
0.3999958085
0.4000000001
0.4000000001
0.4000000001
0.4
0.3999999999
0.3999999993
0.3999999971
0.3999999894
0.399999963
0.3999998763
0.3999996071
0.3999988276
0.3999967738
0.3999919984
0.4000000001
0.4000000001
0.4000000001
0.4
0.3999999998
0.3999999991
0.3999999962
0.3999999856
0.3999999481
0.3999998203
0.3999994062
0.3999981537
0.399994708
0.3999864179
0.4000000001
0.4000000001
0.4000000001
0.4
0.3999999998
0.399999999
0.3999999957
0.3999999838
0.3999999407
0.399999791
0.399999294
0.3999977467
0.3999933497
0.3999824343
0.4000000001
0.4000000001
0.4000000001
0.4
0.3999999998
0.3999999991
0.3999999962
0.3999999856
0.3999999481
0.3999998203
0.3999994062
0.3999981537
0.399994708
0.399986418
0.4000000001
0.4000000001
0.4000000001
0.4
0.3999999999
0.3999999993
0.3999999971
0.3999999894
0.399999963
0.3999998763
0.3999996071
0.3999988276
0.3999967738
0.3999919984
0.4000000001
0.4000000001
0.4000000001
0.4000000001
0.3999999999
0.3999999995
0.399999998
0.3999999929
0.3999999762
0.3999999239
0.3999997687
0.3999993399
0.3999982562
0.3999958084
0.4000000001
0.4000000001
0.4000000001
0.4000000001
0.4
0.3999999996
0.3999999985
0.3999999949
0.3999999834
0.3999999487
0.39999985
0.3999995881
0.3999989482
0.3999975338
)
;

boundaryField
{
    top
    {
        type            zeroGradient;
    }
    bottom
    {
        type            zeroGradient;
    }
    side-walls
    {
        type            zeroGradient;
    }
    inlet
    {
        type            zeroGradient;
    }
    outlet
    {
        type            zeroGradient;
    }
    procBoundary0to1
    {
        type            processor;
        value           nonuniform List<scalar> 
97
(
0.3999898966
0.3999909873
0.3999828269
0.399967214
0.3999443431
0.3999280105
0.3999443437
0.3999672148
0.3999828275
0.3999898972
0.3999909873
0.3999909873
0.3999668953
0.3999600877
0.3999268243
0.399855632
0.399788451
0.3998556339
0.3999268264
0.3999668968
0.3999828275
0.3999825689
0.3999600877
0.3999600877
0.3998085121
0.3997243875
0.3995454934
0.3992010072
0.3995455018
0.3998085192
0.3999268264
0.3999672147
0.3999699279
0.3999186135
0.3997243875
0.3997243875
0.3986443716
0.3971940363
0.3968767392
0.3986444045
0.3995455019
0.3998556339
0.3999443437
0.3999604403
0.3998752971
0.3994598103
0.3971940363
0.3971940363
0.3892473632
0.3971940408
0.3968767429
0.3990586506
0.3992010086
0.3997884517
0.3999280108
0.3999699283
0.3999186154
0.3997243992
0.3990586557
0.3971940408
0.3990586506
0.3990586506
0.3995454941
0.3998913146
0.3998556319
0.3999443432
0.3999825694
0.3999600898
0.3998913179
0.3997243998
0.3994598129
0.3997244009
0.3998913146
0.3998913146
0.3999268243
0.3999823505
0.399967214
0.3999909879
0.3999823512
0.3999600899
0.3999186156
0.3998752982
0.3999186161
0.3999600896
0.3999823505
0.3999823505
0.399982827
0.3999947487
0.3999947489
0.3999909879
0.3999825695
0.3999699285
0.3999604408
0.3999699286
0.3999825695
0.3999909877
0.3999947487
)
;
    }
}


// ************************************************************************* //
