/*--------------------------------*- C++ -*----------------------------------*\
| =========                 |                                                 |
| \\      /  F ield         | OpenFOAM: The Open Source CFD Toolbox           |
|  \\    /   O peration     | Version:  4.x                                   |
|   \\  /    A nd           | Web:      www.OpenFOAM.org                      |
|    \\/     M anipulation  |                                                 |
\*---------------------------------------------------------------------------*/
FoamFile
{
    version     2.0;
    format      ascii;
    class       volScalarField;
    location    "1000";
    object      CO2;
}
// * * * * * * * * * * * * * * * * * * * * * * * * * * * * * * * * * * * * * //

dimensions      [0 0 0 0 0 0 0];

internalField   nonuniform List<scalar> 
1175
(
3.299004407e-10
3.317131383e-10
3.403261757e-10
3.7357465e-10
4.938908742e-10
9.142577914e-10
2.33894936e-09
7.01024305e-09
2.174321302e-08
6.609265931e-08
1.922552539e-07
5.272930445e-07
1.345720934e-06
3.154621985e-06
6.716938988e-06
3.312121403e-10
3.333792034e-10
3.438143826e-10
3.84909715e-10
5.373732237e-10
1.085640979e-09
3.004753606e-09
9.524091772e-09
3.088693842e-08
9.784151551e-08
2.963158933e-07
8.447020354e-07
2.230669559e-06
5.361253598e-06
1.152712367e-05
3.332544872e-10
3.359979706e-10
3.494219618e-10
4.03557284e-10
6.103395842e-10
1.379097259e-09
4.170945411e-09
1.404336962e-08
4.782116898e-08
1.586384866e-07
5.030116686e-07
1.499849176e-06
4.126527446e-06
1.023395373e-05
2.229394815e-05
3.350850588e-10
3.383732365e-10
3.54653189e-10
4.214601869e-10
6.821815408e-10
1.675748817e-09
5.386005612e-09
1.892129738e-08
6.686558553e-08
2.303072248e-07
7.598700583e-07
2.361753069e-06
6.768462627e-06
1.737081748e-05
3.8461277e-05
3.358175904e-10
3.393325061e-10
3.568124145e-10
4.290208851e-10
7.131827582e-10
1.806894273e-09
5.93926579e-09
2.122541665e-08
7.62797186e-08
2.677622817e-07
9.033793171e-07
2.882182638e-06
8.505584739e-06
2.24654952e-05
5.059554055e-05
3.350844581e-10
3.383726197e-10
3.546524816e-10
4.214590587e-10
6.82178603e-10
1.675738344e-09
5.385964853e-09
1.892113649e-08
6.686495937e-08
2.303048605e-07
7.598615467e-07
2.361724518e-06
6.768375144e-06
1.737058938e-05
3.846080208e-05
3.332532861e-10
3.359967571e-10
3.494206466e-10
4.035554046e-10
6.103352138e-10
1.379082645e-09
4.17089055e-09
1.404315816e-08
4.782036362e-08
1.586355226e-07
5.030012084e-07
1.499814431e-06
4.126422184e-06
1.023367694e-05
2.22933526e-05
3.31210308e-10
3.3337742e-10
3.438126591e-10
3.849076157e-10
5.373689525e-10
1.085627412e-09
3.004703199e-09
9.523899545e-09
3.088622108e-08
9.783891914e-08
2.963068476e-07
8.446722198e-07
2.230578974e-06
5.361010038e-06
1.152658237e-05
3.298979514e-10
3.317107986e-10
3.403242187e-10
3.735726154e-10
4.938871298e-10
9.142460537e-10
2.338905651e-09
7.0100777e-09
2.174260334e-08
6.609047909e-08
1.922477616e-07
5.272686368e-07
1.345646432e-06
3.154413984e-06
6.716439491e-06
3.312122452e-10
3.333793184e-10
3.438145498e-10
3.849101081e-10
5.373745665e-10
1.085646116e-09
3.004774037e-09
9.524172141e-09
3.088724946e-08
9.784270517e-08
2.963203453e-07
8.447187171e-07
2.230733185e-06
5.361512772e-06
3.326882196e-10
3.353211568e-10
3.482039087e-10
4.001704966e-10
5.988579058e-10
1.338935627e-09
4.03491461e-09
1.361022022e-08
4.65606078e-08
1.554322137e-07
4.965443398e-07
1.492681358e-06
4.13977753e-06
1.033328842e-05
2.257414203e-05
3.349943929e-10
3.383931845e-10
3.553434598e-10
4.256790284e-10
7.041480101e-10
1.783949647e-09
5.898876992e-09
2.126178031e-08
7.710154652e-08
2.728683267e-07
9.261281063e-07
2.961345738e-06
8.714012094e-06
2.283674378e-05
5.104577045e-05
3.370705506e-10
3.412030653e-10
3.621067083e-10
4.506875453e-10
8.106557252e-10
2.249688202e-09
7.928936554e-09
2.9998041e-08
1.139649953e-07
4.240725305e-07
1.521521519e-06
5.170145072e-06
1.621167099e-05
4.504622215e-05
0.0001040896308
3.379041987e-10
3.423456796e-10
3.649350694e-10
4.614492468e-10
8.578026486e-10
2.462806527e-09
8.897227629e-09
3.438903383e-08
1.337495566e-07
5.120779031e-07
1.903863029e-06
6.763248037e-06
2.238013664e-05
6.599204967e-05
0.0001594902598
3.370699749e-10
3.412024773e-10
3.621060413e-10
4.506864765e-10
8.106527334e-10
2.249676345e-09
7.928883676e-09
2.999780335e-08
1.139639326e-07
4.240679179e-07
1.521502258e-06
5.170069788e-06
1.621140031e-05
4.504539707e-05
0.000104087715
3.349932573e-10
3.383920533e-10
3.55342281e-10
4.256774496e-10
7.041443417e-10
1.783936191e-09
5.898819e-09
2.126152427e-08
7.71004283e-08
2.72863558e-07
9.261085863e-07
2.961270252e-06
8.713743408e-06
2.283591721e-05
5.104378555e-05
3.326865069e-10
3.353195377e-10
3.482024068e-10
4.00168766e-10
5.988543464e-10
1.338923183e-09
4.034862873e-09
1.360999925e-08
4.655968365e-08
1.554284387e-07
4.965295155e-07
1.492625631e-06
4.139581403e-06
1.033266484e-05
2.257246576e-05
3.312099288e-10
3.33377271e-10
3.43812918e-10
3.849083985e-10
5.373709419e-10
1.085633113e-09
3.004721208e-09
9.523958143e-09
3.08864062e-08
9.783947616e-08
2.963084469e-07
8.446763894e-07
2.230588735e-06
5.361029874e-06
1.152661386e-05
3.332547901e-10
3.359983047e-10
3.494224584e-10
4.035584917e-10
6.103437901e-10
1.379113727e-09
4.171011912e-09
1.404363566e-08
4.782221513e-08
1.586425168e-07
5.030267291e-07
1.499903636e-06
4.126715698e-06
1.023455493e-05
3.349945997e-10
3.383934239e-10
3.553438613e-10
4.256801352e-10
7.041520531e-10
1.783965787e-09
5.898942918e-09
2.126204962e-08
7.710263335e-08
2.728726807e-07
9.261453937e-07
2.961414266e-06
8.714287723e-06
2.283791409e-05
3.377259126e-10
3.422154186e-10
3.651154171e-10
4.633522893e-10
8.685748228e-10
2.51627479e-09
9.141480295e-09
3.540702388e-08
1.374631384e-07
5.225847255e-07
1.915001878e-06
6.639746406e-06
2.119964169e-05
5.974649383e-05
0.0001390095529
3.401997554e-10
3.457510567e-10
3.745488458e-10
5.012052679e-10
1.040147771e-09
3.31347801e-09
1.285331273e-08
5.260116142e-08
2.162512238e-07
8.76936313e-07
3.460662005e-06
1.305605576e-05
4.576565432e-05
0.000141769663
0.0003524920859
3.411978246e-10
3.472023988e-10
3.785596613e-10
5.178686736e-10
1.118445063e-09
3.693500361e-09
1.472336754e-08
6.189458849e-08
2.627727062e-07
1.110397685e-06
4.624427905e-06
1.872242648e-05
7.189589165e-05
0.0002491055098
0.0006908816642
3.401992015e-10
3.457504727e-10
3.745480927e-10
5.0120367e-10
1.040142088e-09
3.313452799e-09
1.285319442e-08
5.260059509e-08
2.162485329e-07
8.769236465e-07
3.460603568e-06
1.305579705e-05
4.576458033e-05
0.0001417657518
0.000352481395
3.377248539e-10
3.422143723e-10
3.651143465e-10
4.633508442e-10
8.685710401e-10
2.51625828e-09
9.141398334e-09
3.540661418e-08
1.37461123e-07
5.225750417e-07
1.914956705e-06
6.639545322e-06
2.119880397e-05
5.974338704e-05
0.0001390002264
3.349930085e-10
3.383919193e-10
3.553424283e-10
4.256782347e-10
7.041471278e-10
1.783946137e-09
5.898855634e-09
2.126165885e-08
7.7100912e-08
2.7286522e-07
9.261139507e-07
2.961285841e-06
8.713783535e-06
2.283600111e-05
5.104388399e-05
3.332526628e-10
3.359964529e-10
3.494210221e-10
4.035569053e-10
6.103397708e-10
1.379097396e-09
4.170940635e-09
1.404332966e-08
4.782093432e-08
1.586373233e-07
5.030065391e-07
1.499828759e-06
4.126456299e-06
1.023374628e-05
2.229344778e-05
3.350856205e-10
3.383738573e-10
3.546541174e-10
4.214624626e-10
6.82189526e-10
1.675780543e-09
5.386135381e-09
1.892182428e-08
6.686769626e-08
2.303154594e-07
7.599010884e-07
2.361864706e-06
6.768835766e-06
1.737191606e-05
3.370710174e-10
3.412035956e-10
3.621075647e-10
4.506898498e-10
8.106643204e-10
2.249723881e-09
7.929088922e-09
2.999869521e-08
1.139677854e-07
4.240843983e-07
1.521571013e-06
5.170347135e-06
1.621245621e-05
4.504898908e-05
3.40200019e-10
3.45751349e-10
3.745493012e-10
5.012064999e-10
1.040152671e-09
3.313500393e-09
1.285341865e-08
5.260167598e-08
2.162537335e-07
8.769487046e-07
3.460723035e-06
1.305635788e-05
4.576714773e-05
0.0001417771657
3.430483296e-10
3.499982259e-10
3.867455842e-10
5.529924422e-10
1.285929221e-09
4.511592979e-09
1.874662836e-08
8.171452381e-08
3.601709612e-07
1.584894846e-06
6.893235724e-06
2.919383021e-05
0.0001171996171
0.0004226131855
0.001204013442
3.442021597e-10
3.517558745e-10
3.92004919e-10
5.762461425e-10
1.40122432e-09
5.105110949e-09
2.187871933e-08
9.865186177e-08
4.540854592e-07
2.118087748e-06
9.97635884e-06
4.713945292e-05
0.000219923155
0.0009726240887
0.00358873566
3.430478006e-10
3.499976461e-10
3.867447282e-10
5.529902299e-10
1.285920434e-09
4.511551484e-09
1.874642673e-08
8.17135124e-08
3.601658144e-07
1.584868127e-06
6.893096151e-06
2.91931042e-05
0.0001171959251
0.0004225957791
0.001203946689
3.401990269e-10
3.457503666e-10
3.74548273e-10
5.012049637e-10
1.040147935e-09
3.313477518e-09
1.285329758e-08
5.260102561e-08
2.162502875e-07
8.769306075e-07
3.460630409e-06
1.305589282e-05
4.576488353e-05
0.0001417665134
0.0003524822665
3.370695357e-10
3.412022021e-10
3.621062431e-10
4.506880176e-10
8.106590302e-10
2.249700768e-09
7.928979059e-09
2.999817015e-08
1.139653201e-07
4.240729669e-07
1.521519642e-06
5.170125103e-06
1.621155404e-05
4.504573836e-05
0.0001040880767
3.350836352e-10
3.383721539e-10
3.546528502e-10
4.214610887e-10
6.821856839e-10
1.675763248e-09
5.386054411e-09
1.892145587e-08
6.686606752e-08
2.303085333e-07
7.598729703e-07
2.361756877e-06
6.768456568e-06
1.737075754e-05
3.84610071e-05
3.358184293e-10
3.393334305e-10
3.568137807e-10
4.290241883e-10
7.131942074e-10
1.806939701e-09
5.939451221e-09
2.122616898e-08
7.628272958e-08
2.677739994e-07
9.034233407e-07
2.882339551e-06
8.506099248e-06
2.24669525e-05
3.379049354e-10
3.423464852e-10
3.649362543e-10
4.614521972e-10
8.578135613e-10
2.462853117e-09
8.897434122e-09
3.438995809e-08
1.337536711e-07
5.12096063e-07
1.903941622e-06
6.763576094e-06
2.238141165e-05
6.599628802e-05
3.411983873e-10
3.472030353e-10
3.785607063e-10
5.178716803e-10
1.118457375e-09
3.693557165e-09
1.472363983e-08
6.189591635e-08
2.627792603e-07
1.110430356e-06
4.62459168e-06
1.872324207e-05
7.189980358e-05
0.0002491222809
3.442024644e-10
3.517562253e-10
3.92005537e-10
5.762481265e-10
1.401233099e-09
5.105154571e-09
2.187894501e-08
9.865306247e-08
4.540920795e-07
2.118125782e-06
9.976586789e-06
4.714088439e-05
0.0002199326234
0.0009726897068
3.454214847e-10
3.536475741e-10
3.978422487e-10
6.027292574e-10
1.535940673e-09
5.821031274e-09
2.582030119e-08
1.212278291e-07
5.894451064e-07
2.972447508e-06
1.567467813e-05
8.735172467e-05
0.0005197806958
0.003327457568
0.02310342288
3.442019841e-10
3.517557258e-10
3.920049123e-10
5.762467864e-10
1.401227843e-09
5.105127603e-09
2.187879674e-08
9.865222989e-08
4.540872219e-07
2.118096142e-06
9.976400391e-06
4.713965001e-05
0.0002199240444
0.0009726277123
0.003588743104
3.411974602e-10
3.472021168e-10
3.785597369e-10
5.178701756e-10
1.118452492e-09
3.693533005e-09
1.472351054e-08
6.189520703e-08
2.627753844e-07
1.110409087e-06
4.624475713e-06
1.872261889e-05
7.189658373e-05
0.0002491074246
0.0006908837893
3.379035484e-10
3.423451871e-10
3.649350317e-10
4.614504605e-10
8.578083333e-10
2.462829795e-09
8.897321483e-09
3.438941417e-08
1.33751059e-07
5.120836869e-07
1.903884171e-06
6.763321225e-06
2.238035726e-05
6.599256878e-05
0.000159490715
3.358165464e-10
3.393318113e-10
3.568125212e-10
4.290225201e-10
7.131889308e-10
1.806916603e-09
5.939347836e-09
2.122571587e-08
7.628078575e-08
2.677659045e-07
9.03390974e-07
2.882216994e-06
8.505673145e-06
2.246567692e-05
5.059568378e-05
3.350855597e-10
3.383738295e-10
3.546542432e-10
4.21463192e-10
6.821925174e-10
1.675791937e-09
5.386177156e-09
1.892197181e-08
6.686818032e-08
2.303169258e-07
7.599048087e-07
2.361870669e-06
6.768827679e-06
1.737179234e-05
3.370709909e-10
3.412036062e-10
3.621077573e-10
4.506908032e-10
8.10668315e-10
2.249740122e-09
7.929153843e-09
2.999894841e-08
1.139687514e-07
4.240878115e-07
1.52158168e-06
5.170371588e-06
1.621245181e-05
4.504848501e-05
3.402000511e-10
3.457514396e-10
3.745496889e-10
5.012082018e-10
1.040160036e-09
3.313532331e-09
1.285355842e-08
5.260228131e-08
2.162563418e-07
8.769595749e-07
3.460766058e-06
1.305650363e-05
4.576743242e-05
0.0001417753862
3.430484034e-10
3.499983483e-10
3.867459809e-10
5.529941802e-10
1.285937345e-09
4.511632045e-09
1.874682177e-08
8.171548903e-08
3.60175829e-07
1.584919468e-06
6.893360633e-06
2.919445764e-05
0.000117202563
0.000422623887
3.442022911e-10
3.517560945e-10
3.920056223e-10
5.762492003e-10
1.401238639e-09
5.105180469e-09
2.187906543e-08
9.865362604e-08
4.54094695e-07
2.118137782e-06
9.976640812e-06
4.714111283e-05
0.0002199334107
0.0009726907117
3.430479599e-10
3.49997894e-10
3.867454471e-10
5.529931779e-10
1.28593382e-09
4.511615137e-09
1.874673299e-08
8.171502989e-08
3.601734324e-07
1.58490693e-06
6.893297105e-06
2.919414903e-05
0.0001172013069
0.0004226218078
3.401991769e-10
3.457505541e-10
3.745486733e-10
5.012063913e-10
1.040154193e-09
3.313506934e-09
1.285343937e-08
5.260171015e-08
2.162536155e-07
8.769467127e-07
3.46070686e-06
1.30562469e-05
4.576642404e-05
0.0001417721317
0.0003524998361
3.370696968e-10
3.41202399e-10
3.621066245e-10
4.506892125e-10
8.106637559e-10
2.249720897e-09
7.929066073e-09
2.99985493e-08
1.13966947e-07
4.240798682e-07
1.521548187e-06
5.17023749e-06
1.621196595e-05
4.504703912e-05
0.0001040909904
3.350837995e-10
3.383723429e-10
3.546531633e-10
4.214619221e-10
6.821886524e-10
1.675775078e-09
5.386102548e-09
1.892165092e-08
6.686684293e-08
2.303115219e-07
7.598840511e-07
2.361795608e-06
6.768579008e-06
1.737109164e-05
3.846165534e-05
3.332545834e-10
3.359981619e-10
3.494225897e-10
4.035596074e-10
6.103484617e-10
1.379131392e-09
4.171075769e-09
1.40438571e-08
4.782293798e-08
1.586446695e-07
5.030322131e-07
1.499913124e-06
4.126709779e-06
1.023440068e-05
3.349944784e-10
3.383933917e-10
3.55344217e-10
4.256819763e-10
7.041596434e-10
1.783995806e-09
5.899058978e-09
2.126248698e-08
7.710423231e-08
2.728781645e-07
9.261624179e-07
2.961457498e-06
8.714339123e-06
2.283751535e-05
3.377259154e-10
3.422155553e-10
3.651161674e-10
4.633555599e-10
8.685884621e-10
2.516331361e-09
9.141714544e-09
3.540798412e-08
1.374670016e-07
5.225997647e-07
1.915057559e-06
6.639934808e-06
2.12001815e-05
5.974741644e-05
3.40199845e-10
3.457512762e-10
3.745496931e-10
5.012088333e-10
1.040163219e-09
3.313546168e-09
1.285361688e-08
5.260252812e-08
2.162573539e-07
8.769635632e-07
3.460781252e-06
1.305655737e-05
4.576758414e-05
0.0001417754468
3.411979971e-10
3.47202717e-10
3.785607037e-10
5.178729502e-10
1.118463982e-09
3.693586556e-09
1.472376828e-08
6.189647266e-08
2.627816559e-07
1.110440345e-06
4.624632388e-06
1.872339575e-05
7.190027427e-05
0.000249122158
3.401994246e-10
3.457508276e-10
3.745490939e-10
5.012075264e-10
1.040158731e-09
3.313527661e-09
1.285353698e-08
5.260217835e-08
2.162558437e-07
8.769572387e-07
3.460755479e-06
1.30564603e-05
4.576728043e-05
0.0001417747214
3.377251038e-10
3.422147265e-10
3.65115191e-10
4.633537603e-10
8.685829159e-10
2.5163093e-09
9.141621444e-09
3.540759211e-08
1.374653681e-07
5.225932234e-07
1.915032907e-06
6.639854623e-06
2.120000624e-05
5.974776249e-05
3.349932993e-10
3.383923095e-10
3.553432576e-10
4.256807968e-10
7.041566637e-10
1.783984076e-09
5.89900865e-09
2.12622737e-08
7.71033422e-08
2.728746484e-07
9.261493782e-07
2.96141394e-06
8.714218999e-06
2.283730061e-05
5.104718825e-05
3.332529673e-10
3.359968263e-10
3.494216844e-10
4.035586459e-10
6.103456615e-10
1.379119514e-09
4.171025859e-09
1.404365525e-08
4.782215552e-08
1.586417689e-07
5.030220778e-07
1.499880256e-06
4.126613298e-06
1.02341664e-05
2.229428975e-05
3.312117232e-10
3.333789293e-10
3.43814631e-10
3.84911475e-10
5.373801263e-10
1.085666104e-09
3.004843287e-09
9.524403833e-09
3.08879853e-08
9.784485832e-08
2.963258951e-07
8.447295357e-07
2.230737435e-06
5.361390888e-06
3.326878494e-10
3.353209819e-10
3.482043609e-10
4.001728566e-10
5.988669753e-10
1.338969228e-09
4.035037691e-09
1.361066058e-08
4.656213077e-08
1.554372017e-07
4.965595054e-07
1.492722282e-06
4.139866393e-06
1.033338222e-05
3.349942012e-10
3.383932197e-10
3.553442818e-10
4.256824932e-10
7.041614738e-10
1.784002209e-09
5.89908253e-09
2.126257441e-08
7.710453881e-08
2.728791903e-07
9.261656004e-07
2.96146596e-06
8.714356391e-06
2.283751996e-05
3.370705033e-10
3.412032655e-10
3.621078117e-10
4.506918699e-10
8.106728496e-10
2.2497581e-09
7.929223929e-09
2.999921952e-08
1.139697615e-07
4.240913947e-07
1.52159352e-06
5.170405914e-06
1.621253097e-05
4.504850087e-05
3.379042507e-10
3.423459635e-10
3.649362038e-10
4.614534551e-10
8.578194363e-10
2.462876928e-09
8.897528672e-09
3.439032684e-08
1.337550824e-07
5.121012085e-07
1.903959015e-06
6.763627902e-06
2.238152306e-05
6.599610703e-05
3.370701218e-10
3.412028675e-10
3.621073259e-10
4.506909739e-10
8.106701848e-10
2.249747865e-09
7.929182343e-09
2.999904933e-08
1.139690901e-07
4.240888098e-07
1.52158413e-06
5.170374639e-06
1.621243696e-05
4.50482261e-05
3.349934704e-10
3.383924853e-10
3.553434701e-10
4.256811987e-10
7.041579932e-10
1.783989719e-09
5.899033882e-09
2.12623845e-08
7.710382282e-08
2.728766389e-07
9.261572284e-07
2.961442957e-06
8.71431606e-06
2.283754143e-05
3.326867897e-10
3.353200037e-10
3.482034432e-10
4.001715221e-10
5.988633609e-10
1.338956251e-09
4.034989535e-09
1.361048371e-08
4.656150629e-08
1.554351243e-07
4.96553245e-07
1.492706923e-06
4.13984913e-06
1.033351825e-05
3.312103004e-10
3.333778132e-10
3.438139511e-10
3.849107877e-10
5.373779753e-10
1.08565714e-09
3.004808174e-09
9.524273963e-09
3.088753234e-08
9.784337707e-08
2.9632145e-07
8.447179287e-07
2.230713794e-06
5.361367905e-06
1.15273974e-05
3.298994128e-10
3.317123378e-10
3.403261389e-10
3.735760673e-10
4.93896373e-10
9.142765076e-10
2.339011629e-09
7.010444658e-09
2.174383689e-08
6.609446568e-08
1.922599974e-07
5.273038251e-07
1.345739715e-06
3.154631637e-06
3.312113235e-10
3.333787535e-10
3.438148344e-10
3.849120895e-10
5.373815066e-10
1.085669693e-09
3.004853955e-09
9.524436649e-09
3.08880855e-08
9.784514491e-08
2.963266485e-07
8.447313233e-07
2.230741132e-06
5.36139444e-06
3.332539082e-10
3.359977868e-10
3.494228054e-10
4.035606001e-10
6.103511957e-10
1.379139478e-09
4.171101786e-09
1.404394285e-08
4.782321212e-08
1.586454938e-07
5.030344697e-07
1.499918315e-06
4.126718702e-06
1.023439676e-05
3.350846639e-10
3.383732595e-10
3.546543604e-10
4.214643871e-10
6.821965297e-10
1.675805408e-09
5.386223987e-09
1.892213544e-08
6.686873532e-08
2.303186685e-07
7.599097384e-07
2.361882523e-06
6.768846917e-06
1.737176231e-05
3.35817329e-10
3.393326662e-10
3.568137521e-10
4.290254176e-10
7.13198907e-10
1.80695622e-09
5.939509667e-09
2.122637547e-08
7.628342962e-08
2.677761941e-07
9.034294572e-07
2.88235313e-06
8.506113332e-06
2.246683242e-05
3.350843202e-10
3.383729182e-10
3.54654018e-10
4.214639934e-10
6.821958241e-10
1.675803197e-09
5.386215362e-09
1.892209966e-08
6.686859081e-08
2.303181126e-07
7.599077573e-07
2.361875856e-06
6.768826658e-06
1.737169369e-05
3.332532456e-10
3.359971332e-10
3.494221354e-10
4.035597101e-10
6.103492506e-10
1.379133219e-09
4.171079314e-09
1.404386092e-08
4.782292492e-08
1.586445596e-07
5.030317103e-07
1.49991152e-06
4.126706564e-06
1.02343812e-05
3.312103987e-10
3.333779218e-10
3.438141103e-10
3.849111594e-10
5.373791963e-10
1.085661732e-09
3.004825568e-09
9.524338705e-09
3.088776686e-08
9.784419305e-08
2.963241534e-07
8.44726476e-07
2.230739092e-06
5.361428773e-06
3.298982463e-10
3.31711529e-10
3.403257297e-10
3.735757966e-10
4.938954035e-10
9.142718979e-10
2.338993404e-09
7.01038059e-09
2.174363109e-08
6.60938735e-08
1.922586054e-07
5.273019836e-07
1.345745437e-06
3.154697262e-06
)
;

boundaryField
{
    top
    {
        type            zeroGradient;
    }
    bottom
    {
        type            zeroGradient;
    }
    side-walls
    {
        type            zeroGradient;
    }
    inlet
    {
        type            zeroGradient;
    }
    outlet
    {
        type            zeroGradient;
    }
    procBoundary0to1
    {
        type            processor;
        value           nonuniform List<scalar> 
97
(
1.292257081e-05
1.152755056e-05
2.196467694e-05
4.193336663e-05
7.118495953e-05
9.207419536e-05
7.118422583e-05
4.193241081e-05
2.196383679e-05
1.292188711e-05
1.152755056e-05
1.152755056e-05
4.234103873e-05
5.104785677e-05
9.359139031e-05
0.0001846455532
0.0002705692956
0.0001846430771
9.358867631e-05
4.233910528e-05
2.196386932e-05
2.229463011e-05
5.104785677e-05
5.104785677e-05
0.0002449113783
0.0003525056841
0.0005813092871
0.001021903154
0.000581298456
0.0002449021827
9.358870657e-05
4.193247079e-05
3.846238091e-05
0.0001040929155
0.0003525056841
0.0003525056841
0.001733833885
0.003588796217
0.003994615675
0.001733791702
0.0005812983759
0.0001846430162
7.118427129e-05
5.059683373e-05
0.0001594941162
0.0006908969657
0.003588796217
0.003588796217
0.01375250104
0.003588790522
0.003994610874
0.001203975645
0.001021901383
0.0002705684038
9.207386314e-05
3.846185107e-05
0.0001040905032
0.0003524907456
0.001203969163
0.003588790522
0.001203975645
0.001203975645
0.0005813083032
0.0001390078048
0.0001846455952
7.118494124e-05
2.229395327e-05
5.104511993e-05
0.0001390036823
0.0003524900152
0.0006908936616
0.0003524885779
0.0001390078048
0.0001390078048
9.359133459e-05
2.257391992e-05
4.193340082e-05
1.152688535e-05
2.257302215e-05
5.104504977e-05
0.000104090136
0.0001594926899
0.0001040895772
5.10454716e-05
2.257391992e-05
2.257391992e-05
2.196459752e-05
6.716875733e-06
6.716601221e-06
1.152687807e-05
2.22938828e-05
3.84616062e-05
5.059621489e-05
3.846146156e-05
2.22939063e-05
1.152704198e-05
6.716875733e-06
)
;
    }
}


// ************************************************************************* //
