/*--------------------------------*- C++ -*----------------------------------*\
| =========                 |                                                 |
| \\      /  F ield         | OpenFOAM: The Open Source CFD Toolbox           |
|  \\    /   O peration     | Version:  4.x                                   |
|   \\  /    A nd           | Web:      www.OpenFOAM.org                      |
|    \\/     M anipulation  |                                                 |
\*---------------------------------------------------------------------------*/
FoamFile
{
    version     2.0;
    format      ascii;
    class       volScalarField;
    location    "1000";
    object      molarConc;
}
// * * * * * * * * * * * * * * * * * * * * * * * * * * * * * * * * * * * * * //

dimensions      [0 -3 0 0 1 0 0];

internalField   nonuniform List<scalar> 
1175
(
9.963269518
9.963269868
9.963270305
9.963269815
9.963269684
9.963268435
9.96326857
9.96326881
9.963269019
9.963268476
9.9632674
9.963267798
9.963266889
9.963267772
9.963268308
9.96325897
9.963259633
9.963259944
9.963260055
9.963259436
9.963259559
9.963259855
9.963260645
9.963260263
9.963260638
9.963259985
9.963259596
9.963258835
9.963259242
9.963259651
9.963256137
9.963256775
9.963256547
9.963256379
9.963257456
9.963257121
9.963258069
9.963257472
9.963258033
9.963257011
9.963258836
9.963259774
9.963259718
9.963259909
9.963261113
9.963279889
9.963280316
9.963279012
9.963277603
9.963276984
9.963276285
9.963275873
9.963276647
9.963276524
9.96327622
9.963277077
9.963277219
9.963277879
9.963278723
9.963279113
9.963275179
9.963275369
9.963275041
9.96327498
9.963275135
9.963274937
9.963275578
9.963274687
9.963274045
9.963275161
9.963275637
9.963275273
9.963274232
9.963273153
9.963272983
9.963288171
9.96328852
9.963288409
9.963289583
9.963289926
9.96329073
9.96329
9.963290883
9.963290156
9.963289935
9.963289876
9.963288943
9.96328902
9.963291065
9.963289981
9.963281003
9.963282504
9.963281379
9.963281251
9.963280998
9.963281574
9.963281858
9.963280549
9.963280412
9.963280746
9.963280878
9.963280977
9.963279626
9.963279246
9.963279483
9.963279457
9.963280202
9.963279835
9.963278888
9.963279341
9.963279972
9.963281291
9.963280511
9.963280821
9.963283296
9.963282271
9.963281977
9.963283419
9.963282584
9.963282471
9.963276534
9.963276567
9.963275383
9.963276368
9.963275319
9.963276297
9.963276342
9.963275481
9.963275119
9.963273971
9.963275875
9.96327488
9.963275737
9.963276427
9.96327654
9.96326221
9.963262348
9.963261676
9.963263008
9.963262491
9.963262105
9.963261907
9.96326205
9.963262003
9.963262379
9.963264219
9.96326422
9.963263852
9.963264336
9.963287897
9.963288758
9.963288539
9.96328914
9.963288102
9.963288111
9.963288236
9.96328866
9.963289222
9.963289223
9.963287858
9.963288063
9.963288904
9.96328778
9.963286728
9.963286813
9.963287569
9.963287422
9.963287484
9.963288183
9.963288113
9.963287758
9.963287803
9.963288039
9.963288849
9.963287983
9.963286655
9.963286265
9.963285032
9.963285265
9.963289378
9.963288426
9.963289631
9.963289299
9.963289694
9.96329013
9.963289534
9.963288262
9.963287914
9.963287882
9.963288982
9.963287841
9.963288039
9.963288422
9.963287914
9.963253458
9.963253029
9.96325319
9.963254137
9.963253167
9.963251596
9.96325233
9.963252496
9.963252583
9.963253362
9.963252581
9.963252019
9.963252208
9.96325282
9.963251291
9.963286192
9.963285754
9.963285943
9.963286754
9.963286232
9.96328547
9.963284002
9.963284705
9.9632849
9.963285599
9.963286284
9.963287929
9.963287379
9.96328779
9.963289243
9.963287014
9.963287714
9.963287389
9.96328755
9.963287055
9.96328573
9.963284448
9.963285387
9.963286523
9.963286294
9.963285826
9.963286296
9.963287126
9.96328573
9.963285893
9.96326793
9.96326771
9.963268367
9.963268417
9.963267442
9.963268193
9.963267673
9.96326766
9.963266111
9.963266246
9.963266616
9.963267116
9.963266116
9.963267193
9.963268625
9.963273692
9.963273987
9.963274023
9.963273832
9.963272766
9.963273845
9.963273901
9.963275283
9.963276518
9.963276475
9.963276414
9.963275337
9.963275122
9.963275935
9.96327516
9.96326817
9.963266966
9.96326536
9.963265451
9.963265711
9.963264968
9.96326443
9.963265649
9.963265856
9.963267476
9.963267067
9.963268695
9.963267821
9.963267978
9.963267613
9.963268484
9.963269361
9.963269325
9.963268144
9.963269587
9.963269626
9.963269527
9.963271174
9.963271978
9.963271331
9.96327162
9.96327375
9.963274161
9.963295076
9.96329556
9.963294191
9.963294074
9.963295222
9.963295262
9.963294132
9.96329505
9.963296634
9.963296873
9.963295083
9.963295187
9.963294536
9.963295599
9.963295419
9.963265323
9.963265452
9.963265799
9.963266398
9.963267061
9.963266285
9.963266288
9.963265432
9.963265705
9.963266957
9.963266917
9.96326647
9.963268574
9.96326803
9.963267181
9.963275778
9.963276496
9.96327744
9.963276458
9.963276338
9.96327644
9.963275718
9.963275394
9.963274816
9.963274479
9.963272783
9.963271926
9.963272198
9.963273124
9.963271569
9.963282816
9.963281424
9.963282264
9.963280924
9.963282193
9.963281762
9.963280331
9.963280639
9.963281516
9.96328151
9.963281025
9.963282268
9.963281948
9.963279782
9.9632775
9.963269115
9.96326913
9.963271402
9.963270766
9.963270878
9.963271292
9.963271372
9.963271598
9.963272079
9.963271243
9.963270945
9.963272248
9.963271996
9.96327229
9.963272075
9.963285076
9.963284474
9.96328476
9.963284562
9.963284677
9.963284491
9.96328435
9.963284017
9.963284297
9.963283734
9.963282918
9.963281393
9.96328079
9.963280876
9.963279629
9.963270395
9.963271007
9.963270279
9.963270935
9.963272197
9.963271706
9.963272296
9.963271476
9.963271218
9.963270917
9.963272175
9.963272496
9.963273088
9.96327316
9.963271587
9.963286012
9.963286715
9.963285916
9.963285178
9.963283468
9.96328486
9.963284168
9.963284369
9.963284413
9.963284986
9.963284626
9.963283663
9.963282799
9.96328336
9.963261825
9.963262528
9.963262975
9.963264607
9.963265332
9.963264698
9.963265766
9.963267046
9.963267036
9.963267355
9.963267752
9.963268408
9.963269244
9.963268566
9.963278166
9.963277906
9.963278083
9.963277438
9.963278847
9.963278571
9.963279684
9.963278807
9.963277873
9.963278286
9.963277959
9.963278207
9.963277243
9.963276389
9.963259017
9.9632582
9.96325766
9.9632583
9.963257733
9.963258221
9.963260703
9.963259359
9.963260086
9.963259013
9.963259324
9.963257797
9.963256269
9.96325544
9.963253829
9.963279597
9.963280423
9.963280916
9.963281126
9.963282933
9.963282867
9.963282959
9.963282631
9.963282328
9.96328263
9.963281886
9.963281014
9.963281196
9.963278025
9.963522362
9.963294992
9.963295181
9.963294652
9.9632927
9.963293526
9.963293266
9.963293024
9.963291254
9.963290752
9.963290658
9.963291804
9.963291157
9.963291249
9.963290008
9.963287136
9.963253872
9.963254833
9.963255674
9.963256626
9.963255663
9.963255858
9.963255828
9.963254874
9.963254403
9.963254561
9.963254221
9.96325557
9.963254549
9.963254032
9.96325335
9.963268527
9.963268727
9.963268958
9.96327013
9.963271242
9.963271231
9.96327128
9.963271923
9.963271303
9.963271448
9.963273628
9.963273398
9.963270808
9.963271651
9.963270421
9.963265506
9.96326568
9.963266635
9.963266367
9.963266364
9.963265397
9.963265644
9.963265653
9.963265974
9.963265282
9.96326455
9.963264701
9.963265763
9.963265629
9.963264751
9.963269194
9.963269583
9.963269873
9.963269121
9.963270035
9.963269903
9.963270045
9.963269218
9.963268961
9.963270455
9.963269756
9.963269795
9.963270317
9.963270415
9.963290613
9.963289319
9.963289956
9.963289374
9.963287769
9.963287255
9.963286633
9.963287032
9.963286058
9.963286315
9.963285893
9.963284886
9.96328381
9.96328358
9.963279078
9.963277907
9.963277761
9.963280161
9.963279702
9.963278844
9.963279122
9.963277979
9.963278374
9.963278479
9.963279482
9.963278409
9.963279235
9.963279872
9.963287415
9.963287345
9.963288749
9.963288045
9.963287803
9.963288097
9.963286756
9.963285268
9.963285723
9.963286534
9.963284921
9.963284734
9.963285537
9.963282332
9.963259568
9.963259466
9.963257392
9.963257787
9.963259644
9.963260309
9.963259182
9.96325903
9.963257943
9.963257773
9.963257829
9.963256755
9.963254589
9.963246889
10.09239914
9.963288139
9.963287502
9.963285604
9.963284645
9.963285137
9.963286202
9.963286383
9.963287076
9.963286785
9.963286767
9.963287141
9.96328687
9.963287178
9.963283824
9.963529374
9.963261298
9.963261096
9.963261757
9.963263462
9.963263599
9.963264911
9.963265196
9.963264522
9.963265059
9.963265627
9.963267001
9.963265948
9.963264955
9.963263717
9.963263959
9.963286335
9.963286459
9.963285097
9.963284853
9.963286103
9.963285283
9.963284216
9.963282977
9.963282988
9.963284397
9.963285204
9.963284579
9.963284981
9.963284213
9.963284211
9.963293731
9.963292537
9.963293433
9.963293468
9.96329279
9.963292547
9.963292457
9.963292452
9.963292954
9.963293003
9.963293373
9.96329393
9.96329328
9.963293067
9.963292485
9.963278687
9.963279459
9.963278408
9.963277348
9.963278965
9.963278823
9.963279355
9.963279965
9.963279742
9.963280425
9.963279502
9.963278157
9.963277266
9.963275964
9.9632746
9.963274783
9.963275228
9.963275557
9.96327675
9.963279702
9.963280185
9.963279403
9.96328012
9.963279774
9.963280561
9.963280914
9.96328067
9.96328036
9.963272924
9.963273564
9.963273439
9.963275606
9.96327556
9.96327531
9.963276975
9.963277763
9.963277709
9.963276678
9.963276235
9.9632777
9.963276859
9.963277571
9.963289194
9.96328945
9.963287717
9.963287565
9.963286566
9.963286325
9.963285892
9.963285603
9.96328524
9.96328477
9.96328566
9.963285835
9.963285686
9.963284329
9.963275155
9.963274378
9.963274724
9.963274632
9.963274098
9.963274003
9.963273386
9.963274052
9.963273233
9.963273468
9.963274009
9.963272646
9.963273101
9.963271076
9.963277146
9.963277384
9.963278346
9.963279725
9.963280822
9.963281094
9.963281908
9.9632821
9.963281841
9.96328175
9.963282013
9.963283115
9.963283137
9.963282334
9.963287976
9.963288785
9.963288192
9.963287059
9.963287772
9.963285892
9.963285694
9.963286254
9.963287476
9.963287666
9.963287123
9.96328764
9.963287474
9.963286854
9.963286436
9.963277606
9.963277015
9.963276372
9.963276622
9.963276282
9.963274765
9.96327561
9.963275975
9.963276006
9.963275612
9.963275703
9.963276379
9.963276681
9.963275981
9.963275995
9.963278789
9.963279699
9.963278787
9.963279994
9.96327972
9.963281072
9.96328033
9.96327994
9.963280752
9.963280883
9.963279751
9.963279255
9.963279341
9.963279713
9.963280612
9.96327417
9.963274687
9.963275052
9.963274801
9.963273687
9.963275132
9.963273682
9.963273275
9.96327192
9.963272488
9.96327308
9.963273614
9.963273736
9.963273661
9.963275974
9.963275977
9.963275006
9.963274987
9.963275614
9.963274738
9.963274514
9.96327467
9.963276369
9.963275783
9.963274275
9.963275254
9.96327387
9.963273647
9.963259896
9.963259269
9.963259489
9.963260785
9.963259786
9.963259528
9.963259447
9.963258543
9.963258664
9.963258694
9.963257969
9.963257956
9.963258999
9.963259907
9.963275367
9.963276157
9.963275413
9.963275413
9.963275414
9.963274117
9.963275387
9.963276423
9.96327572
9.963277
9.963275469
9.963276544
9.963275066
9.963275121
9.96327828
9.963276976
9.96327576
9.963274907
9.963274984
9.963274115
9.96327533
9.963274996
9.963275991
9.963276622
9.963277392
9.963276826
9.963276558
9.96327652
9.963294104
9.963295197
9.963295391
9.963294792
9.96329543
9.963295162
9.963295365
9.963295901
9.963295284
9.963294879
9.963295733
9.963295696
9.963294525
9.963292194
9.963285221
9.963283842
9.963283985
9.963284647
9.963283685
9.963281661
9.963280553
9.96327965
9.963280454
9.963281396
9.963281269
9.963282261
9.963282095
9.963280937
9.963246209
9.963245439
9.963247099
9.963247054
9.963248145
9.963249275
9.963248382
9.963248437
9.963247692
9.963247199
9.963247937
9.963247336
9.963247591
9.963248056
9.963248206
9.963285778
9.963286311
9.963285378
9.96328447
9.963285497
9.96328451
9.963284257
9.963284366
9.963283529
9.963284775
9.963284311
9.963284503
9.963284358
9.963284307
9.96328486
9.96326882
9.963269733
9.963269056
9.963269593
9.963269928
9.963269964
9.963271216
9.963271112
9.963270797
9.963270776
9.96327031
9.963270024
9.963270133
9.963269347
9.963264779
9.963263799
9.963262578
9.963261764
9.963262355
9.963263089
9.963265664
9.963265763
9.963267085
9.963267216
9.963266813
9.963265877
9.963264188
9.963265014
9.963275507
9.963275984
9.963277183
9.963276137
9.963276897
9.963277735
9.963276868
9.9632763
9.96327472
9.963274206
9.963275174
9.96327346
9.963272703
9.963272413
9.963265058
9.963265002
9.963264454
9.963264755
9.963266209
9.963265961
9.963265113
9.963264472
9.963265163
9.963264063
9.96326388
9.963263236
9.963263867
9.963263739
9.963283625
9.963285131
9.963285779
9.963287283
9.96328627
9.963288115
9.963287793
9.963289119
9.963288161
9.963288926
9.963287731
9.963289879
9.96328967
9.963289381
9.963276618
9.963275947
9.963274767
9.963275699
9.963276173
9.963276146
9.963275904
9.963277086
9.963276365
9.963276608
9.963276532
9.963276814
9.963277969
9.963277728
9.963281189
9.963281945
9.963281142
9.963280813
9.963280579
9.963281019
9.963280483
9.963280304
9.963279369
9.963279075
9.963278853
9.963279612
9.963279483
9.96327803
9.963307622
9.963307482
9.963307318
9.963307916
9.963305542
9.96330538
9.963304897
9.963303632
9.96330344
9.963303571
9.963303885
9.963303932
9.963303677
9.963302803
9.963284426
9.963284492
9.963284433
9.963284451
9.963283427
9.963282918
9.963283208
9.963283639
9.963283412
9.963283264
9.963284021
9.963284123
9.963284363
9.963285262
9.963284369
9.963286019
9.963285607
9.963285569
9.963285133
9.963284712
9.963285191
9.963285748
9.963286034
9.963286649
9.963285774
9.963285067
9.963284978
9.963285147
9.9632845
9.963264907
9.963266148
9.963265762
9.963265297
9.963266142
9.963266699
9.963266459
9.963265517
9.96326556
9.963264963
9.963266201
9.963266548
9.963266457
9.963264369
9.963276248
9.96327522
9.963275543
9.963276643
9.963275344
9.963275404
9.963275028
9.963274598
9.963274944
9.963275545
9.963275742
9.96327577
9.963276137
9.963276117
9.963288797
9.963288532
9.963287969
9.963288689
9.963289904
9.963289372
9.96328797
9.963287111
9.963288706
9.963289132
9.963289445
9.963289019
9.963288008
9.963289114
9.963293912
9.963293879
9.963293217
9.963293739
9.963293236
9.963292131
9.963292973
9.963293522
9.963293225
9.963290823
9.963291361
9.963291621
9.963291342
9.963292348
9.963271388
9.963271022
9.963271295
9.963270746
9.963271527
9.963271354
9.963271824
9.963272182
9.963272288
9.963271874
9.963271787
9.963271211
9.963271812
9.963269986
9.963273485
9.963273728
9.96327343
9.96327328
9.963273151
9.963272407
9.963272063
9.96327305
9.963273334
9.963272969
9.96327367
9.963274166
9.963275816
9.963275534
9.963282143
9.963281563
9.963282689
9.963281404
9.963281003
9.963281315
9.963281539
9.963282193
9.963280206
9.963279586
9.963278485
9.963278737
9.963276953
9.963276839
9.963274004
9.963274097
9.96327396
9.963273809
9.963274208
9.963273178
9.963273589
9.963273796
9.963273185
9.963273334
9.96327328
9.963272232
9.963271848
9.963271186
)
;

boundaryField
{
    top
    {
        type            calculated;
        value           nonuniform List<scalar> 
134
(
9.963276534
9.963273692
9.963270395
9.963265506
9.963293731
9.963278789
9.963285778
9.963284426
9.963274004
9.963276567
9.963273987
9.963271007
9.96326568
9.963292537
9.963279699
9.963286311
9.963284492
9.963274097
9.963275383
9.963274023
9.963270279
9.963266635
9.963293433
9.963278787
9.963285378
9.963284433
9.96327396
9.963276368
9.963273832
9.963270935
9.963266367
9.963293468
9.963279994
9.96328447
9.963284451
9.963273809
9.963275319
9.963272766
9.963272197
9.963266364
9.96329279
9.96327972
9.963285497
9.963283427
9.963274208
9.963276297
9.963273845
9.963271706
9.963265397
9.963292547
9.963281072
9.96328451
9.963282918
9.963273178
9.963276342
9.963273901
9.963272296
9.963265644
9.963292457
9.96328033
9.963284257
9.963283208
9.963273589
9.963275481
9.963275283
9.963271476
9.963265653
9.963292452
9.96327994
9.963284366
9.963283639
9.963273796
9.963275119
9.963276518
9.963271218
9.963265974
9.963292954
9.963280752
9.963283529
9.963283412
9.963273185
9.963273971
9.963276475
9.963270917
9.963265282
9.963293003
9.963280883
9.963284775
9.963283264
9.963273334
9.963275875
9.963276414
9.963272175
9.96326455
9.963293373
9.963279751
9.963284311
9.963284021
9.96327328
9.96327488
9.963275337
9.963272496
9.963264701
9.96329393
9.963279255
9.963284503
9.963284123
9.963272232
9.963275737
9.963275122
9.963273088
9.963265763
9.96329328
9.963279341
9.963284358
9.963284363
9.963271848
9.963276427
9.963275935
9.96327316
9.963265629
9.963293067
9.963279713
9.963284307
9.963285262
9.963271186
9.96327654
9.96327516
9.963271587
9.963264751
9.963292485
9.963280612
9.96328486
9.963284369
)
;
    }
    bottom
    {
        type            calculated;
        value           nonuniform List<scalar> 
127
(
9.963269518
9.96326221
9.96326817
9.963286012
9.963269194
9.963278687
9.96327417
9.96326882
9.963286019
9.963269868
9.963262348
9.963266966
9.963286715
9.963269583
9.963279459
9.963274687
9.963269733
9.963285607
9.963270305
9.963261676
9.96326536
9.963285916
9.963269873
9.963278408
9.963275052
9.963269056
9.963285569
9.963269815
9.963263008
9.963265451
9.963285178
9.963269121
9.963277348
9.963274801
9.963269593
9.963285133
9.963269684
9.963262491
9.963265711
9.963283468
9.963270035
9.963278965
9.963273687
9.963269928
9.963284712
9.963268435
9.963262105
9.963264968
9.96328486
9.963269903
9.963278823
9.963275132
9.963269964
9.963285191
9.96326857
9.963261907
9.96326443
9.963284168
9.963270045
9.963279355
9.963273682
9.963271216
9.963285748
9.96326881
9.96326205
9.963265649
9.963284369
9.963269218
9.963279965
9.963273275
9.963271112
9.963286034
9.963269019
9.963262003
9.963265856
9.963284413
9.963268961
9.963279742
9.96327192
9.963270797
9.963286649
9.963268476
9.963262379
9.963267476
9.963284986
9.963270455
9.963280425
9.963272488
9.963270776
9.963285774
9.9632674
9.963264219
9.963267067
9.963284626
9.963269756
9.963279502
9.96327308
9.96327031
9.963285067
9.963267798
9.96326422
9.963268695
9.963283663
9.963269795
9.963278157
9.963273614
9.963270024
9.963284978
9.963266889
9.963263852
9.963267821
9.963282799
9.963270317
9.963277266
9.963273736
9.963270133
9.963285147
9.963267772
9.963264336
9.963267978
9.96328336
9.963270415
9.963275964
9.963273661
9.963269347
9.9632845
9.963268308
)
;
    }
    side-walls
    {
        type            calculated;
        value           nonuniform List<scalar> 
261
(
9.963269518
9.96325897
9.963256137
9.963279889
9.963275179
9.963288171
9.963281003
9.963279457
9.963276534
9.963269868
9.963259633
9.963256775
9.963280316
9.963275369
9.96328852
9.963282504
9.963280202
9.963276567
9.963270305
9.963259944
9.963256547
9.963279012
9.963275041
9.963288409
9.963281379
9.963279835
9.963275383
9.963269815
9.963260055
9.963256379
9.963277603
9.96327498
9.963289583
9.963281251
9.963278888
9.963276368
9.963269684
9.963259436
9.963257456
9.963276984
9.963275135
9.963289926
9.963280998
9.963279341
9.963275319
9.963268435
9.963259559
9.963257121
9.963276285
9.963274937
9.96329073
9.963281574
9.963279972
9.963276297
9.96326857
9.963259855
9.963258069
9.963275873
9.963275578
9.96329
9.963281858
9.963281291
9.963276342
9.96326881
9.963260645
9.963257472
9.963276647
9.963274687
9.963290883
9.963280549
9.963280511
9.963275481
9.963269019
9.963260263
9.963258033
9.963276524
9.963274045
9.963290156
9.963280412
9.963280821
9.963275119
9.963268476
9.963260638
9.963257011
9.96327622
9.963275161
9.963289935
9.963280746
9.963283296
9.963273971
9.9632674
9.963259985
9.963258836
9.963277077
9.963275637
9.963289876
9.963280878
9.963282271
9.963275875
9.963267798
9.963259596
9.963259774
9.963277219
9.963275273
9.963288943
9.963280977
9.963281977
9.96327488
9.963266889
9.963258835
9.963259718
9.963277879
9.963274232
9.96328902
9.963279626
9.963283419
9.963275737
9.963267772
9.963259242
9.963259909
9.963278723
9.963273153
9.963291065
9.963279246
9.963282584
9.963276427
9.963268308
9.963259651
9.963261113
9.963279113
9.963272983
9.963289981
9.963279483
9.963282471
9.96327654
9.963286019
9.963264907
9.963276248
9.963288797
9.963293912
9.963271388
9.963273485
9.963282143
9.963274004
9.963285607
9.963266148
9.96327522
9.963288532
9.963293879
9.963271022
9.963273728
9.963281563
9.963274097
9.963285569
9.963265762
9.963275543
9.963287969
9.963293217
9.963271295
9.96327343
9.963282689
9.96327396
9.963285133
9.963265297
9.963276643
9.963288689
9.963293739
9.963270746
9.96327328
9.963281404
9.963273809
9.963284712
9.963266142
9.963275344
9.963289904
9.963293236
9.963271527
9.963273151
9.963281003
9.963274208
9.963285191
9.963266699
9.963275404
9.963289372
9.963292131
9.963271354
9.963272407
9.963281315
9.963273178
9.963285748
9.963266459
9.963275028
9.96328797
9.963292973
9.963271824
9.963272063
9.963281539
9.963273589
9.963286034
9.963265517
9.963274598
9.963287111
9.963293522
9.963272182
9.96327305
9.963282193
9.963273796
9.963286649
9.96326556
9.963274944
9.963288706
9.963293225
9.963272288
9.963273334
9.963280206
9.963273185
9.963285774
9.963264963
9.963275545
9.963289132
9.963290823
9.963271874
9.963272969
9.963279586
9.963273334
9.963285067
9.963266201
9.963275742
9.963289445
9.963291361
9.963271787
9.96327367
9.963278485
9.96327328
9.963284978
9.963266548
9.96327577
9.963289019
9.963291621
9.963271211
9.963274166
9.963278737
9.963272232
9.963285147
9.963266457
9.963276137
9.963288008
9.963291342
9.963271812
9.963275816
9.963276953
9.963271848
9.9632845
9.963264369
9.963276117
9.963289114
9.963292348
9.963269986
9.963275534
9.963276839
9.963271186
)
;
    }
    inlet
    {
        type            calculated;
        value           nonuniform List<scalar> 
81
(
9.963269518
9.96325897
9.963256137
9.963279889
9.963275179
9.963288171
9.963281003
9.963279457
9.963276534
9.96326221
9.963287897
9.963286813
9.963289378
9.963253458
9.963286192
9.963287014
9.96326793
9.963273692
9.96326817
9.963267613
9.963295076
9.963265323
9.963275778
9.963282816
9.963269115
9.963285076
9.963270395
9.963286012
9.963261825
9.963278166
9.963259017
9.963279597
9.963294992
9.963253872
9.963268527
9.963265506
9.963269194
9.963290613
9.963279078
9.963287415
9.963259568
9.963288139
9.963261298
9.963286335
9.963293731
9.963278687
9.9632746
9.963272924
9.963289194
9.963275155
9.963277146
9.963287976
9.963277606
9.963278789
9.96327417
9.963275974
9.963259896
9.963275367
9.96327828
9.963294104
9.963285221
9.963246209
9.963285778
9.96326882
9.963264779
9.963275507
9.963265058
9.963283625
9.963276618
9.963281189
9.963307622
9.963284426
9.963286019
9.963264907
9.963276248
9.963288797
9.963293912
9.963271388
9.963273485
9.963282143
9.963274004
)
;
    }
    outlet
    {
        type            calculated;
        value           nonuniform 0();
    }
    procBoundary0to1
    {
        type            processor;
        value           nonuniform List<scalar> 
97
(
9.963268352
9.963262423
9.963260902
9.963260761
9.963279284
9.963274226
9.963290297
9.96327915
9.963282414
9.963276995
9.963262423
9.963262423
9.96328599
9.963273379
9.963284811
9.963287292
9.963250862
9.963287655
9.963284975
9.963269559
9.963273803
9.963267899
9.963273379
9.963273379
9.96329653
9.963274551
9.963267291
9.963272886
9.963275406
9.963272081
9.963279262
9.963272361
9.963282917
9.963268767
9.963274551
9.963274551
9.963251576
9.963529835
9.963524584
9.963286688
9.96325352
9.963270366
9.963264687
9.963269155
9.963285391
9.963278151
9.963529835
9.963529835
10.09263757
9.963518388
9.963530768
9.96328029
9.963263343
9.963283606
9.963293152
9.963276323
9.963280763
9.963276103
9.963282245
9.963518388
9.96328029
9.96328029
9.963285988
9.963281533
9.96327606
9.963279215
9.96327341
9.963274359
9.963259134
9.963275429
9.963275718
9.963290864
9.963281533
9.963281533
9.963247707
9.963302988
9.963283873
9.963269476
9.963263973
9.963272116
9.96326376
9.9632892
9.963279107
9.963277013
9.963302988
9.963302988
9.963284416
9.963271976
9.963284808
9.963263013
9.963276429
9.963289012
9.963292107
9.963269199
9.963274168
9.963277891
9.963271976
)
;
    }
}


// ************************************************************************* //
