/*--------------------------------*- C++ -*----------------------------------*\
| =========                 |                                                 |
| \\      /  F ield         | OpenFOAM: The Open Source CFD Toolbox           |
|  \\    /   O peration     | Version:  4.x                                   |
|   \\  /    A nd           | Web:      www.OpenFOAM.org                      |
|    \\/     M anipulation  |                                                 |
\*---------------------------------------------------------------------------*/
FoamFile
{
    version     2.0;
    format      ascii;
    class       volScalarField;
    location    "1000";
    object      N2;
}
// * * * * * * * * * * * * * * * * * * * * * * * * * * * * * * * * * * * * * //

dimensions      [0 0 0 0 0 0 0];

internalField   nonuniform List<scalar> 
1175
(
0.5999999996
0.5999999996
0.5999999996
0.5999999996
0.5999999995
0.5999999994
0.5999999991
0.5999999981
0.5999999949
0.5999999852
0.5999999577
0.5999998846
0.5999997061
0.5999993115
0.5999985345
0.5999999996
0.5999999996
0.5999999996
0.5999999996
0.5999999995
0.5999999994
0.599999999
0.5999999976
0.5999999929
0.5999999783
0.599999935
0.5999998154
0.5999995131
0.5999988302
0.5999974852
0.5999999996
0.5999999996
0.5999999996
0.5999999995
0.5999999995
0.5999999993
0.5999999987
0.5999999966
0.5999999892
0.599999965
0.5999998899
0.5999996725
0.5999990995
0.5999977673
0.5999951366
0.5999999996
0.5999999996
0.5999999996
0.5999999995
0.5999999995
0.5999999993
0.5999999985
0.5999999955
0.599999985
0.5999999494
0.5999998339
0.5999994845
0.5999985232
0.5999962105
0.59999161
0.5999999996
0.5999999996
0.5999999996
0.5999999995
0.5999999995
0.5999999992
0.5999999983
0.599999995
0.599999983
0.5999999412
0.5999998026
0.5999993709
0.5999981443
0.5999950992
0.5999889631
0.5999999996
0.5999999996
0.5999999996
0.5999999995
0.5999999995
0.5999999993
0.5999999985
0.5999999955
0.5999999851
0.5999999494
0.5999998339
0.5999994845
0.5999985232
0.5999962105
0.5999916101
0.5999999996
0.5999999996
0.5999999996
0.5999999995
0.5999999995
0.5999999993
0.5999999987
0.5999999966
0.5999999892
0.599999965
0.5999998899
0.5999996725
0.5999990995
0.5999977673
0.5999951367
0.5999999996
0.5999999996
0.5999999996
0.5999999996
0.5999999995
0.5999999994
0.599999999
0.5999999976
0.5999999929
0.5999999783
0.599999935
0.5999998154
0.5999995131
0.5999988302
0.5999974853
0.5999999996
0.5999999996
0.5999999996
0.5999999996
0.5999999995
0.5999999994
0.5999999991
0.5999999981
0.5999999949
0.5999999852
0.5999999577
0.5999998846
0.5999997061
0.5999993116
0.5999985346
0.5999999996
0.5999999996
0.5999999996
0.5999999996
0.5999999995
0.5999999994
0.599999999
0.5999999976
0.5999999929
0.5999999783
0.599999935
0.5999998154
0.599999513
0.5999988301
0.5999999996
0.5999999996
0.5999999996
0.5999999995
0.5999999995
0.5999999993
0.5999999988
0.5999999967
0.5999999895
0.5999999657
0.5999998913
0.599999674
0.5999990966
0.5999977456
0.5999950755
0.5999999996
0.5999999996
0.5999999996
0.5999999995
0.5999999995
0.5999999992
0.5999999983
0.599999995
0.5999999828
0.5999999401
0.5999997976
0.5999993537
0.5999980988
0.5999950182
0.5999888649
0.5999999996
0.5999999996
0.5999999996
0.5999999995
0.5999999995
0.5999999991
0.5999999979
0.5999999931
0.5999999748
0.5999999071
0.5999996677
0.5999988719
0.5999964633
0.5999901736
0.5999772943
0.5999999996
0.5999999996
0.5999999996
0.5999999995
0.5999999994
0.5999999991
0.5999999977
0.5999999921
0.5999999705
0.5999998879
0.5999995843
0.5999985244
0.5999951178
0.5999856046
0.5999652097
0.5999999996
0.5999999996
0.5999999996
0.5999999995
0.5999999995
0.5999999991
0.5999999979
0.5999999931
0.5999999748
0.5999999071
0.5999996677
0.5999988719
0.5999964634
0.5999901738
0.5999772947
0.5999999996
0.5999999996
0.5999999996
0.5999999995
0.5999999995
0.5999999992
0.5999999983
0.599999995
0.5999999828
0.5999999401
0.5999997976
0.5999993537
0.5999980989
0.5999950184
0.5999888653
0.5999999996
0.5999999996
0.5999999996
0.5999999995
0.5999999995
0.5999999993
0.5999999988
0.5999999967
0.5999999895
0.5999999657
0.5999998913
0.599999674
0.5999990967
0.5999977457
0.5999950759
0.5999999996
0.5999999996
0.5999999996
0.5999999996
0.5999999995
0.5999999994
0.599999999
0.5999999976
0.5999999929
0.5999999783
0.599999935
0.5999998154
0.5999995131
0.5999988302
0.5999974853
0.5999999996
0.5999999996
0.5999999996
0.5999999995
0.5999999995
0.5999999993
0.5999999987
0.5999999966
0.5999999892
0.599999965
0.5999998899
0.5999996725
0.5999990995
0.5999977671
0.5999999996
0.5999999996
0.5999999996
0.5999999995
0.5999999995
0.5999999992
0.5999999983
0.599999995
0.5999999828
0.5999999401
0.5999997976
0.5999993537
0.5999980988
0.599995018
0.5999999996
0.5999999996
0.5999999996
0.5999999995
0.5999999994
0.5999999991
0.5999999976
0.5999999919
0.5999999697
0.5999998856
0.5999995819
0.5999985513
0.5999953753
0.599986967
0.5999696772
0.5999999996
0.5999999996
0.5999999996
0.5999999995
0.5999999994
0.5999999989
0.5999999968
0.5999999882
0.5999999525
0.5999998083
0.5999992448
0.5999971517
0.5999900167
0.5999690751
0.5999231097
0.5999999996
0.5999999996
0.5999999996
0.5999999995
0.5999999994
0.5999999988
0.5999999964
0.5999999861
0.5999999423
0.5999997574
0.5999989909
0.5999959157
0.5999843168
0.5999456617
0.5998492961
0.5999999996
0.5999999996
0.5999999996
0.5999999995
0.5999999994
0.5999999989
0.5999999968
0.5999999882
0.5999999525
0.5999998084
0.5999992448
0.5999971517
0.5999900169
0.599969076
0.5999231121
0.5999999996
0.5999999996
0.5999999996
0.5999999995
0.5999999994
0.5999999991
0.5999999976
0.5999999919
0.5999999697
0.5999998856
0.5999995819
0.5999985513
0.5999953755
0.5999869677
0.5999696792
0.5999999996
0.5999999996
0.5999999996
0.5999999995
0.5999999995
0.5999999992
0.5999999983
0.599999995
0.5999999828
0.5999999401
0.5999997976
0.5999993537
0.5999980989
0.5999950184
0.5999888653
0.5999999996
0.5999999996
0.5999999996
0.5999999995
0.5999999995
0.5999999993
0.5999999987
0.5999999966
0.5999999892
0.599999965
0.5999998899
0.5999996725
0.5999990995
0.5999977673
0.5999951367
0.5999999996
0.5999999996
0.5999999996
0.5999999995
0.5999999995
0.5999999993
0.5999999985
0.5999999955
0.599999985
0.5999999494
0.5999998339
0.5999994844
0.5999985231
0.5999962103
0.5999999996
0.5999999996
0.5999999996
0.5999999995
0.5999999995
0.5999999991
0.5999999979
0.5999999931
0.5999999748
0.5999999071
0.5999996677
0.5999988718
0.5999964632
0.599990173
0.5999999996
0.5999999996
0.5999999996
0.5999999995
0.5999999994
0.5999999989
0.5999999968
0.5999999882
0.5999999525
0.5999998083
0.5999992447
0.5999971516
0.5999900163
0.5999690735
0.5999999996
0.5999999996
0.5999999996
0.5999999995
0.5999999994
0.5999999987
0.5999999955
0.5999999818
0.5999999211
0.5999996539
0.599998496
0.5999936315
0.5999744346
0.5999078141
0.5997373655
0.5999999996
0.5999999996
0.5999999995
0.5999999995
0.5999999993
0.5999999985
0.5999999949
0.5999999781
0.5999999006
0.5999995376
0.5999978235
0.599989717
0.5999520273
0.599787839
0.5992171807
0.5999999996
0.5999999996
0.5999999996
0.5999999995
0.5999999994
0.5999999987
0.5999999955
0.5999999818
0.5999999211
0.5999996539
0.599998496
0.5999936317
0.5999744354
0.5999078179
0.59973738
0.5999999996
0.5999999996
0.5999999996
0.5999999995
0.5999999994
0.5999999989
0.5999999968
0.5999999882
0.5999999525
0.5999998083
0.5999992448
0.5999971517
0.5999900168
0.5999690758
0.5999231119
0.5999999996
0.5999999996
0.5999999996
0.5999999995
0.5999999995
0.5999999991
0.5999999979
0.5999999931
0.5999999748
0.5999999071
0.5999996677
0.5999988719
0.5999964634
0.5999901737
0.5999772947
0.5999999996
0.5999999996
0.5999999996
0.5999999995
0.5999999995
0.5999999993
0.5999999985
0.5999999955
0.599999985
0.5999999494
0.5999998339
0.5999994845
0.5999985232
0.5999962105
0.59999161
0.5999999996
0.5999999996
0.5999999996
0.5999999995
0.5999999995
0.5999999992
0.5999999983
0.599999995
0.599999983
0.5999999412
0.5999998026
0.5999993709
0.5999981442
0.5999950989
0.5999999996
0.5999999996
0.5999999996
0.5999999995
0.5999999994
0.5999999991
0.5999999977
0.5999999921
0.5999999705
0.5999998879
0.5999995843
0.5999985243
0.5999951175
0.5999856037
0.5999999996
0.5999999996
0.5999999996
0.5999999995
0.5999999994
0.5999999988
0.5999999964
0.5999999861
0.5999999423
0.5999997574
0.5999989909
0.5999959155
0.599984316
0.599945658
0.5999999996
0.5999999996
0.5999999996
0.5999999995
0.5999999993
0.5999999985
0.5999999949
0.5999999781
0.5999999006
0.5999995376
0.5999978234
0.5999897167
0.5999520252
0.5997878246
0.5999999996
0.5999999996
0.5999999995
0.5999999995
0.5999999993
0.5999999984
0.599999994
0.5999999732
0.5999998711
0.5999993512
0.5999965805
0.5999809454
0.5998866187
0.5992741739
0.5949603982
0.5999999996
0.5999999996
0.5999999996
0.5999999995
0.5999999993
0.5999999985
0.5999999949
0.5999999781
0.5999999006
0.5999995376
0.5999978235
0.599989717
0.5999520271
0.5997878382
0.5992171791
0.5999999996
0.5999999996
0.5999999996
0.5999999995
0.5999999994
0.5999999988
0.5999999964
0.5999999861
0.5999999423
0.5999997574
0.5999989909
0.5999959156
0.5999843167
0.5999456613
0.5998492956
0.5999999996
0.5999999996
0.5999999996
0.5999999995
0.5999999994
0.5999999991
0.5999999977
0.5999999921
0.5999999705
0.5999998879
0.5999995843
0.5999985243
0.5999951178
0.5999856045
0.5999652096
0.5999999996
0.5999999996
0.5999999996
0.5999999995
0.5999999995
0.5999999992
0.5999999983
0.599999995
0.599999983
0.5999999412
0.5999998026
0.5999993709
0.5999981443
0.5999950991
0.5999889631
0.5999999996
0.5999999996
0.5999999996
0.5999999995
0.5999999995
0.5999999993
0.5999999985
0.5999999955
0.599999985
0.5999999494
0.5999998339
0.5999994844
0.5999985231
0.5999962103
0.5999999996
0.5999999996
0.5999999996
0.5999999995
0.5999999995
0.5999999991
0.5999999979
0.5999999931
0.5999999748
0.5999999071
0.5999996677
0.5999988718
0.5999964632
0.5999901731
0.5999999996
0.5999999996
0.5999999996
0.5999999995
0.5999999994
0.5999999989
0.5999999968
0.5999999882
0.5999999525
0.5999998083
0.5999992447
0.5999971516
0.5999900163
0.5999690739
0.5999999996
0.5999999996
0.5999999996
0.5999999995
0.5999999994
0.5999999987
0.5999999955
0.5999999818
0.5999999211
0.5999996539
0.599998496
0.5999936314
0.599974434
0.5999078117
0.5999999996
0.5999999996
0.5999999996
0.5999999995
0.5999999993
0.5999999985
0.5999999949
0.5999999781
0.5999999006
0.5999995376
0.5999978234
0.5999897166
0.5999520251
0.5997878244
0.5999999996
0.5999999996
0.5999999996
0.5999999995
0.5999999994
0.5999999987
0.5999999955
0.5999999818
0.5999999211
0.5999996539
0.599998496
0.5999936315
0.5999744343
0.5999078122
0.5999999996
0.5999999996
0.5999999996
0.5999999995
0.5999999994
0.5999999989
0.5999999968
0.5999999882
0.5999999525
0.5999998083
0.5999992447
0.5999971516
0.5999900165
0.5999690746
0.5999231081
0.5999999996
0.5999999996
0.5999999996
0.5999999995
0.5999999995
0.5999999991
0.5999999979
0.5999999931
0.5999999748
0.5999999071
0.5999996677
0.5999988718
0.5999964633
0.5999901734
0.599977294
0.5999999996
0.5999999996
0.5999999996
0.5999999995
0.5999999995
0.5999999993
0.5999999985
0.5999999955
0.599999985
0.5999999494
0.5999998339
0.5999994845
0.5999985232
0.5999962104
0.5999916099
0.5999999996
0.5999999996
0.5999999996
0.5999999995
0.5999999995
0.5999999993
0.5999999987
0.5999999966
0.5999999892
0.599999965
0.5999998899
0.5999996725
0.5999990995
0.5999977672
0.5999999996
0.5999999996
0.5999999996
0.5999999995
0.5999999995
0.5999999992
0.5999999983
0.599999995
0.5999999828
0.5999999401
0.5999997976
0.5999993536
0.5999980988
0.599995018
0.5999999996
0.5999999996
0.5999999996
0.5999999995
0.5999999994
0.5999999991
0.5999999976
0.5999999919
0.5999999696
0.5999998856
0.5999995819
0.5999985513
0.5999953752
0.5999869668
0.5999999996
0.5999999996
0.5999999996
0.5999999995
0.5999999994
0.5999999989
0.5999999968
0.5999999882
0.5999999525
0.5999998083
0.5999992447
0.5999971516
0.5999900162
0.5999690738
0.5999999996
0.5999999996
0.5999999996
0.5999999995
0.5999999994
0.5999999988
0.5999999964
0.5999999861
0.5999999423
0.5999997574
0.5999989909
0.5999959155
0.5999843159
0.5999456581
0.5999999996
0.5999999996
0.5999999996
0.5999999995
0.5999999994
0.5999999989
0.5999999968
0.5999999882
0.5999999525
0.5999998083
0.5999992447
0.5999971516
0.5999900163
0.599969074
0.5999999996
0.5999999996
0.5999999996
0.5999999995
0.5999999994
0.5999999991
0.5999999976
0.5999999919
0.5999999696
0.5999998856
0.5999995819
0.5999985513
0.5999953752
0.5999869667
0.5999999996
0.5999999996
0.5999999996
0.5999999995
0.5999999995
0.5999999992
0.5999999983
0.599999995
0.5999999828
0.5999999401
0.5999997976
0.5999993537
0.5999980988
0.5999950181
0.5999888646
0.5999999996
0.5999999996
0.5999999996
0.5999999995
0.5999999995
0.5999999993
0.5999999987
0.5999999966
0.5999999892
0.599999965
0.5999998899
0.5999996725
0.5999990995
0.5999977672
0.5999951365
0.5999999996
0.5999999996
0.5999999996
0.5999999996
0.5999999995
0.5999999994
0.599999999
0.5999999976
0.5999999929
0.5999999783
0.599999935
0.5999998154
0.599999513
0.5999988301
0.5999999996
0.5999999996
0.5999999996
0.5999999995
0.5999999995
0.5999999993
0.5999999988
0.5999999967
0.5999999895
0.5999999657
0.5999998913
0.599999674
0.5999990966
0.5999977456
0.5999999996
0.5999999996
0.5999999996
0.5999999995
0.5999999995
0.5999999992
0.5999999983
0.599999995
0.5999999828
0.5999999401
0.5999997976
0.5999993536
0.5999980988
0.599995018
0.5999999996
0.5999999996
0.5999999996
0.5999999995
0.5999999995
0.5999999991
0.5999999979
0.5999999931
0.5999999748
0.5999999071
0.5999996677
0.5999988718
0.5999964632
0.5999901731
0.5999999996
0.5999999996
0.5999999996
0.5999999995
0.5999999994
0.5999999991
0.5999999977
0.5999999921
0.5999999705
0.5999998879
0.5999995843
0.5999985243
0.5999951175
0.5999856038
0.5999999996
0.5999999996
0.5999999996
0.5999999995
0.5999999995
0.5999999991
0.5999999979
0.5999999931
0.5999999748
0.5999999071
0.5999996677
0.5999988718
0.5999964632
0.5999901732
0.5999999996
0.5999999996
0.5999999996
0.5999999995
0.5999999995
0.5999999992
0.5999999983
0.599999995
0.5999999828
0.5999999401
0.5999997976
0.5999993536
0.5999980988
0.599995018
0.5999999996
0.5999999996
0.5999999996
0.5999999995
0.5999999995
0.5999999993
0.5999999988
0.5999999967
0.5999999895
0.5999999657
0.5999998913
0.599999674
0.5999990966
0.5999977456
0.5999999996
0.5999999996
0.5999999996
0.5999999996
0.5999999995
0.5999999994
0.599999999
0.5999999976
0.5999999929
0.5999999783
0.599999935
0.5999998154
0.599999513
0.5999988301
0.5999974851
0.5999999996
0.5999999996
0.5999999996
0.5999999996
0.5999999995
0.5999999994
0.5999999991
0.5999999981
0.5999999949
0.5999999852
0.5999999577
0.5999998846
0.5999997061
0.5999993115
0.5999999996
0.5999999996
0.5999999996
0.5999999996
0.5999999995
0.5999999994
0.599999999
0.5999999976
0.5999999929
0.5999999783
0.599999935
0.5999998154
0.599999513
0.5999988301
0.5999999996
0.5999999996
0.5999999996
0.5999999995
0.5999999995
0.5999999993
0.5999999987
0.5999999966
0.5999999892
0.599999965
0.5999998899
0.5999996725
0.5999990995
0.5999977672
0.5999999996
0.5999999996
0.5999999996
0.5999999995
0.5999999995
0.5999999993
0.5999999985
0.5999999955
0.599999985
0.5999999494
0.5999998339
0.5999994844
0.5999985231
0.5999962103
0.5999999996
0.5999999996
0.5999999996
0.5999999995
0.5999999995
0.5999999992
0.5999999983
0.599999995
0.599999983
0.5999999412
0.5999998026
0.5999993709
0.5999981442
0.5999950989
0.5999999996
0.5999999996
0.5999999996
0.5999999995
0.5999999995
0.5999999993
0.5999999985
0.5999999955
0.599999985
0.5999999494
0.5999998339
0.5999994844
0.5999985231
0.5999962103
0.5999999996
0.5999999996
0.5999999996
0.5999999995
0.5999999995
0.5999999993
0.5999999987
0.5999999966
0.5999999892
0.599999965
0.5999998899
0.5999996725
0.5999990995
0.5999977672
0.5999999996
0.5999999996
0.5999999996
0.5999999996
0.5999999995
0.5999999994
0.599999999
0.5999999976
0.5999999929
0.5999999783
0.599999935
0.5999998154
0.599999513
0.5999988301
0.5999999996
0.5999999996
0.5999999996
0.5999999996
0.5999999995
0.5999999994
0.5999999991
0.5999999981
0.5999999949
0.5999999852
0.5999999577
0.5999998846
0.5999997061
0.5999993115
)
;

boundaryField
{
    top
    {
        type            zeroGradient;
    }
    bottom
    {
        type            zeroGradient;
    }
    side-walls
    {
        type            zeroGradient;
    }
    inlet
    {
        type            zeroGradient;
    }
    outlet
    {
        type            zeroGradient;
    }
    procBoundary0to1
    {
        type            processor;
        value           nonuniform List<scalar> 
97
(
0.5999971808
0.5999974851
0.5999952084
0.5999908526
0.5999844719
0.5999799153
0.5999844721
0.5999908528
0.5999952086
0.599997181
0.5999974851
0.5999974851
0.5999907637
0.5999888645
0.5999795843
0.5999597225
0.5999409797
0.599959723
0.5999795849
0.5999907641
0.5999952086
0.5999951365
0.5999888645
0.5999888645
0.5999465766
0.5999231068
0.5998731973
0.5997770896
0.5998731997
0.5999465786
0.5999795849
0.5999908528
0.5999916098
0.5999772936
0.5999231068
0.5999231068
0.5996217946
0.5992171675
0.5991286452
0.5996218038
0.5998731997
0.599959723
0.5999844721
0.5999889628
0.5999652088
0.5998492927
0.5992171675
0.5992171675
0.5970001357
0.5992171687
0.5991286462
0.5997373737
0.59977709
0.5999409799
0.5999799154
0.5999916099
0.5999772941
0.59992311
0.5997373751
0.5992171687
0.5997373737
0.5997373737
0.5998731976
0.5999696776
0.5999597225
0.5999844719
0.5999951366
0.599988865
0.5999696785
0.5999231102
0.5998492935
0.5999231105
0.5999696776
0.5999696776
0.5999795843
0.5999950755
0.5999908526
0.5999974853
0.5999950757
0.5999888651
0.5999772942
0.5999652091
0.5999772943
0.599988865
0.5999950755
0.5999950755
0.5999952084
0.5999985345
0.5999985345
0.5999974853
0.5999951366
0.5999916099
0.599988963
0.59999161
0.5999951366
0.5999974852
0.5999985345
)
;
    }
}


// ************************************************************************* //
