/*--------------------------------*- C++ -*----------------------------------*\
| =========                 |                                                 |
| \\      /  F ield         | OpenFOAM: The Open Source CFD Toolbox           |
|  \\    /   O peration     | Version:  4.x                                   |
|   \\  /    A nd           | Web:      www.OpenFOAM.org                      |
|    \\/     M anipulation  |                                                 |
\*---------------------------------------------------------------------------*/
FoamFile
{
    version     2.0;
    format      ascii;
    class       volScalarField;
    location    "1000";
    object      T;
}
// * * * * * * * * * * * * * * * * * * * * * * * * * * * * * * * * * * * * * //

dimensions      [0 0 0 1 0 0 0];

internalField   nonuniform List<scalar> 
1175
(
1223.151229
1223.151191
1223.151296
1223.151148
1223.15122
1223.151355
1223.151379
1223.151296
1223.151269
1223.151461
1223.151533
1223.151479
1223.151477
1223.151508
1223.151389
1223.152574
1223.152465
1223.152358
1223.152361
1223.152486
1223.152415
1223.152301
1223.15229
1223.152309
1223.152396
1223.152297
1223.152533
1223.152565
1223.152382
1223.152378
1223.152879
1223.152836
1223.152838
1223.152744
1223.152648
1223.152724
1223.152714
1223.152694
1223.152614
1223.152707
1223.152574
1223.152414
1223.152429
1223.152343
1223.152306
1223.149952
1223.149978
1223.150102
1223.150207
1223.150336
1223.150371
1223.150371
1223.15033
1223.150386
1223.150437
1223.150309
1223.150272
1223.150172
1223.150135
1223.150138
1223.150529
1223.150423
1223.150484
1223.150615
1223.150566
1223.150489
1223.1505
1223.150563
1223.150737
1223.150552
1223.150577
1223.150552
1223.150602
1223.150788
1223.150887
1223.148941
1223.148955
1223.148875
1223.14888
1223.148803
1223.148773
1223.148731
1223.148623
1223.148715
1223.148826
1223.148735
1223.148778
1223.148822
1223.148678
1223.148656
1223.14982
1223.149679
1223.14976
1223.149735
1223.149781
1223.149767
1223.149691
1223.149854
1223.149867
1223.149832
1223.149853
1223.149957
1223.150066
1223.149947
1223.149973
1223.150068
1223.149933
1223.149947
1223.149988
1223.150117
1223.150051
1223.149872
1223.149874
1223.149819
1223.149557
1223.149638
1223.149651
1223.149456
1223.149674
1223.149598
1223.150387
1223.150396
1223.150457
1223.150455
1223.150486
1223.150418
1223.150343
1223.150495
1223.150565
1223.150634
1223.15044
1223.150533
1223.150494
1223.150394
1223.15035
1223.152112
1223.152092
1223.152053
1223.152063
1223.15207
1223.15215
1223.152151
1223.15221
1223.152265
1223.152111
1223.151882
1223.15187
1223.151844
1223.151853
1223.148995
1223.148977
1223.148951
1223.148913
1223.148903
1223.148913
1223.148944
1223.148752
1223.1488
1223.148811
1223.148972
1223.149001
1223.148812
1223.148872
1223.149129
1223.149158
1223.149017
1223.148968
1223.149125
1223.14909
1223.149029
1223.148997
1223.148921
1223.148998
1223.14888
1223.148983
1223.149147
1223.149047
1223.149281
1223.149302
1223.148761
1223.148901
1223.14882
1223.148902
1223.148783
1223.148716
1223.148853
1223.148982
1223.148946
1223.149
1223.148874
1223.14908
1223.148984
1223.148978
1223.149097
1223.153211
1223.153328
1223.153204
1223.153055
1223.153198
1223.15332
1223.153352
1223.153419
1223.153343
1223.153322
1223.153306
1223.153409
1223.153369
1223.153356
1223.153352
1223.149122
1223.149208
1223.149234
1223.149188
1223.149259
1223.149204
1223.149447
1223.149319
1223.149243
1223.149146
1223.149123
1223.148982
1223.149062
1223.148972
1223.148926
1223.149093
1223.148995
1223.148941
1223.149168
1223.149213
1223.149238
1223.149316
1223.149234
1223.149153
1223.149152
1223.149179
1223.149091
1223.149005
1223.149264
1223.149293
1223.151337
1223.151452
1223.151446
1223.15144
1223.151368
1223.151394
1223.151467
1223.151584
1223.151652
1223.151689
1223.151586
1223.151601
1223.151674
1223.151541
1223.151366
1223.150741
1223.150716
1223.150715
1223.150798
1223.150742
1223.150668
1223.15061
1223.15045
1223.150386
1223.150459
1223.150484
1223.150509
1223.150519
1223.150461
1223.150519
1223.151541
1223.151542
1223.151687
1223.151746
1223.151669
1223.151772
1223.15183
1223.151739
1223.151634
1223.151476
1223.151467
1223.151321
1223.151553
1223.151344
1223.151456
1223.15147
1223.151455
1223.151278
1223.151284
1223.151256
1223.151323
1223.151203
1223.151103
1223.151006
1223.151022
1223.151003
1223.150785
1223.150656
1223.148034
1223.148039
1223.148159
1223.148184
1223.14812
1223.148019
1223.148134
1223.148192
1223.148079
1223.147997
1223.148175
1223.148151
1223.148156
1223.147956
1223.14804
1223.151873
1223.151725
1223.15152
1223.151565
1223.15161
1223.1517
1223.151639
1223.151714
1223.151767
1223.151778
1223.151743
1223.151625
1223.15145
1223.151401
1223.151597
1223.150424
1223.150338
1223.150337
1223.150329
1223.150399
1223.150401
1223.150526
1223.150499
1223.150668
1223.150604
1223.150778
1223.150958
1223.150893
1223.150897
1223.151043
1223.149637
1223.149749
1223.1497
1223.149855
1223.149815
1223.149806
1223.149755
1223.149854
1223.149845
1223.149902
1223.149878
1223.14976
1223.149648
1223.149848
1223.150199
1223.151227
1223.151215
1223.151033
1223.151192
1223.151105
1223.151085
1223.151028
1223.150992
1223.150979
1223.150893
1223.151112
1223.150884
1223.150942
1223.151001
1223.15099
1223.149285
1223.14935
1223.149483
1223.149354
1223.149409
1223.149383
1223.149352
1223.149439
1223.149365
1223.149478
1223.14955
1223.149809
1223.149796
1223.149905
1223.150038
1223.151137
1223.151021
1223.151084
1223.151043
1223.150867
1223.150897
1223.150917
1223.15096
1223.151041
1223.151037
1223.150916
1223.150901
1223.150734
1223.150873
1223.150898
1223.149151
1223.149177
1223.1492
1223.149421
1223.149505
1223.149436
1223.149359
1223.14947
1223.149338
1223.14926
1223.149323
1223.149528
1223.149635
1223.149515
1223.152225
1223.1521
1223.151981
1223.151941
1223.151769
1223.151821
1223.151714
1223.151472
1223.151656
1223.151571
1223.151542
1223.151397
1223.151213
1223.151401
1223.15018
1223.150221
1223.150195
1223.150332
1223.15018
1223.150019
1223.150016
1223.150043
1223.150207
1223.150192
1223.150244
1223.150157
1223.150199
1223.150471
1223.152525
1223.152626
1223.15273
1223.152716
1223.152697
1223.152484
1223.152264
1223.15232
1223.152446
1223.152364
1223.152336
1223.152633
1223.152917
1223.153143
1223.153325
1223.149917
1223.149902
1223.149796
1223.149958
1223.149687
1223.149586
1223.14958
1223.149639
1223.149716
1223.149626
1223.149794
1223.149827
1223.149864
1223.150285
1223.120636
1223.14803
1223.148033
1223.148175
1223.148421
1223.148268
1223.148416
1223.148291
1223.148548
1223.148599
1223.148607
1223.148526
1223.148603
1223.14856
1223.148767
1223.149173
1223.153146
1223.152963
1223.152939
1223.152958
1223.152935
1223.152832
1223.152883
1223.152965
1223.153023
1223.153142
1223.153063
1223.153007
1223.153065
1223.153151
1223.153321
1223.151271
1223.151297
1223.151268
1223.151204
1223.15114
1223.151196
1223.151072
1223.151007
1223.151027
1223.151027
1223.150823
1223.150733
1223.150943
1223.151004
1223.151058
1223.151666
1223.151652
1223.151574
1223.151678
1223.151549
1223.151677
1223.151736
1223.151783
1223.151747
1223.151769
1223.151692
1223.151868
1223.151804
1223.151752
1223.151796
1223.151278
1223.151299
1223.151171
1223.151106
1223.15128
1223.151203
1223.151136
1223.151264
1223.151278
1223.151223
1223.151239
1223.151222
1223.151173
1223.151217
1223.148581
1223.148622
1223.148701
1223.14879
1223.148981
1223.149107
1223.149168
1223.149101
1223.149202
1223.149234
1223.149241
1223.149467
1223.149579
1223.149547
1223.150152
1223.150146
1223.150198
1223.150074
1223.150008
1223.150074
1223.150128
1223.150148
1223.150166
1223.150142
1223.150085
1223.150029
1223.14995
1223.149952
1223.149029
1223.149081
1223.148882
1223.148803
1223.148984
1223.149022
1223.149037
1223.149095
1223.149303
1223.149229
1223.149378
1223.14939
1223.149364
1223.14973
1223.152556
1223.152466
1223.152657
1223.152738
1223.152531
1223.152459
1223.152591
1223.152566
1223.152701
1223.152622
1223.152725
1223.152959
1223.153107
1223.154408
1207.508191
1223.14905
1223.148998
1223.149077
1223.149259
1223.149297
1223.149253
1223.149232
1223.149021
1223.149036
1223.149161
1223.148953
1223.148937
1223.149054
1223.149528
1223.119898
1223.152328
1223.152298
1223.152302
1223.152035
1223.151918
1223.151825
1223.151681
1223.151822
1223.151745
1223.151629
1223.151557
1223.15162
1223.15172
1223.151988
1223.152009
1223.149216
1223.149202
1223.149195
1223.149311
1223.149175
1223.149203
1223.149526
1223.149507
1223.14951
1223.149329
1223.149422
1223.149325
1223.149351
1223.149348
1223.149358
1223.148178
1223.148363
1223.148309
1223.148289
1223.148399
1223.148391
1223.148353
1223.148426
1223.14843
1223.148364
1223.148263
1223.148256
1223.148361
1223.148395
1223.148444
1223.149977
1223.150095
1223.150066
1223.150128
1223.150092
1223.150169
1223.150081
1223.149947
1223.150008
1223.149922
1223.150033
1223.150255
1223.150239
1223.15042
1223.150672
1223.150708
1223.150528
1223.150476
1223.15031
1223.150069
1223.14986
1223.149994
1223.150017
1223.149952
1223.150029
1223.14979
1223.149818
1223.149917
1223.150868
1223.15071
1223.150729
1223.150614
1223.150547
1223.150599
1223.150401
1223.150267
1223.150279
1223.150401
1223.150297
1223.150316
1223.150364
1223.150418
1223.14877
1223.148769
1223.148946
1223.148961
1223.149118
1223.149146
1223.149131
1223.149248
1223.149259
1223.149235
1223.149258
1223.149185
1223.149315
1223.149559
1223.150571
1223.150616
1223.150557
1223.150517
1223.150659
1223.150705
1223.15075
1223.150671
1223.150816
1223.150704
1223.150711
1223.150724
1223.150849
1223.151138
1223.150264
1223.15028
1223.150196
1223.149997
1223.149882
1223.149794
1223.149855
1223.149857
1223.149784
1223.149808
1223.149576
1223.149554
1223.14967
1223.149819
1223.148917
1223.148804
1223.148928
1223.149012
1223.14917
1223.149226
1223.149108
1223.149214
1223.149053
1223.14899
1223.149099
1223.148891
1223.148986
1223.149044
1223.149254
1223.150226
1223.150468
1223.150476
1223.150406
1223.150399
1223.150564
1223.150531
1223.150341
1223.150472
1223.150562
1223.150431
1223.150406
1223.150498
1223.150454
1223.150382
1223.150177
1223.150044
1223.150033
1223.150012
1223.149984
1223.149889
1223.149872
1223.149841
1223.149751
1223.149853
1223.150003
1223.150005
1223.149982
1223.14987
1223.149993
1223.150699
1223.150638
1223.150604
1223.150586
1223.150644
1223.150539
1223.150637
1223.150781
1223.150863
1223.150868
1223.15077
1223.150844
1223.150662
1223.150691
1223.150446
1223.150392
1223.150565
1223.150632
1223.150612
1223.150625
1223.15062
1223.15064
1223.150364
1223.150362
1223.150641
1223.150616
1223.150699
1223.150647
1223.152451
1223.152477
1223.152473
1223.152356
1223.152396
1223.152474
1223.152475
1223.152606
1223.152614
1223.152654
1223.15272
1223.152754
1223.152584
1223.152489
1223.150483
1223.150416
1223.150546
1223.150563
1223.150519
1223.15066
1223.150655
1223.150468
1223.150331
1223.150384
1223.150455
1223.150332
1223.150569
1223.150507
1223.150244
1223.150279
1223.150361
1223.150466
1223.150577
1223.150664
1223.150619
1223.150496
1223.150359
1223.150488
1223.150317
1223.150226
1223.150268
1223.15035
1223.148222
1223.148219
1223.148271
1223.148184
1223.148103
1223.148107
1223.148054
1223.148075
1223.148123
1223.148117
1223.148002
1223.148043
1223.148252
1223.148495
1223.149423
1223.14945
1223.149484
1223.14961
1223.149452
1223.149753
1223.149918
1223.149879
1223.149892
1223.149806
1223.149782
1223.149597
1223.149743
1223.149825
1223.154218
1223.154159
1223.154114
1223.153958
1223.154
1223.153732
1223.153732
1223.153833
1223.153953
1223.153875
1223.153968
1223.153989
1223.153962
1223.153805
1223.153957
1223.14925
1223.149205
1223.149258
1223.149295
1223.149263
1223.149449
1223.149427
1223.149505
1223.14945
1223.149369
1223.149398
1223.149346
1223.149332
1223.149333
1223.149377
1223.151398
1223.151283
1223.151294
1223.151325
1223.151199
1223.151208
1223.15105
1223.150964
1223.150989
1223.151143
1223.151129
1223.151183
1223.151219
1223.15122
1223.151873
1223.152007
1223.152162
1223.152222
1223.152039
1223.152055
1223.151919
1223.151714
1223.151591
1223.151542
1223.151487
1223.151617
1223.151767
1223.151845
1223.150438
1223.150413
1223.150401
1223.150388
1223.150297
1223.150323
1223.150256
1223.150343
1223.150594
1223.150657
1223.15051
1223.150605
1223.150841
1223.150922
1223.1518
1223.151782
1223.151881
1223.151778
1223.151851
1223.151652
1223.15183
1223.151876
1223.151825
1223.151772
1223.151862
1223.151983
1223.15202
1223.152016
1223.149602
1223.149422
1223.149288
1223.1492
1223.149235
1223.149059
1223.14901
1223.148994
1223.148942
1223.14883
1223.148884
1223.148821
1223.148776
1223.148762
1223.150349
1223.150548
1223.150593
1223.150556
1223.150477
1223.150427
1223.150462
1223.1504
1223.150285
1223.150343
1223.150413
1223.150234
1223.150246
1223.150265
1223.149801
1223.149715
1223.149765
1223.149911
1223.149972
1223.149783
1223.149793
1223.149948
1223.150098
1223.150027
1223.150126
1223.150064
1223.150205
1223.150187
1223.146475
1223.146451
1223.146517
1223.146693
1223.146624
1223.146884
1223.146836
1223.146984
1223.147049
1223.147069
1223.146973
1223.146869
1223.146973
1223.147163
1223.14938
1223.149444
1223.149547
1223.149585
1223.149521
1223.149681
1223.149521
1223.149515
1223.149509
1223.149477
1223.149522
1223.149516
1223.149407
1223.149332
1223.149478
1223.149212
1223.149173
1223.149156
1223.14929
1223.149383
1223.149308
1223.149224
1223.149147
1223.14923
1223.149249
1223.1494
1223.149344
1223.149307
1223.149362
1223.151787
1223.151756
1223.151716
1223.151593
1223.151643
1223.151603
1223.151543
1223.15168
1223.151666
1223.151765
1223.151663
1223.151732
1223.151723
1223.151797
1223.150451
1223.150474
1223.150477
1223.15042
1223.150458
1223.150477
1223.15063
1223.150649
1223.150653
1223.150527
1223.150532
1223.150537
1223.150415
1223.150449
1223.148874
1223.148961
1223.148986
1223.14891
1223.148683
1223.148759
1223.148969
1223.149075
1223.148855
1223.148766
1223.148804
1223.148805
1223.148901
1223.148835
1223.148317
1223.148333
1223.148321
1223.148216
1223.148411
1223.148446
1223.148412
1223.148312
1223.148401
1223.148545
1223.148564
1223.14867
1223.14852
1223.148387
1223.150983
1223.151027
1223.151064
1223.15107
1223.150912
1223.151014
1223.15099
1223.150911
1223.150913
1223.150958
1223.150964
1223.151048
1223.150922
1223.151189
1223.150755
1223.15073
1223.150697
1223.150779
1223.150716
1223.150867
1223.150841
1223.150771
1223.150874
1223.150821
1223.150745
1223.150636
1223.150457
1223.150514
1223.149723
1223.149717
1223.149717
1223.149779
1223.149811
1223.149804
1223.149735
1223.149752
1223.149878
1223.149988
1223.150024
1223.150083
1223.150257
1223.150275
1223.150667
1223.150683
1223.150659
1223.150759
1223.150636
1223.150753
1223.150766
1223.150691
1223.150759
1223.150806
1223.150824
1223.150865
1223.150983
1223.151043
)
;

boundaryField
{
    top
    {
        type            zeroGradient;
    }
    bottom
    {
        type            zeroGradient;
    }
    side-walls
    {
        type            zeroGradient;
    }
    inlet
    {
        type            zeroGradient;
    }
    outlet
    {
        type            zeroGradient;
    }
    procBoundary0to1
    {
        type            processor;
        value           nonuniform List<scalar> 
97
(
1223.151365
1223.151952
1223.152428
1223.152298
1223.150022
1223.150721
1223.148783
1223.150066
1223.149619
1223.150256
1223.151952
1223.151952
1223.149186
1223.150727
1223.149468
1223.149096
1223.153585
1223.148984
1223.149264
1223.151308
1223.150651
1223.151548
1223.150727
1223.150727
1223.148009
1223.150682
1223.151652
1223.15087
1223.150622
1223.150904
1223.149987
1223.150965
1223.149595
1223.1514
1223.150682
1223.150682
1223.153577
1223.1199
1223.120429
1223.149337
1223.153273
1223.151124
1223.151873
1223.15126
1223.149321
1223.150301
1223.1199
1223.1199
1207.478118
1223.121303
1223.1196
1223.150018
1223.152201
1223.149506
1223.148439
1223.150377
1223.149978
1223.150426
1223.149733
1223.121303
1223.150018
1223.150018
1223.149272
1223.149695
1223.15046
1223.15002
1223.150773
1223.150725
1223.152532
1223.150647
1223.150552
1223.148643
1223.149695
1223.149695
1223.153837
1223.147097
1223.149524
1223.151171
1223.151943
1223.151032
1223.152048
1223.148829
1223.150095
1223.150194
1223.147097
1223.147097
1223.149336
1223.150872
1223.149369
1223.152113
1223.150403
1223.148899
1223.148456
1223.151239
1223.150638
1223.150265
1223.150872
)
;
    }
}


// ************************************************************************* //
