/*--------------------------------*- C++ -*----------------------------------*\
| =========                 |                                                 |
| \\      /  F ield         | OpenFOAM: The Open Source CFD Toolbox           |
|  \\    /   O peration     | Version:  4.x                                   |
|   \\  /    A nd           | Web:      www.OpenFOAM.org                      |
|    \\/     M anipulation  |                                                 |
\*---------------------------------------------------------------------------*/
FoamFile
{
    version     2.0;
    format      ascii;
    class       volScalarField;
    location    "1000";
    object      X_CO2;
}
// * * * * * * * * * * * * * * * * * * * * * * * * * * * * * * * * * * * * * //

dimensions      [0 0 0 0 0 0 0];

internalField   nonuniform List<scalar> 
1175
(
2.098004108e-10
2.109546369e-10
2.164389427e-10
2.376097203e-10
3.142203499e-10
5.818862869e-10
1.489048953e-09
4.463461827e-09
1.384457026e-08
4.2083737e-08
1.224167666e-07
3.357494073e-07
8.568769771e-07
2.008681744e-06
4.276966391e-06
2.106356328e-10
2.120154985e-10
2.186600394e-10
2.448272431e-10
3.419073918e-10
6.910130978e-10
1.912994013e-09
6.064132433e-09
1.966675309e-08
6.229952246e-08
1.88676385e-07
5.378565705e-07
1.420359991e-06
3.413737068e-06
7.339825232e-06
2.119360926e-10
2.136829897e-10
2.222306337e-10
2.567009477e-10
3.883681374e-10
8.778688816e-10
2.655556297e-09
8.941740713e-09
3.044946316e-08
1.010114003e-07
3.202878927e-07
9.550151656e-07
2.627530751e-06
6.51639642e-06
1.419557582e-05
2.131017049e-10
2.15195432e-10
2.255615876e-10
2.681004879e-10
4.341129138e-10
1.066759163e-09
3.429234703e-09
1.204771466e-08
4.257580731e-08
1.466457426e-07
4.838398491e-07
1.503824042e-06
4.309761236e-06
1.106076289e-05
2.449017678e-05
2.135681425e-10
2.158062434e-10
2.269364614e-10
2.729147045e-10
4.53852669e-10
1.150264817e-09
3.781517898e-09
1.351483993e-08
4.857015962e-08
1.704948557e-07
5.75217858e-07
1.835202401e-06
5.415860332e-06
1.430478865e-05
3.221678679e-05
2.131013223e-10
2.151950392e-10
2.255611367e-10
2.680997703e-10
4.341110393e-10
1.066752479e-09
3.429208696e-09
1.204761217e-08
4.257540798e-08
1.466442417e-07
4.838344332e-07
1.503805883e-06
4.309705593e-06
1.106061788e-05
2.448987542e-05
2.119353277e-10
2.13682217e-10
2.222297966e-10
2.566997512e-10
3.883653532e-10
8.778595695e-10
2.655521267e-09
8.941606115e-09
3.04489507e-08
1.010095145e-07
3.202812304e-07
9.549930831e-07
2.62746376e-06
6.516220125e-06
1.419519624e-05
2.10634466e-10
2.120143628e-10
2.186589419e-10
2.44825906e-10
3.419046765e-10
6.910044586e-10
1.912961895e-09
6.064009838e-09
1.966629616e-08
6.229786947e-08
1.88670632e-07
5.378375979e-07
1.420302363e-06
3.413581939e-06
7.339480099e-06
2.097988256e-10
2.109531469e-10
2.164376963e-10
2.376084254e-10
3.142179639e-10
5.818788064e-10
1.489021093e-09
4.463356447e-09
1.384418196e-08
4.208234852e-08
1.224120002e-07
3.357338615e-07
8.568295316e-07
2.008549279e-06
4.276648269e-06
2.106356997e-10
2.120155718e-10
2.186601461e-10
2.448274943e-10
3.419082486e-10
6.910163755e-10
1.913007045e-09
6.064183646e-09
1.966695155e-08
6.230027943e-08
1.886792236e-07
5.378671968e-07
1.420400593e-06
3.413902192e-06
2.115755225e-10
2.1325203e-10
2.214550433e-10
2.545444303e-10
3.810572495e-10
8.522962415e-10
2.568939628e-09
8.665935943e-09
2.964680982e-08
9.896982604e-08
3.161698325e-07
9.504510074e-07
2.635967378e-06
6.579646535e-06
1.43739878e-05
2.13043972e-10
2.152081313e-10
2.260011078e-10
2.707867888e-10
4.48099831e-10
1.135654901e-09
3.755800116e-09
1.353799163e-08
4.909344409e-08
1.737460575e-07
5.897028465e-07
1.885608598e-06
5.548574735e-06
1.454117997e-05
3.250347344e-05
2.143659594e-10
2.169973113e-10
2.303075625e-10
2.867107602e-10
5.159176761e-10
1.432209561e-09
5.048420542e-09
1.910071649e-08
7.256585352e-08
2.700236993e-07
9.688132452e-07
3.292040336e-06
1.032266501e-05
2.868315789e-05
6.628045249e-05
2.148967824e-10
2.177248661e-10
2.321085027e-10
2.935631857e-10
5.459380488e-10
1.567910552e-09
5.664970071e-09
2.189663482e-08
8.516345465e-08
3.260601291e-07
1.212264982e-06
4.30643389e-06
1.42504155e-05
4.202069856e-05
0.0001015595473
2.143655929e-10
2.169969369e-10
2.30307138e-10
2.867100825e-10
5.159157691e-10
1.43220198e-09
5.048386752e-09
1.910056488e-08
7.256517748e-08
2.700207581e-07
9.688009917e-07
3.291992537e-06
1.032249294e-05
2.868263181e-05
6.627923068e-05
2.130432489e-10
2.152074111e-10
2.260003575e-10
2.70785786e-10
4.480974885e-10
1.135646286e-09
3.755763004e-09
1.35378286e-08
4.90927301e-08
1.737430161e-07
5.896904136e-07
1.885560517e-06
5.548403407e-06
1.454065347e-05
3.250220863e-05
2.115744318e-10
2.132509989e-10
2.214540874e-10
2.545433288e-10
3.810549862e-10
8.522883339e-10
2.568906667e-09
8.66579546e-09
2.964622069e-08
9.896741903e-08
3.161603924e-07
9.504155297e-07
2.635842374e-06
6.579249024e-06
1.43729192e-05
2.106342245e-10
2.120142679e-10
2.186591069e-10
2.448264051e-10
3.419059367e-10
6.910080939e-10
1.912973398e-09
6.064047338e-09
1.966641439e-08
6.229822339e-08
1.886716449e-07
5.378402327e-07
1.420308544e-06
3.413594616e-06
7.339500212e-06
2.119362857e-10
2.136832027e-10
2.222309505e-10
2.567017174e-10
3.883708154e-10
8.778793752e-10
2.655598613e-09
8.941910321e-09
3.045012955e-08
1.010139693e-07
3.202974846e-07
9.550498885e-07
2.627650811e-06
6.516779376e-06
2.130441037e-10
2.152082839e-10
2.260013636e-10
2.707874938e-10
4.481024e-10
1.135665174e-09
3.755842087e-09
1.353816341e-08
4.909413644e-08
1.737488315e-07
5.897138592e-07
1.885652224e-06
5.548749909e-06
1.454192556e-05
2.147832581e-10
2.17641921e-10
2.322233335e-10
2.947749233e-10
5.527971136e-10
1.601955915e-09
5.820495285e-09
2.254482964e-08
8.752804424e-08
3.327502619e-07
1.219357675e-06
4.227795953e-06
1.349874062e-05
3.804374016e-05
8.85172835e-05
2.163584687e-10
2.198932208e-10
2.382300006e-10
3.188774803e-10
6.620445725e-10
2.109567139e-09
8.183965984e-09
3.349300972e-08
1.376954768e-07
5.583796268e-07
2.203540243e-06
8.313331822e-06
2.914122706e-05
9.027481266e-05
0.0002244740242
2.169939856e-10
2.208173555e-10
2.407838575e-10
3.294877538e-10
7.118996084e-10
2.351542437e-09
9.374703259e-09
3.941049488e-08
1.673174887e-07
7.07033396e-07
2.944555588e-06
1.192136212e-05
4.578002687e-05
0.0001586292421
0.0004400212471
2.16358116e-10
2.198928491e-10
2.382295213e-10
3.188764606e-10
6.620409626e-10
2.109551113e-09
8.183890532e-09
3.34926497e-08
1.37693764e-07
5.583715788e-07
2.203503063e-06
8.313167604e-06
2.914054347e-05
9.027232385e-05
0.0002244672167
2.147825839e-10
2.176412546e-10
2.322226526e-10
2.947740053e-10
5.527946987e-10
1.601945405e-09
5.820443107e-09
2.254456806e-08
8.752675963e-08
3.327440842e-07
1.219328929e-06
4.227668003e-06
1.349820687e-05
3.804176028e-05
8.851133374e-05
2.130430905e-10
2.152073258e-10
2.260004518e-10
2.707862845e-10
4.480992725e-10
1.13565268e-09
3.755786416e-09
1.353791446e-08
4.909303816e-08
1.737440783e-07
5.896938454e-07
1.8855705e-06
5.548428902e-06
1.454070706e-05
3.250227047e-05
2.119349309e-10
2.136820233e-10
2.222300359e-10
2.567007074e-10
3.883682572e-10
8.778689711e-10
2.655553303e-09
8.941715441e-09
3.044931423e-08
1.010106602e-07
3.202846259e-07
9.550022155e-07
2.627485628e-06
6.516264317e-06
1.419525625e-05
2.131020628e-10
2.151958276e-10
2.25562179e-10
2.681019381e-10
4.341179961e-10
1.066779392e-09
3.429317356e-09
1.204805064e-08
4.257715344e-08
1.466509947e-07
4.838596293e-07
1.503895215e-06
4.309998977e-06
1.106146287e-05
2.143662569e-10
2.169976491e-10
2.303081078e-10
2.867122279e-10
5.159231439e-10
1.432232275e-09
5.048517645e-09
1.910113316e-08
7.256763323e-08
2.700312624e-07
9.688447765e-07
3.292169149e-06
1.032316547e-05
2.868492035e-05
2.163586367e-10
2.198934071e-10
2.382302903e-10
3.188782637e-10
6.620476923e-10
2.109581385e-09
8.18403354e-09
3.349333734e-08
1.37697074e-07
5.583875186e-07
2.203579079e-06
8.31352459e-06
2.914217863e-05
9.027959264e-05
2.181722869e-10
2.225975824e-10
2.459961787e-10
3.518524924e-10
8.185434977e-10
2.872454455e-09
1.193647094e-08
5.203061371e-08
2.29334701e-07
1.009163987e-06
4.389196594e-06
1.85890101e-05
7.462856822e-05
0.0002691349752
0.0007669765504
2.189069834e-10
2.23716755e-10
2.493450171e-10
3.666590678e-10
8.919564716e-10
3.25037059e-09
1.3930794e-08
6.281526306e-08
2.891335979e-07
1.348668101e-06
6.352346184e-06
3.001595712e-05
0.0001400443734
0.0006195245528
0.002288067212
2.181719501e-10
2.225972132e-10
2.459956334e-10
3.518510806e-10
8.185379055e-10
2.872428073e-09
1.193634214e-08
5.202997023e-08
2.293314112e-07
1.00914698e-06
4.389107834e-06
1.858854847e-05
7.462621807e-05
0.0002691238816
0.0007669339457
2.163580049e-10
2.198927814e-10
2.38229636e-10
3.18877287e-10
6.620446752e-10
2.109566815e-09
8.183956285e-09
3.349292308e-08
1.37694878e-07
5.583759818e-07
2.203520082e-06
8.313228334e-06
2.914073565e-05
9.027280716e-05
0.0002244677627
2.143653133e-10
2.169967618e-10
2.303072668e-10
2.867110631e-10
5.159197807e-10
1.432217558e-09
5.048447671e-09
1.910079887e-08
7.256606032e-08
2.700239815e-07
9.688120717e-07
3.292027686e-06
1.032259061e-05
2.868284915e-05
6.627946483e-05
2.131007984e-10
2.151947427e-10
2.255613721e-10
2.68101063e-10
4.341155494e-10
1.066768354e-09
3.429265775e-09
1.204781581e-08
4.257611524e-08
1.466465775e-07
4.838417101e-07
1.503826548e-06
4.309757323e-06
1.10607247e-05
2.449000475e-05
2.135686771e-10
2.158068324e-10
2.269373315e-10
2.729168087e-10
4.538599777e-10
1.150293779e-09
3.781635984e-09
1.35153194e-08
4.857207773e-08
1.705023261e-07
5.752458995e-07
1.83530238e-06
5.416188034e-06
1.430571718e-05
2.148972519e-10
2.177253792e-10
2.321092572e-10
2.93565066e-10
5.45945007e-10
1.567940317e-09
5.665101645e-09
2.189722322e-08
8.516607879e-08
3.260717017e-07
1.21231504e-06
4.306642745e-06
1.42512275e-05
4.202339873e-05
2.169943441e-10
2.208177608e-10
2.407845228e-10
3.294896731e-10
7.119074444e-10
2.351578642e-09
9.374876587e-09
3.941133941e-08
1.673216562e-07
7.070541974e-07
2.944659998e-06
1.192188136e-05
4.578251874e-05
0.0001586399276
2.189071776e-10
2.237169785e-10
2.493454116e-10
3.666603323e-10
8.919620833e-10
3.250398414e-09
1.39309379e-08
6.281602624e-08
2.891378209e-07
1.348692366e-06
6.352491345e-06
3.001686958e-05
0.0001400504064
0.0006195663815
2.196833834e-10
2.249212833e-10
2.530618877e-10
3.835219379e-10
9.77735742e-10
3.706225042e-09
1.644055039e-08
7.719023285e-08
3.753221411e-07
1.892671189e-06
9.980705181e-06
5.562179142e-05
0.0003310255563
0.002121276757
0.01483543308
2.189068717e-10
2.237166603e-10
2.493450125e-10
3.666594742e-10
8.919587225e-10
3.250381214e-09
1.39308432e-08
6.281549743e-08
2.891347155e-07
1.348673487e-06
6.35237246e-06
3.001608264e-05
0.0001400449421
0.000619526848
0.002288071921
2.169937537e-10
2.208171758e-10
2.407839045e-10
3.294887072e-10
7.119043381e-10
2.351563217e-09
9.37479402e-09
3.941088812e-08
1.673191876e-07
7.070406497e-07
2.944586078e-06
1.192148447e-05
4.578046805e-05
0.0001586304632
0.0004400226148
2.148963686e-10
2.177245525e-10
2.321084781e-10
2.935639586e-10
5.459416706e-10
1.567925411e-09
5.665029757e-09
2.189687572e-08
8.516441051e-08
3.260638155e-07
1.212278455e-06
4.306480434e-06
1.425055626e-05
4.202102932e-05
0.0001015598466
2.13567478e-10
2.158058012e-10
2.269365296e-10
2.729157461e-10
4.538566017e-10
1.15027905e-09
3.781570029e-09
1.351503037e-08
4.857083996e-08
1.704971622e-07
5.752252853e-07
1.835224312e-06
5.415916538e-06
1.430490454e-05
3.221687705e-05
2.131020242e-10
2.1519581e-10
2.255622589e-10
2.681024006e-10
4.341199069e-10
1.066786644e-09
3.429343972e-09
1.20481445e-08
4.257746129e-08
1.466519271e-07
4.838619986e-07
1.50389902e-06
4.309993785e-06
1.1061384e-05
2.143662402e-10
2.16997656e-10
2.303082304e-10
2.867128353e-10
5.15925687e-10
1.43224265e-09
5.048558931e-09
1.910129448e-08
7.256824835e-08
2.700334343e-07
9.688515866e-07
3.292184705e-06
1.032316273e-05
2.868459947e-05
2.163586572e-10
2.198934649e-10
2.382305367e-10
3.188793481e-10
6.620523773e-10
2.109601744e-09
8.184122542e-09
3.349372306e-08
1.376987336e-07
5.583944373e-07
2.203606455e-06
8.313617267e-06
2.914235919e-05
9.027845839e-05
2.181723341e-10
2.225976605e-10
2.459964308e-10
3.518535972e-10
8.185486811e-10
2.872479376e-09
1.193659382e-08
5.203122792e-08
2.293377823e-07
1.00917965e-06
4.389276342e-06
1.858941058e-05
7.463044539e-05
0.0002691417806
2.189070672e-10
2.237168951e-10
2.493454648e-10
3.666610118e-10
8.919656098e-10
3.250414868e-09
1.393101438e-08
6.281638609e-08
2.891394744e-07
1.348699973e-06
6.352525799e-06
3.001701404e-05
0.0001400509087
0.000619566996
2.181720516e-10
2.22597371e-10
2.459960901e-10
3.518529555e-10
8.185464183e-10
2.872468553e-09
1.193653726e-08
5.203093597e-08
2.293362592e-07
1.009171695e-06
4.389235777e-06
1.858921392e-05
7.462964785e-05
0.0002691404688
2.163581005e-10
2.19892901e-10
2.382298906e-10
3.188781901e-10
6.6204866e-10
2.109585481e-09
8.184046411e-09
3.349335888e-08
1.376969974e-07
5.583862448e-07
2.203568836e-06
8.313453744e-06
2.914171797e-05
9.027638571e-05
0.0002244789604
2.14365416e-10
2.169968872e-10
2.303075092e-10
2.867118224e-10
5.159227846e-10
1.432230351e-09
5.048502976e-09
1.910103962e-08
7.25670973e-08
2.700283727e-07
9.688302051e-07
3.292099229e-06
1.032285325e-05
2.868367831e-05
6.628132375e-05
2.131009032e-10
2.151948631e-10
2.25561571e-10
2.681015924e-10
4.341174333e-10
1.066775873e-09
3.429296346e-09
1.204793964e-08
4.257660833e-08
1.466484827e-07
4.838487724e-07
1.503851196e-06
4.309835627e-06
1.106093776e-05
2.449041835e-05
2.119361544e-10
2.13683112e-10
2.222310344e-10
2.567024285e-10
3.883737952e-10
8.778906542e-10
2.655639327e-09
8.942051561e-09
3.045059045e-08
1.010153431e-07
3.203009801e-07
9.55055947e-07
2.627646915e-06
6.516680911e-06
2.130440269e-10
2.152082638e-10
2.260015906e-10
2.707886676e-10
4.481072417e-10
1.135684308e-09
3.755915963e-09
1.353844187e-08
4.909515471e-08
1.737523196e-07
5.89724698e-07
1.885679779e-06
5.548782648e-06
1.45416713e-05
2.147832602e-10
2.176420084e-10
2.322238119e-10
2.947770088e-10
5.528057928e-10
1.601991971e-09
5.820644527e-09
2.254544047e-08
8.75305016e-08
3.327598383e-07
1.21939314e-06
4.227916068e-06
1.349908402e-05
3.804432777e-05
2.163585261e-10
2.19893361e-10
2.382305403e-10
3.188797495e-10
6.620544016e-10
2.10961048e-09
8.184159645e-09
3.349387945e-08
1.376993737e-07
5.583969826e-07
2.203616179e-06
8.313651475e-06
2.914245613e-05
9.027849321e-05
2.169940957e-10
2.208175583e-10
2.407845207e-10
3.294904767e-10
7.119116628e-10
2.351597318e-09
9.374958283e-09
3.941169242e-08
1.673231785e-07
7.07060581e-07
2.944685944e-06
1.192197933e-05
4.578281946e-05
0.0001586398488
2.163582582e-10
2.198930751e-10
2.382301579e-10
3.188789128e-10
6.620515421e-10
2.109598727e-09
8.184108905e-09
3.349365768e-08
1.376984135e-07
5.583929543e-07
2.20359982e-06
8.313590005e-06
2.914226342e-05
9.027803455e-05
2.147827433e-10
2.176414805e-10
2.322231904e-10
2.947758617e-10
5.528022515e-10
1.601977891e-09
5.820585152e-09
2.254519063e-08
8.752946141e-08
3.32755675e-07
1.219377434e-06
4.227864886e-06
1.349897251e-05
3.80445484e-05
2.13043276e-10
2.152075745e-10
2.260009799e-10
2.707879151e-10
4.481053374e-10
1.135676822e-09
3.755883803e-09
1.353830624e-08
4.909458706e-08
1.737500768e-07
5.897163919e-07
1.885652049e-06
5.548706471e-06
1.454153463e-05
3.25043752e-05
2.119351252e-10
2.136822616e-10
2.222304582e-10
2.567018162e-10
3.883720118e-10
8.778830599e-10
2.655607434e-09
8.941922593e-09
3.045009093e-08
1.010134929e-07
3.202945282e-07
9.550350154e-07
2.627585616e-06
6.516531854e-06
1.419579303e-05
2.106353678e-10
2.120153245e-10
2.186601982e-10
2.448283652e-10
3.419117921e-10
6.910291204e-10
1.91305122e-09
6.06433127e-09
1.966741993e-08
6.23016526e-08
1.886827605e-07
5.378741106e-07
1.420403227e-06
3.413824479e-06
2.115752872e-10
2.132519191e-10
2.214553322e-10
2.545459345e-10
3.810630352e-10
8.523176715e-10
2.569018097e-09
8.66621648e-09
2.964777971e-08
9.897300246e-08
3.161794968e-07
9.504770708e-07
2.636023932e-06
6.579705946e-06
2.130438504e-10
2.152081543e-10
2.260016322e-10
2.707889952e-10
4.481084053e-10
1.135688414e-09
3.755930931e-09
1.353849726e-08
4.909534823e-08
1.737529726e-07
5.897267153e-07
1.885685114e-06
5.548793996e-06
1.454167445e-05
2.143659298e-10
2.169974391e-10
2.30308265e-10
2.867135136e-10
5.159285866e-10
1.43225405e-09
5.048603518e-09
1.910146719e-08
7.25688898e-08
2.700357086e-07
9.688590844e-07
3.292206433e-06
1.032321286e-05
2.868460831e-05
2.148968159e-10
2.17725047e-10
2.321092242e-10
2.935658634e-10
5.459487319e-10
1.567955387e-09
5.665161587e-09
2.189745761e-08
8.516697127e-08
3.260749632e-07
1.212326067e-06
4.30667581e-06
1.425129859e-05
4.202328309e-05
2.143656868e-10
2.169971857e-10
2.303079557e-10
2.867129445e-10
5.159268792e-10
1.432247544e-09
5.048577051e-09
1.910135887e-08
7.25684604e-08
2.700340616e-07
9.688531134e-07
3.292186566e-06
1.032315314e-05
2.868443351e-05
2.130433851e-10
2.152076867e-10
2.260011153e-10
2.707881731e-10
4.48106188e-10
1.135680393e-09
3.755899956e-09
1.35383767e-08
4.909489323e-08
1.737513503e-07
5.897214081e-07
1.885670569e-06
5.548768072e-06
1.454168796e-05
2.115746124e-10
2.132512963e-10
2.21454748e-10
2.545450852e-10
3.810607247e-10
8.52309385e-10
2.568987322e-09
8.666103719e-09
2.964738109e-08
9.897167908e-08
3.161755132e-07
9.50467293e-07
2.636013035e-06
6.579792616e-06
2.106344618e-10
2.120146138e-10
2.186597652e-10
2.448279275e-10
3.419104194e-10
6.910233972e-10
1.913028735e-09
6.064248363e-09
1.966713105e-08
6.23007065e-08
1.886799277e-07
5.378666958e-07
1.420388207e-06
3.413809879e-06
7.339999351e-06
2.097997569e-10
2.109541278e-10
2.164389199e-10
2.376106249e-10
3.142238564e-10
5.818982129e-10
1.489088619e-09
4.463590201e-09
1.384496804e-08
4.208488799e-08
1.224197924e-07
3.357562826e-07
8.568889593e-07
2.00868791e-06
2.106351133e-10
2.120152127e-10
2.186603279e-10
2.448287566e-10
3.419126758e-10
6.910314076e-10
1.913057953e-09
6.06435204e-09
1.966748397e-08
6.23018339e-08
1.886832381e-07
5.37875218e-07
1.420405559e-06
3.413826749e-06
2.119357245e-10
2.136828733e-10
2.222311722e-10
2.567030622e-10
3.883755379e-10
8.778957872e-10
2.6556559e-09
8.94210573e-09
3.045076496e-08
1.01015863e-07
3.203024116e-07
9.550592236e-07
2.627652616e-06
6.516678479e-06
2.131014539e-10
2.151954472e-10
2.255623339e-10
2.681031641e-10
4.341224595e-10
1.066795199e-09
3.429373759e-09
1.204824825e-08
4.257781225e-08
1.466530281e-07
4.838651237e-07
1.503906524e-06
4.310006056e-06
1.106136483e-05
2.135679766e-10
2.158063458e-10
2.269373132e-10
2.729175904e-10
4.538629554e-10
1.150304281e-09
3.781673171e-09
1.351545022e-08
4.857252238e-08
1.70503712e-07
5.752497951e-07
1.835311044e-06
5.416196937e-06
1.430564058e-05
2.13101235e-10
2.151952298e-10
2.25562116e-10
2.68102912e-10
4.341220039e-10
1.066793787e-09
3.429368339e-09
1.204822587e-08
4.25777211e-08
1.466526772e-07
4.838638656e-07
1.503902294e-06
4.309993164e-06
1.106132091e-05
2.119353026e-10
2.136824571e-10
2.222307454e-10
2.567024944e-10
3.88374294e-10
8.778917808e-10
2.655641548e-09
8.942053955e-09
3.0450582e-08
1.010152674e-07
3.203006571e-07
9.550549284e-07
2.627645058e-06
6.516668602e-06
2.106345243e-10
2.12014683e-10
2.18659867e-10
2.448281645e-10
3.419111989e-10
6.910263194e-10
1.913039889e-09
6.064289901e-09
1.96672811e-08
6.230122945e-08
1.88681657e-07
5.378721658e-07
1.420404383e-06
3.413848664e-06
2.097990141e-10
2.109536127e-10
2.164386594e-10
2.376104521e-10
3.142232332e-10
5.818952613e-10
1.489076999e-09
4.463549415e-09
1.384483695e-08
4.208451159e-08
1.224189062e-07
3.357551117e-07
8.568926103e-07
2.008729765e-06
)
;

boundaryField
{
    top
    {
        type            calculated;
        value           nonuniform List<scalar> 
134
(
2.097988256e-10
2.106342245e-10
2.119349309e-10
2.131007984e-10
2.13567478e-10
2.131009032e-10
2.119351252e-10
2.106344618e-10
2.097990141e-10
2.109531469e-10
2.120142679e-10
2.136820233e-10
2.151947427e-10
2.158058012e-10
2.151948631e-10
2.136822616e-10
2.120146138e-10
2.109536127e-10
2.164376963e-10
2.186591069e-10
2.222300359e-10
2.255613721e-10
2.269365296e-10
2.25561571e-10
2.222304582e-10
2.186597652e-10
2.164386594e-10
2.376084254e-10
2.448264051e-10
2.567007074e-10
2.68101063e-10
2.729157461e-10
2.681015924e-10
2.567018162e-10
2.448279275e-10
2.376104521e-10
3.142179639e-10
3.419059367e-10
3.883682572e-10
4.341155494e-10
4.538566017e-10
4.341174333e-10
3.883720118e-10
3.419104194e-10
3.142232332e-10
5.818788064e-10
6.910080939e-10
8.778689711e-10
1.066768354e-09
1.15027905e-09
1.066775873e-09
8.778830599e-10
6.910233972e-10
5.818952613e-10
1.489021093e-09
1.912973398e-09
2.655553303e-09
3.429265775e-09
3.781570029e-09
3.429296346e-09
2.655607434e-09
1.913028735e-09
1.489076999e-09
4.463356447e-09
6.064047338e-09
8.941715441e-09
1.204781581e-08
1.351503037e-08
1.204793964e-08
8.941922593e-09
6.064248363e-09
4.463549415e-09
1.384418196e-08
1.966641439e-08
3.044931423e-08
4.257611524e-08
4.857083996e-08
4.257660833e-08
3.045009093e-08
1.966713105e-08
1.384483695e-08
4.208234852e-08
6.229822339e-08
1.010106602e-07
1.466465775e-07
1.704971622e-07
1.466484827e-07
1.010134929e-07
6.23007065e-08
4.208451159e-08
1.224120002e-07
1.886716449e-07
3.202846259e-07
4.838417101e-07
5.752252853e-07
4.838487724e-07
3.202945282e-07
1.886799277e-07
1.224189062e-07
3.357338615e-07
5.378402327e-07
9.550022155e-07
1.503826548e-06
1.835224312e-06
1.503851196e-06
9.550350154e-07
5.378666958e-07
3.357551117e-07
8.568295316e-07
1.420308544e-06
2.627485628e-06
4.309757323e-06
5.415916538e-06
4.309835627e-06
2.627585616e-06
1.420388207e-06
8.568926103e-07
2.008549279e-06
3.413594616e-06
6.516264317e-06
1.10607247e-05
1.430490454e-05
1.106093776e-05
6.516531854e-06
3.413809879e-06
2.008729765e-06
4.276648269e-06
7.339500212e-06
1.419525625e-05
2.449000475e-05
3.221687705e-05
2.449041835e-05
1.419579303e-05
7.339999351e-06
)
;
    }
    bottom
    {
        type            calculated;
        value           nonuniform List<scalar> 
127
(
2.098004108e-10
2.106356997e-10
2.119362857e-10
2.131020628e-10
2.135686771e-10
2.131020242e-10
2.119361544e-10
2.106353678e-10
2.097997569e-10
2.109546369e-10
2.120155718e-10
2.136832027e-10
2.151958276e-10
2.158068324e-10
2.1519581e-10
2.13683112e-10
2.120153245e-10
2.109541278e-10
2.164389427e-10
2.186601461e-10
2.222309505e-10
2.25562179e-10
2.269373315e-10
2.255622589e-10
2.222310344e-10
2.186601982e-10
2.164389199e-10
2.376097203e-10
2.448274943e-10
2.567017174e-10
2.681019381e-10
2.729168087e-10
2.681024006e-10
2.567024285e-10
2.448283652e-10
2.376106249e-10
3.142203499e-10
3.419082486e-10
3.883708154e-10
4.341179961e-10
4.538599777e-10
4.341199069e-10
3.883737952e-10
3.419117921e-10
3.142238564e-10
5.818862869e-10
6.910163755e-10
8.778793752e-10
1.066779392e-09
1.150293779e-09
1.066786644e-09
8.778906542e-10
6.910291204e-10
5.818982129e-10
1.489048953e-09
1.913007045e-09
2.655598613e-09
3.429317356e-09
3.781635984e-09
3.429343972e-09
2.655639327e-09
1.91305122e-09
1.489088619e-09
4.463461827e-09
6.064183646e-09
8.941910321e-09
1.204805064e-08
1.35153194e-08
1.20481445e-08
8.942051561e-09
6.06433127e-09
4.463590201e-09
1.384457026e-08
1.966695155e-08
3.045012955e-08
4.257715344e-08
4.857207773e-08
4.257746129e-08
3.045059045e-08
1.966741993e-08
1.384496804e-08
4.2083737e-08
6.230027943e-08
1.010139693e-07
1.466509947e-07
1.705023261e-07
1.466519271e-07
1.010153431e-07
6.23016526e-08
4.208488799e-08
1.224167666e-07
1.886792236e-07
3.202974846e-07
4.838596293e-07
5.752458995e-07
4.838619986e-07
3.203009801e-07
1.886827605e-07
1.224197924e-07
3.357494073e-07
5.378671968e-07
9.550498885e-07
1.503895215e-06
1.83530238e-06
1.50389902e-06
9.55055947e-07
5.378741106e-07
3.357562826e-07
8.568769771e-07
1.420400593e-06
2.627650811e-06
4.309998977e-06
5.416188034e-06
4.309993785e-06
2.627646915e-06
1.420403227e-06
8.568889593e-07
2.008681744e-06
3.413902192e-06
6.516779376e-06
1.106146287e-05
1.430571718e-05
1.1061384e-05
6.516680911e-06
3.413824479e-06
2.00868791e-06
4.276966391e-06
)
;
    }
    side-walls
    {
        type            calculated;
        value           nonuniform List<scalar> 
261
(
2.098004108e-10
2.106356328e-10
2.119360926e-10
2.131017049e-10
2.135681425e-10
2.131013223e-10
2.119353277e-10
2.10634466e-10
2.097988256e-10
2.109546369e-10
2.120154985e-10
2.136829897e-10
2.15195432e-10
2.158062434e-10
2.151950392e-10
2.13682217e-10
2.120143628e-10
2.109531469e-10
2.164389427e-10
2.186600394e-10
2.222306337e-10
2.255615876e-10
2.269364614e-10
2.255611367e-10
2.222297966e-10
2.186589419e-10
2.164376963e-10
2.376097203e-10
2.448272431e-10
2.567009477e-10
2.681004879e-10
2.729147045e-10
2.680997703e-10
2.566997512e-10
2.44825906e-10
2.376084254e-10
3.142203499e-10
3.419073918e-10
3.883681374e-10
4.341129138e-10
4.53852669e-10
4.341110393e-10
3.883653532e-10
3.419046765e-10
3.142179639e-10
5.818862869e-10
6.910130978e-10
8.778688816e-10
1.066759163e-09
1.150264817e-09
1.066752479e-09
8.778595695e-10
6.910044586e-10
5.818788064e-10
1.489048953e-09
1.912994013e-09
2.655556297e-09
3.429234703e-09
3.781517898e-09
3.429208696e-09
2.655521267e-09
1.912961895e-09
1.489021093e-09
4.463461827e-09
6.064132433e-09
8.941740713e-09
1.204771466e-08
1.351483993e-08
1.204761217e-08
8.941606115e-09
6.064009838e-09
4.463356447e-09
1.384457026e-08
1.966675309e-08
3.044946316e-08
4.257580731e-08
4.857015962e-08
4.257540798e-08
3.04489507e-08
1.966629616e-08
1.384418196e-08
4.2083737e-08
6.229952246e-08
1.010114003e-07
1.466457426e-07
1.704948557e-07
1.466442417e-07
1.010095145e-07
6.229786947e-08
4.208234852e-08
1.224167666e-07
1.88676385e-07
3.202878927e-07
4.838398491e-07
5.75217858e-07
4.838344332e-07
3.202812304e-07
1.88670632e-07
1.224120002e-07
3.357494073e-07
5.378565705e-07
9.550151656e-07
1.503824042e-06
1.835202401e-06
1.503805883e-06
9.549930831e-07
5.378375979e-07
3.357338615e-07
8.568769771e-07
1.420359991e-06
2.627530751e-06
4.309761236e-06
5.415860332e-06
4.309705593e-06
2.62746376e-06
1.420302363e-06
8.568295316e-07
2.008681744e-06
3.413737068e-06
6.51639642e-06
1.106076289e-05
1.430478865e-05
1.106061788e-05
6.516220125e-06
3.413581939e-06
2.008549279e-06
4.276966391e-06
7.339825232e-06
1.419557582e-05
2.449017678e-05
3.221678679e-05
2.448987542e-05
1.419519624e-05
7.339480099e-06
4.276648269e-06
2.097997569e-10
2.106351133e-10
2.119357245e-10
2.131014539e-10
2.135679766e-10
2.13101235e-10
2.119353026e-10
2.106345243e-10
2.097990141e-10
2.109541278e-10
2.120152127e-10
2.136828733e-10
2.151954472e-10
2.158063458e-10
2.151952298e-10
2.136824571e-10
2.12014683e-10
2.109536127e-10
2.164389199e-10
2.186603279e-10
2.222311722e-10
2.255623339e-10
2.269373132e-10
2.25562116e-10
2.222307454e-10
2.18659867e-10
2.164386594e-10
2.376106249e-10
2.448287566e-10
2.567030622e-10
2.681031641e-10
2.729175904e-10
2.68102912e-10
2.567024944e-10
2.448281645e-10
2.376104521e-10
3.142238564e-10
3.419126758e-10
3.883755379e-10
4.341224595e-10
4.538629554e-10
4.341220039e-10
3.88374294e-10
3.419111989e-10
3.142232332e-10
5.818982129e-10
6.910314076e-10
8.778957872e-10
1.066795199e-09
1.150304281e-09
1.066793787e-09
8.778917808e-10
6.910263194e-10
5.818952613e-10
1.489088619e-09
1.913057953e-09
2.6556559e-09
3.429373759e-09
3.781673171e-09
3.429368339e-09
2.655641548e-09
1.913039889e-09
1.489076999e-09
4.463590201e-09
6.06435204e-09
8.94210573e-09
1.204824825e-08
1.351545022e-08
1.204822587e-08
8.942053955e-09
6.064289901e-09
4.463549415e-09
1.384496804e-08
1.966748397e-08
3.045076496e-08
4.257781225e-08
4.857252238e-08
4.25777211e-08
3.0450582e-08
1.96672811e-08
1.384483695e-08
4.208488799e-08
6.23018339e-08
1.01015863e-07
1.466530281e-07
1.70503712e-07
1.466526772e-07
1.010152674e-07
6.230122945e-08
4.208451159e-08
1.224197924e-07
1.886832381e-07
3.203024116e-07
4.838651237e-07
5.752497951e-07
4.838638656e-07
3.203006571e-07
1.88681657e-07
1.224189062e-07
3.357562826e-07
5.37875218e-07
9.550592236e-07
1.503906524e-06
1.835311044e-06
1.503902294e-06
9.550549284e-07
5.378721658e-07
3.357551117e-07
8.568889593e-07
1.420405559e-06
2.627652616e-06
4.310006056e-06
5.416196937e-06
4.309993164e-06
2.627645058e-06
1.420404383e-06
8.568926103e-07
2.00868791e-06
3.413826749e-06
6.516678479e-06
1.106136483e-05
1.430564058e-05
1.106132091e-05
6.516668602e-06
3.413848664e-06
2.008729765e-06
)
;
    }
    inlet
    {
        type            calculated;
        value           nonuniform List<scalar> 
81
(
2.098004108e-10
2.106356328e-10
2.119360926e-10
2.131017049e-10
2.135681425e-10
2.131013223e-10
2.119353277e-10
2.10634466e-10
2.097988256e-10
2.106356997e-10
2.115755225e-10
2.13043972e-10
2.143659594e-10
2.148967824e-10
2.143655929e-10
2.130432489e-10
2.115744318e-10
2.106342245e-10
2.119362857e-10
2.130441037e-10
2.147832581e-10
2.163584687e-10
2.169939856e-10
2.16358116e-10
2.147825839e-10
2.130430905e-10
2.119349309e-10
2.131020628e-10
2.143662569e-10
2.163586367e-10
2.181722869e-10
2.189069834e-10
2.181719501e-10
2.163580049e-10
2.143653133e-10
2.131007984e-10
2.135686771e-10
2.148972519e-10
2.169943441e-10
2.189071776e-10
2.196833834e-10
2.189068717e-10
2.169937537e-10
2.148963686e-10
2.13567478e-10
2.131020242e-10
2.143662402e-10
2.163586572e-10
2.181723341e-10
2.189070672e-10
2.181720516e-10
2.163581005e-10
2.14365416e-10
2.131009032e-10
2.119361544e-10
2.130440269e-10
2.147832602e-10
2.163585261e-10
2.169940957e-10
2.163582582e-10
2.147827433e-10
2.13043276e-10
2.119351252e-10
2.106353678e-10
2.115752872e-10
2.130438504e-10
2.143659298e-10
2.148968159e-10
2.143656868e-10
2.130433851e-10
2.115746124e-10
2.106344618e-10
2.097997569e-10
2.106351133e-10
2.119357245e-10
2.131014539e-10
2.135679766e-10
2.13101235e-10
2.119353026e-10
2.106345243e-10
2.097990141e-10
)
;
    }
    outlet
    {
        type            calculated;
        value           nonuniform 0();
    }
    procBoundary0to1
    {
        type            processor;
        value           nonuniform List<scalar> 
97
(
8.228381911e-06
7.340097298e-06
1.398592921e-05
2.670108794e-05
4.532749801e-05
5.862928271e-05
4.53270305e-05
2.670047841e-05
1.398539372e-05
8.227946342e-06
7.340097298e-06
7.340097298e-06