/*--------------------------------*- C++ -*----------------------------------*\
| =========                 |                                                 |
| \\      /  F ield         | OpenFOAM: The Open Source CFD Toolbox           |
|  \\    /   O peration     | Version:  4.x                                   |
|   \\  /    A nd           | Web:      www.OpenFOAM.org                      |
|    \\/     M anipulation  |                                                 |
\*---------------------------------------------------------------------------*/
FoamFile
{
    version     2.0;
    format      ascii;
    class       volScalarField;
    location    "1000";
    object      X_CO;
}
// * * * * * * * * * * * * * * * * * * * * * * * * * * * * * * * * * * * * * //

dimensions      [0 0 0 0 0 0 0];

internalField   nonuniform List<scalar> 
1175
(
0.4000291312
0.4000291312
0.4000291312
0.4000291312
0.4000291311
0.4000291308
0.4000291299
0.4000291269
0.4000291176
0.4000290893
0.400029009
0.4000287957
0.4000282745
0.4000271227
0.4000248544
0.4000291312
0.4000291312
0.4000291312
0.4000291312
0.4000291311
0.4000291307
0.4000291295
0.4000291253
0.4000291117
0.4000290691
0.4000289427
0.4000285935
0.400027711
0.4000257177
0.4000217916
0.4000291312
0.4000291312
0.4000291312
0.4000291311
0.400029131
0.4000291305
0.4000291287
0.4000291225
0.400029101
0.4000290304
0.4000288111
0.4000281764
0.4000265039
0.400022615
0.4000149358
0.4000291312
0.4000291312
0.4000291312
0.4000291311
0.400029131
0.4000291303
0.400029128
0.4000291194
0.4000290888
0.4000289848
0.4000286476
0.4000276276
0.4000248216
0.4000180706
0.4000046412
0.4000291312
0.4000291312
0.4000291312
0.4000291311
0.4000291309
0.4000291303
0.4000291276
0.4000291179
0.4000290828
0.4000289609
0.4000285562
0.4000272962
0.4000237155
0.4000148266
0.3999969146
0.4000291312
0.4000291312
0.4000291312
0.4000291311
0.400029131
0.4000291303
0.400029128
0.4000291194
0.4000290888
0.4000289848
0.4000286476
0.4000276276
0.4000248217
0.4000180708
0.4000046415
0.4000291312
0.4000291312
0.4000291312
0.4000291311
0.400029131
0.4000291305
0.4000291287
0.4000291225
0.400029101
0.4000290304
0.4000288111
0.4000281764
0.4000265039
0.4000226152
0.4000149362
0.4000291312
0.4000291312
0.4000291312
0.4000291312
0.4000291311
0.4000291307
0.4000291295
0.4000291253
0.4000291117
0.4000290691
0.4000289427
0.4000285936
0.4000277111
0.4000257178
0.4000217919
0.4000291312
0.4000291312
0.4000291312
0.4000291312
0.4000291311
0.4000291308
0.4000291299
0.4000291269
0.4000291176
0.4000290893
0.400029009
0.4000287957
0.4000282746
0.4000271229
0.4000248548
0.4000291312
0.4000291312
0.4000291312
0.4000291312
0.4000291311
0.4000291307
0.4000291295
0.4000291253
0.4000291117
0.4000290691
0.4000289427
0.4000285935
0.400027711
0.4000257175
0.4000291312
0.4000291312
0.4000291312
0.4000291311
0.400029131
0.4000291306
0.4000291288
0.4000291227
0.4000291018
0.4000290324
0.4000288152
0.400028181
0.4000264954
0.4000225518
0.4000147574
0.4000291312
0.4000291312
0.4000291312
0.4000291311
0.400029131
0.4000291303
0.4000291276
0.4000291179
0.4000290823
0.4000289577
0.4000285417
0.4000272458
0.4000235828
0.4000145902
0.3999966279
0.4000291312
0.4000291312
0.4000291312
0.4000291311
0.4000291309
0.40002913
0.4000291264
0.4000291123
0.4000290588
0.4000288614
0.4000281626
0.4000258394
0.4000188087
0.4000004482
0.399962851
0.4000291312
0.4000291312
0.4000291312
0.4000291311
0.4000291309
0.4000291298
0.4000291257
0.4000291095
0.4000290462
0.4000288053
0.4000279191
0.400024825
0.400014881
0.3999871107
0.3999275719
0.4000291312
0.4000291312
0.4000291312
0.4000291311
0.4000291309
0.40002913
0.4000291264
0.4000291123
0.4000290588
0.4000288614
0.4000281626
0.4000258394
0.4000188089
0.4000004488
0.3999628522
0.4000291312
0.4000291312
0.4000291312
0.4000291311
0.400029131
0.4000291303
0.4000291276
0.4000291179
0.4000290823
0.4000289577
0.4000285417
0.4000272458
0.400023583
0.4000145907
0.3999966292
0.4000291312
0.4000291312
0.4000291312
0.4000291311
0.400029131
0.4000291306
0.4000291288
0.4000291227
0.4000291018
0.4000290324
0.4000288152
0.400028181
0.4000264956
0.4000225522
0.4000147585
0.4000291312
0.4000291312
0.4000291312
0.4000291312
0.4000291311
0.4000291307
0.4000291295
0.4000291253
0.4000291117
0.4000290691
0.4000289427
0.4000285936
0.4000277111
0.4000257178
0.4000217919
0.4000291312
0.4000291312
0.4000291312
0.4000291311
0.400029131
0.4000291305
0.4000291287
0.4000291225
0.400029101
0.4000290304
0.4000288111
0.4000281764
0.4000265038
0.4000226146
0.4000291312
0.4000291312
0.4000291312
0.4000291311
0.400029131
0.4000291303
0.4000291276
0.4000291179
0.4000290823
0.4000289577
0.4000285417
0.4000272458
0.4000235827
0.4000145895
0.4000291312
0.4000291312
0.4000291312
0.4000291311
0.4000291309
0.4000291298
0.4000291256
0.4000291089
0.4000290439
0.4000287987
0.400027912
0.4000249036
0.4000156327
0.3999910877
0.3999406141
0.4000291312
0.4000291312
0.4000291312
0.4000291311
0.4000291307
0.4000291293
0.4000291232
0.4000290979
0.4000289937
0.400028573
0.4000269279
0.4000208181
0.3999999902
0.3999388566
0.3998046574
0.4000291312
0.4000291312
0.4000291312
0.4000291311
0.4000291307
0.4000291291
0.400029122
0.400029092
0.4000289641
0.4000284244
0.4000261868
0.40001721
0.3999833514
0.3998705022
0.3995891102
0.4000291312
0.4000291312
0.4000291312
0.4000291311
0.4000291307
0.4000291293
0.4000291232
0.4000290979
0.4000289937
0.400028573
0.4000269279
0.4000208182
0.3999999909
0.3999388591
0.3998046642
0.4000291312
0.4000291312
0.4000291312
0.4000291311
0.4000291309
0.4000291298
0.4000291256
0.4000291089
0.4000290439
0.4000287987
0.4000279121
0.4000249037
0.4000156332
0.3999910896
0.3999406201
0.4000291312
0.4000291312
0.4000291312
0.4000291311
0.400029131
0.4000291303
0.4000291276
0.4000291179
0.4000290823
0.4000289577
0.4000285417
0.4000272458
0.400023583
0.4000145907
0.3999966291
0.4000291312
0.4000291312
0.4000291312
0.4000291311
0.400029131
0.4000291305
0.4000291287
0.4000291225
0.400029101
0.4000290304
0.4000288111
0.4000281764
0.4000265039
0.4000226151
0.4000149361
0.4000291312
0.4000291312
0.4000291312
0.4000291311
0.400029131
0.4000291303
0.400029128
0.4000291194
0.4000290888
0.4000289848
0.4000286475
0.4000276275
0.4000248214
0.4000180699
0.4000291312
0.4000291312
0.4000291312
0.4000291311
0.4000291309
0.40002913
0.4000291264
0.4000291123
0.4000290588
0.4000288614
0.4000281626
0.4000258392
0.4000188082
0.4000004465
0.4000291312
0.4000291312
0.4000291312
0.4000291311
0.4000291307
0.4000291293
0.4000291232
0.4000290979
0.4000289937
0.400028573
0.4000269278
0.4000208179
0.3999999892
0.3999388518
0.4000291312
0.4000291312
0.4000291312
0.4000291311
0.4000291306
0.4000291285
0.4000291195
0.4000290794
0.4000289021
0.4000281222
0.4000247422
0.4000105424
0.3999545028
0.3997599964
0.3992621549
0.4000291312
0.4000291312
0.4000291312
0.400029131
0.4000291305
0.4000291282
0.4000291175
0.4000290686
0.4000288423
0.4000277827
0.4000227791
0.3999991154
0.399889087
0.3994096068
0.3977410642
0.4000291312
0.4000291312
0.4000291312
0.4000291311
0.4000291306
0.4000291285
0.4000291195
0.4000290794
0.4000289021
0.4000281223
0.4000247423
0.4000105429
0.3999545052
0.3997600075
0.3992621975
0.4000291312
0.4000291312
0.4000291312
0.4000291311
0.4000291307
0.4000291293
0.4000291232
0.4000290979
0.4000289937
0.400028573
0.4000269279
0.4000208182
0.3999999907
0.3999388586
0.3998046636
0.4000291312
0.4000291312
0.4000291312
0.4000291311
0.4000291309
0.40002913
0.4000291264
0.4000291123
0.4000290588
0.4000288614
0.4000281626
0.4000258394
0.4000188088
0.4000004486
0.3999628519
0.4000291312
0.4000291312
0.4000291312
0.4000291311
0.400029131
0.4000291303
0.400029128
0.4000291194
0.4000290888
0.4000289848
0.4000286476
0.4000276276
0.4000248216
0.4000180707
0.4000046414
0.4000291312
0.4000291312
0.4000291312
0.4000291311
0.4000291309
0.4000291303
0.4000291276
0.4000291179
0.4000290828
0.4000289609
0.4000285562
0.4000272961
0.4000237152
0.4000148257
0.4000291312
0.4000291312
0.4000291312
0.4000291311
0.4000291309
0.4000291298
0.4000291257
0.4000291095
0.4000290462
0.4000288053
0.4000279191
0.4000248248
0.4000148802
0.399987108
0.4000291312
0.4000291312
0.4000291312
0.4000291311
0.4000291307
0.4000291291
0.400029122
0.400029092
0.4000289641
0.4000284243
0.4000261867
0.4000172095
0.3999833489
0.3998704915
0.4000291312
0.4000291312
0.4000291312
0.400029131
0.4000291305
0.4000291282
0.4000291175
0.4000290686
0.4000288423
0.4000277827
0.4000227789
0.3999991145
0.399889081
0.399409565
0.4000291312
0.4000291312
0.4000291311
0.400029131
0.4000291304
0.4000291277
0.400029115
0.4000290542
0.4000287561
0.4000272387
0.4000191507
0.3999735096
0.3996981058
0.3979078546
0.3851936983
0.4000291312
0.4000291312
0.4000291312
0.400029131
0.4000291305
0.4000291282
0.4000291175
0.4000290686
0.4000288423
0.4000277827
0.400022779
0.3999991153
0.3998890865
0.3994096046
0.3977410595
0.4000291312
0.4000291312
0.4000291312
0.4000291311
0.4000291307
0.4000291291
0.400029122
0.400029092
0.4000289641
0.4000284244
0.4000261868
0.4000172099
0.3999833509
0.3998705009
0.3995891088
0.4000291312
0.4000291312
0.4000291312
0.4000291311
0.4000291309
0.4000291298
0.4000291257
0.4000291095
0.4000290462
0.4000288053
0.4000279191
0.4000248249
0.4000148808
0.3999871104
0.3999275716
0.4000291312
0.4000291312
0.4000291312
0.4000291311
0.4000291309
0.4000291303
0.4000291276
0.4000291179
0.4000290828
0.4000289609
0.4000285562
0.4000272962
0.4000237155
0.4000148265
0.3999969145
0.4000291312
0.4000291312
0.4000291312
0.4000291311
0.400029131
0.4000291303
0.400029128
0.4000291194
0.4000290888
0.4000289848
0.4000286475
0.4000276275
0.4000248214
0.40001807
0.4000291312
0.4000291312
0.4000291312
0.4000291311
0.4000291309
0.40002913
0.4000291264
0.4000291123
0.4000290588
0.4000288614
0.4000281626
0.4000258392
0.4000188082
0.4000004468
0.4000291312
0.4000291312
0.4000291312
0.4000291311
0.4000291307
0.4000291293
0.4000291232
0.4000290979
0.4000289937
0.400028573
0.4000269278
0.4000208178
0.399999989
0.3999388529
0.4000291312
0.4000291312
0.4000291312
0.4000291311
0.4000291306
0.4000291285
0.4000291195
0.4000290794
0.4000289021
0.4000281222
0.4000247421
0.400010542
0.399954501
0.3997599896
0.4000291312
0.4000291312
0.4000291312
0.400029131
0.4000291305
0.4000291282
0.4000291175
0.4000290686
0.4000288423
0.4000277827
0.4000227789
0.3999991144
0.3998890805
0.3994095644
0.4000291312
0.4000291312
0.4000291312
0.4000291311
0.4000291306
0.4000291285
0.4000291195
0.4000290794
0.4000289021
0.4000281222
0.4000247422
0.4000105422
0.3999545018
0.3997599909
0.4000291312
0.4000291312
0.4000291312
0.4000291311
0.4000291307
0.4000291293
0.4000291232
0.4000290979
0.4000289937
0.400028573
0.4000269278
0.4000208179
0.3999999897
0.399938855
0.3998046524
0.4000291312
0.4000291312
0.4000291312
0.4000291311
0.4000291309
0.40002913
0.4000291264
0.4000291123
0.4000290588
0.4000288614
0.4000281626
0.4000258393
0.4000188085
0.4000004477
0.3999628501
0.4000291312
0.4000291312
0.4000291312
0.4000291311
0.400029131
0.4000291303
0.400029128
0.4000291194
0.4000290888
0.4000289848
0.4000286476
0.4000276276
0.4000248216
0.4000180705
0.400004641
0.4000291312
0.4000291312
0.4000291312
0.4000291311
0.400029131
0.4000291305
0.4000291287
0.4000291225
0.400029101
0.4000290304
0.4000288111
0.4000281763
0.4000265038
0.4000226147
0.4000291312
0.4000291312
0.4000291312
0.4000291311
0.400029131
0.4000291303
0.4000291276
0.4000291179
0.4000290823
0.4000289577
0.4000285417
0.4000272457
0.4000235826
0.4000145897
0.4000291312
0.4000291312
0.4000291312
0.4000291311
0.4000291308
0.4000291298
0.4000291256
0.4000291089
0.4000290439
0.4000287986
0.400027912
0.4000249035
0.4000156323
0.3999910871
0.4000291312
0.4000291312
0.4000291312
0.4000291311
0.4000291307
0.4000291293
0.4000291232
0.4000290979
0.4000289937
0.400028573
0.4000269278
0.4000208178
0.3999999889
0.3999388529
0.4000291312
0.4000291312
0.4000291312
0.4000291311
0.4000291307
0.4000291291
0.400029122
0.400029092
0.4000289641
0.4000284243
0.4000261867
0.4000172094
0.3999833486
0.3998704916
0.4000291312
0.4000291312
0.4000291312
0.4000291311
0.4000291307
0.4000291293
0.4000291232
0.4000290979
0.4000289937
0.400028573
0.4000269278
0.4000208178
0.3999999891
0.3999388534
0.4000291312
0.4000291312
0.4000291312
0.4000291311
0.4000291308
0.4000291298
0.4000291256
0.4000291089
0.4000290439
0.4000287986
0.400027912
0.4000249035
0.4000156324
0.3999910869
0.4000291312
0.4000291312
0.4000291312
0.4000291311
0.400029131
0.4000291303
0.4000291276
0.4000291179
0.4000290823
0.4000289577
0.4000285417
0.4000272458
0.4000235827
0.4000145899
0.399996627
0.4000291312
0.4000291312
0.4000291312
0.4000291311
0.400029131
0.4000291305
0.4000291287
0.4000291225
0.400029101
0.4000290304
0.4000288111
0.4000281764
0.4000265038
0.4000226149
0.4000149356
0.4000291312
0.4000291312
0.4000291312
0.4000291312
0.4000291311
0.4000291307
0.4000291295
0.4000291253
0.4000291117
0.4000290691
0.4000289427
0.4000285935
0.400027711
0.4000257176
0.4000291312
0.4000291312
0.4000291312
0.4000291311
0.400029131
0.4000291306
0.4000291288
0.4000291227
0.4000291018
0.4000290324
0.4000288152
0.4000281809
0.4000264954
0.4000225517
0.4000291312
0.4000291312
0.4000291312
0.4000291311
0.400029131
0.4000291303
0.4000291276
0.4000291179
0.4000290823
0.4000289576
0.4000285417
0.4000272457
0.4000235826
0.4000145897
0.4000291312
0.4000291312
0.4000291312
0.4000291311
0.4000291309
0.40002913
0.4000291264
0.4000291123
0.4000290588
0.4000288614
0.4000281625
0.4000258392
0.4000188082
0.4000004468
0.4000291312
0.4000291312
0.4000291312
0.4000291311
0.4000291309
0.4000291298
0.4000291257
0.4000291095
0.4000290462
0.4000288053
0.4000279191
0.4000248247
0.4000148801
0.3999871081
0.4000291312
0.4000291312
0.4000291312
0.4000291311
0.4000291309
0.40002913
0.4000291264
0.4000291123
0.4000290588
0.4000288614
0.4000281625
0.4000258392
0.4000188082
0.400000447
0.4000291312
0.4000291312
0.4000291312
0.4000291311
0.400029131
0.4000291303
0.4000291276
0.4000291179
0.4000290823
0.4000289577
0.4000285417
0.4000272457
0.4000235826
0.4000145897
0.4000291312
0.4000291312
0.4000291312
0.4000291311
0.400029131
0.4000291306
0.4000291288
0.4000291227
0.4000291018
0.4000290324
0.4000288152
0.4000281809
0.4000264954
0.4000225516
0.4000291312
0.4000291312
0.4000291312
0.4000291312
0.4000291311
0.4000291307
0.4000291295
0.4000291253
0.4000291117
0.4000290691
0.4000289427
0.4000285935
0.400027711
0.4000257176
0.4000217914
0.4000291312
0.4000291312
0.4000291312
0.4000291312
0.4000291311
0.4000291308
0.4000291299
0.4000291269
0.4000291176
0.4000290893
0.400029009
0.4000287956
0.4000282745
0.4000271227
0.4000291312
0.4000291312
0.4000291312
0.4000291312
0.4000291311
0.4000291307
0.4000291295
0.4000291253
0.4000291117
0.4000290691
0.4000289427
0.4000285935
0.400027711
0.4000257176
0.4000291312
0.4000291312
0.4000291312
0.4000291311
0.400029131
0.4000291305
0.4000291287
0.4000291225
0.400029101
0.4000290304
0.4000288111
0.4000281763
0.4000265038
0.4000226147
0.4000291312
0.4000291312
0.4000291312
0.4000291311
0.400029131
0.4000291303
0.400029128
0.4000291194
0.4000290888
0.4000289847
0.4000286475
0.4000276275
0.4000248214
0.40001807
0.4000291312
0.4000291312
0.4000291312
0.4000291311
0.4000291309
0.4000291303
0.4000291276
0.4000291179
0.4000290828
0.4000289609
0.4000285562
0.4000272961
0.4000237152
0.4000148258
0.4000291312
0.4000291312
0.4000291312
0.4000291311
0.400029131
0.4000291303
0.400029128
0.4000291194
0.4000290888
0.4000289848
0.4000286475
0.4000276275
0.4000248214
0.4000180701
0.4000291312
0.4000291312
0.4000291312
0.4000291311
0.400029131
0.4000291305
0.4000291287
0.4000291225
0.400029101
0.4000290304
0.4000288111
0.4000281763
0.4000265038
0.4000226147
0.4000291312
0.4000291312
0.4000291312
0.4000291312
0.4000291311
0.4000291307
0.4000291295
0.4000291253
0.4000291117
0.4000290691
0.4000289427
0.4000285935
0.400027711
0.4000257176
0.4000291312
0.4000291312
0.4000291312
0.4000291312
0.4000291311
0.4000291308
0.4000291299
0.4000291269
0.4000291176
0.4000290893
0.400029009
0.4000287956
0.4000282745
0.4000271227
)
;

boundaryField
{
    top
    {
        type            calculated;
        value           nonuniform List<scalar> 
134
(
0.4000291312
0.4000291312
0.4000291312
0.4000291312
0.4000291312
0.4000291312
0.4000291312
0.4000291312
0.4000291312
0.4000291312
0.4000291312
0.4000291312
0.4000291312
0.4000291312
0.4000291312
0.4000291312
0.4000291312
0.4000291312
0.4000291312
0.4000291312
0.4000291312
0.4000291312
0.4000291312
0.4000291312
0.4000291312
0.4000291312
0.4000291312
0.4000291312
0.4000291312
0.4000291311
0.4000291311
0.4000291311
0.4000291311
0.4000291311
0.4000291312
0.4000291312
0.4000291311
0.4000291311
0.400029131
0.400029131
0.4000291309
0.400029131
0.400029131
0.4000291311
0.4000291311
0.4000291308
0.4000291307
0.4000291305
0.4000291303
0.4000291303
0.4000291303
0.4000291305
0.4000291307
0.4000291308
0.4000291299
0.4000291295
0.4000291287
0.400029128
0.4000291276
0.400029128
0.4000291287
0.4000291295
0.4000291299
0.4000291269
0.4000291253
0.4000291225
0.4000291194
0.4000291179
0.4000291194
0.4000291225
0.4000291253
0.4000291269
0.4000291176
0.4000291117
0.400029101
0.4000290888
0.4000290828
0.4000290888
0.400029101
0.4000291117
0.4000291176
0.4000290893
0.4000290691
0.4000290304
0.4000289848
0.4000289609
0.4000289848
0.4000290304
0.4000290691
0.4000290893
0.400029009
0.4000289427
0.4000288111
0.4000286476
0.4000285562
0.4000286476
0.4000288111
0.4000289427
0.400029009
0.4000287957
0.4000285936
0.4000281764
0.4000276276
0.4000272962
0.4000276276
0.4000281764
0.4000285935
0.4000287956
0.4000282746
0.4000277111
0.4000265039
0.4000248216
0.4000237155
0.4000248216
0.4000265038
0.400027711
0.4000282745
0.4000271229
0.4000257178
0.4000226151
0.4000180707
0.4000148265
0.4000180705
0.4000226149
0.4000257176
0.4000271227
0.4000248548
0.4000217919
0.4000149361
0.4000046414
0.3999969145
0.400004641
0.4000149356
0.4000217914
)
;
    }
    bottom
    {
        type            calculated;
        value           nonuniform List<scalar> 
127
(
0.4000291312
0.4000291312
0.4000291312
0.4000291312
0.4000291312
0.4000291312
0.4000291312
0.4000291312
0.4000291312
0.4000291312
0.4000291312
0.4000291312
0.4000291312
0.4000291312
0.4000291312
0.4000291312
0.4000291312
0.4000291312
0.4000291312
0.4000291312
0.4000291312
0.4000291312
0.4000291312
0.4000291312
0.4000291312
0.4000291312
0.4000291312
0.4000291312
0.4000291312
0.4000291311
0.4000291311
0.4000291311
0.4000291311
0.4000291311
0.4000291312
0.4000291312
0.4000291311
0.4000291311
0.400029131
0.400029131
0.4000291309
0.400029131
0.400029131
0.4000291311
0.4000291311
0.4000291308
0.4000291307
0.4000291305
0.4000291303
0.4000291303
0.4000291303
0.4000291305
0.4000291307
0.4000291308
0.4000291299
0.4000291295
0.4000291287
0.400029128
0.4000291276
0.400029128
0.4000291287
0.4000291295
0.4000291299
0.4000291269
0.4000291253
0.4000291225
0.4000291194
0.4000291179
0.4000291194
0.4000291225
0.4000291253
0.4000291269
0.4000291176
0.4000291117
0.400029101
0.4000290888
0.4000290828
0.4000290888
0.400029101
0.4000291117
0.4000291176
0.4000290893
0.4000290691
0.4000290304
0.4000289848
0.4000289609
0.4000289848
0.4000290304
0.4000290691
0.4000290893
0.400029009
0.4000289427
0.4000288111
0.4000286475
0.4000285562
0.4000286475
0.4000288111
0.4000289427
0.400029009
0.4000287957
0.4000285935
0.4000281764
0.4000276275
0.4000272961
0.4000276275
0.4000281763
0.4000285935
0.4000287956
0.4000282745
0.400027711
0.4000265038
0.4000248214
0.4000237152
0.4000248214
0.4000265038
0.400027711
0.4000282745
0.4000271227
0.4000257175
0.4000226146
0.4000180699
0.4000148257
0.40001807
0.4000226147
0.4000257176
0.4000271227
0.4000248544
)
;
    }
    side-walls
    {
        type            calculated;
        value           nonuniform List<scalar> 
261
(
0.4000291312
0.4000291312
0.4000291312
0.4000291312
0.4000291312
0.4000291312
0.4000291312
0.4000291312
0.4000291312
0.4000291312
0.4000291312
0.4000291312
0.4000291312
0.4000291312
0.4000291312
0.4000291312
0.4000291312
0.4000291312
0.4000291312
0.4000291312
0.4000291312
0.4000291312
0.4000291312
0.4000291312
0.4000291312
0.4000291312
0.4000291312
0.4000291312
0.4000291312
0.4000291311
0.4000291311
0.4000291311
0.4000291311
0.4000291311
0.4000291312
0.4000291312
0.4000291311
0.4000291311
0.400029131
0.400029131
0.4000291309
0.400029131
0.400029131
0.4000291311
0.4000291311
0.4000291308
0.4000291307
0.4000291305
0.4000291303
0.4000291303
0.4000291303
0.4000291305
0.4000291307
0.4000291308
0.4000291299
0.4000291295
0.4000291287
0.400029128
0.4000291276
0.400029128
0.4000291287
0.4000291295
0.4000291299
0.4000291269
0.4000291253
0.4000291225
0.4000291194
0.4000291179
0.4000291194
0.4000291225
0.4000291253
0.4000291269
0.4000291176
0.4000291117
0.400029101
0.4000290888
0.4000290828
0.4000290888
0.400029101
0.4000291117
0.4000291176
0.4000290893
0.4000290691
0.4000290304
0.4000289848
0.4000289609
0.4000289848
0.4000290304
0.4000290691
0.4000290893
0.400029009
0.4000289427
0.4000288111
0.4000286476
0.4000285562
0.4000286476
0.4000288111
0.4000289427
0.400029009
0.4000287957
0.4000285935
0.4000281764
0.4000276276
0.4000272962
0.4000276276
0.4000281764
0.4000285936
0.4000287957
0.4000282745
0.400027711
0.4000265039
0.4000248216
0.4000237155
0.4000248217
0.4000265039
0.4000277111
0.4000282746
0.4000271227
0.4000257177
0.400022615
0.4000180706
0.4000148266
0.4000180708
0.4000226152
0.4000257178
0.4000271229
0.4000248544
0.4000217916
0.4000149358
0.4000046412
0.3999969146
0.4000046415
0.4000149362
0.4000217919
0.4000248548
0.4000291312
0.4000291312
0.4000291312
0.4000291312
0.4000291312
0.4000291312
0.4000291312
0.4000291312
0.4000291312
0.4000291312
0.4000291312
0.4000291312
0.4000291312
0.4000291312
0.4000291312
0.4000291312
0.4000291312
0.4000291312
0.4000291312
0.4000291312
0.4000291312
0.4000291312
0.4000291312
0.4000291312
0.4000291312
0.4000291312
0.4000291312
0.4000291312
0.4000291312
0.4000291311
0.4000291311
0.4000291311
0.4000291311
0.4000291311
0.4000291312
0.4000291312
0.4000291311
0.4000291311
0.400029131
0.400029131
0.4000291309
0.400029131
0.400029131
0.4000291311
0.4000291311
0.4000291308
0.4000291307
0.4000291305
0.4000291303
0.4000291303
0.4000291303
0.4000291305
0.4000291307
0.4000291308
0.4000291299
0.4000291295
0.4000291287
0.400029128
0.4000291276
0.400029128
0.4000291287
0.4000291295
0.4000291299
0.4000291269
0.4000291253
0.4000291225
0.4000291194
0.4000291179
0.4000291194
0.4000291225
0.4000291253
0.4000291269
0.4000291176
0.4000291117
0.400029101
0.4000290888
0.4000290828
0.4000290888
0.400029101
0.4000291117
0.4000291176
0.4000290893
0.4000290691
0.4000290304
0.4000289847
0.4000289609
0.4000289848
0.4000290304
0.4000290691
0.4000290893
0.400029009
0.4000289427
0.4000288111
0.4000286475
0.4000285562
0.4000286475
0.4000288111
0.4000289427
0.400029009
0.4000287956
0.4000285935
0.4000281763
0.4000276275
0.4000272961
0.4000276275
0.4000281763
0.4000285935
0.4000287956
0.4000282745
0.400027711
0.4000265038
0.4000248214
0.4000237152
0.4000248214
0.4000265038
0.400027711
0.4000282745
0.4000271227
0.4000257176
0.4000226147
0.40001807
0.4000148258
0.4000180701
0.4000226147
0.4000257176
0.4000271227
)
;
    }
    inlet
    {
        type            calculated;
        value           nonuniform List<scalar> 
81
(
0.4000291312
0.4000291312
0.4000291312
0.4000291312
0.4000291312
0.4000291312
0.4000291312
0.4000291312
0.4000291312
0.4000291312
0.4000291312
0.4000291312
0.4000291312
0.4000291312
0.4000291312
0.4000291312
0.4000291312
0.4000291312
0.4000291312
0.4000291312
0.4000291312
0.4000291312
0.4000291312
0.4000291312
0.4000291312
0.4000291312
0.4000291312
0.4000291312
0.4000291312
0.4000291312
0.4000291312
0.4000291312
0.4000291312
0.4000291312
0.4000291312
0.4000291312
0.4000291312
0.4000291312
0.4000291312
0.4000291312
0.4000291312
0.4000291312
0.4000291312
0.4000291312
0.4000291312
0.4000291312
0.4000291312
0.4000291312
0.4000291312
0.4000291312
0.4000291312
0.4000291312
0.4000291312
0.4000291312
0.4000291312
0.4000291312
0.4000291312
0.4000291312
0.4000291312
0.4000291312
0.4000291312
0.4000291312
0.4000291312
0.4000291312
0.4000291312
0.4000291312
0.4000291312
0.4000291312
0.4000291312
0.4000291312
0.4000291312
0.4000291312
0.4000291312
0.4000291312
0.4000291312
0.4000291312
0.4000291312
0.4000291312
0.4000291312
0.4000291312
0.4000291312
)
;
    }
    outlet
    {
        type            calculated;
        value           nonuniform 0();
    }
    procBoundary0to1
    {
        type            processor;
        value           nonuniform List<scalar> 
97
(
0.400020903
0.4000217913
0.4000151455
0.4000024303
0.3999838039
0.3999705021
0.3999838044
0.4000024309
0.400015146
0.4000209035
0.4000217913
0.4000217913
0.4000021707
0.3999966266
0.399969536
0.3999115524
0.3998568324
0.399911554
0.3999695377
0.400002172
0.400015146
0.4000149354
0.3999966266
0.3999966266
0.3998731728
0.3998046487
0.3996589111
0.3993782046
0.399658918
0.3998731787
0.3999695377
0.4000024309
0.4000046405
0.3999628489
0.3998046487
0.3998046487
0.3989244371
0.3977410257
0.3974819096
0.398924464
0.399658918
0.399911554
0.3999838043
0.3999969138
0.3999275694
0.3995891004
0.3977410257
0.3977410257
0.3912283792
0.3977410293
0.3974819128
0.399262179
0.3993782058
0.399856833
0.3999705023
0.4000046409
0.3999628504
0.3998046582
0.3992621831
0.3977410293
0.399262179
0.399262179
0.3996589117
0.3999406152
0.3999115524
0.3999838039
0.4000149358
0.3999966283
0.3999406179
0.3998046587
0.3995891025
0.3998046596
0.3999406152
0.3999406152
0.399969536
0.4000147576
0.4000024303
0.4000217917
0.4000147581
0.3999966284
0.3999628506
0.3999275703
0.399962851
0.3999966281
0.4000147576
0.4000147576
0.4000151455
0.4000248545
0.4000248547
0.4000217917
0.4000149359
0.400004641
0.3999969142
0.4000046411
0.4000149359
0.4000217916
0.4000248545
)
;
    }
}


// ************************************************************************* //
