/*--------------------------------*- C++ -*----------------------------------*\
| =========                 |                                                 |
| \\      /  F ield         | OpenFOAM: The Open Source CFD Toolbox           |
|  \\    /   O peration     | Version:  4.x                                   |
|   \\  /    A nd           | Web:      www.OpenFOAM.org                      |
|    \\/     M anipulation  |                                                 |
\*---------------------------------------------------------------------------*/
FoamFile
{
    version     2.0;
    format      ascii;
    class       volScalarField;
    location    "9000";
    object      CO;
}
// * * * * * * * * * * * * * * * * * * * * * * * * * * * * * * * * * * * * * //

dimensions      [0 0 0 0 0 0 0];

internalField   nonuniform List<scalar> 
1175
(
0.3999999993
0.3999999993
0.3999999993
0.3999999993
0.3999999993
0.3999999992
0.399999999
0.3999999982
0.3999999959
0.3999999886
0.3999999681
0.3999999137
0.3999997806
0.3999994865
0.3999989076
0.3999999993
0.3999999993
0.3999999993
0.3999999993
0.3999999993
0.3999999992
0.3999999989
0.3999999978
0.3999999944
0.3999999835
0.3999999512
0.3999998619
0.3999996362
0.3999991266
0.3999981233
0.3999999993
0.3999999993
0.3999999993
0.3999999993
0.3999999993
0.3999999992
0.3999999987
0.3999999971
0.3999999916
0.3999999736
0.3999999174
0.3999997549
0.3999993267
0.3999983312
0.3999963665
0.3999999993
0.3999999993
0.3999999993
0.3999999993
0.3999999993
0.3999999991
0.3999999985
0.3999999963
0.3999999885
0.3999999618
0.3999998755
0.3999996141
0.399998895
0.3999971651
0.3999937264
0.3999999993
0.3999999993
0.3999999993
0.3999999993
0.3999999993
0.3999999991
0.3999999984
0.3999999959
0.399999987
0.3999999557
0.399999852
0.3999995289
0.3999986107
0.399996332
0.3999917444
0.3999999993
0.3999999993
0.3999999993
0.3999999993
0.3999999993
0.3999999991
0.3999999985
0.3999999963
0.3999999885
0.3999999618
0.3999998755
0.3999996141
0.399998895
0.3999971652
0.3999937264
0.3999999993
0.3999999993
0.3999999993
0.3999999993
0.3999999993
0.3999999992
0.3999999987
0.3999999971
0.3999999916
0.3999999736
0.3999999174
0.3999997549
0.3999993267
0.3999983313
0.3999963666
0.3999999993
0.3999999993
0.3999999993
0.3999999993
0.3999999993
0.3999999992
0.3999999989
0.3999999978
0.3999999944
0.3999999835
0.3999999512
0.3999998619
0.3999996363
0.3999991267
0.3999981234
0.3999999993
0.3999999993
0.3999999993
0.3999999993
0.3999999993
0.3999999992
0.399999999
0.3999999982
0.3999999959
0.3999999886
0.3999999681
0.3999999137
0.3999997806
0.3999994866
0.3999989077
0.3999999993
0.3999999993
0.3999999993
0.3999999993
0.3999999993
0.3999999992
0.3999999989
0.3999999978
0.3999999944
0.3999999835
0.3999999512
0.3999998619
0.3999996362
0.3999991266
0.3999999993
0.3999999993
0.3999999993
0.3999999993
0.3999999993
0.3999999992
0.3999999987
0.3999999972
0.3999999918
0.3999999741
0.3999999185
0.3999997561
0.3999993244
0.3999983146
0.39999632
0.3999999993
0.3999999993
0.3999999993
0.3999999993
0.3999999993
0.3999999991
0.3999999984
0.3999999959
0.3999999868
0.3999999549
0.3999998482
0.3999995159
0.3999985765
0.3999962707
0.3999916684
0.3999999993
0.3999999993
0.3999999993
0.3999999993
0.3999999993
0.399999999
0.3999999981
0.3999999945
0.3999999808
0.3999999301
0.3999997508
0.3999991543
0.399997349
0.3999926358
0.3999829946
0.3999999993
0.3999999993
0.3999999993
0.3999999993
0.3999999992
0.399999999
0.3999999979
0.3999999938
0.3999999776
0.3999999157
0.3999996882
0.3999988932
0.3999963377
0.399989204
0.3999739369
0.3999999993
0.3999999993
0.3999999993
0.3999999993
0.3999999993
0.399999999
0.3999999981
0.3999999945
0.3999999808
0.3999999301
0.3999997508
0.3999991543
0.399997349
0.3999926359
0.3999829949
0.3999999993
0.3999999993
0.3999999993
0.3999999993
0.3999999993
0.3999999991
0.3999999984
0.3999999959
0.3999999868
0.3999999549
0.3999998483
0.3999995159
0.3999985765
0.3999962708
0.3999916687
0.3999999993
0.3999999993
0.3999999993
0.3999999993
0.3999999993
0.3999999992
0.3999999987
0.3999999972
0.3999999918
0.3999999741
0.3999999185
0.3999997561
0.3999993244
0.3999983147
0.3999963203
0.3999999993
0.3999999993
0.3999999993
0.3999999993
0.3999999993
0.3999999992
0.3999999989
0.3999999978
0.3999999944
0.3999999835
0.3999999512
0.3999998619
0.3999996363
0.3999991267
0.3999981234
0.3999999993
0.3999999993
0.3999999993
0.3999999993
0.3999999993
0.3999999992
0.3999999987
0.3999999971
0.3999999916
0.3999999736
0.3999999174
0.3999997549
0.3999993267
0.3999983311
0.3999999993
0.3999999993
0.3999999993
0.3999999993
0.3999999993
0.3999999991
0.3999999984
0.3999999959
0.3999999868
0.3999999549
0.3999998482
0.3999995159
0.3999985764
0.3999962704
0.3999999993
0.3999999993
0.3999999993
0.3999999993
0.3999999992
0.399999999
0.3999999979
0.3999999936
0.3999999769
0.399999914
0.3999996864
0.3999989137
0.3999965321
0.3999902288
0.3999772806
0.3999999993
0.3999999993
0.3999999993
0.3999999993
0.3999999992
0.3999999988
0.3999999973
0.3999999908
0.399999964
0.399999856
0.399999433
0.3999978616
0.3999925037
0.3999767827
0.3999423256
0.3999999993
0.3999999993
0.3999999993
0.3999999993
0.3999999992
0.3999999988
0.399999997
0.3999999893
0.3999999564
0.3999998177
0.399999242
0.3999969309
0.3999882113
0.3999591606
0.3998869279
0.3999999993
0.3999999993
0.3999999993
0.3999999993
0.3999999992
0.3999999988
0.3999999973
0.3999999908
0.3999999641
0.399999856
0.399999433
0.3999978616
0.3999925038
0.3999767834
0.3999423274
0.3999999993
0.3999999993
0.3999999993
0.3999999993
0.3999999992
0.399999999
0.3999999979
0.3999999936
0.3999999769
0.399999914
0.3999996864
0.3999989137
0.3999965322
0.3999902293
0.3999772824
0.3999999993
0.3999999993
0.3999999993
0.3999999993
0.3999999993
0.3999999991
0.3999999984
0.3999999959
0.3999999868
0.3999999549
0.3999998482
0.3999995159
0.3999985765
0.3999962708
0.3999916687
0.3999999993
0.3999999993
0.3999999993
0.3999999993
0.3999999993
0.3999999992
0.3999999987
0.3999999971
0.3999999916
0.3999999736
0.3999999174
0.3999997549
0.3999993267
0.3999983313
0.3999963666
0.3999999993
0.3999999993
0.3999999993
0.3999999993
0.3999999993
0.3999999991
0.3999999985
0.3999999963
0.3999999885
0.3999999618
0.3999998755
0.3999996141
0.3999988949
0.3999971649
0.3999999993
0.3999999993
0.3999999993
0.3999999993
0.3999999993
0.399999999
0.3999999981
0.3999999945
0.3999999808
0.3999999301
0.3999997508
0.3999991543
0.3999973488
0.3999926352
0.3999999993
0.3999999993
0.3999999993
0.3999999993
0.3999999992
0.3999999988
0.3999999973
0.3999999908
0.399999964
0.399999856
0.399999433
0.3999978615
0.3999925033
0.3999767812
0.3999999993
0.3999999993
0.3999999993
0.3999999993
0.3999999992
0.3999999986
0.3999999963
0.399999986
0.3999999405
0.3999997398
0.3999988696
0.3999952114
0.39998077
0.399930663
0.3998026786
0.3999999993
0.3999999993
0.3999999993
0.3999999993
0.3999999992
0.3999999986
0.3999999958
0.3999999833
0.399999925
0.3999996522
0.3999983626
0.3999922581
0.3999638585
0.3998401319
0.3994111306
0.3999999993
0.3999999993
0.3999999993
0.3999999993
0.3999999992
0.3999999986
0.3999999963
0.399999986
0.3999999405
0.3999997399
0.3999988696
0.3999952115
0.3999807705
0.3999306657
0.3998026899
0.3999999993
0.3999999993
0.3999999993
0.3999999993
0.3999999992
0.3999999988
0.3999999973
0.3999999908
0.399999964
0.399999856
0.399999433
0.3999978616
0.3999925037
0.3999767832
0.3999423272
0.3999999993
0.3999999993
0.3999999993
0.3999999993
0.3999999993
0.399999999
0.3999999981
0.3999999945
0.3999999808
0.3999999301
0.3999997508
0.3999991543
0.399997349
0.3999926359
0.3999829948
0.3999999993
0.3999999993
0.3999999993
0.3999999993
0.3999999993
0.3999999991
0.3999999985
0.3999999963
0.3999999885
0.3999999618
0.3999998755
0.3999996141
0.3999988949
0.3999971651
0.3999937264
0.3999999993
0.3999999993
0.3999999993
0.3999999993
0.3999999993
0.3999999991
0.3999999984
0.3999999959
0.399999987
0.3999999557
0.399999852
0.3999995289
0.3999986106
0.3999963316
0.3999999993
0.3999999993
0.3999999993
0.3999999993
0.3999999992
0.399999999
0.3999999979
0.3999999938
0.3999999776
0.3999999157
0.3999996881
0.3999988931
0.3999963374
0.3999892029
0.3999999993
0.3999999993
0.3999999993
0.3999999993
0.3999999992
0.3999999988
0.399999997
0.3999999893
0.3999999564
0.3999998177
0.3999992419
0.3999969307
0.3999882104
0.3999591566
0.3999999993
0.3999999993
0.3999999993
0.3999999993
0.3999999992
0.3999999986
0.3999999958
0.3999999833
0.399999925
0.3999996522
0.3999983625
0.3999922578
0.3999638565
0.3998401191
0.3999999993
0.3999999993
0.3999999993
0.3999999993
0.3999999991
0.3999999984
0.3999999952
0.3999999795
0.3999999028
0.3999995117
0.3999974239
0.3999856275
0.3999143718
0.3994512581
0.3961976293
0.3999999993
0.3999999993
0.3999999993
0.3999999993
0.3999999992
0.3999999986
0.3999999958
0.3999999833
0.399999925
0.3999996522
0.3999983625
0.3999922579
0.3999638577
0.3998401291
0.3994111266
0.3999999993
0.3999999993
0.3999999993
0.3999999993
0.3999999992
0.3999999988
0.399999997
0.3999999893
0.3999999564
0.3999998177
0.399999242
0.3999969308
0.3999882109
0.3999591597
0.3998869268
0.3999999993
0.3999999993
0.3999999993
0.3999999993
0.3999999992
0.399999999
0.3999999979
0.3999999938
0.3999999776
0.3999999157
0.3999996881
0.3999988931
0.3999963376
0.3999892038
0.3999739366
0.3999999993
0.3999999993
0.3999999993
0.3999999993
0.3999999993
0.3999999991
0.3999999984
0.3999999959
0.399999987
0.3999999557
0.399999852
0.3999995289
0.3999986107
0.3999963319
0.3999917443
0.3999999993
0.3999999993
0.3999999993
0.3999999993
0.3999999993
0.3999999991
0.3999999985
0.3999999963
0.3999999885
0.3999999618
0.3999998755
0.399999614
0.3999988948
0.3999971649
0.3999999993
0.3999999993
0.3999999993
0.3999999993
0.3999999993
0.399999999
0.3999999981
0.3999999945
0.3999999808
0.3999999301
0.3999997508
0.3999991543
0.3999973488
0.3999926352
0.3999999993
0.3999999993
0.3999999993
0.3999999993
0.3999999992
0.3999999988
0.3999999973
0.3999999908
0.399999964
0.399999856
0.399999433
0.3999978614
0.3999925031
0.3999767809
0.3999999993
0.3999999993
0.3999999993
0.3999999993
0.3999999992
0.3999999986
0.3999999963
0.399999986
0.3999999405
0.3999997398
0.3999988696
0.3999952112
0.3999807691
0.3999306592
0.3999999993
0.3999999993
0.3999999993
0.3999999993
0.3999999992
0.3999999986
0.3999999958
0.3999999833
0.399999925
0.3999996522
0.3999983625
0.3999922576
0.3999638558
0.3998401167
0.3999999993
0.3999999993
0.3999999993
0.3999999993
0.3999999992
0.3999999986
0.3999999963
0.399999986
0.3999999405
0.3999997398
0.3999988696
0.3999952113
0.3999807694
0.3999306603
0.3999999993
0.3999999993
0.3999999993
0.3999999993
0.3999999992
0.3999999988
0.3999999973
0.3999999908
0.399999964
0.399999856
0.399999433
0.3999978615
0.3999925034
0.399976782
0.3999423235
0.3999999993
0.3999999993
0.3999999993
0.3999999993
0.3999999993
0.399999999
0.3999999981
0.3999999945
0.3999999808
0.3999999301
0.3999997508
0.3999991543
0.3999973489
0.3999926356
0.3999829942
0.3999999993
0.3999999993
0.3999999993
0.3999999993
0.3999999993
0.3999999991
0.3999999985
0.3999999963
0.3999999885
0.3999999618
0.3999998755
0.3999996141
0.3999988949
0.399997165
0.3999937262
0.3999999993
0.3999999993
0.3999999993
0.3999999993
0.3999999993
0.3999999992
0.3999999987
0.3999999971
0.3999999916
0.3999999735
0.3999999174
0.3999997549
0.3999993267
0.3999983311
0.3999999993
0.3999999993
0.3999999993
0.3999999993
0.3999999993
0.3999999991
0.3999999984
0.3999999959
0.3999999868
0.3999999549
0.3999998482
0.3999995159
0.3999985764
0.3999962704
0.3999999993
0.3999999993
0.3999999993
0.3999999993
0.3999999992
0.399999999
0.3999999979
0.3999999936
0.3999999769
0.399999914
0.3999996864
0.3999989136
0.3999965319
0.3999902283
0.3999999993
0.3999999993
0.3999999993
0.3999999993
0.3999999992
0.3999999988
0.3999999973
0.3999999908
0.399999964
0.399999856
0.399999433
0.3999978614
0.3999925031
0.3999767808
0.3999999993
0.3999999993
0.3999999993
0.3999999993
0.3999999992
0.3999999988
0.399999997
0.3999999893
0.3999999564
0.3999998177
0.3999992419
0.3999969306
0.3999882101
0.3999591562
0.3999999993
0.3999999993
0.3999999993
0.3999999993
0.3999999992
0.3999999988
0.3999999973
0.3999999908
0.399999964
0.399999856
0.399999433
0.3999978615
0.3999925032
0.3999767811
0.3999999993
0.3999999993
0.3999999993
0.3999999993
0.3999999992
0.399999999
0.3999999979
0.3999999936
0.3999999769
0.399999914
0.3999996864
0.3999989136
0.399996532
0.3999902284
0.3999999993
0.3999999993
0.3999999993
0.3999999993
0.3999999993
0.3999999991
0.3999999984
0.3999999959
0.3999999868
0.3999999549
0.3999998482
0.3999995159
0.3999985764
0.3999962705
0.3999916681
0.3999999993
0.3999999993
0.3999999993
0.3999999993
0.3999999993
0.3999999992
0.3999999987
0.3999999971
0.3999999916
0.3999999735
0.3999999174
0.3999997549
0.3999993267
0.3999983312
0.3999963664
0.3999999993
0.3999999993
0.3999999993
0.3999999993
0.3999999993
0.3999999992
0.3999999989
0.3999999978
0.3999999944
0.3999999835
0.3999999512
0.3999998619
0.3999996362
0.3999991266
0.3999999993
0.3999999993
0.3999999993
0.3999999993
0.3999999993
0.3999999992
0.3999999987
0.3999999972
0.3999999918
0.3999999741
0.3999999185
0.399999756
0.3999993244
0.3999983146
0.3999999993
0.3999999993
0.3999999993
0.3999999993
0.3999999993
0.3999999991
0.3999999984
0.3999999959
0.3999999868
0.3999999549
0.3999998482
0.3999995159
0.3999985764
0.3999962704
0.3999999993
0.3999999993
0.3999999993
0.3999999993
0.3999999993
0.399999999
0.3999999981
0.3999999945
0.3999999808
0.3999999301
0.3999997508
0.3999991543
0.3999973488
0.3999926351
0.3999999993
0.3999999993
0.3999999993
0.3999999993
0.3999999992
0.399999999
0.3999999979
0.3999999938
0.3999999776
0.3999999157
0.3999996881
0.3999988931
0.3999963374
0.3999892028
0.3999999993
0.3999999993
0.3999999993
0.3999999993
0.3999999993
0.399999999
0.3999999981
0.3999999945
0.3999999808
0.3999999301
0.3999997508
0.3999991543
0.3999973488
0.3999926352
0.3999999993
0.3999999993
0.3999999993
0.3999999993
0.3999999993
0.3999999991
0.3999999984
0.3999999959
0.3999999868
0.3999999549
0.3999998482
0.3999995159
0.3999985764
0.3999962705
0.3999999993
0.3999999993
0.3999999993
0.3999999993
0.3999999993
0.3999999992
0.3999999987
0.3999999972
0.3999999918
0.3999999741
0.3999999185
0.399999756
0.3999993244
0.3999983146
0.3999999993
0.3999999993
0.3999999993
0.3999999993
0.3999999993
0.3999999992
0.3999999989
0.3999999978
0.3999999944
0.3999999835
0.3999999512
0.3999998619
0.3999996362
0.3999991266
0.3999981232
0.3999999993
0.3999999993
0.3999999993
0.3999999993
0.3999999993
0.3999999992
0.399999999
0.3999999982
0.3999999959
0.3999999886
0.3999999681
0.3999999137
0.3999997806
0.3999994865
0.3999999993
0.3999999993
0.3999999993
0.3999999993
0.3999999993
0.3999999992
0.3999999989
0.3999999978
0.3999999944
0.3999999835
0.3999999512
0.3999998619
0.3999996362
0.3999991266
0.3999999993
0.3999999993
0.3999999993
0.3999999993
0.3999999993
0.3999999992
0.3999999987
0.3999999971
0.3999999916
0.3999999735
0.3999999174
0.3999997549
0.3999993267
0.3999983311
0.3999999993
0.3999999993
0.3999999993
0.3999999993
0.3999999993
0.3999999991
0.3999999985
0.3999999963
0.3999999885
0.3999999618
0.3999998755
0.399999614
0.3999988948
0.3999971649
0.3999999993
0.3999999993
0.3999999993
0.3999999993
0.3999999993
0.3999999991
0.3999999984
0.3999999959
0.399999987
0.3999999557
0.399999852
0.3999995289
0.3999986106
0.3999963316
0.3999999993
0.3999999993
0.3999999993
0.3999999993
0.3999999993
0.3999999991
0.3999999985
0.3999999963
0.3999999885
0.3999999618
0.3999998755
0.399999614
0.3999988949
0.3999971649
0.3999999993
0.3999999993
0.3999999993
0.3999999993
0.3999999993
0.3999999992
0.3999999987
0.3999999971
0.3999999916
0.3999999735
0.3999999174
0.3999997549
0.3999993267
0.3999983311
0.3999999993
0.3999999993
0.3999999993
0.3999999993
0.3999999993
0.3999999992
0.3999999989
0.3999999978
0.3999999944
0.3999999835
0.3999999512
0.3999998619
0.3999996362
0.3999991266
0.3999999993
0.3999999993
0.3999999993
0.3999999993
0.3999999993
0.3999999992
0.399999999
0.3999999982
0.3999999959
0.3999999886
0.3999999681
0.3999999137
0.3999997806
0.3999994865
)
;

boundaryField
{
    top
    {
        type            zeroGradient;
    }
    bottom
    {
        type            zeroGradient;
    }
    side-walls
    {
        type            zeroGradient;
    }
    inlet
    {
        type            zeroGradient;
    }
    outlet
    {
        type            zeroGradient;
    }
    procBoundary0to1
    {
        type            processor;
        value           nonuniform List<scalar> 
97
(
0.3999978995
0.3999981232
0.3999964258
0.3999931687
0.3999883936
0.3999849821
0.3999883937
0.3999931688
0.3999964259
0.3999978996
0.3999981232
0.3999981232
0.3999931009
0.399991668
0.399984731
0.3999698459
0.3999557936
0.3999698463
0.3999847313
0.3999931011
0.3999964259
0.3999963664
0.399991668
0.399991668
0.3999599897
0.3999423227
0.3999049236
0.3998327572
0.3999049252
0.3999599909
0.3999847313
0.3999931688
0.3999937262
0.399982994
0.3999423227
0.3999423227
0.3997160237
0.3994110944
0.39934509
0.399716029
0.3999049249
0.3999698462
0.3999883936
0.3999917441
0.3999739358
0.399886922
0.3994110944
0.3994110944
0.397747832
0.3994110935
0.3993450885
0.3998026797
0.3998327563
0.3999557934
0.399984982
0.3999937262
0.3999829942
0.3999423247
0.3998026808
0.3994110935
0.3998026797
0.3998026797
0.3999049235
0.3999772807
0.3999698457
0.3999883935
0.3999963664
0.3999916684
0.3999772813
0.3999423246
0.3998869218
0.3999423249
0.3999772807
0.3999772807
0.3999847309
0.39999632
0.3999931687
0.3999981233
0.3999963201
0.3999916684
0.3999829941
0.3999739357
0.3999829942
0.3999916684
0.39999632
0.39999632
0.3999964258
0.3999989076
0.3999989076
0.3999981233
0.3999963664
0.3999937262
0.3999917441
0.3999937262
0.3999963664
0.3999981233
0.3999989076
)
;
    }
}


// ************************************************************************* //
