/*--------------------------------*- C++ -*----------------------------------*\
| =========                 |                                                 |
| \\      /  F ield         | OpenFOAM: The Open Source CFD Toolbox           |
|  \\    /   O peration     | Version:  4.x                                   |
|   \\  /    A nd           | Web:      www.OpenFOAM.org                      |
|    \\/     M anipulation  |                                                 |
\*---------------------------------------------------------------------------*/
FoamFile
{
    version     2.0;
    format      ascii;
    class       volScalarField;
    location    "9000";
    object      CO2;
}
// * * * * * * * * * * * * * * * * * * * * * * * * * * * * * * * * * * * * * //

dimensions      [0 0 0 0 0 0 0];

internalField   nonuniform List<scalar> 
1175
(
1.311693315e-09
1.312060214e-09
1.313836625e-09
1.320716009e-09
1.345644052e-09
1.432816314e-09
1.728472259e-09
2.698493358e-09
5.759592008e-09
1.497850119e-08
4.121347983e-08
1.108999258e-07
2.811449202e-07
6.573962484e-07
1.398172646e-06
1.31195727e-09
1.312398147e-09
1.314553693e-09
1.323065162e-09
1.354683442e-09
1.468488985e-09
1.867157069e-09
3.22240971e-09
7.666134802e-09
2.160088491e-08
6.292511095e-08
1.77135866e-07
4.658157861e-07
1.117811416e-06
2.401526546e-06
1.312373434e-09
1.312934322e-09
1.31571122e-09
1.326935671e-09
1.369862103e-09
1.529599413e-09
2.110187053e-09
4.164782245e-09
1.119915582e-08
3.429063268e-08
1.060817883e-07
3.139540313e-07
8.617533025e-07
2.135285631e-06
4.648952457e-06
1.312747395e-09
1.313421633e-09
1.316792517e-09
1.330654418e-09
1.384815733e-09
1.591412569e-09
2.363568727e-09
5.18268897e-09
1.517566377e-08
4.926288253e-08
1.597633192e-07
4.941307564e-07
1.414060856e-06
3.626943322e-06
8.026278702e-06
1.312896707e-09
1.313618058e-09
1.317238573e-09
1.332225289e-09
1.39127144e-09
1.61875405e-09
2.479014696e-09
5.663852341e-09
1.714297928e-08
5.70948887e-08
1.897865292e-07
6.030421953e-07
1.777595525e-06
4.692659293e-06
1.056149166e-05
1.312745064e-09
1.31341928e-09
1.316790248e-09
1.330652492e-09
1.384814211e-09
1.591412671e-09
2.363572879e-09
5.18270396e-09
1.517569253e-08
4.926287824e-08
1.597629134e-07
4.941280339e-07
1.414048372e-06
3.62689908e-06
8.026164899e-06
1.312368655e-09
1.312929672e-09
1.315706772e-09
1.326931525e-09
1.369858705e-09
1.529597727e-09
2.110189274e-09
4.164790741e-09
1.119915679e-08
3.429048658e-08
1.060807492e-07
3.139488576e-07
8.61732677e-07
2.135219721e-06
4.648793229e-06
1.31194955e-09
1.31239094e-09
1.314546995e-09
1.32305929e-09
1.354678553e-09
1.468484811e-09
1.867152328e-09
3.22239432e-09
7.666053057e-09
2.160048177e-08
6.292333611e-08
1.771289019e-07
4.657914858e-07
1.11773935e-06
2.401361172e-06
1.311681367e-09
1.312050786e-09
1.313828965e-09
1.320709839e-09
1.345639611e-09
1.432813708e-09
1.728471278e-09
2.698485822e-09
5.759530862e-09
1.497815987e-08
4.121192204e-08
1.108937582e-07
2.811232807e-07
6.573302335e-07
1.398011275e-06
1.311957274e-09
1.312398221e-09
1.31455371e-09
1.323065381e-09
1.354684117e-09
1.468491292e-09
1.867166363e-09
3.222447028e-09
7.66627912e-09
2.160143726e-08
6.29271835e-08
1.771435246e-07
4.658440863e-07
1.117921803e-06
1.312255418e-09
1.312793925e-09
1.315458682e-09
1.326233523e-09
1.367480482e-09
1.521267384e-09
2.081968297e-09
4.074973385e-09
1.093811353e-08
3.362847302e-08
1.047555777e-07
3.125335801e-07
8.647396656e-07
2.156583041e-06
4.708593596e-06
1.31272653e-09
1.313424309e-09
1.316935609e-09
1.331535542e-09
1.389408956e-09
1.61404493e-09
2.470872936e-09
5.672497735e-09
1.731835082e-08
5.817415499e-08
1.94579363e-07
6.196991509e-07
1.82146414e-06
4.771188328e-06
1.065907012e-05
1.31315175e-09
1.314002157e-09
1.318336594e-09
1.336738169e-09
1.411606571e-09
1.711214656e-09
2.894777032e-09
7.498137643e-09
2.502709226e-08
8.981217996e-08
3.192184042e-07
1.082226263e-06
3.391570256e-06
9.420716064e-06
2.175443531e-05
1.313321915e-09
1.314236656e-09
1.318922258e-09
1.338977554e-09
1.421437595e-09
1.755706665e-09
3.097120453e-09
8.416543703e-09
2.916860148e-08
1.08247957e-07
3.993607748e-07
1.416283502e-06
4.685055577e-06
1.381029479e-05
3.334018496e-05
1.313149534e-09
1.314000026e-09
1.318334412e-09
1.336736031e-09
1.411604464e-09
1.711212273e-09
2.894770939e-09
7.498108636e-09
2.502693707e-08
8.981140744e-08
3.19214708e-07
1.082209741e-06
3.391503584e-06
9.42048401e-06
2.175383391e-05
1.312721899e-09
1.313419841e-09
1.316931388e-09
1.331531641e-09
1.389405623e-09
1.61404287e-09
2.470872217e-09
5.672488044e-09
1.731824943e-08
5.817346413e-08
1.945755638e-07
6.196811012e-07
1.821389714e-06
4.770931597e-06
1.065840846e-05
1.312248363e-09
1.312787296e-09
1.315452714e-09
1.326228164e-09
1.367476379e-09
1.521264947e-09
2.08196732e-09
4.074963163e-09
1.093800944e-08
3.362782197e-08
1.047522184e-07
3.125184903e-07
8.646793522e-07
2.15637475e-06
4.70801862e-06
1.311946811e-09
1.312390236e-09
1.314547281e-09
1.323060468e-09
1.354680838e-09
1.468489767e-09
1.867164842e-09
3.222429813e-09
7.666156404e-09
2.160077652e-08
6.292412674e-08
1.771308146e-07
4.657954709e-07
1.117746086e-06
2.401368745e-06
1.312373515e-09
1.31293451e-09
1.315711485e-09
1.326936522e-09
1.369864462e-09
1.529608419e-09
2.110222589e-09
4.164921705e-09
1.119969524e-08
3.429267577e-08
1.060893114e-07
3.139809199e-07
8.618454202e-07
2.13558519e-06
1.31272665e-09
1.313424562e-09
1.316935967e-09
1.331536306e-09
1.389411318e-09
1.614054526e-09
2.470911054e-09
5.672649041e-09
1.731894868e-08
5.81764787e-08
1.945882931e-07
6.197329416e-07
1.82159289e-06
4.771698835e-06
1.313286075e-09
1.314210946e-09
1.318961735e-09
1.339377917e-09
1.423694634e-09
1.766898349e-09
3.148222816e-09
8.629422133e-09
2.994444708e-08
1.104373344e-07
4.016316972e-07
1.390108195e-06
4.436622241e-06
1.250007572e-05
2.906477249e-05
1.313793774e-09
1.314939769e-09
1.320919582e-09
1.347263263e-09
1.459494783e-09
1.933419139e-09
3.924258037e-09
1.222720191e-08
4.644293045e-08
1.846892299e-07
7.256894304e-07
2.735819893e-06
9.589400955e-06
2.969901861e-05
7.37769441e-05
1.313998147e-09
1.315238653e-09
1.321752239e-09
1.350736333e-09
1.475842785e-09
2.012860525e-09
4.315594535e-09
1.417391887e-08
5.619695407e-08
2.336792138e-07
9.700649787e-07
3.926248586e-06
1.507955151e-05
5.223840339e-05
0.0001446334613
1.31379169e-09
1.314937622e-09
1.320917476e-09
1.347261126e-09
1.459492053e-09
1.933413399e-09
3.924236532e-09
1.222709912e-08
4.644242835e-08
1.846867132e-07
7.256769504e-07
2.735759205e-06
9.589122206e-06
2.96978877e-05
7.377351579e-05
1.313281787e-09
1.314206761e-09
1.318957616e-09
1.339373946e-09
1.423690513e-09
1.766891841e-09
3.148201675e-09
8.629321212e-09
2.994392086e-08
1.104346408e-07
4.016182537e-07
1.390044036e-06
4.436337385e-06
1.249895286e-05
2.906129455e-05
1.312719995e-09
1.313418228e-09
1.316930182e-09
1.331531133e-09
1.389406572e-09
1.614048091e-09
2.470892562e-09
5.672562515e-09
1.731851238e-08
5.817435321e-08
1.94578336e-07
6.196888095e-07
1.821407638e-06
4.77096253e-06
1.065843317e-05
1.312363729e-09
1.312927105e-09
1.315705797e-09
1.3269322e-09
1.369861784e-09
1.529606608e-09
2.110216098e-09
4.164876451e-09
1.119943009e-08
3.429132882e-08
1.060831241e-07
3.139548366e-07
8.617454189e-07
2.135239689e-06
4.648807543e-06
1.312747638e-09
1.313421854e-09
1.316792954e-09
1.33065552e-09
1.384819599e-09
1.59142799e-09
2.36363096e-09
5.182939807e-09
1.517666391e-08
4.92667883e-08
1.597781115e-07
4.941844884e-07
1.414244306e-06
3.627513919e-06
1.313151786e-09
1.314002303e-09
1.318336803e-09
1.336738865e-09
1.411609589e-09
1.711227862e-09
2.894834759e-09
7.498391821e-09
2.502820678e-08
8.981704658e-08
3.192392881e-07
1.082313682e-06
3.391921628e-06
9.422033245e-06
1.313793878e-09
1.314940012e-09
1.320919897e-09
1.34726394e-09
1.459497313e-09
1.933430456e-09
3.924311044e-09
1.222745332e-08
4.644414334e-08
1.846950884e-07
7.257177632e-07
2.735956749e-06
9.590060119e-06
2.970224163e-05
1.31437956e-09
1.315816967e-09
1.323454775e-09
1.358062152e-09
1.510825736e-09
2.183917482e-09
5.157617546e-09
1.83256609e-08
7.661603554e-08
3.332293953e-07
1.446370779e-06
6.125677425e-06
2.459805513e-05
8.869159537e-05
0.0002524058832
1.314616352e-09
1.316179775e-09
1.324547998e-09
1.362913574e-09
1.534921124e-09
2.308113476e-09
5.813786411e-09
2.187801668e-08
9.633437193e-08
4.452896739e-07
2.0949032e-06
9.903057396e-06
4.622817248e-05
0.0002044816492
0.000753200008
1.314377433e-09
1.315814957e-09
1.323452601e-09
1.358060259e-09
1.51082311e-09
2.183910742e-09
5.157587795e-09
1.832550654e-08
7.661517123e-08
3.332244894e-07
1.446341845e-06
6.125506803e-06
2.459706519e-05
8.868627386e-05
0.0002523830089
1.313789729e-09
1.314935876e-09
1.320916072e-09
1.347260477e-09
1.459494225e-09
1.933427637e-09
3.924300381e-09
1.222736949e-08
4.644353749e-08
1.846910965e-07
7.256933675e-07
2.735815541e-06
9.589289281e-06
2.969826126e-05
7.377387148e-05
1.313145487e-09
1.313996407e-09
1.318331664e-09
1.336734728e-09
1.411607021e-09
1.711228472e-09
2.894839155e-09
7.498373943e-09
2.502793178e-08
8.981495375e-08
3.192265663e-07
1.082245752e-06
3.39159736e-06
9.420667183e-06
2.175401062e-05
1.312738461e-09
1.313415169e-09
1.316787841e-09
1.33065211e-09
1.384818139e-09
1.59142901e-09
2.363631962e-09
5.182910096e-09
1.517639472e-08
4.926515389e-08
1.597697582e-07
4.941466202e-07
1.414091168e-06
3.626973648e-06
8.026236079e-06
1.312896897e-09
1.313618247e-09
1.317239114e-09
1.332226896e-09
1.39127724e-09
1.618777124e-09
2.479108102e-09
5.664228062e-09
1.714448043e-08
5.710075434e-08
1.898087884e-07
6.03122677e-07
1.77786797e-06
4.693486296e-06
1.313322065e-09
1.314237001e-09
1.318922717e-09
1.338978984e-09
1.421443236e-09
1.755730885e-09
3.097228337e-09
8.417018372e-09
2.91706852e-08
1.082570668e-07
3.994000437e-07
1.416448095e-06
4.685710607e-06
1.381265984e-05
1.313998635e-09
1.315239164e-09
1.321752696e-09
1.35073798e-09
1.475850054e-09
2.012893351e-09
4.315747055e-09
1.417463983e-08
5.620040154e-08
2.336958635e-07
9.701460229e-07
3.926643446e-06
1.508144653e-05
5.224702218e-05
1.314616527e-09
1.316180056e-09
1.324548592e-09
1.362915075e-09
1.534927231e-09
2.308141963e-09
5.813924005e-09
2.187870268e-08
9.633792595e-08
4.453088135e-07
2.095010931e-06
9.903697475e-06
4.623218583e-05
0.0002045084429
1.314867051e-09
1.316570711e-09
1.325762636e-09
1.368442918e-09
1.563095971e-09
2.458039744e-09
6.640262294e-09
2.661770576e-08
1.247875365e-07
6.250944852e-07
3.295491132e-06
1.838399124e-05
0.000109523266
0.0007018579867
0.004863288507
1.314614743e-09
1.316178136e-09
1.324546692e-09
1.362913578e-09
1.534926835e-09
2.308145551e-09
5.8139402e-09
2.187873943e-08
9.633780397e-08
4.453060208e-07
2.094980655e-06
9.903416381e-06
4.622974689e-05
0.0002044874006
0.0007532070815
1.313994693e-09
1.315235255e-09
1.321749297e-09
1.350734895e-09
1.475847866e-09
2.012893766e-09
4.315748734e-09
1.417459718e-08
5.619988405e-08
2.336916495e-07
9.70115838e-07
3.926445692e-06
1.508023141e-05
5.22402058e-05
0.0001446353972
1.313316387e-09
1.314231587e-09
1.31891794e-09
1.338975115e-09
1.421440932e-09
1.755731801e-09
3.097230346e-09
8.416986259e-09
2.917031869e-08
1.082543837e-07
3.993836749e-07
1.416358422e-06
4.685268187e-06
1.381075138e-05
3.33406232e-05
1.312888496e-09
1.313612128e-09
1.317234496e-09
1.332223688e-09
1.391275884e-09
1.618777767e-09
2.479106554e-09
5.664184318e-09
1.714413958e-08
5.709875747e-08
1.897986627e-07
6.030764693e-07
1.7776792e-06
4.692815767e-06
1.056164967e-05
1.312745424e-09
1.313419753e-09
1.316790953e-09
1.330654321e-09
1.384820927e-09
1.591438923e-09
2.363676941e-09
5.183113251e-09
1.517727842e-08
4.926884593e-08
1.59784497e-07
4.942019631e-07
1.414283013e-06
3.627564326e-06
1.313149571e-09
1.314000252e-09
1.318335144e-09
1.336738052e-09
1.411611895e-09
1.711242821e-09
2.894900985e-09
7.49866057e-09
2.502925438e-08
8.982096193e-08
3.192530565e-07
1.082357024e-06
3.392030105e-06
9.422160242e-06
1.313791965e-09
1.314938059e-09
1.320918198e-09
1.347263504e-09
1.459501949e-09
1.933456306e-09
3.924429762e-09
1.22279733e-08
4.644638232e-08
1.847045493e-07
7.257561807e-07
2.736101988e-06
9.590525102e-06
2.970305223e-05
1.314377697e-09
1.315815407e-09
1.323453556e-09
1.358062522e-09
1.510832611e-09
2.183954328e-09
5.1577939e-09
1.832649868e-08
7.662002755e-08
3.332486495e-07
1.446463068e-06
6.126116725e-06
2.460007584e-05
8.870018157e-05
1.31461493e-09
1.316178401e-09
1.324547233e-09
1.362915016e-09
1.534932754e-09
2.308173029e-09
5.814073685e-09
2.187941069e-08
9.634126606e-08
4.4532451e-07
2.095084392e-06
9.904031533e-06
4.623360384e-05
0.0002045131368
1.314376077e-09
1.315813624e-09
1.323451669e-09
1.358060755e-09
1.510830789e-09
2.183950789e-09
5.157778584e-09
1.832640725e-08
7.661944474e-08
3.332449468e-07
1.446440718e-06
6.125988117e-06
2.459941419e-05
8.869767957e-05
1.313788577e-09
1.314934618e-09
1.32091504e-09
1.347260566e-09
1.459499075e-09
1.933452804e-09
3.924415454e-09
1.222787584e-08
4.644574384e-08
1.847006898e-07
7.257343762e-07
2.735986768e-06
9.589969843e-06
2.970069032e-05
7.378159299e-05
1.313144433e-09
1.313995451e-09
1.318330857e-09
1.336734554e-09
1.4116098e-09
1.711243143e-09
2.894902331e-09
7.49863164e-09
2.502895141e-08
8.981892966e-08
3.192415488e-07
1.082299745e-06
3.391777966e-06
9.421199669e-06
2.175522676e-05
1.312737634e-09
1.313414112e-09
1.316786838e-09
1.330651585e-09
1.38481984e-09
1.591438762e-09
2.363672376e-09
5.183064248e-09
1.517695334e-08
4.926711931e-08
1.597763694e-07
4.941674339e-07
1.414151159e-06
3.62712326e-06
8.026520048e-06
1.312368887e-09
1.312930179e-09
1.315707514e-09
1.326933265e-09
1.369864243e-09
1.529618624e-09
2.110270355e-09
4.16510078e-09
1.120031619e-08
3.429467953e-08
1.060952347e-07
3.139960269e-07
8.618744955e-07
2.135602317e-06
1.31272245e-09
1.313420257e-09
1.316932186e-09
1.331533678e-09
1.389412611e-09
1.614070228e-09
2.470983535e-09
5.672936432e-09
1.732003047e-08
5.818037229e-08
1.946013225e-07
6.197718547e-07
1.82168512e-06
4.771787021e-06
1.313282255e-09
1.314207338e-09
1.318958557e-09
1.339376535e-09
1.423699994e-09
1.766931256e-09
3.148369955e-09
8.630039184e-09
2.994695626e-08
1.104472399e-07
4.016691331e-07
1.390240111e-06
4.437039933e-06
1.250118439e-05
1.313790343e-09
1.314936655e-09
1.320917111e-09
1.347263184e-09
1.459504181e-09
1.933470467e-09
3.924492479e-09
1.222823387e-08
4.64474268e-08
1.84708566e-07
7.257706001e-07
2.73614863e-06
9.590643624e-06
2.970320511e-05
1.313995012e-09
1.315235814e-09
1.321749873e-09
1.350736606e-09
1.47585449e-09
2.012923314e-09
4.31588491e-09
1.417524073e-08
5.620295246e-08
2.33706446e-07
9.701879294e-07
3.926796535e-06
1.508190636e-05
5.224772667e-05
1.313788619e-09
1.314934974e-09
1.32091542e-09
1.347261263e-09
1.459501727e-09
1.933464932e-09
3.924469764e-09
1.222812666e-08
4.644690921e-08
1.847060605e-07
7.257589681e-07
2.736096736e-06
9.590441311e-06
2.970258882e-05
1.313278978e-09
1.314204192e-09
1.318955522e-09
1.339373449e-09
1.42369651e-09
1.766925398e-09
3.148348638e-09
8.629935741e-09
2.994644325e-08
1.104447704e-07
4.016578938e-07
1.390194305e-06
4.436884934e-06
1.250088441e-05
1.31271747e-09
1.313415787e-09
1.316928206e-09
1.331530488e-09
1.389410172e-09
1.614068809e-09
2.470979441e-09
5.672901863e-09
1.731980153e-08
5.817910351e-08
1.945952747e-07
6.1974646e-07
1.821591374e-06
4.771489662e-06
1.065976134e-05
1.312361555e-09
1.312924824e-09
1.315703756e-09
1.326930984e-09
1.36986359e-09
1.529619243e-09
2.110268465e-09
4.165070964e-09
1.120011949e-08
3.429368106e-08
1.060908075e-07
3.139785229e-07
8.618124546e-07
2.135406334e-06
4.649134159e-06
1.31195001e-09
1.312391511e-09
1.31454778e-09
1.323060762e-09
1.354683199e-09
1.468501742e-09
1.867214747e-09
3.222621811e-09
7.666858651e-09
2.160323194e-08
6.293229993e-08
1.771563445e-07
4.658693212e-07
1.117939803e-06
1.31224897e-09
1.312787744e-09
1.315453467e-09
1.326229836e-09
1.367481971e-09
1.521285912e-09
2.082048198e-09
4.075271534e-09
1.093916057e-08
3.363198563e-08
1.04766627e-07
3.12565487e-07
8.648208088e-07
2.156756656e-06
1.312720521e-09
1.313418788e-09
1.316930978e-09
1.331533333e-09
1.389413842e-09
1.614076681e-09
2.471007515e-09
5.673023321e-09
1.732033021e-08
5.818133366e-08
1.946041516e-07
6.197791869e-07
1.821700282e-06
4.771804991e-06
1.313145936e-09
1.313996955e-09
1.318332398e-09
1.336736702e-09
1.411614026e-09
1.711257606e-09
2.894962858e-09
7.498896721e-09
2.503012046e-08
8.982395297e-08
3.192625571e-07
1.082383309e-06
3.392086282e-06
9.42221535e-06
1.313316753e-09
1.314231867e-09
1.318918556e-09
1.338976709e-09
1.421446356e-09
1.755754712e-09
3.097330786e-09
8.417425133e-09
2.917223123e-08
1.082626526e-07
3.994188771e-07
1.416503987e-06
4.685838609e-06
1.381277467e-05
1.313144654e-09
1.313995593e-09
1.31833104e-09
1.336735321e-09
1.411612719e-09
1.711255563e-09
2.89495552e-09
7.498862167e-09
2.50299501e-08
8.98231647e-08
3.192590751e-07
1.08236929e-06
3.392036217e-06
9.422070301e-06
1.312717801e-09
1.313415981e-09
1.31692833e-09
1.331530691e-09
1.389410888e-09
1.614071454e-09
2.470990968e-09
5.672955986e-09
1.732003638e-08
5.818010026e-08
1.945993847e-07
6.197626089e-07
1.82165209e-06
4.771711187e-06
1.312244469e-09
1.312783616e-09
1.315449773e-09
1.326226807e-09
1.367479049e-09
1.521281516e-09
2.082034849e-09
4.075215897e-09
1.093892707e-08
3.363104958e-08
1.047631657e-07
3.125541178e-07
8.647909573e-07
2.156719504e-06
1.311943316e-09
1.312387162e-09
1.314544761e-09
1.323059356e-09
1.354682802e-09
1.468501203e-09
1.86720929e-09
3.222587986e-09
7.66669858e-09
2.160257106e-08
6.292982536e-08
1.771480204e-07
4.658443843e-07
1.117872838e-06
2.401655396e-06
1.311681973e-09
1.312051263e-09
1.313829681e-09
1.320711368e-09
1.345643621e-09
1.432827393e-09
1.728519481e-09
2.69865509e-09
5.760107289e-09
1.4980049e-08
4.121780036e-08
1.109109634e-07
2.811700775e-07
6.574469907e-07
1.311947354e-09
1.312390829e-09
1.314548203e-09
1.32306229e-09
1.354685938e-09
1.468507188e-09
1.86722851e-09
3.222661339e-09
7.666975485e-09
2.160356253e-08
6.293316295e-08
1.771583743e-07
4.658733864e-07
1.117945863e-06
1.312364472e-09
1.312927704e-09
1.315706679e-09
1.326934134e-09
1.36986771e-09
1.529628799e-09
2.110301327e-09
4.165199441e-09
1.120062209e-08
3.429558784e-08
1.060976917e-07
3.140017845e-07
8.618851978e-07
2.135614489e-06
1.312738985e-09
1.313415681e-09
1.316788744e-09
1.330653987e-09
1.384824339e-09
1.591452649e-09
2.363725534e-09
5.183279897e-09
1.517782437e-08
4.927052945e-08
1.597891687e-07
4.942129201e-07
1.414301418e-06
3.627571361e-06
1.312888644e-09
1.313612344e-09
1.317235129e-09
1.332225197e-09
1.39128055e-09
1.618796246e-09
2.479181911e-09
5.664492572e-09
1.714537866e-08
5.71036273e-08
1.898171139e-07
6.031433536e-07
1.777904757e-06
4.693500792e-06
1.312737579e-09
1.313414243e-09
1.316787194e-09
1.330652483e-09
1.384822577e-09
1.591449534e-09
2.363716588e-09
5.183245892e-09
1.517768938e-08
4.927000348e-08
1.597872381e-07
4.942063344e-07
1.414281097e-06
3.627517096e-06
1.312361678e-09
1.312925186e-09
1.315704117e-09
1.326931614e-09
1.369865171e-09
1.529624665e-09
2.110290006e-09
4.165157507e-09
1.120045903e-08
3.429496246e-08
1.060954789e-07
3.139948356e-07
8.618661245e-07
2.135572627e-06
1.311943375e-09
1.312387162e-09
1.314544968e-09
1.323059452e-09
1.354683484e-09
1.468503751e-09
1.867219319e-09
3.222625088e-09
7.666833161e-09
2.160304172e-08
6.293142571e-08
1.771532896e-07
4.658613969e-07
1.117928765e-06
1.311676361e-09
1.312048149e-09
1.31382787e-09
1.320710966e-09
1.345644386e-09
1.432828325e-09
1.728516994e-09
2.698633654e-09
5.760009777e-09
1.497967393e-08
4.121655497e-08
1.109074468e-07
2.811625071e-07
6.574420374e-07
)
;

boundaryField
{
    top
    {
        type            zeroGradient;
    }
    bottom
    {
        type            zeroGradient;
    }
    side-walls
    {
        type            zeroGradient;
    }
    inlet
    {
        type            zeroGradient;
    }
    outlet
    {
        type            zeroGradient;
    }
    procBoundary0to1
    {
        type            processor;
        value           nonuniform List<scalar> 
97
(
2.68785048e-06
2.40166809e-06
4.573320194e-06
8.740028398e-06
1.484862827e-05
1.921262442e-05
1.484848494e-05
8.739834689e-06
4.573131464e-06
2.687716313e-06
2.40166809e-06
2.40166809e-06
8.826850762e-06
1.065985894e-05
1.953423384e-05
3.85754363e-05
5.65504849e-05
3.857476021e-05
1.953356885e-05
8.826459395e-06
4.573145307e-06
4.649188028e-06
1.065985894e-05
1.065985894e-05
5.118417047e-05
7.378311696e-05
0.0001216238622
0.0002139335028
0.000121620992
5.118200032e-05
1.953359829e-05
8.739854222e-06
8.026692978e-06
2.175571083e-05
7.378311696e-05
7.378311696e-05
0.0003632567311
0.0007532849214
0.0008377189413
0.0003632471729
0.0001216213985
3.857499393e-05
1.484859114e-05
1.056215273e-05
3.334257811e-05
0.0001446464816
0.0007532849214
0.0007532849214
0.002880762471
0.0007532851321
0.0008377210641
0.0002524058006
0.0002139350872
5.655094927e-05
1.921283962e-05
8.02669529e-06
2.175532932e-05
7.377916045e-05
0.000252403222
0.0007532851321
0.0002524058006
0.0002524058006
0.0001216239167
2.906467067e-05
3.857590177e-05
1.484890394e-05
4.649076416e-06
1.065912053e-05
2.906342744e-05
7.377938475e-05
0.0001446468045
7.377890935e-05
2.906467067e-05
2.906467067e-05
1.953428105e-05
4.708577508e-06
8.74017319e-06
2.401504624e-06
4.708313877e-06
1.065915029e-05
2.175541168e-05
3.334263474e-05
2.175521713e-05
1.065920262e-05
4.708577508e-06
4.708577508e-06
4.573304899e-06
1.39816441e-06
1.398090553e-06
2.401516285e-06
4.649096686e-06
8.026696097e-06
1.056214268e-05
8.026605959e-06
4.649056173e-06
2.401540967e-06
1.39816441e-06
)
;
    }
}


// ************************************************************************* //
