/*--------------------------------*- C++ -*----------------------------------*\
| =========                 |                                                 |
| \\      /  F ield         | OpenFOAM: The Open Source CFD Toolbox           |
|  \\    /   O peration     | Version:  4.x                                   |
|   \\  /    A nd           | Web:      www.OpenFOAM.org                      |
|    \\/     M anipulation  |                                                 |
\*---------------------------------------------------------------------------*/
FoamFile
{
    version     2.0;
    format      ascii;
    class       volScalarField;
    location    "9000";
    object      Cpv;
}
// * * * * * * * * * * * * * * * * * * * * * * * * * * * * * * * * * * * * * //

dimensions      [0 2 -2 -1 0 0 0];

internalField   nonuniform List<scalar> 
1175
(
1210.459858
1210.459852
1210.459863
1210.459868
1210.459868
1210.459861
1210.459868
1210.459853
1210.459843
1210.459836
1210.459843
1210.459849
1210.459853
1210.459873
1210.459931
1210.460702
1210.460706
1210.460705
1210.460701
1210.460698
1210.460698
1210.460713
1210.46075
1210.460746
1210.460727
1210.460718
1210.460727
1210.460746
1210.460773
1210.460857
1210.459983
1210.460002
1210.459987
1210.459989
1210.459964
1210.459973
1210.459995
1210.459962
1210.459951
1210.459963
1210.459961
1210.459974
1210.459989
1210.460086
1210.460252
1210.45914
1210.459128
1210.459141
1210.459166
1210.45918
1210.459183
1210.459184
1210.45917
1210.459167
1210.459172
1210.45918
1210.459211
1210.459276
1210.459399
1210.459695
1210.459295
1210.459309
1210.459312
1210.459308
1210.459303
1210.459347
1210.459374
1210.459361
1210.459379
1210.459385
1210.459401
1210.459439
1210.459515
1210.459692
1210.460043
1210.459801
1210.459797
1210.459814
1210.4598
1210.45979
1210.459766
1210.459774
1210.459793
1210.459801
1210.459825
1210.459805
1210.459832
1210.459904
1210.460047
1210.460324
1210.460194
1210.460172
1210.460186
1210.460189
1210.460202
1210.460214
1210.460235
1210.460233
1210.460209
1210.460218
1210.460209
1210.460212
1210.460268
1210.460362
1210.460528
1210.459525
1210.459534
1210.459531
1210.459498
1210.459523
1210.459509
1210.459527
1210.459531
1210.459542
1210.459539
1210.459547
1210.45955
1210.459572
1210.459632
1210.459702
1210.459876
1210.459878
1210.459868
1210.45987
1210.459858
1210.459849
1210.459835
1210.459838
1210.45982
1210.459811
1210.459792
1210.459784
1210.459791
1210.45982
1210.459862
1210.460229
1210.460237
1210.460229
1210.46023
1210.460234
1210.460244
1210.460241
1210.460249
1210.46025
1210.460258
1210.460257
1210.460256
1210.46028
1210.460315
1210.458828
1210.458808
1210.458794
1210.458803
1210.458812
1210.458811
1210.458839
1210.458847
1210.458817
1210.45883
1210.45881
1210.458853
1210.458875
1210.458959
1210.459138
1210.458523
1210.458511
1210.458515
1210.458531
1210.458558
1210.45853
1210.458502
1210.458484
1210.458486
1210.458488
1210.458478
1210.458491
1210.45857
1210.458762
1210.459131
1210.460353
1210.460352
1210.460345
1210.460354
1210.460362
1210.460388
1210.460393
1210.460375
1210.460357
1210.460356
1210.460377
1210.460447
1210.460596
1210.461
1210.46179
1210.460942
1210.460938
1210.460947
1210.460956
1210.460942
1210.46094
1210.460966
1210.46097
1210.460962
1210.460962
1210.461008
1210.461069
1210.461284
1210.461862
1210.463089
1210.460015
1210.460001
1210.460032
1210.460046
1210.460039
1210.460039
1210.460053
1210.460052
1210.460055
1210.460066
1210.460056
1210.460125
1210.460271
1210.460639
1210.461404
1210.459288
1210.459277
1210.459296
1210.459296
1210.459342
1210.459327
1210.459327
1210.459317
1210.459299
1210.459289
1210.459292
1210.459319
1210.459396
1210.459596
1210.459991
1210.460226
1210.460223
1210.460219
1210.460242
1210.460238
1210.460254
1210.460252
1210.460214
1210.460233
1210.460207
1210.460268
1210.460303
1210.460314
1210.460412
1210.460584
1210.460026
1210.46002
1210.460018
1210.460008
1210.460007
1210.459979
1210.459961
1210.459947
1210.459971
1210.459968
1210.45996
1210.459971
1210.459981
1210.460039
1210.4601
1210.459981
1210.45997
1210.459955
1210.459969
1210.459957
1210.45996
1210.45995
1210.459963
1210.459965
1210.459961
1210.459965
1210.459986
1210.460019
1210.460089
1210.460905
1210.46089
1210.460885
1210.460932
1210.460911
1210.460897
1210.460905
1210.4609
1210.46089
1210.460899
1210.460909
1210.460939
1210.460976
1210.461151
1210.46048
1210.460481
1210.460472
1210.46048
1210.460464
1210.460435
1210.460415
1210.460394
1210.460382
1210.460367
1210.460385
1210.460464
1210.460674
1210.461192
1210.462265
1210.460158
1210.460163
1210.46014
1210.460145
1210.460146
1210.46015
1210.460145
1210.460144
1210.460176
1210.460168
1210.460196
1210.460312
1210.460715
1210.462005
1210.464796
1210.459982
1210.459972
1210.459985
1210.45999
1210.459984
1210.459972
1210.459953
1210.45996
1210.459973
1210.459993
1210.460045
1210.46022
1210.460958
1210.4633
1210.469129
1210.459398
1210.459391
1210.459396
1210.459333
1210.459335
1210.459324
1210.459323
1210.459343
1210.459372
1210.459386
1210.459402
1210.459521
1210.459976
1210.461248
1210.464002
1210.459243
1210.459227
1210.459236
1210.459253
1210.459259
1210.459248
1210.459238
1210.459245
1210.459264
1210.459269
1210.45927
1210.459321
1210.45954
1210.46005
1210.46112
1210.458917
1210.458943
1210.458912
1210.458926
1210.458918
1210.458913
1210.458903
1210.4589
1210.458911
1210.45891
1210.458898
1210.458912
1210.458992
1210.459165
1210.459554
1210.459471
1210.459465
1210.459471
1210.459461
1210.459456
1210.459429
1210.459448
1210.459462
1210.45946
1210.459454
1210.459475
1210.459502
1210.459556
1210.459648
1210.459829
1210.459362
1210.459368
1210.459369
1210.459386
1210.459384
1210.459355
1210.459376
1210.459359
1210.459344
1210.459351
1210.459363
1210.459372
1210.459414
1210.459571
1210.459231
1210.459231
1210.459256
1210.459253
1210.459263
1210.45926
1210.45924
1210.45925
1210.45925
1210.459261
1210.459276
1210.459331
1210.45951
1210.459896
1210.459527
1210.459534
1210.459529
1210.459524
1210.459531
1210.459555
1210.45957
1210.459593
1210.459596
1210.459607
1210.459634
1210.459759
1210.460204
1210.461464
1210.460655
1210.460655
1210.460653
1210.460681
1210.460695
1210.460695
1210.460687
1210.46068
1210.460678
1210.460691
1210.46074
1210.461024
1210.462202
1210.466274
1210.476667
1210.458419
1210.458428
1210.458416
1210.458426
1210.458425
1210.458401
1210.458397
1210.458383
1210.458386
1210.4584
1210.458509
1210.459005
1210.461288
1210.471312
1210.505826
1210.459484
1210.459502
1210.459481
1210.459445
1210.45944
1210.459416
1210.459433
1210.459415
1210.459427
1210.459438
1210.459508
1210.459789
1210.460955
1210.465005
1210.47538
1210.459431
1210.459413
1210.459393
1210.459395
1210.459407
1210.45941
1210.459443
1210.459434
1210.459426
1210.459448
1210.459472
1210.459618
1210.460034
1210.461285
1210.46409
1210.460534
1210.460516
1210.460499
1210.46048
1210.460475
1210.460447
1210.460472
1210.460506
1210.460485
1210.460508
1210.460535
1210.460601
1210.460714
1210.461101
1210.461875
1210.459337
1210.459324
1210.459322
1210.459323
1210.459332
1210.459322
1210.459305
1210.459295
1210.45929
1210.459272
1210.45927
1210.459275
1210.459357
1210.459519
1210.459783
1210.459796
1210.459793
1210.459774
1210.459736
1210.459745
1210.459744
1210.45974
1210.459749
1210.45974
1210.459736
1210.45976
1210.459782
1210.459864
1210.460052
1210.46021
1210.4602
1210.460179
1210.460183
1210.460158
1210.460157
1210.460131
1210.460104
1210.4601
1210.460077
1210.460101
1210.460152
1210.460362
1210.460952
1210.460323
1210.460323
1210.460359
1210.460377
1210.460406
1210.460422
1210.460395
1210.460355
1210.460364
1210.460355
1210.460392
1210.460587
1210.461289
1210.463659
1210.45899
1210.459002
1210.458974
1210.458969
1210.45896
1210.458958
1210.458974
1210.459
1210.459003
1210.459028
1210.459128
1210.459643
1210.461952
1210.471964
1210.460496
1210.460493
1210.460495
1210.460493
1210.460466
1210.46048
1210.460479
1210.460493
1210.4605
1210.46055
1210.460696
1210.461648
1210.467426
1210.504891
1210.272338
1210.459625
1210.459637
1210.459646
1210.459657
1210.459659
1210.459658
1210.459653
1210.459665
1210.459692
1210.459709
1210.459822
1210.460344
1210.4626
1210.472638
1210.507136
1210.460336
1210.460347
1210.460346
1210.460347
1210.460352
1210.46036
1210.460371
1210.460374
1210.460362
1210.460365
1210.460428
1210.460591
1210.461312
1210.463638
1210.469492
1210.460398
1210.460401
1210.460414
1210.460434
1210.460421
1210.460413
1210.460408
1210.4604
1210.460417
1210.460409
1210.460428
1210.460493
1210.460689
1210.461269
1210.462519
1210.459461
1210.459454
1210.45947
1210.459468
1210.459454
1210.459464
1210.459457
1210.459449
1210.459448
1210.459433
1210.459459
1210.459481
1210.459525
1210.459697
1210.46008
1210.460662
1210.460669
1210.460679
1210.460687
1210.460694
1210.460668
1210.460671
1210.460684
1210.460698
1210.460704
1210.460726
1210.460761
1210.460817
1210.460972
1210.459724
1210.459694
1210.459675
1210.459668
1210.45966
1210.45967
1210.459667
1210.459681
1210.45968
1210.459687
1210.459693
1210.459772
1210.459927
1210.460324
1210.460018
1210.460027
1210.460032
1210.460036
1210.460004
1210.460011
1210.460004
1210.459983
1210.459973
1210.459978
1210.460021
1210.460155
1210.460598
1210.461874
1210.459678
1210.459675
1210.459666
1210.459675
1210.459676
1210.459671
1210.459675
1210.45969
1210.459716
1210.459742
1210.459817
1210.460114
1210.461278
1210.465328
1210.46033
1210.460334
1210.460315
1210.460298
1210.460311
1210.460332
1210.460333
1210.460311
1210.460343
1210.460383
1210.460503
1210.460973
1210.463262
1210.473239
1210.459154
1210.459172
1210.459185
1210.459177
1210.459183
1210.459188
1210.45917
1210.459167
1210.459161
1210.45919
1210.459258
1210.459519
1210.460701
1210.464713
1210.459616
1210.459627
1210.459617
1210.459584
1210.459613
1210.459606
1210.459589
1210.459584
1210.459588
1210.459599
1210.459622
1210.45972
1210.460168
1210.461455
1210.464229
1210.460725
1210.460721
1210.460737
1210.460723
1210.460754
1210.46075
1210.46075
1210.460742
1210.460754
1210.460735
1210.460778
1210.460812
1210.46096
1210.461354
1210.462152
1210.459929
1210.459955
1210.459972
1210.459979
1210.459949
1210.459967
1210.459969
1210.459945
1210.459989
1210.459998
1210.460004
1210.460016
1210.460085
1210.460236
1210.460515
1210.459358
1210.459336
1210.459331
1210.459349
1210.459357
1210.459365
1210.45936
1210.459338
1210.459359
1210.459383
1210.459366
1210.459362
1210.45938
1210.45946
1210.458829
1210.458852
1210.458833
1210.458819
1210.458825
1210.458833
1210.458824
1210.458825
1210.458831
1210.458812
1210.458805
1210.458842
1210.458928
1210.459104
1210.460059
1210.460035
1210.460055
1210.46006
1210.460047
1210.460067
1210.460055
1210.460078
1210.460085
1210.460093
1210.460123
1210.460207
1210.460416
1210.460914
1210.460351
1210.46033
1210.460372
1210.46037
1210.460398
1210.460404
1210.460375
1210.460422
1210.460408
1210.460397
1210.460445
1210.460565
1210.461009
1210.462278
1210.46014
1210.460131
1210.460112
1210.46015
1210.460167
1210.460129
1210.460144
1210.460134
1210.460124
1210.46014
1210.460179
1210.460358
1210.461072
1210.463459
1210.459585
1210.459603
1210.4596
1210.459632
1210.459669
1210.459656
1210.459635
1210.459635
1210.459629
1210.459647
1210.459671
1210.459811
1210.46024
1210.461551
1210.459442
1210.459405
1210.459408
1210.459414
1210.45941
1210.459423
1210.459434
1210.45945
1210.459461
1210.459464
1210.459485
1210.459569
1210.459727
1210.460259
1210.459805
1210.459811
1210.459823
1210.459814
1210.459813
1210.459782
1210.459775
1210.459766
1210.459773
1210.459782
1210.459795
1210.45982
1210.459919
1210.46011
1210.460485
1210.459557
1210.459573
1210.459585
1210.459598
1210.459591
1210.459586
1210.459581
1210.459571
1210.459585
1210.459567
1210.459566
1210.459591
1210.45961
1210.459711
1210.45988
1210.459734
1210.459729
1210.459697
1210.459708
1210.459692
1210.459661
1210.459692
1210.459694
1210.459698
1210.459718
1210.459687
1210.459694
1210.459714
1210.459767
1210.45969
1210.459718
1210.45973
1210.459747
1210.459754
1210.459741
1210.459742
1210.459727
1210.459732
1210.459729
1210.459749
1210.459763
1210.459787
1210.459866
1210.459275
1210.459271
1210.459266
1210.459279
1210.45928
1210.459298
1210.459289
1210.459326
1210.459338
1210.459335
1210.459327
1210.45934
1210.45944
1210.45963
1210.45996
1210.459971
1210.459938
1210.459948
1210.459952
1210.45995
1210.459961
1210.459952
1210.459955
1210.45995
1210.459959
1210.459994
1210.460132
1210.460488
1210.460028
1210.460033
1210.460015
1210.46002
1210.460021
1210.460049
1210.460046
1210.460039
1210.460034
1210.460052
1210.46008
1210.460128
1210.460345
1210.460903
1210.460361
1210.460363
1210.460375
1210.460381
1210.460372
1210.460371
1210.460377
1210.460381
1210.460404
1210.460412
1210.46042
1210.46047
1210.460617
1210.460989
1210.458576
1210.45858
1210.458579
1210.458606
1210.458632
1210.458632
1210.458653
1210.45864
1210.458649
1210.458645
1210.458641
1210.458651
1210.458741
1210.458962
1210.45861
1210.458611
1210.458633
1210.458644
1210.458613
1210.458636
1210.45863
1210.458652
1210.45863
1210.458623
1210.458641
1210.458655
1210.45869
1210.458787
1210.459129
1210.459125
1210.459138
1210.459129
1210.459123
1210.459114
1210.459107
1210.459119
1210.459109
1210.459102
1210.459103
1210.459121
1210.459131
1210.459182
1210.459272
1210.459128
1210.459145
1210.459149
1210.459136
1210.459137
1210.459142
1210.459144
1210.459133
1210.459129
1210.459126
1210.459135
1210.459156
1210.459164
1210.459209
1210.460315
1210.460296
1210.460284
1210.46027
1210.460267
1210.460247
1210.460251
1210.460245
1210.460227
1210.460216
1210.460225
1210.460252
1210.46029
1210.460318
1210.459759
1210.459768
1210.459765
1210.459752
1210.459771
1210.459774
1210.459777
1210.459779
1210.459801
1210.45983
1210.459842
1210.459864
1210.459907
1210.459976
1210.459758
1210.459754
1210.459727
1210.459731
1210.459722
1210.459705
1210.459713
1210.459709
1210.459716
1210.459726
1210.459711
1210.459738
1210.459778
1210.459936
1210.459024
1210.45902
1210.459019
1210.45901
1210.459001
1210.459008
1210.458982
1210.458994
1210.45899
1210.458983
1210.459006
1210.45904
1210.459106
1210.459292
1210.459209
1210.459186
1210.459194
1210.459192
1210.459205
1210.459206
1210.459211
1210.459205
1210.459232
1210.459208
1210.459211
1210.459225
1210.459294
1210.459443
1210.459731
1210.459728
1210.459711
1210.459705
1210.459729
1210.459742
1210.45974
1210.459734
1210.45972
1210.459741
1210.459749
1210.459772
1210.459819
1210.459907
1210.460077
1210.460085
1210.460092
1210.46009
1210.460093
1210.460114
1210.460116
1210.4601
1210.460098
1210.460103
1210.46009
1210.460088
1210.460115
1210.460149
1210.459244
1210.459257
1210.45924
1210.459239
1210.459236
1210.45923
1210.45923
1210.459229
1210.459226
1210.45922
1210.459247
1210.459251
1210.459255
1210.459273
)
;

boundaryField
{
    top
    {
        type            calculated;
        value           nonuniform List<scalar> 
134
(
1210.459876
1210.460026
1210.459471
1210.459337
1210.459461
1210.459929
1210.459557
1210.459129
1210.459244
1210.459878
1210.46002
1210.459465
1210.459324
1210.459454
1210.459955
1210.459573
1210.459125
1210.459257
1210.459868
1210.460018
1210.459471
1210.459322
1210.45947
1210.459972
1210.459585
1210.459138
1210.45924
1210.45987
1210.460008
1210.459461
1210.459323
1210.459468
1210.459979
1210.459598
1210.459129
1210.459239
1210.459858
1210.460007
1210.459456
1210.459332
1210.459454
1210.459949
1210.459591
1210.459123
1210.459236
1210.459849
1210.459979
1210.459429
1210.459322
1210.459464
1210.459967
1210.459586
1210.459114
1210.45923
1210.459835
1210.459961
1210.459448
1210.459305
1210.459457
1210.459969
1210.459581
1210.459107
1210.45923
1210.459838
1210.459947
1210.459462
1210.459295
1210.459449
1210.459945
1210.459571
1210.459119
1210.459229
1210.45982
1210.459971
1210.45946
1210.45929
1210.459448
1210.459989
1210.459585
1210.459109
1210.459226
1210.459811
1210.459968
1210.459454
1210.459272
1210.459433
1210.459998
1210.459567
1210.459102
1210.45922
1210.459792
1210.45996
1210.459475
1210.45927
1210.459459
1210.460004
1210.459566
1210.459103
1210.459247
1210.459784
1210.459971
1210.459502
1210.459275
1210.459481
1210.460016
1210.459591
1210.459121
1210.459251
1210.459791
1210.459981
1210.459556
1210.459357
1210.459525
1210.460085
1210.45961
1210.459131
1210.459255
1210.45982
1210.460039
1210.459648
1210.459519
1210.459697
1210.460236
1210.459711
1210.459182
1210.459273
1210.459862
1210.4601
1210.459829
1210.459783
1210.46008
1210.460515
1210.45988
1210.459272
)
;
    }
    bottom
    {
        type            calculated;
        value           nonuniform List<scalar> 
127
(
1210.459858
1210.460229
1210.459981
1210.459362
1210.459796
1210.460662
1210.459358
1210.459734
1210.459128
1210.459852
1210.460237
1210.45997
1210.459368
1210.459793
1210.460669
1210.459336
1210.459729
1210.459145
1210.459863
1210.460229
1210.459955
1210.459369
1210.459774
1210.460679
1210.459331
1210.459697
1210.459149
1210.459868
1210.46023
1210.459969
1210.459386
1210.459736
1210.460687
1210.459349
1210.459708
1210.459136
1210.459868
1210.460234
1210.459957
1210.459384
1210.459745
1210.460694
1210.459357
1210.459692
1210.459137
1210.459861
1210.460244
1210.45996
1210.459355
1210.459744
1210.460668
1210.459365
1210.459661
1210.459142
1210.459868
1210.460241
1210.45995
1210.459376
1210.45974
1210.460671
1210.45936
1210.459692
1210.459144
1210.459853
1210.460249
1210.459963
1210.459359
1210.459749
1210.460684
1210.459338
1210.459694
1210.459133
1210.459843
1210.46025
1210.459965
1210.459344
1210.45974
1210.460698
1210.459359
1210.459698
1210.459129
1210.459836
1210.460258
1210.459961
1210.459351
1210.459736
1210.460704
1210.459383
1210.459718
1210.459126
1210.459843
1210.460257
1210.459965
1210.459363
1210.45976
1210.460726
1210.459366
1210.459687
1210.459135
1210.459849
1210.460256
1210.459986
1210.459372
1210.459782
1210.460761
1210.459362
1210.459694
1210.459156
1210.459853
1210.46028
1210.460019
1210.459414
1210.459864
1210.460817
1210.45938
1210.459714
1210.459164
1210.459873
1210.460315
1210.460089
1210.459571
1210.460052
1210.460972
1210.45946
1210.459767
1210.459209
1210.459931
)
;
    }
    side-walls
    {
        type            calculated;
        value           nonuniform List<scalar> 
261
(
1210.459858
1210.460702
1210.459983
1210.45914
1210.459295
1210.459801
1210.460194
1210.459525
1210.459876
1210.459852
1210.460706
1210.460002
1210.459128
1210.459309
1210.459797
1210.460172
1210.459534
1210.459878
1210.459863
1210.460705
1210.459987
1210.459141
1210.459312
1210.459814
1210.460186
1210.459531
1210.459868
1210.459868
1210.460701
1210.459989
1210.459166
1210.459308
1210.4598
1210.460189
1210.459498
1210.45987
1210.459868
1210.460698
1210.459964
1210.45918
1210.459303
1210.45979
1210.460202
1210.459523
1210.459858
1210.459861
1210.460698
1210.459973
1210.459183
1210.459347
1210.459766
1210.460214
1210.459509
1210.459849
1210.459868
1210.460713
1210.459995
1210.459184
1210.459374
1210.459774
1210.460235
1210.459527
1210.459835
1210.459853
1210.46075
1210.459962
1210.45917
1210.459361
1210.459793
1210.460233
1210.459531
1210.459838
1210.459843
1210.460746
1210.459951
1210.459167
1210.459379
1210.459801
1210.460209
1210.459542
1210.45982
1210.459836
1210.460727
1210.459963
1210.459172
1210.459385
1210.459825
1210.460218
1210.459539
1210.459811
1210.459843
1210.460718
1210.459961
1210.45918
1210.459401
1210.459805
1210.460209
1210.459547
1210.459792
1210.459849
1210.460727
1210.459974
1210.459211
1210.459439
1210.459832
1210.460212
1210.45955
1210.459784
1210.459853
1210.460746
1210.459989
1210.459276
1210.459515
1210.459904
1210.460268
1210.459572
1210.459791
1210.459873
1210.460773
1210.460086
1210.459399
1210.459692
1210.460047
1210.460362
1210.459632
1210.45982
1210.459931
1210.460857
1210.460252
1210.459695
1210.460043
1210.460324
1210.460528
1210.459702
1210.459862
1210.459128
1210.460315
1210.459759
1210.459758
1210.459024
1210.459209
1210.459731
1210.460077
1210.459244
1210.459145
1210.460296
1210.459768
1210.459754
1210.45902
1210.459186
1210.459728
1210.460085
1210.459257
1210.459149
1210.460284
1210.459765
1210.459727
1210.459019
1210.459194
1210.459711
1210.460092
1210.45924
1210.459136
1210.46027
1210.459752
1210.459731
1210.45901
1210.459192
1210.459705
1210.46009
1210.459239
1210.459137
1210.460267
1210.459771
1210.459722
1210.459001
1210.459205
1210.459729
1210.460093
1210.459236
1210.459142
1210.460247
1210.459774
1210.459705
1210.459008
1210.459206
1210.459742
1210.460114
1210.45923
1210.459144
1210.460251
1210.459777
1210.459713
1210.458982
1210.459211
1210.45974
1210.460116
1210.45923
1210.459133
1210.460245
1210.459779
1210.459709
1210.458994
1210.459205
1210.459734
1210.4601
1210.459229
1210.459129
1210.460227
1210.459801
1210.459716
1210.45899
1210.459232
1210.45972
1210.460098
1210.459226
1210.459126
1210.460216
1210.45983
1210.459726
1210.458983
1210.459208
1210.459741
1210.460103
1210.45922
1210.459135
1210.460225
1210.459842
1210.459711
1210.459006
1210.459211
1210.459749
1210.46009
1210.459247
1210.459156
1210.460252
1210.459864
1210.459738
1210.45904
1210.459225
1210.459772
1210.460088
1210.459251
1210.459164
1210.46029
1210.459907
1210.459778
1210.459106
1210.459294
1210.459819
1210.460115
1210.459255
1210.459209
1210.460318
1210.459976
1210.459936
1210.459292
1210.459443
1210.459907
1210.460149
1210.459273
)
;
    }
    inlet
    {
        type            calculated;
        value           nonuniform List<scalar> 
81
(
1210.459858
1210.460702
1210.459983
1210.45914
1210.459295
1210.459801
1210.460194
1210.459525
1210.459876
1210.460229
1210.458828
1210.458523
1210.460353
1210.460942
1210.460015
1210.459288
1210.460226
1210.460026
1210.459981
1210.460905
1210.46048
1210.460158
1210.459982
1210.459398
1210.459243
1210.458917
1210.459471
1210.459362
1210.459231
1210.459527
1210.460655
1210.458419
1210.459484
1210.459431
1210.460534
1210.459337
1210.459796
1210.46021
1210.460323
1210.45899
1210.460496
1210.459625
1210.460336
1210.460398
1210.459461
1210.460662
1210.459724
1210.460018
1210.459678
1210.46033
1210.459154
1210.459616
1210.460725
1210.459929
1210.459358
1210.458829
1210.460059
1210.460351
1210.46014
1210.459585
1210.459442
1210.459805
1210.459557
1210.459734
1210.45969
1210.459275
1210.45996
1210.460028
1210.460361
1210.458576
1210.45861
1210.459129
1210.459128
1210.460315
1210.459759
1210.459758
1210.459024
1210.459209
1210.459731
1210.460077
1210.459244
)
;
    }
    outlet
    {
        type            calculated;
        value           nonuniform 0();
    }
    procBoundary0to1
    {
        type            processor;
        value           nonuniform List<scalar> 
97
(
1210.460012
1210.460391
1210.461011
1210.460506
1210.460129
1210.46061
1210.460745
1210.460766
1210.459841
1210.459956
1210.460391
1210.460391
1210.459389
1210.46155
1210.459677
1210.462864
1210.464538
1210.462454
1210.460551
1210.46085
1210.460222
1210.460238
1210.46155
1210.46155
1210.463644
1210.464235
1210.467842
1210.473518
1210.467049
1210.462521
1210.460139
1210.460107
1210.459857
1210.460655
1210.464235
1210.464235
1210.483684
1210.506507
1210.511175
1210.482399
1210.467125
1210.462929
1210.460213
1210.46043
1210.462168
1210.469509
1210.506507
1210.506507
1210.147398
1210.507781
1210.512466
1210.475069
1210.473873
1210.463983
1210.460641
1210.461238
1210.461094
1210.464674
1210.475675
1210.507781
1210.475069
1210.475069
1210.467272
1210.461315
1210.463208
1210.46095
1210.459633
1210.459499
1210.461977
1210.465068
1210.469295
1210.46438
1210.461315
1210.461315
1210.46105
1210.458933
1210.460163
1210.459842
1210.460013
1210.459982
1210.461285
1210.462137
1210.461767
1210.459335
1210.458933
1210.458933
1210.459398
1210.459325
1210.459222
1210.460418
1210.460139
1210.460191
1210.45968
1210.459702
1210.460068
1210.460217
1210.459325
)
;
    }
}


// ************************************************************************* //
