/*--------------------------------*- C++ -*----------------------------------*\
| =========                 |                                                 |
| \\      /  F ield         | OpenFOAM: The Open Source CFD Toolbox           |
|  \\    /   O peration     | Version:  4.x                                   |
|   \\  /    A nd           | Web:      www.OpenFOAM.org                      |
|    \\/     M anipulation  |                                                 |
\*---------------------------------------------------------------------------*/
FoamFile
{
    version     2.0;
    format      ascii;
    class       volScalarField;
    location    "9000";
    object      molarConc;
}
// * * * * * * * * * * * * * * * * * * * * * * * * * * * * * * * * * * * * * //

dimensions      [0 -3 0 0 1 0 0];

internalField   nonuniform List<scalar> 
1175
(
9.96327267
9.963272981
9.963272386
9.963272115
9.96327212
9.963272508
9.963272133
9.963272966
9.963273499
9.963273914
9.963273622
9.963273569
9.963273946
9.963274122
9.963273507
9.963226304
9.963226074
9.963226163
9.963226371
9.963226516
9.963226533
9.963225736
9.963223668
9.963223896
9.963225029
9.963225673
9.963225547
9.96322549
9.963226309
9.963226113
9.963265786
9.963264755
9.963265607
9.963265487
9.963266829
9.963266343
9.963265162
9.96326695
9.963267618
9.963267003
9.963267364
9.963267376
9.963268451
9.963267543
9.963267155
9.963312085
9.963312752
9.963312067
9.963310658
9.963309903
9.963309747
9.963309695
9.963310463
9.963310704
9.963310532
9.963310465
9.963309935
9.963309546
9.963310456
9.963309515
9.963303592
9.963302802
9.96330265
9.963302897
9.963303176
9.963300727
9.963299236
9.963300007
9.963299014
9.963298837
9.963298451
9.963297799
9.963297682
9.963298094
9.963299161
9.963275802
9.963276042
9.963275093
9.963275885
9.963276417
9.963277712
9.96327727
9.963276247
9.963275839
9.963274656
9.963276149
9.963275824
9.963275067
9.963274864
9.963274951
9.963254202
9.963255421
9.963254681
9.96325447
9.963253785
9.963253149
9.963251974
9.963252082
9.963253408
9.963252995
9.963253776
9.963254293
9.963253163
9.963252396
9.96325203
9.963290942
9.963290454
9.963290647
9.96329245
9.96329107
9.963291867
9.963290835
9.963290637
9.963290054
9.963290251
9.963289956
9.963290186
9.963290013
9.963288954
9.963289583
9.963271686
9.96327155
9.963272115
9.96327199
9.963272681
9.963273189
9.963273964
9.963273752
9.963274805
9.963275306
9.963276444
9.963277145
9.963277321
9.963277056
9.963277288
9.963252324
9.963251872
9.963252287
9.963252239
9.963251997
9.963251491
9.963251652
9.963251214
9.96325117
9.963250759
9.963250985
9.96325141
9.963251122
9.963251437
9.963329263
9.963330325
9.963331132
9.963330642
9.963330154
9.963330156
9.96332863
9.963328189
9.963329877
9.963329236
9.963330588
9.963328962
9.963329691
9.963329528
9.963328542
9.963346017
9.963346684
9.963346463
9.963345541
9.963344078
9.963345611
9.963347144
9.963348139
9.963348075
9.963348123
9.963349149
9.963349926
9.963349714
9.963349421
9.963349627
9.963245496
9.96324553
9.963245928
9.963245448
9.963245005
9.96324357
9.963243281
9.963244284
9.963245329
9.963245623
9.963245252
9.963244086
9.963243935
9.963242639
9.963242077
9.963213158
9.963213364
9.963212889
9.96321234
9.963213117
9.963213264
9.963211843
9.963211626
9.963212133
9.963212386
9.963210878
9.963211057
9.963210633
9.963210555
9.963210933
9.963264063
9.963264845
9.963263108
9.963262377
9.963262748
9.96326274
9.963261988
9.963262055
9.963261918
9.963261558
9.963262898
9.963261736
9.963261759
9.963262459
9.96326328
9.963303972
9.963304576
9.963303538
9.963303525
9.963300998
9.963301865
9.963301823
9.96330239
9.96330345
9.963304136
9.963304426
9.963304452
9.963304343
9.963303605
9.963302378
9.963252451
9.963252627
9.963252824
9.963251579
9.963251803
9.963250927
9.96325105
9.963253141
9.963252086
9.963253615
9.963250502
9.963249322
9.963250613
9.963249732
9.963249159
9.963263454
9.963263793
9.96326386
9.963264447
9.9632645
9.963266021
9.963266996
9.963267773
9.963266473
9.963266721
9.963267274
9.963267084
9.963267517
9.963266624
9.963267697
9.963265904
9.96326652
9.963267348
9.963266597
9.963267249
9.963267081
9.963267603
9.96326692
9.963266845
9.96326711
9.963267148
9.963266738
9.96326684
9.963267381
9.963215179
9.96321598
9.96321626
9.963213705
9.963214865
9.963215597
9.963215179
9.963215451
9.963216041
9.963215703
9.963215605
9.963215463
9.9632176
9.963218198
9.963238533
9.963238463
9.963238941
9.963238539
9.963239401
9.963240997
9.963242112
9.963243252
9.963243988
9.963245081
9.963245122
9.963244203
9.963243271
9.963242804
9.963241382
9.96325618
9.963255939
9.963257213
9.963256938
9.963256851
9.963256636
9.963256907
9.963256995
9.963255339
9.963256301
9.963256624
9.963257259
9.963258908
9.963257863
9.963257568
9.963265891
9.963266412
9.96326571
9.963265437
9.963265744
9.963266429
9.963267461
9.963267134
9.963266536
9.963266076
9.963265764
9.963266417
9.96326459
9.963264955
9.963265574
9.963297963
9.963298332
9.963298061
9.963301539
9.9633014
9.963301997
9.963302071
9.963301017
9.963299521
9.963299248
9.963300232
9.963300674
9.963299464
9.963299443
9.96330116
9.963306455
9.963307324
9.963306861
9.963305926
9.963305552
9.963306169
9.963306724
9.963306361
9.963305403
9.963305389
9.963306348
9.963307001
9.963305535
9.963305525
9.963304276
9.963324373
9.963322909
9.963324638
9.963323863
9.963324301
9.963324597
9.963325135
9.963325298
9.963324742
9.963324927
9.963326058
9.963326801
9.963326584
9.963327284
9.963326352
9.963293932
9.963294266
9.963293958
9.963294465
9.963294737
9.963296254
9.963295202
9.963294462
9.96329457
9.963294953
9.963294067
9.963293306
9.963292261
9.963291617
9.963290398
9.963299919
9.963299575
9.963299528
9.963298606
9.963298711
9.963300327
9.963299126
9.963300098
9.963300947
9.963300672
9.963300405
9.963301103
9.963301972
9.963301049
9.963307138
9.963307115
9.96330576
9.963305911
9.96330533
9.963305505
9.963306616
9.963306085
9.963306158
9.963305766
9.96330576
9.963305373
9.963303541
9.963303283
9.963290873
9.963290454
9.963290761
9.963291023
9.963290622
9.963289329
9.963288503
9.963287286
9.963287242
9.963287097
9.963287472
9.9632876
9.963286963
9.963287601
9.963228923
9.963228917
9.963229032
9.963227474
9.963226678
9.9632267
9.963227156
9.963227597
9.963227911
9.96322808
9.963229257
9.963229889
9.96322934
9.963228186
9.963225699
9.963351739
9.963351208
9.963351903
9.963351312
9.963351399
9.963352692
9.963352917
9.963353774
9.963353846
9.963354297
9.963354042
9.963353885
9.963354644
9.963353429
9.963362693
9.963293203
9.963292252
9.963293406
9.96329537
9.963295625
9.96329694
9.963296035
9.963297077
9.963296636
9.963296869
9.96329692
9.963297716
9.963297786
9.963297879
9.963296342
9.96329613
9.963297121
9.963298198
9.963298081
9.963297437
9.963297267
9.9632955
9.963296019
9.963296535
9.963295821
9.963296415
9.963295352
9.963296301
9.963297401
9.963296376
9.963235571
9.963236534
9.963237471
9.963238524
9.963238813
9.963240304
9.963238979
9.963237104
9.963238333
9.963237308
9.963236611
9.963235604
9.96323743
9.963237125
9.963237389
9.963301315
9.963302026
9.963302143
9.963302048
9.963301563
9.96330212
9.963303067
9.963303623
9.963303934
9.96330505
9.963305516
9.963306429
9.963305088
9.963303908
9.963304679
9.963276096
9.963276249
9.963277287
9.963279354
9.96327888
9.963278933
9.963279161
9.963278688
9.963279226
9.963279586
9.963278736
9.963278961
9.963278527
9.963278328
9.963253345
9.963253898
9.963255029
9.963254811
9.963256195
9.963256264
9.96325769
9.963259189
9.963259464
9.963261028
9.963260692
9.963261458
9.963261254
9.963260548
9.96324715
9.963247122
9.963245168
9.963244161
9.963242556
9.963241685
9.963243214
9.963245414
9.963245066
9.963246189
9.96324673
9.963246259
9.963246435
9.963245288
9.963320335
9.963319715
9.963321239
9.963321522
9.96332199
9.96332212
9.963321249
9.963319891
9.96331994
9.96331979
9.963320024
9.963318847
9.963318151
9.963317751
9.963237622
9.963237809
9.963237702
9.963237805
9.963239254
9.963238512
9.963238605
9.96323791
9.963237853
9.963236856
9.963238079
9.963238164
9.963237212
9.963235827
9.99045425
9.963285483
9.963284816
9.963284316
9.96328374
9.96328358
9.96328364
9.963283975
9.963283333
9.963282114
9.963282422
9.963281925
9.963280383
9.963282547
9.963280636
9.963290805
9.963246409
9.963245839
9.963245898
9.963245803
9.96324552
9.963245117
9.963244507
9.963244377
9.9632452
9.963245653
9.963244717
9.963246033
9.963245144
9.963246432
9.963245649
9.963243021
9.963242874
9.963242142
9.963241031
9.963241768
9.963242169
9.963242477
9.963242918
9.963242083
9.963242784
9.963242734
9.963242719
9.96324327
9.963243115
9.963242241
9.963294496
9.96329486
9.963293972
9.963294099
9.963294856
9.963294307
9.963294731
9.96329513
9.963295263
9.963296227
9.96329524
9.963295477
9.963297148
9.963297799
9.963297126
9.963228497
9.963228144
9.963227591
9.963227119
9.963226761
9.963228181
9.963228017
9.963227299
9.963226569
9.963226395
9.963225527
9.96322479
9.963224891
9.963224072
9.963280056
9.963281673
9.963282702
9.963283097
9.963283545
9.963283015
9.963283168
9.96328243
9.963282542
9.963282376
9.963282841
9.963281128
9.963280665
9.963279802
9.963263878
9.963263402
9.963263134
9.963262906
9.963264637
9.963264278
9.963264686
9.963265862
9.963266526
9.963266695
9.963266242
9.96326585
9.963265328
9.963265069
9.963282539
9.96328273
9.963283196
9.963282714
9.963282665
9.963282975
9.96328275
9.963281974
9.963280729
9.963280202
9.96327992
9.963279863
9.963280067
9.963280185
9.963246772
9.963246526
9.963247597
9.963248489
9.963247778
9.963246655
9.963246615
9.963247856
9.963246374
9.963245386
9.963244512
9.963245795
9.96324621
9.963247721
9.963311328
9.963310366
9.963309645
9.963310099
9.963309764
9.963309455
9.963310501
9.963310685
9.963311208
9.963310544
9.963310632
9.963312552
9.963311775
9.963313963
9.963285956
9.963285341
9.9632859
9.963287752
9.963286157
9.963286514
9.963287473
9.963287741
9.963287651
9.963287516
9.963288179
9.963289728
9.963288933
9.963288083
9.963288768
9.963225069
9.963225286
9.963224422
9.963225178
9.963223484
9.963223705
9.963223675
9.963224135
9.963223534
9.963224813
9.963223242
9.963224048
9.963223908
9.963223223
9.963222205
9.963268766
9.963267344
9.963266429
9.963266006
9.963267685
9.963266686
9.96326656
9.963267929
9.963265556
9.963265164
9.963265229
9.963265727
9.963265102
9.9632645
9.96326446
9.96330014
9.963301325
9.963301645
9.963300608
9.963300166
9.963299744
9.963300033
9.96330125
9.963300101
9.963298887
9.963300051
9.963301011
9.963301942
9.963301924
9.963329198
9.963327912
9.963328969
9.963329725
9.963329423
9.963328988
9.963329486
9.963329438
9.963329139
9.963330347
9.963331206
9.963330613
9.963330058
9.963330671
9.963261633
9.963262952
9.963261837
9.963261554
9.963262308
9.963261171
9.96326184
9.963260591
9.963260325
9.963260152
9.963259513
9.963258344
9.963257424
9.963258088
9.963245588
9.963246759
9.963244452
9.963244527
9.963243011
9.963242696
9.963244314
9.963241739
9.963242609
9.963243722
9.963242958
9.963243343
9.963242764
9.963242885
9.963257169
9.963257682
9.963258751
9.963256627
9.963255714
9.963257815
9.963256965
9.96325756
9.963258249
9.963258015
9.963258427
9.963258814
9.963258347
9.963256257
9.963287651
9.963286662
9.963286857
9.96328507
9.963283074
9.963283747
9.963284935
9.963284986
9.96328543
9.963284893
9.963285438
9.963284749
9.963284982
9.963282811
9.963295503
9.963297532
9.963297387
9.963297075
9.963297271
9.963296572
9.963295954
9.963295111
9.963294565
9.963294718
9.963294554
9.963293394
9.963295264
9.963294047
9.963275568
9.963275258
9.963274599
9.963275077
9.963275165
9.963276859
9.963277254
9.96327776
9.963277375
9.963277036
9.963276801
9.963276914
9.963275639
9.963275388
9.963275237
9.963289233
9.963288334
9.963287689
9.963286965
9.963287325
9.963287592
9.963287876
9.963288439
9.963287702
9.963288774
9.96328909
9.963288425
9.963289272
9.963288184
9.963287612
9.963279459
9.963279768
9.963281496
9.963280904
9.963281788
9.963283475
9.963281815
9.963281706
9.963281481
9.963280462
9.963282297
9.963282306
9.963282204
9.963281549
9.963281892
9.963280391
9.963279733
9.963278774
9.96327838
9.963279096
9.963279024
9.963279904
9.963279617
9.963279859
9.963279032
9.963278987
9.963279555
9.963279724
9.963304705
9.963304931
9.963305211
9.963304497
9.963304402
9.963303412
9.963303914
9.963301885
9.963301278
9.963301618
9.963302506
9.963303274
9.963301939
9.963301747
9.963267078
9.963266453
9.963268264
9.963267743
9.963267491
9.963267622
9.963266999
9.963267561
9.96326741
9.963267944
9.963268245
9.963268934
9.963269375
9.963270802
9.963263319
9.96326306
9.963264063
9.96326377
9.963263706
9.963262168
9.963262364
9.96326276
9.963263107
9.963262388
9.963261836
9.963262785
9.963262165
9.963263243
9.963245024
9.963244932
9.963244284
9.963243924
9.963244437
9.963244518
9.963244168
9.963243959
9.963242741
9.963242551
9.96324291
9.96324283
9.963242732
9.963243278
9.963343102
9.963342893
9.963342928
9.963341449
9.963339997
9.963340028
9.96333888
9.963339581
9.963339117
9.963339486
9.963340194
9.963341134
9.963340362
9.963338476
9.96334122
9.963341164
9.963339959
9.963339349
9.96334105
9.963339802
9.963340121
9.963338907
9.963340139
9.963340609
9.96333988
9.963339807
9.96333983
9.96333899
9.963312704
9.96331295
9.963312209
9.96331272
9.963313041
9.963313534
9.963313952
9.963313285
9.963313859
9.963314277
9.963314366
9.963313788
9.963314219
9.963313667
9.963313169
9.963312754
9.963311851
9.963311635
9.963312327
9.963312285
9.963312006
9.963311915
9.96331251
9.963312754
9.963312912
9.963312551
9.963311613
9.963311774
9.963310602
9.963247573
9.963248645
9.963249275
9.963250035
9.963250216
9.963251296
9.963251101
9.963251449
9.963252432
9.963253085
9.963252729
9.963251648
9.963250553
9.963251273
9.96327813
9.963277607
9.963277789
9.963278514
9.963277464
9.96327727
9.963277144
9.963277037
9.963275851
9.963274303
9.963273904
9.963273411
9.963272989
9.963273595
9.963278191
9.963278392
9.963279875
9.963279665
9.963280146
9.963281055
9.963280666
9.963280882
9.963280512
9.96328009
9.963281277
9.96328097
9.963281952
9.963280973
9.963318495
9.963318687
9.963318769
9.963319272
9.963319771
9.963319348
9.96332077
9.963320142
9.963320393
9.963320944
9.963320142
9.96331969
9.963320125
9.963320057
9.963308349
9.963309561
9.963309162
9.963309254
9.963308533
9.963308498
9.963308224
9.963308546
9.963307088
9.963308516
9.963308787
9.963309143
9.963308557
9.963308042
9.963279663
9.963279842
9.963280774
9.963281095
9.963279747
9.963279054
9.963279144
9.963279507
9.96328029
9.963279191
9.963279028
9.963278484
9.963277818
9.963277417
9.963260641
9.963260228
9.963259803
9.963259908
9.963259762
9.96325861
9.963258489
9.963259366
9.963259506
9.963259308
9.963260143
9.963260629
9.963260153
9.963260559
9.963306392
9.963305711
9.96330661
9.9633067
9.963306859
9.963307188
9.963307143
9.963307203
9.963307391
9.96330777
9.963306382
9.963306422
9.963306744
9.963307108
)
;

boundaryField
{
    top
    {
        type            calculated;
        value           nonuniform List<scalar> 
134
(
9.963271686
9.963263454
9.963293932
9.963301315
9.963294496
9.963268766
9.963289233
9.963312704
9.963306392
9.96327155
9.963263793
9.963294266
9.963302026
9.96329486
9.963267344
9.963288334
9.96331295
9.963305711
9.963272115
9.96326386
9.963293958
9.963302143
9.963293972
9.963266429
9.963287689
9.963312209
9.96330661
9.96327199
9.963264447
9.963294465
9.963302048
9.963294099
9.963266006
9.963286965
9.96331272
9.9633067
9.963272681
9.9632645
9.963294737
9.963301563
9.963294856
9.963267685
9.963287325
9.963313041
9.963306859
9.963273189
9.963266021
9.963296254
9.96330212
9.963294307
9.963266686
9.963287592
9.963313534
9.963307188
9.963273964
9.963266996
9.963295202
9.963303067
9.963294731
9.96326656
9.963287876
9.963313952
9.963307143
9.963273752
9.963267773
9.963294462
9.963303623
9.96329513
9.963267929
9.963288439
9.963313285
9.963307203
9.963274805
9.963266473
9.96329457
9.963303934
9.963295263
9.963265556
9.963287702
9.963313859
9.963307391
9.963275306
9.963266721
9.963294953
9.96330505
9.963296227
9.963265164
9.963288774
9.963314277
9.96330777
9.963276444
9.963267274
9.963294067
9.963305516
9.96329524
9.963265229
9.96328909
9.963314366
9.963306382
9.963277145
9.963267084
9.963293306
9.963306429
9.963295477
9.963265727
9.963288425
9.963313788
9.963306422
9.963277321
9.963267517
9.963292261
9.963305088
9.963297148
9.963265102
9.963289272
9.963314219
9.963306744
9.963277056
9.963266624
9.963291617
9.963303908
9.963297799
9.9632645
9.963288184
9.963313667
9.963307108
9.963277288
9.963267697
9.963290398
9.963304679
9.963297126
9.96326446
9.963287612
9.963313169
)
;
    }
    bottom
    {
        type            calculated;
        value           nonuniform List<scalar> 
127
(
9.96327267
9.963252324
9.963265904
9.963299919
9.963276096
9.963228497
9.96330014
9.963279459
9.963312754
9.963272981
9.963251872
9.96326652
9.963299575
9.963276249
9.963228144
9.963301325
9.963279768
9.963311851
9.963272386
9.963252287
9.963267348
9.963299528
9.963277287
9.963227591
9.963301645
9.963281496
9.963311635
9.963272115
9.963252239
9.963266597
9.963298606
9.963279354
9.963227119
9.963300608
9.963280904
9.963312327
9.96327212
9.963251997
9.963267249
9.963298711
9.96327888
9.963226761
9.963300166
9.963281788
9.963312285
9.963272508
9.963251491
9.963267081
9.963300327
9.963278933
9.963228181
9.963299744
9.963283475
9.963312006
9.963272133
9.963251652
9.963267603
9.963299126
9.963279161
9.963228017
9.963300033
9.963281815
9.963311915
9.963272966
9.963251214
9.96326692
9.963300098
9.963278688
9.963227299
9.96330125
9.963281706
9.96331251
9.963273499
9.96325117
9.963266845
9.963300947
9.963279226
9.963226569
9.963300101
9.963281481
9.963312754
9.963273914
9.963250759
9.96326711
9.963300672
9.963279586
9.963226395
9.963298887
9.963280462
9.963312912
9.963273622
9.963250985
9.963267148
9.963300405
9.963278736
9.963225527
9.963300051
9.963282297
9.963312551
9.963273569
9.96325141
9.963266738
9.963301103
9.963278961
9.96322479
9.963301011
9.963282306
9.963311613
9.963273946
9.963251122
9.96326684
9.963301972
9.963278527
9.963224891
9.963301942
9.963282204
9.963311774
9.963274122
9.963251437
9.963267381
9.963301049
9.963278328
9.963224072
9.963301924
9.963281549
9.963310602
9.963273507
)
;
    }
    side-walls
    {
        type            calculated;
        value           nonuniform List<scalar> 
261
(
9.96327267
9.963226304
9.963265786
9.963312085
9.963303592
9.963275802
9.963254202
9.963290942
9.963271686
9.963272981
9.963226074
9.963264755
9.963312752
9.963302802
9.963276042
9.963255421
9.963290454
9.96327155
9.963272386
9.963226163
9.963265607
9.963312067
9.96330265
9.963275093
9.963254681
9.963290647
9.963272115
9.963272115
9.963226371
9.963265487
9.963310658
9.963302897
9.963275885
9.96325447
9.96329245
9.96327199
9.96327212
9.963226516
9.963266829
9.963309903
9.963303176
9.963276417
9.963253785
9.96329107
9.963272681
9.963272508
9.963226533
9.963266343
9.963309747
9.963300727
9.963277712
9.963253149
9.963291867
9.963273189
9.963272133
9.963225736
9.963265162
9.963309695
9.963299236
9.96327727
9.963251974
9.963290835
9.963273964
9.963272966
9.963223668
9.96326695
9.963310463
9.963300007
9.963276247
9.963252082
9.963290637
9.963273752
9.963273499
9.963223896
9.963267618
9.963310704
9.963299014
9.963275839
9.963253408
9.963290054
9.963274805
9.963273914
9.963225029
9.963267003
9.963310532
9.963298837
9.963274656
9.963252995
9.963290251
9.963275306
9.963273622
9.963225673
9.963267364
9.963310465
9.963298451
9.963276149
9.963253776
9.963289956
9.963276444
9.963273569
9.963225547
9.963267376
9.963309935
9.963297799
9.963275824
9.963254293
9.963290186
9.963277145
9.963273946
9.96322549
9.963268451
9.963309546
9.963297682
9.963275067
9.963253163
9.963290013
9.963277321
9.963274122
9.963226309
9.963267543
9.963310456
9.963298094
9.963274864
9.963252396
9.963288954
9.963277056
9.963273507
9.963226113
9.963267155
9.963309515
9.963299161
9.963274951
9.96325203
9.963289583
9.963277288
9.963312754
9.963247573
9.96327813
9.963278191
9.963318495
9.963308349
9.963279663
9.963260641
9.963306392
9.963311851
9.963248645
9.963277607
9.963278392
9.963318687
9.963309561
9.963279842
9.963260228
9.963305711
9.963311635
9.963249275
9.963277789
9.963279875
9.963318769
9.963309162
9.963280774
9.963259803
9.96330661
9.963312327
9.963250035
9.963278514
9.963279665
9.963319272
9.963309254
9.963281095
9.963259908
9.9633067
9.963312285
9.963250216
9.963277464
9.963280146
9.963319771
9.963308533
9.963279747
9.963259762
9.963306859
9.963312006
9.963251296
9.96327727
9.963281055
9.963319348
9.963308498
9.963279054
9.96325861
9.963307188
9.963311915
9.963251101
9.963277144
9.963280666
9.96332077
9.963308224
9.963279144
9.963258489
9.963307143
9.96331251
9.963251449
9.963277037
9.963280882
9.963320142
9.963308546
9.963279507
9.963259366
9.963307203
9.963312754
9.963252432
9.963275851
9.963280512
9.963320393
9.963307088
9.96328029
9.963259506
9.963307391
9.963312912
9.963253085
9.963274303
9.96328009
9.963320944
9.963308516
9.963279191
9.963259308
9.96330777
9.963312551
9.963252729
9.963273904
9.963281277
9.963320142
9.963308787
9.963279028
9.963260143
9.963306382
9.963311613
9.963251648
9.963273411
9.96328097
9.96331969
9.963309143
9.963278484
9.963260629
9.963306422
9.963311774
9.963250553
9.963272989
9.963281952
9.963320125
9.963308557
9.963277818
9.963260153
9.963306744
9.963310602
9.963251273
9.963273595
9.963280973
9.963320057
9.963308042
9.963277417
9.963260559
9.963307108
)
;
    }
    inlet
    {
        type            calculated;
        value           nonuniform List<scalar> 
81
(
9.96327267
9.963226304
9.963265786
9.963312085
9.963303592
9.963275802
9.963254202
9.963290942
9.963271686
9.963252324
9.963329263
9.963346017
9.963245496
9.963213158
9.963264063
9.963303972
9.963252451
9.963263454
9.963265904
9.963215179
9.963238533
9.96325618
9.963265891
9.963297963
9.963306455
9.963324373
9.963293932
9.963299919
9.963307138
9.963290873
9.963228923
9.963351739
9.963293203
9.96329613
9.963235571
9.963301315
9.963276096
9.963253345
9.96324715
9.963320335
9.963237622
9.963285483
9.963246409
9.963243021
9.963294496
9.963228497
9.963280056
9.963263878
9.963282539
9.963246772
9.963311328
9.963285956
9.963225069
9.963268766
9.96330014
9.963329198
9.963261633
9.963245588
9.963257169
9.963287651
9.963295503
9.963275568
9.963289233
9.963279459
9.963281892
9.963304705
9.963267078
9.963263319
9.963245024
9.963343102
9.96334122
9.963312704
9.963312754
9.963247573
9.96327813
9.963278191
9.963318495
9.963308349
9.963279663
9.963260641
9.963306392
)
;
    }
    outlet
    {
        type            calculated;
        value           nonuniform 0();
    }
    procBoundary0to1
    {
        type            processor;
        value           nonuniform List<scalar> 
97
(
9.96327352
9.963251707
9.963225229
9.9632674
9.963309329
9.963298089
9.963275496
9.963253156
9.963289454
9.963276641
9.963251707
9.963251707
9.963329069
9.963216748
9.963350423
9.963241492
9.963211926
9.963263993
9.963302424
9.963248825
9.963268579
9.963267958
9.963216748
9.963216748
9.963242446
9.963288435
9.963256369
9.963265116
9.963299923
9.963304101
9.96332507
9.963289313
9.963300587
9.96330444
9.963288435
9.963288435
9.96322515
9.96332564
9.963362366
9.963295705
9.963295775
9.963237901
9.96330472
9.963277909
9.963261576
9.96324478
9.96332564
9.96332564
9.990447138
9.963255682
9.963291474
9.963313499
9.963245608
9.963242462
9.963296362
9.963224725
9.963280285
9.963264319
9.963280163
9.963255682
9.963313499
9.963313499
9.963287686
9.963293572
9.963222602
9.963264269
9.96330119
9.963329375
9.963257198
9.963242633
9.963256501
9.963280413
9.963293572
9.963293572
9.963275012
9.963339806
9.963286284
9.963281867
9.963280485
9.96330285
9.963269809
9.963263238
9.963243353
9.963338414
9.963339806
9.963339806
9.963313802
9.963306787
9.963312434
9.963250244
9.963273354
9.963282258
9.963319101
9.963309092
9.963277284
9.963261271
9.963306787
)
;
    }
}


// ************************************************************************* //
