/*--------------------------------*- C++ -*----------------------------------*\
| =========                 |                                                 |
| \\      /  F ield         | OpenFOAM: The Open Source CFD Toolbox           |
|  \\    /   O peration     | Version:  4.x                                   |
|   \\  /    A nd           | Web:      www.OpenFOAM.org                      |
|    \\/     M anipulation  |                                                 |
\*---------------------------------------------------------------------------*/
FoamFile
{
    version     2.0;
    format      ascii;
    class       volScalarField;
    location    "9000";
    object      rhoeps;
}
// * * * * * * * * * * * * * * * * * * * * * * * * * * * * * * * * * * * * * //

dimensions      [1 -3 0 0 0 0 0];

internalField   nonuniform List<scalar> 
1175
(
0.2790915973
0.2790916012
0.279091598
0.2790915864
0.2790915715
0.2790915918
0.2790915718
0.2790916021
0.2790916197
0.2790916
0.279091617
0.2790916242
0.2790916851
0.2790917092
0.2790917606
0.2790903045
0.279090259
0.2790902954
0.2790902759
0.2790902597
0.2790903041
0.2790902939
0.2790902314
0.2790902554
0.2790902821
0.2790902797
0.2790902826
0.2790903382
0.2790904
0.279090534
0.2790913903
0.2790913764
0.2790913838
0.2790913839
0.2790914046
0.2790914179
0.2790914101
0.2790914262
0.2790914304
0.2790914288
0.2790914525
0.2790914723
0.2790915454
0.2790916478
0.2790919
0.2790926909
0.2790927115
0.2790926916
0.2790926584
0.2790926315
0.2790926161
0.2790926355
0.2790926318
0.2790926611
0.2790926822
0.2790926828
0.2790926894
0.2790927624
0.2790930284
0.2790934315
0.2790924535
0.2790924513
0.2790924253
0.2790924366
0.2790924395
0.2790923854
0.2790923477
0.2790923582
0.2790923357
0.2790923378
0.2790922961
0.2790923671
0.2790924892
0.2790927942
0.2790934187
0.2790916633
0.2790916637
0.2790916505
0.2790916868
0.2790916688
0.2790917147
0.2790916994
0.2790917001
0.2790916768
0.2790916689
0.2790917071
0.2790917408
0.2790918184
0.2790920202
0.2790924744
0.2790910805
0.2790911021
0.2790911022
0.27909107
0.2790910455
0.2790910315
0.2790910021
0.2790910265
0.2790910641
0.2790910459
0.2790910903
0.2790911147
0.2790911294
0.2790912376
0.2790914962
0.2790920999
0.279092082
0.2790920946
0.2790921087
0.2790921257
0.2790921366
0.2790921035
0.279092073
0.2790920745
0.2790920842
0.279092072
0.2790921068
0.2790921215
0.2790921497
0.2790922958
0.2790915611
0.2790915624
0.2790915836
0.2790915675
0.2790915823
0.2790915989
0.2790916319
0.2790916201
0.2790916528
0.2790916641
0.2790917009
0.2790917291
0.2790917541
0.2790917881
0.2790918887
0.2790910299
0.2790909983
0.2790910087
0.2790910049
0.2790910009
0.2790910128
0.279091001
0.2790909962
0.2790909872
0.27909099
0.2790909939
0.2790910268
0.2790910178
0.2790910915
0.2790931914
0.2790932108
0.2790931983
0.2790932291
0.2790931995
0.2790932147
0.2790931553
0.2790931359
0.2790931983
0.2790931703
0.279093205
0.2790931811
0.2790932571
0.2790933703
0.2790936432
0.279093651
0.2790936543
0.2790936402
0.2790936159
0.2790936297
0.2790936556
0.2790936756
0.2790937062
0.2790936868
0.2790937061
0.279093728
0.2790938174
0.2790939594
0.2790942228
0.2790948255
0.2790908427
0.2790908284
0.279090822
0.2790908245
0.2790908078
0.279090794
0.2790907825
0.279090802
0.2790908422
0.2790908388
0.2790908521
0.279090898
0.2790911278
0.2790917243
0.279092951
0.2790899333
0.279089927
0.2790899254
0.2790898969
0.2790899166
0.2790899291
0.2790898939
0.279089858
0.2790898777
0.2790898935
0.2790899009
0.2790900191
0.2790903605
0.2790912454
0.2790932299
0.279091346
0.2790913588
0.2790913282
0.2790913078
0.2790913012
0.2790913267
0.2790912995
0.2790912907
0.2790912667
0.2790912824
0.2790913343
0.2790914068
0.2790916551
0.2790922443
0.279093541
0.2790924533
0.2790924596
0.2790924443
0.2790924246
0.2790924055
0.2790924039
0.2790924173
0.2790924252
0.2790924348
0.2790924674
0.2790924743
0.2790925331
0.2790926558
0.2790929256
0.2790935071
0.2790910231
0.2790910418
0.2790910439
0.2790910043
0.2790910052
0.279091009
0.2790909946
0.2790910569
0.2790910409
0.279091026
0.2790909801
0.2790909598
0.2790910209
0.2790911888
0.2790914072
0.2790913537
0.2790913651
0.2790913566
0.2790913528
0.2790913603
0.2790914096
0.2790914464
0.2790914529
0.2790914154
0.2790914188
0.2790914345
0.2790914754
0.2790914951
0.2790915445
0.2790917052
0.2790914157
0.279091435
0.2790914204
0.2790914526
0.2790914319
0.2790914441
0.2790914494
0.2790914428
0.279091429
0.2790914231
0.2790914231
0.2790914549
0.2790914911
0.2790916704
0.2790899881
0.2790900109
0.2790900091
0.2790899654
0.2790899583
0.2790899921
0.2790899839
0.2790899896
0.2790899978
0.279089996
0.279090027
0.2790900628
0.2790902257
0.2790905368
0.279090645
0.2790906285
0.2790906442
0.2790906432
0.2790906715
0.2790906871
0.2790907327
0.2790907659
0.2790908079
0.2790908179
0.2790908552
0.2790909516
0.2790912234
0.2790920287
0.2790936898
0.2790911353
0.2790911211
0.2790911289
0.2790911444
0.2790911633
0.2790911347
0.279091111
0.2790911539
0.2790911374
0.2790911577
0.2790912316
0.2790914397
0.2790921846
0.2790941989
0.2790986304
0.2790913789
0.2790913886
0.2790914157
0.279091417
0.279091418
0.2790914216
0.2790914516
0.2790914609
0.2790914496
0.2790914397
0.2790915204
0.2790917874
0.2790928941
0.2790966781
0.2791060643
0.2790923206
0.2790922983
0.279092314
0.2790923672
0.279092392
0.279092414
0.2790924208
0.2790923749
0.2790923543
0.2790923399
0.2790924241
0.2790926443
0.2790933463
0.2790953724
0.2790998554
0.2790925357
0.2790925384
0.2790925291
0.2790925016
0.2790925267
0.2790925339
0.2790925537
0.2790925541
0.2790925152
0.2790925181
0.2790925816
0.279092693
0.2790929787
0.2790937803
0.2790954028
0.2790930249
0.2790930259
0.2790930328
0.2790930264
0.2790930447
0.279093047
0.2790930604
0.2790930708
0.279093045
0.2790930737
0.2790930881
0.2790931638
0.2790932812
0.2790935977
0.2790941766
0.2790921678
0.2790921853
0.2790921953
0.2790922048
0.2790922184
0.2790922483
0.2790922168
0.2790922058
0.279092185
0.2790922092
0.2790922175
0.2790921917
0.2790922361
0.2790923458
0.2790925625
0.2790923646
0.2790923647
0.2790923564
0.2790923353
0.2790923168
0.2790923436
0.2790923448
0.2790923428
0.2790923753
0.2790923937
0.2790923892
0.2790924251
0.2790925056
0.2790927189
0.2790925569
0.2790925487
0.2790925317
0.279092513
0.279092511
0.2790925185
0.2790925164
0.2790925358
0.2790925317
0.279092525
0.2790925645
0.2790926245
0.2790928084
0.2790934192
0.2790920811
0.2790920987
0.2790920903
0.2790920984
0.2790920877
0.2790920602
0.2790920217
0.2790920018
0.2790920165
0.2790920275
0.2790920979
0.2790923036
0.2790929671
0.2790950216
0.2790903848
0.2790903531
0.2790903795
0.2790903216
0.2790903066
0.2790903086
0.2790903475
0.2790903301
0.2790903459
0.2790903445
0.2790905134
0.2790909864
0.2790928537
0.2790993198
0.2791158803
0.2790938017
0.279093805
0.2790938037
0.2790938055
0.2790938199
0.2790938403
0.2790938411
0.2790938721
0.2790938702
0.2790939156
0.2790940764
0.2790948693
0.2790985593
0.2791146126
0.2791705504
0.2790921566
0.2790921565
0.2790921425
0.2790922238
0.2790922458
0.2790922613
0.2790922669
0.2790922579
0.2790922585
0.279092295
0.2790924378
0.2790929403
0.2790948016
0.2791012762
0.2791178667
0.2790922415
0.2790922486
0.279092285
0.2790922884
0.279092256
0.2790922775
0.279092249
0.2790922542
0.2790922704
0.2790922504
0.2790923211
0.2790924893
0.2790932067
0.2790952951
0.2790997585
0.2790905471
0.2790905719
0.2790906036
0.2790906335
0.2790906427
0.2790906619
0.2790906475
0.2790906258
0.2790906372
0.2790906228
0.2790906339
0.2790906887
0.2790909588
0.2790915514
0.2790928205
0.2790923762
0.279092429
0.2790924191
0.2790924186
0.2790924066
0.2790924292
0.2790924619
0.2790924687
0.2790924689
0.2790924923
0.2790925042
0.2790925815
0.2790926428
0.2790928354
0.2790933104
0.2790916988
0.2790917031
0.2790917244
0.2790917673
0.2790917898
0.2790917846
0.2790917905
0.2790917683
0.2790917895
0.2790917872
0.2790917806
0.2790918165
0.2790919618
0.2790922224
0.2790910517
0.279091084
0.2790910845
0.279091097
0.2790911348
0.2790911101
0.2790911868
0.2790912099
0.2790912271
0.2790912636
0.2790912832
0.2790914012
0.2790917207
0.2790926435
0.2790908853
0.2790908847
0.2790908187
0.2790907926
0.2790907752
0.2790907304
0.2790907349
0.2790908003
0.2790908436
0.2790908905
0.2790909928
0.2790912497
0.2790923674
0.2790961318
0.2790929238
0.279092928
0.2790929584
0.2790929605
0.2790929704
0.2790929741
0.2790929502
0.2790929256
0.2790929279
0.2790929703
0.2790931101
0.2790939311
0.2790975742
0.2791135962
0.2790906233
0.2790906211
0.27909061
0.2790905971
0.2790906085
0.2790906078
0.2790906237
0.2790906265
0.2790906398
0.2790906723
0.2790909162
0.2790924754
0.2791017042
0.279161782
0.2789778505
0.2790919568
0.2790919406
0.2790919257
0.2790919232
0.2790919154
0.2790919356
0.2790919297
0.2790918924
0.2790918971
0.2790919288
0.2790920593
0.2790928165
0.2790965185
0.2791125792
0.2791685216
0.2790908602
0.2790908375
0.2790908575
0.2790908302
0.2790908074
0.2790908297
0.2790908091
0.2790907977
0.2790908203
0.2790908639
0.2790908968
0.2790912262
0.2790923818
0.2790961567
0.2791055225
0.2790907582
0.2790907485
0.279090734
0.2790907119
0.2790907217
0.2790907451
0.2790907184
0.2790907135
0.2790907326
0.2790907395
0.2790907916
0.2790909128
0.2790912604
0.2790921606
0.2790941189
0.2790922199
0.2790922192
0.2790922011
0.2790921928
0.2790922085
0.2790921834
0.2790922065
0.279092189
0.2790922141
0.2790922342
0.2790922587
0.2790922932
0.2790924351
0.2790927643
0.2790933501
0.2790903508
0.2790903538
0.2790903247
0.2790903204
0.2790903025
0.2790903427
0.2790903282
0.2790903056
0.2790902955
0.2790902754
0.2790902785
0.2790902882
0.2790904062
0.2790905927
0.2790917909
0.2790918376
0.2790918747
0.2790918806
0.2790918768
0.2790918819
0.2790918777
0.2790918915
0.2790918835
0.2790918609
0.279091903
0.27909197
0.2790921713
0.2790927808
0.2790913428
0.2790913265
0.2790913049
0.279091324
0.2790913683
0.2790913434
0.2790913461
0.2790913875
0.2790914124
0.2790914525
0.2790914943
0.2790916856
0.2790923594
0.2790943811
0.2790918315
0.2790918588
0.2790918936
0.279091882
0.2790918682
0.2790918901
0.2790918786
0.2790918546
0.279091812
0.2790918419
0.2790919453
0.2790924233
0.2790942874
0.2791008244
0.2790908876
0.2790908737
0.2790909052
0.2790909124
0.2790908983
0.2790908886
0.2790908651
0.2790908809
0.2790908909
0.2790908878
0.2790910181
0.2790918316
0.279095542
0.2791116183
0.2790926572
0.2790926306
0.2790926174
0.2790926261
0.2790926432
0.2790926401
0.2790926459
0.2790926708
0.2790926709
0.2790926905
0.2790928089
0.2790933111
0.2790951926
0.2791017441
0.2790919706
0.2790919447
0.2790919664
0.2790919893
0.2790919594
0.279091952
0.2790919897
0.2790920056
0.2790920065
0.2790920416
0.2790921073
0.2790923114
0.2790930252
0.2790950326
0.2790994935
0.2790902625
0.2790902875
0.2790902933
0.2790902841
0.2790902461
0.2790902144
0.279090204
0.2790902328
0.2790902233
0.2790902648
0.279090254
0.2790903092
0.2790905536
0.2790911473
0.2790923857
0.2790914848
0.2790914634
0.2790914199
0.2790914146
0.2790914341
0.2790914136
0.279091415
0.2790914668
0.2790914027
0.2790913923
0.2790914107
0.2790914432
0.2790915269
0.279091737
0.2790921705
0.2790923461
0.2790924053
0.2790924007
0.2790923761
0.2790923405
0.2790923404
0.2790923542
0.2790923813
0.2790923825
0.2790923549
0.2790923718
0.2790924066
0.2790924911
0.2790926258
0.2790931754
0.2790931283
0.2790931536
0.2790931569
0.2790931753
0.279093149
0.2790931996
0.2790931689
0.2790931443
0.2790932296
0.2790932676
0.2790932792
0.2790933724
0.2790936981
0.2790912973
0.2790913173
0.2790913017
0.2790912902
0.2790913063
0.2790912785
0.2790912576
0.2790912611
0.2790912569
0.2790912277
0.279091286
0.2790913571
0.2790916409
0.2790924153
0.2790908215
0.2790908444
0.2790908216
0.2790908355
0.2790907843
0.2790907587
0.2790907716
0.2790907505
0.2790907442
0.2790907894
0.2790908108
0.2790910591
0.2790917339
0.2790937525
0.2790911471
0.2790911929
0.2790911873
0.2790911574
0.279091127
0.2790911691
0.2790911395
0.2790911796
0.2790911854
0.2790912092
0.2790912947
0.2790915993
0.2790927046
0.2790964389
0.279091978
0.2790919888
0.2790919832
0.2790919566
0.2790919039
0.2790919284
0.2790919313
0.2790919329
0.2790919616
0.279091978
0.2790920476
0.2790922133
0.2790929003
0.2790948851
0.2790922394
0.2790922847
0.2790922942
0.2790922685
0.2790922572
0.2790922614
0.2790922589
0.2790922451
0.2790922567
0.279092222
0.279092221
0.2790923138
0.2790926676
0.279093469
0.2790916578
0.2790916587
0.2790916717
0.2790916764
0.2790916595
0.2790916923
0.2790917377
0.2790917444
0.2790917512
0.2790917173
0.2790917176
0.2790917737
0.2790918657
0.2790921419
0.2790927432
0.2790920427
0.2790920146
0.2790920089
0.2790919758
0.2790919822
0.2790920009
0.2790920137
0.27909204
0.2790920149
0.2790920299
0.2790920529
0.2790920736
0.2790921333
0.2790922344
0.2790925009
0.2790917885
0.2790917955
0.2790918255
0.2790918089
0.2790918349
0.2790918758
0.2790918487
0.2790918391
0.2790918346
0.2790918358
0.2790918651
0.2790918738
0.279091893
0.2790919723
0.2790918484
0.2790918076
0.2790918052
0.2790917572
0.2790917565
0.2790917737
0.2790917635
0.2790917908
0.2790917678
0.2790917834
0.279091773
0.2790918095
0.2790918692
0.2790920037
0.279092481
0.2790924965
0.2790924769
0.2790924951
0.2790924833
0.279092472
0.2790924471
0.27909242
0.2790924073
0.279092434
0.2790924515
0.2790924925
0.2790926168
0.2790928887
0.2790914033
0.2790914239
0.2790914372
0.2790914516
0.2790914159
0.2790914153
0.2790914274
0.2790914417
0.2790914631
0.279091462
0.2790915161
0.2790916156
0.2790918578
0.279092467
0.2790913398
0.2790913148
0.2790913373
0.279091357
0.2790913329
0.2790913314
0.2790913233
0.2790913222
0.2790913293
0.2790912982
0.2790913387
0.2790914519
0.2790917797
0.2790927369
0.2790907996
0.2790908013
0.2790907889
0.2790907961
0.2790907983
0.2790908101
0.279090782
0.2790907598
0.2790907495
0.2790907467
0.279090781
0.2790908752
0.2790910871
0.279091694
0.2790935901
0.279093562
0.2790935487
0.2790935261
0.2790934925
0.279093483
0.2790934473
0.2790935005
0.2790934767
0.2790934554
0.2790935139
0.2790935781
0.2790936566
0.2790939185
0.2790935026
0.2790934858
0.2790934784
0.2790934877
0.2790934704
0.2790934732
0.2790934773
0.2790934622
0.2790934868
0.2790935083
0.2790935051
0.2790934979
0.2790935732
0.2790936372
0.2790927066
0.2790927251
0.2790926916
0.2790927247
0.279092736
0.279092741
0.2790927519
0.2790927386
0.2790927379
0.2790927643
0.2790927602
0.2790927517
0.2790927855
0.2790928482
0.2790929899
0.2790927224
0.2790926745
0.2790926888
0.2790926973
0.2790926859
0.2790927021
0.2790927069
0.279092708
0.27909271
0.2790927393
0.2790927292
0.2790927001
0.2790927004
0.2790927396
0.2790909002
0.2790909176
0.2790909491
0.2790909644
0.2790909765
0.2790909928
0.2790909759
0.2790909777
0.2790910119
0.2790910257
0.279091029
0.2790910102
0.2790910495
0.279091105
0.2790917356
0.279091716
0.2790917343
0.2790917556
0.2790917306
0.2790917229
0.2790917081
0.2790917229
0.279091677
0.279091649
0.2790916521
0.2790916451
0.2790917053
0.2790918323
0.2790917462
0.2790917709
0.2790918057
0.2790917994
0.2790918106
0.2790918237
0.2790918117
0.2790918177
0.2790918057
0.2790918384
0.2790918557
0.2790918762
0.2790919905
0.2790922087
0.2790928833
0.2790928649
0.2790928922
0.2790929066
0.2790929038
0.2790929059
0.2790929144
0.2790929259
0.2790929405
0.2790929629
0.2790929486
0.2790930006
0.2790930997
0.2790933816
0.2790925854
0.2790926063
0.279092597
0.2790926112
0.2790926035
0.2790926011
0.2790925971
0.2790926032
0.2790925795
0.2790925832
0.279092601
0.2790926289
0.2790927416
0.2790929729
0.2790917974
0.279091824
0.2790918122
0.2790918061
0.2790918085
0.2790917764
0.2790917571
0.279091789
0.2790918154
0.2790917728
0.2790917635
0.2790918046
0.2790918358
0.2790919347
0.279091251
0.2790912433
0.2790912434
0.2790912164
0.2790912316
0.2790912026
0.2790912197
0.2790912126
0.2790912331
0.2790912441
0.2790912487
0.2790912554
0.2790912767
0.2790913749
0.2790925403
0.2790925286
0.2790925207
0.2790925467
0.2790925568
0.2790925734
0.2790925839
0.279092547
0.2790925808
0.2790925543
0.2790925456
0.2790925597
0.2790925837
0.2790926452
)
;

boundaryField
{
    top
    {
        type            calculated;
        value           nonuniform List<scalar> 
134
(
0.2790915611
0.2790913537
0.2790921678
0.2790923762
0.2790922199
0.2790914848
0.2790920427
0.2790927066
0.2790925403
0.2790915624
0.2790913651
0.2790921853
0.279092429
0.2790922192
0.2790914634
0.2790920146
0.2790927251
0.2790925286
0.2790915836
0.2790913566
0.2790921953
0.2790924191
0.2790922011
0.2790914199
0.2790920089
0.2790926916
0.2790925207
0.2790915675
0.2790913528
0.2790922048
0.2790924186
0.2790921928
0.2790914146
0.2790919758
0.2790927247
0.2790925467
0.2790915823
0.2790913603
0.2790922184
0.2790924066
0.2790922085
0.2790914341
0.2790919822
0.279092736
0.2790925568
0.2790915989
0.2790914096
0.2790922483
0.2790924292
0.2790921834
0.2790914136
0.2790920009
0.279092741
0.2790925734
0.2790916319
0.2790914464
0.2790922168
0.2790924619
0.2790922065
0.279091415
0.2790920137
0.2790927519
0.2790925839
0.2790916201
0.2790914529
0.2790922058
0.2790924687
0.279092189
0.2790914668
0.27909204
0.2790927386
0.279092547
0.2790916528
0.2790914154
0.279092185
0.2790924689
0.2790922141
0.2790914027
0.2790920149
0.2790927379
0.2790925808
0.2790916641
0.2790914188
0.2790922092
0.2790924923
0.2790922342
0.2790913923
0.2790920299
0.2790927643
0.2790925543
0.2790917009
0.2790914345
0.2790922175
0.2790925042
0.2790922587
0.2790914107
0.2790920529
0.2790927602
0.2790925456
0.2790917291
0.2790914754
0.2790921917
0.2790925815
0.2790922932
0.2790914432
0.2790920736
0.2790927517
0.2790925597
0.2790917541
0.2790914951
0.2790922361
0.2790926428
0.2790924351
0.2790915269
0.2790921333
0.2790927855
0.2790925837
0.2790917881
0.2790915445
0.2790923458
0.2790928354
0.2790927643
0.279091737
0.2790922344
0.2790928482
0.2790926452
0.2790918887
0.2790917052
0.2790925625
0.2790933104
0.2790933501
0.2790921705
0.2790925009
0.2790929899
)
;
    }
    bottom
    {
        type            calculated;
        value           nonuniform List<scalar> 
127
(
0.2790915973
0.2790910299
0.2790914157
0.2790923646
0.2790916988
0.2790903508
0.2790923461
0.2790917885
0.2790927224
0.2790916012
0.2790909983
0.279091435
0.2790923647
0.2790917031
0.2790903538
0.2790924053
0.2790917955
0.2790926745
0.279091598
0.2790910087
0.2790914204
0.2790923564
0.2790917244
0.2790903247
0.2790924007
0.2790918255
0.2790926888
0.2790915864
0.2790910049
0.2790914526
0.2790923353
0.2790917673
0.2790903204
0.2790923761
0.2790918089
0.2790926973
0.2790915715
0.2790910009
0.2790914319
0.2790923168
0.2790917898
0.2790903025
0.2790923405
0.2790918349
0.2790926859
0.2790915918
0.2790910128
0.2790914441
0.2790923436
0.2790917846
0.2790903427
0.2790923404
0.2790918758
0.2790927021
0.2790915718
0.279091001
0.2790914494
0.2790923448
0.2790917905
0.2790903282
0.2790923542
0.2790918487
0.2790927069
0.2790916021
0.2790909962
0.2790914428
0.2790923428
0.2790917683
0.2790903056
0.2790923813
0.2790918391
0.279092708
0.2790916197
0.2790909872
0.279091429
0.2790923753
0.2790917895
0.2790902955
0.2790923825
0.2790918346
0.27909271
0.2790916
0.27909099
0.2790914231
0.2790923937
0.2790917872
0.2790902754
0.2790923549
0.2790918358
0.2790927393
0.279091617
0.2790909939
0.2790914231
0.2790923892
0.2790917806
0.2790902785
0.2790923718
0.2790918651
0.2790927292
0.2790916242
0.2790910268
0.2790914549
0.2790924251
0.2790918165
0.2790902882
0.2790924066
0.2790918738
0.2790927001
0.2790916851
0.2790910178
0.2790914911
0.2790925056
0.2790919618
0.2790904062
0.2790924911
0.279091893
0.2790927004
0.2790917092
0.2790910915
0.2790916704
0.2790927189
0.2790922224
0.2790905927
0.2790926258
0.2790919723
0.2790927396
0.2790917606
)
;
    }
    side-walls
    {
        type            calculated;
        value           nonuniform List<scalar> 
261
(
0.2790915973
0.2790903045
0.2790913903
0.2790926909
0.2790924535
0.2790916633
0.2790910805
0.2790920999
0.2790915611
0.2790916012
0.279090259
0.2790913764
0.2790927115
0.2790924513
0.2790916637
0.2790911021
0.279092082
0.2790915624
0.279091598
0.2790902954
0.2790913838
0.2790926916
0.2790924253
0.2790916505
0.2790911022
0.2790920946
0.2790915836
0.2790915864
0.2790902759
0.2790913839
0.2790926584
0.2790924366
0.2790916868
0.27909107
0.2790921087
0.2790915675
0.2790915715
0.2790902597
0.2790914046
0.2790926315
0.2790924395
0.2790916688
0.2790910455
0.2790921257
0.2790915823
0.2790915918
0.2790903041
0.2790914179
0.2790926161
0.2790923854
0.2790917147
0.2790910315
0.2790921366
0.2790915989
0.2790915718
0.2790902939
0.2790914101
0.2790926355
0.2790923477
0.2790916994
0.2790910021
0.2790921035
0.2790916319
0.2790916021
0.2790902314
0.2790914262
0.2790926318
0.2790923582
0.2790917001
0.2790910265
0.279092073
0.2790916201
0.2790916197
0.2790902554
0.2790914304
0.2790926611
0.2790923357
0.2790916768
0.2790910641
0.2790920745
0.2790916528
0.2790916
0.2790902821
0.2790914288
0.2790926822
0.2790923378
0.2790916689
0.2790910459
0.2790920842
0.2790916641
0.279091617
0.2790902797
0.2790914525
0.2790926828
0.2790922961
0.2790917071
0.2790910903
0.279092072
0.2790917009
0.2790916242
0.2790902826
0.2790914723
0.2790926894
0.2790923671
0.2790917408
0.2790911147
0.2790921068
0.2790917291
0.2790916851
0.2790903382
0.2790915454
0.2790927624
0.2790924892
0.2790918184
0.2790911294
0.2790921215
0.2790917541
0.2790917092
0.2790904
0.2790916478
0.2790930284
0.2790927942
0.2790920202
0.2790912376
0.2790921497
0.2790917881
0.2790917606
0.279090534
0.2790919
0.2790934315
0.2790934187
0.2790924744
0.2790914962
0.2790922958
0.2790918887
0.2790927224
0.2790909002
0.2790917356
0.2790917462
0.2790928833
0.2790925854
0.2790917974
0.279091251
0.2790925403
0.2790926745
0.2790909176
0.279091716
0.2790917709
0.2790928649
0.2790926063
0.279091824
0.2790912433
0.2790925286
0.2790926888
0.2790909491
0.2790917343
0.2790918057
0.2790928922
0.279092597
0.2790918122
0.2790912434
0.2790925207
0.2790926973
0.2790909644
0.2790917556
0.2790917994
0.2790929066
0.2790926112
0.2790918061
0.2790912164
0.2790925467
0.2790926859
0.2790909765
0.2790917306
0.2790918106
0.2790929038
0.2790926035
0.2790918085
0.2790912316
0.2790925568
0.2790927021
0.2790909928
0.2790917229
0.2790918237
0.2790929059
0.2790926011
0.2790917764
0.2790912026
0.2790925734
0.2790927069
0.2790909759
0.2790917081
0.2790918117
0.2790929144
0.2790925971
0.2790917571
0.2790912197
0.2790925839
0.279092708
0.2790909777
0.2790917229
0.2790918177
0.2790929259
0.2790926032
0.279091789
0.2790912126
0.279092547
0.27909271
0.2790910119
0.279091677
0.2790918057
0.2790929405
0.2790925795
0.2790918154
0.2790912331
0.2790925808
0.2790927393
0.2790910257
0.279091649
0.2790918384
0.2790929629
0.2790925832
0.2790917728
0.2790912441
0.2790925543
0.2790927292
0.279091029
0.2790916521
0.2790918557
0.2790929486
0.279092601
0.2790917635
0.2790912487
0.2790925456
0.2790927001
0.2790910102
0.2790916451
0.2790918762
0.2790930006
0.2790926289
0.2790918046
0.2790912554
0.2790925597
0.2790927004
0.2790910495
0.2790917053
0.2790919905
0.2790930997
0.2790927416
0.2790918358
0.2790912767
0.2790925837
0.2790927396
0.279091105
0.2790918323
0.2790922087
0.2790933816
0.2790929729
0.2790919347
0.2790913749
0.2790926452
)
;
    }
    inlet
    {
        type            calculated;
        value           nonuniform List<scalar> 
81
(
0.2790915973
0.2790903045
0.2790913903
0.2790926909
0.2790924535
0.2790916633
0.2790910805
0.2790920999
0.2790915611
0.2790910299
0.2790931914
0.279093651
0.2790908427
0.2790899333
0.279091346
0.2790924533
0.2790910231
0.2790913537
0.2790914157
0.2790899881
0.279090645
0.2790911353
0.2790913789
0.2790923206
0.2790925357
0.2790930249
0.2790921678
0.2790923646
0.2790925569
0.2790920811
0.2790903848
0.2790938017
0.2790921566
0.2790922415
0.2790905471
0.2790923762
0.2790916988
0.2790910517
0.2790908853
0.2790929238
0.2790906233
0.2790919568
0.2790908602
0.2790907582
0.2790922199
0.2790903508
0.2790917909
0.2790913428
0.2790918315
0.2790908876
0.2790926572
0.2790919706
0.2790902625
0.2790914848
0.2790923461
0.2790931754
0.2790912973
0.2790908215
0.2790911471
0.279091978
0.2790922394
0.2790916578
0.2790920427
0.2790917885
0.2790918484
0.279092481
0.2790914033
0.2790913398
0.2790907996
0.2790935901
0.2790935026
0.2790927066
0.2790927224
0.2790909002
0.2790917356
0.2790917462
0.2790928833
0.2790925854
0.2790917974
0.279091251
0.2790925403
)
;
    }
    outlet
    {
        type            calculated;
        value           nonuniform 0();
    }
    procBoundary0to1
    {
        type            processor;
        value           nonuniform List<scalar> 
97
(
0.2790918916
0.2790912469
0.2790907296
0.2790923446
0.2790941293
0.2790942424
0.2790931754
0.2790919347
0.2790925265
0.2790919822
0.2790912469
0.2790912469
0.2790940672
0.2790911076
0.2790957626
0.2790946351
0.2790956236
0.2790952665
0.2790944047
0.2790918093
0.2790919123
0.2790919208
0.2790911076
0.2790911076
0.2790959266
0.2790994861
0.2791034828
0.2791130782
0.2791046936
0.2790976724
0.2790950384
0.2790929319
0.2790931877
0.2790947005
0.2790994861
0.2790994861
0.2791271121
0.2791695404
0.2791791296
0.2791290683
0.2791046167
0.2790945338
0.2790940141
0.2790928147
0.2790946516
0.2791055018
0.2791695404
0.2791695404
0.2801461355
0.2791675855
0.279177146
0.2791183374
0.2791125478
0.2790964586
0.2790941726
0.2790910525
0.2790939819
0.2790988185
0.2791173753
0.2791675855
0.2791183374
0.2791183374
0.2791043361
0.2790951389
0.2790941112
0.2790928502
0.2790928594
0.2790942824
0.2790941351
0.2790982572
0.2791057998
0.2790992992
0.2790951389
0.2790951389
0.2790936054
0.2790939407
0.2790928635
0.2790920878
0.2790923002
0.2790935342
0.2790937518
0.2790947201
0.2790929839
0.279094546
0.2790939407
0.2790939407
0.2790931859
0.2790926787
0.279092826
0.2790911896
0.2790920782
0.2790926589
0.2790939808
0.2790934167
0.2790921814
0.2790915152
0.2790926787
)
;
    }
}


// ************************************************************************* //
