/*--------------------------------*- C++ -*----------------------------------*\
| =========                 |                                                 |
| \\      /  F ield         | OpenFOAM: The Open Source CFD Toolbox           |
|  \\    /   O peration     | Version:  4.x                                   |
|   \\  /    A nd           | Web:      www.OpenFOAM.org                      |
|    \\/     M anipulation  |                                                 |
\*---------------------------------------------------------------------------*/
FoamFile
{
    version     2.0;
    format      ascii;
    class       volScalarField;
    location    "9000";
    object      X_CO2;
}
// * * * * * * * * * * * * * * * * * * * * * * * * * * * * * * * * * * * * * //

dimensions      [0 0 0 0 0 0 0];

internalField   nonuniform List<scalar> 
1175
(
8.348470401e-10
8.35080607e-10
8.36211408e-10
8.405907172e-10
8.564594961e-10
9.119518651e-10
1.100161407e-09
1.71766015e-09
3.666303277e-09
9.534903265e-09
2.623564144e-08
7.059684366e-08
1.789718883e-07
4.184871293e-07
8.900530814e-07
8.350150492e-10
8.35295723e-10
8.366679086e-10
8.420862463e-10
8.622138231e-10
9.346605127e-10
1.18844572e-09
2.051176234e-09
4.879975243e-09
1.375059819e-08
4.005689329e-08
1.127615084e-07
2.965302379e-07
7.115797718e-07
1.528771893e-06
8.352799827e-10
8.356370258e-10
8.374047789e-10
8.445500336e-10
8.718763232e-10
9.735623479e-10
1.343154424e-09
2.651074538e-09
7.129036194e-09
2.182867339e-08
6.752969102e-08
1.998576199e-07
5.485774056e-07
1.359287148e-06
2.959448289e-06
8.355180556e-10
8.359472733e-10
8.380931382e-10
8.469173187e-10
8.813955118e-10
1.012911471e-09
1.504452978e-09
3.299056522e-09
9.660412334e-09
3.135974974e-08
1.017024328e-07
3.145550388e-07
9.001671565e-07
2.308852704e-06
5.109406292e-06
8.356131131e-10
8.360723333e-10
8.383771034e-10
8.479173656e-10
8.855051095e-10
1.03031658e-09
1.577943812e-09
3.605356785e-09
1.091277172e-08
3.634547063e-08
1.208146992e-07
3.838862125e-07
1.131587307e-06
2.987271033e-06
6.723289553e-06
8.355165934e-10
8.359457523e-10
8.38091695e-10
8.469161377e-10
8.813945654e-10
1.012911661e-09
1.504455568e-09
3.299065802e-09
9.660431166e-09
3.135974739e-08
1.017021739e-07
3.145533213e-07
9.001591802e-07
2.308824341e-06
5.109333252e-06
8.352769164e-10
8.356340881e-10
8.374019583e-10
8.445474608e-10
8.718741838e-10
9.735612768e-10
1.343155915e-09
2.65107992e-09
7.129036303e-09
2.182858112e-08
6.752903479e-08
1.998543262e-07
5.48564258e-07
1.359245106e-06
2.9593467e-06
8.350101848e-10
8.352911932e-10
8.366636534e-10
8.420824251e-10
8.622107424e-10
9.34657821e-10
1.188442727e-09
2.051166768e-09
4.879923741e-09
1.37503425e-08
4.005576649e-08
1.127570788e-07
2.965147849e-07
7.115338701e-07
1.528666686e-06
8.34839423e-10
8.350745558e-10
8.362065542e-10
8.405867749e-10
8.564566261e-10
9.119502538e-10
1.100160766e-09
1.717655358e-09
3.66626426e-09
9.534685496e-09
2.623465047e-08
7.059291405e-08
1.789581179e-07
4.184451033e-07
8.899503192e-07
8.350150225e-10
8.352957665e-10
8.366679117e-10
8.420862667e-10
8.622142082e-10
9.346619313e-10
1.188451652e-09
2.051200053e-09
4.880067337e-09
1.375095015e-08
4.005821444e-08
1.127663847e-07
2.965482284e-07
7.116500338e-07
8.352048525e-10
8.355476516e-10
8.372440117e-10
8.441030382e-10
8.703602356e-10
9.682583094e-10
1.325190825e-09
2.593903775e-09
6.962860685e-09
2.14071552e-08
6.668545427e-08
1.989533775e-07
5.504784742e-07
1.37284482e-06
2.997414776e-06
8.355047453e-10
8.359489735e-10
8.381841986e-10
8.474782582e-10
8.843194123e-10
1.027318882e-09
1.572760902e-09
3.610860385e-09
1.102441037e-08
3.703251413e-08
1.238657358e-07
3.944897629e-07
1.159513346e-06
3.037261571e-06
6.785407401e-06
8.357754558e-10
8.363168532e-10
8.390760729e-10
8.507902412e-10
8.984501283e-10
1.089175487e-09
1.842610974e-09
4.77303116e-09
1.593166304e-08
5.717274174e-08
2.032088224e-07
6.889267449e-07
2.159017945e-06
5.997085668e-06
1.38486082e-05
8.358837629e-10
8.364660847e-10
8.394488433e-10
8.522156948e-10
9.047083564e-10
1.117498269e-09
1.971419223e-09
5.357672925e-09
1.856807636e-08
6.890864129e-08
2.542260848e-07
9.015818557e-07
2.98243031e-06
8.791439559e-06
2.122404485e-05
8.357740336e-10
8.363155076e-10
8.390746428e-10
8.507887754e-10
8.984487358e-10
1.089173998e-09
1.842607064e-09
4.773012617e-09
1.593156383e-08
5.717224606e-08
2.032064616e-07
6.88916191e-07
2.158975048e-06
5.996938489e-06
1.38482253e-05
8.355019005e-10
8.359461752e-10
8.381815332e-10
8.474758231e-10
8.843173245e-10
1.027317589e-09
1.572760393e-09
3.610853844e-09
1.102434643e-08
3.703207656e-08
1.238633174e-07
3.944782875e-07
1.159466054e-06
3.03709827e-06
6.784985842e-06
8.352003664e-10
8.355434007e-10
8.372402394e-10
8.440996176e-10
8.703575705e-10
9.682566765e-10
1.32519022e-09
2.593897287e-09
6.962795116e-09
2.140674303e-08
6.668331668e-08
1.989437767e-07
5.50440109e-07
1.372712024e-06
2.997048898e-06
8.350083605e-10
8.352907149e-10
8.366638445e-10
8.420832044e-10
8.622121413e-10
9.346609805e-10
1.188450714e-09
2.051189206e-09
4.879989125e-09
1.375053014e-08
4.005626781e-08
1.127582922e-07
2.965172971e-07
7.115381301e-07
1.528671399e-06
8.352800111e-10
8.356371627e-10
8.374049623e-10
8.445506104e-10
8.718778346e-10
9.735680835e-10
1.343177139e-09
2.651163118e-09
7.129379579e-09
2.182997452e-08
6.753448159e-08
1.998747278e-07
5.486360998e-07
1.359477833e-06
8.355048268e-10
8.359490815e-10
8.381844472e-10
8.474786899e-10
8.843209955e-10
1.027324908e-09
1.572785181e-09
3.61095674e-09
1.102479082e-08
3.703399183e-08
1.238714068e-07
3.945112721e-07
1.159595339e-06
3.037586795e-06
8.358609584e-10
8.364497666e-10
8.394740188e-10
8.524705989e-10
9.061451561e-10
1.1246228e-09
2.003950089e-09
5.493187138e-09
1.906196409e-08
7.030235928e-08
2.556717089e-07
8.84919222e-07
2.8242817e-06
7.95736892e-06
1.850232738e-05
8.361841243e-10
8.369136449e-10
8.407203717e-10
8.574902223e-10
9.289348819e-10
1.230627028e-09
2.497961046e-09
7.783471705e-09
2.956461499e-08
1.175698298e-07
4.61961311e-07
1.741577326e-06
6.104468395e-06
1.890608666e-05
4.696639373e-05
8.363143002e-10
8.371039475e-10
8.412503824e-10
8.597010883e-10
9.393417703e-10
1.281198075e-09
2.747078827e-09
9.022719028e-09
3.577385976e-08
1.487560089e-07
6.175266618e-07
2.499385613e-06
9.59943421e-06
3.325469856e-05
9.207601457e-05
8.361827753e-10
8.36912301e-10
8.407189386e-10
8.574889504e-10
9.289331913e-10
1.230623297e-09
2.497947058e-09
7.783406243e-09
2.956429762e-08
1.175682379e-07
4.619534139e-07
1.741538758e-06
6.104290133e-06
1.890536556e-05
4.696420857e-05
8.358582862e-10
8.364471055e-10
8.394713909e-10
8.524681202e-10
9.06142512e-10
1.124618564e-09
2.003936741e-09
5.493123244e-09
1.906162904e-08
7.030064062e-08
2.556631682e-07
8.848784096e-07
2.824100327e-06
7.956654373e-06
1.85001169e-05
8.355006033e-10
8.359450022e-10
8.381808004e-10
8.474754704e-10
8.843179723e-10
1.027320905e-09
1.572773478e-09
3.61090173e-09
1.102451346e-08
3.703263915e-08
1.238650888e-07
3.944832147e-07
1.159477442e-06
3.037117936e-06
6.785001851e-06
8.35273839e-10
8.356324593e-10
8.374013131e-10
8.445478743e-10
8.718760762e-10
9.735669446e-10
1.343173036e-09
2.651134787e-09
7.129211084e-09
2.182911676e-08
6.753054125e-08
1.998581381e-07
5.485723325e-07
1.359257891e-06
2.95935604e-06
8.355181478e-10
8.35947343e-10
8.380933207e-10
8.469180301e-10
8.813979635e-10
1.01292138e-09
1.504492426e-09
3.299216215e-09
9.661049034e-09
3.136223583e-08
1.017118544e-07
3.145892623e-07
9.00284016e-07
2.309216201e-06
8.357755373e-10
8.363168763e-10
8.390761882e-10
8.507906496e-10
8.984520543e-10
1.089183813e-09
1.842647696e-09
4.77319322e-09
1.593237189e-08
5.717583509e-08
2.032221163e-07
6.88982364e-07
2.159241485e-06
5.997924691e-06
8.36184229e-10
8.369138318e-10
8.407205246e-10
8.574907124e-10
9.289364792e-10
1.230634294e-09
2.497994641e-09
7.783631636e-09
2.956538955e-08
1.175735645e-07
4.619793737e-07
1.741664378e-06
6.104887657e-06
1.890813981e-05
8.365570916e-10
8.374721361e-10
8.423342194e-10
8.643646216e-10
9.616112958e-10
1.390089975e-09
3.283096175e-09
1.166564501e-08
4.877229425e-08
2.121279623e-07
9.207349948e-07
3.899509178e-06
1.56588397e-05
5.646136376e-05
0.0001606919854
8.3670783e-10
8.377030509e-10
8.43030141e-10
8.674529986e-10
9.769500442e-10
1.46915085e-09
3.700801559e-09
1.39270135e-08
6.132464692e-08
2.834636098e-07
1.333580092e-06
6.304137566e-06
2.942854933e-05
0.0001301791533
0.0004796054537
8.3655566e-10
8.374707355e-10
8.423327949e-10
8.643634508e-10
9.616096189e-10
1.390085598e-09
3.283077338e-09
1.1665548e-08
4.877174364e-08
2.121248153e-07
9.207165187e-07
3.899400129e-06
1.565820608e-05
5.645797141e-05
0.0001606774108
8.361816101e-10
8.369111906e-10
8.407181136e-10
8.57488483e-10
9.289346251e-10
1.230632446e-09
2.497987683e-09
7.783579081e-09
2.956500044e-08
1.175710228e-07
4.619639183e-07
1.741574601e-06
6.104397038e-06
1.89056052e-05
4.696443089e-05
8.357714859e-10
8.36313135e-10
8.390728954e-10
8.507879949e-10
8.984504578e-10
1.089184294e-09
1.842650418e-09
4.773181455e-09
1.593219611e-08
5.717449798e-08
2.032139981e-07
6.889390968e-07
2.159034829e-06
5.997054782e-06
1.384833891e-05
8.355123347e-10
8.359431672e-10
8.380901861e-10
8.46915872e-10
8.813970333e-10
1.012921972e-09
1.504493244e-09
3.299197214e-09
9.660878302e-09
3.13611984e-08
1.017065364e-07
3.145651605e-07
9.001864177e-07
2.308871979e-06
5.10937912e-06
8.356131613e-10
8.360724248e-10
8.383774351e-10
8.479183615e-10
8.85508696e-10
1.030331302e-09
1.578003167e-09
3.605595998e-09
1.091372639e-08
3.634920745e-08
1.208288616e-07
3.839374654e-07
1.131760803e-06
2.987797833e-06
8.358838742e-10
8.364662977e-10
8.394491509e-10
8.522165826e-10
9.047119248e-10
1.117513778e-09
1.971487896e-09
5.357974741e-09
1.856940224e-08
6.891443383e-08
2.542510608e-07
9.016868108e-07
2.982847934e-06
8.792945666e-06
8.363145499e-10
8.371042659e-10
8.412506429e-10
8.597021824e-10
9.393463451e-10
1.281218973e-09
2.747176098e-09
9.023177592e-09
3.577605284e-08
1.487666197e-07
6.175782408e-07
2.499636904e-06
9.600641957e-06
3.326018517e-05
8.367079144e-10
8.377031877e-10
8.430304435e-10
8.67453907e-10
9.76953894e-10
1.469168965e-09
3.700889666e-09
1.392745164e-08
6.132691141e-08
2.834757728e-07
1.333648564e-06
6.304544231e-06
2.94311062e-05
0.0001301962216
8.368673333e-10
8.379518633e-10
8.438033219e-10
8.709728439e-10
9.948857224e-10
1.56459155e-09
4.226922306e-09
1.694421822e-08
7.943743462e-08
3.979242728e-07
2.097855057e-06
1.170300837e-05
6.972338513e-05
0.0004469046795
0.003101369649
8.367067787e-10
8.377020124e-10
8.430292003e-10
8.674529544e-10
9.769536453e-10
1.469171307e-09
3.700899659e-09
1.392747371e-08
6.132682873e-08
2.834739954e-07
1.333629279e-06
6.304366257e-06
2.942955252e-05
0.0001301828184
0.0004796100048
8.363120605e-10
8.371017684e-10
8.412485166e-10
8.5970029e-10
9.393450158e-10
1.281219295e-09
2.747176862e-09
9.023149896e-09
3.577572544e-08
1.487639321e-07
6.175590526e-07
2.499511081e-06
9.599866935e-06
3.325584579e-05
9.207724543e-05
8.358802773e-10
8.364628297e-10
8.394461606e-10
8.522141999e-10
9.047105057e-10
1.117514301e-09
1.971489485e-09
5.357954973e-09
1.856916903e-08
6.891273231e-08
2.542406419e-07
9.016296399e-07
2.982565908e-06
8.791730848e-06
2.122432696e-05
8.356078563e-10
8.36068541e-10
8.383744105e-10
8.479163644e-10
8.855079209e-10
1.030331674e-09
1.578002321e-09
3.605568201e-09
1.091351038e-08
3.634793505e-08
1.20822414e-07
3.839080668e-07
1.131640618e-06
2.987371058e-06
6.723390954e-06
8.355168325e-10
8.359460458e-10
8.380921173e-10
8.469172823e-10
8.813989002e-10
1.012928315e-09
1.504521944e-09
3.299326662e-09
9.661440619e-09
3.136354793e-08
1.017159205e-07
3.146003876e-07
9.003085233e-07
2.309248117e-06
8.357740739e-10
8.363156374e-10
8.390750855e-10
8.507900112e-10
8.984534725e-10
1.089193416e-09
1.842689781e-09
4.773363809e-09
1.593303925e-08
5.717833019e-08
2.032308787e-07
6.890099795e-07
2.159310578e-06
5.99800509e-06
8.361829905e-10
8.369125879e-10
8.407194523e-10
8.574904587e-10
9.289394775e-10
1.230650671e-09
2.498070165e-09
7.783964373e-09
2.956681476e-08
1.175795841e-07
4.620038428e-07
1.741756878e-06
6.105184225e-06
1.890865538e-05
8.365559135e-10
8.374711455e-10
8.423334487e-10
8.643648759e-10
9.616156099e-10
1.390113439e-09
3.283208348e-09
1.166617993e-08
4.877483752e-08
2.121402054e-07
9.207937881e-07
3.899788464e-06
1.566012327e-05
5.646682347e-05
8.367068621e-10
8.377021517e-10
8.430296061e-10
8.67453944e-10
9.769574088e-10
1.469188806e-09
3.700984797e-09
1.392790116e-08
6.1329035e-08
2.834857889e-07
1.333695406e-06
6.304757525e-06
2.943200537e-05
0.0001301992083
8.365548717e-10
8.374699567e-10
8.423322558e-10
8.643637535e-10
9.616144535e-10
1.390111088e-09
3.283198574e-09
1.166612087e-08
4.877446741e-08
2.121378533e-07
9.207794675e-07
3.899706852e-06
1.565970173e-05
5.646522899e-05
8.361807591e-10
8.369104005e-10
8.407174333e-10
8.574885669e-10
9.289376403e-10
1.23064846e-09
2.498061044e-09
7.783901604e-09
2.956640808e-08
1.175771222e-07
4.61989962e-07
1.741683736e-06
6.104830894e-06
1.890715026e-05
4.696935665e-05
8.35770825e-10
8.363124914e-10
8.390723089e-10
8.507878797e-10
8.984521555e-10
1.089193664e-09
1.84269077e-09
4.773345828e-09
1.593284591e-08
5.71770272e-08
2.03223538e-07
6.889735324e-07
2.159150135e-06
5.997394406e-06
1.384911334e-05
8.355118705e-10
8.359424926e-10
8.380894652e-10
8.469155418e-10
8.813981142e-10
1.012928149e-09
1.504518798e-09
3.299295339e-09
9.661233518e-09
3.136244636e-08
1.017107421e-07
3.145784219e-07
9.002245904e-07
2.308967275e-06
5.109559668e-06
8.352771438e-10
8.356344011e-10
8.374024096e-10
8.445485179e-10
8.718776663e-10
9.735746219e-10
1.343207497e-09
2.651277413e-09
7.12977437e-09
2.183124943e-08
6.753825421e-08
1.998843592e-07
5.486545341e-07
1.359488775e-06
8.355021573e-10
8.359464138e-10
8.381820084e-10
8.47477087e-10
8.843218582e-10
1.027334986e-09
1.572831337e-09
3.611139667e-09
1.102547946e-08
3.703647358e-08
1.238797049e-07
3.945360556e-07
1.159654003e-06
3.037642856e-06
8.358585287e-10
8.364474126e-10
8.394719608e-10
8.524696773e-10
9.061485613e-10
1.124643667e-09
2.004043855e-09
5.493580274e-09
1.906356337e-08
7.030866269e-08
2.55695527e-07
8.850031372e-07
2.824547393e-06
7.958075079e-06
8.361819745e-10
8.369116986e-10
8.407187228e-10
8.574901686e-10
9.28940886e-10
1.230659656e-09
2.498110064e-09
7.784128198e-09
2.956748228e-08
1.175821533e-07
4.620130298e-07
1.741786542e-06
6.105259035e-06
1.890875302e-05
8.363122514e-10
8.371021332e-10
8.412489024e-10
8.597012452e-10
9.393491714e-10
1.281238041e-09
2.747263735e-09
9.023559131e-09
3.577767783e-08
1.487733361e-07
6.176049976e-07
2.499734257e-06
9.600933715e-06
3.3260633e-05
8.361809285e-10
8.36910604e-10
8.407176408e-10
8.57489004e-10
9.289393606e-10
1.230656127e-09
2.498095707e-09
7.78406021e-09
2.956714887e-08
1.175805413e-07
4.620056028e-07
1.741753388e-06
6.10513078e-06
1.890836065e-05
8.35856445e-10
8.364453961e-10
8.394700614e-10
8.524677054e-10
9.061463818e-10
1.124640027e-09
2.004030241e-09
5.493513839e-09
1.906323477e-08
7.030708507e-08
2.556883689e-07
8.849740022e-07
2.824449073e-06
7.957883256e-06
8.354990209e-10
8.359435148e-10
8.38179457e-10
8.474749718e-10
8.84320232e-10
1.027334172e-09
1.572828718e-09
3.611117445e-09
1.102533343e-08
3.703566423e-08
1.238758646e-07
3.945198801e-07
1.159594365e-06
3.037453754e-06
6.785847618e-06
8.352724096e-10
8.35631044e-10
8.374000134e-10
8.445470863e-10
8.718772101e-10
9.735749903e-10
1.343206391e-09
2.651258316e-09
7.129649644e-09
2.183061497e-08
6.753543483e-08
1.998731986e-07
5.486150857e-07
1.359364023e-06
2.959564061e-06
8.350104189e-10
8.352915216e-10
8.366641342e-10
8.420833854e-10
8.622136938e-10
9.346686368e-10
1.188482456e-09
2.051311442e-09
4.880436286e-09
1.375209256e-08
4.006146632e-08
1.127745535e-07
2.96564328e-07
7.116614141e-07
8.352007426e-10
8.355437117e-10
8.372406668e-10
8.441007726e-10
8.703611531e-10
9.682700799e-10
1.325241831e-09
2.594093651e-09
6.96352794e-09
2.140939127e-08
6.66924835e-08
1.98973684e-07
5.505300855e-07
1.372955244e-06
8.355009644e-10
8.359454195e-10
8.381812568e-10
8.474768382e-10
8.843226613e-10
1.027339082e-09
1.572846649e-09
3.611194832e-09
1.102566972e-08
3.703708135e-08
1.238815143e-07
3.945407141e-07
1.159663589e-06
3.037653975e-06
8.357717771e-10
8.36313527e-10
8.390734948e-10
8.507892346e-10
8.984549133e-10
1.089202839e-09
1.842729314e-09
4.7735146e-09
1.593358854e-08
5.718022959e-08
2.032369038e-07
6.890266669e-07
2.159346251e-06
5.998040833e-06
8.358804931e-10
8.364630895e-10
8.394465693e-10
8.522151565e-10
9.04713953e-10
1.1175289e-09
1.971553034e-09
5.358233899e-09
1.85703866e-08
6.891799242e-08
2.542630585e-07
9.017223255e-07
2.98292886e-06
8.793018282e-06
8.357709656e-10
8.363126621e-10
8.390725246e-10
8.507883264e-10
8.984540257e-10
1.089201435e-09
1.842724521e-09
4.773492766e-09
1.593348159e-08
5.717972752e-08
2.032346924e-07
6.890177885e-07
2.159314465e-06
5.997948661e-06
8.354991858e-10
8.359436664e-10
8.381795861e-10
8.474751235e-10
8.843207573e-10
1.027335793e-09
1.572836023e-09
3.611151684e-09
1.102548291e-08
3.703629367e-08
1.23878469e-07
3.945301367e-07
1.159633008e-06
3.037594325e-06
8.351979072e-10
8.355411216e-10
8.372383397e-10
8.440988183e-10
8.703592826e-10
9.682673152e-10
1.325233317e-09
2.594058124e-09
6.96337937e-09
2.140879505e-08
6.669027526e-08
1.989664508e-07
5.505111262e-07
1.372931696e-06
8.350062125e-10
8.352887603e-10
8.366622383e-10
8.420824893e-10
8.622133629e-10
9.346682961e-10
1.188478923e-09
2.051289667e-09
4.880334409e-09
1.375167275e-08
4.005989555e-08
1.127692443e-07
2.965484656e-07
7.11618818e-07
1.52885382e-06
8.348398062e-10
8.35074888e-10
8.36206987e-10
8.405877586e-10
8.564592531e-10
9.119589023e-10
1.100191435e-09
1.717763196e-09
3.666631102e-09
9.53588805e-09
2.62383902e-08
7.060386932e-08
1.789879246e-07
4.185194358e-07
8.350087524e-10
8.352910759e-10
8.366644021e-10
8.42084329e-10
8.622153132e-10
9.34672057e-10
1.188491223e-09
2.051336774e-09
4.880511044e-09
1.375230443e-08
4.006202265e-08
1.127758366e-07
2.965668941e-07
7.116652907e-07
8.352743283e-10
8.356329367e-10
8.374018475e-10
8.445490989e-10
8.718798768e-10
9.735810483e-10
1.34322722e-09
2.65134007e-09
7.129970255e-09
2.183182859e-08
6.753981635e-08
1.998880091e-07
5.486613217e-07
1.359496428e-06
8.355126944e-10
8.359434382e-10
8.380907023e-10
8.469170823e-10
8.814009519e-10
1.012936995e-09
1.504552707e-09
3.299432614e-09
9.661788077e-09
3.136461629e-08
1.017188831e-07
3.14607367e-07
9.003203263e-07
2.309252357e-06
8.356079538e-10
8.360686872e-10
8.383748645e-10
8.479172542e-10
8.855108771e-10
1.030343463e-09
1.578050259e-09
3.605764506e-09
1.091429951e-08
3.635103446e-08
1.208341647e-07
3.839505944e-07
1.131784201e-06
2.987807016e-06
8.355118402e-10
8.359425876e-10
8.380897541e-10
8.469161378e-10
8.813998517e-10
1.01293503e-09
1.504547002e-09
3.29941095e-09
9.661701346e-09
3.136428539e-08
1.017176648e-07
3.146031793e-07
9.003073484e-07
2.309217878e-06
8.352725113e-10
8.35631197e-10
8.374002645e-10
8.445475044e-10
8.718782519e-10
9.735784522e-10
1.343220054e-09
2.651313504e-09
7.129865589e-09
2.183142963e-08
6.753841435e-08
1.99883595e-07
5.48649223e-07
1.359469844e-06
8.350062071e-10
8.352886827e-10
8.366622991e-10
8.420825485e-10
8.622138489e-10
9.346699217e-10
1.188485298e-09
2.051313485e-09
4.88041996e-09
1.375197132e-08
4.006091136e-08
1.127726012e-07
2.965592762e-07
7.116544575e-07
8.348362579e-10
8.350728845e-10
8.362058966e-10
8.405875273e-10
8.564596978e-10
9.119595118e-10
1.100189813e-09
1.717749519e-09
3.666568901e-09
9.535649436e-09
2.623759781e-08
7.060162645e-08
1.789831008e-07
4.185162979e-07
)
;

boundaryField
{
    top
    {
        type            calculated;
        value           nonuniform List<scalar> 
134
(
8.34839423e-10
8.350083605e-10
8.35273839e-10
8.355123347e-10
8.356078563e-10
8.355118705e-10
8.352724096e-10
8.350062125e-10
8.348362579e-10
8.350745558e-10
8.352907149e-10
8.356324593e-10
8.359431672e-10
8.36068541e-10
8.359424926e-10
8.35631044e-10
8.352887603e-10
8.350728845e-10
8.362065542e-10
8.366638445e-10
8.374013131e-10
8.380901861e-10
8.383744105e-10
8.380894652e-10
8.374000134e-10
8.366622383e-10
8.362058966e-10
8.405867749e-10
8.420832044e-10
8.445478743e-10
8.46915872e-10
8.479163644e-10
8.469155418e-10
8.445470863e-10
8.420824893e-10
8.405875273e-10
8.564566261e-10
8.622121413e-10
8.718760762e-10
8.813970333e-10
8.855079209e-10
8.813981142e-10
8.718772101e-10
8.622133629e-10
8.564596978e-10
9.119502538e-10
9.346609805e-10
9.735669446e-10
1.012921972e-09
1.030331674e-09
1.012928149e-09
9.735749903e-10
9.346682961e-10
9.119595118e-10
1.100160766e-09
1.188450714e-09
1.343173036e-09
1.504493244e-09
1.578002321e-09
1.504518798e-09
1.343206391e-09
1.188478923e-09
1.100189813e-09
1.717655358e-09
2.051189206e-09
2.651134787e-09
3.299197214e-09
3.605568201e-09
3.299295339e-09
2.651258316e-09
2.051289667e-09
1.717749519e-09
3.66626426e-09
4.879989125e-09
7.129211084e-09
9.660878302e-09
1.091351038e-08
9.661233518e-09
7.129649644e-09
4.880334409e-09
3.666568901e-09
9.534685496e-09
1.375053014e-08
2.182911676e-08
3.13611984e-08
3.634793505e-08
3.136244636e-08
2.183061497e-08
1.375167275e-08
9.535649436e-09
2.623465047e-08
4.005626781e-08
6.753054125e-08
1.017065364e-07
1.20822414e-07
1.017107421e-07
6.753543483e-08
4.005989555e-08
2.623759781e-08
7.059291405e-08
1.127582922e-07
1.998581381e-07
3.145651605e-07
3.839080668e-07
3.145784219e-07
1.998731986e-07
1.127692443e-07
7.060162645e-08
1.789581179e-07
2.965172971e-07
5.485723325e-07
9.001864177e-07
1.131640618e-06
9.002245904e-07
5.486150857e-07
2.965484656e-07
1.789831008e-07
4.184451033e-07
7.115381301e-07
1.359257891e-06
2.308871979e-06
2.987371058e-06
2.308967275e-06
1.359364023e-06
7.11618818e-07
4.185162979e-07
8.899503192e-07
1.528671399e-06
2.95935604e-06
5.10937912e-06
6.723390954e-06
5.109559668e-06
2.959564061e-06
1.52885382e-06
)
;
    }
    bottom
    {
        type            calculated;
        value           nonuniform List<scalar> 
127
(
8.348470401e-10
8.350150225e-10
8.352800111e-10
8.355181478e-10
8.356131613e-10
8.355168325e-10
8.352771438e-10
8.350104189e-10
8.348398062e-10
8.35080607e-10
8.352957665e-10
8.356371627e-10
8.35947343e-10
8.360724248e-10
8.359460458e-10
8.356344011e-10
8.352915216e-10
8.35074888e-10
8.36211408e-10
8.366679117e-10
8.374049623e-10
8.380933207e-10
8.383774351e-10
8.380921173e-10
8.374024096e-10
8.366641342e-10
8.36206987e-10
8.405907172e-10
8.420862667e-10
8.445506104e-10
8.469180301e-10
8.479183615e-10
8.469172823e-10
8.445485179e-10
8.420833854e-10
8.405877586e-10
8.564594961e-10
8.622142082e-10
8.718778346e-10
8.813979635e-10
8.85508696e-10
8.813989002e-10
8.718776663e-10
8.622136938e-10
8.564592531e-10
9.119518651e-10
9.346619313e-10
9.735680835e-10
1.01292138e-09
1.030331302e-09
1.012928315e-09
9.735746219e-10
9.346686368e-10
9.119589023e-10
1.100161407e-09
1.188451652e-09
1.343177139e-09
1.504492426e-09
1.578003167e-09
1.504521944e-09
1.343207497e-09
1.188482456e-09
1.100191435e-09
1.71766015e-09
2.051200053e-09
2.651163118e-09
3.299216215e-09
3.605595998e-09
3.299326662e-09
2.651277413e-09
2.051311442e-09
1.717763196e-09
3.666303277e-09
4.880067337e-09
7.129379579e-09
9.661049034e-09
1.091372639e-08
9.661440619e-09
7.12977437e-09
4.880436286e-09
3.666631102e-09
9.534903265e-09
1.375095015e-08
2.182997452e-08
3.136223583e-08
3.634920745e-08
3.136354793e-08
2.183124943e-08
1.375209256e-08
9.53588805e-09
2.623564144e-08
4.005821444e-08
6.753448159e-08
1.017118544e-07
1.208288616e-07
1.017159205e-07
6.753825421e-08
4.006146632e-08
2.62383902e-08
7.059684366e-08
1.127663847e-07
1.998747278e-07
3.145892623e-07
3.839374654e-07
3.146003876e-07
1.998843592e-07
1.127745535e-07
7.060386932e-08
1.789718883e-07
2.965482284e-07
5.486360998e-07
9.00284016e-07
1.131760803e-06
9.003085233e-07
5.486545341e-07
2.96564328e-07
1.789879246e-07
4.184871293e-07
7.116500338e-07
1.359477833e-06
2.309216201e-06
2.987797833e-06
2.309248117e-06
1.359488775e-06
7.116614141e-07
4.185194358e-07
8.900530814e-07
)
;
    }
    side-walls
    {
        type            calculated;
        value           nonuniform List<scalar> 
261
(
8.348470401e-10
8.350150492e-10
8.352799827e-10
8.355180556e-10
8.356131131e-10
8.355165934e-10
8.352769164e-10
8.350101848e-10
8.34839423e-10
8.35080607e-10
8.35295723e-10
8.356370258e-10
8.359472733e-10
8.360723333e-10
8.359457523e-10
8.356340881e-10
8.352911932e-10
8.350745558e-10
8.36211408e-10
8.366679086e-10
8.374047789e-10
8.380931382e-10
8.383771034e-10
8.38091695e-10
8.374019583e-10
8.366636534e-10
8.362065542e-10
8.405907172e-10
8.420862463e-10
8.445500336e-10
8.469173187e-10
8.479173656e-10
8.469161377e-10
8.445474608e-10
8.420824251e-10
8.405867749e-10
8.564594961e-10
8.622138231e-10
8.718763232e-10
8.813955118e-10
8.855051095e-10
8.813945654e-10
8.718741838e-10
8.622107424e-10
8.564566261e-10
9.119518651e-10
9.346605127e-10
9.735623479e-10
1.012911471e-09
1.03031658e-09
1.012911661e-09
9.735612768e-10
9.34657821e-10
9.119502538e-10
1.100161407e-09
1.18844572e-09
1.343154424e-09
1.504452978e-09
1.577943812e-09
1.504455568e-09
1.343155915e-09
1.188442727e-09
1.100160766e-09
1.71766015e-09
2.051176234e-09
2.651074538e-09
3.299056522e-09
3.605356785e-09
3.299065802e-09
2.65107992e-09
2.051166768e-09
1.717655358e-09
3.666303277e-09
4.879975243e-09
7.129036194e-09
9.660412334e-09
1.091277172e-08
9.660431166e-09
7.129036303e-09
4.879923741e-09
3.66626426e-09
9.534903265e-09
1.375059819e-08
2.182867339e-08
3.135974974e-08
3.634547063e-08
3.135974739e-08
2.182858112e-08
1.37503425e-08
9.534685496e-09
2.623564144e-08
4.005689329e-08
6.752969102e-08
1.017024328e-07
1.208146992e-07
1.017021739e-07
6.752903479e-08
4.005576649e-08
2.623465047e-08
7.059684366e-08
1.127615084e-07
1.998576199e-07
3.145550388e-07
3.838862125e-07
3.145533213e-07
1.998543262e-07
1.127570788e-07
7.059291405e-08
1.789718883e-07
2.965302379e-07
5.485774056e-07
9.001671565e-07
1.131587307e-06
9.001591802e-07
5.48564258e-07
2.965147849e-07
1.789581179e-07
4.184871293e-07
7.115797718e-07
1.359287148e-06
2.308852704e-06
2.987271033e-06
2.308824341e-06
1.359245106e-06
7.115338701e-07
4.184451033e-07
8.900530814e-07
1.528771893e-06
2.959448289e-06
5.109406292e-06
6.723289553e-06
5.109333252e-06
2.9593467e-06
1.528666686e-06
8.899503192e-07
8.348398062e-10
8.350087524e-10
8.352743283e-10
8.355126944e-10
8.356079538e-10
8.355118402e-10
8.352725113e-10
8.350062071e-10
8.348362579e-10
8.35074888e-10
8.352910759e-10
8.356329367e-10
8.359434382e-10
8.360686872e-10
8.359425876e-10
8.35631197e-10
8.352886827e-10
8.350728845e-10
8.36206987e-10
8.366644021e-10
8.374018475e-10
8.380907023e-10
8.383748645e-10
8.380897541e-10
8.374002645e-10
8.366622991e-10
8.362058966e-10
8.405877586e-10
8.42084329e-10
8.445490989e-10
8.469170823e-10
8.479172542e-10
8.469161378e-10
8.445475044e-10
8.420825485e-10
8.405875273e-10
8.564592531e-10
8.622153132e-10
8.718798768e-10
8.814009519e-10
8.855108771e-10
8.813998517e-10
8.718782519e-10
8.622138489e-10
8.564596978e-10
9.119589023e-10
9.34672057e-10
9.735810483e-10
1.012936995e-09
1.030343463e-09
1.01293503e-09
9.735784522e-10
9.346699217e-10
9.119595118e-10
1.100191435e-09
1.188491223e-09
1.34322722e-09
1.504552707e-09
1.578050259e-09
1.504547002e-09
1.343220054e-09
1.188485298e-09
1.100189813e-09
1.717763196e-09
2.051336774e-09
2.65134007e-09
3.299432614e-09
3.605764506e-09
3.29941095e-09
2.651313504e-09
2.051313485e-09
1.717749519e-09
3.666631102e-09
4.880511044e-09
7.129970255e-09
9.661788077e-09
1.091429951e-08
9.661701346e-09
7.129865589e-09
4.88041996e-09
3.666568901e-09
9.53588805e-09
1.375230443e-08
2.183182859e-08
3.136461629e-08
3.635103446e-08
3.136428539e-08
2.183142963e-08
1.375197132e-08
9.535649436e-09
2.62383902e-08
4.006202265e-08
6.753981635e-08
1.017188831e-07
1.208341647e-07
1.017176648e-07
6.753841435e-08
4.006091136e-08
2.623759781e-08
7.060386932e-08
1.127758366e-07
1.998880091e-07
3.14607367e-07
3.839505944e-07
3.146031793e-07
1.99883595e-07
1.127726012e-07
7.060162645e-08
1.789879246e-07
2.965668941e-07
5.486613217e-07
9.003203263e-07
1.131784201e-06
9.003073484e-07
5.48649223e-07
2.965592762e-07
1.789831008e-07
4.185194358e-07
7.116652907e-07
1.359496428e-06
2.309252357e-06
2.987807016e-06
2.309217878e-06
1.359469844e-06
7.116544575e-07
4.185162979e-07
)
;
    }
    inlet
    {
        type            calculated;
        value           nonuniform List<scalar> 
81
(
8.348470401e-10
8.350150492e-10
8.352799827e-10
8.355180556e-10
8.356131131e-10
8.355165934e-10
8.352769164e-10
8.350101848e-10
8.34839423e-10
8.350150225e-10
8.352048525e-10
8.355047453e-10
8.357754558e-10
8.358837629e-10
8.357740336e-10
8.355019005e-10
8.352003664e-10
8.350083605e-10
8.352800111e-10
8.355048268e-10
8.358609584e-10
8.361841243e-10
8.363143002e-10
8.361827753e-10
8.358582862e-10
8.355006033e-10
8.35273839e-10
8.355181478e-10
8.357755373e-10
8.36184229e-10
8.365570916e-10
8.3670783e-10
8.3655566e-10
8.361816101e-10
8.357714859e-10
8.355123347e-10
8.356131613e-10
8.358838742e-10
8.363145499e-10
8.367079144e-10
8.368673333e-10
8.367067787e-10
8.363120605e-10
8.358802773e-10
8.356078563e-10
8.355168325e-10
8.357740739e-10
8.361829905e-10
8.365559135e-10
8.367068621e-10
8.365548717e-10
8.361807591e-10
8.35770825e-10
8.355118705e-10
8.352771438e-10
8.355021573e-10
8.358585287e-10
8.361819745e-10
8.363122514e-10
8.361809285e-10
8.35856445e-10
8.354990209e-10
8.352724096e-10
8.350104189e-10
8.352007426e-10
8.355009644e-10
8.357717771e-10
8.358804931e-10
8.357709656e-10
8.354991858e-10
8.351979072e-10
8.350062125e-10
8.348398062e-10
8.350087524e-10
8.352743283e-10
8.355126944e-10
8.356079538e-10
8.355118402e-10
8.352725113e-10
8.350062071e-10
8.348362579e-10
)
;
    }
    outlet
    {
        type            calculated;
        value           nonuniform 0();
    }
    procBoundary0to1
    {
        type            processor;
        value           nonuniform List<scalar> 
97
(
1.711041101e-06
1.528861948e-06
2.911301964e-06
5.563769796e-06
9.452432728e-06
1.223051325e-05
9.452342162e-06
5.563646384e-06
2.911181905e-06
1.7109556e-06
1.528861948e-06