/*--------------------------------*- C++ -*----------------------------------*\
| =========                 |                                                 |
| \\      /  F ield         | OpenFOAM: The Open Source CFD Toolbox           |
|  \\    /   O peration     | Version:  4.x                                   |
|   \\  /    A nd           | Web:      www.OpenFOAM.org                      |
|    \\/     M anipulation  |                                                 |
\*---------------------------------------------------------------------------*/
FoamFile
{
    version     2.0;
    format      ascii;
    class       volScalarField;
    location    "11000";
    object      CO2;
}
// * * * * * * * * * * * * * * * * * * * * * * * * * * * * * * * * * * * * * //

dimensions      [0 0 0 0 0 0 0];

internalField   nonuniform List<scalar> 
1175
(
0.0649813391
0.0649813391
0.0649813391
0.0649813391
0.06498133911
0.06498133915
0.06498133929
0.06498133972
0.06498134105
0.06498134499
0.06498135601
0.06498138479
0.06498145396
0.06498160447
0.06498189659
0.0649813391
0.0649813391
0.0649813391
0.0649813391
0.06498133912
0.06498133917
0.06498133935
0.06498133994
0.06498134184
0.06498134771
0.06498136478
0.06498141112
0.06498152629
0.06498178228
0.06498227902
0.0649813391
0.0649813391
0.0649813391
0.0649813391
0.06498133912
0.06498133919
0.06498133945
0.06498134034
0.06498134331
0.06498135287
0.06498138203
0.06498146495
0.06498167967
0.06498217075
0.06498312567
0.0649813391
0.0649813391
0.0649813391
0.0649813391
0.06498133913
0.06498133922
0.06498133956
0.06498134076
0.06498134493
0.06498135888
0.06498140323
0.06498153489
0.06498189064
0.06498273198
0.06498437906
0.0649813391
0.0649813391
0.0649813391
0.0649813391
0.06498133913
0.06498133923
0.06498133961
0.06498134096
0.06498134573
0.06498136199
0.06498141493
0.06498157656
0.06498202733
0.06498312627
0.06498530371
0.0649813391
0.0649813391
0.0649813391
0.0649813391
0.06498133913
0.06498133922
0.06498133956
0.06498134076
0.06498134493
0.06498135888
0.06498140323
0.06498153489
0.06498189064
0.06498273197
0.06498437905
0.0649813391
0.0649813391
0.0649813391
0.0649813391
0.06498133912
0.06498133919
0.06498133945
0.06498134033
0.06498134331
0.06498135287
0.06498138203
0.06498146495
0.06498167967
0.06498217074
0.06498312565
0.0649813391
0.0649813391
0.0649813391
0.0649813391
0.06498133912
0.06498133917
0.06498133935
0.06498133994
0.06498134184
0.06498134771
0.06498136478
0.06498141112
0.06498152628
0.06498178227
0.064982279
0.0649813391
0.0649813391
0.0649813391
0.0649813391
0.06498133911
0.06498133915
0.06498133929
0.06498133972
0.06498134105
0.06498134499
0.06498135601
0.06498138479
0.06498145395
0.06498160446
0.06498189657
0.0649813391
0.0649813391
0.0649813391
0.0649813391
0.06498133912
0.06498133917
0.06498133935
0.06498133994
0.06498134184
0.06498134771
0.06498136478
0.06498141112
0.06498152629
0.06498178229
0.0649813391
0.0649813391
0.0649813391
0.0649813391
0.06498133912
0.06498133919
0.06498133944
0.06498134029
0.06498134319
0.06498135257
0.0649813814
0.06498146407
0.06498167993
0.06498217664
0.06498314327
0.0649813391
0.0649813391
0.0649813391
0.0649813391
0.06498133913
0.06498133923
0.0649813396
0.06498134096
0.06498134578
0.06498136237
0.06498141668
0.06498158274
0.06498204379
0.06498315637
0.06498534293
0.0649813391
0.0649813391
0.0649813391
0.06498133911
0.06498133914
0.06498133927
0.06498133978
0.0649813417
0.06498134888
0.06498137485
0.06498146494
0.06498175878
0.06498263166
0.06498487075
0.06498937751
0.0649813391
0.0649813391
0.0649813391
0.06498133911
0.06498133914
0.06498133929
0.06498133986
0.06498134208
0.06498135052
0.06498138201
0.06498149549
0.06498188381
0.06498310756
0.06498646038
0.06499351333
0.0649813391
0.0649813391
0.0649813391
0.06498133911
0.06498133914
0.06498133927
0.06498133978
0.0649813417
0.06498134888
0.06498137485
0.06498146494
0.06498175878
0.06498263165
0.06498487073
0.06498937745
0.0649813391
0.0649813391
0.0649813391
0.0649813391
0.06498133913
0.06498133923
0.0649813396
0.06498134096
0.06498134578
0.06498136237
0.06498141668
0.06498158274
0.06498204377
0.06498315633
0.06498534284
0.0649813391
0.0649813391
0.0649813391
0.0649813391
0.06498133912
0.06498133919
0.06498133944
0.06498134029
0.06498134319
0.06498135257
0.0649813814
0.06498146406
0.06498167992
0.06498217661
0.0649831432
0.0649813391
0.0649813391
0.0649813391
0.0649813391
0.06498133912
0.06498133917
0.06498133935
0.06498133994
0.06498134184
0.06498134771
0.06498136478
0.06498141112
0.06498152628
0.06498178227
0.064982279
0.0649813391
0.0649813391
0.0649813391
0.0649813391
0.06498133912
0.06498133919
0.06498133945
0.06498134033
0.06498134331
0.06498135287
0.06498138203
0.06498146495
0.06498167968
0.06498217077
0.0649813391
0.0649813391
0.0649813391
0.0649813391
0.06498133913
0.06498133923
0.0649813396
0.06498134096
0.06498134578
0.06498136237
0.06498141668
0.06498158275
0.0649820438
0.06498315641
0.0649813391
0.0649813391
0.0649813391
0.06498133911
0.06498133915
0.06498133929
0.06498133988
0.06498134216
0.06498135084
0.06498138293
0.06498149672
0.06498187564
0.06498302231
0.06498600517
0.06499203414
0.0649813391
0.0649813391
0.0649813391
0.06498133911
0.06498133916
0.06498133936
0.0649813402
0.06498134361
0.06498135736
0.06498141171
0.06498162008
0.06498237914
0.06498491904
0.06499224004
0.06500801702
0.0649813391
0.0649813391
0.0649813391
0.06498133911
0.06498133917
0.0649813394
0.06498134036
0.06498134439
0.06498136115
0.0649814304
0.06498171152
0.0649828167
0.06498690403
0.06500026625
0.06503289628
0.0649813391
0.0649813391
0.0649813391
0.06498133911
0.06498133916
0.06498133936
0.0649813402
0.06498134361
0.06498135736
0.06498141171
0.06498162007
0.06498237912
0.06498491898
0.06499223985
0.06500801657
0.0649813391
0.0649813391
0.0649813391
0.06498133911
0.06498133915
0.06498133929
0.06498133988
0.06498134216
0.06498135084
0.06498138293
0.06498149672
0.06498187562
0.06498302225
0.064986005
0.06499203372
0.0649813391
0.0649813391
0.0649813391
0.0649813391
0.06498133913
0.06498133923
0.0649813396
0.06498134096
0.06498134578
0.06498136237
0.06498141668
0.06498158274
0.06498204377
0.06498315633
0.06498534284
0.0649813391
0.0649813391
0.0649813391
0.0649813391
0.06498133912
0.06498133919
0.06498133945
0.06498134033
0.06498134331
0.06498135287
0.06498138203
0.06498146495
0.06498167967
0.06498217074
0.06498312565
0.0649813391
0.0649813391
0.0649813391
0.0649813391
0.06498133913
0.06498133922
0.06498133956
0.06498134076
0.06498134493
0.06498135888
0.06498140323
0.0649815349
0.06498189066
0.06498273201
0.0649813391
0.0649813391
0.0649813391
0.06498133911
0.06498133914
0.06498133927
0.06498133978
0.0649813417
0.06498134888
0.06498137485
0.06498146494
0.06498175879
0.06498263169
0.06498487086
0.0649813391
0.0649813391
0.0649813391
0.06498133911
0.06498133916
0.06498133936
0.0649813402
0.06498134361
0.06498135736
0.06498141171
0.06498162008
0.06498237915
0.06498491911
0.0649922403
0.0649813391
0.0649813391
0.0649813391
0.06498133912
0.06498133918
0.06498133947
0.0649813407
0.06498134604
0.06498136912
0.0649814685
0.06498189054
0.06498362918
0.06499036306
0.06501331047
0.0650709142
0.0649813391
0.0649813391
0.0649813391
0.06498133912
0.06498133919
0.06498133952
0.06498134097
0.06498134743
0.06498137668
0.06498151058
0.06498212944
0.06498499645
0.06499806811
0.06505395967
0.06524435916
0.0649813391
0.0649813391
0.0649813391
0.06498133912
0.06498133918
0.06498133947
0.0649813407
0.06498134604
0.06498136912
0.0649814685
0.06498189053
0.06498362914
0.06499036288
0.06501330978
0.06507091198
0.0649813391
0.0649813391
0.0649813391
0.06498133911
0.06498133916
0.06498133936
0.0649813402
0.06498134361
0.06498135736
0.06498141171
0.06498162007
0.06498237912
0.064984919
0.06499223988
0.06500801661
0.0649813391
0.0649813391
0.0649813391
0.06498133911
0.06498133914
0.06498133927
0.06498133978
0.0649813417
0.06498134888
0.06498137485
0.06498146494
0.06498175877
0.06498263164
0.0649848707
0.0649893774
0.0649813391
0.0649813391
0.0649813391
0.0649813391
0.06498133913
0.06498133922
0.06498133956
0.06498134076
0.06498134493
0.06498135888
0.06498140323
0.06498153489
0.06498189064
0.06498273197
0.06498437903
0.0649813391
0.0649813391
0.0649813391
0.0649813391
0.06498133913
0.06498133923
0.06498133961
0.06498134096
0.06498134573
0.06498136199
0.06498141493
0.06498157657
0.06498202734
0.06498312631
0.0649813391
0.0649813391
0.0649813391
0.06498133911
0.06498133914
0.06498133929
0.06498133986
0.06498134208
0.06498135052
0.06498138201
0.0649814955
0.06498188382
0.06498310759
0.06498646048
0.0649813391
0.0649813391
0.0649813391
0.06498133911
0.06498133917
0.0649813394
0.06498134036
0.06498134439
0.06498136115
0.0649814304
0.06498171152
0.06498281672
0.06498690411
0.06500026663
0.0649813391
0.0649813391
0.0649813391
0.06498133912
0.06498133919
0.06498133952
0.06498134097
0.06498134743
0.06498137668
0.06498151058
0.06498212944
0.06498499648
0.06499806831
0.06505396127
0.0649813391
0.0649813391
0.0649813391
0.06498133912
0.0649813392
0.06498133958
0.06498134129
0.06498134927
0.06498138747
0.06498157733
0.06498256637
0.06498802777
0.06502032983
0.06522639553
0.06665067148
0.0649813391
0.0649813391
0.0649813391
0.06498133912
0.06498133919
0.06498133952
0.06498134097
0.06498134743
0.06498137668
0.06498151058
0.06498212943
0.06498499643
0.06499806804
0.06505395947
0.06524435877
0.0649813391
0.0649813391
0.0649813391
0.06498133911
0.06498133917
0.0649813394
0.06498134036
0.06498134439
0.06498136115
0.0649814304
0.06498171151
0.06498281669
0.06498690399
0.06500026615
0.06503289603
0.0649813391
0.0649813391
0.0649813391
0.06498133911
0.06498133914
0.06498133929
0.06498133986
0.06498134208
0.06498135052
0.06498138201
0.06498149549
0.0649818838
0.06498310753
0.06498646031
0.06499351319
0.0649813391
0.0649813391
0.0649813391
0.0649813391
0.06498133913
0.06498133923
0.06498133961
0.06498134096
0.06498134573
0.06498136199
0.06498141493
0.06498157656
0.06498202732
0.06498312626
0.06498530367
0.0649813391
0.0649813391
0.0649813391
0.0649813391
0.06498133913
0.06498133922
0.06498133956
0.06498134076
0.06498134493
0.06498135888
0.06498140323
0.0649815349
0.06498189065
0.06498273201
0.0649813391
0.0649813391
0.0649813391
0.06498133911
0.06498133914
0.06498133927
0.06498133978
0.0649813417
0.06498134888
0.06498137485
0.06498146494
0.06498175878
0.06498263168
0.06498487081
0.0649813391
0.0649813391
0.0649813391
0.06498133911
0.06498133916
0.06498133936
0.0649813402
0.06498134361
0.06498135736
0.06498141171
0.06498162008
0.06498237915
0.06498491908
0.06499224016
0.0649813391
0.0649813391
0.0649813391
0.06498133912
0.06498133918
0.06498133947
0.0649813407
0.06498134604
0.06498136912
0.0649814685
0.06498189053
0.06498362918
0.06499036308
0.06501331057
0.0649813391
0.0649813391
0.0649813391
0.06498133912
0.06498133919
0.06498133952
0.06498134097
0.06498134743
0.06498137668
0.06498151058
0.06498212945
0.0649849965
0.06499806838
0.06505396143
0.0649813391
0.0649813391
0.0649813391
0.06498133912
0.06498133918
0.06498133947
0.0649813407
0.06498134604
0.06498136912
0.0649814685
0.06498189054
0.06498362918
0.06499036309
0.06501331065
0.0649813391
0.0649813391
0.0649813391
0.06498133911
0.06498133916
0.06498133936
0.0649813402
0.06498134361
0.06498135736
0.06498141171
0.06498162008
0.06498237914
0.06498491905
0.06499224007
0.06500801716
0.0649813391
0.0649813391
0.0649813391
0.06498133911
0.06498133914
0.06498133927
0.06498133978
0.0649813417
0.06498134888
0.06498137485
0.06498146494
0.06498175878
0.06498263165
0.06498487075
0.0649893775
0.0649813391
0.0649813391
0.0649813391
0.0649813391
0.06498133913
0.06498133922
0.06498133956
0.06498134076
0.06498134493
0.06498135888
0.06498140323
0.06498153489
0.06498189064
0.06498273198
0.06498437906
0.0649813391
0.0649813391
0.0649813391
0.0649813391
0.06498133912
0.06498133919
0.06498133945
0.06498134033
0.06498134331
0.06498135287
0.06498138203
0.06498146495
0.06498167968
0.06498217076
0.0649813391
0.0649813391
0.0649813391
0.0649813391
0.06498133913
0.06498133923
0.0649813396
0.06498134096
0.06498134578
0.06498136237
0.06498141668
0.06498158274
0.06498204379
0.06498315638
0.0649813391
0.0649813391
0.0649813391
0.06498133911
0.06498133915
0.06498133929
0.06498133988
0.06498134216
0.06498135084
0.06498138293
0.06498149672
0.06498187564
0.0649830223
0.06498600513
0.0649813391
0.0649813391
0.0649813391
0.06498133911
0.06498133916
0.06498133936
0.0649813402
0.06498134361
0.06498135736
0.06498141171
0.06498162008
0.06498237915
0.06498491908
0.06499224015
0.0649813391
0.0649813391
0.0649813391
0.06498133911
0.06498133917
0.0649813394
0.06498134036
0.06498134439
0.06498136115
0.0649814304
0.06498171152
0.06498281674
0.06498690416
0.06500026674
0.0649813391
0.0649813391
0.0649813391
0.06498133911
0.06498133916
0.06498133936
0.0649813402
0.06498134361
0.06498135736
0.06498141171
0.06498162008
0.06498237915
0.0649849191
0.0649922402
0.0649813391
0.0649813391
0.0649813391
0.06498133911
0.06498133915
0.06498133929
0.06498133988
0.06498134216
0.06498135084
0.06498138293
0.06498149672
0.06498187564
0.06498302231
0.06498600518
0.0649813391
0.0649813391
0.0649813391
0.0649813391
0.06498133913
0.06498133923
0.0649813396
0.06498134096
0.06498134578
0.06498136237
0.06498141668
0.06498158274
0.06498204379
0.06498315638
0.06498534296
0.0649813391
0.0649813391
0.0649813391
0.0649813391
0.06498133912
0.06498133919
0.06498133945
0.06498134033
0.06498134331
0.06498135287
0.06498138203
0.06498146495
0.06498167967
0.06498217076
0.06498312567
0.0649813391
0.0649813391
0.0649813391
0.0649813391
0.06498133912
0.06498133917
0.06498133935
0.06498133994
0.06498134184
0.06498134771
0.06498136478
0.06498141112
0.06498152629
0.06498178228
0.0649813391
0.0649813391
0.0649813391
0.0649813391
0.06498133912
0.06498133919
0.06498133944
0.06498134029
0.06498134319
0.06498135257
0.0649813814
0.06498146407
0.06498167993
0.06498217664
0.0649813391
0.0649813391
0.0649813391
0.0649813391
0.06498133913
0.06498133923
0.0649813396
0.06498134096
0.06498134578
0.06498136237
0.06498141668
0.06498158275
0.06498204379
0.06498315639
0.0649813391
0.0649813391
0.0649813391
0.06498133911
0.06498133914
0.06498133927
0.06498133978
0.0649813417
0.06498134888
0.06498137485
0.06498146494
0.06498175879
0.06498263168
0.06498487081
0.0649813391
0.0649813391
0.0649813391
0.06498133911
0.06498133914
0.06498133929
0.06498133986
0.06498134208
0.06498135052
0.06498138201
0.0649814955
0.06498188382
0.0649831076
0.06498646048
0.0649813391
0.0649813391
0.0649813391
0.06498133911
0.06498133914
0.06498133927
0.06498133978
0.0649813417
0.06498134888
0.06498137485
0.06498146494
0.06498175879
0.06498263168
0.06498487082
0.0649813391
0.0649813391
0.0649813391
0.0649813391
0.06498133913
0.06498133923
0.0649813396
0.06498134096
0.06498134578
0.06498136237
0.06498141668
0.06498158275
0.06498204379
0.06498315639
0.0649813391
0.0649813391
0.0649813391
0.0649813391
0.06498133912
0.06498133919
0.06498133944
0.06498134029
0.06498134319
0.06498135257
0.0649813814
0.06498146407
0.06498167993
0.06498217665
0.0649813391
0.0649813391
0.0649813391
0.0649813391
0.06498133912
0.06498133917
0.06498133935
0.06498133994
0.06498134184
0.06498134771
0.06498136478
0.06498141112
0.06498152629
0.06498178228
0.06498227902
0.0649813391
0.0649813391
0.0649813391
0.0649813391
0.06498133911
0.06498133915
0.06498133929
0.06498133972
0.06498134105
0.06498134499
0.06498135601
0.06498138479
0.06498145396
0.06498160446
0.0649813391
0.0649813391
0.0649813391
0.0649813391
0.06498133912
0.06498133917
0.06498133935
0.06498133994
0.06498134184
0.06498134771
0.06498136478
0.06498141112
0.06498152629
0.06498178228
0.0649813391
0.0649813391
0.0649813391
0.0649813391
0.06498133912
0.06498133919
0.06498133945
0.06498134033
0.06498134331
0.06498135287
0.06498138203
0.06498146495
0.06498167968
0.06498217077
0.0649813391
0.0649813391
0.0649813391
0.0649813391
0.06498133913
0.06498133922
0.06498133956
0.06498134076
0.06498134493
0.06498135888
0.06498140323
0.0649815349
0.06498189066
0.06498273201
0.0649813391
0.0649813391
0.0649813391
0.0649813391
0.06498133913
0.06498133923
0.06498133961
0.06498134096
0.06498134573
0.06498136199
0.06498141493
0.06498157657
0.06498202734
0.06498312631
0.0649813391
0.0649813391
0.0649813391
0.0649813391
0.06498133913
0.06498133922
0.06498133956
0.06498134076
0.06498134493
0.06498135888
0.06498140323
0.0649815349
0.06498189065
0.06498273201
0.0649813391
0.0649813391
0.0649813391
0.0649813391
0.06498133912
0.06498133919
0.06498133945
0.06498134033
0.06498134331
0.06498135287
0.06498138203
0.06498146495
0.06498167967
0.06498217076
0.0649813391
0.0649813391
0.0649813391
0.0649813391
0.06498133912
0.06498133917
0.06498133935
0.06498133994
0.06498134184
0.06498134771
0.06498136478
0.06498141112
0.06498152629
0.06498178228
0.0649813391
0.0649813391
0.0649813391
0.0649813391
0.06498133911
0.06498133915
0.06498133929
0.06498133972
0.06498134105
0.06498134499
0.06498135601
0.06498138479
0.06498145396
0.06498160447
)
;

boundaryField
{
    top
    {
        type            zeroGradient;
    }
    bottom
    {
        type            zeroGradient;
    }
    side-walls
    {
        type            zeroGradient;
    }
    inlet
    {
        type            zeroGradient;
    }
    outlet
    {
        type            zeroGradient;
    }
    procBoundary0to1
    {
        type            processor;
        value           nonuniform List<scalar> 
97
(
0.06498239877
0.06498227903
0.0649831088
0.06498466002
0.06498690105
0.06498847531
0.06498690103
0.06498465999
0.06498310877
0.06498239874
0.06498227903
0.06498227903
0.06498468353
0.064985343
0.06498859572
0.06499544139
0.06500178774
0.0649954413
0.06498859559
0.06498468344
0.06498310877
0.06498312569
0.064985343
0.064985343
0.06499997129
0.06500801747
0.0650248685
0.06505691399
0.06502486799
0.06499997078
0.06498859558
0.06498465998
0.0649843791
0.06498937766
0.06500801747
0.06500801747
0.06510901647
0.06524435972
0.06527138348
0.06510901485
0.065024868
0.0649954412
0.06498690099
0.06498530374
0.06499351341
0.06503289648
0.06524435972
0.06524435972
0.06596159255
0.06524435992
0.06527138303
0.06507091293
0.06505691359
0.0650017875
0.06498847522
0.06498437908
0.06498937752
0.0650080169
0.06507091258
0.06524435992
0.06507091293
0.06507091293
0.06502486839
0.06499203405
0.0649954413
0.06498690102
0.06498312567
0.06498534289
0.06499203386
0.06500801686
0.06503289664
0.06500801694
0.06499203405
0.06499203405
0.0649885957
0.06498314325
0.06498466001
0.064982279
0.06498314322
0.06498534289
0.06498937751
0.06499351339
0.06498937754
0.06498534291
0.06498314325
0.06498314325
0.0649831088
0.06498189659
0.06498189658
0.06498227901
0.06498312567
0.06498437908
0.06498530373
0.06498437907
0.06498312566
0.06498227901
0.06498189659
)
;
    }
}


// ************************************************************************* //
