/*--------------------------------*- C++ -*----------------------------------*\
| =========                 |                                                 |
| \\      /  F ield         | OpenFOAM: The Open Source CFD Toolbox           |
|  \\    /   O peration     | Version:  4.x                                   |
|   \\  /    A nd           | Web:      www.OpenFOAM.org                      |
|    \\/     M anipulation  |                                                 |
\*---------------------------------------------------------------------------*/
FoamFile
{
    version     2.0;
    format      ascii;
    class       volScalarField;
    location    "11000";
    object      Cpv;
}
// * * * * * * * * * * * * * * * * * * * * * * * * * * * * * * * * * * * * * //

dimensions      [0 2 -2 -1 0 0 0];

internalField   nonuniform List<scalar> 
1175
(
1277.533267
1277.533254
1277.533257
1277.533272
1277.533259
1277.533257
1277.533258
1277.533267
1277.533259
1277.533261
1277.533262
1277.53326
1277.533257
1277.533251
1277.533232
1277.533589
1277.533579
1277.533586
1277.533608
1277.533626
1277.533643
1277.533635
1277.533653
1277.533644
1277.533639
1277.533619
1277.533622
1277.533612
1277.53357
1277.533507
1277.532499
1277.532507
1277.532505
1277.532493
1277.532482
1277.532501
1277.5325
1277.532518
1277.532509
1277.532512
1277.532522
1277.532492
1277.532464
1277.532413
1277.532284
1277.532543
1277.532553
1277.532574
1277.532547
1277.532546
1277.532518
1277.532528
1277.532539
1277.532543
1277.532541
1277.532509
1277.53248
1277.532465
1277.532386
1277.532197
1277.533199
1277.5332
1277.533211
1277.533201
1277.533196
1277.533188
1277.533169
1277.533163
1277.533167
1277.53313
1277.533126
1277.533121
1277.53307
1277.532933
1277.532664
1277.532822
1277.532833
1277.532833
1277.532833
1277.532819
1277.532831
1277.532817
1277.532823
1277.532815
1277.532827
1277.532835
1277.532798
1277.532735
1277.532647
1277.532437
1277.533349
1277.53334
1277.533319
1277.533312
1277.533324
1277.533333
1277.533317
1277.533325
1277.533307
1277.533319
1277.533326
1277.53334
1277.53334
1277.533287
1277.533174
1277.533161
1277.533145
1277.533145
1277.533166
1277.533163
1277.53316
1277.533163
1277.53316
1277.53316
1277.53314
1277.533119
1277.533111
1277.533075
1277.533032
1277.532979
1277.533042
1277.533045
1277.533058
1277.533064
1277.53307
1277.533065
1277.533044
1277.533077
1277.533078
1277.533066
1277.53307
1277.533045
1277.533072
1277.533027
1277.532999
1277.53351
1277.533512
1277.533519
1277.53353
1277.533513
1277.5335
1277.533505
1277.533492
1277.533511
1277.533505
1277.533523
1277.533515
1277.533496
1277.533469
1277.533251
1277.533232
1277.53324
1277.533253
1277.533232
1277.533257
1277.533275
1277.533265
1277.533246
1277.533246
1277.533235
1277.533216
1277.533169
1277.533125
1277.533024
1277.532802
1277.532818
1277.532796
1277.5328
1277.532776
1277.532774
1277.532762
1277.532758
1277.532778
1277.532817
1277.532807
1277.532808
1277.532774
1277.532638
1277.532354
1277.533056
1277.533055
1277.533056
1277.533039
1277.533037
1277.533058
1277.533077
1277.533089
1277.533058
1277.533047
1277.533009
1277.532969
1277.532859
1277.532566
1277.532053
1277.534743
1277.534759
1277.534748
1277.534767
1277.534769
1277.534741
1277.534735
1277.534715
1277.534722
1277.53474
1277.534733
1277.534663
1277.534515
1277.534099
1277.533254
1277.534279
1277.53428
1277.534293
1277.534303
1277.5343
1277.53431
1277.534312
1277.53431
1277.53431
1277.534307
1277.534314
1277.534275
1277.534198
1277.53393
1277.533416
1277.533408
1277.533418
1277.533419
1277.533415
1277.533419
1277.533401
1277.533398
1277.533395
1277.533404
1277.533411
1277.533429
1277.533427
1277.533373
1277.533213
1277.532974
1277.533028
1277.533027
1277.533023
1277.533012
1277.533
1277.533005
1277.533003
1277.532996
1277.532982
1277.533
1277.532981
1277.53297
1277.532953
1277.532901
1277.532784
1277.533956
1277.533977
1277.533961
1277.533933
1277.533935
1277.533949
1277.533958
1277.533951
1277.533941
1277.533943
1277.533945
1277.533928
1277.533891
1277.533864
1277.533776
1277.53257
1277.532576
1277.532558
1277.532569
1277.532575
1277.532557
1277.532555
1277.532563
1277.532555
1277.532539
1277.532531
1277.532527
1277.532495
1277.532428
1277.532459
1277.532471
1277.532494
1277.532496
1277.532496
1277.532505
1277.532549
1277.532543
1277.532501
1277.532517
1277.532521
1277.532499
1277.532452
1277.532315
1277.534077
1277.534097
1277.534094
1277.534062
1277.534058
1277.534055
1277.534025
1277.534024
1277.534014
1277.534009
1277.533992
1277.533954
1277.533802
1277.533473
1277.53273
1277.532644
1277.532664
1277.532665
1277.532669
1277.532668
1277.532676
1277.532673
1277.53268
1277.532702
1277.532695
1277.532678
1277.53256
1277.532239
1277.531398
1277.529528
1277.533845
1277.533818
1277.533825
1277.533828
1277.533842
1277.533839
1277.533842
1277.533847
1277.533829
1277.533813
1277.533778
1277.53363
1277.53316
1277.53157
1277.527708
1277.532153
1277.532135
1277.532127
1277.532108
1277.532097
1277.532077
1277.532084
1277.532072
1277.532057
1277.532054
1277.532015
1277.531928
1277.531619
1277.530767
1277.528929
1277.531611
1277.531627
1277.531617
1277.531622
1277.531615
1277.531576
1277.531587
1277.531583
1277.531583
1277.531569
1277.53158
1277.531552
1277.531388
1277.531031
1277.530325
1277.533938
1277.533922
1277.533914
1277.533883
1277.533933
1277.533935
1277.533924
1277.533945
1277.533941
1277.533904
1277.533897
1277.533887
1277.533844
1277.533717
1277.533494
1277.533527
1277.533523
1277.533519
1277.53353
1277.533523
1277.533502
1277.533532
1277.533563
1277.533566
1277.533556
1277.533551
1277.533538
1277.533511
1277.533478
1277.533399
1277.532225
1277.532228
1277.532241
1277.532237
1277.532235
1277.532248
1277.53224
1277.532247
1277.532239
1277.532235
1277.532215
1277.532203
1277.532158
1277.53205
1277.53442
1277.534414
1277.534426
1277.534388
1277.534383
1277.534407
1277.534407
1277.534413
1277.534442
1277.534431
1277.534416
1277.534381
1277.534271
1277.534008
1277.534443
1277.534454
1277.534435
1277.534457
1277.534458
1277.534449
1277.534438
1277.534455
1277.534454
1277.534413
1277.534381
1277.534311
1277.534007
1277.533126
1277.534502
1277.534482
1277.534477
1277.534494
1277.534482
1277.53449
1277.534472
1277.534492
1277.534508
1277.534481
1277.53445
1277.534261
1277.53345
1277.530743
1277.523944
1277.533996
1277.534037
1277.534059
1277.534054
1277.534057
1277.534058
1277.534071
1277.534078
1277.53407
1277.534068
1277.534025
1277.533662
1277.532087
1277.525468
1277.50277
1277.532762
1277.532774
1277.532807
1277.532823
1277.532818
1277.532816
1277.532842
1277.532828
1277.532805
1277.5328
1277.532741
1277.532517
1277.531722
1277.529018
1277.522192
1277.53352
1277.533536
1277.533539
1277.533517
1277.533508
1277.533532
1277.533502
1277.533521
1277.533554
1277.533515
1277.533469
1277.533383
1277.533071
1277.532209
1277.530331
1277.532746
1277.532753
1277.532758
1277.532777
1277.532773
1277.532755
1277.532738
1277.53274
1277.532725
1277.532731
1277.532723
1277.532706
1277.532583
1277.532315
1277.531738
1277.533485
1277.533481
1277.533498
1277.533495
1277.533478
1277.533501
1277.533481
1277.533473
1277.533472
1277.533486
1277.533491
1277.533469
1277.533427
1277.533344
1277.533159
1277.533165
1277.533169
1277.533154
1277.533159
1277.533157
1277.533155
1277.533165
1277.533175
1277.533178
1277.533165
1277.533152
1277.533111
1277.533074
1277.532951
1277.534351
1277.53433
1277.534331
1277.534332
1277.534343
1277.534343
1277.534349
1277.53436
1277.53437
1277.534381
1277.534363
1277.534318
1277.534158
1277.533757
1277.533163
1277.533143
1277.533147
1277.533181
1277.53318
1277.533212
1277.533209
1277.53317
1277.533162
1277.53316
1277.533108
1277.532971
1277.532517
1277.530922
1277.533341
1277.533334
1277.533318
1277.533274
1277.5333
1277.5333
1277.5333
1277.533322
1277.533324
1277.53332
1277.533254
1277.532924
1277.53139
1277.52478
1277.533286
1277.533297
1277.533282
1277.533265
1277.533268
1277.533276
1277.533317
1277.533319
1277.533303
1277.533294
1277.53321
1277.532535
1277.528692
1277.504254
1276.926663
1277.533051
1277.53305
1277.533068
1277.533058
1277.533053
1277.533035
1277.533027
1277.53304
1277.533032
1277.532983
1277.5329
1277.532579
1277.531018
1277.524402
1277.501709
1277.532612
1277.532602
1277.532598
1277.532583
1277.532558
1277.53257
1277.532592
1277.532575
1277.532589
1277.532637
1277.532595
1277.532438
1277.531957
1277.530371
1277.526497
1277.532304
1277.532292
1277.532285
1277.532294
1277.532293
1277.5323
1277.532317
1277.532285
1277.532297
1277.532303
1277.5323
1277.532261
1277.532096
1277.531702
1277.530865
1277.533261
1277.533242
1277.533228
1277.533228
1277.533246
1277.533225
1277.533202
1277.53321
1277.533183
1277.533159
1277.53317
1277.533155
1277.533097
1277.532969
1277.532693
1277.533882
1277.533871
1277.533887
1277.533877
1277.533878
1277.533891
1277.533863
1277.53388
1277.533867
1277.53385
1277.53384
1277.53385
1277.533811
1277.533719
1277.533177
1277.533198
1277.533217
1277.533227
1277.533271
1277.533282
1277.533303
1277.533277
1277.53326
1277.533272
1277.533285
1277.533256
1277.533167
1277.532892
1277.533379
1277.533372
1277.533352
1277.533364
1277.533378
1277.533388
1277.533378
1277.533378
1277.53339
1277.53337
1277.533364
1277.533292
1277.532988
1277.532118
1277.533007
1277.533021
1277.533049
1277.533019
1277.533017
1277.533015
1277.533002
1277.533018
1277.533025
1277.532978
1277.532932
1277.532726
1277.531938
1277.529232
1277.534156
1277.534154
1277.534165
1277.534146
1277.534142
1277.534177
1277.534173
1277.53416
1277.534117
1277.534085
1277.533984
1277.533657
1277.53212
1277.525523
1277.534118
1277.534129
1277.534149
1277.534166
1277.534177
1277.53419
1277.534199
1277.5342
1277.534212
1277.534223
1277.534162
1277.53394
1277.533163
1277.53043
1277.532868
1277.532855
1277.532868
1277.532858
1277.532887
1277.532874
1277.532903
1277.532897
1277.532923
1277.532921
1277.532891
1277.532787
1277.532494
1277.531612
1277.529765
1277.532519
1277.5325
1277.532463
1277.532493
1277.532515
1277.532519
1277.532526
1277.532512
1277.532495
1277.532474
1277.532474
1277.532441
1277.532341
1277.532071
1277.53151
1277.533642
1277.533656
1277.533653
1277.533646
1277.533618
1277.533613
1277.533611
1277.533614
1277.533592
1277.533607
1277.533603
1277.533601
1277.533555
1277.533457
1277.533267
1277.532745
1277.53274
1277.53274
1277.532733
1277.532749
1277.532751
1277.532735
1277.532755
1277.532743
1277.532741
1277.532739
1277.532729
1277.532692
1277.532609
1277.533422
1277.533429
1277.533411
1277.533408
1277.533428
1277.533397
1277.533389
1277.533399
1277.533405
1277.533395
1277.533378
1277.533349
1277.533292
1277.533146
1277.532265
1277.532277
1277.532307
1277.532314
1277.532343
1277.532344
1277.532363
1277.532346
1277.532343
1277.532332
1277.532308
1277.532258
1277.53215
1277.531792
1277.532373
1277.532373
1277.532372
1277.53238
1277.532387
1277.532376
1277.532382
1277.532371
1277.532386
1277.532361
1277.532335
1277.532221
1277.531919
1277.531057
1277.534534
1277.53452
1277.534499
1277.534483
1277.534514
1277.534505
1277.534482
1277.53446
1277.534443
1277.534445
1277.534397
1277.534259
1277.533795
1277.532213
1277.533366
1277.533342
1277.533341
1277.53334
1277.533334
1277.533326
1277.533316
1277.533317
1277.533313
1277.533305
1277.533295
1277.533173
1277.532864
1277.531989
1277.533667
1277.53367
1277.533671
1277.533651
1277.533669
1277.533662
1277.533658
1277.533678
1277.533689
1277.533725
1277.533693
1277.533655
1277.533538
1277.533202
1277.533511
1277.533521
1277.533521
1277.533541
1277.533553
1277.533546
1277.533545
1277.533569
1277.533545
1277.533555
1277.533515
1277.533501
1277.533471
1277.533336
1277.53307
1277.532677
1277.53268
1277.532678
1277.53268
1277.532668
1277.532662
1277.532661
1277.532667
1277.532668
1277.53269
1277.532671
1277.53264
1277.532605
1277.532534
1277.532422
1277.532651
1277.532636
1277.532637
1277.532641
1277.532622
1277.532602
1277.53258
1277.532602
1277.532571
1277.532583
1277.532591
1277.532604
1277.532597
1277.532566
1277.532605
1277.532647
1277.532664
1277.532697
1277.532677
1277.532685
1277.532696
1277.532711
1277.532722
1277.53272
1277.532725
1277.532685
1277.532657
1277.532625
1277.53408
1277.534109
1277.534121
1277.534114
1277.534121
1277.534129
1277.534124
1277.534149
1277.534171
1277.534162
1277.534155
1277.534142
1277.534098
1277.53397
1277.533474
1277.533473
1277.533479
1277.533463
1277.533497
1277.533493
1277.533507
1277.533507
1277.53348
1277.533453
1277.533449
1277.533417
1277.533303
1277.533053
1277.533459
1277.533446
1277.533439
1277.533452
1277.533452
1277.533453
1277.533439
1277.533462
1277.533472
1277.533452
1277.533425
1277.533398
1277.533236
1277.532835
1277.534038
1277.533997
1277.533988
1277.533996
1277.534
1277.533972
1277.533962
1277.533933
1277.533931
1277.533917
1277.533903
1277.533848
1277.533739
1277.533465
1277.532328
1277.532331
1277.53234
1277.532336
1277.532359
1277.532372
1277.532379
1277.532369
1277.532364
1277.532362
1277.532349
1277.532327
1277.532298
1277.53214
1277.533043
1277.533041
1277.533035
1277.533019
1277.533015
1277.533021
1277.533016
1277.533035
1277.533042
1277.533015
1277.533025
1277.533016
1277.533004
1277.532937
1277.533851
1277.533843
1277.533846
1277.53383
1277.533817
1277.533827
1277.53382
1277.533838
1277.53384
1277.533843
1277.533851
1277.533848
1277.533811
1277.533804
1277.533689
1277.532929
1277.532933
1277.532919
1277.53293
1277.532942
1277.532915
1277.532936
1277.532915
1277.532913
1277.532918
1277.532906
1277.532925
1277.532906
1277.532894
1277.533422
1277.533424
1277.53341
1277.533415
1277.533422
1277.533406
1277.533407
1277.533408
1277.533431
1277.533426
1277.533415
1277.533416
1277.533417
1277.5334
1277.533114
1277.533114
1277.533096
1277.533109
1277.533083
1277.533104
1277.53312
1277.533123
1277.533109
1277.533127
1277.533102
1277.533072
1277.53305
1277.532974
1277.533389
1277.533417
1277.533402
1277.533408
1277.533396
1277.533386
1277.533397
1277.53344
1277.533429
1277.533428
1277.53344
1277.533434
1277.533383
1277.533288
1277.533295
1277.533315
1277.533314
1277.533322
1277.53333
1277.533341
1277.53335
1277.533353
1277.533331
1277.533325
1277.533311
1277.533283
1277.533194
1277.533066
1277.532739
1277.532743
1277.532766
1277.532746
1277.532747
1277.532746
1277.532746
1277.53273
1277.532746
1277.532739
1277.532732
1277.532727
1277.532692
1277.532621
1277.53188
1277.531843
1277.531849
1277.531838
1277.531814
1277.531825
1277.531802
1277.531782
1277.531762
1277.531766
1277.531758
1277.531754
1277.531714
1277.531675
1277.533097
1277.533097
1277.533124
1277.533131
1277.533141
1277.533134
1277.533132
1277.533127
1277.533125
1277.533128
1277.533123
1277.533111
1277.533098
1277.533072
1277.533208
1277.5332
1277.533205
1277.533205
1277.533208
1277.533202
1277.533221
1277.533223
1277.533231
1277.533238
1277.533267
1277.533267
1277.533273
1277.533234
)
;

boundaryField
{
    top
    {
        type            calculated;
        value           nonuniform List<scalar> 
134
(
1277.533042
1277.533956
1277.533527
1277.533485
1277.533261
1277.533642
1277.532677
1277.533851
1277.533208
1277.533045
1277.533977
1277.533523
1277.533481
1277.533242
1277.533656
1277.53268
1277.533843
1277.5332
1277.533058
1277.533961
1277.533519
1277.533498
1277.533228
1277.533653
1277.532678
1277.533846
1277.533205
1277.533064
1277.533933
1277.53353
1277.533495
1277.533228
1277.533646
1277.53268
1277.53383
1277.533205
1277.53307
1277.533935
1277.533523
1277.533478
1277.533246
1277.533618
1277.532668
1277.533817
1277.533208
1277.533065
1277.533949
1277.533502
1277.533501
1277.533225
1277.533613
1277.532662
1277.533827
1277.533202
1277.533044
1277.533958
1277.533532
1277.533481
1277.533202
1277.533611
1277.532661
1277.53382
1277.533221
1277.533077
1277.533951
1277.533563
1277.533473
1277.53321
1277.533614
1277.532667
1277.533838
1277.533223
1277.533078
1277.533941
1277.533566
1277.533472
1277.533183
1277.533592
1277.532668
1277.53384
1277.533231
1277.533066
1277.533943
1277.533556
1277.533486
1277.533159
1277.533607
1277.53269
1277.533843
1277.533238
1277.53307
1277.533945
1277.533551
1277.533491
1277.53317
1277.533603
1277.532671
1277.533851
1277.533267
1277.533045
1277.533928
1277.533538
1277.533469
1277.533155
1277.533601
1277.53264
1277.533848
1277.533267
1277.533072
1277.533891
1277.533511
1277.533427
1277.533097
1277.533555
1277.532605
1277.533811
1277.533273
1277.533027
1277.533864
1277.533478
1277.533344
1277.532969
1277.533457
1277.532534
1277.533804
1277.533234
1277.532999
1277.533776
1277.533399
1277.533159
1277.532693
1277.533267
1277.532422
1277.533689
)
;
    }
    bottom
    {
        type            calculated;
        value           nonuniform List<scalar> 
127
(
1277.533267
1277.53351
1277.53257
1277.532225
1277.533165
1277.533882
1277.532745
1277.532651
1277.532929
1277.533254
1277.533512
1277.532576
1277.532228
1277.533169
1277.533871
1277.53274
1277.532636
1277.532933
1277.533257
1277.533519
1277.532558
1277.532241
1277.533154
1277.533887
1277.53274
1277.532637
1277.532919
1277.533272
1277.53353
1277.532569
1277.532237
1277.533159
1277.533877
1277.532733
1277.532641
1277.53293
1277.533259
1277.533513
1277.532575
1277.532235
1277.533157
1277.533878
1277.532749
1277.532622
1277.532942
1277.533257
1277.5335
1277.532557
1277.532248
1277.533155
1277.533891
1277.532751
1277.532602
1277.532915
1277.533258
1277.533505
1277.532555
1277.53224
1277.533165
1277.533863
1277.532735
1277.53258
1277.532936
1277.533267
1277.533492
1277.532563
1277.532247
1277.533175
1277.53388
1277.532755
1277.532602
1277.532915
1277.533259
1277.533511
1277.532555
1277.532239
1277.533178
1277.533867
1277.532743
1277.532571
1277.532913
1277.533261
1277.533505
1277.532539
1277.532235
1277.533165
1277.53385
1277.532741
1277.532583
1277.532918
1277.533262
1277.533523
1277.532531
1277.532215
1277.533152
1277.53384
1277.532739
1277.532591
1277.532906
1277.53326
1277.533515
1277.532527
1277.532203
1277.533111
1277.53385
1277.532729
1277.532604
1277.532925
1277.533257
1277.533496
1277.532495
1277.532158
1277.533074
1277.533811
1277.532692
1277.532597
1277.532906
1277.533251
1277.533469
1277.532428
1277.53205
1277.532951
1277.533719
1277.532609
1277.532566
1277.532894
1277.533232
)
;
    }
    side-walls
    {
        type            calculated;
        value           nonuniform List<scalar> 
261
(
1277.533267
1277.533589
1277.532499
1277.532543
1277.533199
1277.532822
1277.533349
1277.533161
1277.533042
1277.533254
1277.533579
1277.532507
1277.532553
1277.5332
1277.532833
1277.53334
1277.533145
1277.533045
1277.533257
1277.533586
1277.532505
1277.532574
1277.533211
1277.532833
1277.533319
1277.533145
1277.533058
1277.533272
1277.533608
1277.532493
1277.532547
1277.533201
1277.532833
1277.533312
1277.533166
1277.533064
1277.533259
1277.533626
1277.532482
1277.532546
1277.533196
1277.532819
1277.533324
1277.533163
1277.53307
1277.533257
1277.533643
1277.532501
1277.532518
1277.533188
1277.532831
1277.533333
1277.53316
1277.533065
1277.533258
1277.533635
1277.5325
1277.532528
1277.533169
1277.532817
1277.533317
1277.533163
1277.533044
1277.533267
1277.533653
1277.532518
1277.532539
1277.533163
1277.532823
1277.533325
1277.53316
1277.533077
1277.533259
1277.533644
1277.532509
1277.532543
1277.533167
1277.532815
1277.533307
1277.53316
1277.533078
1277.533261
1277.533639
1277.532512
1277.532541
1277.53313
1277.532827
1277.533319
1277.53314
1277.533066
1277.533262
1277.533619
1277.532522
1277.532509
1277.533126
1277.532835
1277.533326
1277.533119
1277.53307
1277.53326
1277.533622
1277.532492
1277.53248
1277.533121
1277.532798
1277.53334
1277.533111
1277.533045
1277.533257
1277.533612
1277.532464
1277.532465
1277.53307
1277.532735
1277.53334
1277.533075
1277.533072
1277.533251
1277.53357
1277.532413
1277.532386
1277.532933
1277.532647
1277.533287
1277.533032
1277.533027
1277.533232
1277.533507
1277.532284
1277.532197
1277.532664
1277.532437
1277.533174
1277.532979
1277.532999
1277.532929
1277.533422
1277.533114
1277.533389
1277.533295
1277.532739
1277.53188
1277.533097
1277.533208
1277.532933
1277.533424
1277.533114
1277.533417
1277.533315
1277.532743
1277.531843
1277.533097
1277.5332
1277.532919
1277.53341
1277.533096
1277.533402
1277.533314
1277.532766
1277.531849
1277.533124
1277.533205
1277.53293
1277.533415
1277.533109
1277.533408
1277.533322
1277.532746
1277.531838
1277.533131
1277.533205
1277.532942
1277.533422
1277.533083
1277.533396
1277.53333
1277.532747
1277.531814
1277.533141
1277.533208
1277.532915
1277.533406
1277.533104
1277.533386
1277.533341
1277.532746
1277.531825
1277.533134
1277.533202
1277.532936
1277.533407
1277.53312
1277.533397
1277.53335
1277.532746
1277.531802
1277.533132
1277.533221
1277.532915
1277.533408
1277.533123
1277.53344
1277.533353
1277.53273
1277.531782
1277.533127
1277.533223
1277.532913
1277.533431
1277.533109
1277.533429
1277.533331
1277.532746
1277.531762
1277.533125
1277.533231
1277.532918
1277.533426
1277.533127
1277.533428
1277.533325
1277.532739
1277.531766
1277.533128
1277.533238
1277.532906
1277.533415
1277.533102
1277.53344
1277.533311
1277.532732
1277.531758
1277.533123
1277.533267
1277.532925
1277.533416
1277.533072
1277.533434
1277.533283
1277.532727
1277.531754
1277.533111
1277.533267
1277.532906
1277.533417
1277.53305
1277.533383
1277.533194
1277.532692
1277.531714
1277.533098
1277.533273
1277.532894
1277.5334
1277.532974
1277.533288
1277.533066
1277.532621
1277.531675
1277.533072
1277.533234
)
;
    }
    inlet
    {
        type            calculated;
        value           nonuniform List<scalar> 
81
(
1277.533267
1277.533589
1277.532499
1277.532543
1277.533199
1277.532822
1277.533349
1277.533161
1277.533042
1277.53351
1277.533251
1277.532802
1277.533056
1277.534743
1277.534279
1277.533408
1277.533028
1277.533956
1277.53257
1277.532459
1277.534077
1277.532644
1277.533845
1277.532153
1277.531611
1277.533938
1277.533527
1277.532225
1277.53442
1277.534443
1277.534502
1277.533996
1277.532762
1277.53352
1277.532746
1277.533485
1277.533165
1277.534351
1277.533163
1277.533341
1277.533286
1277.533051
1277.532612
1277.532304
1277.533261
1277.533882
1277.533177
1277.533379
1277.533007
1277.534156
1277.534118
1277.532868
1277.532519
1277.533642
1277.532745
1277.533422
1277.532265
1277.532373
1277.534534
1277.533366
1277.533667
1277.533511
1277.532677
1277.532651
1277.532605
1277.53408
1277.533474
1277.533459
1277.534038
1277.532328
1277.533043
1277.533851
1277.532929
1277.533422
1277.533114
1277.533389
1277.533295
1277.532739
1277.53188
1277.533097
1277.533208
)
;
    }
    outlet
    {
        type            calculated;
        value           nonuniform 0();
    }
    procBoundary0to1
    {
        type            processor;
        value           nonuniform List<scalar> 
97
(
1277.533148
1277.533394
1277.533433
1277.532096
1277.531933
1277.532282
1277.532143
1277.53297
1277.532868
1277.532942
1277.533394
1277.533394
1277.532832
1277.532034
1277.531978
1277.531336
1277.532251
1277.532714
1277.53257
1277.532606
1277.533687
1277.532329
1277.532034
1277.532034
1277.531783
1277.531276
1277.527527
1277.524865
1277.526902
1277.529386
1277.533126
1277.533246
1277.531855
1277.533477
1277.531276
1277.531276
1277.519414
1277.502132
1277.49954
1277.517689
1277.528346
1277.530986
1277.532874
1277.532695
1277.532929
1277.527067
1277.502132
1277.502132
1277.008868
1277.502857
1277.498505
1277.523619
1277.523679
1277.529887
1277.532335
1277.533499
1277.532352
1277.530253
1277.522422
1277.502857
1277.523619
1277.523619
1277.527796
1277.532486
1277.530814
1277.532949
1277.532496
1277.532866
1277.531071
1277.529207
1277.528346
1277.530142
1277.532486
1277.532486
1277.532658
1277.532858
1277.532259
1277.532509
1277.532518
1277.533738
1277.5325
1277.531988
1277.532938
1277.531908
1277.532858
1277.532858
1277.533596
1277.533215
1277.532855
1277.533334
1277.532888
1277.533083
1277.532781
1277.53243
1277.531578
1277.533009
1277.533215
)
;
    }
}


// ************************************************************************* //
