/*--------------------------------*- C++ -*----------------------------------*\
| =========                 |                                                 |
| \\      /  F ield         | OpenFOAM: The Open Source CFD Toolbox           |
|  \\    /   O peration     | Version:  4.x                                   |
|   \\  /    A nd           | Web:      www.OpenFOAM.org                      |
|    \\/     M anipulation  |                                                 |
\*---------------------------------------------------------------------------*/
FoamFile
{
    version     2.0;
    format      ascii;
    class       volScalarField;
    location    "11000";
    object      H2;
}
// * * * * * * * * * * * * * * * * * * * * * * * * * * * * * * * * * * * * * //

dimensions      [0 0 0 0 0 0 0];

internalField   nonuniform List<scalar> 
1175
(
0.004463823167
0.004463823167
0.004463823167
0.004463823166
0.004463823166
0.004463823164
0.004463823156
0.004463823132
0.004463823058
0.004463822839
0.004463822226
0.004463820625
0.004463816778
0.004463808406
0.004463792158
0.004463823167
0.004463823167
0.004463823167
0.004463823166
0.004463823166
0.004463823163
0.004463823153
0.00446382312
0.004463823014
0.004463822688
0.004463821738
0.00446381916
0.004463812755
0.004463798515
0.004463770885
0.004463823167
0.004463823167
0.004463823167
0.004463823166
0.004463823165
0.004463823161
0.004463823147
0.004463823098
0.004463822932
0.004463822401
0.004463820778
0.004463816166
0.004463804223
0.004463776906
0.004463723788
0.004463823167
0.004463823167
0.004463823167
0.004463823166
0.004463823165
0.00446382316
0.004463823141
0.004463823074
0.004463822842
0.004463822066
0.004463819599
0.004463812276
0.004463792487
0.004463745687
0.004463654065
0.004463823167
0.004463823167
0.004463823167
0.004463823166
0.004463823165
0.004463823159
0.004463823138
0.004463823063
0.004463822798
0.004463821893
0.004463818949
0.004463809958
0.004463784883
0.004463723752
0.004463602627
0.004463823167
0.004463823167
0.004463823167
0.004463823166
0.004463823165
0.00446382316
0.004463823141
0.004463823074
0.004463822842
0.004463822066
0.004463819599
0.004463812276
0.004463792487
0.004463745687
0.004463654065
0.004463823167
0.004463823167
0.004463823167
0.004463823166
0.004463823165
0.004463823161
0.004463823147
0.004463823098
0.004463822932
0.004463822401
0.004463820778
0.004463816166
0.004463804223
0.004463776907
0.00446372379
0.004463823167
0.004463823167
0.004463823167
0.004463823166
0.004463823166
0.004463823163
0.004463823153
0.00446382312
0.004463823014
0.004463822688
0.004463821738
0.00446381916
0.004463812755
0.004463798516
0.004463770886
0.004463823167
0.004463823167
0.004463823167
0.004463823166
0.004463823166
0.004463823164
0.004463823156
0.004463823132
0.004463823058
0.004463822839
0.004463822226
0.004463820625
0.004463816778
0.004463808407
0.004463792159
0.004463823167
0.004463823167
0.004463823167
0.004463823166
0.004463823166
0.004463823163
0.004463823153
0.00446382312
0.004463823014
0.004463822688
0.004463821738
0.00446381916
0.004463812754
0.004463798515
0.004463823167
0.004463823167
0.004463823167
0.004463823166
0.004463823165
0.004463823161
0.004463823148
0.0044638231
0.004463822939
0.004463822417
0.004463820814
0.004463816215
0.004463804208
0.004463776578
0.004463722809
0.004463823167
0.004463823167
0.004463823167
0.004463823166
0.004463823165
0.004463823159
0.004463823139
0.004463823063
0.004463822795
0.004463821872
0.004463818851
0.004463809614
0.004463783968
0.004463722078
0.004463600444
0.004463823167
0.004463823167
0.004463823167
0.004463823166
0.004463823164
0.004463823157
0.004463823129
0.004463823022
0.004463822622
0.004463821178
0.004463816166
0.004463799821
0.004463751265
0.004463626708
0.004463376001
0.004463823167
0.004463823167
0.004463823166
0.004463823166
0.004463823164
0.004463823156
0.004463823124
0.004463823001
0.004463822531
0.004463820779
0.004463814467
0.004463792866
0.004463724791
0.004463538276
0.00446314592
0.004463823167
0.004463823167
0.004463823166
0.004463823166
0.004463823164
0.004463823157
0.004463823129
0.004463823022
0.004463822622
0.004463821178
0.004463816166
0.004463799821
0.004463751266
0.004463626709
0.004463376005
0.004463823167
0.004463823167
0.004463823167
0.004463823166
0.004463823165
0.004463823159
0.004463823139
0.004463823063
0.004463822795
0.004463821872
0.004463818851
0.004463809614
0.004463783969
0.00446372208
0.00446360045
0.004463823167
0.004463823167
0.004463823167
0.004463823166
0.004463823165
0.004463823161
0.004463823148
0.0044638231
0.004463822939
0.004463822417
0.004463820814
0.004463816216
0.004463804209
0.00446377658
0.004463722813
0.004463823167
0.004463823167
0.004463823167
0.004463823166
0.004463823166
0.004463823163
0.004463823153
0.00446382312
0.004463823014
0.004463822688
0.004463821738
0.00446381916
0.004463812755
0.004463798516
0.004463770886
0.004463823167
0.004463823167
0.004463823167
0.004463823166
0.004463823165
0.004463823161
0.004463823147
0.004463823098
0.004463822932
0.004463822401
0.004463820778
0.004463816166
0.004463804222
0.004463776905
0.004463823167
0.004463823167
0.004463823167
0.004463823166
0.004463823165
0.004463823159
0.004463823139
0.004463823063
0.004463822795
0.004463821872
0.004463818851
0.004463809614
0.004463783967
0.004463722075
0.004463823167
0.004463823167
0.004463823166
0.004463823166
0.004463823164
0.004463823156
0.004463823123
0.004463822996
0.004463822513
0.004463820728
0.004463814399
0.004463793321
0.004463729534
0.0044635636
0.00446322821
0.004463823167
0.004463823167
0.004463823166
0.004463823166
0.004463823163
0.004463823152
0.004463823105
0.004463822915
0.004463822151
0.004463819127
0.004463807537
0.004463765311
0.004463624018
0.004463216749
0.004462339059
0.004463823167
0.004463823167
0.004463823166
0.004463823166
0.004463823163
0.00446382315
0.004463823096
0.004463822872
0.00446382194
0.004463818088
0.00446380245
0.00446374097
0.004463513591
0.004462770234
0.004460954955
0.004463823167
0.004463823167
0.004463823166
0.004463823166
0.004463823163
0.004463823152
0.004463823105
0.004463822915
0.004463822151
0.004463819127
0.004463807537
0.004463765312
0.004463624022
0.00446321676
0.004462339087
0.004463823167
0.004463823167
0.004463823166
0.004463823166
0.004463823164
0.004463823156
0.004463823123
0.004463822996
0.004463822513
0.004463820728
0.004463814399
0.004463793322
0.004463729537
0.00446356361
0.004463228236
0.004463823167
0.004463823167
0.004463823167
0.004463823166
0.004463823165
0.004463823159
0.004463823139
0.004463823063
0.004463822795
0.004463821872
0.004463818851
0.004463809614
0.004463783969
0.00446372208
0.00446360045
0.004463823167
0.004463823167
0.004463823167
0.004463823166
0.004463823165
0.004463823161
0.004463823147
0.004463823098
0.004463822932
0.004463822401
0.004463820778
0.004463816166
0.004463804223
0.004463776907
0.00446372379
0.004463823167
0.004463823167
0.004463823167
0.004463823166
0.004463823165
0.00446382316
0.004463823141
0.004463823074
0.004463822842
0.004463822066
0.004463819599
0.004463812275
0.004463792486
0.004463745684
0.004463823167
0.004463823167
0.004463823166
0.004463823166
0.004463823164
0.004463823157
0.004463823129
0.004463823022
0.004463822622
0.004463821178
0.004463816166
0.004463799821
0.004463751263
0.004463626701
0.004463823167
0.004463823167
0.004463823166
0.004463823166
0.004463823163
0.004463823152
0.004463823105
0.004463822915
0.004463822151
0.004463819127
0.004463807536
0.00446376531
0.004463624014
0.004463216731
0.004463823167
0.004463823167
0.004463823166
0.004463823166
0.004463823162
0.004463823146
0.004463823077
0.004463822781
0.004463821497
0.004463815968
0.004463792491
0.004463695771
0.00446332116
0.004462044554
0.004458839896
0.004463823167
0.004463823167
0.004463823166
0.004463823165
0.004463823161
0.004463823143
0.004463823063
0.004463822703
0.004463821076
0.004463813628
0.004463779201
0.004463619708
0.00446289251
0.004459783109
0.00444919047
0.004463823167
0.004463823167
0.004463823166
0.004463823166
0.004463823162
0.004463823146
0.004463823077
0.004463822781
0.004463821497
0.004463815969
0.004463792492
0.004463695774
0.004463321171
0.004462044596
0.00445884004
0.004463823167
0.004463823167
0.004463823166
0.004463823166
0.004463823163
0.004463823152
0.004463823105
0.004463822915
0.004463822151
0.004463819127
0.004463807537
0.004463765312
0.004463624021
0.004463216758
0.004462339084
0.004463823167
0.004463823167
0.004463823167
0.004463823166
0.004463823164
0.004463823157
0.004463823129
0.004463823022
0.004463822622
0.004463821178
0.004463816167
0.004463799822
0.004463751266
0.00446362671
0.004463376008
0.004463823167
0.004463823167
0.004463823167
0.004463823166
0.004463823165
0.00446382316
0.004463823141
0.004463823074
0.004463822842
0.004463822066
0.004463819599
0.004463812276
0.004463792487
0.004463745687
0.004463654066
0.004463823167
0.004463823167
0.004463823167
0.004463823166
0.004463823165
0.004463823159
0.004463823138
0.004463823063
0.004463822798
0.004463821893
0.004463818949
0.004463809957
0.004463784882
0.004463723749
0.004463823167
0.004463823167
0.004463823166
0.004463823166
0.004463823164
0.004463823156
0.004463823124
0.004463823001
0.004463822531
0.004463820779
0.004463814467
0.004463792865
0.004463724788
0.004463538267
0.004463823167
0.004463823167
0.004463823166
0.004463823166
0.004463823163
0.00446382315
0.004463823096
0.004463822872
0.00446382194
0.004463818088
0.00446380245
0.004463740968
0.004463513584
0.004462770204
0.004463823167
0.004463823167
0.004463823166
0.004463823165
0.004463823161
0.004463823143
0.004463823063
0.004463822703
0.004463821076
0.004463813628
0.004463779201
0.004463619706
0.004462892495
0.004459782994
0.004463823167
0.004463823167
0.004463823166
0.004463823165
0.004463823161
0.00446382314
0.004463823044
0.004463822601
0.004463820476
0.004463809914
0.004463754894
0.004463451068
0.004461654015
0.004450189774
0.004370950351
0.004463823167
0.004463823167
0.004463823166
0.004463823165
0.004463823161
0.004463823143
0.004463823063
0.004463822703
0.004463821076
0.004463813628
0.004463779201
0.004463619709
0.004462892513
0.004459783114
0.004449190486
0.004463823167
0.004463823167
0.004463823166
0.004463823166
0.004463823163
0.00446382315
0.004463823096
0.004463822872
0.00446382194
0.004463818088
0.00446380245
0.00446374097
0.004463513593
0.004462770238
0.004460954968
0.004463823167
0.004463823167
0.004463823166
0.004463823166
0.004463823164
0.004463823156
0.004463823124
0.004463823001
0.004463822531
0.004463820779
0.004463814467
0.004463792866
0.004463724792
0.004463538279
0.004463145927
0.004463823167
0.004463823167
0.004463823167
0.004463823166
0.004463823165
0.004463823159
0.004463823138
0.004463823063
0.004463822798
0.004463821893
0.004463818949
0.004463809958
0.004463784884
0.004463723753
0.004463602629
0.004463823167
0.004463823167
0.004463823167
0.004463823166
0.004463823165
0.00446382316
0.004463823141
0.004463823074
0.004463822842
0.004463822066
0.004463819599
0.004463812275
0.004463792486
0.004463745684
0.004463823167
0.004463823167
0.004463823166
0.004463823166
0.004463823164
0.004463823157
0.004463823129
0.004463823022
0.004463822622
0.004463821178
0.004463816166
0.004463799821
0.004463751264
0.004463626703
0.004463823167
0.004463823167
0.004463823166
0.004463823166
0.004463823163
0.004463823152
0.004463823105
0.004463822915
0.004463822151
0.004463819127
0.004463807536
0.004463765311
0.004463624015
0.004463216738
0.004463823167
0.004463823167
0.004463823166
0.004463823166
0.004463823162
0.004463823146
0.004463823077
0.004463822781
0.004463821497
0.004463815968
0.004463792491
0.004463695771
0.004463321157
0.004462044537
0.004463823167
0.004463823167
0.004463823166
0.004463823165
0.004463823161
0.004463823143
0.004463823063
0.004463822703
0.004463821076
0.004463813628
0.0044637792
0.004463619704
0.00446289249
0.00445978298
0.004463823167
0.004463823167
0.004463823166
0.004463823166
0.004463823162
0.004463823146
0.004463823077
0.004463822781
0.004463821497
0.004463815968
0.004463792491
0.004463695771
0.004463321157
0.004462044536
0.004463823167
0.004463823167
0.004463823166
0.004463823166
0.004463823163
0.004463823152
0.004463823105
0.004463822915
0.004463822151
0.004463819127
0.004463807537
0.004463765311
0.004463624017
0.004463216745
0.004462339046
0.004463823167
0.004463823167
0.004463823167
0.004463823166
0.004463823164
0.004463823157
0.004463823129
0.004463823022
0.004463822622
0.004463821178
0.004463816166
0.004463799821
0.004463751265
0.004463626708
0.004463376001
0.004463823167
0.004463823167
0.004463823167
0.004463823166
0.004463823165
0.00446382316
0.004463823141
0.004463823074
0.004463822842
0.004463822066
0.004463819599
0.004463812275
0.004463792487
0.004463745686
0.004463654065
0.004463823167
0.004463823167
0.004463823167
0.004463823166
0.004463823165
0.004463823161
0.004463823147
0.004463823098
0.004463822932
0.004463822401
0.004463820778
0.004463816166
0.004463804222
0.004463776905
0.004463823167
0.004463823167
0.004463823167
0.004463823166
0.004463823165
0.004463823159
0.004463823139
0.004463823063
0.004463822795
0.004463821872
0.004463818851
0.004463809614
0.004463783967
0.004463722076
0.004463823167
0.004463823167
0.004463823166
0.004463823166
0.004463823164
0.004463823156
0.004463823123
0.004463822996
0.004463822513
0.004463820728
0.004463814399
0.004463793321
0.004463729534
0.0044635636
0.004463823167
0.004463823167
0.004463823166
0.004463823166
0.004463823163
0.004463823152
0.004463823105
0.004463822915
0.004463822151
0.004463819127
0.004463807536
0.004463765311
0.004463624015
0.004463216738
0.004463823167
0.004463823167
0.004463823166
0.004463823166
0.004463823163
0.00446382315
0.004463823096
0.004463822872
0.00446382194
0.004463818088
0.004463802449
0.004463740967
0.004463513581
0.004462770197
0.004463823167
0.004463823167
0.004463823166
0.004463823166
0.004463823163
0.004463823152
0.004463823105
0.004463822915
0.004463822151
0.004463819127
0.004463807536
0.00446376531
0.004463624014
0.004463216736
0.004463823167
0.004463823167
0.004463823166
0.004463823166
0.004463823164
0.004463823156
0.004463823123
0.004463822996
0.004463822513
0.004463820728
0.004463814399
0.00446379332
0.004463729533
0.004463563598
0.004463823167
0.004463823167
0.004463823167
0.004463823166
0.004463823165
0.004463823159
0.004463823139
0.004463823063
0.004463822795
0.004463821872
0.004463818851
0.004463809614
0.004463783967
0.004463722077
0.004463600442
0.004463823167
0.004463823167
0.004463823167
0.004463823166
0.004463823165
0.004463823161
0.004463823147
0.004463823098
0.004463822932
0.004463822401
0.004463820778
0.004463816166
0.004463804222
0.004463776906
0.004463723788
0.004463823167
0.004463823167
0.004463823167
0.004463823166
0.004463823166
0.004463823163
0.004463823153
0.00446382312
0.004463823014
0.004463822688
0.004463821738
0.00446381916
0.004463812755
0.004463798515
0.004463823167
0.004463823167
0.004463823167
0.004463823166
0.004463823165
0.004463823161
0.004463823148
0.0044638231
0.004463822939
0.004463822417
0.004463820814
0.004463816215
0.004463804208
0.004463776578
0.004463823167
0.004463823167
0.004463823167
0.004463823166
0.004463823165
0.004463823159
0.004463823139
0.004463823063
0.004463822795
0.004463821872
0.004463818851
0.004463809614
0.004463783967
0.004463722076
0.004463823167
0.004463823167
0.004463823167
0.004463823166
0.004463823164
0.004463823157
0.004463823129
0.004463823022
0.004463822622
0.004463821178
0.004463816166
0.004463799821
0.004463751264
0.004463626703
0.004463823167
0.004463823167
0.004463823166
0.004463823166
0.004463823164
0.004463823156
0.004463823124
0.004463823001
0.004463822531
0.004463820779
0.004463814467
0.004463792865
0.004463724788
0.004463538267
0.004463823167
0.004463823167
0.004463823166
0.004463823166
0.004463823164
0.004463823157
0.004463823129
0.004463823022
0.004463822622
0.004463821178
0.004463816166
0.004463799821
0.004463751263
0.004463626702
0.004463823167
0.004463823167
0.004463823167
0.004463823166
0.004463823165
0.004463823159
0.004463823139
0.004463823063
0.004463822795
0.004463821872
0.004463818851
0.004463809614
0.004463783967
0.004463722076
0.004463823167
0.004463823167
0.004463823167
0.004463823166
0.004463823165
0.004463823161
0.004463823148
0.0044638231
0.004463822939
0.004463822417
0.004463820814
0.004463816215
0.004463804208
0.004463776578
0.004463823167
0.004463823167
0.004463823167
0.004463823166
0.004463823166
0.004463823163
0.004463823153
0.00446382312
0.004463823014
0.004463822688
0.004463821738
0.00446381916
0.004463812755
0.004463798515
0.004463770884
0.004463823167
0.004463823167
0.004463823167
0.004463823166
0.004463823166
0.004463823164
0.004463823156
0.004463823132
0.004463823058
0.004463822839
0.004463822226
0.004463820625
0.004463816778
0.004463808406
0.004463823167
0.004463823167
0.004463823167
0.004463823166
0.004463823166
0.004463823163
0.004463823153
0.00446382312
0.004463823014
0.004463822688
0.004463821738
0.00446381916
0.004463812754
0.004463798515
0.004463823167
0.004463823167
0.004463823167
0.004463823166
0.004463823165
0.004463823161
0.004463823147
0.004463823098
0.004463822932
0.004463822401
0.004463820778
0.004463816166
0.004463804222
0.004463776905
0.004463823167
0.004463823167
0.004463823167
0.004463823166
0.004463823165
0.00446382316
0.004463823141
0.004463823074
0.004463822842
0.004463822066
0.004463819599
0.004463812275
0.004463792486
0.004463745684
0.004463823167
0.004463823167
0.004463823167
0.004463823166
0.004463823165
0.004463823159
0.004463823138
0.004463823063
0.004463822798
0.004463821893
0.004463818949
0.004463809957
0.004463784882
0.004463723749
0.004463823167
0.004463823167
0.004463823167
0.004463823166
0.004463823165
0.00446382316
0.004463823141
0.004463823074
0.004463822842
0.004463822066
0.004463819599
0.004463812275
0.004463792486
0.004463745684
0.004463823167
0.004463823167
0.004463823167
0.004463823166
0.004463823165
0.004463823161
0.004463823147
0.004463823098
0.004463822932
0.004463822401
0.004463820778
0.004463816166
0.004463804222
0.004463776905
0.004463823167
0.004463823167
0.004463823167
0.004463823166
0.004463823166
0.004463823163
0.004463823153
0.00446382312
0.004463823014
0.004463822688
0.004463821738
0.00446381916
0.004463812754
0.004463798515
0.004463823167
0.004463823167
0.004463823167
0.004463823166
0.004463823166
0.004463823164
0.004463823156
0.004463823132
0.004463823058
0.004463822839
0.004463822226
0.004463820625
0.004463816778
0.004463808406
)
;

boundaryField
{
    top
    {
        type            zeroGradient;
    }
    bottom
    {
        type            zeroGradient;
    }
    side-walls
    {
        type            zeroGradient;
    }
    inlet
    {
        type            zeroGradient;
    }
    outlet
    {
        type            zeroGradient;
    }
    procBoundary0to1
    {
        type            processor;
        value           nonuniform List<scalar> 
97
(
0.004463764226
0.004463770884
0.00446372473
0.004463638441
0.004463513777
0.004463426202
0.004463513778
0.004463638442
0.004463724732
0.004463764228
0.004463770884
0.004463770884
0.004463637132
0.00446360044
0.004463419503
0.00446303868
0.004462685625
0.004463038685
0.00446341951
0.004463637137
0.004463724732
0.004463723787
0.00446360044
0.00446360044
0.004462786681
0.004462339027
0.004461401617
0.004459618842
0.004461401648
0.00446278671
0.004463419511
0.004463638443
0.004463654062
0.004463375992
0.004462339027
0.004462339027
0.004456720254
0.004449190331
0.004447687166
0.00445672035
0.004461401647
0.00446303869
0.00446351378
0.004463602624
0.004463145913
0.004460954929
0.004449190331
0.004449190331
0.004409287587
0.004449190322
0.00444768719
0.00445883996
0.004459618863
0.004462685637
0.004463426206
0.004463654063
0.004463375999
0.004462339063
0.004458839983
0.004449190322
0.00445883996
0.00445883996
0.004461401623
0.004463228215
0.004463038684
0.004463513778
0.004463723788
0.004463600447
0.004463228227
0.004462339065
0.00446095492
0.00446233906
0.004463228215
0.004463228215
0.004463419504
0.004463722809
0.004463638441
0.004463770886
0.004463722811
0.004463600446
0.004463376
0.004463145913
0.004463375999
0.004463600445
0.004463722809
0.004463722809
0.00446372473
0.004463792158
0.004463792159
0.004463770886
0.004463723788
0.004463654063
0.004463602625
0.004463654064
0.004463723789
0.004463770885
0.004463792158
)
;
    }
}


// ************************************************************************* //
