/*--------------------------------*- C++ -*----------------------------------*\
| =========                 |                                                 |
| \\      /  F ield         | OpenFOAM: The Open Source CFD Toolbox           |
|  \\    /   O peration     | Version:  4.x                                   |
|   \\  /    A nd           | Web:      www.OpenFOAM.org                      |
|    \\/     M anipulation  |                                                 |
\*---------------------------------------------------------------------------*/
FoamFile
{
    version     2.0;
    format      ascii;
    class       volScalarField;
    location    "11000";
    object      H2O;
}
// * * * * * * * * * * * * * * * * * * * * * * * * * * * * * * * * * * * * * //

dimensions      [0 0 0 0 0 0 0];

internalField   nonuniform List<scalar> 
1175
(
1.000044357e-05
1.000044314e-05
1.000044374e-05
1.000044504e-05
1.000045165e-05
1.00004692e-05
1.000053241e-05
1.000073264e-05
1.000135144e-05
1.000318283e-05
1.000830355e-05
1.002167215e-05
1.005380312e-05
1.012373459e-05
1.025948432e-05
1.000044343e-05
1.000044432e-05
1.00004439e-05
1.000044568e-05
1.000045124e-05
1.000047634e-05
1.000055954e-05
1.000083371e-05
1.000172006e-05
1.000444401e-05
1.001237469e-05
1.003390259e-05
1.008740241e-05
1.020633577e-05
1.043714815e-05
1.000044364e-05
1.000044403e-05
1.000044473e-05
1.000044653e-05
1.000045602e-05
1.000048937e-05
1.000060862e-05
1.000101851e-05
1.000239895e-05
1.000683926e-05
1.002038793e-05
1.005890254e-05
1.015864831e-05
1.038678659e-05
1.083046304e-05
1.000044226e-05
1.000044327e-05
1.000044325e-05
1.000044625e-05
1.000045906e-05
1.000050221e-05
1.000065804e-05
1.000121667e-05
1.000315448e-05
1.000963423e-05
1.003023202e-05
1.009138929e-05
1.025663767e-05
1.064746811e-05
1.141269493e-05
1.000044351e-05
1.000044382e-05
1.00004446e-05
1.000044791e-05
1.000046081e-05
1.000050673e-05
1.000068038e-05
1.000130866e-05
1.000352408e-05
1.00110789e-05
1.003566513e-05
1.011074059e-05
1.032011872e-05
1.083060214e-05
1.184218536e-05
1.000044353e-05
1.00004436e-05
1.000044474e-05
1.000044656e-05
1.0000459e-05
1.000050141e-05
1.000065869e-05
1.000121608e-05
1.000315544e-05
1.000963528e-05
1.003023201e-05
1.009138841e-05
1.025663543e-05
1.064746228e-05
1.14126771e-05
1.000044267e-05
1.000044289e-05
1.000044462e-05
1.000044726e-05
1.000045677e-05
1.000048988e-05
1.000060838e-05
1.000101927e-05
1.000239951e-05
1.000684187e-05
1.002038889e-05
1.005890235e-05
1.015864402e-05
1.038677266e-05
1.08304301e-05
1.000044396e-05
1.000044441e-05
1.000044506e-05
1.00004464e-05
1.000045318e-05
1.00004766e-05
1.000055898e-05
1.000083484e-05
1.000172036e-05
1.000444404e-05
1.001237547e-05
1.003390174e-05
1.008739756e-05
1.020632169e-05
1.04371155e-05
1.000044413e-05
1.000044378e-05
1.000044429e-05
1.000044521e-05
1.000045005e-05
1.000046975e-05
1.000053181e-05
1.000073172e-05
1.000135175e-05
1.000318297e-05
1.000830347e-05
1.002167166e-05
1.005379905e-05
1.012372306e-05
1.025945436e-05
1.000044423e-05
1.00004441e-05
1.000044425e-05
1.000044642e-05
1.000045318e-05
1.000047672e-05
1.000056078e-05
1.000083556e-05
1.000172079e-05
1.000444387e-05
1.001237391e-05
1.003390415e-05
1.008740822e-05
1.020635809e-05
1.000044333e-05
1.000044421e-05
1.000044448e-05
1.000044614e-05
1.00004545e-05
1.000048695e-05
1.000060114e-05
1.00009998e-05
1.000234356e-05
1.000669996e-05
1.002009322e-05
1.005849564e-05
1.015877466e-05
1.038954666e-05
1.083870287e-05
1.00004441e-05
1.000044371e-05
1.000044441e-05
1.00004478e-05
1.000045966e-05
1.000050658e-05
1.000067837e-05
1.000130819e-05
1.000355028e-05
1.001125537e-05
1.003648008e-05
1.011361759e-05
1.032778016e-05
1.084463461e-05
1.186052737e-05
1.00004439e-05
1.00004438e-05
1.000044366e-05
1.000044789e-05
1.000046401e-05
1.000052534e-05
1.000075925e-05
1.000165448e-05
1.000498867e-05
1.001704829e-05
1.005889598e-05
1.019537762e-05
1.060082006e-05
1.164091467e-05
1.373460821e-05
1.000044315e-05
1.000044297e-05
1.000044498e-05
1.000044863e-05
1.000046585e-05
1.000053416e-05
1.000079938e-05
1.000182745e-05
1.000575179e-05
1.002037653e-05
1.007308294e-05
1.025344462e-05
1.082184061e-05
1.237918781e-05
1.565551974e-05
1.00004442e-05
1.00004437e-05
1.000044579e-05
1.000044859e-05
1.000046455e-05
1.000052508e-05
1.000076052e-05
1.000165545e-05
1.000498808e-05
1.001704881e-05
1.005889508e-05
1.019537445e-05
1.060081095e-05
1.164087941e-05
1.373450742e-05
1.000044312e-05
1.000044326e-05
1.000044497e-05
1.000044794e-05
1.000045981e-05
1.00005059e-05
1.000067953e-05
1.000130947e-05
1.0003551e-05
1.001125606e-05
1.003647943e-05
1.011361328e-05
1.032776487e-05
1.084458209e-05
1.186039546e-05
1.000044302e-05
1.000044388e-05
1.000044443e-05
1.000044528e-05
1.000045623e-05
1.000048845e-05
1.000060232e-05
1.000099961e-05
1.000234536e-05
1.000670064e-05
1.00200927e-05
1.005849205e-05
1.01587611e-05
1.038950271e-05
1.083858736e-05
1.000044483e-05
1.000044345e-05
1.000044443e-05
1.000044648e-05
1.000045332e-05
1.000047753e-05
1.000055992e-05
1.000083513e-05
1.000172049e-05
1.000444465e-05
1.001237455e-05
1.00339021e-05
1.00873993e-05
1.020632368e-05
1.04371184e-05
1.000044468e-05
1.000044508e-05
1.00004456e-05
1.000044808e-05
1.000045701e-05
1.000048933e-05
1.000060745e-05
1.000101967e-05
1.000240013e-05
1.000684145e-05
1.002039014e-05
1.005890744e-05
1.015866575e-05
1.038684269e-05
1.000044462e-05
1.000044355e-05
1.000044447e-05
1.000044785e-05
1.000046008e-05
1.000050613e-05
1.000067694e-05
1.000130695e-05
1.000355016e-05
1.001125751e-05
1.003648231e-05
1.011362264e-05
1.032780362e-05
1.084472855e-05
1.000044454e-05
1.000044423e-05
1.000044567e-05
1.000045e-05
1.000046656e-05
1.000053644e-05
1.000081067e-05
1.000186859e-05
1.000589906e-05
1.002080533e-05
1.007365824e-05
1.024966211e-05
1.07823021e-05
1.216797173e-05
1.496907007e-05
1.000044358e-05
1.000044532e-05
1.00004465e-05
1.000045205e-05
1.000047399e-05
1.000056848e-05
1.000095794e-05
1.000254197e-05
1.000892488e-05
1.003417125e-05
1.013094893e-05
1.0483507e-05
1.16632342e-05
1.506380399e-05
2.239282671e-05
1.000044501e-05
1.000044506e-05
1.000044614e-05
1.000045148e-05
1.000047817e-05
1.000058412e-05
1.000103072e-05
1.000290121e-05
1.001068793e-05
1.004284927e-05
1.017341357e-05
1.068671607e-05
1.258507643e-05
1.879128143e-05
3.394749974e-05
1.000044335e-05
1.00004441e-05
1.000044492e-05
1.000045034e-05
1.000047387e-05
1.000056875e-05
1.000095819e-05
1.000254187e-05
1.000892573e-05
1.00341707e-05
1.013094659e-05
1.048349487e-05
1.166318012e-05
1.506358986e-05
2.23921922e-05
1.00004442e-05
1.000044371e-05
1.000044472e-05
1.000044849e-05
1.000046679e-05
1.000053801e-05
1.000081015e-05
1.0001869e-05
1.000589934e-05
1.002080448e-05
1.007365468e-05
1.024964858e-05
1.0782243e-05
1.216774665e-05
1.496839576e-05
1.000044393e-05
1.000044427e-05
1.000044444e-05
1.000044778e-05
1.000046018e-05
1.000050541e-05
1.000067805e-05
1.00013077e-05
1.000355103e-05
1.001125718e-05
1.003647988e-05
1.011361451e-05
1.032776705e-05
1.084458647e-05
1.186039623e-05
1.000044411e-05
1.000044506e-05
1.000044572e-05
1.000044773e-05
1.00004564e-05
1.000049091e-05
1.000060896e-05
1.000102004e-05
1.000239957e-05
1.000684064e-05
1.002038811e-05
1.005890326e-05
1.015864652e-05
1.038677775e-05
1.083043532e-05
1.000044525e-05
1.000044566e-05
1.000044593e-05
1.000044879e-05
1.000046083e-05
1.000050207e-05
1.000065901e-05
1.000121681e-05
1.000315557e-05
1.000963607e-05
1.003023698e-05
1.009140187e-05
1.02566743e-05
1.064758033e-05
1.000044408e-05
1.000044456e-05
1.00004456e-05
1.0000449e-05
1.00004653e-05
1.000052607e-05
1.000076053e-05
1.000165506e-05
1.000498803e-05
1.00170497e-05
1.005890108e-05
1.019539699e-05
1.060089466e-05
1.164117937e-05
1.00004438e-05
1.000044355e-05
1.000044645e-05
1.000045117e-05
1.000047479e-05
1.000056883e-05
1.000095827e-05
1.000254148e-05
1.000892547e-05
1.003417335e-05
1.013095527e-05
1.048353716e-05
1.166336625e-05
1.506441794e-05
1.000044349e-05
1.00004448e-05
1.00004457e-05
1.000045203e-05
1.000048338e-05
1.000061692e-05
1.000118952e-05
1.000366798e-05
1.001438772e-05
1.006054634e-05
1.025656477e-05
1.106409628e-05
1.419177354e-05
2.485050443e-05
5.160888231e-05
1.000044486e-05
1.000044528e-05
1.000044679e-05
1.000045455e-05
1.000048939e-05
1.000064127e-05
1.000131238e-05
1.000431481e-05
1.001789788e-05
1.008008674e-05
1.036751027e-05
1.169905802e-05
1.776998919e-05
4.372798634e-05
0.0001321579466
1.000044493e-05
1.000044479e-05
1.000044588e-05
1.000045257e-05
1.000048433e-05
1.00006178e-05
1.000119027e-05
1.000366818e-05
1.00143876e-05
1.006054386e-05
1.025655664e-05
1.106405983e-05
1.419157518e-05
2.484949545e-05
5.160471318e-05
1.000044452e-05
1.000044352e-05
1.0000445e-05
1.000045176e-05
1.000047498e-05
1.000056955e-05
1.000095787e-05
1.000254169e-05
1.000892544e-05
1.003417203e-05
1.013094842e-05
1.048350456e-05
1.16632093e-05
1.506364853e-05
2.239223743e-05
1.000044424e-05
1.000044433e-05
1.000044426e-05
1.000044887e-05
1.000046497e-05
1.000052594e-05
1.000076055e-05
1.000165648e-05
1.00049888e-05
1.001704939e-05
1.005889632e-05
1.019537739e-05
1.060081841e-05
1.164089086e-05
1.373449858e-05
1.000044383e-05
1.000044471e-05
1.000044568e-05
1.000044766e-05
1.000045991e-05
1.000050265e-05
1.000065829e-05
1.000121752e-05
1.000315658e-05
1.000963631e-05
1.003023348e-05
1.009139222e-05
1.025664077e-05
1.064747042e-05
1.141267805e-05
1.000044451e-05
1.000044532e-05
1.00004453e-05
1.000044933e-05
1.000046187e-05
1.000050871e-05
1.000068112e-05
1.00013095e-05
1.00035258e-05
1.001108148e-05
1.003567098e-05
1.011075765e-05
1.03201721e-05
1.083075786e-05
1.000044435e-05
1.000044462e-05
1.000044513e-05
1.000044989e-05
1.000046776e-05
1.000053517e-05
1.000080019e-05
1.00018284e-05
1.000575068e-05
1.002037869e-05
1.00730921e-05
1.02534767e-05
1.082196135e-05
1.237961614e-05
1.000044413e-05
1.000044465e-05
1.000044617e-05
1.000045167e-05
1.000047676e-05
1.000058517e-05
1.000103106e-05
1.000290116e-05
1.001068944e-05
1.004285246e-05
1.017342875e-05
1.068678288e-05
1.258539958e-05
1.879276497e-05
1.000044475e-05
1.000044416e-05
1.000044629e-05
1.000045635e-05
1.000048983e-05
1.000064082e-05
1.000131231e-05
1.000431385e-05
1.001789887e-05
1.008008908e-05
1.036752714e-05
1.169916117e-05
1.777065434e-05
4.373256524e-05
1.000044484e-05
1.000044513e-05
1.000044704e-05
1.000045549e-05
1.000049453e-05
1.000066907e-05
1.00014641e-05
1.000516853e-05
1.002291178e-05
1.011109097e-05
1.057043845e-05
1.310688737e-05
2.810878496e-05
0.0001238097793
0.0007852668543
1.000044544e-05
1.000044555e-05
1.000044619e-05
1.000045518e-05
1.00004895e-05
1.000064053e-05
1.000131233e-05
1.000431336e-05
1.001789817e-05
1.008008847e-05
1.036751868e-05
1.169909739e-05
1.777016841e-05
4.372866667e-05
0.000132158436
1.000044452e-05
1.000044456e-05
1.00004462e-05
1.000045274e-05
1.000047918e-05
1.000058509e-05
1.000103192e-05
1.000290185e-05
1.001068929e-05
1.004284926e-05
1.017342036e-05
1.068673967e-05
1.258515536e-05
1.879147355e-05
3.39475497e-05
1.000044405e-05
1.000044449e-05
1.000044594e-05
1.000045022e-05
1.000046803e-05
1.000053463e-05
1.000079988e-05
1.000182904e-05
1.000575291e-05
1.002037853e-05
1.007308736e-05
1.025345342e-05
1.082186253e-05
1.237922331e-05
1.565550097e-05
1.000044311e-05
1.000044367e-05
1.000044608e-05
1.000044842e-05
1.000045987e-05
1.000050844e-05
1.000068161e-05
1.000130979e-05
1.000352699e-05
1.001108119e-05
1.003566743e-05
1.01107457e-05
1.032012996e-05
1.083061737e-05
1.184218662e-05
1.000044482e-05
1.000044504e-05
1.000044507e-05
1.000044855e-05
1.000045953e-05
1.000050187e-05
1.000065856e-05
1.000121704e-05
1.000315531e-05
1.000963625e-05
1.003023646e-05
1.009140421e-05
1.025668097e-05
1.064758651e-05
1.000044574e-05
1.000044589e-05
1.000044653e-05
1.000044945e-05
1.000046449e-05
1.000052465e-05
1.000076037e-05
1.000165542e-05
1.000499009e-05
1.001705256e-05
1.005890289e-05
1.019540239e-05
1.060090667e-05
1.164118354e-05
1.000044573e-05
1.000044525e-05
1.000044735e-05
1.000045112e-05
1.000047327e-05
1.000056791e-05
1.000095776e-05
1.000254165e-05
1.000892657e-05
1.003417507e-05
1.013095991e-05
1.048355776e-05
1.166343513e-05
1.506451985e-05
1.000044493e-05
1.000044499e-05
1.000044632e-05
1.000045407e-05
1.000048428e-05
1.000061672e-05
1.000118998e-05
1.000366829e-05
1.001438836e-05
1.006054994e-05
1.025658043e-05
1.106417003e-05
1.419211154e-05
2.485195423e-05
1.000044448e-05
1.000044506e-05
1.000044725e-05
1.000045506e-05
1.000048958e-05
1.000064078e-05
1.000131167e-05
1.000431462e-05
1.001789925e-05
1.008009336e-05
1.03675414e-05
1.169921608e-05
1.777087746e-05
4.373328733e-05
1.0000445e-05
1.000044517e-05
1.00004462e-05
1.000045354e-05
1.000048385e-05
1.00006165e-05
1.000118996e-05
1.000366717e-05
1.001438852e-05
1.006054875e-05
1.025657761e-05
1.106415261e-05
1.419201345e-05
2.485156909e-05
1.000044388e-05
1.000044494e-05
1.000044612e-05
1.000045246e-05
1.000047309e-05
1.000056866e-05
1.000095734e-05
1.000254148e-05
1.000892551e-05
1.003417335e-05
1.013095665e-05
1.048353813e-05
1.166333529e-05
1.506409495e-05
2.239363833e-05
1.000044437e-05
1.000044494e-05
1.000044512e-05
1.000044959e-05
1.000046429e-05
1.000052662e-05
1.000076112e-05
1.000165634e-05
1.000498978e-05
1.001705178e-05
1.005890056e-05
1.019538806e-05
1.060085264e-05
1.164098657e-05
1.37347162e-05
1.000044341e-05
1.000044455e-05
1.000044351e-05
1.00004476e-05
1.000045972e-05
1.000050324e-05
1.000065932e-05
1.000121669e-05
1.000315631e-05
1.000963599e-05
1.003023481e-05
1.00913957e-05
1.025665095e-05
1.064749498e-05
1.141272545e-05
1.00004443e-05
1.000044395e-05
1.000044552e-05
1.000044789e-05
1.000045672e-05
1.000049069e-05
1.000061e-05
1.000101973e-05
1.000240014e-05
1.000684233e-05
1.00203913e-05
1.005891255e-05
1.015867178e-05
1.038684825e-05
1.000044481e-05
1.000044513e-05
1.000044666e-05
1.000044845e-05
1.000046054e-05
1.000050643e-05
1.000067962e-05
1.000130846e-05
1.000355094e-05
1.001125833e-05
1.00364855e-05
1.011363125e-05
1.032782112e-05
1.084474269e-05
1.000044555e-05
1.000044574e-05
1.000044597e-05
1.000045058e-05
1.0000467e-05
1.000053696e-05
1.000080858e-05
1.000186819e-05
1.000590021e-05
1.002080764e-05
1.007366525e-05
1.024968458e-05
1.078237002e-05
1.216815028e-05
1.000044461e-05
1.000044521e-05
1.000044603e-05
1.000045226e-05
1.000047457e-05
1.000056922e-05
1.000095767e-05
1.000254274e-05
1.000892598e-05
1.003417548e-05
1.013096385e-05
1.048356529e-05
1.166345078e-05
1.506452868e-05
1.000044463e-05
1.00004452e-05
1.000044691e-05
1.00004534e-05
1.000047769e-05
1.000058493e-05
1.000103214e-05
1.000290253e-05
1.001069065e-05
1.004285472e-05
1.01734376e-05
1.068681429e-05
1.258549106e-05
1.879290765e-05
1.000044416e-05
1.000044537e-05
1.000044648e-05
1.000045213e-05
1.000047327e-05
1.000056866e-05
1.000095725e-05
1.000254124e-05
1.000892631e-05
1.00341749e-05
1.013096263e-05
1.048356169e-05
1.166343176e-05
1.506446605e-05
1.000044378e-05
1.000044456e-05
1.000044532e-05
1.000045085e-05
1.00004684e-05
1.000053719e-05
1.000080958e-05
1.000186842e-05
1.000589892e-05
1.002080615e-05
1.007366342e-05
1.024968024e-05
1.078235276e-05
1.21681228e-05
1.000044472e-05
1.00004443e-05
1.000044592e-05
1.000044808e-05
1.000045992e-05
1.000050668e-05
1.00006787e-05
1.000130781e-05
1.000355053e-05
1.001125684e-05
1.003648281e-05
1.011362539e-05
1.032780231e-05
1.084468597e-05
1.18606444e-05
1.00004439e-05
1.000044419e-05
1.000044494e-05
1.000044659e-05
1.000045618e-05
1.000048947e-05
1.000060864e-05
1.000101981e-05
1.000239974e-05
1.000684067e-05
1.002038894e-05
1.005890694e-05
1.015865802e-05
1.038680752e-05
1.08304925e-05
1.000044389e-05
1.000044432e-05
1.000044445e-05
1.000044646e-05
1.000045417e-05
1.000047793e-05
1.000056066e-05
1.000083563e-05
1.000172206e-05
1.000444672e-05
1.001237666e-05
1.00339072e-05
1.008741395e-05
1.020636055e-05
1.000044518e-05
1.000044505e-05
1.000044549e-05
1.000044717e-05
1.000045678e-05
1.000048842e-05
1.000060265e-05
1.000100083e-05
1.000234484e-05
1.00067017e-05
1.002009582e-05
1.005850141e-05
1.01587902e-05
1.038957714e-05
1.00004461e-05
1.00004454e-05
1.00004456e-05
1.000044892e-05
1.000046188e-05
1.000050684e-05
1.000067911e-05
1.000130864e-05
1.000355079e-05
1.001125794e-05
1.003648599e-05
1.011363208e-05
1.032782445e-05
1.084474561e-05
1.000044512e-05
1.000044501e-05
1.000044487e-05
1.000044975e-05
1.000046523e-05
1.000052589e-05
1.000076084e-05
1.000165561e-05
1.000498999e-05
1.00170531e-05
1.005890521e-05
1.019540647e-05
1.060091569e-05
1.164118713e-05
1.000044442e-05
1.000044525e-05
1.000044648e-05
1.000044992e-05
1.000046696e-05
1.00005341e-05
1.000079994e-05
1.000182816e-05
1.000575262e-05
1.002038148e-05
1.007309622e-05
1.025348626e-05
1.082198373e-05
1.237963199e-05
1.000044328e-05
1.000044492e-05
1.000044607e-05
1.000044786e-05
1.000046451e-05
1.000052433e-05
1.000076109e-05
1.000165607e-05
1.000498888e-05
1.001705228e-05
1.005890394e-05
1.019540577e-05
1.060091116e-05
1.164117181e-05
1.000044432e-05
1.000044407e-05
1.000044433e-05
1.000044747e-05
1.000046018e-05
1.000050623e-05
1.000067852e-05
1.000130865e-05
1.000355023e-05
1.001125713e-05
1.00364852e-05
1.011362968e-05
1.032781715e-05
1.084473372e-05
1.000044554e-05
1.000044532e-05
1.000044513e-05
1.00004474e-05
1.000045633e-05
1.000048819e-05
1.000060324e-05
1.00010005e-05
1.000234532e-05
1.000670143e-05
1.00200947e-05
1.005850069e-05
1.015878471e-05
1.038957322e-05
1.000044441e-05
1.000044378e-05
1.000044356e-05
1.000044707e-05
1.000045402e-05
1.000047789e-05
1.000055892e-05
1.000083529e-05
1.000172117e-05
1.000444543e-05
1.001237551e-05
1.00339046e-05
1.008740893e-05
1.020634889e-05
1.043717594e-05
1.000044423e-05
1.000044426e-05
1.000044478e-05
1.00004464e-05
1.000045204e-05
1.000047115e-05
1.000053267e-05
1.000073284e-05
1.000135214e-05
1.000318464e-05
1.000830543e-05
1.002167484e-05
1.005380964e-05
1.012374694e-05
1.000044469e-05
1.000044452e-05
1.000044574e-05
1.000044782e-05
1.000045414e-05
1.000047752e-05
1.000056059e-05
1.000083534e-05
1.000172116e-05
1.000444607e-05
1.001237654e-05
1.003390709e-05
1.008741443e-05
1.020636247e-05
1.000044489e-05
1.000044466e-05
1.000044495e-05
1.000044793e-05
1.000045811e-05
1.000049014e-05
1.000060891e-05
1.000102049e-05
1.000240091e-05
1.000684181e-05
1.002039213e-05
1.005891317e-05
1.015867309e-05
1.038684906e-05
1.000044513e-05
1.000044474e-05
1.000044533e-05
1.000044882e-05
1.000046002e-05
1.000050237e-05
1.00006577e-05
1.000121639e-05
1.000315571e-05
1.000963785e-05
1.003023782e-05
1.009140636e-05
1.025668334e-05
1.064758709e-05
1.000044421e-05
1.00004446e-05
1.000044563e-05
1.000044839e-05
1.000046043e-05
1.000050717e-05
1.000068023e-05
1.000130846e-05
1.000352498e-05
1.001108165e-05
1.003567241e-05
1.01107612e-05
1.032017948e-05
1.083076023e-05
1.000044351e-05
1.000044273e-05
1.000044377e-05
1.000044708e-05
1.000045834e-05
1.000050154e-05
1.000065776e-05
1.000121717e-05
1.000315637e-05
1.000963738e-05
1.003023754e-05
1.009140482e-05
1.025668096e-05
1.064757895e-05
1.000044387e-05
1.000044399e-05
1.0000444e-05
1.000044659e-05
1.000045569e-05
1.000048932e-05
1.000060824e-05
1.000102046e-05
1.000240027e-05
1.000684287e-05
1.00203922e-05
1.005891223e-05
1.015867016e-05
1.038684155e-05
1.000044455e-05
1.000044455e-05
1.000044416e-05
1.000044676e-05
1.000045409e-05
1.000047803e-05
1.000056074e-05
1.000083556e-05
1.000172132e-05
1.000444588e-05
1.00123766e-05
1.003390758e-05
1.008741292e-05
1.020636021e-05
1.000044421e-05
1.000044492e-05
1.000044526e-05
1.000044653e-05
1.000045236e-05
1.00004714e-05
1.00005331e-05
1.00007338e-05
1.000135277e-05
1.000318386e-05
1.000830358e-05
1.002167349e-05
1.005380816e-05
1.012374629e-05
)
;

boundaryField
{
    top
    {
        type            zeroGradient;
    }
    bottom
    {
        type            zeroGradient;
    }
    side-walls
    {
        type            zeroGradient;
    }
    inlet
    {
        type            zeroGradient;
    }
    outlet
    {
        type            zeroGradient;
    }
    procBoundary0to1
    {
        type            processor;
        value           nonuniform List<scalar> 
97
(
1.049279809e-05
1.043717614e-05
1.082267652e-05
1.154332458e-05
1.258438501e-05
1.331565928e-05
1.258436091e-05
1.154329039e-05
1.082263904e-05
1.049277252e-05
1.043717614e-05
1.043717614e-05
1.155426964e-05
1.18606692e-05
1.337171743e-05
1.655173942e-05
1.949960508e-05
1.655163437e-05
1.337158424e-05
1.155418824e-05
1.082264335e-05
1.083050513e-05
1.18606692e-05
1.18606692e-05
1.865621141e-05
2.239397915e-05
3.022143118e-05
4.510603226e-05
3.022089251e-05
1.865576815e-05
1.337158323e-05
1.154329118e-05
1.141278053e-05
1.373487526e-05
2.239397915e-05
2.239397915e-05
6.930898348e-05
0.0001321723743
0.0001447246517
6.930720505e-05
3.022093458e-05
1.655161465e-05
1.25843605e-05
1.184230239e-05
1.565592714e-05
3.394963381e-05
0.0001321723743
0.0001321723743
0.0004653117253
0.0001321721445
0.0001447245267
5.160878308e-05
4.510597604e-05
1.94995522e-05
1.33156526e-05
1.141277017e-05
1.373476476e-05
2.239316935e-05
5.160818877e-05
0.0001321721445
5.160878308e-05
5.160878308e-05
3.022138645e-05
1.496904719e-05
1.655177317e-05
1.258441081e-05
1.083048525e-05
1.186052302e-05
1.49687639e-05
2.239316869e-05
3.394971693e-05
2.239318507e-05
1.496904719e-05
1.496904719e-05
1.337170629e-05
1.083869829e-05
1.154334544e-05
1.043714208e-05
1.083864206e-05
1.18605268e-05
1.37347667e-05
1.565592967e-05
1.373475538e-05
1.186055002e-05
1.083869829e-05
1.083869829e-05
1.082267612e-05
1.025948578e-05
1.025946902e-05
1.043714446e-05
1.083048666e-05
1.141277056e-05
1.184230267e-05
1.141275865e-05
1.083048004e-05
1.043715165e-05
1.025948578e-05
)
;
    }
}


// ************************************************************************* //
