/*--------------------------------*- C++ -*----------------------------------*\
| =========                 |                                                 |
| \\      /  F ield         | OpenFOAM: The Open Source CFD Toolbox           |
|  \\    /   O peration     | Version:  4.x                                   |
|   \\  /    A nd           | Web:      www.OpenFOAM.org                      |
|    \\/     M anipulation  |                                                 |
\*---------------------------------------------------------------------------*/
FoamFile
{
    version     2.0;
    format      ascii;
    class       volScalarField;
    location    "11000";
    object      molarConc;
}
// * * * * * * * * * * * * * * * * * * * * * * * * * * * * * * * * * * * * * //

dimensions      [0 -3 0 0 1 0 0];

internalField   nonuniform List<scalar> 
1175
(
9.963273742
9.963274423
9.963274253
9.9632735
9.963274127
9.963274266
9.963274191
9.963273733
9.963274113
9.963274012
9.963273883
9.963273747
9.96327336
9.963272492
9.963271217
9.963257348
9.963257873
9.963257527
9.963256391
9.963255461
9.96325459
9.963255014
9.963254105
9.963254528
9.963254739
9.963255647
9.963255132
9.963254751
9.963254882
9.963254275
9.963312849
9.963312428
9.963312524
9.963313128
9.96331369
9.963312745
9.963312765
9.963311861
9.963312304
9.963312039
9.963311299
9.963312195
9.963311982
9.963310781
9.963309993
9.96331059
9.963310074
9.963308985
9.963310357
9.963310435
9.963311836
9.963311343
9.963310769
9.963310521
9.963310556
9.963311842
9.963312278
9.963310292
9.963307817
9.963304757
9.963277206
9.963277139
9.963276568
9.963277096
9.963277329
9.963277739
9.963278725
9.963279017
9.963278777
9.963280552
9.963280356
9.963279336
9.963278478
9.963276971
9.96327383
9.963296391
9.963295831
9.963295839
9.963295819
9.963296516
9.963295937
9.96329663
9.963296326
9.963296706
9.963295955
9.963295242
9.963296082
9.96329658
9.963294553
9.963292539
9.963269563
9.963270018
9.963271112
9.963271435
9.963270824
9.96327038
9.963271195
9.963270802
9.963271672
9.963270976
9.963270392
9.963269074
9.963267398
9.963266323
9.963264693
9.963279141
9.963279953
9.963279942
9.963278895
9.963279049
9.963279192
9.963279049
9.963279189
9.96327915
9.963280114
9.963281099
9.9632811
9.963282052
9.963282309
9.963281133
9.963285212
9.963285042
9.963284399
9.963284065
9.963283779
9.963284015
9.963285083
9.963283396
9.963283369
9.963283902
9.963283629
9.963284677
9.963282766
9.963283918
9.963283104
9.963261375
9.963261268
9.963260915
9.963260359
9.96326122
9.963261882
9.963261638
9.963262267
9.963261287
9.963261555
9.963260498
9.96326055
9.963260637
9.963260061
9.963274579
9.963275515
9.963275129
9.963274441
9.963275498
9.96327425
9.963273349
9.963273812
9.963274785
9.963274728
9.963275055
9.963275393
9.963276093
9.963274528
9.963272199
9.963297383
9.963296605
9.963297702
9.963297528
9.963298704
9.963298853
9.963299439
9.963299609
9.963298558
9.963296466
9.963296568
9.963295238
9.963293389
9.963291722
9.963289338
9.963284467
9.963284504
9.963284493
9.963285332
9.963285465
9.963284388
9.963283414
9.963282795
9.963284309
9.963284683
9.963285922
9.963285662
9.963284535
9.963282186
9.963273526
9.963198637
9.963197819
9.9631984
9.963197413
9.963197329
9.963198731
9.963199022
9.96320003
9.963199625
9.963198477
9.963197921
9.963198482
9.963196584
9.963191872
9.963180497
9.963222235
9.963222216
9.963221506
9.96322103
9.963221196
9.963220682
9.96322055
9.963220662
9.963220598
9.963220533
9.963219503
9.963219216
9.963216394
9.963212764
9.963204159
9.963266575
9.963266081
9.963265986
9.96326619
9.963266014
9.963266926
9.963267092
9.963267201
9.963266702
9.963266227
9.963264913
9.963263721
9.963262922
9.963262465
9.963257777
9.963285898
9.963285952
9.963286172
9.963286698
9.963287315
9.963287058
9.963287167
9.963287499
9.963288232
9.963287204
9.963287988
9.963287907
9.963287087
9.963285902
9.963284406
9.963238685
9.963237595
9.963238407
9.963239865
9.963239772
9.963239016
9.963238598
9.963238913
9.963239417
9.963239262
9.963239017
9.963239543
9.963240536
9.963239941
9.963240607
9.963309194
9.963308901
9.963309811
9.963309264
9.963308952
9.963309848
9.963309955
9.963309543
9.963309935
9.963310663
9.963310876
9.963310448
9.963310427
9.963310045
9.963314883
9.963314227
9.963313065
9.963312952
9.963312964
9.963312539
9.963310296
9.963310554
9.963312649
9.963311725
9.963311107
9.963310926
9.963309787
9.963308157
9.963232503
9.963231523
9.963231665
9.963233266
9.963233474
9.963233663
9.963235141
9.96323522
9.963235651
9.963235631
9.963235641
9.963234664
9.96323352
9.963227293
9.963218618
9.963305449
9.963304437
9.963304355
9.963304153
9.963304239
9.963303817
9.963303946
9.963303583
9.963302369
9.963302313
9.96330154
9.963301675
9.963298411
9.963284715
9.963258173
9.963244347
9.96324571
9.963245323
9.963245175
9.963244472
9.963244618
9.963244456
9.963244194
9.963244996
9.96324524
9.963244885
9.96324384
9.963236234
9.963213974
9.963158669
9.963330444
9.963331337
9.963331757
9.963332712
9.963333281
9.963334311
9.963333947
9.963334532
9.963335186
9.963334919
9.963335269
9.963333863
9.963329977
9.963316823
9.963288634
9.963358027
9.963357197
9.9633577
9.963357428
9.963357787
9.963359781
9.963359224
9.963359405
9.963359356
9.963359791
9.963358375
9.963356858
9.963356351
9.963351533
9.963340956
9.963239579
9.963240402
9.963240805
9.963242413
9.963239854
9.963239753
9.963240291
9.963239228
9.963239416
9.963241144
9.963241072
9.963240335
9.96323894
9.963236814
9.963231319
9.963260487
9.963260703
9.963260899
9.963260339
9.963260707
9.963261761
9.963260233
9.963258649
9.963258512
9.96325895
9.963258959
9.963258999
9.963258705
9.963256571
9.963253236
9.963326757
9.963326634
9.963325929
9.963326141
9.963326275
9.963325614
9.963325975
9.963325651
9.963326005
9.963326124
9.963326798
9.963326397
9.963325903
9.963324919
9.963215052
9.963215352
9.963214758
9.963216696
9.963216943
9.963215717
9.963215729
9.96321539
9.963213867
9.963214222
9.963214307
9.963213804
9.963212683
9.963208802
9.963213892
9.963213342
9.96321429
9.963213189
9.963213129
9.963213575
9.963214128
9.963213251
9.963213215
9.963214853
9.963214859
9.963212572
9.963208455
9.963196811
9.963210883
9.963211903
9.963212166
9.963211292
9.963211923
9.963211526
9.963212434
9.963211366
9.96321035
9.963210985
9.963209296
9.963205505
9.963194767
9.963155415
9.963056929
9.963236656
9.963234561
9.963233434
9.963233693
9.963233533
9.963233477
9.963232814
9.963232387
9.963232563
9.963231669
9.963229076
9.963225385
9.963204639
9.963109839
9.962794682
9.963299463
9.963298821
9.963297142
9.963296343
9.96329657
9.963296714
9.963295342
9.963296014
9.963297006
9.963296501
9.963296241
9.963294213
9.96328273
9.96324317
9.963145901
9.963260852
9.963260028
9.963259878
9.963261004
9.963261499
9.963260275
9.963261776
9.963260801
9.963259
9.96326054
9.963261319
9.963259792
9.963256111
9.963243477
9.96321732
9.963300249
9.963299914
9.963299629
9.963298679
9.963298872
9.963299793
9.963300675
9.963300535
9.963301249
9.963300756
9.963300435
9.963299039
9.963298563
9.963294955
9.963289574
9.963262631
9.963262859
9.963262008
9.963262115
9.963263016
9.963261809
9.96326287
9.963263245
9.963263272
9.963262421
9.963261871
9.963261942
9.963261341
9.963259104
9.963255787
9.963278917
9.963278753
9.963279516
9.963279238
9.963279323
9.963279462
9.963278935
9.963278407
9.963278214
9.963278772
9.963279031
9.963279848
9.963278257
9.963276065
9.963218595
9.963219665
9.963219618
9.963219563
9.963219005
9.963218982
9.963218655
9.963218118
9.963217546
9.963216718
9.96321677
9.963216052
9.963214747
9.963209306
9.963279011
9.963280028
9.963279867
9.963278112
9.963278171
9.96327655
9.963276703
9.963278658
9.963278925
9.963278462
9.963278943
9.9632774
9.963268975
9.963247053
9.96326997
9.963270317
9.963271169
9.963273388
9.963272074
9.963272067
9.963272024
9.963270883
9.963270569
9.963269733
9.963268306
9.963262983
9.963240125
9.963145081
9.963272799
9.963272203
9.963273001
9.96327385
9.963273677
9.963273278
9.963271188
9.963271009
9.963271544
9.963270504
9.963267144
9.963259336
9.963205465
9.962857461
9.981229984
9.963284736
9.963284766
9.96328385
9.963284358
9.963284623
9.963285522
9.963285936
9.963285213
9.963285428
9.963286872
9.963286293
9.963280498
9.963259036
9.963164135
9.962848726
9.963307049
9.963307565
9.96330777
9.963308567
9.96330981
9.963309193
9.963308074
9.963308894
9.963308066
9.963305113
9.96330505
9.963304526
9.963297453
9.963275005
9.963220298
9.963322726
9.963323367
9.96332369
9.963323263
9.963323317
9.963322958
9.963322102
9.963323683
9.963323039
9.963322462
9.963321756
9.963320756
9.963319686
9.963313863
9.963302037
9.963274034
9.963274995
9.963275728
9.963275726
9.96327483
9.9632759
9.963277062
9.963276608
9.963277942
9.96327907
9.96327807
9.963277588
9.963277085
9.96327511
9.963272395
9.963242435
9.963242992
9.963242169
9.963242674
9.963242663
9.96324199
9.963243385
9.963242546
9.963243168
9.963243937
9.963244085
9.96324254
9.963241826
9.963240011
9.963278342
9.963277266
9.963276271
9.963275794
9.963273517
9.963272961
9.963271894
9.963273229
9.963274028
9.963273212
9.963271853
9.963271075
9.963268876
9.96326561
9.963268031
9.963268408
9.9632694
9.963268796
9.963268107
9.963267605
9.963268075
9.963268066
9.963267355
9.963267959
9.963266649
9.963264423
9.963260344
9.963248143
9.963286984
9.963286245
9.963284855
9.963286337
9.963286482
9.963286541
9.963287225
9.96328637
9.963285802
9.963287459
9.963286531
9.963283586
9.963271727
9.963232366
9.963228484
9.963228611
9.963228067
9.963229024
9.963229189
9.96322741
9.963227621
9.963228212
9.963230198
9.963230773
9.963231178
9.96322567
9.963202989
9.963107292
9.963230419
9.963229862
9.96322887
9.963227998
9.963227407
9.96322679
9.963226322
9.963226221
9.963225409
9.963224079
9.96322394
9.963221822
9.963209381
9.963171414
9.963294028
9.963294728
9.963294036
9.963294538
9.963293062
9.963293716
9.963292257
9.963292518
9.96329113
9.963290793
9.963290701
9.96329015
9.96328544
9.963273879
9.963246185
9.963311806
9.963312751
9.963314635
9.963313151
9.963312022
9.963311808
9.963311445
9.963312117
9.963312938
9.963313802
9.96331312
9.963312537
9.963310905
9.963307377
9.963301187
9.963254677
9.963253967
9.963254084
9.963254463
9.963255894
9.963256157
9.963256214
9.963256059
9.963257162
9.963256278
9.963256172
9.963255231
9.963254849
9.963253327
9.963250298
9.963300314
9.963300573
9.96330058
9.963300927
9.96330009
9.963299984
9.963300803
9.963299773
9.963300386
9.963300423
9.963300259
9.963300169
9.963300379
9.963300832
9.963265865
9.963265479
9.963266401
9.963266545
9.963265538
9.963267128
9.963267528
9.963266997
9.963266678
9.963267055
9.963267474
9.96326771
9.963267015
9.963265874
9.963324712
9.963324127
9.963322584
9.963322257
9.963320769
9.963320694
9.963319731
9.963320578
9.963320658
9.963320959
9.963321346
9.96332095
9.96331761
9.963312824
9.963319258
9.963319234
9.96331931
9.963318899
9.963318527
9.963319095
9.963318776
9.963319318
9.963318453
9.963319303
9.963319027
9.963318939
9.963314712
9.963302136
9.963209275
9.963209979
9.963211052
9.963211881
9.963210287
9.963210757
9.963211925
9.963213001
9.963213726
9.963213115
9.963213356
9.963211856
9.963203914
9.963181343
9.963268719
9.963269937
9.96326995
9.963270046
9.963270332
9.963270742
9.963271239
9.963271187
9.963271244
9.963271226
9.96327015
9.963270495
9.963266653
9.963254692
9.96325338
9.963253238
9.963253196
9.963254186
9.963253298
9.963253621
9.963253829
9.963252804
9.963252161
9.963250097
9.963250852
9.963249872
9.963246968
9.963241059
9.963261306
9.963260811
9.963260806
9.963259792
9.963259202
9.963259539
9.963259612
9.96325837
9.96325955
9.963258922
9.963260515
9.963259976
9.963257933
9.96325624
9.963252918
9.963303757
9.963303632
9.963303725
9.963303594
9.963304202
9.963304508
9.963304569
9.96330427
9.963304174
9.963302977
9.963303732
9.96330469
9.963304828
9.963304617
9.963302951
9.963305067
9.963305849
9.963305794
9.963305621
9.963306579
9.963307575
9.963308688
9.963307595
9.963309114
9.963308475
9.963307938
9.963306922
9.963306396
9.96330598
9.963307424
9.96330531
9.963304432
9.963302739
9.963303747
9.963303333
9.963302814
9.963302024
9.963301423
9.963301457
9.963301014
9.963302382
9.963302169
9.963299952
9.963232365
9.963230894
9.963230305
9.96323062
9.963230271
9.963229897
9.963230115
9.963228865
9.963227675
9.963228025
9.963227952
9.963227328
9.963226043
9.963223959
9.963263184
9.963263282
9.963262934
9.963263788
9.963262035
9.963262259
9.963261547
9.963261529
9.963262807
9.963263988
9.963263524
9.963262861
9.963261935
9.963257386
9.963263964
9.963264653
9.963264999
9.963264332
9.963264316
9.963264294
9.963264996
9.96326379
9.963263226
9.963263985
9.963264503
9.963262881
9.963261654
9.963256223
9.963234502
9.963236615
9.963237067
9.963236666
9.963236422
9.963237862
9.963238349
9.963239853
9.963239877
9.963240375
9.963240396
9.963240922
9.963239763
9.963236421
9.963321517
9.963321394
9.963320907
9.963321096
9.963319932
9.96331928
9.963318951
9.963319421
9.963319652
9.963319595
9.963319866
9.96331968
9.963317621
9.963317074
9.963285156
9.963285241
9.963285559
9.963286366
9.963286557
9.963286253
9.96328653
9.963285529
9.963285143
9.96328646
9.963285746
9.963285547
9.96328451
9.963284065
9.963244033
9.963244414
9.96324427
9.963245103
9.963245759
9.963245218
9.963245584
9.963244654
9.963244582
9.963244375
9.963243838
9.963243604
9.963244627
9.963242982
9.963245016
9.963290965
9.963290742
9.963291452
9.963290886
9.963290301
9.963291632
9.963290567
9.96329163
9.963291717
9.963291479
9.963291958
9.963290773
9.963291233
9.963290683
9.963265852
9.963265736
9.963266476
9.96326619
9.963265863
9.963266676
9.963266593
9.963266542
9.963265359
9.963265583
9.963266017
9.96326561
9.963264645
9.96326355
9.963281536
9.963281529
9.96328242
9.963281772
9.963283081
9.96328204
9.963281199
9.963281069
9.96328175
9.963280744
9.963281822
9.963282674
9.963282147
9.963282268
9.963267558
9.963266118
9.963266851
9.963266554
9.963267174
9.96326771
9.963267147
9.963264915
9.963265469
9.963265383
9.963264419
9.963263715
9.963263566
9.963261923
9.963272303
9.963271308
9.963271353
9.963270941
9.963270527
9.963269962
9.963269509
9.963269361
9.963270442
9.963270629
9.963270933
9.963271115
9.96327217
9.963270172
9.963300598
9.963300396
9.96329923
9.96330024
9.963300188
9.963300238
9.963300257
9.963301052
9.96330021
9.963300475
9.963300485
9.963299694
9.963298725
9.963295868
9.963344323
9.963346218
9.963345881
9.963346482
9.963347704
9.963347143
9.963348295
9.963349289
9.963350291
9.963350024
9.963350201
9.963349763
9.963350135
9.963348344
9.963282398
9.963282379
9.963281027
9.963280678
9.963280167
9.963280532
9.963280622
9.963280858
9.963280954
9.963280756
9.963280862
9.963281138
9.963280914
9.963280255
9.963276723
9.963277155
9.963276884
9.963276877
9.963276722
9.963277071
9.963276075
9.963275957
9.963275552
9.963275183
9.963273631
9.963273379
9.963272546
9.963273363
)
;

boundaryField
{
    top
    {
        type            calculated;
        value           nonuniform List<scalar> 
134
(
9.963285212
9.963238685
9.963260487
9.963262631
9.963274034
9.963254677
9.963303757
9.963244033
9.963276723
9.963285042
9.963237595
9.963260703
9.963262859
9.963274995
9.963253967
9.963303632
9.963244414
9.963277155
9.963284399
9.963238407
9.963260899
9.963262008
9.963275728
9.963254084
9.963303725
9.96324427
9.963276884
9.963284065
9.963239865
9.963260339
9.963262115
9.963275726
9.963254463
9.963303594
9.963245103
9.963276877
9.963283779
9.963239772
9.963260707
9.963263016
9.96327483
9.963255894
9.963304202
9.963245759
9.963276722
9.963284015
9.963239016
9.963261761
9.963261809
9.9632759
9.963256157
9.963304508
9.963245218
9.963277071
9.963285083
9.963238598
9.963260233
9.96326287
9.963277062
9.963256214
9.963304569
9.963245584
9.963276075
9.963283396
9.963238913
9.963258649
9.963263245
9.963276608
9.963256059
9.96330427
9.963244654
9.963275957
9.963283369
9.963239417
9.963258512
9.963263272
9.963277942
9.963257162
9.963304174
9.963244582
9.963275552
9.963283902
9.963239262
9.96325895
9.963262421
9.96327907
9.963256278
9.963302977
9.963244375
9.963275183
9.963283629
9.963239017
9.963258959
9.963261871
9.96327807
9.963256172
9.963303732
9.963243838
9.963273631
9.963284677
9.963239543
9.963258999
9.963261942
9.963277588
9.963255231
9.96330469
9.963243604
9.963273379
9.963282766
9.963240536
9.963258705
9.963261341
9.963277085
9.963254849
9.963304828
9.963244627
9.963272546
9.963283918
9.963239941
9.963256571
9.963259104
9.96327511
9.963253327
9.963304617
9.963242982
9.963273363
9.963283104
9.963240607
9.963253236
9.963255787
9.963272395
9.963250298
9.963302951
9.963245016
)
;
    }
    bottom
    {
        type            calculated;
        value           nonuniform List<scalar> 
127
(
9.963273742
9.963261375
9.963309194
9.963326757
9.963278917
9.963242435
9.963300314
9.963305067
9.963290965
9.963274423
9.963261268
9.963308901
9.963326634
9.963278753
9.963242992
9.963300573
9.963305849
9.963290742
9.963274253
9.963260915
9.963309811
9.963325929
9.963279516
9.963242169
9.96330058
9.963305794
9.963291452
9.9632735
9.963260359
9.963309264
9.963326141
9.963279238
9.963242674
9.963300927
9.963305621
9.963290886
9.963274127
9.96326122
9.963308952
9.963326275
9.963279323
9.963242663
9.96330009
9.963306579
9.963290301
9.963274266
9.963261882
9.963309848
9.963325614
9.963279462
9.96324199
9.963299984
9.963307575
9.963291632
9.963274191
9.963261638
9.963309955
9.963325975
9.963278935
9.963243385
9.963300803
9.963308688
9.963290567
9.963273733
9.963262267
9.963309543
9.963325651
9.963278407
9.963242546
9.963299773
9.963307595
9.96329163
9.963274113
9.963261287
9.963309935
9.963326005
9.963278214
9.963243168
9.963300386
9.963309114
9.963291717
9.963274012
9.963261555
9.963310663
9.963326124
9.963278772
9.963243937
9.963300423
9.963308475
9.963291479
9.963273883
9.963260498
9.963310876
9.963326798
9.963279031
9.963244085
9.963300259
9.963307938
9.963291958
9.963273747
9.96326055
9.963310448
9.963326397
9.963279848
9.96324254
9.963300169
9.963306922
9.963290773
9.96327336
9.963260637
9.963310427
9.963325903
9.963278257
9.963241826
9.963300379
9.963306396
9.963291233
9.963272492
9.963260061
9.963310045
9.963324919
9.963276065
9.963240011
9.963300832
9.96330598
9.963290683
9.963271217
)
;
    }
    side-walls
    {
        type            calculated;
        value           nonuniform List<scalar> 
261
(
9.963273742
9.963257348
9.963312849
9.96331059
9.963277206
9.963296391
9.963269563
9.963279141
9.963285212
9.963274423
9.963257873
9.963312428
9.963310074
9.963277139
9.963295831
9.963270018
9.963279953
9.963285042
9.963274253
9.963257527
9.963312524
9.963308985
9.963276568
9.963295839
9.963271112
9.963279942
9.963284399
9.9632735
9.963256391
9.963313128
9.963310357
9.963277096
9.963295819
9.963271435
9.963278895
9.963284065
9.963274127
9.963255461
9.96331369
9.963310435
9.963277329
9.963296516
9.963270824
9.963279049
9.963283779
9.963274266
9.96325459
9.963312745
9.963311836
9.963277739
9.963295937
9.96327038
9.963279192
9.963284015
9.963274191
9.963255014
9.963312765
9.963311343
9.963278725
9.96329663
9.963271195
9.963279049
9.963285083
9.963273733
9.963254105
9.963311861
9.963310769
9.963279017
9.963296326
9.963270802
9.963279189
9.963283396
9.963274113
9.963254528
9.963312304
9.963310521
9.963278777
9.963296706
9.963271672
9.96327915
9.963283369
9.963274012
9.963254739
9.963312039
9.963310556
9.963280552
9.963295955
9.963270976
9.963280114
9.963283902
9.963273883
9.963255647
9.963311299
9.963311842
9.963280356
9.963295242
9.963270392
9.963281099
9.963283629
9.963273747
9.963255132
9.963312195
9.963312278
9.963279336
9.963296082
9.963269074
9.9632811
9.963284677
9.96327336
9.963254751
9.963311982
9.963310292
9.963278478
9.96329658
9.963267398
9.963282052
9.963282766
9.963272492
9.963254882
9.963310781
9.963307817
9.963276971
9.963294553
9.963266323
9.963282309
9.963283918
9.963271217
9.963254275
9.963309993
9.963304757
9.96327383
9.963292539
9.963264693
9.963281133
9.963283104
9.963290965
9.963265852
9.963281536
9.963267558
9.963272303
9.963300598
9.963344323
9.963282398
9.963276723
9.963290742
9.963265736
9.963281529
9.963266118
9.963271308
9.963300396
9.963346218
9.963282379
9.963277155
9.963291452
9.963266476
9.96328242
9.963266851
9.963271353
9.96329923
9.963345881
9.963281027
9.963276884
9.963290886
9.96326619
9.963281772
9.963266554
9.963270941
9.96330024
9.963346482
9.963280678
9.963276877
9.963290301
9.963265863
9.963283081
9.963267174
9.963270527
9.963300188
9.963347704
9.963280167
9.963276722
9.963291632
9.963266676
9.96328204
9.96326771
9.963269962
9.963300238
9.963347143
9.963280532
9.963277071
9.963290567
9.963266593
9.963281199
9.963267147
9.963269509
9.963300257
9.963348295
9.963280622
9.963276075
9.96329163
9.963266542
9.963281069
9.963264915
9.963269361
9.963301052
9.963349289
9.963280858
9.963275957
9.963291717
9.963265359
9.96328175
9.963265469
9.963270442
9.96330021
9.963350291
9.963280954
9.963275552
9.963291479
9.963265583
9.963280744
9.963265383
9.963270629
9.963300475
9.963350024
9.963280756
9.963275183
9.963291958
9.963266017
9.963281822
9.963264419
9.963270933
9.963300485
9.963350201
9.963280862
9.963273631
9.963290773
9.96326561
9.963282674
9.963263715
9.963271115
9.963299694
9.963349763
9.963281138
9.963273379
9.963291233
9.963264645
9.963282147
9.963263566
9.96327217
9.963298725
9.963350135
9.963280914
9.963272546
9.963290683
9.96326355
9.963282268
9.963261923
9.963270172
9.963295868
9.963348344
9.963280255
9.963273363
)
;
    }
    inlet
    {
        type            calculated;
        value           nonuniform List<scalar> 
81
(
9.963273742
9.963257348
9.963312849
9.96331059
9.963277206
9.963296391
9.963269563
9.963279141
9.963285212
9.963261375
9.963274579
9.963297383
9.963284467
9.963198637
9.963222235
9.963266575
9.963285898
9.963238685
9.963309194
9.963314883
9.963232503
9.963305449
9.963244347
9.963330444
9.963358027
9.963239579
9.963260487
9.963326757
9.963215052
9.963213892
9.963210883
9.963236656
9.963299463
9.963260852
9.963300249
9.963262631
9.963278917
9.963218595
9.963279011
9.96326997
9.963272799
9.963284736
9.963307049
9.963322726
9.963274034
9.963242435
9.963278342
9.963268031
9.963286984
9.963228484
9.963230419
9.963294028
9.963311806
9.963254677
9.963300314
9.963265865
9.963324712
9.963319258
9.963209275
9.963268719
9.96325338
9.963261306
9.963303757
9.963305067
9.963307424
9.963232365
9.963263184
9.963263964
9.963234502
9.963321517
9.963285156
9.963244033
9.963290965
9.963265852
9.963281536
9.963267558
9.963272303
9.963300598
9.963344323
9.963282398
9.963276723
)
;
    }
    outlet
    {
        type            calculated;
        value           nonuniform 0();
    }
    procBoundary0to1
    {
        type            processor;
        value           nonuniform List<scalar> 
97
(
9.96327164
9.963260059
9.96325168
9.963307718
9.963298758
9.963268866
9.963288078
9.96326326
9.963280418
9.963282123
9.963260059
9.963260059
9.963270116
9.963305629
9.963283385
9.963263235
9.963167715
9.963193109
9.963253276
9.96328161
9.963238738
9.963307701
9.963305629
9.963305629
9.963205568
9.963169284
9.963230056
9.963118175
9.963261862
9.963327535
9.963224983
9.963249213
9.963322147
9.963201094
9.963169284
9.963169284
9.962993536
9.962828042
9.96275153
9.963081262
9.963188391
9.963281079
9.963250865
9.963272277
9.963197021
9.963191394
9.962828042
9.962828042
9.982388201
9.962791151
9.96280419
9.963073489
9.963178535
9.96328805
9.963266154
9.963238517
9.963258337
9.963221323
9.96313437
9.962791151
9.963073489
9.963073489
9.963216381
9.963231026
9.963289843
9.96324705
9.963299232
9.963263282
9.963303027
9.96327456
9.963126337
9.963226959
9.963231026
9.963231026
9.963248801
9.963280663
9.963299456
9.963305069
9.96329794
9.963218903
9.96325077
9.963244912
9.963228474
9.963312056
9.963280663
9.963280663
9.963243381
9.9632721
9.963290397
9.963263116
9.963279269
9.963259668
9.963267895
9.963292904
9.96334591
9.963279651
9.9632721
)
;
    }
}


// ************************************************************************* //
