/*--------------------------------*- C++ -*----------------------------------*\
| =========                 |                                                 |
| \\      /  F ield         | OpenFOAM: The Open Source CFD Toolbox           |
|  \\    /   O peration     | Version:  4.x                                   |
|   \\  /    A nd           | Web:      www.OpenFOAM.org                      |
|    \\/     M anipulation  |                                                 |
\*---------------------------------------------------------------------------*/
FoamFile
{
    version     2.0;
    format      ascii;
    class       surfaceScalarField;
    location    "11000";
    object      phi;
}
// * * * * * * * * * * * * * * * * * * * * * * * * * * * * * * * * * * * * * //

dimensions      [1 0 -1 0 0 0 0];

internalField   nonuniform List<scalar> 
3175
(
9.165411174e-06
-1.325762021e-12
-8.717925834e-13
9.16540947e-06
5.629932749e-14
-1.526803272e-12
9.165409892e-06
-1.184904776e-12
-1.26788222e-12
9.165410677e-06
-1.523304901e-12
6.687364735e-13
9.165410848e-06
-2.990108279e-12
-4.921280509e-13
9.165414181e-06
-1.238639668e-12
-1.263187244e-12
9.165415977e-06
-2.190181734e-12
-1.565986009e-12
9.165419112e-06
-3.28267243e-12
-2.259066546e-12
9.165426741e-06
-2.060584483e-12
-3.546474684e-12
9.165437072e-06
-4.68286179e-12
-6.277230404e-12
9.16545017e-06
-5.636638116e-12
-7.908259112e-12
9.165467969e-06
-9.675260677e-12
-1.031651691e-11
9.165495157e-06
-1.235009384e-11
-1.206542344e-11
9.165521273e-06
-1.356564331e-11
-1.394416056e-11
-1.967137908e-11
9.16539577e-06
-5.485670463e-13
-1.100426195e-12
9.165393821e-06
-1.242376574e-12
-2.836989686e-12
9.165393362e-06
-9.249622484e-13
-2.364124258e-12
9.165393419e-06
-9.565468277e-13
-6.490133729e-13
9.165395192e-06
-7.805998005e-13
3.294986603e-14
9.165396871e-06
-8.559611378e-13
-1.252038126e-12
9.165398448e-06
-3.49094729e-14
-3.102051248e-13
9.16540247e-06
-3.227508617e-12
-3.156429307e-12
9.165405122e-06
-4.054539268e-12
-4.836740701e-12
9.165416845e-06
-7.272181271e-12
-6.900691495e-12
9.165429517e-06
-1.163063303e-11
-9.422626155e-12
9.165447698e-06
-1.783947366e-11
-1.393776814e-11
9.165475834e-06
-2.210199973e-11
-1.591598891e-11
9.165507567e-06
-2.485990886e-11
-1.874773465e-11
-3.75652014e-11
-3.019719602e-11
9.165446256e-06
-2.12592496e-12
-3.844840238e-13
9.165444069e-06
-1.843725522e-12
-8.52221606e-13
9.165445905e-06
3.947969279e-13
-9.838048651e-13
9.165445548e-06
-8.316843196e-13
-4.793665248e-13
9.165447689e-06
-1.209652451e-12
-7.077770127e-13
9.165448416e-06
-1.794144954e-12
-1.747159025e-12
9.165446807e-06
-2.169430153e-12
-1.895959709e-12
9.165453164e-06
-2.606654191e-12
-3.133871268e-12
9.165454308e-06
-3.853656064e-12
-6.069479989e-12
9.165462324e-06
-6.81148156e-12
-8.145115596e-12
9.16547344e-06
-1.153351838e-11
-1.122723005e-11
9.165494557e-06
-1.929755554e-11
-2.110187761e-11
9.165518179e-06
-2.239917449e-11
-2.482107013e-11
9.165559651e-06
-2.970192524e-11
-3.899894912e-11
-4.824526972e-11
-7.051003065e-11
9.1654444e-06
-1.872824502e-12
6.508459756e-13
9.165445078e-06
-1.352166508e-12
-1.747098694e-13
9.165443004e-06
-2.930479838e-12
-2.081264144e-12
9.165443167e-06
-2.711087234e-12
-6.49484693e-13
9.165445301e-06
-3.818569098e-13
-1.011194754e-12
9.165445823e-06
-7.574064782e-13
-1.158727384e-12
9.165446014e-06
-1.817712344e-12
-3.21017034e-12
9.165449014e-06
-2.384819616e-12
-5.171635493e-12
9.165450503e-06
-4.532979502e-12
-5.533552827e-12
9.165457497e-06
-7.274104913e-12
-1.078923218e-11
9.165468159e-06
-7.77600127e-12
-1.111557769e-11
9.165494592e-06
-1.502828784e-11
-2.397628075e-11
9.165516269e-06
-2.317557151e-11
-2.788067826e-11
9.165567708e-06
-3.223104303e-11
-4.707365778e-11
-4.429435382e-11
-9.32578983e-11
9.16541412e-06
7.984787647e-14
2.053895163e-13
9.165413856e-06
3.404852437e-13
9.881148324e-13
9.165412903e-06
-9.842187305e-13
1.009285314e-13
9.165414132e-06
-1.002725594e-12
8.192230207e-13
9.165413131e-06
-8.020759654e-13
-1.167477061e-12
9.165414627e-06
8.156860085e-13
-1.312892281e-12
9.165417086e-06
7.69628751e-13
-1.69581976e-12
9.165414517e-06
5.153655583e-13
-5.179318863e-12
9.165416294e-06
2.968261656e-12
-5.560686759e-12
9.165423101e-06
6.188578603e-12
-1.190127815e-11
9.165423809e-06
9.300758085e-12
-1.819761443e-11
9.165442363e-06
1.649506599e-11
-4.932293026e-11
9.165457433e-06
2.299543614e-11
-5.905845567e-11
9.165537439e-06
3.369426768e-11
-1.459508619e-10
4.438551315e-11
-2.462747647e-10
9.16543288e-06
1.064874942e-12
8.364533792e-13
9.165428818e-06
-1.10017409e-12
2.108318527e-13
9.165428356e-06
3.05672287e-13
6.213166541e-13
9.165433043e-06
1.561084355e-12
2.002710472e-12
9.165432837e-06
2.237214576e-12
5.002659495e-13
9.165431526e-06
9.235639702e-13
-9.47741914e-13
9.16543389e-06
2.481782944e-13
-1.069443162e-12
9.165435499e-06
2.643926529e-12
-2.429016223e-12
9.1654372e-06
3.154163588e-12
-4.528137165e-12
9.165445804e-06
6.914766886e-12
-9.957965018e-12
9.165454235e-06
1.07189401e-11
-1.350290455e-11
9.165479887e-06
1.813216707e-11
-2.721068316e-11
9.16550343e-06
2.280971097e-11
-2.690414606e-11
9.165554281e-06
2.937247649e-11
-4.537748602e-11
4.616142711e-11
-9.230457657e-11
9.165406063e-06
2.002814751e-12
-1.190357909e-12
9.16540811e-06
3.657321994e-12
1.87002776e-13
9.165406066e-06
2.300982986e-12
2.321652714e-13
9.165409806e-06
4.008572242e-12
-2.690957231e-13
9.165407473e-06
1.944190462e-12
-1.737636351e-12
9.16540732e-06
2.770007477e-12
-1.64498814e-12
9.1654111e-06
2.654958317e-12
-2.020942587e-12
9.165412364e-06
4.004365853e-12
-2.505780212e-12
9.165418085e-06
6.596621638e-12
-3.053296811e-12
9.165425624e-06
8.572634638e-12
-6.854808769e-12
9.165433685e-06
1.159738262e-11
-1.174753327e-11
9.165453161e-06
1.796572016e-11
-2.077993123e-11
9.165477691e-06
2.281467399e-11
-2.602332143e-11
9.16551948e-06
2.480171257e-11
-3.759144863e-11
4.045471156e-11
-6.648490598e-11
9.165414518e-06
4.1420133e-13
-1.936877393e-12
9.165413991e-06
-5.001940292e-14
-4.475350073e-13
9.165415273e-06
1.536772931e-12
-2.809171715e-13
9.165415447e-06
1.8673908e-13
-3.3900921e-12
9.165416436e-06
-9.042876112e-13
-1.520519051e-12
9.165417026e-06
4.375855441e-13
-9.608097366e-13
9.165421677e-06
2.229600829e-12
-1.2259757e-12
9.165424024e-06
4.086639397e-12
-2.861378678e-12
9.165430261e-06
3.687362055e-12
-3.653850882e-12
9.165440361e-06
4.957359837e-12
-5.303701523e-12
9.165452727e-06
6.737840572e-12
-8.019393205e-12
9.165474375e-06
1.044591876e-11
-1.28745368e-11
9.16550023e-06
1.375747759e-11
-1.673415267e-11
9.165533131e-06
1.455588265e-11
-1.782463397e-11
2.224453255e-11
-3.031353165e-11
9.16541989e-06
-1.356837121e-12
9.165419976e-06
-1.858021459e-12
9.16541974e-06
-2.810098351e-12
9.165421904e-06
-1.535258521e-12
9.165421909e-06
-2.710319805e-13
9.165423323e-06
8.816850855e-13
9.165427909e-06
1.064172335e-12
9.165428253e-06
-2.164871429e-12
9.165435121e-06
-3.823959668e-12
9.165446101e-06
-4.499202181e-12
9.16545937e-06
-6.338983707e-12
9.165478556e-06
-1.058541415e-11
9.165503927e-06
-1.4204945e-11
9.165533171e-06
-1.271811283e-11
-2.092427857e-11
9.165398953e-06
-1.056591085e-12
-1.492403727e-12
9.165399289e-06
-2.080200984e-13
-1.736282255e-12
9.165398738e-06
-1.980757567e-12
-1.518266077e-12
9.165397057e-06
-2.071983983e-12
-2.04904241e-12
9.165399985e-06
-1.278697633e-12
-9.301703692e-13
9.165403022e-06
-1.05946787e-12
-1.310082507e-12
9.1654044e-06
-1.921717438e-12
-4.703257005e-12
9.165406324e-06
-4.677364501e-12
-4.792577524e-12
9.165412228e-06
-4.161849386e-12
-5.09792649e-12
9.165422449e-06
-6.218490041e-12
-8.377807881e-12
9.16543552e-06
-8.224224711e-12
-1.155259688e-11
9.165455058e-06
-1.309807325e-11
-2.075217671e-11
9.16547954e-06
-1.681138017e-11
-2.355767445e-11
-1.838123578e-11
-2.515229614e-11
9.165411155e-06
4.809634756e-13
-5.486326246e-13
9.165410462e-06
1.426562319e-13
-1.137124894e-13
9.165412907e-06
-1.498449998e-12
-5.932186574e-13
9.165411424e-06
-1.724723743e-12
-1.105140452e-12
9.1654122e-06
-2.018744486e-12
-6.783144366e-13
9.165413525e-06
-3.267919303e-13
-8.412209777e-13
9.165412068e-06
-2.35399741e-12
-3.880622563e-12
9.165418235e-06
-2.592010927e-12
-4.007199172e-12
9.165423481e-06
-4.564883395e-12
-5.654982305e-12
9.16543203e-06
-9.580292761e-12
-1.022488035e-11
9.165444265e-06
-1.259663287e-11
-1.250005504e-11
9.165466376e-06
-2.362581777e-11
-2.499654169e-11
9.165492483e-06
-2.755685002e-11
-2.905447591e-11
9.165530538e-06
-3.691067193e-11
-3.631883148e-11
-6.178084732e-11
9.165430463e-06
-1.220063698e-12
-1.112142037e-12
9.165431125e-06
-2.213524596e-12
-2.990747603e-13
9.165432076e-06
-1.666571246e-12
-7.171447997e-13
9.165431294e-06
-7.610450024e-13
-7.731116162e-13
9.165434949e-06
-6.691746658e-13
-9.559654865e-13
9.165435297e-06
-1.427546129e-12
-1.562844374e-12
9.165434196e-06
-3.81966698e-12
-2.970861133e-12
9.165435916e-06
-4.97375704e-12
-4.735741164e-12
9.165437064e-06
-4.968572475e-12
-7.445487141e-12
9.165443722e-06
-9.975481565e-12
-1.407202284e-11
9.16545042e-06
-1.317236297e-11
-1.945293262e-11
9.165472142e-06
-2.583834468e-11
-4.235952257e-11
9.16549223e-06
-3.078623373e-11
-5.079541602e-11
9.165553001e-06
-4.852247839e-11
-8.34991979e-11
-8.440863561e-11
-1.482425847e-10
9.165417687e-06
-1.476283672e-12
-2.286771793e-12
9.165420553e-06
4.910828485e-13
1.40614417e-13
9.165421367e-06
1.00455189e-12
1.670608959e-14
9.165419552e-06
-3.339915149e-13
-3.969005354e-13
9.165421608e-06
1.553955353e-13
4.085277044e-13
9.165418968e-06
-1.191949786e-12
-7.434629576e-13
9.165420317e-06
9.96974761e-14
-2.508627671e-12
9.165421615e-06
-1.312803216e-12
-5.566875372e-12
9.165421259e-06
-3.634134759e-12
-9.225374084e-12
9.165429234e-06
-6.2835172e-12
-1.756872716e-11
9.165438053e-06
-1.023890817e-11
-2.065800917e-11
9.165464277e-06
-2.514328697e-11
-5.38527875e-11
9.16548878e-06
-3.41387492e-11
-4.926003529e-11
9.165568858e-06
-6.174264972e-11
-1.104580827e-10
-8.255443117e-11
-2.080332962e-10
9.165341954e-06
2.079455547e-13
2.405186279e-13
9.165340865e-06
-5.163606297e-13
-1.719130559e-12
9.165340503e-06
-3.736799221e-14
-4.289773794e-13
9.165338888e-06
7.679606426e-14
-9.880352562e-14
9.165340725e-06
9.147976168e-13
-4.227928887e-14
9.165339516e-06
2.099922432e-13
-1.708932744e-12
9.165340169e-06
9.920598924e-13
-4.010631496e-12
9.165338264e-06
1.941353414e-12
-6.478006718e-12
9.165335104e-06
2.685944581e-12
-1.211260377e-11
9.165334506e-06
6.598084125e-12
-2.644370001e-11
9.16532921e-06
9.63753983e-12
-3.482429226e-11
9.165342962e-06
2.369052065e-11
-1.099643258e-10
9.165340172e-06
3.417402383e-11
-1.236964206e-10
9.165501203e-06
6.322653258e-11
-4.258975523e-10
8.324496654e-11
-6.730528934e-10
9.16536315e-06
-1.407694232e-12
-9.463971799e-14
9.165362046e-06
-9.020061229e-13
-5.32620184e-13
9.165360792e-06
-2.660813652e-13
-6.344332764e-13
9.165361567e-06
-2.264568899e-13
-2.396555356e-13
9.165361636e-06
-3.159168739e-13
-3.314711312e-13
9.16536072e-06
5.725296355e-14
-1.132459744e-12
9.165361577e-06
1.392156796e-12
-1.647024792e-12
9.165360816e-06
2.684459265e-12
-5.728806336e-12
9.165363798e-06
5.188332335e-12
-8.109935574e-12
9.165369024e-06
1.099481954e-11
-1.884030252e-11
9.165377833e-06
1.25258812e-11
-2.048856991e-11
9.165403838e-06
2.624881073e-11
-5.310900594e-11
9.165428039e-06
3.043878739e-11
-5.006139185e-11
9.165503466e-06
4.775371496e-11
-1.141308365e-10
8.477755934e-11
-2.074853928e-10
9.165404115e-06
1.39754386e-12
-8.846910606e-14
9.165404147e-06
2.022074946e-12
1.707173155e-14
9.165402289e-06
1.409923599e-12
-4.217584419e-14
9.165402877e-06
1.27369835e-12
-5.670758519e-13
9.16540475e-06
2.259779028e-12
-9.558901211e-13
9.16540486e-06
2.965586004e-12
-8.550159952e-13
9.165404934e-06
2.351935391e-12
-1.425753594e-12
9.165404938e-06
3.3586908e-12
-4.934467534e-12
9.165408827e-06
6.067026323e-12
-6.101074071e-12
9.1654133e-06
1.028083143e-11
-1.394294618e-11
9.165422623e-06
1.321664167e-11
-1.874892013e-11
9.165444032e-06
2.282393356e-11
-4.124287221e-11
9.165467929e-06
2.837000002e-11
-5.023744126e-11
9.16552506e-06
3.600218391e-11
-8.370015963e-11
6.208551013e-11
-1.470775918e-10
9.165422019e-06
8.104049358e-13
-2.1367827e-13
9.165420683e-06
-1.022844777e-13
-1.707508179e-12
9.165421368e-06
4.502253298e-13
-4.508785332e-13
9.165423782e-06
1.921893673e-12
-1.417729664e-13
9.165424092e-06
4.356226648e-13
-2.090235573e-13
9.165423302e-06
1.928816228e-12
-1.196953754e-12
9.165426759e-06
2.360137163e-12
-8.999398985e-13
9.165431102e-06
4.123709699e-12
-2.106894107e-12
9.165434748e-06
3.293952393e-12
-3.933137117e-12
9.165441867e-06
5.269978595e-12
-8.645388977e-12
9.165455004e-06
8.260444624e-12
-1.284186365e-11
9.165478378e-06
1.28530238e-11
-2.311665381e-11
9.165504042e-06
1.615738958e-11
-2.967557917e-11
9.16554294e-06
1.945622536e-11
-3.594349974e-11
3.155024329e-11
-6.115837079e-11
9.165377394e-06
-6.327053063e-13
9.165378484e-06
1.071190909e-13
9.165378079e-06
-4.701304831e-13
9.165378962e-06
4.370843044e-13
9.165380461e-06
-1.590252351e-13
9.165380752e-06
-3.352287818e-12
9.165383813e-06
-1.705595644e-12
9.165386688e-06
-3.100592784e-12
9.165392261e-06
-3.757237251e-12
9.165403092e-06
-6.593149684e-12
9.165414784e-06
-1.169121136e-11
9.165436872e-06
-1.833173918e-11
9.165463877e-06
-2.355666594e-11
9.165495602e-06
-2.603607619e-11
-3.974405876e-11
9.165441783e-06
-2.780608653e-13
-1.170736547e-12
9.165443222e-06
-1.801036426e-13
-1.313355292e-12
9.165443708e-06
-1.601187845e-12
-1.832046408e-12
9.165441363e-06
-1.277143296e-12
-2.183578534e-12
9.165441433e-06
-1.484108302e-12
-1.066898054e-12
9.165445298e-06
6.984783833e-13
-1.186952987e-12
9.165448985e-06
-1.335527257e-12
-4.310048722e-13
9.165449068e-06
-3.764455619e-12
-3.065251318e-12
9.165453105e-06
-5.045114797e-12
-4.389636339e-12
9.165460495e-06
-8.043463721e-12
-7.847910243e-12
9.165470596e-06
-9.30431568e-12
-1.068123729e-11
9.165493334e-06
-1.92831437e-11
-1.766819348e-11
9.165517356e-06
-2.64870399e-11
-2.318549241e-11
-3.754030946e-11
-3.040136621e-11
9.165447369e-06
-2.309436861e-13
-2.115302761e-12
9.165447602e-06
6.427250462e-13
-1.378860451e-12
9.165447874e-06
-5.648351753e-13
-1.864685493e-12
9.165444744e-06
-1.695503841e-12
-2.80948133e-12
9.165445924e-06
-2.516481001e-12
-1.494676341e-12
9.165446065e-06
-1.728106832e-12
-1.061319405e-12
9.165446836e-06
-7.528988859e-13
-1.917472548e-12
9.165448416e-06
-3.309491141e-12
-3.455964679e-12
9.165451865e-06
-6.44153171e-12
-4.293804877e-12
9.16545702e-06
-1.424892141e-11
-1.130717952e-11
9.165463029e-06
-1.924695706e-11
-1.330256387e-11
9.165487664e-06
-4.060166018e-11
-2.641927481e-11
9.165509609e-06
-4.987818363e-11
-3.104757019e-11
-8.481702715e-11
-4.808845517e-11
9.165371625e-06
-2.038485452e-12
-1.544699534e-12
9.165370588e-06
-1.496111332e-12
-2.328214286e-12
9.165371639e-06
-7.578195041e-13
-1.345553643e-12
9.165370854e-06
-5.834514683e-13
1.48948312e-13
9.165374576e-06
2.777540465e-13
-1.387120403e-13
9.165373642e-06
-6.747514575e-13
-1.903218678e-12
9.165372597e-06
-2.745836865e-12
-2.596373923e-12
9.165371986e-06
-5.776096989e-12
-6.633765853e-12
9.165372503e-06
-6.433577769e-12
-7.200903872e-12
9.165372829e-06
-1.501153676e-11
-1.625845659e-11
9.165372831e-06
-1.899606248e-11
-1.91345356e-11
9.165392413e-06
-4.831195534e-11
-4.804434282e-11
9.165400764e-06
-5.411262849e-11
-5.43803354e-11
9.165510203e-06
-1.371285158e-10
-1.367305173e-10
-2.469012314e-10
9.165439042e-06
6.82167101e-13
9.818433341e-14
9.165438462e-06
-6.271772547e-13
-9.662376649e-13
9.165436673e-06
-4.993196443e-13
-6.921366445e-13
9.165435895e-06
7.494678859e-14
-1.742874393e-12
9.165437426e-06
3.535141796e-14
-1.018334916e-12
9.165434547e-06
-1.191073004e-12
-2.931445505e-12
9.165434049e-06
-1.164256668e-12
-2.737871246e-12
9.16543177e-06
-1.395257894e-12
-5.798109632e-12
9.165430274e-06
-5.14978799e-12
-8.48939269e-12
9.16542779e-06
-1.133764364e-11
-2.028903015e-11
9.165426845e-06
-1.716435505e-11
-2.022228399e-11
9.165448086e-06
-5.133111691e-11
-7.158935195e-11
9.165459792e-06
-6.974607656e-11
-4.805441336e-11
9.165625082e-06
-1.807655204e-10
-2.376331636e-10
-2.509756805e-10
-4.187604916e-10
9.165382117e-06
-9.985725751e-14
-9.229688082e-13
9.165384023e-06
1.325473937e-13
1.078047613e-12
9.165384325e-06
-7.513487928e-13
2.933069843e-14
9.165382249e-06
-4.487072241e-13
-5.716275032e-13
9.165380945e-06
6.438889778e-13
-2.284996912e-12
9.165378229e-06
1.478476832e-12
-2.749887244e-12
9.165378251e-06
2.607697385e-12
-2.932626044e-12
9.165368669e-06
2.040881421e-12
-7.598907554e-12
9.165362899e-06
5.380039657e-12
-1.056600383e-11
9.165346078e-06
1.046784012e-11
-3.208807377e-11
9.165313226e-06
1.708857696e-11
-4.145908198e-11
9.165280163e-06
5.148310324e-11
-1.798535565e-10
9.165194751e-06
6.86161866e-11
-1.793121118e-10
9.165600648e-06
1.804222409e-10
-1.193765372e-09
2.527276665e-10
-1.806637995e-09
9.165462146e-06
-7.533724416e-13
-6.869153766e-13
9.16546446e-06
7.223780263e-14
-3.109604058e-13
9.165464471e-06
-1.579257379e-14
-1.011804473e-12
9.165464136e-06
-6.327039533e-13
-8.902516866e-13
9.165465068e-06
1.478764597e-13
-4.417944725e-13
9.165462721e-06
1.460726144e-12
-2.101982643e-12
9.165461712e-06
2.208849742e-12
-2.577376856e-12
9.16545961e-06
5.456908074e-12
-5.635433707e-12
9.165456828e-06
7.845425773e-12
-7.243899437e-12
9.165460651e-06
1.665331528e-11
-1.825542829e-11
9.165456833e-06
1.859494996e-11
-2.144835863e-11
9.165476546e-06
5.034965333e-11
-7.163713269e-11
9.16549167e-06
5.687319359e-11
-4.716935838e-11
9.165656387e-06
1.398997578e-10
-2.381840151e-10
2.485061112e-10
-4.20379641e-10
9.165488463e-06
1.422370776e-12
1.378167962e-13
9.165488505e-06
6.011788241e-13
-3.483632098e-13
9.165487599e-06
1.430324611e-12
-7.64099232e-13
9.165487714e-06
1.83156421e-12
6.484078346e-13
9.165489362e-06
1.539286153e-12
3.118150279e-14
9.165485737e-06
1.629146399e-12
-9.534219627e-13
9.165486991e-06
3.340995652e-12
-1.84992971e-12
9.165486789e-06
5.38924894e-12
-3.961565456e-12
9.165485679e-06
8.477158408e-12
-6.143183932e-12
9.16548765e-06
1.51741196e-11
-1.342653493e-11
9.165486316e-06
1.930681261e-11
-1.859552177e-11
9.165504291e-06
4.030922343e-11
-4.973732286e-11
9.165515012e-06
4.821989239e-11
-5.542964767e-11
9.165622244e-06
8.316524059e-11
-1.396035934e-10
1.485922382e-10
-2.486508872e-10
9.165377659e-06
2.16788576e-13
8.957516048e-14
9.165380367e-06
1.266073177e-12
-1.585457184e-13
9.165380882e-06
1.156175671e-12
-7.949142801e-13
9.165381375e-06
2.43895224e-12
4.972518118e-14
9.16537967e-06
7.942650441e-13
-1.706572219e-13
9.165380549e-06
-2.5107033e-14
4.970954364e-13
9.165381766e-06
1.938249003e-12
-1.717999414e-12
9.165382769e-06
3.039764649e-12
-3.441291244e-12
9.165384193e-06
3.598343441e-12
-5.732038509e-12
9.165391223e-06
6.964700435e-12
-1.012196231e-11
9.165399129e-06
1.019091536e-11
-1.29470742e-11
9.165421321e-06
2.028216605e-11
-2.643569246e-11
9.165446769e-06
2.639607845e-11
-3.065991333e-11
9.165500937e-06
3.741966908e-11
-4.929444496e-11
6.82714539e-11
-8.549242773e-11
9.165398571e-06
-5.409139826e-13
9.165397365e-06
-1.1141727e-12
9.165397878e-06
-5.819282e-13
9.165397857e-06
-1.64721643e-12
9.165398418e-06
4.316184043e-14
9.165400645e-06
1.520656235e-13
9.16539979e-06
-3.310906384e-12
9.165402548e-06
-4.815117988e-12
9.165403711e-06
-4.654947024e-12
9.165412934e-06
-6.072308132e-12
9.16542423e-06
-1.001775503e-11
9.165446486e-06
-1.801686456e-11
9.165470717e-06
-2.288055017e-11
9.165509198e-06
-2.972398322e-11
-4.793377874e-11
9.165457728e-06
-1.113074946e-12
-1.489523202e-12
9.165459938e-06
-1.481572667e-12
-1.057660719e-12
9.16545873e-06
-1.902365107e-12
-2.918513446e-12
9.165457943e-06
-1.556615207e-12
-1.539923963e-12
9.165456718e-06
-9.168305608e-13
-1.105601794e-12
9.165459839e-06
1.055804695e-12
6.875953938e-13
9.165459549e-06
-1.358258954e-12
-7.826024074e-13
9.165463208e-06
-4.06527819e-12
-2.213774928e-12
9.16546421e-06
-5.186254369e-12
-4.28784286e-12
9.165472511e-06
-1.074594869e-11
-5.813329598e-12
9.165482354e-06
-1.069207249e-11
-7.445265705e-12
9.165505836e-06
-2.585976332e-11
-1.539616345e-11
9.165531419e-06
-2.666933667e-11
-2.105289427e-11
-4.470188824e-11
-3.131163495e-11
9.165356428e-06
6.612014776e-13
-8.717897327e-14
9.165356681e-06
8.90071345e-14
-1.254653097e-13
9.16535772e-06
-1.613100771e-13
-2.935349939e-12
9.165358073e-06
1.097007758e-12
-3.090004179e-12
9.165356773e-06
-1.017974025e-12
-1.591021121e-12
9.165356276e-06
-3.231752968e-12
-1.274008164e-12
9.165357365e-06
-2.389169795e-12
-7.341002416e-13
9.165357168e-06
-5.702545044e-12
-2.352425115e-12
9.165358609e-06
-7.865177121e-12
-3.934166375e-12
9.165365906e-06
-1.743440586e-11
-7.061611023e-12
9.165370273e-06
-2.133781251e-11
-1.267297753e-11
9.165398522e-06
-5.181148299e-11
-2.5302339e-11
9.165425281e-06
-4.800872179e-11
-3.266738343e-11
-1.124518013e-10
-6.17008621e-11
9.165355129e-06
-6.016576651e-13
-8.498661382e-13
9.165355731e-06
-1.026284726e-12
-9.611200883e-13
9.165355384e-06
-1.155792514e-12
-1.11977488e-12
9.165353143e-06
-1.565366535e-12
-2.222284274e-12
9.165352825e-06
-9.050475421e-13
-2.151114205e-12
9.165354282e-06
-1.145204487e-13
-9.886575927e-13
9.165350114e-06
-2.494095138e-12
-1.033290727e-12
9.165350326e-06
-5.164687412e-12
-2.205117007e-12
9.165347679e-06
-7.967484909e-12
-6.255648146e-12
9.165347134e-06
-1.854481615e-11
-1.198020277e-11
9.165347466e-06
-2.008664304e-11
-2.044805325e-11
9.165365072e-06
-7.228011194e-11
-5.23758552e-11
9.165379e-06
-4.778716309e-11
-6.947128617e-11
-2.379525596e-10
-1.807175659e-10
9.165352903e-06
-4.467359651e-13
-5.11291531e-13
9.165354053e-06
1.003301796e-12
-6.136139786e-13
9.165353291e-06
6.893784998e-13
-8.773892567e-13
9.165353259e-06
7.399525333e-13
2.561220506e-13
9.165351497e-06
-1.031374996e-12
5.252306082e-13
9.165351519e-06
-1.40176536e-12
-1.16504722e-12
9.16534716e-06
-8.462171043e-13
-1.478305677e-12
9.165343166e-06
-2.373782066e-12
-4.859310207e-12
9.16534009e-06
-4.983551529e-12
-5.942662129e-12
9.165336259e-06
-1.615222591e-11
-1.901906744e-11
9.165346742e-06
-2.600264135e-11
-2.927511763e-11
9.165379434e-06
-8.933395679e-11
-9.031152832e-11
9.165484913e-06
-1.006908305e-10
-9.960310392e-11
9.165686899e-06
-3.398043157e-10
-3.389342639e-10
-3.754367209e-10
9.165377627e-06
8.196904414e-13
5.626369799e-13
9.165373532e-06
-1.091554146e-12
-5.204427985e-13
9.165372591e-06
-4.5792899e-13
-5.640782439e-13
9.165371064e-06
7.794933837e-13
4.074050928e-14
9.165370807e-06
1.817511243e-12
1.048131029e-13
9.165367561e-06
5.911857535e-13
-4.367188483e-13
9.165361758e-06
1.89454976e-12
-2.316110647e-12
9.165352464e-06
3.705278978e-12
-6.673925593e-12
9.165338729e-06
7.756578845e-12
-9.495040589e-12
9.165300761e-06
1.690767731e-11
-3.136423123e-11
9.165259262e-06
2.547971381e-11
-5.336923256e-11
9.165137592e-06
8.884055298e-11
-2.379401171e-10
9.165162809e-06
9.988280657e-11
-4.039337183e-10
9.16589363e-06
3.390243911e-10
-2.59999795e-09
3.767231455e-10
-2.916279786e-09
9.165433562e-06
1.123441321e-13
5.817775602e-13
9.16543269e-06
-4.615497747e-14
1.325563807e-13
9.165433431e-06
2.663593657e-13
-2.612409392e-13
9.165430773e-06
1.429501498e-12
9.059344049e-13
9.165428709e-06
1.495181193e-12
5.215532937e-14
9.165427093e-06
3.023149025e-12
-8.187122753e-13
9.165424336e-06
2.66081579e-12
-2.336293188e-12
9.165421628e-06
7.133799995e-12
-4.408012804e-12
9.165418231e-06
7.985771274e-12
-6.738476299e-12
9.165415709e-06
2.127776201e-11
-1.796469303e-11
9.165427991e-06
2.07891032e-11
-2.78514366e-11
9.165458666e-06
7.104812243e-11
-9.163577389e-11
9.165566752e-06
4.886506173e-11
-1.00500198e-10
9.16576776e-06
2.385377249e-10
-3.389092004e-10
4.2027134e-10
-3.779332952e-10
9.165398246e-06
9.572406426e-13
5.249221942e-13
9.165398448e-06
4.099519279e-13
1.129818914e-13
9.165399056e-06
1.36376881e-12
1.12789704e-12
9.165397344e-06
5.232896866e-13
-1.104259138e-13
9.165397887e-06
1.254183209e-12
-5.684963625e-13
9.165395653e-06
2.5906842e-12
-1.810181616e-12
9.165396909e-06
2.282920371e-12
-1.336901949e-12
9.165392854e-06
4.855093954e-12
-4.449572282e-12
9.16539021e-06
7.753799297e-12
-6.18723892e-12
9.165388208e-06
1.748317876e-11
-1.27766016e-11
9.165389091e-06
2.095079015e-11
-1.841492227e-11
9.165410941e-06
5.314896571e-11
-5.111693694e-11
9.165422213e-06
4.66836132e-11
-7.002949418e-11
9.165588424e-06
1.12411377e-10
-1.8151772e-10
2.073567847e-10
-2.532098379e-10
9.165433459e-06
-4.736355139e-13
4.228598959e-14
9.165435025e-06
1.229711032e-12
8.935862335e-13
9.165434317e-06
1.022771292e-12
9.313404449e-14
9.16543346e-06
3.460192391e-13
-4.943727031e-13
9.165433829e-06
6.169655281e-13
-1.254199786e-13
9.165432739e-06
9.350951804e-14
-9.17792004e-13
9.165435116e-06
4.27340341e-13
-1.491433334e-13
9.165435216e-06
1.878780993e-12
-2.805415095e-12
9.165437082e-06
4.504380954e-12
-4.101167226e-12
9.165442735e-06
1.093720366e-11
-8.074197322e-12
9.165450838e-06
1.274188814e-11
-9.957551362e-12
9.165478913e-06
2.700687342e-11
-2.377166242e-11
9.165505304e-06
2.800363824e-11
-3.227944205e-11
9.165582896e-06
4.725486275e-11
-6.198683852e-11
9.212467326e-11
-8.582225464e-11
9.165400639e-06
4.073382391e-13
9.165398674e-06
1.242412645e-13
9.165398997e-06
5.67833208e-13
9.165401771e-06
5.730588886e-13
9.165399393e-06
-6.63785854e-13
9.165400227e-06
-9.770780638e-13
9.165402127e-06
3.961596524e-13
9.165406845e-06
-3.85430924e-13
9.165405874e-06
-3.396120886e-12
9.165411976e-06
-6.367911526e-12
9.165422949e-06
-8.587636737e-12
9.16544828e-06
-1.478349994e-11
9.165472294e-06
-1.971218208e-11
9.165521661e-06
-3.254242748e-11
-4.517207941e-11
9.165414468e-06
4.295651441e-13
-8.863714171e-13
9.165415236e-06
4.558923578e-13
1.152020026e-13
9.165417235e-06
-1.048504811e-12
3.428481295e-13
9.165415662e-06
-1.879814185e-12
-4.926527488e-13
9.165414927e-06
-1.575677711e-12
-8.573865343e-13
9.165415418e-06
-4.845893325e-13
-7.678200064e-13
9.165415366e-06
-4.323340719e-13
-6.208354495e-13
9.165414796e-06
-3.46558631e-12
1.72159404e-13
9.165415554e-06
-5.773163399e-12
1.789364244e-12
9.165421187e-06
-1.444851171e-11
5.776476959e-12
9.165423972e-06
-1.922437134e-11
8.091828336e-12
9.165441501e-06
-4.825007667e-11
1.581748191e-11
9.165455672e-06
-5.879119283e-11
2.169647202e-11
-1.447709658e-10
3.341299319e-11
9.165360993e-06
-3.934918938e-13
-2.335832662e-13
9.165358369e-06
-9.738083675e-13
-1.27958407e-12
9.165362227e-06
1.670497904e-12
9.328340829e-13
9.165359784e-06
5.640706594e-13
1.405578534e-12
9.165360374e-06
-9.615657875e-13
1.210318535e-12
9.165359926e-06
-2.727959973e-12
-5.656065868e-13
9.165356162e-06
-2.478266398e-12
-2.310928148e-13
9.165355059e-06
-6.75453509e-12
1.704299209e-12
9.165352055e-06
-1.237926153e-11
3.096751299e-12
9.165352674e-06
-2.639314617e-11
7.634702761e-12
9.165346324e-06
-3.496905987e-11
1.270784654e-11
9.165359443e-06
-1.093972072e-10
2.543227443e-11
9.165356477e-06
-1.243528161e-10
3.299077658e-11
-4.265223945e-10
6.193816531e-11
9.16541591e-06
3.230933628e-13
1.857427056e-13
9.165416549e-06
2.670337824e-13
-1.02641979e-12
9.165414931e-06
-5.385781172e-13
1.574039795e-13
9.165415159e-06
5.247327139e-13
2.771732365e-13
9.165412107e-06
9.841508058e-13
1.906238277e-12
9.165411619e-06
-4.237542542e-13
1.130793955e-12
9.165406929e-06
-3.370282525e-12
1.449352691e-13
9.165400851e-06
-8.606025501e-12
1.964521713e-12
9.1653939e-06
-9.520802836e-12
5.954289469e-12
9.16537525e-06
-3.198521979e-11
1.230837018e-11
9.165347081e-06
-4.145913836e-11
1.903545085e-11
9.165311965e-06
-1.810405631e-10
5.056287078e-11
9.165225082e-06
-1.790040405e-10
6.951943283e-11
-1.193331024e-09
1.801083818e-10
9.165407373e-06
6.439558539e-13
-6.929514286e-13
9.165406957e-06
1.573367028e-12
-9.64845499e-13
9.165409295e-06
1.515823591e-12
9.13750851e-14
9.165407124e-06
3.329540597e-13
-2.731985478e-13
9.16540554e-06
-8.210457354e-13
5.08254387e-13
9.165403931e-06
-1.546328599e-12
7.306825385e-13
9.165395946e-06
-2.214517109e-12
4.598668689e-13
9.165389416e-06
-4.51418702e-12
4.894683571e-12
9.165372966e-06
-8.944889072e-12
6.40158901e-12
9.165335926e-06
-2.818764261e-11
1.924347803e-11
9.165295117e-06
-5.06259794e-11
2.898053115e-11
9.165172236e-06
-2.371628009e-10
9.011454494e-11
9.165194737e-06
-4.048987989e-10
1.009232893e-10
-2.600818439e-09
3.395573274e-10
9.165409665e-06
-1.701275943e-13
-4.240931026e-14
9.1654085e-06
-1.318644712e-13
-1.408218777e-12
9.165410184e-06
-1.479514939e-13
5.154119027e-14
9.165408089e-06
8.894060805e-13
2.228618636e-13
9.165406052e-06
8.228904971e-13
1.662769936e-12
9.165400558e-06
1.547961454e-12
2.084564278e-12
9.165391446e-06
2.369845885e-12
1.940835043e-12
9.165373291e-06
6.9521045e-12
5.674428763e-12
9.165336879e-06
1.014239138e-11
8.748537749e-12
9.165217095e-06
3.09108027e-11
2.927333333e-11
9.165004473e-06
5.138579261e-11
5.187780105e-11
9.164055055e-06
2.359221846e-10
2.388994375e-10
9.162440871e-06
4.03605509e-10
4.043339514e-10
9.152043609e-06
2.599626957e-09
2.600207048e-09
2.914462904e-09
9.165420888e-06
4.408678156e-13
1.515399666e-12
9.165419002e-06
-3.180989405e-13
-5.296555359e-13
9.165421574e-06
9.410947814e-13
1.270040446e-12
9.165418069e-06
4.594692437e-13
8.497303938e-14
9.165417503e-06
8.250984623e-13
-2.337034266e-13
9.165414265e-06
2.685422019e-12
2.101983325e-12
9.165412352e-06
4.340767895e-12
2.545335854e-12
9.165403088e-06
7.262308707e-12
2.340635777e-12
9.165387541e-06
1.113304369e-11
5.231961468e-12
9.165350727e-06
3.256102263e-11
1.730882893e-11
9.16530908e-06
4.251926033e-11
2.691586676e-11
9.165190147e-06
1.814151148e-10
8.96102416e-11
9.165212907e-06
1.787942077e-10
1.00204137e-10
9.165940759e-06
1.192563992e-09
3.382638493e-10
1.80758397e-09
9.165439946e-06
1.525696283e-13
5.120893487e-13
9.165441291e-06
1.156152901e-12
1.340104606e-12
9.165441096e-06
9.335408583e-14
3.363300016e-13
9.165440703e-06
3.612881536e-13
2.783505045e-13
9.165439502e-06
1.666582027e-12
6.96684568e-13
9.16543766e-06
2.743392314e-12
1.823219224e-13
9.165434493e-06
3.968569831e-12
7.850310528e-13
9.165429334e-06
7.466439022e-12
1.547865365e-12
9.165419309e-06
1.12576076e-11
2.988647498e-12
9.165400844e-06
2.693789473e-11
1.203275559e-11
9.165369215e-06
3.57474155e-11
1.835923162e-11
9.165335778e-06