/*--------------------------------*- C++ -*----------------------------------*\
| =========                 |                                                 |
| \\      /  F ield         | OpenFOAM: The Open Source CFD Toolbox           |
|  \\    /   O peration     | Version:  4.x                                   |
|   \\  /    A nd           | Web:      www.OpenFOAM.org                      |
|    \\/     M anipulation  |                                                 |
\*---------------------------------------------------------------------------*/
FoamFile
{
    version     2.0;
    format      ascii;
    class       volScalarField;
    location    "11000";
    object      rho;
}
// * * * * * * * * * * * * * * * * * * * * * * * * * * * * * * * * * * * * * //

dimensions      [1 -3 0 0 0 0 0];

internalField   nonuniform List<scalar> 
1175
(
0.2699629978
0.2699629844
0.2699629926
0.269962985
0.2699630278
0.2699629928
0.2699630163
0.2699630197
0.2699629988
0.269962993
0.2699630079
0.2699630035
0.2699629924
0.2699629955
0.26996305
0.2699625366
0.2699625623
0.2699625272
0.2699625205
0.2699624675
0.2699624821
0.2699624896
0.2699624442
0.2699624784
0.2699624863
0.2699625226
0.2699625193
0.2699625181
0.2699625644
0.2699626478
0.2699640551
0.2699640491
0.2699640726
0.2699640602
0.2699640648
0.2699640515
0.2699640616
0.2699640327
0.2699640467
0.2699640144
0.2699640382
0.2699640406
0.2699641238
0.2699642114
0.2699643755
0.2699639539
0.269963977
0.2699639426
0.2699639461
0.2699639858
0.2699640165
0.2699640075
0.2699640136
0.2699639787
0.2699639892
0.269964019
0.2699640484
0.2699641069
0.2699641982
0.2699644539
0.2699630846
0.2699630855
0.2699630749
0.2699630883
0.2699631022
0.2699630879
0.2699631143
0.2699631305
0.2699631197
0.2699631593
0.2699631891
0.2699632086
0.2699632724
0.2699634759
0.2699638392
0.2699636063
0.2699635965
0.2699636129
0.2699635767
0.2699636007
0.2699635805
0.2699636125
0.2699635805
0.2699636122
0.2699636114
0.2699636028
0.2699636228
0.2699637285
0.2699638935
0.2699641623
0.269962871
0.2699628755
0.2699629064
0.2699629267
0.2699629318
0.2699629258
0.2699629188
0.2699628963
0.2699629061
0.269962929
0.2699629204
0.2699628995
0.2699629142
0.2699629532
0.26996309
0.2699631434
0.2699631613
0.269963165
0.2699631502
0.2699631446
0.2699631192
0.2699631104
0.2699631298
0.2699631306
0.2699631358
0.2699632138
0.2699632258
0.2699632437
0.2699633001
0.2699633761
0.2699633052
0.2699632883
0.2699632836
0.2699632609
0.2699632403
0.2699632709
0.2699632746
0.2699632548
0.2699632649
0.2699632587
0.2699632733
0.2699632876
0.269963255
0.269963306
0.2699633824
0.2699626516
0.2699626451
0.2699626387
0.2699626497
0.2699626469
0.2699626462
0.2699626898
0.2699626739
0.2699626607
0.2699626287
0.2699626273
0.269962657
0.2699626712
0.2699627302
0.2699630104
0.2699630357
0.2699630332
0.2699630001
0.2699629914
0.2699629891
0.2699629849
0.2699629936
0.2699629949
0.2699630006
0.2699630376
0.2699630634
0.2699631029
0.2699631944
0.2699633558
0.2699636491
0.2699636366
0.2699636399
0.269963661
0.2699636667
0.2699636975
0.2699636876
0.2699636923
0.2699636752
0.2699636248
0.2699636244
0.2699636481
0.2699636943
0.2699638796
0.2699642734
0.2699632937
0.2699632972
0.2699632702
0.2699632698
0.2699632768
0.2699632846
0.2699632259
0.269963239
0.2699632871
0.2699632671
0.2699633522
0.2699634292
0.2699635543
0.2699639507
0.2699647405
0.2699609374
0.2699609266
0.2699609537
0.2699609295
0.2699609229
0.2699609584
0.2699609623
0.2699609625
0.2699609933
0.2699609596
0.2699609413
0.2699610385
0.2699612706
0.2699618905
0.2699631073
0.2699615933
0.2699615709
0.2699615996
0.2699615705
0.2699615698
0.269961552
0.2699615525
0.2699615577
0.2699615384
0.2699615271
0.2699615541
0.2699616025
0.2699617441
0.2699621105
0.2699628223
0.2699627844
0.2699627732
0.2699627937
0.269962786
0.2699627822
0.2699627787
0.2699628232
0.2699628384
0.2699628045
0.2699627739
0.2699627631
0.2699627784
0.2699628539
0.2699630405
0.2699634021
0.2699633127
0.2699633349
0.2699633309
0.2699632895
0.2699633511
0.2699633584
0.2699633434
0.2699633181
0.2699633829
0.269963374
0.2699634001
0.2699633995
0.2699634097
0.2699634859
0.269963663
0.2699620589
0.2699620128
0.2699620347
0.269962055
0.2699620613
0.2699620561
0.269962046
0.2699620551
0.269962049
0.2699620544
0.269962061
0.2699620797
0.2699621207
0.2699621692
0.2699622761
0.2699639651
0.2699639642
0.2699639697
0.2699639745
0.2699639749
0.2699639447
0.2699639307
0.2699639536
0.2699639747
0.2699639852
0.2699640039
0.2699639856
0.2699640565
0.2699641251
0.2699641097
0.2699640621
0.2699640492
0.2699640454
0.2699640391
0.269964027
0.2699639649
0.2699639744
0.2699640179
0.2699640391
0.2699640332
0.2699640289
0.2699641214
0.2699643114
0.2699618824
0.2699618574
0.269961865
0.2699618902
0.2699618822
0.2699619044
0.2699619641
0.2699619456
0.2699619518
0.2699619675
0.2699619759
0.2699620309
0.2699622416
0.2699627515
0.2699637812
0.2699638196
0.2699638531
0.269963844
0.2699638552
0.2699638238
0.2699638048
0.2699638289
0.2699638203
0.2699637656
0.2699637717
0.2699638419
0.2699639544
0.2699644006
0.2699656481
0.2699682585
0.2699622091
0.269962221
0.2699622101
0.2699621875
0.2699622125
0.2699621861
0.2699621724
0.2699622057
0.2699622002
0.2699622532
0.2699622751
0.2699624806
0.2699631608
0.269965425
0.2699709387
0.2699645152
0.2699645418
0.269964544
0.2699645722
0.2699646069
0.2699646241
0.2699646483
0.2699646555
0.269964658
0.2699646519
0.2699647351
0.2699648283
0.2699652703
0.2699665125
0.2699691379
0.2699652665
0.2699652542
0.2699652499
0.2699652369
0.2699652639
0.2699653405
0.2699653192
0.269965313
0.2699653251
0.2699653231
0.2699653062
0.2699653837
0.2699656037
0.2699661161
0.2699670882
0.2699620687
0.2699620868
0.2699620856
0.2699621164
0.2699620958
0.2699620525
0.2699620707
0.2699620539
0.2699620904
0.269962114
0.2699621068
0.2699621413
0.2699621977
0.2699623816
0.2699627048
0.2699626251
0.2699626556
0.2699626565
0.2699626386
0.2699626254
0.2699626656
0.269962631
0.2699625892
0.2699625662
0.2699625673
0.2699625806
0.2699626065
0.2699626516
0.2699627137
0.2699628598
0.2699644358
0.2699644443
0.2699644264
0.2699644164
0.2699644323
0.2699643959
0.2699644134
0.2699643966
0.2699644038
0.2699644115
0.2699644616
0.2699644829
0.2699645335
0.2699646378
0.2699613958
0.2699614055
0.2699613981
0.2699614005
0.2699614365
0.2699614366
0.2699614149
0.2699613978
0.2699613739
0.2699613605
0.2699614175
0.2699614792
0.2699616068
0.2699619729
0.2699613778
0.2699613519
0.2699614072
0.2699613662
0.2699613706
0.2699613606
0.2699613919
0.2699613686
0.2699613685
0.2699614146
0.2699614692
0.2699615962
0.2699620052
0.2699632624
0.2699612765
0.2699613196
0.2699613047
0.2699612754
0.269961286
0.2699613136
0.2699612963
0.2699613002
0.2699612899
0.2699613201
0.2699613827
0.2699616303
0.2699627845
0.2699666524
0.2699763474
0.2699619725
0.2699619455
0.269961923
0.2699619151
0.2699619228
0.2699619213
0.2699619084
0.2699619094
0.2699618916
0.2699618924
0.2699619671
0.2699624677
0.2699647249
0.2699741457
0.2700064563
0.2699636859
0.2699636667
0.2699636316
0.2699635896
0.2699635988
0.2699636225
0.2699635973
0.2699636073
0.2699636216
0.2699636164
0.2699636979
0.2699640183
0.2699651546
0.2699690153
0.2699787521
0.2699626445
0.269962602
0.2699626098
0.2699626456
0.2699626506
0.2699626449
0.2699626539
0.2699626372
0.2699626185
0.2699626559
0.2699626991
0.2699628192
0.2699632868
0.2699644944
0.2699671872
0.2699637065
0.2699637015
0.2699636754
0.2699636839
0.2699636975
0.2699637089
0.2699636991
0.2699637404
0.269963732
0.2699637176
0.2699637385
0.2699637692
0.2699639172
0.2699643369
0.2699651326
0.2699626756
0.2699626924
0.2699626879
0.269962663
0.2699626923
0.2699626838
0.2699626803
0.2699627124
0.2699627243
0.2699627024
0.2699626781
0.2699627108
0.2699627618
0.2699629148
0.2699631525
0.2699631193
0.2699631369
0.2699631283
0.2699631465
0.2699631498
0.2699631521
0.2699631259
0.2699631231
0.2699631233
0.2699631451
0.2699631753
0.2699632099
0.2699632695
0.2699634534
0.2699615023
0.2699615074
0.2699615005
0.2699615113
0.2699615318
0.2699615235
0.2699615129
0.2699615058
0.2699614444
0.2699614388
0.2699614624
0.2699615482
0.2699617559
0.2699623581
0.269963138
0.2699631542
0.2699631413
0.2699631168
0.2699630959
0.2699631212
0.2699630802
0.2699631079
0.2699631315
0.2699631552
0.2699632094
0.2699633885
0.2699640762
0.2699663384
0.2699628953
0.2699628718
0.2699628902
0.2699629842
0.2699629617
0.2699629352
0.2699629371
0.2699629073
0.2699629232
0.2699628866
0.2699629982
0.2699635051
0.2699656659
0.2699750977
0.2699629734
0.2699629683
0.2699629779
0.2699629779
0.2699629744
0.2699629602
0.2699629142
0.2699629244
0.2699629354
0.2699629348
0.2699630771
0.2699640569
0.2699695192
0.2700042984
0.270808732
0.2699632958
0.2699632858
0.2699632645
0.2699632921
0.269963295
0.2699632902
0.269963323
0.2699632921
0.2699633197
0.2699633629
0.2699634752
0.2699639665
0.269966171
0.2699755983
0.2700079236
0.2699638853
0.2699638939
0.2699639077
0.2699639277
0.2699639703
0.2699639624
0.2699639435
0.2699639494
0.2699639255
0.2699638592
0.2699639224
0.269964132
0.2699648274
0.2699670814
0.2699725868
0.2699643209
0.2699643309
0.2699643403
0.2699643452
0.2699643647
0.269964322
0.2699643138
0.2699643382
0.269964345
0.2699643167
0.2699643286
0.2699643831
0.2699646078
0.269965174
0.2699663785
0.2699629917
0.2699630031
0.2699630596
0.269963043
0.2699630089
0.2699630671
0.2699630776
0.2699630865
0.2699631219
0.269963134
0.2699631346
0.2699631571
0.2699632348
0.2699634176
0.2699638056
0.269962145
0.2699621566
0.2699621313
0.2699621641
0.2699621507
0.2699621349
0.2699621506
0.2699621587
0.2699621581
0.2699621641
0.269962166
0.2699621989
0.2699622792
0.2699623858
0.2699631119
0.2699630956
0.2699630697
0.2699630173
0.2699629838
0.2699629487
0.2699629415
0.2699629528
0.2699629954
0.269963008
0.2699629776
0.2699630298
0.2699631407
0.2699635348
0.2699628514
0.26996284
0.2699628846
0.2699628504
0.2699628266
0.2699628154
0.2699628544
0.269962847
0.2699628391
0.2699628522
0.2699628469
0.2699629577
0.2699633961
0.2699646445
0.2699633355
0.2699633233
0.2699633094
0.2699633214
0.2699633268
0.2699633259
0.2699633411
0.2699633461
0.2699633281
0.2699633841
0.2699634841
0.2699637573
0.2699648798
0.2699687144
0.2699617582
0.2699617685
0.2699617635
0.269961768
0.2699617682
0.269961743
0.2699617279
0.2699617556
0.2699617884
0.2699618509
0.2699620042
0.269962508
0.2699646554
0.2699740788
0.2699618056
0.2699617988
0.2699617683
0.2699617466
0.2699617217
0.2699617002
0.2699617032
0.2699616734
0.2699616858
0.2699616772
0.2699617683
0.2699620541
0.2699631642
0.2699670464
0.2699635286
0.2699635617
0.2699635533
0.2699635738
0.2699634907
0.2699634968
0.269963487
0.2699634798
0.2699634505
0.2699634601
0.2699635166
0.269963664
0.2699640862
0.2699653088
0.2699679826
0.2699640451
0.2699640544
0.2699640601
0.2699640555
0.2699640153
0.2699640491
0.2699640167
0.2699640408
0.2699640563
0.269964087
0.2699641071
0.2699641228
0.2699642885
0.2699646573
0.2699654323
0.26996246
0.2699624728
0.2699624236
0.2699624646
0.2699624955
0.2699625235
0.2699625239
0.2699624941
0.2699625232
0.2699625108
0.2699625268
0.2699625402
0.2699625838
0.2699627143
0.2699629972
0.2699637125
0.269963698
0.2699637248
0.269963721
0.2699636943
0.2699637119
0.2699637361
0.2699636947
0.2699637093
0.2699637167
0.2699637242
0.2699637489
0.269963775
0.2699639071
0.2699627771
0.2699627731
0.2699628172
0.2699627902
0.2699627954
0.2699628002
0.2699628311
0.2699628
0.2699628055
0.2699628179
0.2699628465
0.2699628742
0.2699629652
0.2699631587
0.2699643539
0.2699643564
0.2699643128
0.2699643079
0.2699642596
0.2699642858
0.2699642299
0.2699642423
0.2699642855
0.2699642984
0.2699643173
0.2699643779
0.2699645515
0.2699650499
0.2699642103
0.2699642262
0.2699642137
0.269964243
0.26996422
0.2699642215
0.2699642194
0.2699642521
0.2699642131
0.2699642346
0.2699642917
0.2699644141
0.2699648725
0.2699661006
0.2699612624
0.2699612733
0.2699612989
0.269961327
0.2699612875
0.2699612989
0.2699613142
0.2699613479
0.2699613653
0.2699613623
0.2699614232
0.2699616152
0.2699623009
0.2699645486
0.269962875
0.2699629049
0.2699629035
0.2699629142
0.2699628779
0.2699629061
0.2699629082
0.2699629013
0.2699629146
0.2699629243
0.2699629714
0.2699631129
0.2699635592
0.2699648316
0.2699624394
0.2699624496
0.2699624341
0.2699624705
0.2699624646
0.2699624502
0.2699624456
0.2699624148
0.2699623926
0.2699623745
0.2699623804
0.2699624607
0.2699626325
0.2699631222
0.2699626498
0.2699626345
0.2699626533
0.2699626113
0.269962592
0.2699626077
0.2699626004
0.2699625709
0.2699625898
0.2699625861
0.269962614
0.2699626542
0.2699627311
0.2699629227
0.2699633009
0.2699637961
0.2699638012
0.2699638091
0.2699637864
0.2699637983
0.2699637982
0.2699638199
0.2699638139
0.2699638116
0.2699637816
0.2699637916
0.2699638331
0.2699638958
0.2699640053
0.2699641671
0.2699638296
0.2699638537
0.269963845
0.2699638479
0.2699638882
0.2699638931
0.2699639236
0.269963915
0.2699639469
0.2699639486
0.2699639173
0.2699639162
0.2699639317
0.2699639542
0.2699638723
0.2699638485
0.2699638215
0.2699637819
0.2699638112
0.2699637924
0.2699637649
0.2699637502
0.2699637321
0.2699637463
0.2699637538
0.2699637659
0.2699638424
0.2699638893
0.2699618861
0.2699618547
0.2699618354
0.2699618298
0.2699618359
0.2699618006
0.2699618024
0.2699617759
0.2699617477
0.2699617537
0.2699617711
0.269961774
0.2699618722
0.2699620357
0.2699627253
0.2699627037
0.2699626672
0.2699626989
0.2699626894
0.2699626728
0.2699626593
0.2699626661
0.2699627043
0.2699627322
0.2699627477
0.2699627866
0.2699629412
0.2699633062
0.2699627136
0.2699627401
0.2699627667
0.2699627411
0.2699627471
0.2699627278
0.2699627465
0.2699627216
0.2699627353
0.2699627603
0.2699627713
0.2699628147
0.2699630406
0.269963617
0.2699619268
0.269961991
0.2699620097
0.269961965
0.2699620116
0.2699619933
0.2699620507
0.2699620751
0.2699620705
0.2699621014
0.2699621058
0.2699622022
0.2699623554
0.2699627262
0.2699643046
0.269964279
0.2699642587
0.2699642597
0.2699642554
0.269964242
0.2699642165
0.2699642344
0.2699642159
0.2699642058
0.2699642572
0.2699642571
0.2699643401
0.2699645282
0.2699633357
0.2699633392
0.2699633174
0.2699633297
0.269963346
0.2699633261
0.2699633414
0.2699632957
0.2699633086
0.2699633132
0.2699632956
0.2699633331
0.2699633321
0.2699634363
0.2699621915
0.2699621722
0.2699621576
0.2699622052
0.2699622124
0.2699622219
0.2699621862
0.2699622003
0.2699622026
0.2699622059
0.26996221
0.2699621944
0.2699622361
0.2699622689
0.2699623913
0.2699634543
0.2699634471
0.2699634518
0.2699634468
0.2699634582
0.2699634737
0.269963449
0.2699634588
0.2699634527
0.2699634721
0.2699634853
0.2699634619
0.2699634779
0.2699635165
0.2699627606
0.2699627634
0.2699627898
0.2699627986
0.2699627769
0.2699627782
0.2699627925
0.2699627752
0.2699627774
0.2699627875
0.269962777
0.2699627697
0.2699627841
0.269962832
0.269963197
0.2699631879
0.2699631863
0.2699632061
0.2699632436
0.2699632025
0.2699632001
0.2699632137
0.2699632272
0.269963194
0.2699632356
0.2699632758
0.2699632924
0.2699633909
0.269962816
0.2699627944
0.2699627936
0.2699628058
0.2699628046
0.2699628099
0.2699627716
0.2699627588
0.2699627601
0.2699627879
0.269962752
0.2699627746
0.2699628193
0.2699629526
0.2699629386
0.26996293
0.2699629269
0.269962906
0.2699628895
0.2699628898
0.2699628725
0.2699628708
0.2699628725
0.2699629069
0.2699629523
0.2699629912
0.2699631009
0.2699632815
0.2699637133
0.2699636823
0.2699636805
0.2699636923
0.2699636924
0.2699637012
0.2699637027
0.2699637256
0.2699637302
0.2699637315
0.26996373
0.269963728
0.2699637919
0.2699638885
0.2699649194
0.2699649404
0.2699649427
0.2699649636
0.2699649751
0.2699649753
0.2699649996
0.2699650424
0.2699650484
0.2699650699
0.2699650777
0.2699650849
0.2699651197
0.2699651937
0.2699632318
0.2699632185
0.2699631759
0.2699631795
0.2699631764
0.2699631768
0.2699631796
0.2699631669
0.2699631693
0.2699631753
0.2699631912
0.2699632183
0.2699632359
0.2699632715
0.2699630651
0.2699630813
0.2699630836
0.2699630716
0.2699630736
0.2699630826
0.2699630596
0.2699630732
0.2699630495
0.2699630264
0.2699629904
0.2699629827
0.2699629965
0.2699630293
)
;

boundaryField
{
    top
    {
        type            calculated;
        value           nonuniform List<scalar> 
134
(
0.2699633052
0.2699620589
0.2699626251
0.2699626756
0.2699629917
0.26996246
0.2699637961
0.2699621915
0.2699630651
0.2699632883
0.2699620128
0.2699626556
0.2699626924
0.2699630031
0.2699624728
0.2699638012
0.2699621722
0.2699630813
0.2699632836
0.2699620347
0.2699626565
0.2699626879
0.2699630596
0.2699624236
0.2699638091
0.2699621576
0.2699630836
0.2699632609
0.269962055
0.2699626386
0.269962663
0.269963043
0.2699624646
0.2699637864
0.2699622052
0.2699630716
0.2699632403
0.2699620613
0.2699626254
0.2699626923
0.2699630089
0.2699624955
0.2699637983
0.2699622124
0.2699630736
0.2699632709
0.2699620561
0.2699626656
0.2699626838
0.2699630671
0.2699625235
0.2699637982
0.2699622219
0.2699630826
0.2699632746
0.269962046
0.269962631
0.2699626803
0.2699630776
0.2699625239
0.2699638199
0.2699621862
0.2699630596
0.2699632548
0.2699620551
0.2699625892
0.2699627124
0.2699630865
0.2699624941
0.2699638139
0.2699622003
0.2699630732
0.2699632649
0.269962049
0.2699625662
0.2699627243
0.2699631219
0.2699625232
0.2699638116
0.2699622026
0.2699630495
0.2699632587
0.2699620544
0.2699625673
0.2699627024
0.269963134
0.2699625108
0.2699637816
0.2699622059
0.2699630264
0.2699632733
0.269962061
0.2699625806
0.2699626781
0.2699631346
0.2699625268
0.2699637916
0.26996221
0.2699629904
0.2699632876
0.2699620797
0.2699626065
0.2699627108
0.2699631571
0.2699625402
0.2699638331
0.2699621944
0.2699629827
0.269963255
0.2699621207
0.2699626516
0.2699627618
0.2699632348
0.2699625838
0.2699638958
0.2699622361
0.2699629965
0.269963306
0.2699621692
0.2699627137
0.2699629148
0.2699634176
0.2699627143
0.2699640053
0.2699622689
0.2699630293
0.2699633824
0.2699622761
0.2699628598
0.2699631525
0.2699638056
0.2699629972
0.2699641671
0.2699623913
)
;
    }
    bottom
    {
        type            calculated;
        value           nonuniform List<scalar> 
127
(
0.2699629978
0.2699626516
0.2699639651
0.2699644358
0.2699631193
0.269962145
0.2699637125
0.2699638296
0.2699634543
0.2699629844
0.2699626451
0.2699639642
0.2699644443
0.2699631369
0.2699621566
0.269963698
0.2699638537
0.2699634471
0.2699629926
0.2699626387
0.2699639697
0.2699644264
0.2699631283
0.2699621313
0.2699637248
0.269963845
0.2699634518
0.269962985
0.2699626497
0.2699639745
0.2699644164
0.2699631465
0.2699621641
0.269963721
0.2699638479
0.2699634468
0.2699630278
0.2699626469
0.2699639749
0.2699644323
0.2699631498
0.2699621507
0.2699636943
0.2699638882
0.2699634582
0.2699629928
0.2699626462
0.2699639447
0.2699643959
0.2699631521
0.2699621349
0.2699637119
0.2699638931
0.2699634737
0.2699630163
0.2699626898
0.2699639307
0.2699644134
0.2699631259
0.2699621506
0.2699637361
0.2699639236
0.269963449
0.2699630197
0.2699626739
0.2699639536
0.2699643966
0.2699631231
0.2699621587
0.2699636947
0.269963915
0.2699634588
0.2699629988
0.2699626607
0.2699639747
0.2699644038
0.2699631233
0.2699621581
0.2699637093
0.2699639469
0.2699634527
0.269962993
0.2699626287
0.2699639852
0.2699644115
0.2699631451
0.2699621641
0.2699637167
0.2699639486
0.2699634721
0.2699630079
0.2699626273
0.2699640039
0.2699644616
0.2699631753
0.269962166
0.2699637242
0.2699639173
0.2699634853
0.2699630035
0.269962657
0.2699639856
0.2699644829
0.2699632099
0.2699621989
0.2699637489
0.2699639162
0.2699634619
0.2699629924
0.2699626712
0.2699640565
0.2699645335
0.2699632695
0.2699622792
0.269963775
0.2699639317
0.2699634779
0.2699629955
0.2699627302
0.2699641251
0.2699646378
0.2699634534
0.2699623858
0.2699639071
0.2699639542
0.2699635165
0.26996305
)
;
    }
    side-walls
    {
        type            calculated;
        value           nonuniform List<scalar> 
261
(
0.2699629978
0.2699625366
0.2699640551
0.2699639539
0.2699630846
0.2699636063
0.269962871
0.2699631434
0.2699633052
0.2699629844
0.2699625623
0.2699640491
0.269963977
0.2699630855
0.2699635965
0.2699628755
0.2699631613
0.2699632883
0.2699629926
0.2699625272
0.2699640726
0.2699639426
0.2699630749
0.2699636129
0.2699629064
0.269963165
0.2699632836
0.269962985
0.2699625205
0.2699640602
0.2699639461
0.2699630883
0.2699635767
0.2699629267
0.2699631502
0.2699632609
0.2699630278
0.2699624675
0.2699640648
0.2699639858
0.2699631022
0.2699636007
0.2699629318
0.2699631446
0.2699632403
0.2699629928
0.2699624821
0.2699640515
0.2699640165
0.2699630879
0.2699635805
0.2699629258
0.2699631192
0.2699632709
0.2699630163
0.2699624896
0.2699640616
0.2699640075
0.2699631143
0.2699636125
0.2699629188
0.2699631104
0.2699632746
0.2699630197
0.2699624442
0.2699640327
0.2699640136
0.2699631305
0.2699635805
0.2699628963
0.2699631298
0.2699632548
0.2699629988
0.2699624784
0.2699640467
0.2699639787
0.2699631197
0.2699636122
0.2699629061
0.2699631306
0.2699632649
0.269962993
0.2699624863
0.2699640144
0.2699639892
0.2699631593
0.2699636114
0.269962929
0.2699631358
0.2699632587
0.2699630079
0.2699625226
0.2699640382
0.269964019
0.2699631891
0.2699636028
0.2699629204
0.2699632138
0.2699632733
0.2699630035
0.2699625193
0.2699640406
0.2699640484
0.2699632086
0.2699636228
0.2699628995
0.2699632258
0.2699632876
0.2699629924
0.2699625181
0.2699641238
0.2699641069
0.2699632724
0.2699637285
0.2699629142
0.2699632437
0.269963255
0.2699629955
0.2699625644
0.2699642114
0.2699641982
0.2699634759
0.2699638935
0.2699629532
0.2699633001
0.269963306
0.26996305
0.2699626478
0.2699643755
0.2699644539
0.2699638392
0.2699641623
0.26996309
0.2699633761
0.2699633824
0.2699634543
0.2699627606
0.269963197
0.269962816
0.2699629386
0.2699637133
0.2699649194
0.2699632318
0.2699630651
0.2699634471
0.2699627634
0.2699631879
0.2699627944
0.26996293
0.2699636823
0.2699649404
0.2699632185
0.2699630813
0.2699634518
0.2699627898
0.2699631863
0.2699627936
0.2699629269
0.2699636805
0.2699649427
0.2699631759
0.2699630836
0.2699634468
0.2699627986
0.2699632061
0.2699628058
0.269962906
0.2699636923
0.2699649636
0.2699631795
0.2699630716
0.2699634582
0.2699627769
0.2699632436
0.2699628046
0.2699628895
0.2699636924
0.2699649751
0.2699631764
0.2699630736
0.2699634737
0.2699627782
0.2699632025
0.2699628099
0.2699628898
0.2699637012
0.2699649753
0.2699631768
0.2699630826
0.269963449
0.2699627925
0.2699632001
0.2699627716
0.2699628725
0.2699637027
0.2699649996
0.2699631796
0.2699630596
0.2699634588
0.2699627752
0.2699632137
0.2699627588
0.2699628708
0.2699637256
0.2699650424
0.2699631669
0.2699630732
0.2699634527
0.2699627774
0.2699632272
0.2699627601
0.2699628725
0.2699637302
0.2699650484
0.2699631693
0.2699630495
0.2699634721
0.2699627875
0.269963194
0.2699627879
0.2699629069
0.2699637315
0.2699650699
0.2699631753
0.2699630264
0.2699634853
0.269962777
0.2699632356
0.269962752
0.2699629523
0.26996373
0.2699650777
0.2699631912
0.2699629904
0.2699634619
0.2699627697
0.2699632758
0.2699627746
0.2699629912
0.269963728
0.2699650849
0.2699632183
0.2699629827
0.2699634779
0.2699627841
0.2699632924
0.2699628193
0.2699631009
0.2699637919
0.2699651197
0.2699632359
0.2699629965
0.2699635165
0.269962832
0.2699633909
0.2699629526
0.2699632815
0.2699638885
0.2699651937
0.2699632715
0.2699630293
)
;
    }
    inlet
    {
        type            calculated;
        value           nonuniform List<scalar> 
81
(
0.2699629978
0.2699625366
0.2699640551
0.2699639539
0.2699630846
0.2699636063
0.269962871
0.2699631434
0.2699633052
0.2699626516
0.2699630104
0.2699636491
0.2699632937
0.2699609374
0.2699615933
0.2699627844
0.2699633127
0.2699620589
0.2699639651
0.2699641097
0.2699618824
0.2699638196
0.2699622091
0.2699645152
0.2699652665
0.2699620687
0.2699626251
0.2699644358
0.2699613958
0.2699613778
0.2699612765
0.2699619725
0.2699636859
0.2699626445
0.2699637065
0.2699626756
0.2699631193
0.2699615023
0.269963138
0.2699628953
0.2699629734
0.2699632958
0.2699638853
0.2699643209
0.2699629917
0.269962145
0.2699631119
0.2699628514
0.2699633355
0.2699617582
0.2699618056
0.2699635286
0.2699640451
0.26996246
0.2699637125
0.2699627771
0.2699643539
0.2699642103
0.2699612624
0.269962875
0.2699624394
0.2699626498
0.2699637961
0.2699638296
0.2699638723
0.2699618861
0.2699627253
0.2699627136
0.2699619268
0.2699643046
0.2699633357
0.2699621915
0.2699634543
0.2699627606
0.269963197
0.269962816
0.2699629386
0.2699637133
0.2699649194
0.2699632318
0.2699630651
)
;
    }
    outlet
    {
        type            calculated;
        value           nonuniform 0();
    }
    procBoundary0to1
    {
        type            processor;
        value           nonuniform List<scalar> 
97
(
0.2699631492
0.2699628147
0.269962783
0.269964608
0.2699649045
0.2699643893
0.2699645585
0.2699634286
0.2699635341
0.2699634292
0.2699628147
0.2699628147
0.2699635922
0.2699647177
0.2699648093
0.2699657073
0.2699644955
0.2699638334
0.2699639717
0.2699639131
0.2699624299
0.2699642768
0.2699647177
0.2699647177
0.2699651512
0.2699658942
0.2699711649
0.2699750003
0.269972003
0.2699684609
0.2699632459
0.2699630341
0.2699649675
0.2699627506
0.2699658942
0.2699658942
0.2699827832
0.2700073662
0.2700110508
0.2699851631
0.269970022
0.2699661944
0.2699635815
0.2699637743
0.2699635144
0.269971845
0.2700073662
0.2700073662
0.270691738
0.2700063562
0.2700125069
0.2699767838
0.2699766382
0.2699677477
0.2699643272
0.2699626584
0.2699642748
0.2699672813
0.2699784412
0.2700063562
0.2699767838
0.2699767838
0.2699707894
0.2699641173
0.2699664901
0.2699634514
0.2699640565
0.2699635589
0.2699660851
0.2699687321
0.2699700462
0.2699674618
0.2699641173
0.2699641173
0.269963854
0.2699635671
0.2699644206
0.2699640432
0.2699640432
0.2699623835
0.2699640694
0.2699648287
0.2699634945
0.2699648936
0.2699635671
0.2699635671
0.2699625258
0.2699630933
0.269963564
0.2699629024
0.2699635216
0.2699632472
0.2699636795
0.2699641596
0.2699653162
0.2699633553
0.2699630933
)
;
    }
}


// ************************************************************************* //
