/*--------------------------------*- C++ -*----------------------------------*\
| =========                 |                                                 |
| \\      /  F ield         | OpenFOAM: The Open Source CFD Toolbox           |
|  \\    /   O peration     | Version:  4.x                                   |
|   \\  /    A nd           | Web:      www.OpenFOAM.org                      |
|    \\/     M anipulation  |                                                 |
\*---------------------------------------------------------------------------*/
FoamFile
{
    version     2.0;
    format      ascii;
    class       volScalarField;
    location    "11000";
    object      T;
}
// * * * * * * * * * * * * * * * * * * * * * * * * * * * * * * * * * * * * * //

dimensions      [0 0 0 1 0 0 0];

internalField   nonuniform List<scalar> 
1175
(
1223.150685
1223.150745
1223.150708
1223.150743
1223.150549
1223.150707
1223.150601
1223.150586
1223.150682
1223.150712
1223.150656
1223.150704
1223.150821
1223.150953
1223.15099
1223.152774
1223.152658
1223.152817
1223.152847
1223.153087
1223.153022
1223.152988
1223.153194
1223.153041
1223.153011
1223.152863
1223.152923
1223.15304
1223.153079
1223.153184
1223.145895
1223.145922
1223.145815
1223.145871
1223.145851
1223.145911
1223.145865
1223.145997
1223.145937
1223.146092
1223.146013
1223.146082
1223.145914
1223.145995
1223.146179
1223.146353
1223.146248
1223.146404
1223.146388
1223.146208
1223.146069
1223.14611
1223.146084
1223.146246
1223.146212
1223.14612
1223.146115
1223.146196
1223.1466
1223.147042
1223.150292
1223.150287
1223.150336
1223.150275
1223.150212
1223.150277
1223.150158
1223.150085
1223.150139
1223.149975
1223.149892
1223.149961
1223.15011
1223.150256
1223.150726
1223.147928
1223.147972
1223.147898
1223.148062
1223.147953
1223.148045
1223.1479
1223.148046
1223.147907
1223.147924
1223.148006
1223.148044
1223.14791
1223.147981
1223.148364
1223.151259
1223.151239
1223.151099
1223.151007
1223.150984
1223.151011
1223.151043
1223.151146
1223.151104
1223.15101
1223.151077
1223.151252
1223.151395
1223.151695
1223.152004
1223.150025
1223.149944
1223.149927
1223.149994
1223.15002
1223.150135
1223.150175
1223.150088
1223.150086
1223.150068
1223.149731
1223.149722
1223.149752
1223.149746
1223.149885
1223.149292
1223.149369
1223.14939
1223.149493
1223.149586
1223.149447
1223.149431
1223.149521
1223.149477
1223.149508
1223.149453
1223.149416
1223.149631
1223.149546
1223.149484
1223.152253
1223.152283
1223.152312
1223.152262
1223.152275
1223.152278
1223.152081
1223.152153
1223.152215
1223.152366
1223.152389
1223.152299
1223.152346
1223.152328
1223.150628
1223.150513
1223.150524
1223.150674
1223.150714
1223.150724
1223.150744
1223.150705
1223.150702
1223.150685
1223.150546
1223.150509
1223.15054
1223.150608
1223.150816
1223.147734
1223.14779
1223.147776
1223.14768
1223.147654
1223.147515
1223.14756
1223.14754
1223.147622
1223.147867
1223.147921
1223.147975
1223.148214
1223.148456
1223.148797
1223.149344
1223.149328
1223.149451
1223.149453
1223.149421
1223.149385
1223.149652
1223.149595
1223.149384
1223.149499
1223.149202
1223.149138
1223.14942
1223.1498
1223.150603
1223.16002
1223.160069
1223.159946
1223.160056
1223.160086
1223.159925
1223.159908
1223.15991
1223.159778
1223.159961
1223.160155
1223.160092
1223.160229
1223.16068
1223.162023
1223.157048
1223.15715
1223.15702
1223.157152
1223.157155
1223.157236
1223.157234
1223.157212
1223.157307
1223.157383
1223.157348
1223.157414
1223.157621
1223.158138
1223.159293
1223.151652
1223.151703
1223.15161
1223.151645
1223.151662
1223.151678
1223.151476
1223.151409
1223.151567
1223.151722
1223.151824
1223.151916
1223.152022
1223.152258
1223.152745
1223.149258
1223.149157
1223.149176
1223.149363
1223.149084
1223.149051
1223.149119
1223.149235
1223.148944
1223.148994
1223.148903
1223.148986
1223.14915
1223.149287
1223.149425
1223.154939
1223.155148
1223.155049
1223.154956
1223.154928
1223.154951
1223.154998
1223.154957
1223.154987
1223.154968
1223.154954
1223.154915
1223.154841
1223.15487
1223.154868
1223.146302
1223.146306
1223.146281
1223.14626
1223.146258
1223.146395
1223.146459
1223.146355
1223.146263
1223.146225
1223.146168
1223.146332
1223.146219
1223.146386
1223.145647
1223.145863
1223.145921
1223.145938
1223.145967
1223.146022
1223.146304
1223.146262
1223.14607
1223.14599
1223.146069
1223.14625
1223.146279
1223.1465
1223.155739
1223.155852
1223.155818
1223.155703
1223.155739
1223.155639
1223.155369
1223.155455
1223.155435
1223.155396
1223.155468
1223.155587
1223.155747
1223.156336
1223.157531
1223.146962
1223.14681
1223.146851
1223.1468
1223.146943
1223.147029
1223.146921
1223.146963
1223.147224
1223.147249
1223.147133
1223.147362
1223.147809
1223.149273
1223.152783
1223.154258
1223.154205
1223.154254
1223.154356
1223.154243
1223.154363
1223.154426
1223.154279
1223.15432
1223.154147
1223.154321
1223.154465
1223.155356
1223.158087
1223.164827
1223.14381
1223.143689
1223.143679
1223.143552
1223.143394
1223.143317
1223.143208
1223.143179
1223.143181
1223.143261
1223.143087
1223.143402
1223.143868
1223.145357
1223.148798
1223.140406
1223.140462
1223.140481
1223.14054
1223.140418
1223.140071
1223.140168
1223.140198
1223.140152
1223.140192
1223.140379
1223.140396
1223.140514
1223.141092
1223.142548
1223.154894
1223.154812
1223.154818
1223.154679
1223.154772
1223.154968
1223.154886
1223.154963
1223.154803
1223.154712
1223.154797
1223.154803
1223.154995
1223.155243
1223.155904
1223.152373
1223.152235
1223.152231
1223.152312
1223.152372
1223.15219
1223.152347
1223.152537
1223.152645
1223.152649
1223.152617
1223.15258
1223.152584
1223.15278
1223.153047
1223.14417
1223.144131
1223.144212
1223.144258
1223.144185
1223.14435
1223.144271
1223.144349
1223.14432
1223.144299
1223.144115
1223.144146
1223.144263
1223.144608
1223.157943
1223.157899
1223.157933
1223.157922
1223.157759
1223.157758
1223.157857
1223.157937
1223.158052
1223.158138
1223.157967
1223.157973
1223.158244
1223.158762
1223.158025
1223.158142
1223.157892
1223.158077
1223.158057
1223.158103
1223.157962
1223.158071
1223.158085
1223.157929
1223.157884
1223.158046
1223.158662
1223.160082
1223.158484
1223.158289
1223.158356
1223.158489
1223.158441
1223.158316
1223.158395
1223.158383
1223.158452
1223.158412
1223.158539
1223.159107
1223.160424
1223.165206
1223.177281
1223.15533
1223.155453
1223.155555
1223.15559
1223.155556
1223.155563
1223.155622
1223.155624
1223.155733
1223.15586
1223.156123
1223.156642
1223.159123
1223.170777
1223.209523
1223.147567
1223.147654
1223.147813
1223.148004
1223.147962
1223.147855
1223.14797
1223.14793
1223.147888
1223.148008
1223.148049
1223.148287
1223.149685
1223.154501
1223.166385
1223.152285
1223.152478
1223.152443
1223.152281
1223.152258
1223.152284
1223.152244
1223.152323
1223.152421
1223.152305
1223.152311
1223.152505
1223.152855
1223.154501
1223.157636
1223.147474
1223.147496
1223.147615
1223.147576
1223.147515
1223.147463
1223.147508
1223.147323
1223.147368
1223.147459
1223.147451
1223.147598
1223.147776
1223.14805
1223.148826
1223.152145
1223.152069
1223.152089
1223.152202
1223.152069
1223.152108
1223.152124
1223.151979
1223.15193
1223.152043
1223.152196
1223.152175
1223.15229
1223.152415
1223.152939
1223.150134
1223.150055
1223.150093
1223.150011
1223.149996
1223.149986
1223.150105
1223.150119
1223.150123
1223.150039
1223.149954
1223.149955
1223.150123
1223.150358
1223.157461
1223.157438
1223.157469
1223.15742
1223.157327
1223.157365
1223.157414
1223.157448
1223.157734
1223.15779
1223.157793
1223.157782
1223.158031
1223.158562
1223.150049
1223.149976
1223.150035
1223.150145
1223.15024
1223.150126
1223.150313
1223.150191
1223.150101
1223.15006
1223.150088
1223.150351
1223.151208
1223.153948
1223.151149
1223.151256
1223.151172
1223.150746
1223.150848
1223.150969
1223.150962
1223.151103
1223.151059
1223.151355
1223.151451
1223.151942
1223.154859
1223.166463
1223.150796
1223.150819
1223.150775
1223.150775
1223.150791
1223.150855
1223.151066
1223.151027
1223.151015
1223.151202
1223.151519
1223.152388
1223.159044
1223.201836
1220.950785
1223.149335
1223.14938
1223.149477
1223.149351
1223.149339
1223.14936
1223.149213
1223.14936
1223.149263
1223.149197
1223.14929
1223.149851
1223.15257
1223.164195
1223.202875
1223.146664
1223.146625
1223.146562
1223.146472
1223.146279
1223.146315
1223.146401
1223.146379
1223.146503
1223.146871
1223.146858
1223.146983
1223.147805
1223.150582
1223.15736
1223.14469
1223.144645
1223.144602
1223.14458
1223.144492
1223.144685
1223.144723
1223.144614
1223.144592
1223.144751
1223.144807
1223.144938
1223.145109
1223.145803
1223.147202
1223.150713
1223.150661
1223.150405
1223.15048
1223.150635
1223.150371
1223.150324
1223.150285
1223.150129
1223.15009
1223.150139
1223.150194
1223.15028
1223.15052
1223.150878
1223.154549
1223.154496
1223.154611
1223.154462
1223.154523
1223.154595
1223.154524
1223.154488
1223.154495
1223.154482
1223.154516
1223.154495
1223.154477
1223.154812
1223.150168
1223.150242
1223.150359
1223.150597
1223.150748
1223.150907
1223.150941
1223.150891
1223.150705
1223.150673
1223.150899
1223.150948
1223.151294
1223.151685
1223.151348
1223.1514
1223.151198
1223.151352
1223.151461
1223.151511
1223.151336
1223.151373
1223.151422
1223.151415
1223.151642
1223.151878
1223.15236
1223.15382
1223.149155
1223.14921
1223.149273
1223.149219
1223.149194
1223.149199
1223.149131
1223.149114
1223.149218
1223.14906
1223.149018
1223.14947
1223.15093
1223.155863
1223.156301
1223.156255
1223.156277
1223.156257
1223.156256
1223.15637
1223.15644
1223.156321
1223.156201
1223.156048
1223.155955
1223.156459
1223.159437
1223.171079
1223.156086
1223.156118
1223.156256
1223.156354
1223.156467
1223.156564
1223.156552
1223.156692
1223.156659
1223.156794
1223.156792
1223.157187
1223.158703
1223.163421
1223.14828
1223.14813
1223.148168
1223.148075
1223.148452
1223.148424
1223.14847
1223.148505
1223.148651
1223.148661
1223.148607
1223.148677
1223.149233
1223.15081
1223.154033
1223.14594
1223.145898
1223.145872
1223.145893
1223.146075
1223.145922
1223.146069
1223.145962
1223.145898
1223.145784
1223.145781
1223.145996
1223.146093
1223.146599
1223.147468
1223.153122
1223.153064
1223.153287
1223.153101
1223.152961
1223.152834
1223.152833
1223.152969
1223.152841
1223.152911
1223.152881
1223.152948
1223.153097
1223.153323
1223.153642
1223.147447
1223.147513
1223.147391
1223.147408
1223.147529
1223.147449
1223.14734
1223.147529
1223.147465
1223.147441
1223.147435
1223.147404
1223.147494
1223.147373
1223.151685
1223.151703
1223.151503
1223.151625
1223.151602
1223.15158
1223.151441
1223.151583
1223.151563
1223.151523
1223.151446
1223.151482
1223.151517
1223.151722
1223.144541
1223.144529
1223.144727
1223.144749
1223.144968
1223.14485
1223.145103
1223.145049
1223.144862
1223.144835
1223.14486
1223.144954
1223.145281
1223.145923
1223.145191
1223.145119
1223.145176
1223.145043
1223.145148
1223.145141
1223.145151
1223.145006
1223.145196
1223.145152
1223.145096
1223.145279
1223.145671
1223.147223
1223.158548
1223.158498
1223.158382
1223.158255
1223.158434
1223.158382
1223.158314
1223.158166
1223.158103
1223.158184
1223.158181
1223.158386
1223.159252
1223.162057
1223.151241
1223.151106
1223.151112
1223.151063
1223.151228
1223.151101
1223.151092
1223.151126
1223.151079
1223.151088
1223.151078
1223.151174
1223.151621
1223.152972
1223.153215
1223.153169
1223.153239
1223.153074
1223.153101
1223.153166
1223.153187
1223.153329
1223.153438
1223.153552
1223.153635
1223.15364
1223.153976
1223.154657
1223.152261
1223.152331
1223.152246
1223.152436
1223.152523
1223.152453
1223.152486
1223.152621
1223.15254
1223.152573
1223.152499
1223.152478
1223.152578
1223.152792
1223.153203
1223.147068
1223.147045
1223.147009
1223.147112
1223.147058
1223.147058
1223.146961
1223.146989
1223.147002
1223.147147
1223.14713
1223.147023
1223.146947
1223.146928
1223.147123
1223.146916
1223.146807
1223.146847
1223.146833
1223.146651
1223.146628
1223.14649
1223.14653
1223.146387
1223.146386
1223.146544
1223.146594
1223.146636
1223.146782
1223.146722
1223.146831
1223.146953
1223.147132
1223.146999
1223.147085
1223.14721
1223.147277
1223.147362
1223.147307
1223.1473
1223.147326
1223.14719
1223.14746
1223.155722
1223.155864
1223.155952
1223.155977
1223.155949
1223.156109
1223.156102
1223.156223
1223.156355
1223.156344
1223.156318
1223.156467
1223.15647
1223.15681
1223.15192
1223.152017
1223.152183
1223.152039
1223.152082
1223.152158
1223.152219
1223.15219
1223.152024
1223.151923
1223.151941
1223.15205
1223.152198
1223.152721
1223.151972
1223.151852
1223.151732
1223.151848
1223.151821
1223.151908
1223.151824
1223.151939
1223.151885
1223.151803
1223.151863
1223.152044
1223.15221
1223.152858
1223.155537
1223.155246
1223.155162
1223.155364
1223.155153
1223.155236
1223.154977
1223.154868
1223.154896
1223.154781
1223.154849
1223.154697
1223.154852
1223.155348
1223.144764
1223.14488
1223.144972
1223.144967
1223.144987
1223.145048
1223.145163
1223.145084
1223.145172
1223.145234
1223.145054
1223.145216
1223.145288
1223.145517
1223.149154
1223.149138
1223.149237
1223.149181
1223.149107
1223.149197
1223.149128
1223.149336
1223.149281
1223.149269
1223.149377
1223.149287
1223.149501
1223.149512
1223.154338
1223.154425
1223.154492
1223.154276
1223.154243
1223.1542
1223.154362
1223.154299
1223.15429
1223.154281
1223.154279
1223.154395
1223.154318
1223.154418
1223.154346
1223.148617
1223.148649
1223.148628
1223.148651
1223.148599
1223.148529
1223.148641
1223.148597
1223.148625
1223.148541
1223.148492
1223.148626
1223.148621
1223.148592
1223.151759
1223.151747
1223.151627
1223.151587
1223.151686
1223.15168
1223.151615
1223.151694
1223.151686
1223.151646
1223.15171
1223.151788
1223.151835
1223.151867
1223.149782
1223.149823
1223.149831
1223.149741
1223.149571
1223.149758
1223.149769
1223.149708
1223.149649
1223.149809
1223.149649
1223.149548
1223.149681
1223.149712
1223.151509
1223.151606
1223.15161
1223.151555
1223.15156
1223.151536
1223.15171
1223.151769
1223.151767
1223.151655
1223.151861
1223.151887
1223.152029
1223.152243
1223.150953
1223.150992
1223.151006
1223.151101
1223.151176
1223.151174
1223.151253
1223.151262
1223.151259
1223.151119
1223.150965
1223.150945
1223.150886
1223.151136
1223.147443
1223.147584
1223.147592
1223.147538
1223.147538
1223.147498
1223.147491
1223.147389
1223.147372
1223.14738
1223.14743
1223.147567
1223.147623
1223.148003
1223.141978
1223.141883
1223.141873
1223.141778
1223.141726
1223.141725
1223.141615
1223.141422
1223.141398
1223.14131
1223.141303
1223.141351
1223.141402
1223.141544
1223.149624
1223.149685
1223.149878
1223.149861
1223.149876
1223.149874
1223.149861
1223.14992
1223.14991
1223.149889
1223.149833
1223.149756
1223.149788
1223.149875
1223.15038
1223.150306
1223.150296
1223.15035
1223.150342
1223.150301
1223.150405
1223.150344
1223.150453
1223.150561
1223.150735
1223.150797
1223.150802
1223.1508
)
;

boundaryField
{
    top
    {
        type            zeroGradient;
    }
    bottom
    {
        type            zeroGradient;
    }
    side-walls
    {
        type            zeroGradient;
    }
    inlet
    {
        type            zeroGradient;
    }
    outlet
    {
        type            zeroGradient;
    }
    procBoundary0to1
    {
        type            processor;
        value           nonuniform List<scalar> 
97
(
1223.151029
1223.152428
1223.153378
1223.146617
1223.147452
1223.151316
1223.14902
1223.15196
1223.149975
1223.14976
1223.152428
1223.152428
1223.151242
1223.146784
1223.14953
1223.152116
1223.163776
1223.160606
1223.153325
1223.149788
1223.154978
1223.146626
1223.146784
1223.146784
1223.159039
1223.163495
1223.155995
1223.169772
1223.152197
1223.144043
1223.156614
1223.153748
1223.144715
1223.159618
1223.163495
1223.163495
1223.185164
1223.205394
1223.214975
1223.17438
1223.161173
1223.149909
1223.153446
1223.15102
1223.160178
1223.16072
1223.205394
1223.205394
1220.808911
1223.20997
1223.208378
1223.175302
1223.162351
1223.149041
1223.151598
1223.155178
1223.152712
1223.15721
1223.167793
1223.20997
1223.175302
1223.175302
1223.157696
1223.156008
1223.148569
1223.154036
1223.147625
1223.152034
1223.147092
1223.150637
1223.16887
1223.156392
1223.156008
1223.156008
1223.153859
1223.149859
1223.147466
1223.146862
1223.147702
1223.15736
1223.153643
1223.154223
1223.156248
1223.145987
1223.149859
1223.149859
1223.154543
1223.150794
1223.148661
1223.152031
1223.150048
1223.15251
1223.15145
1223.148376
1223.141917
1223.149979
1223.150794
)
;
    }
}


// ************************************************************************* //
