/*--------------------------------*- C++ -*----------------------------------*\
| =========                 |                                                 |
| \\      /  F ield         | OpenFOAM: The Open Source CFD Toolbox           |
|  \\    /   O peration     | Version:  4.x                                   |
|   \\  /    A nd           | Web:      www.OpenFOAM.org                      |
|    \\/     M anipulation  |                                                 |
\*---------------------------------------------------------------------------*/
FoamFile
{
    version     2.0;
    format      ascii;
    class       volVectorField;
    location    "11000";
    object      U;
}
// * * * * * * * * * * * * * * * * * * * * * * * * * * * * * * * * * * * * * //

dimensions      [0 1 -1 0 0 0 0];

internalField   nonuniform List<vector> 
1175
(
(0.01099999883 -9.078316628e-10 -1.292196449e-09)
(0.01100000069 2.701958549e-10 3.896816012e-10)
(0.01099999975 -2.354686261e-09 -1.434017284e-09)
(0.01100000076 -2.478380066e-09 3.417178607e-09)
(0.01099999861 -2.903995013e-09 1.574512846e-10)
(0.01100000349 -9.905692428e-10 -1.124197108e-09)
(0.01100000608 -2.759855282e-09 -3.721292861e-10)
(0.01100000718 -3.377465996e-09 -1.266088858e-09)
(0.0110000139 7.342187005e-10 -3.529111698e-09)
(0.01100002491 7.109630079e-11 -5.750633773e-09)
(0.01100003739 -3.804539315e-09 -5.608435556e-09)
(0.01100005509 -6.633948399e-09 -6.637639183e-09)
(0.01100008639 -7.712795981e-09 -6.489683623e-09)
(0.01100011425 -6.74475284e-09 -5.991892525e-09)
(0.01100015804 -1.011180556e-08 -9.662548086e-09)
(0.01100000085 -7.114647103e-10 -5.167903351e-10)
(0.01099999893 6.847525666e-11 -3.687166854e-09)
(0.01099999974 -2.984142889e-10 -1.402157288e-09)
(0.01099999875 -1.255377987e-09 -4.179856878e-10)
(0.01100000216 -1.864839037e-09 -3.084560216e-10)
(0.01100000352 -8.368855463e-10 -1.076484092e-09)
(0.01100000521 -1.52080088e-09 -5.761809735e-10)
(0.0110000088 -2.547378417e-09 -2.843763733e-09)
(0.01100001223 -5.067811276e-09 -3.996415978e-09)
(0.01100002191 -9.591133947e-09 -5.261795429e-09)
(0.01100003405 -1.149813203e-08 -5.990748393e-09)
(0.01100005012 -1.908083542e-08 -6.9378499e-09)
(0.01100008382 -2.39338836e-08 -1.03682465e-08)
(0.01100010692 -2.8229298e-08 -9.901732113e-09)
(0.01100016313 -4.333548509e-08 -1.446755639e-08)
(0.01099999971 -2.090925762e-09 2.79328068e-10)
(0.01100000009 -1.474439723e-09 6.945643936e-10)
(0.01099999918 -4.974304594e-10 -1.143660474e-09)
(0.01099999935 -1.21072261e-09 1.014826092e-09)
(0.01099999948 -1.320043924e-09 -1.152090838e-09)
(0.01100000247 -2.750497395e-09 -2.559529191e-09)
(0.01100000102 -2.294602871e-09 -1.330445132e-09)
(0.01100000613 -4.601151256e-09 -3.481744101e-09)
(0.01100000777 -4.629343763e-09 -6.586945125e-09)
(0.01100001634 -9.157483992e-09 -5.87817998e-09)
(0.01100002438 -1.669008097e-08 -9.721150567e-09)
(0.01100004039 -2.490634844e-08 -1.565574874e-08)
(0.01100007364 -2.835830319e-08 -1.311098567e-08)
(0.01100009005 -3.234551495e-08 -2.169564607e-08)
(0.01100017264 -4.923916849e-08 -3.802073368e-08)
(0.01100000127 -2.967908499e-09 7.798990427e-10)
(0.01100000113 -2.237843906e-09 5.628273528e-10)
(0.01100000127 -1.585491161e-09 -3.386434002e-10)
(0.01100000046 -2.861822591e-09 -2.46876376e-09)
(0.01099999935 -8.344057179e-10 -1.615903297e-09)
(0.01100000054 -9.108447563e-10 -1.49364352e-09)
(0.01100000249 -2.126057306e-09 -3.149383273e-09)
(0.01100000313 -4.463907618e-09 -5.928535917e-09)
(0.01100000522 -6.478243501e-09 -5.230254436e-09)
(0.01100001236 -1.15040984e-08 -7.779206902e-09)
(0.01100001786 -1.455666424e-08 -6.918527351e-09)
(0.01100003715 -2.90413482e-08 -1.304910228e-08)
(0.01100007337 -4.007234068e-08 -1.622713833e-08)
(0.01100008461 -5.822143622e-08 -2.127708677e-08)
(0.01100019135 -8.837865438e-08 -4.052498414e-08)
(0.011 -5.848995613e-10 -1.25844915e-09)
(0.01100000168 -6.235676434e-10 9.437879942e-10)
(0.01100000007 -2.792007966e-09 8.267154867e-10)
(0.01099999969 -1.91423362e-09 1.202125973e-10)
(0.01099999878 -1.114251184e-09 -1.729034988e-09)
(0.01100000094 -1.041844597e-09 -2.726572448e-09)
(0.01099999987 -1.179622906e-09 -1.968132674e-09)
(0.01100000105 -1.684452689e-09 -5.97710643e-09)
(0.01099999943 -1.066510299e-09 -4.851720798e-09)
(0.01100000466 -3.463925458e-10 -7.526734566e-09)
(0.0110000054 1.959985205e-09 -1.335970239e-08)
(0.0110000143 1.68100435e-09 -3.187049097e-08)
(0.01100004107 -8.418992013e-10 -3.508387972e-08)
(0.01100004339 9.954872504e-10 -7.201154508e-08)
(0.01100022908 5.213328801e-11 -1.153434335e-07)
(0.01100000056 -6.274711838e-11 6.288786247e-10)
(0.01100000112 -6.351966293e-10 4.940570823e-10)
(0.01099999737 -2.931884452e-10 1.002099623e-09)
(0.01100000002 1.126117385e-09 5.174102118e-10)
(0.01100000177 1.599402665e-09 1.376706084e-10)
(0.01100000254 7.999921144e-10 -9.108706827e-10)
(0.01099999901 8.190288447e-10 9.018303862e-10)
(0.01100000559 3.013126758e-09 -1.647646281e-09)
(0.01100000492 4.445904651e-09 -4.001423703e-09)
(0.01100001114 1.161174185e-08 -7.66632731e-09)
(0.01100002181 1.574013241e-08 -8.528184771e-09)
(0.01100003574 2.946092449e-08 -1.637063768e-08)
(0.01100007373 4.170820529e-08 -1.363213565e-08)
(0.01100008322 5.8830516e-08 -1.836937956e-08)
(0.01100019058 8.658115153e-08 -4.048514158e-08)
(0.0110000003 2.704961093e-09 -1.407962935e-09)
(0.01100000077 8.995695836e-10 4.583402125e-10)
(0.01099999818 1.6290052e-09 1.107743257e-09)
(0.01100000085 2.27391501e-09 -7.106169809e-10)
(0.01100000163 2.57959807e-09 -2.609443869e-09)
(0.01099999981 3.509442267e-09 -1.784464826e-09)
(0.01100000111 9.932040472e-10 -2.379730828e-09)
(0.01100000501 4.975655606e-09 -1.344629931e-09)
(0.0110000082 6.238944887e-09 -1.239238842e-09)
(0.011000016 1.048857531e-08 -4.966937345e-09)
(0.01100002468 1.499543701e-08 -7.028098588e-09)
(0.01100003962 2.348765007e-08 -1.401067673e-08)
(0.01100007163 2.778102941e-08 -1.471707557e-08)
(0.01100009197 3.088728826e-08 -1.832980415e-08)
(0.0110001768 5.056239637e-08 -3.329942768e-08)
(0.01099999915 1.717597874e-09 -1.116110125e-09)
(0.01099999757 1.834633248e-09 1.04591976e-09)
(0.01099999918 2.089755713e-09 6.424583737e-10)
(0.0110000006 2.330040163e-09 -4.186928528e-09)
(0.01100000059 4.275214691e-10 -1.498200481e-09)
(0.01100000168 1.834956536e-09 -1.369040568e-09)
(0.0110000054 3.298613652e-09 -1.514203761e-09)
(0.01100000944 5.139908502e-09 -2.496803157e-09)
(0.01100001309 7.042598475e-09 -2.564449613e-09)
(0.0110000221 9.059786693e-09 -2.288719255e-09)
(0.01100003447 1.235112022e-08 -5.962154503e-09)
(0.01100005085 1.986088408e-08 -8.390260755e-09)
(0.01100008371 2.614036922e-08 -1.214728688e-08)
(0.01100010711 2.836515503e-08 -9.651067263e-09)
(0.01100016316 4.532006061e-08 -1.551710523e-08)
(0.01099999912 -1.151207853e-10 -5.838424055e-10)
(0.0109999991 -2.287476274e-10 -1.376479327e-09)
(0.01100000022 2.241163867e-09 -2.890547082e-09)
(0.01100000082 -1.137604368e-10 -7.448525134e-10)
(0.01100000196 -8.305263214e-10 2.358748267e-09)
(0.01100000307 4.509019557e-10 2.154070147e-09)
(0.01100000685 2.047847127e-09 3.398969595e-09)
(0.01100001136 3.628316944e-09 -1.027383264e-09)
(0.01100001535 2.255683572e-09 -3.852404845e-09)
(0.01100002386 4.685110005e-09 -2.701714413e-10)
(0.01100003843 5.790561073e-09 -3.625387065e-09)
(0.01100005526 6.460088091e-09 -6.646983402e-09)
(0.01100008774 8.926439573e-09 -9.978708045e-09)
(0.01100011169 8.968250788e-09 -7.565228126e-09)
(0.01100015467 1.376401921e-08 -1.15468727e-08)
(0.01099999946 -1.096279933e-09 -8.752091229e-10)
(0.01100000109 9.959353828e-10 -2.335414453e-09)
(0.01100000077 -6.566680075e-10 -2.3971954e-09)
(0.01099999981 -1.166057402e-09 -1.87192306e-09)
(0.01099999884 -2.057186578e-09 -1.23269942e-09)
(0.01100000394 -2.703356088e-10 -2.132467784e-09)
(0.01100000419 -8.625340223e-10 -5.787084373e-09)
(0.01100000681 -2.953532641e-09 -5.715794417e-09)
(0.01100001258 -2.559934231e-09 -4.248248051e-09)
(0.01100002048 -3.814030344e-09 -1.003116204e-08)
(0.01100003727 -5.108469582e-09 -1.320597289e-08)
(0.01100005094 -7.190250203e-09 -2.265874694e-08)
(0.01100008479 -1.084462145e-08 -2.694669681e-08)
(0.01100010603 -8.504228477e-09 -3.111572045e-08)
(0.01100000034 -9.78774649e-10 -1.341192631e-09)
(0.01099999826 -1.373669911e-10 -2.334907052e-09)
(0.0110000012 -1.674501226e-09 -1.694911003e-09)
(0.01100000094 -2.558448356e-09 -1.255256562e-09)
(0.01100000188 -1.031250404e-09 -9.872094173e-10)
(0.01100000397 -1.080497883e-09 -2.359652306e-09)
(0.01100000306 -3.661219141e-09 -2.568366358e-09)
(0.01100000436 -4.949231826e-09 -4.863242796e-09)
(0.01100001255 -6.774991674e-09 -6.870256824e-09)
(0.01100001773 -1.061497038e-08 -1.1148487e-08)
(0.01100002997 -1.566397707e-08 -1.669893972e-08)
(0.01100004606 -2.613335915e-08 -2.832813403e-08)
(0.01100008119 -3.323902858e-08 -3.301005884e-08)
(0.01100010004 -4.121552705e-08 -4.193531008e-08)
(0.01100017221 -6.696512062e-08 -6.92324405e-08)
(0.01100000046 -6.382653472e-10 -9.40494341e-10)
(0.01099999941 -1.172226272e-09 -1.162244121e-10)
(0.01099999952 -1.743752018e-09 -9.620259395e-10)
(0.01100000038 -2.3930932e-09 -8.55828405e-10)
(0.0110000009 -2.778461185e-09 -4.644317197e-10)
(0.01100000114 -1.156881012e-09 -1.944861035e-09)
(0.01100000092 -4.53000811e-09 -2.385178012e-09)
(0.01100000202 -5.028022269e-09 -5.770157114e-09)
(0.01100000283 -6.16625788e-09 -8.213812151e-09)
(0.01100001119 -1.363930555e-08 -1.448204204e-08)
(0.01100001669 -1.753920632e-08 -2.092993301e-08)
(0.0110000305 -3.081488001e-08 -4.308070491e-08)
(0.01100006221 -3.333892147e-08 -5.721925204e-08)
(0.01100007226 -4.383821003e-08 -8.74119851e-08)
(0.01100019293 -7.723480136e-08 -1.521178527e-07)
(0.01099999966 -6.746522183e-10 -7.865648477e-10)
(0.01099999815 -1.52231564e-09 5.898286947e-10)
(0.01100000091 -9.355411305e-10 -8.710323401e-10)
(0.01100000014 -5.189015364e-10 2.608163739e-10)
(0.01100000108 1.033206706e-10 -7.828687763e-10)
(0.01099999862 -1.573588328e-09 -1.493700369e-09)
(0.01100000041 -1.800386014e-09 -3.523758076e-09)
(0.01100000331 -5.450161146e-09 -6.765691413e-09)
(0.01099999905 -6.865822017e-09 -9.346968928e-09)
(0.01100000882 -1.39786014e-08 -1.9175428e-08)
(0.01100000951 -1.92705874e-08 -2.268876004e-08)
(0.01100002783 -4.618877295e-08 -5.45982343e-08)
(0.01100006076 -6.016063744e-08 -6.265858333e-08)
(0.01100006395 -1.092336951e-07 -1.131605485e-07)
(0.0110002147 -1.708025904e-07 -2.156532571e-07)
(0.01100000108 -1.298841758e-09 6.155770216e-10)
(0.01100000062 -5.063339494e-10 2.230895874e-10)
(0.01100000007 2.306869983e-10 -7.747297391e-10)
(0.0110000002 -1.196977241e-10 3.887663041e-10)
(0.01099999955 1.247242178e-09 -1.072666471e-09)
(0.01099999878 -5.494936545e-10 -1.622430438e-09)
(0.01099999696 -2.873778647e-10 -3.576337266e-09)
(0.0109999989 1.620649509e-09 -6.945215287e-09)
(0.01099999191 -1.586512824e-10 -1.138438793e-08)
(0.01099999609 3.461563225e-10 -2.643697526e-08)
(0.01099998454 -5.972304088e-10 -3.832028894e-08)
(0.0109999899 -1.612902982e-09 -1.03720848e-07)
(0.01099999032 -2.808741075e-10 -1.296149036e-07)
(0.01099996996 1.073942376e-09 -3.389413223e-07)
(0.01100031441 -5.535920778e-10 -5.635775881e-07)
(0.01099999965 -1.022085393e-09 8.786331424e-10)
(0.01100000132 3.474847726e-10 4.94942503e-11)
(0.0109999978 8.453779146e-10 -7.808829215e-10)
(0.01099999962 5.401649812e-10 6.979592503e-10)
(0.01099999972 8.88765336e-10 7.21395676e-10)
(0.01100000017 8.684067414e-10 -1.532538426e-09)
(0.01099999974 2.845051432e-09 -2.694827724e-09)
(0.01100000099 4.111896762e-09 -4.614697013e-09)
(0.01099999902 5.91100071e-09 -8.6226689e-09)
(0.01100000705 1.292497238e-08 -1.990655002e-08)
(0.01100001214 2.053211105e-08 -2.468110065e-08)
(0.01100002858 4.678180315e-08 -5.642388216e-08)
(0.01100006324 6.030874321e-08 -6.251393727e-08)
(0.01100006261 1.111947098e-07 -1.163429512e-07)
(0.01100021545 1.722963793e-07 -2.144092675e-07)
(0.01100000017 9.100570046e-10 1.492483927e-10)
(0.01100000265 6.217501475e-10 2.37776629e-11)
(0.01099999871 3.68486262e-10 -5.091908373e-10)
(0.0109999993 -1.740717369e-10 -4.138350941e-10)
(0.01100000104 6.41561349e-10 -1.662197282e-09)
(0.0110000008 1.62400129e-09 -1.284133536e-09)
(0.01100000135 1.916526194e-09 -2.830526749e-09)
(0.01100000066 4.203886569e-09 -5.115603892e-09)
(0.01100000297 8.637636472e-09 -7.06325347e-09)
(0.0110000087 1.497624819e-08 -1.525868335e-08)
(0.01100001696 1.695594876e-08 -2.281365958e-08)
(0.01100003231 2.915815473e-08 -4.220431383e-08)
(0.01100006326 3.251802467e-08 -5.712412658e-08)
(0.01100007388 4.011856724e-08 -8.6615954e-08)
(0.01100019547 7.647111198e-08 -1.487044967e-07)
(0.01100000016 1.702742498e-09 -1.407060832e-09)
(0.01100000117 6.292851767e-10 -1.546564176e-09)
(0.01099999789 1.426665759e-09 -1.144227039e-09)
(0.01100000132 1.840488575e-09 -1.791942416e-09)
(0.01100000309 1.444777377e-09 -1.991206965e-09)
(0.01099999948 3.231925369e-09 -8.998360585e-10)
(0.01100000287 2.529728177e-09 -1.646519389e-09)
(0.01100000823 4.455256241e-09 -3.722058091e-09)
(0.01100001085 5.831552447e-09 -5.905720477e-09)
(0.0110000172 1.130660727e-08 -1.138490201e-08)
(0.01100002854 1.455101098e-08 -1.450465241e-08)
(0.01100004642 2.572278637e-08 -2.552939367e-08)
(0.01100008247 3.476152784e-08 -3.385952455e-08)
(0.01100010154 4.303799584e-08 -4.097842496e-08)
(0.01100017322 6.946436359e-08 -6.75185149e-08)
(0.01099999881 -2.735819004e-10 -8.081695142e-10)
(0.01100000213 5.693812315e-11 -4.736834671e-10)
(0.01099999955 6.840015444e-10 -2.378381683e-09)
(0.01099999987 1.511321849e-09 -6.602336817e-10)
(0.01100000113 4.200246802e-10 -7.127124308e-10)
(0.01100000222 2.260057991e-09 -2.211084025e-09)
(0.01100000556 2.901862151e-09 -7.826327289e-11)
(0.01100000653 3.400729332e-09 -4.360429825e-09)
(0.01100001275 1.488287195e-09 -6.006281712e-09)
(0.01100002138 3.452483685e-09 -8.213935234e-09)
(0.01100003508 6.537283638e-09 -1.252386051e-08)
(0.01100005147 9.105623603e-09 -2.099789128e-08)
(0.01100008572 9.002384761e-09 -2.720602196e-08)
(0.01100010703 9.230722391e-09 -2.853279101e-08)
(0.01100016369 1.536485261e-08 -4.432712447e-08)
(0.01100000005 -4.018819926e-10 -1.69682798e-09)
(0.01099999886 -6.476825929e-10 -2.064054566e-09)
(0.01100000161 -1.469316455e-09 -1.856629558e-09)
(0.01099999988 -1.940707928e-09 -1.82194523e-09)
(0.01099999622 -2.992959141e-09 -9.571861515e-10)
(0.01100000159 1.917596043e-09 -2.00106296e-09)
(0.0110000051 -2.409212494e-09 -3.369082194e-09)
(0.01100000614 -3.669230746e-10 -5.051259841e-09)
(0.01100000772 -1.549917984e-09 -7.722454042e-09)
(0.01100001448 -5.621745048e-09 -9.979073145e-09)
(0.01100002383 -4.0651683e-09 -1.574523859e-08)
(0.01100004088 -1.041369536e-08 -2.393995885e-08)
(0.01100007239 -1.673292024e-08 -2.868197358e-08)
(0.01100009282 -1.775053774e-08 -3.138529628e-08)
(0.01099999827 -3.149926612e-10 -1.94002709e-09)
(0.01100000094 1.833533185e-10 -3.630950482e-10)
(0.01100000084 -1.055663709e-09 -1.51186057e-09)
(0.01100000081 -2.301846785e-09 -3.493782147e-09)
(0.01099999903 -8.332528727e-10 -7.615710034e-10)
(0.01100000097 -3.250465401e-10 -9.815201016e-10)
(0.01100000231 -1.998120519e-09 -3.919178407e-09)
(0.01100000376 -4.64872552e-09 -5.467820777e-09)
(0.01100000535 -8.889742114e-09 -7.486527443e-09)
(0.01100001028 -1.373467398e-08 -1.49900665e-08)
(0.01100001444 -2.201629086e-08 -1.647770273e-08)
(0.01100003116 -4.213609991e-08 -3.265894016e-08)
(0.01100006338 -5.70594482e-08 -3.486163899e-08)
(0.0110000738 -8.663222687e-08 -4.108753661e-08)
(0.01099999946 -1.965043645e-09 -1.778818899e-09)
(0.01100000017 5.237528803e-10 -2.332217527e-09)
(0.01100000008 4.43930369e-11 -1.614325598e-09)
(0.01099999764 -1.401963585e-09 -9.148853118e-10)
(0.01100000057 -1.914901286e-09 -8.2777656e-10)
(0.01100000053 -2.957851868e-09 -2.811814534e-09)
(0.01099999743 -3.460152605e-09 -5.051631626e-09)
(0.01099999751 -7.178308869e-09 -8.339071871e-09)
(0.01099999463 -9.617226153e-09 -1.148663411e-08)
(0.01099999889 -2.021119505e-08 -2.135258183e-08)
(0.01099999292 -2.319781072e-08 -2.503770961e-08)
(0.01100000126 -5.299870841e-08 -5.496882918e-08)
(0.01100001773 -5.75242344e-08 -5.811192377e-08)
(0.01100000397 -1.075365961e-07 -1.059267052e-07)
(0.01100024043 -1.989099419e-07 -2.024370862e-07)
(0.01100000099 4.460202449e-11 -1.443898904e-09)
(0.01100000137 -2.541100114e-09 -9.54759668e-10)
(0.01099999862 -1.55320156e-09 -7.632769355e-10)
(0.01099999862 -8.297053198e-10 -1.789057577e-09)
(0.01099999783 2.861848484e-10 -5.086873778e-10)
(0.01099999858 -1.349021377e-09 -1.595436572e-09)
(0.01099999588 -2.446582677e-09 -4.11619506e-09)
(0.01099999543 -4.923498715e-09 -8.3138681e-09)
(0.01099998982 -7.696849571e-09 -1.237492626e-08)
(0.01099999673 -2.206776122e-08 -2.427915025e-08)
(0.01099997783 -3.169855258e-08 -2.470820098e-08)
(0.0109999961 -9.188907066e-08 -6.994972648e-08)
(0.01099998948 -1.159419767e-07 -3.887199489e-08)
(0.01099997144 -3.166575905e-07 -1.125730958e-07)
(0.01100024328 -5.097223685e-07 -2.447009973e-07)
(0.01099999992 2.116294601e-10 -8.377998223e-10)
(0.01099999834 -2.576667616e-11 -9.155665002e-10)
(0.011 -9.065081823e-10 -1.087632901e-10)
(0.0110000006 -1.321869929e-09 -6.434955377e-10)
(0.01099999719 7.548844105e-10 -2.087422403e-10)
(0.01099999619 4.006098148e-10 -3.733370681e-09)
(0.0109999941 6.17383825e-10 -5.368767988e-09)
(0.0109999923 1.103883558e-09 -1.026099464e-08)
(0.01099997525 -6.678947349e-10 -1.543653126e-08)
(0.01099997559 5.396978444e-10 -3.900894578e-08)
(0.01099991969 6.055708327e-11 -4.594225121e-08)
(0.01099991406 -4.007888094e-11 -1.630017958e-07)
(0.01099975302 -1.247551017e-09 -1.515698344e-07)
(0.01099969235 1.499926995e-10 -6.495288592e-07)
(0.01100043016 1.334151581e-09 -9.773430025e-07)
(0.01100000105 -7.991573748e-10 -1.122619772e-09)
(0.01099999975 1.450172479e-10 -1.200181993e-09)
(0.01100000079 -8.064445205e-11 -8.547684057e-10)
(0.01100000139 1.650390784e-10 -5.883608695e-10)
(0.0109999983 9.051426405e-10 -6.260398806e-10)
(0.01099999873 2.238686632e-09 -1.387091076e-09)
(0.01099999629 3.53831615e-09 -2.501346104e-09)
(0.01099999508 4.885201845e-09 -8.537551994e-09)
(0.01099998688 1.035367291e-08 -1.089091512e-08)
(0.01099999487 2.226302684e-08 -2.448156282e-08)
(0.01099998 3.043205094e-08 -2.484636334e-08)
(0.01099999437 9.280572858e-08 -6.877392288e-08)
(0.01099999037 1.185359255e-07 -3.873812301e-08)
(0.0109999743 3.168664938e-07 -1.144528036e-07)
(0.01100024278 5.103969063e-07 -2.443106445e-07)
(0.01099999992 1.201656381e-09 -3.773300536e-10)
(0.01100000254 9.91141648e-10 2.023534912e-11)
(0.01100000038 3.992925846e-11 -5.49469327e-10)
(0.0110000004 5.485581946e-10 -9.823423729e-11)
(0.01100000151 6.484897087e-10 1.477141617e-10)
(0.01099999834 2.477151516e-09 -1.142669644e-09)
(0.01099999587 4.056190209e-09 -2.24010277e-09)
(0.0109999986 7.788459108e-09 -7.606038618e-09)
(0.01099999419 1.227754277e-08 -7.938595046e-09)
(0.01099999857 2.073113881e-08 -1.834311637e-08)
(0.01099999436 2.577459262e-08 -2.39059858e-08)
(0.0110000018 5.476729526e-08 -5.480563158e-08)
(0.01100001711 5.713424944e-08 -5.933523264e-08)
(0.01100000358 1.08163091e-07 -1.072397633e-07)
(0.01100024283 2.033188657e-07 -2.028449097e-07)
(0.01099999984 6.328303161e-10 1.385545642e-11)
(0.01099999888 3.363002262e-10 -1.015802635e-09)
(0.01100000157 2.252770912e-09 4.267505869e-10)
(0.01100000008 2.55611365e-09 4.765116443e-10)
(0.01100000162 7.527191854e-10 5.023945118e-10)
(0.01100000111 1.500516551e-09 -1.013671664e-09)
(0.01100000229 2.939969721e-09 -8.961176225e-10)
(0.01100000459 5.660742317e-09 -4.277069094e-09)
(0.01100000343 7.737795513e-09 -7.024179897e-09)
(0.01100000913 1.632732338e-08 -1.229894079e-08)
(0.01100001567 1.981613899e-08 -1.743099317e-08)
(0.01100003087 4.195800524e-08 -3.010629042e-08)
(0.01100006591 5.574109468e-08 -3.634112881e-08)
(0.01100007184 8.643606875e-08 -4.202695832e-08)
(0.01100019811 1.516909379e-07 -7.624935949e-08)
(0.01100000009 -4.040040965e-10 -2.211148465e-09)
(0.01099999989 1.338975301e-09 -1.178516919e-09)
(0.01099999988 1.469720345e-09 -5.538331686e-10)
(0.01099999838 1.906275527e-09 -1.313672279e-09)
(0.0110000003 8.643150008e-10 3.027224823e-10)
(0.01100000034 -1.846267398e-10 -1.533753417e-09)
(0.01100000373 1.834629701e-09 -5.074960523e-09)
(0.0110000039 2.91790296e-09 -4.597509697e-09)
(0.0110000081 1.316761282e-09 -5.269227566e-09)
(0.01100001498 3.528496673e-09 -9.408759966e-09)
(0.01100002382 7.19916119e-09 -1.527288483e-08)
(0.01100004177 1.29737895e-08 -2.329439372e-08)
(0.01100007538 1.590312656e-08 -2.959264826e-08)
(0.01100009182 1.923945298e-08 -3.155735844e-08)
(0.01100017444 3.35102451e-08 -4.993162925e-08)
(0.01099999988 -3.833946692e-10 -2.390696365e-09)
(0.01099999959 -2.408080573e-09 -1.453263012e-09)
(0.01100000052 -3.101015525e-09 -2.033754948e-09)
(0.01100000039 -9.828513338e-10 -3.182943112e-09)
(0.01099999657 -1.195643882e-09 -1.585191418e-09)
(0.01100000143 9.400140783e-10 -6.426195243e-10)
(0.01100000266 -1.021541696e-09 -1.051068439e-09)
(0.01100000286 -3.941313711e-09 -2.643114453e-09)
(0.01100000629 -3.896612224e-09 -5.731129446e-09)
(0.01100001114 -8.685209497e-09 -1.080153301e-08)
(0.01100001995 -7.941566747e-09 -1.44765958e-08)
(0.01100003556 -1.49121025e-08 -2.781225574e-08)
(0.01100007035 -1.266649434e-08 -3.943105038e-08)
(0.01100008788 -1.811952664e-08 -5.767583754e-08)
(0.0110000005 -6.64885082e-10 -1.020767984e-09)
(0.01100000174 -1.203389108e-09 -1.351980961e-09)
(0.01100000114 -4.229059228e-10 -2.628133705e-09)
(0.01100000085 -6.855089714e-10 -2.859542459e-09)
(0.01099999891 -9.59851452e-10 -2.646964399e-09)
(0.01099999881 -1.735221047e-09 -5.823017922e-10)
(0.01100000001 -2.480237144e-09 -2.196714082e-09)
(0.01100000177 -6.108834464e-09 -3.664581411e-09)
(0.01100000056 -9.993507822e-09 -6.878197425e-09)
(0.01100001031 -1.763870336e-08 -1.34939292e-08)
(0.01100000946 -2.31412867e-08 -2.161781201e-08)
(0.0110000273 -5.460776077e-08 -4.444781252e-08)
(0.01100006212 -6.097433874e-08 -5.931203438e-08)
(0.01100006653 -1.148652628e-07 -1.101386608e-07)
(0.01100000002 3.548366032e-10 -1.725607722e-09)
(0.01100000258 2.604573813e-10 -1.830425332e-09)
(0.01099999884 -9.429045426e-10 -1.632231174e-09)
(0.01100000002 2.19015823e-10 -1.773366841e-09)
(0.01099999816 -1.664634714e-09 -1.652176768e-09)
(0.01099999882 -3.079495771e-09 -1.427531364e-09)
(0.01099999494 -4.851797784e-09 -2.592120843e-09)
(0.01099999692 -6.975805727e-09 -6.923901256e-09)
(0.01099999004 -1.078905107e-08 -9.705642381e-09)
(0.01099999447 -2.357005535e-08 -2.296889108e-08)
(0.01099997969 -2.483628003e-08 -3.306570545e-08)
(0.01099999654 -6.841812793e-08 -9.112964101e-08)
(0.0109999887 -3.777597078e-08 -1.156005158e-07)
(0.01099997342 -1.132206576e-07 -3.153441824e-07)
(0.01100000093 -7.3359316e-10 1.240426091e-11)
(0.01100000032 6.108463089e-10 -1.313861945e-09)
(0.01100000009 -6.420169175e-10 -1.748606851e-09)
(0.01100000135 -1.464998375e-09 -1.086962144e-09)
(0.0109999981 -6.687108444e-10 -9.443195935e-10)
(0.01099999809 2.16958665e-10 -3.39495974e-09)
(0.01099999539 -1.578345391e-09 -3.164874197e-09)
(0.0109999924 -4.944636332e-09 -8.311822833e-09)
(0.01099998254 -1.047975125e-08 -1.213918676e-08)
(0.01099999225 -3.13356614e-08 -3.372831548e-08)
(0.01099996009 -4.2028845e-08 -4.367881341e-08)
(0.01100002385 -1.544550521e-07 -1.539917324e-07)
(0.01099996272 -1.540923932e-07 -1.513401801e-07)
(0.01100006339 -6.531424617e-07 -6.520155478e-07)
(0.01099984506 -9.507583098e-07 -9.495346119e-07)
(0.01100000222 4.241594438e-10 -8.815707377e-10)
(0.0110000023 -1.541399908e-09 1.77717312e-10)
(0.01099999947 7.452480879e-11 -7.655469561e-10)
(0.0109999991 8.054176371e-10 3.421621513e-10)
(0.01099999692 3.54484742e-10 -2.165093909e-09)
(0.01099999654 -1.708577024e-09 -2.911275262e-09)
(0.01099998991 1.741480782e-09 -4.091809071e-09)
(0.01099998621 9.470107045e-10 -1.056248909e-08)
(0.01099996253 2.098564385e-09 -1.655374921e-08)
(0.01099996162 9.119228992e-10 -5.327792322e-08)
(0.0109998473 -2.26816338e-10 -8.095358336e-08)
(0.01099989059 -3.395503965e-10 -3.821140201e-07)
(0.01099936583 -8.335529789e-10 -5.13580997e-07)
(0.01099964042 -6.157494915e-10 -3.564238577e-06)
(0.01099918244 9.223712104e-10 -4.815539687e-06)
(0.01099999971 1.866277414e-10 1.183249124e-11)
(0.0110000014 -1.003773512e-10 -5.514349548e-10)
(0.01100000113 -8.272699592e-11 -5.813915867e-10)
(0.01100000155 7.592728223e-10 1.930341414e-10)
(0.01099999784 1.764027302e-09 -5.129593046e-10)
(0.01099999741 1.837850854e-09 -2.637211948e-09)
(0.01099999312 1.970521575e-09 -3.69850549e-09)
(0.01099999464 7.938254675e-09 -7.668652192e-09)
(0.01099998017 1.114701457e-08 -1.107943826e-08)
(0.01099999238 3.196419907e-08 -3.224479949e-08)
(0.01099996272 4.113395676e-08 -4.457886016e-08)
(0.01100002136 1.529108578e-07 -1.55734129e-07)
(0.0109999628 1.53897471e-07 -1.529304764e-07)
(0.01100006479 6.525800565e-07 -6.527222685e-07)
(0.01099984481 9.512711118e-07 -9.524722829e-07)
(0.01099999934 6.152408621e-10 4.02559576e-10)
(0.01100000146 9.313113684e-10 -9.183628315e-10)
(0.01100000185 1.719364998e-09 -2.480796255e-10)
(0.01099999842 1.753771756e-09 3.750453885e-10)
(0.01100000032 2.818200347e-09 -1.462194309e-09)
(0.01099999645 4.116411158e-09 -1.537838229e-09)
(0.01099999682 4.444467184e-09 -2.751711512e-09)
(0.01099999761 7.441398165e-09 -4.952134424e-09)
(0.01099999029 1.111872342e-08 -9.071678647e-09)
(0.01099999219 2.50749855e-08 -2.146669478e-08)
(0.01099997749 2.636934678e-08 -3.135243413e-08)
(0.01099999798 6.935172195e-08 -9.331170341e-08)
(0.0109999892 3.745360127e-08 -1.170812304e-07)
(0.01099997564 1.141129999e-07 -3.184233576e-07)
(0.01100024143 2.433347106e-07 -5.112476779e-07)
(0.01099999902 8.623989155e-10 -1.130033952e-10)
(0.01099999921 8.5305257e-10 6.070480904e-10)
(0.01100000307 1.351665491e-09 -8.58797837e-10)
(0.01100000077 7.677363446e-10 -1.258387635e-10)
(0.01100000061 1.927792166e-10 -9.423671285e-10)
(0.01099999947 2.117767952e-09 -2.720215324e-10)
(0.0109999997 1.218729539e-09 -2.58318104e-09)
(0.01099999997 6.025590414e-09 -4.595033596e-09)
(0.01100000018 8.426637915e-09 -7.753772219e-09)
(0.01100000515 1.93315074e-08 -1.379681021e-08)
(0.01100001116 2.295490843e-08 -1.902051874e-08)
(0.01100002884 5.59491826e-08 -4.631518625e-08)
(0.01100006464 6.022446782e-08 -5.822774479e-08)
(0.01100006618 1.150394985e-07 -1.118628784e-07)
(0.01100021627 2.141037721e-07 -1.753098028e-07)
(0.01100000046 -9.22287651e-10 2.819876431e-10)
(0.01099999978 7.142173505e-10 -3.133541371e-10)
(0.01099999861 -1.096998844e-10 4.341599131e-10)
(0.01100000137 -1.048054826e-09 -3.800574594e-10)
(0.01099999979 1.722442017e-11 -1.914454058e-10)
(0.01100000062 -4.960802715e-10 -4.190004487e-10)
(0.01100000099 3.136935017e-10 -1.663953264e-09)
(0.01100000333 4.069672233e-10 -5.055280192e-09)
(0.01100000598 3.927939539e-09 -5.767668336e-09)
(0.01100000952 7.040437407e-09 -9.971882988e-09)
(0.01100001974 8.514682593e-09 -1.365500312e-08)
(0.01100003652 1.631950217e-08 -2.839285245e-08)
(0.0110000727 1.643950887e-08 -3.835923444e-08)
(0.01100008536 2.081519105e-08 -5.92751251e-08)
(0.01100019106 4.032514199e-08 -8.94368484e-08)
(0.01099999965 2.250264071e-09 -1.346306429e-09)
(0.01099999849 1.35450699e-10 -8.570903796e-10)
(0.01100000179 -1.007599361e-09 -1.348707565e-09)
(0.01100000031 -1.744971009e-09 -2.090889829e-09)
(0.01100000041 -1.017494718e-09 -2.021153692e-09)
(0.01099999952 8.255584826e-10 -1.101860343e-09)
(0.01100000105 -1.029825097e-09 -9.665772104e-10)
(0.01100000055 -1.368308292e-09 -2.856057477e-09)
(0.01100000068 -4.340771609e-09 -3.526418374e-09)
(0.01100000396 -1.137058154e-08 -4.605297134e-10)
(0.01100000589 -1.191688385e-08 -2.860651957e-11)
(0.01100001291 -2.542467633e-08 5.127281027e-11)
(0.01100003981 -3.248708986e-08 5.578352195e-11)
(0.0110000407 -6.722431437e-08 1.439722379e-09)
(0.01100000082 -2.892861702e-10 -4.630962796e-11)
(0.01099999948 -3.549748005e-10 -1.093821326e-09)
(0.01100000033 4.124827696e-10 -1.704914972e-09)
(0.01100000107 -5.484268299e-10 -9.222976919e-10)
(0.01100000017 -1.44172887e-09 1.334840496e-09)
(0.01100000066 -1.852429834e-09 -2.479801226e-09)
(0.01099999758 -2.429598388e-09 -8.683085486e-10)
(0.01099999625 -6.394064525e-09 -1.227909099e-09)
(0.01099999321 -1.222064195e-08 -1.869778729e-09)
(0.01099999678 -2.596826421e-08 -5.272958977e-10)
(0.01099998432 -3.84480117e-08 -7.858338921e-10)
(0.01099999071 -1.036466051e-07 -9.144493555e-10)
(0.01099998811 -1.31285708e-07 -3.487325533e-10)
(0.01099996983 -3.389659256e-07 1.860070402e-10)
(0.01100000022 -3.95105323e-10 1.947028928e-10)
(0.01100000042 -9.832360585e-10 -2.324856276e-09)
(0.01099999997 -6.786086858e-11 -1.032232545e-09)
(0.01100000206 3.853295421e-10 -1.166238127e-09)
(0.01099999926 -1.037319094e-09 -1.540182934e-10)
(0.01099999741 -1.663421539e-09 -8.988914843e-10)
(0.01099999409 -3.959709721e-09 -1.021779666e-09)
(0.0109999909 -1.152502533e-08 2.888544011e-10)
(0.01099997744 -1.411529162e-08 -1.153572068e-10)
(0.01099997273 -3.817474838e-08 6.510155797e-12)
(0.01099991857 -4.669251546e-08 -7.314241745e-10)
(0.01099991713 -1.644629991e-07 -2.098881474e-09)
(0.01099975157 -1.509231783e-07 -1.54102461e-10)
(0.01099969271 -6.497176028e-07 -1.264885323e-09)
(0.01099999752 1.228082818e-09 -1.000497331e-09)
(0.01100000035 1.671685151e-09 -1.440522354e-09)
(0.01100000051 8.016606091e-10 -5.134286854e-10)
(0.0109999982 3.000839737e-10 1.299289983e-10)
(0.01099999677 5.623766504e-10 1.853483174e-09)
(0.01099999709 -2.218813302e-09 3.912964225e-10)
(0.01099998982 -4.506848188e-09 -4.239391774e-10)
(0.01099998722 -8.37767541e-09 -2.540244626e-10)
(0.01099996167 -1.445276043e-08 5.578192865e-10)
(0.01099996001 -5.172431262e-08 -1.24392038e-10)
(0.01099984921 -7.830317446e-08 2.431342555e-10)
(0.01099988963 -3.813664299e-07 -7.559025247e-10)
(0.01099936869 -5.155536413e-07 1.684557625e-10)
(0.01099963801 -3.564816549e-06 -8.944249098e-10)
(0.01100000026 -2.280473807e-10 3.174078503e-10)
(0.01100000089 7.673194783e-10 -1.519488057e-09)
(0.01099999953 1.711461341e-09 -6.887238971e-10)