/*--------------------------------*- C++ -*----------------------------------*\
| =========                 |                                                 |
| \\      /  F ield         | OpenFOAM: The Open Source CFD Toolbox           |
|  \\    /   O peration     | Version:  4.x                                   |
|   \\  /    A nd           | Web:      www.OpenFOAM.org                      |
|    \\/     M anipulation  |                                                 |
\*---------------------------------------------------------------------------*/
FoamFile
{
    version     2.0;
    format      ascii;
    class       volScalarField;
    location    "11000";
    object      X_H2O;
}
// * * * * * * * * * * * * * * * * * * * * * * * * * * * * * * * * * * * * * //

dimensions      [0 0 0 0 0 0 0];

internalField   nonuniform List<scalar> 
1175
(
1.504136214e-05
1.504136195e-05
1.50413626e-05
1.504136391e-05
1.504137365e-05
1.504140105e-05
1.504149532e-05
1.5041796e-05
1.50427274e-05
1.504548296e-05
1.505318491e-05
1.507329601e-05
1.512163207e-05
1.522683222e-05
1.54310442e-05
1.504136206e-05
1.504136225e-05
1.504136222e-05
1.504136517e-05
1.504137452e-05
1.504141133e-05
1.504153653e-05
1.504194927e-05
1.504328194e-05
1.504738031e-05
1.50593099e-05
1.509169467e-05
1.517217638e-05
1.535109191e-05
1.569830899e-05
1.504136211e-05
1.50413612e-05
1.504136427e-05
1.504136664e-05
1.504138122e-05
1.504143058e-05
1.504160928e-05
1.504222735e-05
1.504430195e-05
1.505098363e-05
1.50713644e-05
1.512930275e-05
1.527935251e-05
1.562254746e-05
1.628998212e-05
1.504136054e-05
1.504136075e-05
1.504136067e-05
1.504136647e-05
1.504138463e-05
1.504145053e-05
1.504168475e-05
1.504252519e-05
1.504543912e-05
1.505518778e-05
1.508617435e-05
1.517817542e-05
1.542676115e-05
1.601469877e-05
1.716585436e-05
1.50413625e-05
1.50413628e-05
1.504136333e-05
1.504136914e-05
1.504138735e-05
1.504145696e-05
1.504171912e-05
1.504266322e-05
1.504599589e-05
1.505736205e-05
1.509434645e-05
1.520728364e-05
1.552225807e-05
1.629019273e-05
1.78119508e-05
1.504136197e-05
1.504136145e-05
1.50413634e-05
1.504136706e-05
1.504138547e-05
1.504144894e-05
1.504168527e-05
1.504252405e-05
1.504544164e-05
1.505518873e-05
1.508617367e-05
1.517817397e-05
1.542675725e-05
1.601468915e-05
1.716582589e-05
1.504136059e-05
1.504136157e-05
1.504136328e-05
1.504136835e-05
1.504138257e-05
1.504143122e-05
1.504161069e-05
1.504222877e-05
1.504430569e-05
1.505098719e-05
1.507136581e-05
1.512930323e-05
1.527934663e-05
1.562252788e-05
1.62899361e-05
1.504136191e-05
1.504136274e-05
1.504136351e-05
1.504136603e-05
1.504137601e-05
1.50414116e-05
1.504153588e-05
1.504195117e-05
1.504328288e-05
1.504738073e-05
1.505931014e-05
1.509169437e-05
1.517216961e-05
1.535107114e-05
1.569825956e-05
1.504136285e-05
1.504136193e-05
1.504136249e-05
1.504136442e-05
1.504137165e-05
1.504140115e-05
1.504149503e-05
1.504179445e-05
1.504272898e-05
1.504548404e-05
1.50531859e-05
1.507329645e-05
1.512162613e-05
1.522681441e-05
1.543099838e-05
1.50413636e-05
1.504136311e-05
1.504136255e-05
1.504136558e-05
1.504137665e-05
1.504141231e-05
1.504153731e-05
1.504195166e-05
1.504328385e-05
1.504737972e-05
1.505930953e-05
1.509169726e-05
1.517218465e-05
1.535112403e-05
1.504136161e-05
1.50413619e-05
1.504136333e-05
1.504136548e-05
1.504137989e-05
1.504142738e-05
1.504160007e-05
1.50421993e-05
1.504422194e-05
1.505077425e-05
1.507092225e-05
1.512869228e-05
1.527954379e-05
1.562670005e-05
1.630237825e-05
1.504136141e-05
1.504136206e-05
1.504136335e-05
1.504136854e-05
1.50413863e-05
1.504145629e-05
1.504171542e-05
1.504266223e-05
1.504603518e-05
1.505762673e-05
1.509557394e-05
1.521161193e-05
1.553378197e-05
1.631130263e-05
1.783954398e-05
1.50413617e-05
1.504136263e-05
1.504136273e-05
1.504136904e-05
1.50413929e-05
1.504148516e-05
1.504183736e-05
1.504318395e-05
1.504819853e-05
1.506634184e-05
1.512929389e-05
1.533460556e-05
1.594452417e-05
1.750917164e-05
2.065879789e-05
1.504136118e-05
1.504136052e-05
1.504136317e-05
1.504136924e-05
1.504139529e-05
1.504149904e-05
1.50418969e-05
1.504344427e-05
1.504934609e-05
1.507134829e-05
1.51506356e-05
1.54219578e-05
1.627701177e-05
1.861978297e-05
2.354852102e-05
1.504136324e-05
1.504136237e-05
1.504136476e-05
1.504136985e-05
1.504139202e-05
1.504148388e-05
1.504183818e-05
1.504318452e-05
1.504819867e-05
1.506634211e-05
1.512929319e-05
1.53346022e-05
1.594451087e-05
1.750911844e-05
2.065864761e-05
1.504136212e-05
1.50413622e-05
1.504136448e-05
1.504136807e-05
1.50413872e-05
1.504145648e-05
1.504171675e-05
1.50426643e-05
1.504603654e-05
1.505762794e-05
1.509557195e-05
1.521160605e-05
1.553376062e-05
1.631122451e-05
1.783934544e-05
1.504136257e-05
1.504136171e-05
1.50413627e-05
1.504136505e-05
1.504138036e-05
1.504142765e-05
1.504159986e-05
1.504219974e-05
1.504422345e-05
1.505077418e-05
1.507092024e-05
1.51286849e-05
1.527952329e-05
1.5626634e-05
1.630220515e-05
1.504136302e-05
1.504136202e-05
1.504136378e-05
1.504136726e-05
1.504137664e-05
1.504141246e-05
1.504153594e-05
1.504195078e-05
1.504328253e-05
1.504738146e-05
1.505930989e-05
1.509169471e-05
1.517217249e-05
1.535107295e-05
1.569826429e-05
1.504136404e-05
1.504136364e-05
1.504136475e-05
1.504136908e-05
1.504138218e-05
1.504143011e-05
1.504160962e-05
1.504222828e-05
1.504430571e-05
1.505098688e-05
1.507136833e-05
1.512931154e-05
1.527937834e-05
1.562263332e-05
1.504136373e-05
1.504136191e-05
1.504136342e-05
1.504136875e-05
1.504138657e-05
1.504145657e-05
1.504171333e-05
1.504266085e-05
1.504603644e-05
1.505762859e-05
1.509557538e-05
1.521162019e-05
1.553381844e-05
1.631144299e-05
1.504136289e-05
1.504136213e-05
1.504136463e-05
1.504137183e-05
1.504139774e-05
1.5041502e-05
1.504191352e-05
1.504350603e-05
1.50495694e-05
1.507199318e-05
1.515150064e-05
1.541626857e-05
1.621753373e-05
1.830204249e-05
2.251585964e-05
1.504136329e-05
1.504136449e-05
1.504136584e-05
1.504137476e-05
1.504140734e-05
1.504154911e-05
1.50421355e-05
1.504451863e-05
1.505412137e-05
1.509209911e-05
1.523768427e-05
1.576804774e-05
1.754274697e-05
2.265836949e-05
3.368394214e-05
1.504136426e-05
1.504136557e-05
1.504136655e-05
1.50413746e-05
1.504141379e-05
1.504157328e-05
1.50422454e-05
1.504505875e-05
1.505677447e-05
1.510515304e-05
1.530156484e-05
1.607374091e-05
1.892950801e-05
2.826584707e-05
5.106701284e-05
1.504136105e-05
1.504136334e-05
1.504136431e-05
1.504137279e-05
1.504140755e-05
1.504155026e-05
1.504213476e-05
1.504451859e-05
1.505412187e-05
1.509209934e-05
1.523768135e-05
1.576802983e-05
1.754266655e-05
2.265804962e-05
3.368298419e-05
1.504136212e-05
1.504136262e-05
1.504136387e-05
1.504137047e-05
1.504139768e-05
1.504150401e-05
1.504191335e-05
1.504350578e-05
1.504956935e-05
1.507199144e-05
1.515149481e-05
1.541624676e-05
1.621744366e-05
1.830170253e-05
2.251484582e-05
1.504136269e-05
1.504136358e-05
1.504136313e-05
1.504136906e-05
1.504138627e-05
1.504145593e-05
1.504171479e-05
1.504266205e-05
1.504603555e-05
1.505762916e-05
1.509557308e-05
1.521160832e-05
1.553376428e-05
1.631123008e-05
1.78393453e-05
1.504136309e-05
1.504136374e-05
1.504136393e-05
1.504136795e-05
1.5041382e-05
1.504143312e-05
1.504161118e-05
1.504222881e-05
1.50443046e-05
1.505098622e-05
1.507136593e-05
1.512930464e-05
1.527935169e-05
1.562253515e-05
1.628994112e-05
1.504136377e-05
1.504136506e-05
1.504136518e-05
1.504136923e-05
1.504138752e-05
1.504145107e-05
1.504168586e-05
1.504252502e-05
1.504544146e-05
1.505519106e-05
1.50861808e-05
1.517819184e-05
1.542681672e-05
1.601486869e-05
1.50413636e-05
1.504136404e-05
1.50413646e-05
1.504137085e-05
1.50413952e-05
1.504148633e-05
1.504183881e-05
1.50431844e-05
1.504819836e-05
1.506634349e-05
1.51293014e-05
1.533463536e-05
1.594463817e-05
1.750957058e-05
1.504136203e-05
1.504136149e-05
1.504136598e-05
1.504137331e-05
1.50414083e-05
1.504155145e-05
1.504213546e-05
1.504451704e-05
1.505412091e-05
1.509210263e-05
1.523769313e-05
1.576809188e-05
1.754294704e-05
2.265929366e-05
1.504136234e-05
1.504136466e-05
1.504136633e-05
1.504137594e-05
1.504142137e-05
1.504162269e-05
1.504248469e-05
1.504621193e-05
1.506233791e-05
1.513177647e-05
1.542665088e-05
1.664144509e-05
2.134653306e-05
3.73812583e-05
7.763846454e-05
1.504136464e-05
1.504136395e-05
1.504136674e-05
1.504137835e-05
1.504143124e-05
1.504165896e-05
1.50426681e-05
1.504718464e-05
1.506761916e-05
1.516117147e-05
1.559354995e-05
1.759663868e-05
2.672944356e-05
6.578150237e-05
0.0001988444697
1.504136464e-05
1.504136405e-05
1.504136509e-05
1.50413754e-05
1.504142353e-05
1.504162388e-05
1.504248527e-05
1.504621287e-05
1.506233844e-05
1.51317727e-05
1.54266404e-05
1.664138961e-05
2.134623444e-05
3.737974064e-05
7.763219896e-05
1.504136372e-05
1.504136266e-05
1.504136469e-05
1.504137361e-05
1.504140852e-05
1.504155056e-05
1.504213532e-05
1.504451757e-05
1.505412128e-05
1.509210081e-05
1.52376841e-05
1.576804319e-05
1.754271041e-05
2.265813837e-05
3.368305279e-05
1.504136296e-05
1.504136276e-05
1.504136394e-05
1.504137001e-05
1.504139397e-05
1.504148508e-05
1.504183965e-05
1.504318595e-05
1.504819909e-05
1.506634338e-05
1.512929473e-05
1.533460676e-05
1.594452292e-05
1.750913553e-05
2.06586333e-05
1.504136334e-05
1.504136416e-05
1.504136482e-05
1.504136867e-05
1.504138547e-05
1.504144978e-05
1.504168603e-05
1.504252689e-05
1.504544221e-05
1.505519002e-05
1.508617579e-05
1.517817852e-05
1.542676646e-05
1.60147016e-05
1.716582654e-05
1.504136341e-05
1.504136452e-05
1.50413656e-05
1.504136962e-05
1.504138814e-05
1.504145918e-05
1.504171958e-05
1.504266407e-05
1.504599814e-05
1.50573649e-05
1.509435526e-05
1.520731011e-05
1.552233791e-05
1.62904271e-05
1.504136273e-05
1.504136426e-05
1.504136559e-05
1.504137186e-05
1.504139847e-05
1.504149933e-05
1.504189746e-05
1.504344534e-05
1.504934522e-05
1.507135077e-05
1.515064926e-05
1.542200673e-05
1.627719376e-05
1.862042583e-05
1.504136366e-05
1.504136394e-05
1.504136498e-05
1.504137486e-05
1.504141313e-05
1.504157338e-05
1.504224436e-05
1.504505931e-05
1.505677629e-05
1.510515841e-05
1.530158806e-05
1.607384198e-05
1.892999462e-05
2.826807774e-05
1.504136412e-05
1.50413633e-05
1.504136596e-05
1.504137992e-05
1.504143096e-05
1.504165908e-05
1.504266874e-05
1.504718417e-05
1.506761989e-05
1.516117597e-05
1.559357729e-05
1.759679422e-05
2.673044505e-05
6.578838918e-05
1.504136331e-05
1.504136371e-05
1.504136644e-05
1.50413811e-05
1.504143944e-05
1.504170203e-05
1.504289716e-05
1.504847117e-05
1.507516214e-05
1.520781193e-05
1.589882039e-05
1.971448987e-05
4.228305044e-05
0.0001862810424
0.001182844315
1.504136477e-05
1.504136464e-05
1.504136712e-05
1.50413784e-05
1.504143049e-05
1.504165849e-05
1.504266912e-05
1.504718383e-05
1.506761904e-05
1.516117388e-05
1.55935637e-05
1.759669823e-05
2.672971476e-05
6.578252787e-05
0.0001988452281
1.504136286e-05
1.504136438e-05
1.504136625e-05
1.504137593e-05
1.504141512e-05
1.504157489e-05
1.504224659e-05
1.504505993e-05
1.505677492e-05
1.510515368e-05
1.530157437e-05
1.607377636e-05
1.892962787e-05
2.826613467e-05
5.106709226e-05
1.504136217e-05
1.504136344e-05
1.504136662e-05
1.504137311e-05
1.504139742e-05
1.504149871e-05
1.504189799e-05
1.504344572e-05
1.504934767e-05
1.507135038e-05
1.515064157e-05
1.54219709e-05
1.627704619e-05
1.861983651e-05
2.354849381e-05
1.504136191e-05
1.504136265e-05
1.504136514e-05
1.504136912e-05
1.504138646e-05
1.504145905e-05
1.504171993e-05
1.504266423e-05
1.504599952e-05
1.505736463e-05
1.509434997e-05
1.520729156e-05
1.552227369e-05
1.629021586e-05
1.781195331e-05
1.504136461e-05
1.5041364e-05
1.504136401e-05
1.504137006e-05
1.504138551e-05
1.504145008e-05
1.504168631e-05
1.504252463e-05
1.50454423e-05
1.505519099e-05
1.508618031e-05
1.517819501e-05
1.542682621e-05
1.601487758e-05
1.504136524e-05
1.504136527e-05
1.50413667e-05
1.504137133e-05
1.504139367e-05
1.504148436e-05
1.504183762e-05
1.50431841e-05
1.504820025e-05
1.50663482e-05
1.512930363e-05
1.533464239e-05
1.594465498e-05
1.750957566e-05
1.504136515e-05
1.504136398e-05
1.504136686e-05
1.504137344e-05
1.504140649e-05
1.504154902e-05
1.504213507e-05
1.504451838e-05
1.505412257e-05
1.509210547e-05
1.523770199e-05
1.576812301e-05
1.754304911e-05
2.265944824e-05
1.504136448e-05
1.504136377e-05
1.504136562e-05
1.504137739e-05
1.504142338e-05
1.504162168e-05
1.50424852e-05
1.504621334e-05
1.506233943e-05
1.513178216e-05
1.542667553e-05
1.664155459e-05
2.134704257e-05
3.738344037e-05
1.504136385e-05
1.50413645e-05
1.504136674e-05
1.504137924e-05
1.504143145e-05
1.504165853e-05
1.504266828e-05
1.504718514e-05
1.506762156e-05
1.51611818e-05
1.559359713e-05
1.759687569e-05
2.67307829e-05
6.578947767e-05
1.504136411e-05
1.504136515e-05
1.504136585e-05
1.504137626e-05
1.504142318e-05
1.504162144e-05
1.504248425e-05
1.504621227e-05
1.506234035e-05
1.513177941e-05
1.542667063e-05
1.66415309e-05
2.134689427e-05
3.738286655e-05
1.504136233e-05
1.50413643e-05
1.504136576e-05
1.504137565e-05
1.504140716e-05
1.50415499e-05
1.504213553e-05
1.504451979e-05
1.505412196e-05
1.509210218e-05
1.523769704e-05
1.576809422e-05
1.754290007e-05
2.265881072e-05
3.368515942e-05
1.50413621e-05
1.50413629e-05
1.504136607e-05
1.504137066e-05
1.504139276e-05
1.504148678e-05
1.504183918e-05
1.504318527e-05
1.504820053e-05
1.506634649e-05
1.512930001e-05
1.533462212e-05
1.594457378e-05
1.750928042e-05
2.065896147e-05
1.504136291e-05
1.504136241e-05
1.50413623e-05
1.504136813e-05
1.504138693e-05
1.50414522e-05
1.504168568e-05
1.504252592e-05
1.50454427e-05
1.505519063e-05
1.508617802e-05
1.517818329e-05
1.542678096e-05
1.601473838e-05
1.716590032e-05
1.50413636e-05
1.50413632e-05
1.504136547e-05
1.504136912e-05
1.504138114e-05
1.504143267e-05
1.504161133e-05
1.504222829e-05
1.504430582e-05
1.505098841e-05
1.507137053e-05
1.512931758e-05
1.527938875e-05
1.562264082e-05
1.504136341e-05
1.504136351e-05
1.504136649e-05
1.504136949e-05
1.504138726e-05
1.504145664e-05
1.504171598e-05
1.504266194e-05
1.504603688e-05
1.50576302e-05
1.509558068e-05
1.521163287e-05
1.553384476e-05
1.631146467e-05
1.504136507e-05
1.504136534e-05
1.504136533e-05
1.504137149e-05
1.504139636e-05
1.504150262e-05
1.504191213e-05
1.504350564e-05
1.504957024e-05
1.507199576e-05
1.515151106e-05
1.541630226e-05
1.621763616e-05
1.830231172e-05
1.504136371e-05
1.504136431e-05
1.50413659e-05
1.504137464e-05
1.504140784e-05
1.504155131e-05
1.50421356e-05
1.504451875e-05
1.505412362e-05
1.509210553e-05
1.523770636e-05
1.576813576e-05
1.754307433e-05
2.265946112e-05
1.50413634e-05
1.504136468e-05
1.504136786e-05
1.504137612e-05
1.504141221e-05
1.504157321e-05
1.504224833e-05
1.504506086e-05
1.505677767e-05
1.510516182e-05
1.530160177e-05
1.607388934e-05
1.893013047e-05
2.826829167e-05
1.504136185e-05
1.504136446e-05
1.504136498e-05
1.504137348e-05
1.504140683e-05
1.504154989e-05
1.504213468e-05
1.504451797e-05
1.505412333e-05
1.50921053e-05
1.523770447e-05
1.576812833e-05
1.754304519e-05
2.265936715e-05
1.504136289e-05
1.504136281e-05
1.504136501e-05
1.504137307e-05
1.504139802e-05
1.504150258e-05
1.504191308e-05
1.504350479e-05
1.50495685e-05
1.507199422e-05
1.51515087e-05
1.541629524e-05
1.621760955e-05
1.830226998e-05
1.504136336e-05
1.504136374e-05
1.504136531e-05
1.504136848e-05
1.504138644e-05
1.504145679e-05
1.504171625e-05
1.504266109e-05
1.504603584e-05
1.505762884e-05
1.509557775e-05
1.521162554e-05
1.553381613e-05
1.631137836e-05
1.783971845e-05
1.504136192e-05
1.504136256e-05
1.504136361e-05
1.504136825e-05
1.504138182e-05
1.504143202e-05
1.504161056e-05
1.504222839e-05
1.504430523e-05
1.505098536e-05
1.507136681e-05
1.512931033e-05
1.527936871e-05
1.562257981e-05
1.629002813e-05
1.504136159e-05
1.504136283e-05
1.504136298e-05
1.504136593e-05
1.504137766e-05
1.504141459e-05
1.504153867e-05
1.504195202e-05
1.504328505e-05
1.504738371e-05
1.505931328e-05
1.509170238e-05
1.517219339e-05
1.535112799e-05
1.504136528e-05
1.50413646e-05
1.504136434e-05
1.504136741e-05
1.504138254e-05
1.504142926e-05
1.504160099e-05
1.504220044e-05
1.504422268e-05
1.505077675e-05
1.507092481e-05
1.512870065e-05
1.527956734e-05
1.562674592e-05
1.504136611e-05
1.504136429e-05
1.504136416e-05
1.504137005e-05
1.50413889e-05
1.504145728e-05
1.504171731e-05
1.504266305e-05
1.504603543e-05
1.505763034e-05
1.509558065e-05
1.521163438e-05
1.553384939e-05
1.631146821e-05
1.504136396e-05
1.504136315e-05
1.504136467e-05
1.50413719e-05
1.504139412e-05
1.504148478e-05
1.504183858e-05
1.504318452e-05
1.504820061e-05
1.506634906e-05
1.512930725e-05
1.533464957e-05
1.594466922e-05
1.75095832e-05
1.504136438e-05
1.504136449e-05
1.504136721e-05
1.504137147e-05
1.504139738e-05
1.504149788e-05
1.504189844e-05
1.504344403e-05
1.504934759e-05
1.507135376e-05
1.515065503e-05
1.542202053e-05
1.627722808e-05
1.86204515e-05
1.504136087e-05
1.504136426e-05
1.50413656e-05
1.504136939e-05
1.504139243e-05
1.504148375e-05
1.504183871e-05
1.504318463e-05
1.50482001e-05
1.506634778e-05
1.51293056e-05
1.533464805e-05
1.594466138e-05
1.750955938e-05
1.504136211e-05
1.50413625e-05
1.504136346e-05
1.504136884e-05
1.50413865e-05
1.504145585e-05
1.504171518e-05
1.504266342e-05
1.504603622e-05
1.505763041e-05
1.509558099e-05
1.521163206e-05
1.553383864e-05
1.63114525e-05
1.504136439e-05
1.504136388e-05
1.504136286e-05
1.504136743e-05
1.50413812e-05
1.504142947e-05
1.504160262e-05
1.504219944e-05
1.504422241e-05
1.505077661e-05
1.50709241e-05
1.512869993e-05
1.527955998e-05
1.562674056e-05
1.504136264e-05
1.504136215e-05
1.504136389e-05
1.50413675e-05
1.504137732e-05
1.50414136e-05
1.504153682e-05
1.504195104e-05
1.504328292e-05
1.504738121e-05
1.505931096e-05
1.509169829e-05
1.517218605e-05
1.535111028e-05
1.569834997e-05
1.50413634e-05
1.504136328e-05
1.504136405e-05
1.504136536e-05
1.504137459e-05
1.504140361e-05
1.504149572e-05
1.504179711e-05
1.50427289e-05
1.504548486e-05
1.505318907e-05
1.507330143e-05
1.512164241e-05
1.522684995e-05
1.504136319e-05
1.50413635e-05
1.504136573e-05
1.504136933e-05
1.504137694e-05
1.504141333e-05
1.504153745e-05
1.504195143e-05
1.50432837e-05
1.504738252e-05
1.505931214e-05
1.509170257e-05
1.517219467e-05
1.535113083e-05
1.50413651e-05
1.504136366e-05
1.504136434e-05
1.50413692e-05
1.504138367e-05
1.504143234e-05
1.504161034e-05
1.504222939e-05
1.504430487e-05
1.505098655e-05
1.507137065e-05
1.512931934e-05
1.527939008e-05
1.562264227e-05
1.504136455e-05
1.504136379e-05
1.504136449e-05
1.504136952e-05
1.50413869e-05
1.5041452e-05
1.504168399e-05
1.504252382e-05
1.504544129e-05
1.505519314e-05
1.508618169e-05
1.517819895e-05
1.542683027e-05
1.601487882e-05
1.504136369e-05
1.504136289e-05
1.504136603e-05
1.504136951e-05
1.504138759e-05
1.504145804e-05
1.504171869e-05
1.504266334e-05
1.504599826e-05
1.505736491e-05
1.509435738e-05
1.520731615e-05
1.55223487e-05
1.6290431e-05
1.504136222e-05
1.504136183e-05
1.504136274e-05
1.504136722e-05
1.50413853e-05
1.504144966e-05
1.50416844e-05
1.504252611e-05
1.504544268e-05
1.505519158e-05
1.508618149e-05
1.517819699e-05
1.542682601e-05
1.601486544e-05
1.504136157e-05
1.504136195e-05
1.504136272e-05
1.50413666e-05
1.504138056e-05
1.50414303e-05
1.504161043e-05
1.504222988e-05
1.504430627e-05
1.505098849e-05
1.507137116e-05
1.512931782e-05
1.527938646e-05
1.56226311e-05
1.504136336e-05
1.504136369e-05
1.504136336e-05
1.504136739e-05
1.50413773e-05
1.504141432e-05
1.50415377e-05
1.504195189e-05
1.50432849e-05
1.504738369e-05
1.505931303e-05
1.509170108e-05
1.517219152e-05
1.535112739e-05
1.50413635e-05
1.504136412e-05
1.504136455e-05
1.504136676e-05
1.504137488e-05
1.504140415e-05
1.504149605e-05
1.504179798e-05
1.504272956e-05
1.504548367e-05
1.505318578e-05
1.507329909e-05
1.512163877e-05
1.522684918e-05
)
;

boundaryField
{
    top
    {
        type            calculated;
        value           nonuniform List<scalar> 
134
(
1.504136285e-05
1.504136302e-05
1.504136309e-05
1.504136334e-05
1.504136191e-05
1.504136291e-05
1.504136192e-05
1.504136264e-05
1.50413635e-05
1.504136193e-05
1.504136202e-05
1.504136374e-05
1.504136416e-05
1.504136265e-05
1.504136241e-05
1.504136256e-05
1.504136215e-05
1.504136412e-05
1.504136249e-05
1.504136378e-05
1.504136393e-05
1.504136482e-05
1.504136514e-05
1.50413623e-05
1.504136361e-05
1.504136389e-05
1.504136455e-05
1.504136442e-05
1.504136726e-05
1.504136795e-05
1.504136867e-05
1.504136912e-05
1.504136813e-05
1.504136825e-05
1.50413675e-05
1.504136676e-05
1.504137165e-05
1.504137664e-05
1.5041382e-05
1.504138547e-05
1.504138646e-05
1.504138693e-05
1.504138182e-05
1.504137732e-05
1.504137488e-05
1.504140115e-05
1.504141246e-05
1.504143312e-05
1.504144978e-05
1.504145905e-05
1.50414522e-05
1.504143202e-05
1.50414136e-05
1.504140415e-05
1.504149503e-05
1.504153594e-05
1.504161118e-05
1.504168603e-05
1.504171993e-05
1.504168568e-05
1.504161056e-05
1.504153682e-05
1.504149605e-05
1.504179445e-05
1.504195078e-05
1.504222881e-05
1.504252689e-05
1.504266423e-05
1.504252592e-05
1.504222839e-05
1.504195104e-05
1.504179798e-05
1.504272898e-05
1.504328253e-05
1.50443046e-05
1.504544221e-05
1.504599952e-05
1.50454427e-05
1.504430523e-05
1.504328292e-05
1.504272956e-05
1.504548404e-05
1.504738146e-05
1.505098622e-05
1.505519002e-05
1.505736463e-05
1.505519063e-05
1.505098536e-05
1.504738121e-05
1.504548367e-05
1.50531859e-05
1.505930989e-05
1.507136593e-05
1.508617579e-05
1.509434997e-05
1.508617802e-05
1.507136681e-05
1.505931096e-05
1.505318578e-05
1.507329645e-05
1.509169471e-05
1.512930464e-05
1.517817852e-05
1.520729156e-05
1.517818329e-05
1.512931033e-05
1.509169829e-05
1.507329909e-05
1.512162613e-05
1.517217249e-05
1.527935169e-05
1.542676646e-05
1.552227369e-05
1.542678096e-05
1.527936871e-05
1.517218605e-05
1.512163877e-05
1.522681441e-05
1.535107295e-05
1.562253515e-05
1.60147016e-05
1.629021586e-05
1.601473838e-05
1.562257981e-05
1.535111028e-05
1.522684918e-05
1.543099838e-05
1.569826429e-05
1.628994112e-05
1.716582654e-05
1.781195331e-05
1.716590032e-05
1.629002813e-05
1.569834997e-05
)
;
    }
    bottom
    {
        type            calculated;
        value           nonuniform List<scalar> 
127
(
1.504136214e-05
1.50413636e-05
1.504136404e-05
1.504136377e-05
1.504136341e-05
1.504136461e-05
1.50413636e-05
1.504136159e-05
1.50413634e-05
1.504136195e-05
1.504136311e-05
1.504136364e-05
1.504136506e-05
1.504136452e-05
1.5041364e-05
1.50413632e-05
1.504136283e-05
1.504136328e-05
1.50413626e-05
1.504136255e-05
1.504136475e-05
1.504136518e-05
1.50413656e-05
1.504136401e-05
1.504136547e-05
1.504136298e-05
1.504136405e-05
1.504136391e-05
1.504136558e-05
1.504136908e-05
1.504136923e-05
1.504136962e-05
1.504137006e-05
1.504136912e-05
1.504136593e-05
1.504136536e-05
1.504137365e-05
1.504137665e-05
1.504138218e-05
1.504138752e-05
1.504138814e-05
1.504138551e-05
1.504138114e-05
1.504137766e-05
1.504137459e-05
1.504140105e-05
1.504141231e-05
1.504143011e-05
1.504145107e-05
1.504145918e-05
1.504145008e-05
1.504143267e-05
1.504141459e-05
1.504140361e-05
1.504149532e-05
1.504153731e-05
1.504160962e-05
1.504168586e-05
1.504171958e-05
1.504168631e-05
1.504161133e-05
1.504153867e-05
1.504149572e-05
1.5041796e-05
1.504195166e-05
1.504222828e-05
1.504252502e-05
1.504266407e-05
1.504252463e-05
1.504222829e-05
1.504195202e-05
1.504179711e-05
1.50427274e-05
1.504328385e-05
1.504430571e-05
1.504544146e-05
1.504599814e-05
1.50454423e-05
1.504430582e-05
1.504328505e-05
1.50427289e-05
1.504548296e-05
1.504737972e-05
1.505098688e-05
1.505519106e-05
1.50573649e-05
1.505519099e-05
1.505098841e-05
1.504738371e-05
1.504548486e-05
1.505318491e-05
1.505930953e-05
1.507136833e-05
1.50861808e-05
1.509435526e-05
1.508618031e-05
1.507137053e-05
1.505931328e-05
1.505318907e-05
1.507329601e-05
1.509169726e-05
1.512931154e-05
1.517819184e-05
1.520731011e-05
1.517819501e-05
1.512931758e-05
1.509170238e-05
1.507330143e-05
1.512163207e-05
1.517218465e-05
1.527937834e-05
1.542681672e-05
1.552233791e-05
1.542682621e-05
1.527938875e-05
1.517219339e-05
1.512164241e-05
1.522683222e-05
1.535112403e-05
1.562263332e-05
1.601486869e-05
1.62904271e-05
1.601487758e-05
1.562264082e-05
1.535112799e-05
1.522684995e-05
1.54310442e-05
)
;
    }
    side-walls
    {
        type            calculated;
        value           nonuniform List<scalar> 
261
(
1.504136214e-05
1.504136206e-05
1.504136211e-05
1.504136054e-05
1.50413625e-05
1.504136197e-05
1.504136059e-05
1.504136191e-05
1.504136285e-05
1.504136195e-05
1.504136225e-05
1.50413612e-05
1.504136075e-05
1.50413628e-05
1.504136145e-05
1.504136157e-05
1.504136274e-05
1.504136193e-05
1.50413626e-05
1.504136222e-05
1.504136427e-05
1.504136067e-05
1.504136333e-05
1.50413634e-05
1.504136328e-05
1.504136351e-05
1.504136249e-05
1.504136391e-05
1.504136517e-05
1.504136664e-05
1.504136647e-05
1.504136914e-05
1.504136706e-05
1.504136835e-05
1.504136603e-05
1.504136442e-05
1.504137365e-05
1.504137452e-05
1.504138122e-05
1.504138463e-05
1.504138735e-05
1.504138547e-05
1.504138257e-05
1.504137601e-05
1.504137165e-05
1.504140105e-05
1.504141133e-05
1.504143058e-05
1.504145053e-05
1.504145696e-05
1.504144894e-05
1.504143122e-05
1.50414116e-05
1.504140115e-05
1.504149532e-05
1.504153653e-05
1.504160928e-05
1.504168475e-05
1.504171912e-05
1.504168527e-05
1.504161069e-05
1.504153588e-05
1.504149503e-05
1.5041796e-05
1.504194927e-05
1.504222735e-05
1.504252519e-05
1.504266322e-05
1.504252405e-05
1.504222877e-05
1.504195117e-05
1.504179445e-05
1.50427274e-05
1.504328194e-05
1.504430195e-05
1.504543912e-05
1.504599589e-05
1.504544164e-05
1.504430569e-05
1.504328288e-05
1.504272898e-05
1.504548296e-05
1.504738031e-05
1.505098363e-05
1.505518778e-05
1.505736205e-05
1.505518873e-05
1.505098719e-05
1.504738073e-05
1.504548404e-05
1.505318491e-05
1.50593099e-05
1.50713644e-05
1.508617435e-05
1.509434645e-05
1.508617367e-05
1.507136581e-05
1.505931014e-05
1.50531859e-05
1.507329601e-05
1.509169467e-05
1.512930275e-05
1.517817542e-05
1.520728364e-05
1.517817397e-05
1.512930323e-05
1.509169437e-05
1.507329645e-05
1.512163207e-05
1.517217638e-05
1.527935251e-05
1.542676115e-05
1.552225807e-05
1.542675725e-05
1.527934663e-05
1.517216961e-05
1.512162613e-05
1.522683222e-05
1.535109191e-05
1.562254746e-05
1.601469877e-05
1.629019273e-05
1.601468915e-05
1.562252788e-05
1.535107114e-05
1.522681441e-05
1.54310442e-05
1.569830899e-05
1.628998212e-05
1.716585436e-05
1.78119508e-05
1.716582589e-05
1.62899361e-05
1.569825956e-05
1.543099838e-05
1.50413634e-05
1.504136319e-05
1.50413651e-05
1.504136455e-05
1.504136369e-05
1.504136222e-05
1.504136157e-05
1.504136336e-05
1.50413635e-05
1.504136328e-05
1.50413635e-05
1.504136366e-05
1.504136379e-05
1.504136289e-05
1.504136183e-05
1.504136195e-05
1.504136369e-05
1.504136412e-05
1.504136405e-05
1.504136573e-05
1.504136434e-05
1.504136449e-05
1.504136603e-05
1.504136274e-05
1.504136272e-05
1.504136336e-05
1.504136455e-05
1.504136536e-05
1.504136933e-05
1.50413692e-05
1.504136952e-05
1.504136951e-05
1.504136722e-05
1.50413666e-05
1.504136739e-05
1.504136676e-05
1.504137459e-05
1.504137694e-05
1.504138367e-05
1.50413869e-05
1.504138759e-05
1.50413853e-05
1.504138056e-05
1.50413773e-05
1.504137488e-05
1.504140361e-05
1.504141333e-05
1.504143234e-05
1.5041452e-05
1.504145804e-05
1.504144966e-05
1.50414303e-05
1.504141432e-05
1.504140415e-05
1.504149572e-05
1.504153745e-05
1.504161034e-05
1.504168399e-05
1.504171869e-05
1.50416844e-05
1.504161043e-05
1.50415377e-05
1.504149605e-05
1.504179711e-05
1.504195143e-05
1.504222939e-05
1.504252382e-05
1.504266334e-05
1.504252611e-05
1.504222988e-05
1.504195189e-05
1.504179798e-05
1.50427289e-05
1.50432837e-05
1.504430487e-05
1.504544129e-05
1.504599826e-05
1.504544268e-05
1.504430627e-05
1.50432849e-05
1.504272956e-05
1.504548486e-05
1.504738252e-05
1.505098655e-05
1.505519314e-05
1.505736491e-05
1.505519158e-05
1.505098849e-05
1.504738369e-05
1.504548367e-05
1.505318907e-05
1.505931214e-05
1.507137065e-05
1.508618169e-05
1.509435738e-05
1.508618149e-05
1.507137116e-05
1.505931303e-05
1.505318578e-05
1.507330143e-05
1.509170257e-05
1.512931934e-05
1.517819895e-05
1.520731615e-05
1.517819699e-05
1.512931782e-05
1.509170108e-05
1.507329909e-05
1.512164241e-05
1.517219467e-05
1.527939008e-05
1.542683027e-05
1.55223487e-05
1.542682601e-05
1.527938646e-05
1.517219152e-05
1.512163877e-05
1.522684995e-05
1.535113083e-05
1.562264227e-05
1.601487882e-05
1.6290431e-05
1.601486544e-05
1.56226311e-05
1.535112739e-05
1.522684918e-05
)
;
    }
    inlet
    {
        type            calculated;
        value           nonuniform List<scalar> 
81
(
1.504136214e-05
1.504136206e-05
1.504136211e-05
1.504136054e-05
1.50413625e-05
1.504136197e-05
1.504136059e-05
1.504136191e-05
1.504136285e-05
1.50413636e-05
1.504136161e-05
1.504136141e-05
1.50413617e-05
1.504136118e-05
1.504136324e-05
1.504136212e-05
1.504136257e-05
1.504136302e-05
1.504136404e-05
1.504136373e-05
1.504136289e-05
1.504136329e-05
1.504136426e-05
1.504136105e-05
1.504136212e-05
1.504136269e-05
1.504136309e-05
1.504136377e-05
1.50413636e-05
1.504136203e-05
1.504136234e-05
1.504136464e-05
1.504136464e-05
1.504136372e-05
1.504136296e-05
1.504136334e-05
1.504136341e-05
1.504136273e-05
1.504136366e-05
1.504136412e-05
1.504136331e-05
1.504136477e-05
1.504136286e-05
1.504136217e-05
1.504136191e-05
1.504136461e-05
1.504136524e-05
1.504136515e-05
1.504136448e-05
1.504136385e-05
1.504136411e-05
1.504136233e-05
1.50413621e-05
1.504136291e-05
1.50413636e-05
1.504136341e-05
1.504136507e-05
1.504136371e-05
1.50413634e-05
1.504136185e-05
1.504136289e-05
1.504136336e-05
1.504136192e-05
1.504136159e-05
1.504136528e-05
1.504136611e-05
1.504136396e-05
1.504136438e-05
1.504136087e-05
1.504136211e-05
1.504136439e-05
1.504136264e-05
1.50413634e-05
1.504136319e-05
1.50413651e-05
1.504136455e-05
1.504136369e-05
1.504136222e-05
1.504136157e-05
1.504136336e-05
1.50413635e-05
)
;
    }
    outlet
    {
        type            calculated;
        value           nonuniform 0();
    }
    procBoundary0to1
    {
        type            processor;
        value           nonuniform List<scalar> 
97
(
1.578202438e-05
1.569835039e-05
1.62782693e-05
1.736236504e-05
1.892846806e-05
2.002855539e-05
1.892843251e-05
1.736231197e-05
1.627821399e-05
1.578198589e-05
1.569835039e-05