/*--------------------------------*- C++ -*----------------------------------*\
| =========                 |                                                 |
| \\      /  F ield         | OpenFOAM: The Open Source CFD Toolbox           |
|  \\    /   O peration     | Version:  4.x                                   |
|   \\  /    A nd           | Web:      www.OpenFOAM.org                      |
|    \\/     M anipulation  |                                                 |
\*---------------------------------------------------------------------------*/
FoamFile
{
    version     2.0;
    format      ascii;
    class       volScalarField;
    location    "2000";
    object      CO2;
}
// * * * * * * * * * * * * * * * * * * * * * * * * * * * * * * * * * * * * * //

dimensions      [0 0 0 0 0 0 0];

internalField   nonuniform List<scalar> 
1174
(
0.006515175629
0.006521502187
0.006530446579
0.006542127277
0.006556426231
0.006573034205
0.006591513424
0.006611363657
0.0066320778
0.00665317554
0.006674212598
0.006694712575
0.00671383205
0.006728875353
0.006521122362
0.006531277734
0.006544818214
0.006561437683
0.006580569222
0.006601522451
0.006623596186
0.00664614867
0.006668638075
0.006690631038
0.006711784851
0.006731765141
0.006749929065
0.006763969315
0.006534267862
0.006552246558
0.006574518639
0.006599838327
0.006626852579
0.00665433966
0.006681332558
0.006707140649
0.006731320273
0.006753628376
0.006773959802
0.006792248114
0.006808194171
0.006820154954
0.00655355491
0.006581517073
0.006613658558
0.006647638429
0.006681498183
0.006713827247
0.006743740283
0.006770776481
0.006794786512
0.006815825386
0.006834066551
0.006849707975
0.006862765485
0.006872238613
0.006567347121
0.006600799877
0.006637337809
0.006674394944
0.006710108014
0.006743282114
0.006773262988
0.006799792275
0.006822884332
0.006842722599
0.006859580646
0.006873740866
0.006885326565
0.006893597711
0.006553554589
0.006581515897
0.006613658083
0.006647636354
0.006681495207
0.006713824304
0.006743736775
0.00677077274
0.006794781688
0.006815819266
0.006834060058
0.006849701144
0.006862756852
0.006872231284
0.00653426782
0.006552245722
0.006574517399
0.006599836259
0.006626848472
0.0066543346
0.006681327797
0.006707133923
0.006731312395
0.006753619144
0.006773949458
0.006792236158
0.006808180838
0.006820140186
0.006521121411
0.006531276593
0.006544815722
0.006561434582
0.006580565129
0.006601518372
0.006623591051
0.006646142369
0.006668631127
0.006690622552
0.006711773667
0.006731751536
0.006749914879
0.00676395321
0.006515175264
0.006521500987
0.006530445573
0.006542126269
0.006556424929
0.0065730316
0.006591510055
0.006611359153
0.006632072141
0.00665316742
0.006674201968
0.006694699033
0.006713817521
0.00672885829
0.006514272689
0.00652112018
0.006531276954
0.00654481727
0.006561436127
0.00658056761
0.006601521147
0.006623594529
0.006646147425
0.006668636942
0.006690631024
0.006711784144
0.006731763853
0.006749928221
0.006763968673
0.006534545844
0.006552408293
0.006574215834
0.006598666969
0.006624449447
0.006650453111
0.006675851492
0.006700089661
0.006722837577
0.006743930304
0.006763306091
0.006780909429
0.006796420895
0.006808159165
0.006568354442
0.006603117805
0.006640954585
0.006678669363
0.006714064485
0.006745935908
0.006773839368
0.006797821745
0.006818203901
0.006835423853
0.006849936198
0.006862131421
0.006872186581
0.006879441232
0.006628516142
0.006686401813
0.006741532172
0.00678977905
0.00682968079
0.006861407773
0.006885921284
0.006904451015
0.006918204737
0.006928247784
0.006935462657
0.006940548078
0.006944028216
0.006946155476
0.006685370276
0.0067550842
0.006814259194
0.006861312755
0.006897140781
0.006923526577
0.00694237656
0.00695540973
0.006964051952
0.006969442226
0.006972464778
0.006973809252
0.006974036178
0.006973724662
0.006628513694
0.006686398605
0.006741529235
0.006789774901
0.006829677004
0.006861402021
0.006885915312
0.006904442633
0.006918195655
0.006928237438
0.006935451727
0.006940537425
0.006944017132
0.006946144663
0.00656835184
0.006603114835
0.006640951239
0.006678664866
0.006714058789
0.006745927821
0.006773829319
0.00679781124
0.006818191501
0.006835409594
0.006849919898
0.006862115012
0.006872170123
0.0068794227
0.006534544545
0.00655240669
0.006574214442
0.006598664419
0.006624444625
0.00665044737
0.006675844665
0.006700081227
0.006722826472
0.006743917612
0.00676329049
0.006780890949
0.006796402003
0.006808138323
0.006521120753
0.006531276223
0.006544816661
0.006561435267
0.006580564837
0.006601517895
0.006623590046
0.006646140615
0.006668627901
0.006690618013
0.00671176977
0.006731746629
0.006749908907
0.006763946801
0.006521356834
0.006534266879
0.006552245091
0.00657451733
0.006599836063
0.006626849568
0.006654337091
0.006681330247
0.006707137898
0.006731317342
0.006753625929
0.006773957776
0.006792246392
0.00680819184
0.006820152245
0.006540318813
0.006568351849
0.006603116065
0.006640954066
0.006678668318
0.006714063376
0.006745935442
0.006773837843
0.006797819928
0.006818202589
0.006835423035
0.006849934397
0.006862130228
0.006872186684
0.006879440045
0.006668350559
0.006741821584
0.006808472448
0.006863244338
0.00690506116
0.006935087274
0.006955411227
0.006968261421
0.006975631531
0.006979148401
0.006980063505
0.006979318688
0.006977665042
0.006975940432
0.006891030912
0.00701537218
0.007101411855
0.007152486597
0.007176782457
0.0071825976
0.007176649163
0.007163814693
0.007147415979
0.007129601978
0.007111719092
0.007094633868
0.007079162605
0.007067303939
0.007183126646
0.00730720654
0.007360975212
0.007371027699
0.007356436266
0.007329244597
0.007296615047
0.007262635022
0.007229542678
0.007198490517
0.007170019224
0.007144398018
0.007122107463
0.007105429481
0.006891018648
0.007015360509
0.007101399904
0.007152473058
0.007176767594
0.007182581451
0.007176631638
0.007163798771
0.007147399611
0.007129585189
0.007111702757
0.007094617425
0.007079146582
0.007067288622
0.006668340431
0.006741813345
0.006808463042
0.006863232242
0.006905046934
0.00693507086
0.00695539213
0.006968240881
0.006975610175
0.006979124966
0.006980039178
0.006979293666
0.006977640287
0.00697591526
0.006568352224
0.006603115256
0.006640950175
0.006678662238
0.006714054962
0.006745923542
0.006773824214
0.006797803876
0.006818184239
0.006835401393
0.00684991167
0.006862105556
0.006872159188
0.00687941149
0.006534268002
0.006552245855
0.006574516584
0.006599834456
0.006626845511
0.006654330542
0.006681321211
0.006707126067
0.006731301174
0.006753606377
0.006773935873
0.006792221917
0.006808164928
0.006820121744
0.006532009905
0.006553551398
0.006581513878
0.00661365573
0.006647634783
0.006681494425
0.006713823985
0.006743737159
0.006770772962
0.006794782271
0.00681582159
0.006834062506
0.00684970453
0.006862761416
0.006872236232
0.006575343974
0.006628510375
0.006686396746
0.006741528328
0.006789774536
0.006829677475
0.006861405242
0.006885918242
0.006904447672
0.006918200583
0.00692824494
0.006935459325
0.006940545127
0.0069440253
0.00694615289
0.006739653717
0.006891021779
0.007015366373
0.007101406587
0.007152481673
0.00717677781
0.007182593109
0.007176644424
0.007163812372
0.007147412515
0.007129598971
0.007111716928
0.007094631733
0.007079160018
0.007067302891
0.007655250219
0.00781286243
0.00784020259
0.007796639606
0.007721197153
0.007635993525
0.007552291819
0.007475155135
0.007406355899
0.00734605096
0.007293697396
0.007248620328
0.007210737923
0.007183054885
0.009156867521
0.008964533447
0.008665828648
0.008378369986
0.008133568986
0.00793356782
0.007772065874
0.007641513927
0.007535292906
0.007448139196
0.007376045471
0.007316141293
0.007267071159
0.007231790854
0.007655200715
0.007812826268
0.007840169916
0.007796606413
0.007721165799
0.007635963564
0.007552263433
0.007475127348
0.007406329228
0.007346025698
0.007293674282
0.00724859836
0.007210717145
0.007183034577
0.006891020517
0.007015357651
0.007101391127
0.00715245929
0.00717675058
0.00718256322
0.007176612494
0.00716377839
0.00714737875
0.007129564925
0.007111683281
0.007094598049
0.007079127189
0.007067268824
0.006628514538
0.006686397159
0.006741523006
0.006789764615
0.006829662771
0.006861385959
0.006885895999
0.006904421819
0.006918172256
0.006928213853
0.006935426549
0.006940510963
0.006943989973
0.006946116255
0.006553555296
0.006581515224
0.00661365513
0.00664763138
0.006681487819
0.006713812472
0.006743722136
0.00677075443
0.00679476056
0.006815795577
0.006834033628
0.006849673089
0.006862727154
0.006872198758
0.006540016889
0.006567343083
0.006600795412
0.006637333708
0.006674390032
0.006710102622
0.00674327689
0.006773256987
0.006799786357
0.00682287803
0.006842716255
0.006859574703
0.006873735421
0.00688532105
0.006893592753
0.006611971421
0.006685362658
0.006755076609
0.006814251428
0.006861304784
0.006897133314
0.006923518997
0.006942369548
0.006955403073
0.006964045593
0.006969435522
0.006972458673
0.006973804005
0.006974032078
0.006973719929
0.00696378051
0.007183110883
0.007307190763
0.007360960806
0.007371015469
0.007356424485
0.007329235236
0.007296606417
0.007262627234
0.007229536204
0.007198485031
0.007170014521
0.007144393522
0.007122102642
0.007105424842
0.008887242408
0.009156813772
0.008964499556
0.008665804792
0.008378352917
0.008133558087
0.007933558914
0.007772057716
0.007641507527
0.007535287043
0.007448134006
0.007376041675
0.007316136891
0.007267068076
0.007231786782
0.01563777625
0.01235776822
0.01053549926
0.009466005252
0.008802393546
0.008367796129
0.008068628896
0.007853408503
0.007692669695
0.007568853159
0.007471109624
0.007392656091
0.00732997394
0.007285588254
0.009156871068
0.008964481743
0.008665760656
0.008378303162
0.008133508874
0.00793351369
0.007772017433
0.007641470175
0.007535253347
0.007448103323
0.007376012819
0.007316110495
0.007267042799
0.007231763438
0.007183132688
0.00730718825
0.007360940462
0.007370983942
0.00735638628
0.007329193721
0.007296563462
0.007262584639
0.00722949339
0.007198442688
0.007169974007
0.007144354202
0.007122064796
0.00710538823
0.006685371427
0.006755079485
0.006814246515
0.006861292083
0.006897113408
0.006923494641
0.006942341561
0.006955371321
0.006964011536
0.006969399568
0.006972421025
0.006973764725
0.006973992643
0.006973681412
0.006567347538
0.006600798195
0.006637332873
0.006674385871
0.006710093655
0.006743262401
0.006773237955
0.006799762797
0.006822850893
0.006842685875
0.006859540643
0.00687369861
0.006885282305
0.006893551846
0.006532010212
0.00655355148
0.006581512373
0.006613653208
0.006647631557
0.006681490652
0.006713819744
0.006743731478
0.006770766081
0.006794774439
0.006815812598
0.006834053443
0.006849694555
0.006862751139
0.006872224449
0.006575341739
0.006628506904
0.006686390952
0.006741521244
0.006789766014
0.006829667043
0.006861393592
0.006885907147
0.006904435629
0.006918188375
0.006928231255
0.006935444625
0.00694053003
0.006944010651
0.006946137707
0.006739632112
0.006891000487
0.007015343081
0.007101382656
0.007152457501
0.007176752893
0.007182568849
0.007176621831
0.007163789191
0.007147390072
0.007129577437
0.007111694982
0.007094610192
0.007079139755
0.007067281344
0.007303934896
0.00765515314
0.007812788519
0.007840139692
0.00779658213
0.00772114625
0.007635947254
0.007552249965
0.007475116035
0.007406319851
0.007346017012
0.00729366605
0.007248590657
0.007210709818
0.007183027259
0.008887231012
0.009156796528
0.00896443591
0.008665730918
0.008378283404
0.008133494565
0.007933502039
0.007772007579
0.007641462722
0.007535246741
0.007448098148
0.00737600868
0.007316107389
0.007267039983
0.007231760914
0.007303951959
0.00765515183
0.007812769606
0.007840109348
0.007796547137
0.007721109362
0.007635910578
0.007552214633
0.007475083675
0.007406289608
0.007345989349
0.007293639987
0.007248566448
0.007210686723
0.007183004257
0.006891032825
0.007015350279
0.007101372742
0.007152435867
0.007176723241
0.007182534468
0.007176583585
0.007163749371
0.007147351527
0.007129538487
0.007111658226
0.00709457386
0.007079103552
0.007067245906
0.006628518851
0.006686397503
0.006741519669
0.006789757406
0.006829651177
0.00686137126
0.006885880831
0.006904405666
0.006918156271
0.006928197271
0.006935409835
0.006940493731
0.006943972098
0.00694609885
0.006553556273
0.006581516221
0.006613654479
0.006647628568
0.006681483109
0.006713806981
0.006743713722
0.006770744853
0.006794748696
0.006815782564
0.006834020129
0.006849659076
0.006862712358
0.006872184158
0.006521357321
0.006534266538
0.006552244423
0.006574514247
0.006599832781
0.006626844175
0.00665433048
0.006681322356
0.006707128541
0.006731306521
0.006753612587
0.006773943254
0.006792230005
0.006808174668
0.006820134041
0.006540315305
0.006568347413
0.006603110081
0.006640945467
0.006678658422
0.006714051665
0.006745920971
0.006773822391
0.006797802772
0.006818184093
0.006835402968
0.006849913617
0.006862108323
0.006872162616
0.006879416762
0.006598403377
0.006668330367
0.006741801559
0.006808451437
0.006863220856
0.006905034973
0.006935059703
0.006955381835
0.006968230824
0.006975600502
0.006979117202
0.006980031217
0.006979286515
0.006977632603
0.006975907009
0.006739632542
0.006890996467
0.007015333249
0.007101367453
0.00715243888
0.007176732544
0.007182547674
0.007176598326
0.007163765679
0.00714736801
0.007129555716
0.007111674707
0.007094589893
0.007079120244
0.007067261916
0.006963780389
0.007183092951
0.007307154129
0.007360911667
0.007370960041
0.007356366807
0.007329177453
0.007296550624
0.007262573368
0.007229484254
0.00719843536
0.007169966608
0.007144347783
0.007122058891
0.007105381882
0.006739631076
0.00689099193
0.007015323936
0.007101354134
0.007152420505
0.007176712061
0.007182525245
0.007176576036
0.007163744575
0.007147346293
0.00712953445
0.007111654617
0.007094569943
0.007079100517
0.007067242878
0.006598410862
0.006668336621
0.006741802074
0.006808445083
0.006863207706
0.00690501742
0.006935038032
0.006955355846
0.006968203012
0.006975571661
0.006979087639
0.006980002023
0.006979257089
0.006977602254
0.006975877092
0.00656835525
0.006603113736
0.006640945332
0.006678653839
0.006714042086
0.0067459066
0.006773803028
0.006797781096
0.006818160308
0.006835375744
0.006849884437
0.006862076945
0.006872129777
0.006879381827
0.006534269718
0.006552246013
0.006574515186
0.006599830817
0.006626839384
0.006654322349
0.006681310094
0.006707111973
0.006731286118
0.006753589183
0.006773915343
0.006792199574
0.006808141201
0.00682009735
0.006514272928
0.006521120555
0.006531276384
0.0065448151
0.006561432625
0.006580562021
0.006601514275
0.006623587093
0.006646138681
0.006668625821
0.00669061668
0.006711767926
0.006731746048
0.006749908598
0.006763947699
0.006521544777
0.006534542353
0.006552403849
0.006574210327
0.006598660546
0.006624440052
0.006650442118
0.006675838543
0.006700074455
0.006722820056
0.006743910862
0.006763283704
0.006780884749
0.006796395152
0.006808131244
0.006540315819
0.006568347284
0.006603109216
0.006640943261
0.006678654161
0.006714046768
0.00674591531
0.006773813992
0.006797794806
0.006818175315
0.006835393215
0.006849902795
0.006862097128
0.006872151295
0.006879404349
0.0065753419
0.006628504597
0.006686385898
0.006741512038
0.00678975311
0.006829650542
0.006861373934
0.006885884697
0.0069044109
0.00691816247
0.006928204715
0.00693541747
0.006940502501
0.006943982133
0.006946108745
0.006611972172
0.006685357738
0.006755064213
0.006814231115
0.006861276894
0.00689709971
0.006923481166
0.00694233009
0.006955360836
0.006964002169
0.006969390204
0.006972413661
0.006973757141
0.006973986055
0.00697367398
0.006575341224
0.006628502129
0.006686382177
0.006741505314
0.006789745364
0.006829641284
0.006861362528
0.006885872942
0.006904398557
0.006918148642
0.006928190841
0.006935403694
0.006940487971
0.00694396847
0.006946094974
0.006540316328
0.006568347727
0.006603107097
0.006640939282
0.006678647876
0.006714037358
0.006745902933
0.006773800271
0.006797777549
0.006818156779
0.006835373616
0.006849881288
0.006862074452
0.006872128153
0.006879380315
0.006521547481
0.006534544251
0.006552405219
0.006574210975
0.006598658456
0.006624435409
0.006650434001
0.006675827133
0.006700059892
0.006722803081
0.006743891329
0.006763261547
0.006780859665
0.006796368383
0.006808103705
0.006521122449
0.006531277721
0.006544815997
0.006561432236
0.006580560134
0.006601510352
0.006623579243
0.006646127019
0.006668611357
0.006690599034
0.006711746917
0.006731722061
0.006749882077
0.006763917249
0.006511111115
0.006515175272
0.00652150059
0.006530444612
0.006542125561
0.006556422952
0.006573029645
0.006591507156
0.006611355736
0.006632067718
0.006653162803
0.006674196388
0.006694694212
0.006713811539
0.006728852082
0.006514272677
0.006521120444
0.006531276026
0.006544814485
0.00656143175
0.006580561196
0.006601513038
0.006623584522
0.006646135233
0.006668623141
0.0066906132
0.006711763506
0.006731740116
0.006749902953
0.006763940057
0.006521357364
0.00653426574
0.006552242011
0.006574512599
0.006599829585
0.006626839913
0.006654324522
0.006681314499
0.006707118563
0.00673129494
0.006753599569
0.006773928319
0.006792214148
0.006808157742
0.006820115977
0.006532009999
0.006553550389
0.006581510385
0.00661364876
0.006647623905
0.006681479563
0.006713804644
0.006743713673
0.006770745296
0.006794750522
0.006815786129
0.006834024429
0.006849664456
0.006862718842
0.006872190338
0.006540016377
0.006567341493
0.006600790931
0.006637324556
0.006674376531
0.006710083915
0.006743252956
0.006773229093
0.006799754365
0.006822842834
0.00684267705
0.006859531921
0.006873691226
0.006885274236
0.006893543696
0.006532010263
0.006553550124
0.006581508269
0.006613645866
0.006647620508
0.006681474747
0.006713798743
0.006743706446
0.006770737098
0.006794741763
0.006815776519
0.006834014068
0.006849652905
0.006862707291
0.006872177806
0.006521356801
0.006534266047
0.00655224145
0.006574510623
0.006599826516
0.006626834947
0.006654316765
0.006681305811
0.006707107907
0.006731281455
0.006753585374
0.00677391225
0.006792196132
0.006808137966
0.006820094847
0.006514273205
0.006521121112
0.006531275767
0.00654481403
0.00656143116
0.006580559095
0.006601508254
0.006623577559
0.006646125642
0.006668609366
0.006690597744
0.006711745464
0.006731720153
0.006749879479
0.006763915362
0.00651111252
0.006515176304
0.006521502113
0.006530445415
0.006542124991
0.00655642193
0.006573026076
0.006591501215
0.00661134683
0.00663205612
0.006653148466
0.006674179059
0.006694673309
0.006713787619
0.006728825976
)
;

boundaryField
{
    top
    {
        type            zeroGradient;
    }
    bottom
    {
        type            zeroGradient;
    }
    side-walls
    {
        type            zeroGradient;
    }
    inlet
    {
        type            zeroGradient;
    }
    outlet
    {
        type            zeroGradient;
    }
    procBoundary1to0
    {
        type            processor;
        value           nonuniform List<scalar> 
97
(
0.006511110928
0.006511110928
0.006514272511
0.00652135624
0.006532008025
0.006540013481
0.006532007337
0.00652135571
0.006514271245
0.006511110203
0.006510228224
0.006521546091
0.006521546091
0.006521546091
0.006540314419
0.006575336127
0.006611958448
0.006575333627
0.006540311816
0.006521543853
0.006514271608
0.006513432741
0.006521737425
0.006598409828
0.006598409828
0.006598409828
0.00673961843
0.006963710546
0.006739602661
0.006598392361
0.006540311698
0.006521355523
0.006518131736
0.006536394482
0.00660033062
0.007303950375
0.007303950375
0.007303950375
0.008886777227
0.007303827399
0.006739603842
0.006575334277
0.006532008129
0.006521492097
0.006550240739
0.006671441582
0.007151523269
0.0218671397
0.0218671397
0.0218671397
0.008886804893
0.008886804893
0.006963718462
0.006611960238
0.00654001334
0.006518132289
0.006536394699
0.006600334942
0.006786374752
0.007151543221
0.006786362835
0.006739646438
0.006739646438
0.006739646438
0.006575340687
0.006532008653
0.006513433061
0.006521738107
0.0065460982
0.006600335508
0.006671445423
0.006600332535
0.006546097006
0.006540319235
0.006540319235
0.006540319235
0.006521357677
0.006510229533
0.006513500258
0.006521738337
0.006536396287
0.006550243057
0.00653639513
0.006521738201
0.006513500149
0.006514273739
0.006514273739
0.006514273739
0.006508779822
0.006510228887
0.006513434138
0.006518133057
0.006521493117
0.006518132795
0.006513434023
0.00651022974
0.006508781044
)
;
    }
}


// ************************************************************************* //
