/*--------------------------------*- C++ -*----------------------------------*\
| =========                 |                                                 |
| \\      /  F ield         | OpenFOAM: The Open Source CFD Toolbox           |
|  \\    /   O peration     | Version:  4.x                                   |
|   \\  /    A nd           | Web:      www.OpenFOAM.org                      |
|    \\/     M anipulation  |                                                 |
\*---------------------------------------------------------------------------*/
FoamFile
{
    version     2.0;
    format      ascii;
    class       volScalarField;
    location    "2000";
    object      Cpv;
}
// * * * * * * * * * * * * * * * * * * * * * * * * * * * * * * * * * * * * * //

dimensions      [0 2 -2 -1 0 0 0];

internalField   nonuniform List<scalar> 
1174
(
1210.519472
1210.51986
1210.520421
1210.521174
1210.522087
1210.523142
1210.524332
1210.525588
1210.526889
1210.528193
1210.529514
1210.530804
1210.532033
1210.532993
1210.519891
1210.52056
1210.521411
1210.52245
1210.523646
1210.52498
1210.526379
1210.52781
1210.529264
1210.530678
1210.532012
1210.533269
1210.534416
1210.535301
1210.520878
1210.521992
1210.523397
1210.52498
1210.52669
1210.528439
1210.530147
1210.531786
1210.533288
1210.534728
1210.535993
1210.537137
1210.538151
1210.538918
1210.521717
1210.52351
1210.525563
1210.527704
1210.529859
1210.531896
1210.533797
1210.535503
1210.537025
1210.538343
1210.539502
1210.54049
1210.541329
1210.541923
1210.522769
1210.524869
1210.527208
1210.529564
1210.531809
1210.53392
1210.535826
1210.537517
1210.538974
1210.540221
1210.541264
1210.542176
1210.542894
1210.543435
1210.522481
1210.524261
1210.526284
1210.528434
1210.530609
1210.532636
1210.534512
1210.536204
1210.53771
1210.539024
1210.540178
1210.54115
1210.542004
1210.54257
1210.520502
1210.521632
1210.523037
1210.524671
1210.52639
1210.528151
1210.529853
1210.531481
1210.533017
1210.534451
1210.535741
1210.536885
1210.537902
1210.538674
1210.519911
1210.520566
1210.521442
1210.522474
1210.523703
1210.525019
1210.526412
1210.527847
1210.529282
1210.530685
1210.532054
1210.53332
1210.534457
1210.535329
1210.519911
1210.520314
1210.520878
1210.52163
1210.522533
1210.523586
1210.524768
1210.526011
1210.527307
1210.528645
1210.529963
1210.531255
1210.532477
1210.533422
1210.519213
1210.519658
1210.520292
1210.521161
1210.522199
1210.523418
1210.524789
1210.526196
1210.527609
1210.529031
1210.530407
1210.531753
1210.53302
1210.534187
1210.535044
1210.520869
1210.522036
1210.523415
1210.524953
1210.52661
1210.528255
1210.52986
1210.5314
1210.532838
1210.534153
1210.535375
1210.53647
1210.537447
1210.538173
1210.522904
1210.525102
1210.527494
1210.529868
1210.53211
1210.534125
1210.535865
1210.537382
1210.53868
1210.539778
1210.540695
1210.541456
1210.5421
1210.542547
1210.526613
1210.530292
1210.533787
1210.536838
1210.53937
1210.541396
1210.542943
1210.544098
1210.544973
1210.545629
1210.546094
1210.546432
1210.546649
1210.546777
1210.530405
1210.534847
1210.538582
1210.541569
1210.543815
1210.545508
1210.546694
1210.547515
1210.548061
1210.54839
1210.548569
1210.548646
1210.548705
1210.548705
1210.526243
1210.529926
1210.533426
1210.536456
1210.53897
1210.540987
1210.542542
1210.543721
1210.544603
1210.545254
1210.545717
1210.54603
1210.546232
1210.546391
1210.523073
1210.525295
1210.527675
1210.53005
1210.532307
1210.534351
1210.536103
1210.537639
1210.538923
1210.540023
1210.540949
1210.541717
1210.542344
1210.542818
1210.520187
1210.521318
1210.5227
1210.524243
1210.525892
1210.527556
1210.529154
1210.530671
1210.532117
1210.533479
1210.534686
1210.535805
1210.536795
1210.537544
1210.520113
1210.520768
1210.521621
1210.522675
1210.523877
1210.52518
1210.526604
1210.528034
1210.529463
1210.53086
1210.532176
1210.533457
1210.534601
1210.535484
1210.519905
1210.52073
1210.521848
1210.523281
1210.524887
1210.526591
1210.528323
1210.530039
1210.53166
1210.53318
1210.534572
1210.535836
1210.536989
1210.538021
1210.538805
1210.521386
1210.523168
1210.525365
1210.527748
1210.53013
1210.532383
1210.534397
1210.536159
1210.537689
1210.539008
1210.540125
1210.541054
1210.541817
1210.542445
1210.542954
1210.528945
1210.533588
1210.537839
1210.541332
1210.543974
1210.545879
1210.547154
1210.547954
1210.548429
1210.54864
1210.548691
1210.548636
1210.548544
1210.548449
1210.542714
1210.550614
1210.556078
1210.559287
1210.560838
1210.561201
1210.560798
1210.559988
1210.558934
1210.557813
1210.556662
1210.555583
1210.554582
1210.553837
1210.561599
1210.569439
1210.572851
1210.573505
1210.572557
1210.57084
1210.568803
1210.566655
1210.56454
1210.562592
1210.560801
1210.559174
1210.557749
1210.556683
1210.543087
1210.550959
1210.556404
1210.559664
1210.561211
1210.561609
1210.561232
1210.560412
1210.559374
1210.55825
1210.557152
1210.556081
1210.555098
1210.554333
1210.528918
1210.533553
1210.537802
1210.54125
1210.543915
1210.545829
1210.547118
1210.547927
1210.548411
1210.548641
1210.548704
1210.548644
1210.548518
1210.548421
1210.523184
1210.525387
1210.527772
1210.530158
1210.532406
1210.534412
1210.536153
1210.537668
1210.538965
1210.540059
1210.540961
1210.541714
1210.542354
1210.542809
1210.520352
1210.521499
1210.522928
1210.52452
1210.526236
1210.527964
1210.529685
1210.531321
1210.532832
1210.534248
1210.535524
1210.53668
1210.537697
1210.538467
1210.520569
1210.521949
1210.523753
1210.525792
1210.527949
1210.530108
1210.532151
1210.534034
1210.535729
1210.537264
1210.538584
1210.539757
1210.540727
1210.541557
1210.542137
1210.523589
1210.526991
1210.530651
1210.534125
1210.537191
1210.539698
1210.541723
1210.543288
1210.544436
1210.545327
1210.545945
1210.546402
1210.546706
1210.546935
1210.547055
1210.533508
1210.543108
1210.550971
1210.556431
1210.559649
1210.561179
1210.561539
1210.561185
1210.560359
1210.559319
1210.558188
1210.557022
1210.55595
1210.554979
1210.554204
1210.591948
1210.601938
1210.603647
1210.600896
1210.596091
1210.590689
1210.58535
1210.580469
1210.5761
1210.572274
1210.568971
1210.566104
1210.563714
1210.561957
1210.684581
1210.672362
1210.653396
1210.635179
1210.619682
1210.607002
1210.596774
1210.588503
1210.58178
1210.576248
1210.571653
1210.567859
1210.564753
1210.5625
1210.591645
1210.601637
1210.603348
1210.600578
1210.595772
1210.59036
1210.585028
1210.580144
1210.575776
1210.571966
1210.568628
1210.565794
1210.563383
1210.561636
1210.543871
1210.55172
1210.557155
1210.56039
1210.561946
1210.562324
1210.561946
1210.561123
1210.560086
1210.558955
1210.557805
1210.556706
1210.555755
1210.555009
1210.526283
1210.529956
1210.533468
1210.536507
1210.539004
1210.541035
1210.54261
1210.543762
1210.544666
1210.545334
1210.545789
1210.546121
1210.546367
1210.546477
1210.521838
1210.523623
1210.525659
1210.52781
1210.529968
1210.532027
1210.533903
1210.535623
1210.537126
1210.538447
1210.539606
1210.540617
1210.541451
1210.542071
1210.52093
1210.522661
1210.524783
1210.52711
1210.529457
1210.531716
1210.533816
1210.535707
1210.537394
1210.53887
1210.540122
1210.5412
1210.5421
1210.54283
1210.54335
1210.525495
1210.530129
1210.53455
1210.538299
1210.541266
1210.543529
1210.545215
1210.546404
1210.547229
1210.547771
1210.548128
1210.54832
1210.548384
1210.548404
1210.548402
1210.547867
1210.56177
1210.569624
1210.573037
1210.573666
1210.572774
1210.571024
1210.568963
1210.566798
1210.564697
1210.562732
1210.560934
1210.559301
1210.557894
1210.556838
1210.667782
1210.684882
1210.672698
1210.653747
1210.635541
1210.620016
1210.607339
1210.597089
1210.588803
1210.582085
1210.576548
1210.57198
1210.568217
1210.565089
1210.562855
1209.529173
1209.320355
1209.203508
1209.134178
1209.090453
1209.061198
1209.040434
1209.025008
1209.013012
1209.003311
1208.995279
1208.988434
1208.98259
1208.977917
1210.685168
1210.672959
1210.65403
1210.635828
1210.6203
1210.607626
1210.597368
1210.589102
1210.58236
1210.57682
1210.572246
1210.568433
1210.565295
1210.563054
1210.562057
1210.569941
1210.573341
1210.573977
1210.573069
1210.571337
1210.569284
1210.567139
1210.565077
1210.56311
1210.561295
1210.559667
1210.55827
1210.557236
1210.530068
1210.534471
1210.538214
1210.541188
1210.54344
1210.545132
1210.546317
1210.547137
1210.547685
1210.548019
1210.548209
1210.548311
1210.548309
1210.548256
1210.522636
1210.524748
1210.527025
1210.529369
1210.531627
1210.533741
1210.535632
1210.537292
1210.538781
1210.54001
1210.541075
1210.541961
1210.542692
1210.543195
1210.520684
1210.522047
1210.523823
1210.525857
1210.528008
1210.530159
1210.532204
1210.534099
1210.535811
1210.537362
1210.538693
1210.53986
1210.540868
1210.541681
1210.54229
1210.523122
1210.526515
1210.530181
1210.533673
1210.536727
1210.539262
1210.541269
1210.542805
1210.543979
1210.54485
1210.545447
1210.545918
1210.546241
1210.546436
1210.546582
1210.533826
1210.543448
1210.55133
1210.556789
1210.560019
1210.561572
1210.56194
1210.56155
1210.560734
1210.559725
1210.558588
1210.55746
1210.556393
1210.555405
1210.554671
1210.569303
1210.591595
1210.60159
1210.603295
1210.600528
1210.595738
1210.590336
1210.585036
1210.580143
1210.575787
1210.571977
1210.568681
1210.565835
1210.563411
1210.561649
1210.66782
1210.684895
1210.672663
1210.653738
1210.635495
1210.620002
1210.60733
1210.597104
1210.588849
1210.582114
1210.576567
1210.571988
1210.568195
1210.565089
1210.562865
1210.569635
1210.591888
1210.601898
1210.603635
1210.600882
1210.596081
1210.590662
1210.585376
1210.580462
1210.576093
1210.572289
1210.568985
1210.566146
1210.563722
1210.561981
1210.542989
1210.550871
1210.556325
1210.559548
1210.56111
1210.561472
1210.561109
1210.560302
1210.55925
1210.558088
1210.556966
1210.555882
1210.554914
1210.554149
1210.526732
1210.530387
1210.533867
1210.536939
1210.539463
1210.541464
1210.543014
1210.544192
1210.545071
1210.545708
1210.546135
1210.546449
1210.54668
1210.546811
1210.522107
1210.523873
1210.525921
1210.528072
1210.530221
1210.53227
1210.534196
1210.535903
1210.537432
1210.538775
1210.539912
1210.540903
1210.541743
1210.542302
1210.52003
1210.520833
1210.521966
1210.5234
1210.525011
1210.526744
1210.528474
1210.530183
1210.531825
1210.533344
1210.534772
1210.536043
1210.53721
1210.538198
1210.53896
1210.521222
1210.523009
1210.525226
1210.527605
1210.529997
1210.53225
1210.534266
1210.536043
1210.53756
1210.538867
1210.539947
1210.540875
1210.54163
1210.542287
1210.542736
1210.524765
1210.529212
1210.533844
1210.538053
1210.541515
1210.54417
1210.546077
1210.547339
1210.548162
1210.548611
1210.548821
1210.548873
1210.548848
1210.548727
1210.548606
1210.533876
1210.543471
1210.551328
1210.55681
1210.560024
1210.561555
1210.56193
1210.561544
1210.56072
1210.559653
1210.558541
1210.557408
1210.556335
1210.555348
1210.554593
1210.547852
1210.56177
1210.569651
1210.573042
1210.573697
1210.572781
1210.57105
1210.568982
1210.566828
1210.564715
1210.562749
1210.560931
1210.559288
1210.557895
1210.556825
1210.533594
1210.543179
1210.551031
1210.556481
1210.559716
1210.561267
1210.561636
1210.561247
1210.560445
1210.55941
1210.558262
1210.557114
1210.556041
1210.555063
1210.554306
1210.52506
1210.529491
1210.534136
1210.538371
1210.541837
1210.544477
1210.546398
1210.547686
1210.548478
1210.548932
1210.549121
1210.549166
1210.549099
1210.54903
1210.548912
1210.522481
1210.524686
1210.527054
1210.529431
1210.531672
1210.533703
1210.535484
1210.537018
1210.538275
1210.539395
1210.540315
1210.541081
1210.54173
1210.542216
1210.520798
1210.521945
1210.523353
1210.524942
1210.526638
1210.528364
1210.530041
1210.531675
1210.533195
1210.534623
1210.535946
1210.537115
1210.538131
1210.538901
1210.519265
1210.519697
1210.520344
1210.521215
1210.522271
1210.523493
1210.524803
1210.52618
1210.527608
1210.529029
1210.530426
1210.531764
1210.533023
1210.534183
1210.535084
1210.519744
1210.520559
1210.521707
1210.523124
1210.524661
1210.526307
1210.527957
1210.529559
1210.5311
1210.532538
1210.533889
1210.535127
1210.536231
1210.53719
1210.537963
1210.52108
1210.522852
1210.525086
1210.527484
1210.529865
1210.532095
1210.534128
1210.53589
1210.537406
1210.538704
1210.539793
1210.540685
1210.541453
1210.542111
1210.542567
1210.52308
1210.526448
1210.530111
1210.533614
1210.53669
1210.539238
1210.541229
1210.542776
1210.543936
1210.544814
1210.545452
1210.545949
1210.546294
1210.546517
1210.546655
1210.525877
1210.530538
1210.534934
1210.538704
1210.541703
1210.543977
1210.545649
1210.546824
1210.547658
1210.54821
1210.548574
1210.548777
1210.548833
1210.54883
1210.548799
1210.522806
1210.526205
1210.529879
1210.533367
1210.536407
1210.538953
1210.540981
1210.542515
1210.543701
1210.544556
1210.545173
1210.54563
1210.545935
1210.546186
1210.546308
1210.521273
1210.523057
1210.52529
1210.527697
1210.530105
1210.532339
1210.534376
1210.536157
1210.537689
1210.538963
1210.540043
1210.540982
1210.541748
1210.542383
1210.542847
1210.520081
1210.520888
1210.521999
1210.523389
1210.524936
1210.526584
1210.528258
1210.529858
1210.531385
1210.532849
1210.534189
1210.535434
1210.536521
1210.53749
1210.538244
1210.520152
1210.520792
1210.521632
1210.522678
1210.523894
1210.525207
1210.526635
1210.52807
1210.529512
1210.53091
1210.532227
1210.533499
1210.534655
1210.535564
1210.519526
1210.519774
1210.520175
1210.520729
1210.521447
1210.522358
1210.523406
1210.524571
1210.525806
1210.527142
1210.528473
1210.529797
1210.531093
1210.532323
1210.533269
1210.519512
1210.519941
1210.520588
1210.521439
1210.522487
1210.523698
1210.525023
1210.526444
1210.527861
1210.529277
1210.530671
1210.532018
1210.533284
1210.534449
1210.535345
1210.519995
1210.520824
1210.521966
1210.523396
1210.525002
1210.526713
1210.528447
1210.530146
1210.531787
1210.533332
1210.534741
1210.536033
1210.537179
1210.538175
1210.538947
1210.520485
1210.521855
1210.523602
1210.525611
1210.527774
1210.529924
1210.531965
1210.533856
1210.535589
1210.537117
1210.538449
1210.539595
1210.54058
1210.541409
1210.54203
1210.520492
1210.522207
1210.524324
1210.526638
1210.528975
1210.53124
1210.53333
1210.535225
1210.536896
1210.538371
1210.539622
1210.540688
1210.541598
1210.542322
1210.542855
1210.520247
1210.521624
1210.5234
1210.52542
1210.527579
1210.529728
1210.531753
1210.533643
1210.535352
1210.536891
1210.538239
1210.539411
1210.54042
1210.541257
1210.541858
1210.519669
1210.520469
1210.521595
1210.523013
1210.524585
1210.526309
1210.528043
1210.529755
1210.531398
1210.532929
1210.534334
1210.535634
1210.536789
1210.537785
1210.538554
1210.519096
1210.519542
1210.520179
1210.521034
1210.52208
1210.523282
1210.524616
1210.526026
1210.527449
1210.528892
1210.530277
1210.531619
1210.532882
1210.534035
1210.534931
1210.519121
1210.51937
1210.519776
1210.520334
1210.521078
1210.521971
1210.523047
1210.524221
1210.525489
1210.526801
1210.528155
1210.529487
1210.530789
1210.532005
1210.53294
)
;

boundaryField
{
    top
    {
        type            calculated;
        value           nonuniform List<scalar> 
127
(
1210.519121
1210.519911
1210.520113
1210.520352
1210.521838
1210.522636
1210.522107
1210.520798
1210.520152
1210.51937
1210.520314
1210.520768
1210.521499
1210.523623
1210.524748
1210.523873
1210.521945
1210.520792
1210.519776
1210.520878
1210.521621
1210.522928
1210.525659
1210.527025
1210.525921
1210.523353
1210.521632
1210.520334
1210.52163
1210.522675
1210.52452
1210.52781
1210.529369
1210.528072
1210.524942
1210.522678
1210.521078
1210.522533
1210.523877
1210.526236
1210.529968
1210.531627
1210.530221
1210.526638
1210.523894
1210.521971
1210.523586
1210.52518
1210.527964
1210.532027
1210.533741
1210.53227
1210.528364
1210.525207
1210.523047
1210.524768
1210.526604
1210.529685
1210.533903
1210.535632
1210.534196
1210.530041
1210.526635
1210.524221
1210.526011
1210.528034
1210.531321
1210.535623
1210.537292
1210.535903
1210.531675
1210.52807
1210.525489
1210.527307
1210.529463
1210.532832
1210.537126
1210.538781
1210.537432
1210.533195
1210.529512
1210.526801
1210.528645
1210.53086
1210.534248
1210.538447
1210.54001
1210.538775
1210.534623
1210.53091
1210.528155
1210.529963
1210.532176
1210.535524
1210.539606
1210.541075
1210.539912
1210.535946
1210.532227
1210.529487
1210.531255
1210.533457
1210.53668
1210.540617
1210.541961
1210.540903
1210.537115
1210.533499
1210.530789
1210.532477
1210.534601
1210.537697
1210.541451
1210.542692
1210.541743
1210.538131
1210.534655
1210.532005
1210.533422
1210.535484
1210.538467
1210.542071
1210.543195
1210.542302
1210.538901
1210.535564
1210.53294
)
;
    }
    bottom
    {
        type            calculated;
        value           nonuniform List<scalar> 
134
(
1210.519213
1210.519905
1210.520569
1210.52093
1210.520684
1210.52003
1210.519265
1210.519526
1210.519472
1210.519658
1210.52073
1210.521949
1210.522661
1210.522047
1210.520833
1210.519697
1210.519774
1210.51986
1210.520292
1210.521848
1210.523753
1210.524783
1210.523823
1210.521966
1210.520344
1210.520175
1210.520421
1210.521161
1210.523281
1210.525792
1210.52711
1210.525857
1210.5234
1210.521215
1210.520729
1210.521174
1210.522199
1210.524887
1210.527949
1210.529457
1210.528008
1210.525011
1210.522271
1210.521447
1210.522087
1210.523418
1210.526591
1210.530108
1210.531716
1210.530159
1210.526744
1210.523493
1210.522358
1210.523142
1210.524789
1210.528323
1210.532151
1210.533816
1210.532204
1210.528474
1210.524803
1210.523406
1210.524332
1210.526196
1210.530039
1210.534034
1210.535707
1210.534099
1210.530183
1210.52618
1210.524571
1210.525588
1210.527609
1210.53166
1210.535729
1210.537394
1210.535811
1210.531825
1210.527608
1210.525806
1210.526889
1210.529031
1210.53318
1210.537264
1210.53887
1210.537362
1210.533344
1210.529029
1210.527142
1210.528193
1210.530407
1210.534572
1210.538584
1210.540122
1210.538693
1210.534772
1210.530426
1210.528473
1210.529514
1210.531753
1210.535836
1210.539757
1210.5412
1210.53986
1210.536043
1210.531764
1210.529797
1210.530804
1210.53302
1210.536989
1210.540727
1210.5421
1210.540868
1210.53721
1210.533023
1210.531093
1210.532033
1210.534187
1210.538021
1210.541557
1210.54283
1210.541681
1210.538198
1210.534183
1210.532323
1210.532993
1210.535044
1210.538805
1210.542137
1210.54335
1210.54229
1210.53896
1210.535084
1210.533269
)
;
    }
    side-walls
    {
        type            calculated;
        value           nonuniform List<scalar> 
261
(
1210.519472
1210.519891
1210.520878
1210.521717
1210.522769
1210.522481
1210.520502
1210.519911
1210.519911
1210.51986
1210.52056
1210.521992
1210.52351
1210.524869
1210.524261
1210.521632
1210.520566
1210.520314
1210.520421
1210.521411
1210.523397
1210.525563
1210.527208
1210.526284
1210.523037
1210.521442
1210.520878
1210.521174
1210.52245
1210.52498
1210.527704
1210.529564
1210.528434
1210.524671
1210.522474
1210.52163
1210.522087
1210.523646
1210.52669
1210.529859
1210.531809
1210.530609
1210.52639
1210.523703
1210.522533
1210.523142
1210.52498
1210.528439
1210.531896
1210.53392
1210.532636
1210.528151
1210.525019
1210.523586
1210.524332
1210.526379
1210.530147
1210.533797
1210.535826
1210.534512
1210.529853
1210.526412
1210.524768
1210.525588
1210.52781
1210.531786
1210.535503
1210.537517
1210.536204
1210.531481
1210.527847
1210.526011
1210.526889
1210.529264
1210.533288
1210.537025
1210.538974
1210.53771
1210.533017
1210.529282
1210.527307
1210.528193
1210.530678
1210.534728
1210.538343
1210.540221
1210.539024
1210.534451
1210.530685
1210.528645
1210.529514
1210.532012
1210.535993
1210.539502
1210.541264
1210.540178
1210.535741
1210.532054
1210.529963
1210.530804
1210.533269
1210.537137
1210.54049
1210.542176
1210.54115
1210.536885
1210.53332
1210.531255
1210.532033
1210.534416
1210.538151
1210.541329
1210.542894
1210.542004
1210.537902
1210.534457
1210.532477
1210.532993
1210.535301
1210.538918
1210.541923
1210.543435
1210.54257
1210.538674
1210.535329
1210.533422
1210.519526
1210.519512
1210.519995
1210.520485
1210.520492
1210.520247
1210.519669
1210.519096
1210.519121
1210.519774
1210.519941
1210.520824
1210.521855
1210.522207
1210.521624
1210.520469
1210.519542
1210.51937
1210.520175
1210.520588
1210.521966
1210.523602
1210.524324
1210.5234
1210.521595
1210.520179
1210.519776
1210.520729
1210.521439
1210.523396
1210.525611
1210.526638
1210.52542
1210.523013
1210.521034
1210.520334
1210.521447
1210.522487
1210.525002
1210.527774
1210.528975
1210.527579
1210.524585
1210.52208
1210.521078
1210.522358
1210.523698
1210.526713
1210.529924
1210.53124
1210.529728
1210.526309
1210.523282
1210.521971
1210.523406
1210.525023
1210.528447
1210.531965
1210.53333
1210.531753
1210.528043
1210.524616
1210.523047
1210.524571
1210.526444
1210.530146
1210.533856
1210.535225
1210.533643
1210.529755
1210.526026
1210.524221
1210.525806
1210.527861
1210.531787
1210.535589
1210.536896
1210.535352
1210.531398
1210.527449
1210.525489
1210.527142
1210.529277
1210.533332
1210.537117
1210.538371
1210.536891
1210.532929
1210.528892
1210.526801
1210.528473
1210.530671
1210.534741
1210.538449
1210.539622
1210.538239
1210.534334
1210.530277
1210.528155
1210.529797
1210.532018
1210.536033
1210.539595
1210.540688
1210.539411
1210.535634
1210.531619
1210.529487
1210.531093
1210.533284
1210.537179
1210.54058
1210.541598
1210.54042
1210.536789
1210.532882
1210.530789
1210.532323
1210.534449
1210.538175
1210.541409
1210.542322
1210.541257
1210.537785
1210.534035
1210.532005
1210.533269
1210.535345
1210.538947
1210.54203
1210.542855
1210.541858
1210.538554
1210.534931
1210.53294
)
;
    }
    inlet
    {
        type            calculated;
        value           nonuniform 0();
    }
    outlet
    {
        type            calculated;
        value           nonuniform List<scalar> 
81
(
1210.532993
1210.535301
1210.538918
1210.541923
1210.543435
1210.54257
1210.538674
1210.535329
1210.533422
1210.535044
1210.538173
1210.542547
1210.546777
1210.548705
1210.546391
1210.542818
1210.537544
1210.535484
1210.538805
1210.542954
1210.548449
1210.553837
1210.556683
1210.554333
1210.548421
1210.542809
1210.538467
1210.542137
1210.547055
1210.554204
1210.561957
1210.5625
1210.561636
1210.555009
1210.546477
1210.542071
1210.54335
1210.548402
1210.556838
1210.562855
1208.977917
1210.563054
1210.557236
1210.548256
1210.543195
1210.54229
1210.546582
1210.554671
1210.561649
1210.562865
1210.561981
1210.554149
1210.546811
1210.542302
1210.53896
1210.542736
1210.548606
1210.554593
1210.556825
1210.554306
1210.548912
1210.542216
1210.538901
1210.535084
1210.537963
1210.542567
1210.546655
1210.548799
1210.546308
1210.542847
1210.538244
1210.535564
1210.533269
1210.535345
1210.538947
1210.54203
1210.542855
1210.541858
1210.538554
1210.534931
1210.53294
)
;
    }
    procBoundary1to0
    {
        type            processor;
        value           nonuniform List<scalar> 
97
(
1210.519217
1210.519217
1210.519457
1210.520033
1210.520354
1210.521038
1210.521102
1210.519666
1210.519493
1210.519645
1210.518939
1210.520049
1210.520049
1210.520049
1210.521128
1210.523224
1210.525755
1210.522843
1210.521295
1210.519361
1210.519683
1210.519388
1210.520195
1210.524486
1210.524486
1210.524486
1210.533137
1210.547661
1210.533488
1210.52448
1210.521406
1210.519549
1210.519721
1210.52113
1210.524698
1210.569698
1210.569698
1210.569698
1210.667465
1210.569387
1210.534214
1210.52289
1210.520445
1210.51975
1210.52162
1210.529336
1210.559773
1209.922546
1209.922546
1209.922546
1210.66809
1210.66809
1210.548151
1210.525413
1210.520925
1210.519841
1210.520648
1210.525017
1210.536504
1210.559883
1210.536808
1210.533374
1210.533374
1210.533374
1210.523373
1210.520756
1210.519517
1210.520068
1210.521438
1210.525059
1210.52934
1210.524766
1210.521728
1210.520687
1210.520687
1210.520687
1210.51996
1210.519037
1210.519204
1210.519896
1210.52058
1210.521984
1210.520305
1210.520067
1210.519586
1210.519711
1210.519711
1210.519711
1210.519374
1210.51926
1210.519479
1210.519603
1210.519334
1210.519343
1210.519178
1210.518823
1210.518945
)
;
    }
}


// ************************************************************************* //
