/*--------------------------------*- C++ -*----------------------------------*\
| =========                 |                                                 |
| \\      /  F ield         | OpenFOAM: The Open Source CFD Toolbox           |
|  \\    /   O peration     | Version:  4.x                                   |
|   \\  /    A nd           | Web:      www.OpenFOAM.org                      |
|    \\/     M anipulation  |                                                 |
\*---------------------------------------------------------------------------*/
FoamFile
{
    version     2.0;
    format      ascii;
    class       volScalarField;
    location    "2000";
    object      N2;
}
// * * * * * * * * * * * * * * * * * * * * * * * * * * * * * * * * * * * * * //

dimensions      [0 0 0 0 0 0 0];

internalField   nonuniform List<scalar> 
1174
(
0.6215274772
0.6215260416
0.621524012
0.6215213615
0.6215181168
0.6215143477
0.6215101535
0.6215056478
0.6215009453
0.6214961551
0.6214913776
0.6214867217
0.621482379
0.6214789615
0.6215261277
0.6215238239
0.6215207517
0.6215169805
0.6215126392
0.6215078844
0.6215028745
0.6214977554
0.6214926498
0.6214876559
0.6214828515
0.6214783128
0.6214741864
0.6214709963
0.6215231462
0.6215190677
0.6215140152
0.6215082708
0.6215021409
0.6214959035
0.6214897774
0.6214839186
0.6214784284
0.6214733624
0.621468744
0.6214645887
0.6214609644
0.6214582455
0.6215187715
0.6215124293
0.6215051387
0.62149743
0.6214897476
0.6214824113
0.6214756218
0.621469484
0.6214640314
0.6214592523
0.6214551074
0.6214515519
0.6214485822
0.6214464278
0.6215156441
0.6215080571
0.6214997695
0.6214913628
0.6214832596
0.6214757312
0.6214689259
0.6214629027
0.6214576583
0.6214531514
0.6214493198
0.6214461002
0.6214434644
0.6214415821
0.6215187716
0.62151243
0.6215051389
0.6214974311
0.6214897492
0.621482413
0.6214756238
0.621469486
0.6214640341
0.6214592558
0.6214551111
0.6214515558
0.6214485872
0.621446432
0.6215231461
0.6215190681
0.6215140157
0.6215082718
0.6215021431
0.6214959063
0.6214897799
0.6214839223
0.6214784328
0.6214733676
0.6214687499
0.6214645955
0.6214609721
0.6214582541
0.6215261282
0.6215238244
0.621520753
0.6215169822
0.6215126415
0.6215078866
0.6215028773
0.6214977589
0.6214926536
0.6214876606
0.6214828578
0.6214783206
0.6214741945
0.6214710056
0.6215274773
0.6215260422
0.6215240125
0.621521362
0.6215181175
0.6215143491
0.6215101553
0.6215056503
0.6215009484
0.6214961596
0.6214913837
0.6214867295
0.6214823873
0.6214789714
0.6215276823
0.6215261291
0.6215238243
0.6215207522
0.6215169815
0.6215126402
0.6215078851
0.6215028755
0.6214977561
0.6214926504
0.6214876559
0.6214828519
0.6214783135
0.6214741868
0.6214709967
0.6215230826
0.6215190309
0.621514084
0.6215085366
0.6215026863
0.6214967854
0.6214910208
0.6214855184
0.6214803532
0.6214755629
0.621471161
0.6214671606
0.6214636354
0.6214609673
0.6215154144
0.6215075304
0.6214989481
0.6214903922
0.6214823614
0.6214751284
0.6214687942
0.6214633486
0.621458719
0.6214548059
0.6214515061
0.621448732
0.6214464436
0.6214447919
0.6215017725
0.6214886457
0.6214761419
0.6214651967
0.6214561428
0.6214489412
0.6214433747
0.6214391639
0.621436036
0.6214337495
0.621432104
0.6214309416
0.6214301439
0.621429655
0.6214888844
0.6214730756
0.6214596538
0.6214489784
0.6214408469
0.6214348554
0.6214305725
0.6214276077
0.6214256385
0.6214244064
0.6214237117
0.6214233973
0.6214233376
0.6214234017
0.6215017736
0.6214886472
0.6214761432
0.6214651987
0.6214561446
0.6214489443
0.6214433779
0.6214391685
0.6214360411
0.6214337554
0.6214321103
0.6214309478
0.6214301503
0.6214296612
0.6215154157
0.6215075317
0.6214989497
0.6214903945
0.6214823644
0.6214751329
0.6214687998
0.6214633545
0.621458726
0.621454814
0.6214515155
0.6214487414
0.6214464531
0.6214448027
0.6215230831
0.6215190316
0.6215140845
0.6215085378
0.6215026888
0.6214967884
0.6214910244
0.621485523
0.6214803594
0.62147557
0.6214711699
0.6214671713
0.6214636463
0.6214609793
0.6215261286
0.6215238246
0.6215207524
0.6215169818
0.6215126416
0.6215078868
0.6215028779
0.6214977598
0.6214926554
0.6214876633
0.6214828601
0.6214783235
0.621474198
0.6214710093
0.6215260753
0.6215231468
0.6215190686
0.6215140159
0.6215082721
0.6215021427
0.621495905
0.6214897787
0.6214839202
0.6214784302
0.6214733638
0.6214687452
0.6214645896
0.6214609658
0.6214582471
0.6215217734
0.6215154161
0.6215075314
0.6214989484
0.6214903928
0.621482362
0.6214751287
0.6214687951
0.6214633497
0.6214587198
0.6214548063
0.6214515072
0.6214487326
0.6214464435
0.6214447926
0.6214927375
0.6214760781
0.6214609623
0.6214485374
0.6214390486
0.6214322322
0.6214276145
0.6214246912
0.6214230107
0.6214222034
0.6214219863
0.6214221459
0.6214225121
0.6214228967
0.6214422527
0.6214140603
0.6213945465
0.6213829569
0.6213774373
0.6213761072
0.621377444
0.621380343
0.6213840499
0.6213880782
0.6213921229
0.6213959871
0.6213994863
0.6214021688
0.6213760499
0.6213479127
0.6213357099
0.6213334164
0.6213367094
0.6213428602
0.6213502446
0.6213579361
0.6213654273
0.6213724568
0.6213789019
0.6213847012
0.6213897463
0.6213935215
0.6214422588
0.621414066
0.6213945526
0.621382964
0.6213774454
0.6213761162
0.6213774539
0.621380352
0.6213840592
0.6213880879
0.6213921323
0.6213959966
0.6213994955
0.6214021777
0.6214927424
0.621476082
0.6214609671
0.6214485439
0.6214390564
0.6214322413
0.6214276253
0.6214247029
0.6214230229
0.6214222169
0.6214220004
0.6214221605
0.6214225265
0.6214229113
0.6215154154
0.6215075315
0.6214989503
0.621490396
0.6214823666
0.6214751353
0.6214688027
0.6214633588
0.6214587302
0.6214548188
0.6214515202
0.6214487469
0.6214464595
0.6214448092
0.621523146
0.621519068
0.6215140162
0.6215082728
0.6215021448
0.6214959085
0.6214897837
0.6214839268
0.6214784394
0.621473375
0.6214687578
0.6214646038
0.6214609814
0.6214582649
0.621523659
0.6215187737
0.6215124312
0.6215051404
0.6214974321
0.6214897498
0.6214824132
0.6214756236
0.6214694859
0.6214640339
0.6214592544
0.6214551097
0.6214515538
0.6214485845
0.621446429
0.6215138315
0.6215017761
0.6214886487
0.6214761441
0.6214651993
0.6214561447
0.6214489426
0.6214433763
0.6214391657
0.6214360383
0.6214337511
0.6214321058
0.6214309432
0.6214301455
0.6214296564
0.6214765736
0.6214422585
0.6214140637
0.6213945496
0.6213829597
0.62137744
0.6213761097
0.6213774467
0.6213803442
0.6213840518
0.6213880799
0.6213921241
0.6213959882
0.6213994877
0.6214021693
0.6212690133
0.621233281
0.6212270684
0.6212369256
0.6212540108
0.6212733098
0.6212922704
0.6213097441
0.6213253294
0.6213389902
0.6213508494
0.6213610598
0.6213696403
0.6213759108
0.620928711
0.6209722701
0.6210399403
0.6211050702
0.6211605373
0.6212058538
0.6212424474
0.6212720283
0.6212960958
0.6213158425
0.6213321767
0.6213457481
0.621356865
0.621364858
0.6212690374
0.6212332989
0.6212270853
0.6212369435
0.6212540281
0.6212733266
0.6212922865
0.62130976
0.6213253448
0.6213390048
0.6213508628
0.6213610726
0.6213696524
0.6213759226
0.621442258
0.6214140677
0.6213945576
0.621382972
0.6213774552
0.6213761267
0.6213774649
0.6213803638
0.6213840713
0.6213880996
0.6213921436
0.6213960078
0.6213995068
0.6214021893
0.6215017732
0.621488648
0.6214761468
0.6214652047
0.6214561529
0.6214489536
0.6214433891
0.6214391806
0.6214360547
0.6214337691
0.6214321249
0.6214309632
0.6214301661
0.6214296778
0.6215187712
0.6215124303
0.6215051405
0.6214974339
0.6214897534
0.6214824197
0.6214756322
0.6214694966
0.6214640463
0.6214592695
0.6214551265
0.6214515721
0.6214486045
0.621446451
0.6215218432
0.6215156464
0.6215080596
0.6214997718
0.6214913655
0.6214832626
0.621475734
0.6214689292
0.621462906
0.6214576619
0.6214531549
0.6214493231
0.6214461032
0.6214434675
0.6214415849
0.6215055287
0.6214888889
0.6214730799
0.6214596581
0.6214489828
0.621440851
0.6214348596
0.6214305763
0.6214276113
0.621425642
0.6214244102
0.6214237151
0.6214234001
0.6214233398
0.6214234043
0.6214257798
0.6213760599
0.6213479215
0.6213357178
0.6213334231
0.6213367159
0.6213428653
0.6213502493
0.6213579403
0.6213654307
0.6213724597
0.6213789044
0.6213847036
0.6213897489
0.6213935241
0.620989849
0.6209287416
0.6209722888
0.6210399532
0.6211050793
0.6211605429
0.6212058585
0.6212424517
0.6212720317
0.6212960989
0.6213158453
0.6213321787
0.6213457505
0.6213568666
0.6213648603
0.6194600427
0.6202032963
0.6206162272
0.620858576
0.6210089524
0.6211074339
0.6211752259
0.621223996
0.6212604193
0.6212884756
0.6213106236
0.6213283996
0.6213426018
0.6213526593
0.6209287091
0.6209722957
0.6210399766
0.6211051069
0.6211605708
0.6212058844
0.6212424749
0.6212720533
0.6212961185
0.6213158632
0.6213321955
0.6213457659
0.6213568814
0.6213648739
0.6213760467
0.6213479223
0.6213357291
0.621333441
0.6213367379
0.6213428893
0.6213502742
0.6213579651
0.6213654558
0.6213724845
0.6213789281
0.6213847267
0.6213897711
0.6213935455
0.6214888838
0.6214730781
0.6214596609
0.6214489901
0.6214408625
0.6214348737
0.6214305926
0.6214276299
0.6214256619
0.6214244312
0.6214237372
0.6214234232
0.6214233629
0.6214234268
0.6215156438
0.621508058
0.6214997722
0.6214913679
0.6214832678
0.6214757425
0.6214689403
0.6214629198
0.6214576778
0.6214531727
0.6214493431
0.6214461248
0.6214434902
0.6214416089
0.6215236587
0.6215187734
0.6215124319
0.6215051416
0.6214974337
0.6214897516
0.6214824153
0.6214756266
0.6214694897
0.6214640382
0.6214592595
0.6214551147
0.6214515594
0.6214485903
0.6214464358
0.6215138325
0.6215017776
0.6214886514
0.6214761476
0.6214652037
0.6214561502
0.6214489489
0.6214433823
0.6214391723
0.6214360451
0.6214337587
0.6214321142
0.6214309519
0.6214301538
0.6214296651
0.6214765847
0.6214422693
0.6214140755
0.621394562
0.6213829725
0.6213774534
0.621376123
0.6213774591
0.6213803571
0.6213840644
0.621388092
0.6213921365
0.6213960005
0.6213994992
0.6214021817
0.6213486762
0.6212690642
0.6212333192
0.6212271015
0.6212369566
0.6212540386
0.6212733354
0.6212922937
0.6213097662
0.6213253498
0.6213390095
0.6213508674
0.6213610769
0.6213696565
0.6213759267
0.6209898548
0.6209287499
0.6209723205
0.6210399926
0.6211051176
0.6211605786
0.6212058908
0.6212424805
0.6212720575
0.6212961222
0.6213158661
0.6213321978
0.6213457676
0.6213568829
0.6213648753
0.621348667
0.6212690642
0.6212333296
0.6212271188
0.6212369768
0.6212540602
0.6212733569
0.6212923145
0.6213097852
0.6213253676
0.6213390258
0.6213508827
0.6213610911
0.6213696701
0.6213759403
0.6214422519
0.6214140721
0.6213945681
0.6213829853
0.6213774709
0.6213761432
0.6213774816
0.6213803806
0.6213840871
0.621388115
0.6213921582
0.6213960219
0.6213995206
0.6214022026
0.621501771
0.621488648
0.6214761488
0.6214652089
0.6214561597
0.6214489622
0.6214433979
0.62143919
0.621436064
0.6214337788
0.6214321347
0.6214309732
0.6214301765
0.621429688
0.6215187707
0.6215124298
0.621505141
0.6214974356
0.6214897562
0.621482423
0.6214756372
0.6214695022
0.6214640534
0.6214592772
0.6214551344
0.6214515804
0.6214486132
0.6214464596
0.6215260748
0.6215231468
0.6215190687
0.6215140175
0.6215082737
0.6215021455
0.6214959085
0.6214897829
0.6214839252
0.6214784361
0.6214733712
0.6214687533
0.6214645989
0.6214609755
0.6214582574
0.6215217752
0.6215154182
0.6215075343
0.6214989528
0.621490398
0.6214823683
0.6214751366
0.6214688035
0.6214633592
0.6214587301
0.6214548176
0.6214515189
0.621448745
0.6214464572
0.6214448058
0.6215086026
0.6214927481
0.6214760885
0.6214609733
0.62144855
0.6214390629
0.6214322473
0.6214276308
0.6214247084
0.6214230281
0.6214222211
0.6214220047
0.6214221643
0.6214225306
0.6214229159
0.6214765843
0.6214422713
0.6214140808
0.6213945703
0.6213829829
0.6213774649
0.6213761349
0.6213774725
0.6213803706
0.6213840771
0.6213881045
0.6213921482
0.6213960122
0.6213995105
0.621402193
0.6214257793
0.6213760684
0.6213479407
0.6213357446
0.6213334539
0.6213367484
0.6213428981
0.6213502811
0.6213579712
0.6213654607
0.6213724884
0.6213789321
0.6213847302
0.6213897743
0.621393549
0.6214765851
0.6214422737
0.6214140861
0.6213945781
0.6213829937
0.621377477
0.6213761483
0.6213774858
0.6213803831
0.62138409
0.6213881172
0.6213921601
0.6213960241
0.6213995222
0.6214022043
0.6215085987
0.6214927449
0.6214760886
0.6214609774
0.621448558
0.6214390734
0.6214322602
0.6214276463
0.6214247249
0.6214230453
0.6214222386
0.6214220219
0.6214221817
0.6214225486
0.6214229336
0.621515414
0.6215075325
0.6214989532
0.6214904009
0.6214823741
0.6214751452
0.6214688151
0.6214633721
0.6214587442
0.6214548337
0.6214515362
0.6214487636
0.6214464767
0.6214448265
0.6215231451
0.621519068
0.6215140171
0.621508275
0.6215021484
0.6214959134
0.6214897903
0.6214839351
0.6214784482
0.6214733851
0.6214687699
0.6214646169
0.6214609953
0.6214582792
0.6215276821
0.6215261287
0.6215238244
0.6215207533
0.6215169832
0.6215126432
0.6215078888
0.6215028795
0.6214977608
0.6214926565
0.6214876639
0.621482861
0.6214783235
0.6214741979
0.6214710085
0.6215260326
0.6215230844
0.6215190331
0.6215140868
0.6215085399
0.6215026913
0.6214967913
0.6214910278
0.6214855267
0.6214803629
0.6214755737
0.6214711736
0.6214671746
0.62146365
0.6214609832
0.6215217748
0.6215154182
0.6215075347
0.621498954
0.6214904004
0.621482371
0.6214751397
0.6214688083
0.6214633637
0.6214587351
0.6214548232
0.6214515251
0.6214487515
0.6214464638
0.621444813
0.6215138323
0.6215017788
0.6214886541
0.6214761526
0.6214652108
0.6214561595
0.62144896
0.6214433951
0.6214391865
0.62143606
0.621433774
0.6214321298
0.6214309677
0.6214301703
0.6214296819
0.6215055281
0.6214888913
0.6214730864
0.6214596692
0.6214489984
0.6214408699
0.6214348811
0.6214305988
0.6214276355
0.6214256669
0.6214244363
0.621423741
0.6214234273
0.6214233664
0.6214234309
0.6215138326
0.6215017802
0.6214886562
0.6214761566
0.6214652154
0.6214561649
0.6214489668
0.6214434021
0.6214391938
0.6214360682
0.6214337822
0.621432138
0.6214309764
0.6214301784
0.62142969
0.6215217746
0.6215154181
0.6215075362
0.6214989565
0.6214904042
0.6214823767
0.6214751472
0.6214688165
0.621463374
0.6214587461
0.6214548348
0.6214515379
0.621448765
0.6214464775
0.6214448273
0.6215260311
0.6215230834
0.6215190325
0.6215140865
0.6215085412
0.6215026942
0.6214967962
0.6214910347
0.6214855355
0.621480373
0.6214755853
0.6214711868
0.6214671896
0.6214636659
0.6214609996
0.6215261277
0.6215238238
0.6215207529
0.6215169836
0.6215126444
0.6215078912
0.6215028842
0.6214977678
0.6214926652
0.6214876744
0.6214828735
0.6214783379
0.6214742137
0.6214710267
0.6215283997
0.6215274772
0.6215260424
0.621524013
0.6215213623
0.6215181185
0.6215143501
0.6215101568
0.6215056521
0.6215009508
0.6214961621
0.6214913867
0.621486732
0.6214823906
0.6214789748
0.6215276822
0.6215261287
0.6215238246
0.6215207536
0.6215169837
0.6215126436
0.6215078895
0.6215028809
0.6214977628
0.621492658
0.6214876658
0.6214828635
0.621478327
0.6214742012
0.621471013
0.6215260748
0.6215231473
0.6215190701
0.6215140183
0.6215082754
0.6215021478
0.6214959118
0.6214897873
0.6214839309
0.6214784427
0.6214733787
0.6214687619
0.621464608
0.6214609853
0.6214582679
0.6215236588
0.621518774
0.6215124329
0.6215051439
0.6214974379
0.6214897578
0.6214824238
0.6214756367
0.6214695015
0.6214640518
0.6214592746
0.6214551315
0.6214515768
0.621448609
0.6214464556
0.6215218434
0.6215156471
0.6215080619
0.6214997767
0.6214913729
0.621483273
0.6214757475
0.621468945
0.6214629242
0.621457682
0.6214531774
0.6214493478
0.6214461287
0.6214434946
0.6214416134
0.6215236586
0.6215187741
0.6215124341
0.6215051456
0.6214974398
0.6214897606
0.6214824273
0.6214756409
0.6214695063
0.621464057
0.6214592803
0.6214551376
0.6214515836
0.6214486158
0.621446463
0.6215260752
0.6215231471
0.6215190704
0.6215140195
0.6215082772
0.6215021508
0.6214959164
0.6214897925
0.6214839372
0.6214784507
0.6214733871
0.6214687714
0.6214646187
0.621460997
0.6214582805
0.6215276819
0.6215261283
0.6215238248
0.6215207539
0.6215169841
0.6215126448
0.6215078924
0.6215028851
0.6214977685
0.6214926662
0.6214876751
0.6214828743
0.6214783389
0.6214742152
0.6214710277
0.6215283989
0.6215274767
0.6215260415
0.6215240125
0.6215213627
0.6215181191
0.6215143522
0.6215101604
0.6215056574
0.6215009578
0.6214961707
0.6214913971
0.6214867445
0.6214824048
0.6214789903
)
;

boundaryField
{
    top
    {
        type            zeroGradient;
    }
    bottom
    {
        type            zeroGradient;
    }
    side-walls
    {
        type            zeroGradient;
    }
    inlet
    {
        type            zeroGradient;
    }
    outlet
    {
        type            zeroGradient;
    }
    procBoundary1to0
    {
        type            processor;
        value           nonuniform List<scalar> 
97
(
0.6215283999
0.6215283999
0.6215276824
0.6215260755
0.62152366
0.621521845
0.6215236604
0.6215260757
0.6215276831
0.6215284003
0.6215286005
0.621526032
0.621526032
0.621526032
0.6215217758
0.6215138357
0.6215055361
0.621513837
0.6215217771
0.6215260331
0.6215276829
0.6215278732
0.6215259895
0.6215085995
0.6215085995
0.6215085995
0.6214765932
0.6214258207
0.6214766015
0.6215086089
0.6215217772
0.6215260759
0.6215268075
0.6215226656
0.62150817
0.621348674
0.621348674
0.621348674
0.6209901293
0.6213487399
0.6214766011
0.6215138368
0.6215236599
0.6215260453
0.6215195266
0.6214920499
0.6213832509
0.6180498843
0.6180498843
0.6180498843
0.620990115
0.620990115
0.6214258168
0.6215055352
0.6215218452
0.6215268071
0.6215226653
0.621508167
0.6214659939
0.6213832386
0.6214660013
0.6214765774
0.6214765774
0.6214765774
0.6215138333
0.6215236597
0.621527873
0.621525989
0.6215204643
0.6215081667
0.6214920475
0.6215081685
0.6215204652
0.621521773
0.621521773
0.621521773
0.6215260747
0.6215285997
0.6215278577
0.6215259889
0.6215226643
0.6215195251
0.621522665
0.621525989
0.6215278578
0.6215276817
0.6215276817
0.6215276817
0.6215289289
0.6215286001
0.6215278723
0.6215268066
0.6215260446
0.6215268068
0.6215278723
0.6215285995
0.6215289281
)
;
    }
}


// ************************************************************************* //
