/*--------------------------------*- C++ -*----------------------------------*\
| =========                 |                                                 |
| \\      /  F ield         | OpenFOAM: The Open Source CFD Toolbox           |
|  \\    /   O peration     | Version:  4.x                                   |
|   \\  /    A nd           | Web:      www.OpenFOAM.org                      |
|    \\/     M anipulation  |                                                 |
\*---------------------------------------------------------------------------*/
FoamFile
{
    version     2.0;
    format      ascii;
    class       surfaceScalarField;
    location    "2000";
    object      phi;
}
// * * * * * * * * * * * * * * * * * * * * * * * * * * * * * * * * * * * * * //

dimensions      [1 0 -1 0 0 0 0];

internalField   nonuniform List<scalar> 
3172
(
9.498115902e-06
-3.994580326e-11
-4.0687435e-11
9.498195483e-06
-3.846689716e-11
-3.913913193e-11
9.49825389e-06
-2.987289347e-11
-3.09440492e-11
9.498297261e-06
-2.198892812e-11
-2.23953259e-11
9.498328563e-06
-1.42049061e-11
-1.48229036e-11
9.498347852e-06
-1.001922432e-11
-8.827458326e-12
9.498353491e-06
-5.860559293e-12
-6.010450651e-12
9.49835631e-06
-2.508746563e-12
-1.5429811e-12
9.498358854e-06
1.767914724e-13
7.469590781e-13
9.498352213e-06
5.108898892e-13
3.703541468e-12
9.498344968e-06
3.894308916e-12
6.455328674e-12
9.498336767e-06
5.304479569e-12
5.08821081e-12
9.498320593e-06
6.117965164e-12
5.951196735e-12
7.081285473e-12
7.130204338e-12
9.498136615e-06
-7.75221839e-11
-5.351325736e-11
9.4982177e-06
-7.016273589e-11
-5.263045188e-11
9.498274028e-06
-5.114998918e-11
-3.793409102e-11
9.498312052e-06
-3.525049968e-11
-2.52401629e-11
9.498330991e-06
-2.241185073e-11
-1.339104481e-11
9.498345379e-06
-1.178505137e-11
-5.389593942e-12
9.498345619e-06
-6.920729105e-12
-2.95969329e-12
9.49834284e-06
-1.497870901e-12
1.870745899e-12
9.49833844e-06
3.667424697e-12
5.005268871e-12
9.498329878e-06
5.382456753e-12
4.507110016e-12
9.498320817e-06
7.050493207e-12
5.637705024e-12
9.498311128e-06
6.141871873e-12
5.51309379e-12
9.498299388e-06
9.516497638e-12
7.415232711e-12
1.114826854e-11
8.421887486e-12
9.498184988e-06
-7.570795715e-11
-1.025526105e-10
9.498270671e-06
-6.356302077e-11
-8.969221116e-11
9.498315894e-06
-4.417274865e-11
-5.626501705e-11
9.498338312e-06
-2.573410236e-11
-2.995123762e-11
9.498339558e-06
-1.575731977e-11
-1.196682159e-11
9.498336545e-06
-8.02242725e-12
-1.809451088e-12
9.498329476e-06
-1.71143108e-12
4.530161512e-12
9.498320828e-06
2.875262907e-12
8.04984567e-12
9.498310943e-06
4.996097665e-12
8.471531035e-12
9.498304389e-06
3.892903292e-12
7.369163701e-12
9.498295739e-06
5.911248565e-12
7.592978011e-12
9.498290354e-06
6.581264299e-12
8.20048669e-12
9.498280258e-06
9.724176285e-12
9.242859035e-12
8.803740242e-12
8.999959383e-12
9.498249778e-06
-5.83368515e-11
-9.330056696e-11
9.498318719e-06
-4.280177779e-11
-9.532127018e-11
9.49835171e-06
-2.540059145e-11
-5.016255456e-11
9.498355792e-06
-1.485451628e-11
-1.782984669e-11
9.498348833e-06
-7.357033751e-12
5.525428047e-13
9.498339532e-06
-3.271557776e-12
9.468161191e-12
9.498328556e-06
2.731037988e-13
1.321487815e-11
9.498316342e-06
1.780134427e-12
1.297377112e-11
9.498305521e-06
1.434916404e-12
1.166679831e-11
9.498299865e-06
1.996167348e-12
1.131229483e-11
9.498293497e-06
1.536492102e-12
9.343007811e-12
9.498290596e-06
1.631187356e-12
1.033292427e-11
9.498285022e-06
2.520957379e-12
1.344166608e-11
3.79941333e-12
1.174314051e-11
9.498323139e-06
5.810932237e-11
-2.018941316e-10
9.498373005e-06
4.086520344e-11
-1.293674637e-10
9.498377146e-06
2.519535761e-11
-5.542757754e-11
9.498364418e-06
1.328552307e-11
-1.314876889e-11
9.498345451e-06
7.681223358e-12
3.96603974e-12
9.498328091e-06
3.530056626e-12
1.132287524e-11
9.498313375e-06
1.485056268e-12
1.309583981e-11
9.498299019e-06
-9.33977563e-13
1.127758537e-11
9.498289083e-06
2.913531596e-13
1.034948942e-11
9.498283232e-06
-4.037060996e-13
1.04696447e-11
9.498279812e-06
-8.593311062e-13
1.027084864e-11
9.498279324e-06
1.492927947e-14
9.691665034e-12
9.498276039e-06
-2.242690743e-12
1.302656927e-11
-4.002072319e-12
1.08669627e-11
9.498208112e-06
7.451047413e-11
-9.188101755e-11
9.498282769e-06
6.387086849e-11
-9.404726989e-11
9.498311826e-06
4.22119087e-11
-4.97955076e-11
9.49831819e-06
2.606052509e-11
-1.681046962e-11
9.498313541e-06
1.568448547e-11
5.008043878e-13
9.49830292e-06
6.190703665e-12
9.955654141e-12
9.4982905e-06
1.581299586e-12
1.394986183e-11
9.498280373e-06
-8.606601247e-13
1.492153725e-11
9.498268119e-06
-3.594095271e-12
1.186318147e-11
9.49826326e-06
-3.699393123e-12
1.157654606e-11
9.498259954e-06
-6.70113799e-12
1.159330882e-11
9.498256521e-06
-7.124688174e-12
1.069366426e-11
9.498251109e-06
-9.631344048e-12
1.225608063e-11
-9.395234668e-12
1.224988676e-11
9.498202397e-06
7.666087788e-11
-1.030151339e-10
9.498287286e-06
6.991953502e-11
-8.91798514e-11
9.498333519e-06
5.053129218e-11
-5.400922659e-11
9.498353101e-06
3.668708798e-11
-2.823388779e-11
9.498357934e-06
2.319531852e-11
-1.118805565e-11
9.498355331e-06
1.497821054e-11
-5.179253817e-13
9.498346446e-06
7.417577284e-12
4.724143448e-12
9.49833544e-06
1.523708188e-12
8.197176804e-12
9.498325964e-06
-2.52358356e-12
1.000047898e-11
9.498315346e-06
-4.398435117e-12
8.97438451e-12
9.49831018e-06
-6.055133538e-12
1.022642525e-11
9.498303919e-06
-6.8576627e-12
9.786008845e-12
9.498294176e-06
-1.002508015e-11
1.213240862e-11
-1.04827852e-11
1.054080345e-11
9.498136242e-06
4.135948293e-11
-5.296579472e-11
9.498215643e-06
3.874326296e-11
-5.279265176e-11
9.498278227e-06
3.100462473e-11
-3.530538546e-11
9.498311465e-06
2.25982224e-11
-2.417565044e-11
9.498332659e-06
1.58963789e-11
-1.474933256e-11
9.49834355e-06
9.91137906e-12
-6.838817408e-12
9.498345735e-06
5.90077458e-12
-8.816975119e-13
9.498341412e-06
2.432170369e-12
4.398269449e-12
9.498335297e-06
-6.491485239e-13
6.190252858e-12
9.498326411e-06
-2.524814525e-12
7.520881111e-12
9.498318448e-06
-3.274084534e-12
8.26363656e-12
9.49831027e-06
-4.635381074e-12
7.909220057e-12
9.498297121e-06
-6.129006131e-12
9.569081667e-12
-5.714727543e-12
8.890383109e-12
9.498092227e-06
-4.141216906e-11
9.498172512e-06
-4.001883945e-11
9.498234294e-06
-2.979428863e-11
9.49827575e-06
-2.190201082e-11
9.498304755e-06
-1.54918375e-11
9.498324329e-06
-9.465015384e-12
9.49833343e-06
-5.232874674e-12
9.498334688e-06
-8.329146837e-13
9.498332353e-06
1.486956293e-12
9.498327472e-06
3.936791801e-12
9.49832133e-06
4.824352692e-12
9.498312655e-06
6.783473785e-12
9.498296317e-06
8.730743173e-12
8.687424205e-12
9.498063901e-06
-1.241770594e-10
9.498151455e-06
-5.160528996e-11
-7.472598328e-11
9.498230858e-06
-5.091490016e-11
-6.88429498e-11
9.49828793e-06
-3.629649545e-11
-4.975896779e-11
9.498324936e-06
-2.328122651e-11
-3.361246121e-11
9.498345638e-06
-1.277750646e-11
-2.131200939e-11
9.498355104e-06
-6.465339412e-12
-1.332300272e-11
9.498358314e-06
-1.840180394e-12
-5.597852852e-12
9.498354374e-06
9.362311424e-13
-2.083745403e-12
9.498350918e-06
4.705563034e-12
3.390251238e-12
9.49834402e-06
3.889868417e-12
6.797394044e-12
9.498333011e-06
5.792607354e-12
8.238334385e-12
9.498325083e-06
6.827172542e-12
8.107108308e-12
9.498312385e-06
8.314430844e-12
8.931044897e-12
9.538016581e-12
9.935726605e-12
9.498169868e-06
-9.436041579e-11
-9.622974667e-11
9.498247024e-06
-8.740984085e-11
-8.950449015e-11
9.498291642e-06
-5.96659375e-11
-5.97071861e-11
9.498315203e-06
-3.485682359e-11
-3.461124169e-11
9.498321518e-06
-1.757810898e-11
-1.769647681e-11
9.498323195e-06
-5.74398718e-12
-5.147894719e-12
9.498320714e-06
1.529060978e-12
1.537388777e-12
9.498313574e-06
5.78640105e-12
5.623077589e-12
9.498307252e-06
8.811420451e-12
9.931243444e-12
9.498303774e-06
9.346056235e-12
1.027470748e-11
9.498294373e-06
9.447817702e-12
9.380963774e-12
9.498287683e-06
9.860001285e-12
9.08649837e-12
9.498280675e-06
1.258289528e-11
1.189090953e-11
1.218934841e-11
1.233344387e-11
9.498265464e-06
-9.345493908e-11
-1.908425963e-10
9.498326017e-06
-8.123148778e-11
-1.564415609e-10
9.498340304e-06
-4.676054469e-11
-8.563050769e-11
9.498336126e-06
-1.964095782e-11
-3.638619441e-11
9.498321642e-06
-6.260033451e-12
-9.736150316e-12
9.498308924e-06
1.015547287e-12
5.55499133e-12
9.498299314e-06
5.62999251e-12
1.28621628e-11
9.498291617e-06
7.481976886e-12
1.538882244e-11
9.498285148e-06
8.003280469e-12
1.50378959e-11
9.498282583e-06
8.756807845e-12
1.468945782e-11
9.498279963e-06
8.99634978e-12
1.354836047e-11
9.498278472e-06
8.935081158e-12
1.219219573e-11
9.498277638e-06
1.265613503e-11
1.649467825e-11
1.20832125e-11
1.468417306e-11
9.498319995e-06
-6.160160277e-11
-1.21131276e-10
9.49833816e-06
-4.731721459e-11
-1.508758637e-10
9.498328042e-06
-2.420766523e-11
-6.011622793e-11
9.498305084e-06
-9.683483405e-12
-3.667531815e-12
9.498284264e-06
-3.008252778e-12
1.710506695e-11
9.498271793e-06
4.720939438e-13
2.591141315e-11
9.498264798e-06
2.713450083e-12
2.792651761e-11
9.498262072e-06
2.3088433e-12
2.421932407e-11
9.498261696e-06
3.312886759e-12
2.060830683e-11
9.498262579e-06
3.301770443e-12
1.748981999e-11
9.498264496e-06
3.360058452e-12
1.607698206e-11
9.498269524e-06
2.896025835e-12
1.377686273e-11
9.498272643e-06
3.468808697e-12
1.584644041e-11
4.290935316e-12
1.560890404e-11
9.498458212e-06
6.072000551e-11
-2.401391376e-10
9.498394356e-06
4.592087506e-11
-1.614532897e-10
9.498337599e-06
2.484340608e-11
-4.956553605e-11
9.498293035e-06
1.001764332e-11
1.251444458e-11
9.498264705e-06
3.16182119e-12
2.585152798e-11
9.49825227e-06
-4.370475993e-13
2.861054171e-11
9.498246824e-06
-5.273046641e-13
2.600642245e-11
9.498246174e-06
-6.298986833e-14
2.163829699e-11
9.498248324e-06
-1.605689619e-12
1.757517187e-11
9.498250398e-06
-2.352741381e-12
1.515789116e-11
9.498254801e-06
-1.929371169e-12
1.465939081e-11
9.498260751e-06
-2.757527241e-12
1.188198484e-11
9.498266012e-06
-4.677011498e-12
1.691069143e-11
-4.500064291e-12
1.747149246e-11
9.498337122e-06
9.087872025e-11
-1.216700686e-10
9.498356144e-06
8.085106188e-11
-1.507917712e-10
9.498345538e-06
4.58412151e-11
-5.836450332e-11
9.498323591e-06
2.063795142e-11
-1.155483083e-12
9.49830437e-06
7.868827319e-12
1.966506091e-11
9.49829152e-06
-1.176834618e-12
2.743676196e-11
9.498284743e-06
-5.89029446e-12
2.61803787e-11
9.498280428e-06
-8.543638018e-12
2.361629186e-11
9.498281553e-06
-7.693214138e-12
2.036692838e-11
9.49828296e-06
-8.00521286e-12
1.87172301e-11
9.498286055e-06
-8.873021811e-12
1.582388922e-11
9.498288897e-06
-8.798874614e-12
1.304124087e-11
9.49829297e-06
-1.094416532e-11
1.814387202e-11
-1.118814956e-11
1.754292468e-11
9.498253825e-06
9.48627794e-11
-1.889142472e-10
9.498315053e-06
8.720851269e-11
-1.571301943e-10
9.498330851e-06
5.928541394e-11
-8.418441935e-11
9.498325572e-06
3.521719523e-11
-3.543498978e-11
9.498311117e-06
1.770448453e-11
-1.002234389e-11
9.498299237e-06
7.389191302e-12
6.342701006e-12
9.498286818e-06
5.969178875e-13
1.162646956e-11
9.498278025e-06
-3.666933604e-12
1.507835418e-11
9.498272498e-06
-7.409407767e-12
1.502318511e-11
9.498269456e-06
-6.945128864e-12
1.437301171e-11
9.498266899e-06
-9.771542581e-12
1.404516765e-11
9.498265103e-06
-9.434728577e-12
1.241178078e-11
9.498262886e-06
-1.281330669e-11
1.573819735e-11
-1.317721932e-11
1.549062619e-11
9.498205076e-06
5.314553302e-11
-9.404510671e-11
9.498284569e-06
5.185781338e-11
-8.731542191e-11
9.498328998e-06
3.669231616e-11
-5.925174613e-11
9.498351108e-06
2.505855169e-11
-3.508581829e-11
9.498360445e-06
1.593697371e-11
-1.835702294e-11
9.498360946e-06
7.440544241e-12
-4.8984086e-12
9.498356691e-06
6.376948912e-13
1.724753279e-12
9.498350498e-06
-2.620007319e-12
5.312184426e-12
9.498343123e-06
-4.736608183e-12
9.490892476e-12
9.498334296e-06
-6.755520359e-12
9.700273126e-12
9.498329548e-06
-6.393848298e-12
1.107780769e-11
9.498324203e-06
-5.915984249e-12
1.190577602e-11
9.498312629e-06
-7.408070244e-12
1.294421246e-11
-6.763752258e-12
1.214001601e-11
9.498125847e-06
-7.700063433e-11
9.498209208e-06
-6.945133325e-11
9.498265623e-06
-5.064265538e-11
9.498301946e-06
-3.535344916e-11
9.498323779e-06
-2.335509813e-11
9.498333089e-06
-1.254021277e-11
9.498335165e-06
-4.139980934e-12
9.498330993e-06
1.875018477e-13
9.498325436e-06
4.402671778e-12
9.498318673e-06
5.20626417e-12
9.498311259e-06
8.247003652e-12
9.498303389e-06
9.824150253e-12
9.498290081e-06
1.000402139e-11
8.92390384e-12
9.49808812e-06
-2.13239793e-10
-1.543227949e-10
9.49819096e-06
-1.043584965e-10
-7.632655485e-11
9.498275696e-06
-9.064921957e-11
-6.474658009e-11
9.498320695e-06
-5.452135889e-11
-4.316916053e-11
9.498342798e-06
-2.765750411e-11
-2.498552125e-11
9.498345193e-06
-1.166293326e-11
-1.537788648e-11
9.498343262e-06
8.192003628e-13
-6.78576417e-12
9.498336545e-06
4.677245758e-12
2.774404292e-13
9.498327886e-06
9.462391771e-12
4.271665898e-12
9.498320359e-06
1.201027092e-11
6.481100793e-12
9.498312157e-06
8.868558852e-12
5.286134349e-12
9.498303476e-06
7.784224646e-12
7.141891224e-12
9.498296531e-06
7.92372908e-12
7.764655002e-12
9.498287108e-06
1.205435915e-11
1.136162644e-11
1.262014293e-11
1.126926524e-11
9.498163476e-06
-2.977125163e-10
9.498250465e-06
-1.887259125e-10
-9.328357011e-11
9.498310579e-06
-1.550918649e-10
-8.372436227e-11
9.49832471e-06
-8.573806823e-11
-4.75132649e-11
9.498320091e-06
-3.695811018e-11
-2.020164378e-11
9.498307072e-06
-8.647633834e-12
-7.877526132e-12
9.498291288e-06
4.706097033e-12
1.322859558e-12
9.498283935e-06
1.334219803e-11
7.860082092e-12
9.498277753e-06
1.579189168e-11
9.689268349e-12
9.498267227e-06
1.442543733e-11
8.566512309e-12
9.498262342e-06
1.423656183e-11
8.368146319e-12
9.498260274e-06
1.46756813e-11
1.110709533e-11
9.498258929e-06
1.445417941e-11
1.132119822e-11
9.49825793e-06
1.701260159e-11
1.335022721e-11
1.448375635e-11
1.094994329e-11
9.498439371e-06
-2.060577139e-10
-2.083745372e-10
9.498424032e-06
-1.483154378e-10
-1.4909069e-10
9.498367352e-06
-5.788696696e-11
-5.853864494e-11
9.498313661e-06
-1.006938186e-11
-1.061614434e-11
9.498277705e-06
7.450401892e-12
8.06063532e-12
9.498259883e-06
1.525941446e-11
1.595067698e-11
9.498252382e-06
1.735089694e-11
1.803021209e-11
9.498253155e-06
1.546908973e-11
1.637075139e-11
9.498257811e-06
1.344070345e-11
1.418633636e-11
9.498264751e-06
1.179076651e-11
1.203231768e-11
9.498272821e-06
1.167955259e-11
1.28924735e-11
9.498279051e-06
1.102352798e-11
1.158017619e-11
9.498286425e-06
1.417796568e-11
1.488136761e-11
1.358043653e-11
1.200690878e-11
9.498477084e-06
-1.009823026e-10
1.991650898e-11
9.498358469e-06
-7.848710263e-11
-9.820588054e-11
9.498268628e-06
-2.803776223e-11
6.338401416e-12
9.498218676e-06
-3.038215848e-12
4.554359191e-11
9.498201069e-06
3.131410061e-12
4.287519008e-11
9.498206443e-06
5.45335437e-12
3.756351527e-11
9.498220304e-06
4.692245044e-12
2.844418992e-11
9.498239158e-06
4.461287753e-12
2.179052181e-11
9.498257152e-06
3.521246395e-12
1.667867146e-11
9.498272305e-06
2.976200106e-12
1.209016891e-11
9.498287597e-06
4.083597946e-12
1.150657236e-11
9.498299154e-06
3.028108969e-12
1.053939965e-11
9.49831732e-06
5.332369329e-12
1.484554451e-11
6.14304944e-12
1.452987481e-11
9.49874422e-06
1.012920791e-10
1.379914185e-10
9.498399185e-06
7.749734605e-11
3.500844493e-11
9.498245258e-06
2.835327023e-11
5.529226541e-11
9.498183896e-06
4.044768179e-12
6.938109865e-11
9.498174395e-06
-2.023818859e-12
4.310920278e-11
9.498186748e-06
-4.1092477e-12
2.767911433e-11
9.498203654e-06
-4.851317286e-12
1.889511311e-11
9.498223467e-06
-3.218382992e-12
1.332185716e-11
9.49824297e-06
-3.076187714e-12
1.059081641e-11
9.498258189e-06
-1.94764496e-12
8.521426422e-12
9.498270998e-06
-3.027406097e-12
6.967995883e-12
9.498285572e-06
-2.909992371e-12
8.179808256e-12
9.498304071e-06
-5.007699674e-12
1.485379546e-11
-5.308069731e-12
1.224287998e-11
9.498455503e-06
2.056785921e-10
2.06641615e-11
9.498339908e-06
1.479625524e-10
-9.739847548e-11
9.498250613e-06
5.664179554e-11
4.707936558e-12
9.498199797e-06
9.756412559e-12
4.527997727e-11
9.498181276e-06
-8.296386701e-12
4.222370321e-11
9.498183818e-06
-1.501861917e-11
3.750294792e-11
9.498199341e-06
-1.599927788e-11
2.955594459e-11
9.498215327e-06
-1.484303399e-11
2.227800263e-11
9.498233974e-06
-1.145791293e-11
1.734810504e-11
9.498247901e-06
-1.112735097e-11
1.226344808e-11
9.498260785e-06
-1.064246734e-11
1.031859375e-11
9.498274641e-06
-9.882275524e-12
1.083204571e-11
9.498290811e-06
-1.382173261e-11
1.462977908e-11
-1.364083424e-11
1.502420509e-11
9.498439002e-06
1.895584781e-10
-2.060846014e-10
9.498427725e-06
1.579481168e-10
-1.472548621e-10
9.498371506e-06
8.508451275e-11
-5.645990938e-11
9.498317575e-06
3.599573175e-11
-8.242334424e-12
9.498282219e-06
1.014395049e-11
1.082908107e-11
9.498260527e-06
-4.339156871e-12
1.781430544e-11
9.498256761e-06
-9.521410982e-12
1.836344564e-11
9.498255078e-06
-1.261941469e-11
1.602132514e-11
9.498257096e-06
-1.256258535e-11
1.444655198e-11
9.498263995e-06
-1.170867313e-11
1.339843416e-11
9.498272188e-06
-1.35509067e-11
1.258728268e-11
9.498280217e-06
-1.177125447e-11
9.784144128e-12
9.498288398e-06
-1.473646784e-11
1.462520853e-11
-1.641014257e-11
1.286200819e-11
9.498248345e-06
1.021571766e-10
-9.431649508e-11
9.498309429e-06
8.932500982e-11
-8.201440936e-11
9.498325592e-06
5.478180197e-11
-4.613278807e-11
9.498319745e-06
2.98232807e-11
-2.093995534e-11
9.498308783e-06
1.323440571e-11
-6.523637416e-12
9.498294275e-06
1.300897463e-12
3.149111647e-12
9.498284627e-06
-4.373848344e-12
7.639300811e-12
9.498275673e-06
-7.56572178e-12
9.125312227e-12
9.498267625e-06
-9.800141417e-12
7.184212904e-12
9.498265188e-06
-1.009064033e-11
8.538462083e-12
9.498265631e-06
-8.757409647e-12
9.122933751e-12
9.498262514e-06
-7.991194173e-12
7.603366702e-12
9.498261707e-06
-9.554893292e-12
1.067336561e-11
-9.998730216e-12
1.071196336e-11
9.498210559e-06
-7.346277642e-11
9.49829595e-06
-6.419559207e-11
9.498343071e-06
-4.337290621e-11
9.498360803e-06
-2.631552257e-11
9.498366632e-06
-1.282500604e-11
9.49836246e-06
-4.882120058e-12
9.498355686e-06
4.412406382e-15
9.498344639e-06
1.134885367e-12
9.49833531e-06
3.845103886e-12
9.498328704e-06
6.357129697e-12
9.498321522e-06
6.661861275e-12
9.498313513e-06
6.651109338e-12
9.498302811e-06
9.38926028e-12
9.857274406e-12
9.49815784e-06
-3.328986751e-10
-1.469187929e-10
9.498236003e-06
-9.355564138e-11
-6.116672592e-11
9.498306664e-06
-9.618456129e-11
-4.118422721e-11
9.498337913e-06
-4.889284422e-11
-2.641479375e-11
9.498342132e-06
-1.557378596e-11
-1.405619951e-11
9.498337666e-06
2.14211907e-12
-6.173869107e-12
9.498326624e-06
1.13578654e-11
-2.588914117e-12
9.498313072e-06
1.373319771e-11
4.774473866e-13
9.498303812e-06
1.498440586e-11
2.139977056e-12
9.498294436e-06
1.395518443e-11
2.150328582e-12
9.498286391e-06
1.102101519e-11
2.077240565e-12
9.498280914e-06
1.066238812e-11
3.665246807e-12
9.498277572e-06
1.043379004e-11
4.427895578e-12
9.498271834e-06
1.246683366e-11
5.416809117e-12
1.221662825e-11
5.386552032e-12
9.498309427e-06
-8.092687198e-10
-3.047579437e-10
9.498299478e-06
-1.194757565e-10
-6.34729179e-11
9.498319953e-06
-1.473379532e-10
-4.624549862e-11
9.498308238e-06
-5.84290933e-11
-2.627100992e-11
9.498284197e-06
-3.591123811e-12
-1.048255929e-11
9.498266717e-06
1.88534652e-11
-3.164704538e-12
9.498251725e-06
2.565576103e-11
-4.551597474e-13
9.498245535e-06
2.662793594e-11
1.973895244e-12
9.498243319e-06
2.413201509e-11
2.842320151e-12
9.498242336e-06
2.056767651e-11
2.930383431e-12
9.498245538e-06
1.759970382e-11
3.69981181e-12
9.498248848e-06
1.637508693e-11
3.891818077e-12
9.498252902e-06
1.430994596e-11
3.963566732e-12
9.498257087e-06
1.798917476e-11
5.503035063e-12
1.640326422e-11
4.507071218e-12
9.498697639e-06
-9.036268302e-10
9.49845537e-06
2.161995832e-11
-1.03904388e-10
9.498336214e-06
-9.783450558e-11
-7.801024318e-11
9.498248359e-06
6.767521311e-12
-2.785420601e-11
9.498198559e-06
4.507382123e-11
-2.944526328e-12
9.498183466e-06
4.293323377e-11
2.416294789e-12
9.498188467e-06
3.710835655e-11
5.342841675e-12
9.498201704e-06
2.868929131e-11
5.760015537e-12
9.498219759e-06
2.128908043e-11
3.544859394e-12
9.498235081e-06
1.517883345e-11
3.990454905e-12
9.498253728e-06
1.201426325e-11
3.422370592e-12
9.498267615e-06
1.000935203e-11
4.426357338e-12
9.4982808e-06
9.982737027e-12
4.295343679e-12
9.498295432e-06
1.461986291e-11
6.253382502e-12
1.574516301e-11
6.814369232e-12
9.497977461e-06
4.35231239e-10
4.343460526e-10
9.497901977e-06
-5.84879456e-11
-5.740400375e-11
9.497921071e-06
-4.353114312e-12
-1.778784805e-12
9.497978451e-06
2.157137517e-11
2.289777581e-11
9.498045323e-06
1.275190365e-11
1.371384117e-11
9.498107586e-06
7.91218216e-12
1.010162651e-11
9.498157091e-06
5.470363549e-12
5.812966294e-12
9.498194872e-06
2.229231752e-12
3.851638103e-12
9.498223898e-06
2.26364474e-12
1.620810349e-12
9.498246217e-06
3.018672719e-12
2.47870748e-12
9.49826634e-06
2.135582211e-12
3.003705166e-12
9.498281461e-06
1.876542623e-12
2.2018347e-12
9.498305008e-06
6.22472173e-12
6.327629795e-12
5.885009525e-12
6.71360354e-12
9.498026574e-06
-4.353943966e-10
2.807731618e-09
9.497935849e-06
5.684183061e-11
2.436829874e-11
9.498047887e-06
2.208933036e-12
-5.218111055e-11
9.49816288e-06
-2.150552108e-11
4.115338573e-12
9.498247544e-06
-1.295223064e-11
-6.161625166e-12
9.498308032e-06
-6.627127182e-12
-7.515958144e-12
9.498346247e-06
-4.603288401e-12
-5.506918851e-12
9.498372716e-06
-2.163917656e-12
-4.767818157e-12
9.498392858e-06
-1.537409927e-12
-2.436598177e-12
9.498405763e-06
-2.259502809e-12
-2.580556086e-12
9.498421044e-06
-2.046974167e-12
2.30775831e-13
9.498433391e-06
-1.64101742e-12
8.504352514e-13
9.49845676e-06
-5.201388717e-12
4.918805385e-12
-4.720606426e-12
-6.793528045e-13
9.49799095e-06
-2.167522109e-11
4.337176728e-10
9.497914878e-06
9.790503371e-11
-5.701982382e-11
9.497940021e-06
-3.94525043e-12
-2.102539981e-12
9.49799392e-06
-4.415675988e-11
2.111590272e-11
9.498061874e-06
-4.074681012e-11
1.25624203e-11
9.498120338e-06
-3.437157244e-11
7.429037832e-12
9.498172541e-06
-2.780334194e-11
5.218379824e-12
9.498210207e-06
-2.050250723e-11
1.470373373e-12
9.498240403e-06
-1.42753441e-11
2.410848137e-12
9.498262951e-06
-1.009325323e-11
2.452057739e-12
9.498282071e-06
-9.299341482e-12
1.970593201e-12
9.498297562e-06
-9.120721849e-12
2.252887193e-12
9.498321854e-06
-1.357084573e-11
6.601870938e-12
-1.556156336e-11
4.040875001e-12
9.498416745e-06
1.190600511e-10
-1.025333376e-10
9.498299708e-06
1.48407671e-10
-7.755890343e-11
9.498209877e-06
5.819959392e-11
-2.807898169e-11
9.498160481e-06
1.251401159e-12
-5.136235437e-12
9.498142279e-06
-1.936845292e-11
8.335775538e-13
9.498145174e-06
-2.607624588e-11
4.531011061e-12
9.498161562e-06
-2.49407654e-11
5.454155545e-12
9.498180586e-06
-2.257676345e-11
3.375955026e-12
9.498196325e-06
-1.960033953e-11
2.971035957e-12
9.49821115e-06
-1.650416773e-11
2.027005705e-12
9.498225828e-06
-1.551659847e-11
3.929863932e-12
9.498241436e-06
-1.355740593e-11
4.863184663e-12
9.498255163e-06
-1.790703051e-11
5.776472398e-12
-1.792839925e-11
6.167752047e-12
9.498336652e-06
9.427857762e-11
-6.166147804e-11
9.498355755e-06
9.42788972e-11
-4.581199201e-11
9.498342771e-06
4.86503129e-11
-2.498310376e-11
9.498322826e-06
1.668361089e-11
-1.042963407e-11
9.498304368e-06
1.266416441e-12
-2.89661317e-12
9.498289095e-06
-1.01035589e-11
7.22554974e-13
9.498280605e-06
-1.277733445e-11
2.044525253e-12
9.498277401e-06
-1.452860988e-11
2.256252752e-12
9.498276447e-06
-1.232199469e-11
3.59472199e-12
9.498275451e-06
-1.132255576e-11
3.337321798e-12
9.498279283e-06
-1.129711615e-11
3.362377682e-12
9.498283766e-06
-8.10284798e-12
3.776059181e-12
9.498285575e-06
-1.174530332e-11
5.222446991e-12
-1.066270099e-11
5.498473638e-12
9.498240787e-06
-5.970975954e-11
9.498316217e-06
-4.11053864e-11
9.498345468e-06
-2.536375462e-11
9.498352876e-06
-1.29799969e-11
9.498346165e-06
-7.63356096e-12
9.498334322e-06
-4.426705239e-12
9.498318252e-06
-2.220813654e-12
9.498308385e-06
-4.053793512e-14
9.498300137e-06
1.500986855e-12
9.498291051e-06
1.553015293e-12
9.49828872e-06
3.571407232e-12
9.498282343e-06
2.683001891e-12
9.498274903e-06
3.324412349e-12
3.05182477e-12
9.498244278e-06
-8.230825435e-10
1.456535421e-10
9.498329781e-06
-2.014381899e-10
5.762194111e-11
9.498377633e-06
-1.294465752e-10
3.940161538e-11
9.498381642e-06
-5.470934953e-11
2.140947604e-11
9.498369365e-06
-1.155649184e-11
1.150504371e-11
9.498352503e-06
6.039959995e-12
6.517182766e-12
9.498335496e-06
1.294291154e-11
3.401831329e-12
9.498317654e-06
1.477842362e-11
8.15485033e-13
9.498304949e-06
1.345300023e-11
6.587033522e-13
9.498295572e-06
1.221601639e-11
-1.30226652e-12
9.49829109e-06
1.145910458e-11
6.193405137e-13
9.498284246e-06
8.868889191e-12
-2.185030065e-12
9.498282735e-06
9.508273356e-12
-2.274127833e-12
9.498277659e-06
1.214898738e-11
-2.494898832e-12
1.145007774e-11
-2.592463904e-12
9.498559371e-06
-2.380313222e-09
3.029008963e-10
9.4984741e-06
-2.386066991e-10
6.231994426e-11
9.498407566e-06
-1.599508971e-10
4.484249973e-11
9.498353723e-06
-4.717495019e-11
2.433605074e-11
9.498308641e-06
1.306836385e-11
8.349948098e-12
9.498283042e-06
2.709948579e-11
2.463592277e-12
9.498267431e-06
2.885993932e-11
-6.203048247e-13
9.498261177e-06
2.593539499e-11
-1.349190951e-12
9.498259793e-06
2.035435363e-11
-6.668098551e-13
9.498262213e-06
1.966952588e-11
-1.059955459e-12
9.49826532e-06
1.521972857e-11
-3.466429282e-13
9.49826921e-06
1.47897522e-11
-1.569536005e-12
9.498273812e-06
1.253528043e-11
-1.752281527e-12
9.498278611e-06
1.798193894e-11
-3.656627805e-12
1.81166894e-11
-2.317111418e-12
9.499315016e-06
-6.406911111e-09
9.02151515e-10
9.498737055e-06
1.392414619e-10
1.024970596e-10
9.498388813e-06
3.569588414e-11
7.583538258e-11
9.49823326e-06
5.566872606e-11
2.552986367e-11
9.498173307e-06
7.006016307e-11
4.68110263e-12
9.498163916e-06
4.489425782e-11
-2.798366712e-12
9.498176772e-06
3.01872179e-11
-3.922059332e-12
9.498194575e-06
1.884761753e-11
-4.238085706e-12
9.498217018e-06
1.394232472e-11
-3.798521049e-12
9.498232817e-06
8.857255734e-12
-3.973347232e-12
9.498251271e-06
7.542173042e-12
-2.472087388e-12
9.498263343e-06
6.70839224e-12
-2.570896362e-12
9.498278335e-06
7.431748129e-12
-2.21982752e-13
9.498294548e-06
1.420897207e-11
-3.420991489e-12
1.328938504e-11
-4.514502661e-12
9.499804749e-06
1.812214803e-09
9.498010582e-06
2.809151492e-09
-4.348905709e-10
9.497918686e-06
2.321359906e-11
5.616183897e-11
9.498029089e-06
-5.434462701e-11
8.120293398e-13
9.498144085e-06
3.215790189e-12
-2.260739041e-11
9.498228641e-06
-7.661416312e-12
-1.312021788e-11
9.498287237e-06
-9.609922633e-12
-8.01862032e-12
9.498329585e-06
-6.215046944e-12
-4.750968951e-12
9.498355662e-06
-5.881856191e-12
-3.512535811e-12
9.49837821e-06
-2.843496835e-12
-1.227403003e-12
9.498390935e-06
-1.456753338e-12
-1.890659705e-12
9.498402821e-06
-3.407980437e-14
-1.575983533e-12
9.498416233e-06
8.581928405e-13
9.426738578e-13
9.498439409e-06
4.220219586e-12
-3.503130743e-12
-8.140577386e-13
-6.074970259e-12
9.580557299e-06
-2.809289308e-09
-2.810656666e-09
9.580773166e-06
-2.472226188e-11
-2.236213937e-11
9.580678278e-06
5.241877941e-11
5.309401845e-11
9.580807291e-06
-4.236742317e-12
-4.522078789e-12
9.580890548e-06
5.719190055e-12
7.613767747e-12
9.580963109e-06
8.418026712e-12
9.450964528e-12
9.581038044e-06
5.876045717e-12
5.635853244e-12
9.581121639e-06
4.660566694e-12
5.215874119e-12
9.581211577e-06
4.003350796e-12
3.867193811e-12
9.581305304e-06
3.265445275e-12
2.394722766e-12
9.581403892e-06
1.065934027e-13
1.515538991e-12
9.581508264e-06
-6.188783627e-14
1.179055953e-12
9.581626956e-06
-2.44181374e-12
-3.402859645e-12
1.231043546e-12
1.271519788e-12
9.497994873e-06
-1.395136002e-10
-4.344737014e-10
9.497902785e-06
-3.486369671e-11
5.775941261e-11
9.498014769e-06
-5.419131144e-11
3.148463248e-12
9.49812864e-06
-6.95472552e-11
-2.06811293e-11
9.498214652e-06
-4.308760375e-11
-1.238957932e-11
9.498272873e-06
-2.611290091e-11
-9.051443759e-12
9.498313593e-06
-1.769413252e-11
-6.803763247e-12
9.498342974e-06
-1.147864696e-11
-2.74999584e-12
9.498362362e-06
-8.143798758e-12
-1.824188949e-12
9.498373997e-06
-7.654187181e-12
-9.669350182e-13
9.498390279e-06
-6.876814103e-12
-4.974873478e-13
9.498405653e-06
-6.642825731e-12
-6.754586926e-13
9.498427476e-06
-1.400351148e-11
-3.909685921e-12
-1.291034382e-11
-5.774104284e-12
9.498719896e-06
2.382771227e-10
1.014316397e-10
9.498370767e-06
1.597498888e-10
7.704964161e-11
9.498214835e-06
4.717503717e-11
2.748922754e-11
9.498157448e-06
-1.318994244e-11
5.76357223e-12
9.49814865e-06
-2.518391019e-11
-9.858568938e-13
9.498157722e-06
-2.685625185e-11
-3.894705329e-12
9.498176171e-06
-2.436925882e-11
-4.019582046e-12
9.498197709e-06
-2.01811008e-11
-4.189351526e-12
9.498213832e-06
-1.633970943e-11
-2.971832752e-12
9.498231122e-06
-1.280341918e-11
-3.637417212e-12
9.49824573e-06
-1.37010309e-11
-1.772421179e-12
9.498259529e-06
-1.327993958e-11
-3.590506398e-13
9.49827277e-06
-1.850547646e-11
-3.859744405e-12
-1.705756711e-11
-4.103517323e-12
9.498476821e-06
2.022512179e-10
6.092975241e-11
9.498411485e-06
1.288536281e-10
4.540173664e-11
9.498355669e-06
5.404210105e-11
2.287717108e-11
9.49831534e-06
1.282377043e-11
1.131879554e-11
9.498288233e-06
-4.970395525e-12
4.188710204e-12
9.498269807e-06
-1.423260236e-11
-2.394625281e-12
9.498263626e-06
-1.459218285e-11
-3.116613388e-12
9.498264038e-06
-1.525857544e-11
-1.951229932e-12
9.498266541e-06
-1.286711308e-11
-2.525642186e-12
9.498267495e-06
-1.115534874e-11
-2.658600354e-12
9.498272559e-06
-9.468226255e-12
-1.940127123e-12
9.498279169e-06
-8.540106166e-12
-1.789748585e-12
9.498283435e-06
-1.261391591e-11
-3.652429749e-12
-1.252808608e-11
-3.336402831e-12
9.49833081e-06
5.963605091e-11
9.498381635e-06
4.03035977e-11
9.4983887e-06
2.407334388e-11
9.49837554e-06
1.392346922e-11
9.498356491e-06
7.461458006e-12
9.498338161e-06
3.597202581e-12
9.498321896e-06
7.895735026e-13
9.498311622e-06
1.033337596e-12
9.49830174e-06
-2.009383323e-12
9.498294146e-06
-1.356102469e-12
9.498289789e-06
-1.976432136e-12
9.498287849e-06
-2.289188081e-12
9.498283565e-06