/*--------------------------------*- C++ -*----------------------------------*\
| =========                 |                                                 |
| \\      /  F ield         | OpenFOAM: The Open Source CFD Toolbox           |
|  \\    /   O peration     | Version:  4.x                                   |
|   \\  /    A nd           | Web:      www.OpenFOAM.org                      |
|    \\/     M anipulation  |                                                 |
\*---------------------------------------------------------------------------*/
FoamFile
{
    version     2.0;
    format      ascii;
    class       volScalarField;
    location    "2000";
    object      T;
}
// * * * * * * * * * * * * * * * * * * * * * * * * * * * * * * * * * * * * * //

dimensions      [0 0 0 1 0 0 0];

internalField   nonuniform List<scalar> 
1174
(
1223.150215
1223.150112
1223.150111
1223.150156
1223.150256
1223.150287
1223.150333
1223.150345
1223.150299
1223.150204
1223.150026
1223.149944
1223.150088
1223.150103
1223.150531
1223.150655
1223.150615
1223.15044
1223.150384
1223.150444
1223.150464
1223.150593
1223.150744
1223.150854
1223.150807
1223.150719
1223.150775
1223.150744
1223.151654
1223.151472
1223.151421
1223.151341
1223.151113
1223.151209
1223.151352
1223.151228
1223.151087
1223.151138
1223.151109
1223.151089
1223.151065
1223.150965
1223.14906
1223.149148
1223.149207
1223.149177
1223.149222
1223.149237
1223.149214
1223.149203
1223.149107
1223.149042
1223.149098
1223.14915
1223.14903
1223.149222
1223.150052
1223.150054
1223.150222
1223.150245
1223.150188
1223.150182
1223.150129
1223.150214
1223.150259
1223.150248
1223.150109
1223.150203
1223.15013
1223.150086
1223.154093
1223.154255
1223.154072
1223.15422
1223.154364
1223.154246
1223.154098
1223.153906
1223.153771
1223.153712
1223.153673
1223.153632
1223.153759
1223.153596
1223.148991
1223.148971
1223.149003
1223.149119
1223.149221
1223.14935
1223.14922
1223.149265
1223.149172
1223.149299
1223.149289
1223.149354
1223.149397
1223.1494
1223.150671
1223.150702
1223.150859
1223.150806
1223.15081
1223.150748
1223.150787
1223.150885
1223.150878
1223.150908
1223.151071
1223.151126
1223.151
1223.150995
1223.153133
1223.153233
1223.153167
1223.15314
1223.153167
1223.153256
1223.153239
1223.153239
1223.153116
1223.153151
1223.153043
1223.153115
1223.153017
1223.153043
1223.148831
1223.149059
1223.148902
1223.148952
1223.148972
1223.148962
1223.1491
1223.149276
1223.149265
1223.149271
1223.149056
1223.149116
1223.149161
1223.149194
1223.149145
1223.151399
1223.15151
1223.151621
1223.151623
1223.15154
1223.151648
1223.151711
1223.151705
1223.151666
1223.151625
1223.151483
1223.151232
1223.151263
1223.151212
1223.150653
1223.150678
1223.150634
1223.150511
1223.150584
1223.150531
1223.15029
1223.150335
1223.150431
1223.150497
1223.150387
1223.150302
1223.150371
1223.150265
1223.149907
1223.149996
1223.150181
1223.150109
1223.150248
1223.150299
1223.150375
1223.150161
1223.150119
1223.150261
1223.150251
1223.150304
1223.150318
1223.150359
1223.15138
1223.151457
1223.151431
1223.151402
1223.151345
1223.151327
1223.151435
1223.151344
1223.151324
1223.151128
1223.15115
1223.151075
1223.151445
1223.151494
1223.147451
1223.147617
1223.147627
1223.147492
1223.147285
1223.147503
1223.147426
1223.147636
1223.147614
1223.147872
1223.147796
1223.147712
1223.147717
1223.147666
1223.151809
1223.151935
1223.151815
1223.151746
1223.151787
1223.151983
1223.15199
1223.151847
1223.151983
1223.152106
1223.152178
1223.15203
1223.151972
1223.152095
1223.146711
1223.146807
1223.146783
1223.146784
1223.146921
1223.146945
1223.146846
1223.146789
1223.146898
1223.146866
1223.14695
1223.146959
1223.1469
1223.146982
1223.152106
1223.15216
1223.152082
1223.151969
1223.152056
1223.151903
1223.151961
1223.152032
1223.152062
1223.152159
1223.151922
1223.151979
1223.151941
1223.151929
1223.150534
1223.150524
1223.150504
1223.150471
1223.150618
1223.150544
1223.150525
1223.150578
1223.150552
1223.150389
1223.150281
1223.150125
1223.150076
1223.150152
1223.150198
1223.152374
1223.152514
1223.15246
1223.152228
1223.152275
1223.152386
1223.152246
1223.152305
1223.15247
1223.152603
1223.15271
1223.152881
1223.152786
1223.152587
1223.152881
1223.148534
1223.148662
1223.148848
1223.148902
1223.148938
1223.14908
1223.148969
1223.148805
1223.148887
1223.148762
1223.14871
1223.148788
1223.148833
1223.148856
1223.146506
1223.1467
1223.146719
1223.146592
1223.146576
1223.146566
1223.146401
1223.146561
1223.146416
1223.146358
1223.146327
1223.146247
1223.146223
1223.146286
1223.149151
1223.149071
1223.149059
1223.149179
1223.148994
1223.149065
1223.149154
1223.149139
1223.149144
1223.149297
1223.149419
1223.149353
1223.149181
1223.149126
1223.148892
1223.149022
1223.148995
1223.149141
1223.149257
1223.149351
1223.149419
1223.149319
1223.149342
1223.149409
1223.149504
1223.149562
1223.149629
1223.149471
1223.148519
1223.148459
1223.148624
1223.148631
1223.14859
1223.148657
1223.148694
1223.14862
1223.148688
1223.148818
1223.148841
1223.148917
1223.148695
1223.14873
1223.152562
1223.152521
1223.152475
1223.152479
1223.152432
1223.152388
1223.152227
1223.152199
1223.152117
1223.152281
1223.152115
1223.151983
1223.15205
1223.152115
1223.148153
1223.148073
1223.148123
1223.148142
1223.148116
1223.14807
1223.148124
1223.148038
1223.148175
1223.148111
1223.147949
1223.147918
1223.147949
1223.148134
1223.150518
1223.150626
1223.150667
1223.150708
1223.150872
1223.150959
1223.150918
1223.150794
1223.150769
1223.150803
1223.150698
1223.150807
1223.150762
1223.150761
1223.150607
1223.152346
1223.152571
1223.152544
1223.152399
1223.152428
1223.152304
1223.15223
1223.152472
1223.152364
1223.152503
1223.15232
1223.152312
1223.152254
1223.15229
1223.152246
1223.149174
1223.149117
1223.148985
1223.149059
1223.148962
1223.148951
1223.149009
1223.149069
1223.148928
1223.149034
1223.148869
1223.148757
1223.148783
1223.148937
1223.148687
1223.152
1223.152102
1223.152134
1223.151908
1223.151983
1223.15179
1223.151733
1223.151623
1223.151553
1223.151487
1223.151554
1223.15149
1223.151504
1223.151423
1223.135483
1223.135347
1223.134992
1223.135013
1223.135134
1223.134918
1223.134778
1223.13473
1223.134668
1223.134643
1223.134628
1223.13453
1223.134542
1223.134356
1223.150113
1223.150294
1223.150154
1223.150003
1223.149812
1223.149527
1223.149418
1223.149403
1223.149458
1223.149401
1223.149271
1223.149308
1223.149311
1223.149256
1223.154029
1223.153964
1223.15389
1223.15398
1223.154125
1223.154131
1223.154169
1223.154178
1223.154169
1223.154057
1223.15395
1223.153971
1223.154025
1223.154106
1223.14758
1223.147718
1223.147978
1223.147959
1223.147811
1223.147728
1223.147842
1223.147828
1223.14803
1223.148145
1223.14824
1223.148306
1223.148502
1223.148472
1223.149759
1223.149957
1223.149887
1223.149934
1223.149956
1223.150183
1223.149993
1223.149951
1223.149799
1223.149814
1223.149907
1223.149915
1223.149993
1223.150085
1223.149357
1223.149482
1223.149524
1223.149535
1223.149589
1223.149609
1223.149549
1223.149561
1223.149533
1223.149615
1223.149637
1223.149565
1223.149644
1223.149715
1223.149615
1223.149553
1223.149521
1223.149495
1223.149485
1223.149427
1223.149285
1223.149357
1223.149468
1223.149429
1223.149442
1223.149497
1223.149522
1223.149341
1223.149405
1223.149618
1223.150151
1223.150304
1223.150232
1223.150274
1223.150239
1223.150361
1223.150191
1223.15025
1223.150224
1223.150104
1223.150054
1223.150148
1223.150098
1223.150135
1223.15016
1223.137364
1223.137588
1223.137508
1223.137329
1223.137308
1223.137057
1223.136955
1223.136972
1223.136853
1223.136844
1223.136823
1223.136687
1223.136859
1223.136663
1223.136817
1212.685267
1212.669942
1212.655926
1212.64259
1212.629594
1212.616881
1212.604004
1212.591606
1212.579024
1212.566398
1212.553888
1212.541096
1212.528435
1212.515939
1223.139593
1223.139383
1223.139263
1223.13929
1223.139186
1223.139048
1223.13883
1223.138799
1223.138698
1223.138572
1223.138561
1223.13848
1223.13832
1223.138159
1223.152271
1223.152346
1223.152352
1223.152268
1223.152372
1223.152305
1223.152468
1223.152468
1223.152588
1223.152749
1223.152649
1223.152647
1223.152654
1223.15261
1223.149099
1223.148881
1223.148892
1223.148931
1223.14891
1223.148781
1223.14881
1223.148826
1223.148813
1223.148773
1223.148869
1223.148827
1223.148775
1223.148584
1223.149328
1223.149288
1223.149185
1223.148989
1223.148965
1223.148975
1223.148951
1223.148944
1223.148971
1223.148888
1223.148813
1223.148846
1223.148755
1223.148569
1223.15131
1223.151265
1223.151296
1223.151276
1223.151321
1223.151295
1223.151174
1223.151218
1223.151314
1223.151437
1223.15142
1223.151471
1223.151517
1223.151513
1223.151582
1223.14915
1223.149256
1223.149377
1223.149307
1223.149376
1223.149438
1223.149364
1223.1493
1223.149175
1223.149143
1223.149066
1223.149202
1223.149167
1223.148979
1223.148939
1223.15123
1223.151378
1223.151374
1223.151494
1223.15145
1223.151632
1223.151583
1223.151363
1223.151432
1223.151651
1223.151531
1223.15162
1223.151657
1223.151714
1223.151803
1223.149519
1223.149706
1223.149769
1223.149624
1223.149619
1223.149555
1223.149412
1223.1494
1223.149423
1223.149438
1223.14956
1223.149565
1223.149652
1223.149593
1223.149473
1223.137716
1223.137732
1223.137395
1223.137262
1223.137109
1223.137019
1223.137068
1223.137081
1223.137055
1223.137088
1223.136902
1223.13684
1223.136769
1223.136811
1223.136818
1223.151591
1223.151749
1223.151902
1223.151992
1223.151942
1223.151879
1223.151749
1223.151757
1223.15157
1223.151511
1223.151556
1223.151649
1223.151655
1223.15168
1223.15185
1223.148367
1223.148411
1223.148377
1223.148246
1223.148521
1223.148462
1223.148489
1223.148636
1223.148474
1223.148407
1223.148251
1223.148353
1223.148429
1223.148316
1223.150858
1223.150765
1223.150749
1223.150709
1223.150816
1223.150886
1223.150708
1223.150649
1223.150656
1223.150616
1223.150563
1223.15055
1223.150659
1223.15052
1223.151682
1223.151627
1223.151555
1223.151712
1223.151714
1223.151676
1223.151853
1223.151845
1223.15199
1223.15203
1223.151991
1223.151878
1223.151972
1223.151804
1223.151308
1223.151345
1223.151216
1223.151451
1223.151442
1223.151506
1223.151506
1223.151549
1223.151495
1223.151428
1223.151606
1223.151463
1223.151545
1223.151442
1223.151415
1223.15143
1223.15143
1223.151408
1223.151359
1223.151384
1223.151494
1223.15153
1223.15147
1223.151625
1223.151617
1223.151548
1223.151547
1223.151447
1223.151656
1223.151568
1223.150308
1223.150363
1223.150389
1223.150312
1223.15024
1223.150349
1223.150329
1223.150199
1223.150147
1223.150149
1223.149967
1223.150046
1223.150071
1223.149985
1223.150022
1223.151439
1223.151554
1223.151485
1223.151654
1223.151495
1223.151473
1223.151407
1223.15151
1223.15154
1223.151394
1223.151253
1223.151179
1223.151321
1223.151274
1223.15137
1223.150031
1223.150227
1223.150311
1223.150433
1223.150442
1223.150563
1223.150445
1223.150376
1223.150367
1223.150293
1223.150232
1223.150217
1223.150102
1223.150131
1223.150157
1223.149609
1223.149651
1223.149534
1223.149478
1223.149592
1223.14963
1223.149634
1223.149605
1223.149444
1223.149553
1223.149445
1223.149243
1223.149457
1223.149444
1223.149427
1223.152405
1223.152348
1223.152385
1223.1524
1223.152482
1223.152375
1223.152336
1223.152503
1223.152419
1223.152315
1223.152024
1223.151883
1223.151816
1223.152028
1223.152034
1223.147812
1223.147879
1223.147702
1223.147535
1223.14763
1223.147697
1223.147869
1223.147831
1223.147577
1223.147855
1223.14785
1223.147832
1223.147964
1223.148034
1223.151069
1223.15113
1223.151085
1223.150996
1223.150867
1223.150683
1223.150598
1223.150526
1223.150482
1223.150536
1223.150786
1223.150857
1223.150933
1223.151035
1223.149314
1223.149299
1223.149146
1223.149228
1223.14924
1223.149349
1223.149333
1223.149202
1223.149078
1223.149173
1223.149203
1223.149209
1223.149188
1223.149192
1223.149143
1223.14935
1223.149288
1223.149477
1223.149635
1223.149532
1223.149639
1223.149658
1223.14969
1223.149666
1223.149654
1223.149706
1223.14985
1223.149748
1223.149735
1223.149881
1223.150382
1223.15045
1223.150446
1223.150473
1223.150587
1223.150416
1223.150398
1223.150665
1223.150516
1223.150484
1223.150449
1223.150382
1223.150261
1223.150372
1223.150391
1223.148815
1223.14894
1223.148961
1223.148976
1223.149018
1223.149141
1223.149052
1223.149019
1223.14903
1223.149082
1223.149097
1223.14938
1223.149506
1223.149601
1223.149673
1223.152093
1223.152147
1223.152038
1223.152129
1223.152382
1223.152329
1223.152384
1223.152278
1223.152339
1223.152315
1223.152588
1223.152457
1223.152458
1223.152308
1223.152256
1223.146964
1223.147328
1223.147237
1223.147397
1223.147211
1223.147307
1223.147482
1223.147325
1223.147302
1223.147432
1223.147207
1223.147227
1223.147251
1223.147131
1223.14717
1223.151642
1223.151737
1223.15201
1223.151994
1223.152117
1223.152124
1223.152197
1223.152257
1223.152374
1223.152204
1223.152161
1223.152414
1223.152335
1223.152335
1223.152326
1223.151556
1223.151524
1223.151465
1223.151365
1223.151365
1223.151471
1223.151663
1223.151722
1223.151785
1223.151829
1223.151802
1223.151902
1223.151875
1223.151726
1223.151634
1223.152344
1223.152195
1223.152179
1223.152159
1223.152151
1223.152031
1223.152205
1223.15233
1223.152369
1223.152406
1223.152386
1223.15234
1223.152316
1223.152519
1223.152387
1223.152214
1223.1523
1223.15222
1223.151979
1223.152063
1223.152007
1223.152001
1223.151976
1223.151993
1223.15204
1223.152076
1223.151968
1223.152015
1223.152065
1223.150864
1223.150866
1223.150715
1223.150839
1223.150883
1223.150877
1223.150866
1223.150964
1223.150886
1223.150735
1223.150794
1223.150853
1223.151016
1223.150901
1223.151046
1223.151172
1223.151298
1223.151389
1223.15132
1223.151314
1223.151345
1223.151307
1223.151317
1223.151356
1223.151283
1223.151378
1223.151392
1223.151349
1223.15126
1223.151232
1223.149905
1223.149935
1223.149776
1223.149678
1223.149711
1223.149683
1223.149657
1223.149584
1223.14972
1223.14983
1223.149774
1223.149828
1223.149698
1223.14978
1223.149875
1223.146607
1223.146507
1223.146429
1223.146452
1223.146359
1223.146357
1223.146314
1223.146264
1223.146222
1223.146203
1223.146313
1223.146376
1223.146278
1223.146399
1223.146314
1223.148166
1223.148231
1223.148373
1223.148334
1223.14831
1223.148327
1223.148235
1223.148182
1223.148267
1223.14834
1223.148389
1223.148555
1223.148643
1223.148646
1223.148814
1223.148957
1223.148799
1223.148811
1223.148725
1223.148598
1223.148611
1223.148711
1223.148555
1223.148557
1223.148644
1223.148578
1223.148625
1223.148681
1223.148689
1223.148658
1223.148128
1223.148138
1223.14814
1223.14821
1223.148043
1223.148019
1223.148084
1223.148113
1223.148095
1223.14828
1223.148166
1223.148226
1223.148267
1223.148351
1223.148371
1223.149559
1223.149517
1223.149541
1223.149548
1223.149484
1223.149466
1223.149621
1223.149661
1223.149766
1223.149749
1223.149775
1223.149851
1223.149864
1223.149936
1223.149819
)
;

boundaryField
{
    top
    {
        type            zeroGradient;
    }
    bottom
    {
        type            zeroGradient;
    }
    side-walls
    {
        type            zeroGradient;
    }
    inlet
    {
        type            zeroGradient;
    }
    outlet
    {
        type            zeroGradient;
    }
    procBoundary1to0
    {
        type            processor;
        value           nonuniform List<scalar> 
97
(
1223.150277
1223.150277
1223.150451
1223.151312
1223.149037
1223.15006
1223.154098
1223.148792
1223.150838
1223.153156
1223.148803
1223.151364
1223.151364
1223.151364
1223.150643
1223.149818
1223.151291
1223.147264
1223.151714
1223.146683
1223.151987
1223.150376
1223.152323
1223.148614
1223.148614
1223.148614
1223.14649
1223.14885
1223.148927
1223.148539
1223.152599
1223.148098
1223.150648
1223.152292
1223.149035
1223.152132
1223.152132
1223.152132
1223.135569
1223.15
1223.153941
1223.147522
1223.149679
1223.149462
1223.149798
1223.150011
1223.150272
1212.693917
1212.693917
1212.693917
1223.139773
1223.139773
1223.152107
1223.148906
1223.149469
1223.151471
1223.149183
1223.151236
1223.149293
1223.151067
1223.151297
1223.148129
1223.148129
1223.148129
1223.150841
1223.151707
1223.151315
1223.151265
1223.150275
1223.151395
1223.149952
1223.149645
1223.152309
1223.147691
1223.147691
1223.147691
1223.150837
1223.149317
1223.14925
1223.150375
1223.148547
1223.152162
1223.146832
1223.151441
1223.15173
1223.152305
1223.152305
1223.152305
1223.152319
1223.150946
1223.151043
1223.149853
1223.14654
1223.148111
1223.148807
1223.148055
1223.149405
)
;
    }
}


// ************************************************************************* //
