/*--------------------------------*- C++ -*----------------------------------*\
| =========                 |                                                 |
| \\      /  F ield         | OpenFOAM: The Open Source CFD Toolbox           |
|  \\    /   O peration     | Version:  4.x                                   |
|   \\  /    A nd           | Web:      www.OpenFOAM.org                      |
|    \\/     M anipulation  |                                                 |
\*---------------------------------------------------------------------------*/
FoamFile
{
    version     2.0;
    format      ascii;
    class       volVectorField;
    location    "2000";
    object      U;
}
// * * * * * * * * * * * * * * * * * * * * * * * * * * * * * * * * * * * * * //

dimensions      [0 1 -1 0 0 0 0];

internalField   nonuniform List<vector> 
1174
(
(0.01100026332 -2.053793847e-08 -2.116562459e-08)
(0.01100031715 -1.941231805e-08 -1.902877682e-08)
(0.0110003672 -1.527053848e-08 -1.501132175e-08)
(0.01100037714 -1.113512587e-08 -1.30414123e-08)
(0.01100036416 -7.451709513e-09 -8.520729083e-09)
(0.01100032618 -4.60009237e-09 -3.116128326e-09)
(0.01100026515 -3.981284099e-09 -3.904629857e-09)
(0.01100019106 -2.167578171e-09 -2.43108449e-10)
(0.01100010926 1.121050323e-09 3.551242768e-10)
(0.01100002137 7.417225262e-10 4.330317888e-09)
(0.0109999277 2.86721665e-09 4.835845935e-09)
(0.01099983146 2.699643305e-09 3.469562585e-09)
(0.01099975232 3.573782937e-09 4.60991643e-09)
(0.01099965925 5.425678359e-09 4.607012333e-09)
(0.01100027628 -8.805102203e-08 -2.420841304e-08)
(0.01100030549 -8.230168954e-08 -2.513060657e-08)
(0.01100034118 -6.205237354e-08 -1.918776415e-08)
(0.01100032364 -4.507163526e-08 -1.264404408e-08)
(0.01100027852 -3.165197817e-08 -7.357172712e-09)
(0.01100021356 -1.938664696e-08 -3.668795108e-09)
(0.01100012999 -1.042048194e-08 -2.276272e-09)
(0.01100004077 -3.895507243e-09 1.243415293e-09)
(0.01099994703 6.421357762e-10 3.093593425e-09)
(0.01099985181 2.400894499e-09 2.887879143e-09)
(0.010999757 6.820743016e-09 4.112152195e-09)
(0.01099966199 8.425821225e-09 3.189642043e-09)
(0.01099958516 1.182390495e-08 4.4699868e-09)
(0.01099950259 1.219025661e-08 5.951507658e-09)
(0.01100030085 -8.506898214e-08 -4.86732094e-08)
(0.01100028634 -7.925393222e-08 -4.500426145e-08)
(0.01100028688 -5.918144583e-08 -3.037024571e-08)
(0.01100021692 -3.867660466e-08 -1.803884433e-08)
(0.01100011995 -2.241809955e-08 -4.962416683e-09)
(0.01100000618 -1.144759601e-08 -1.417155739e-09)
(0.0109998919 -5.473363349e-09 1.836900729e-09)
(0.01099977903 2.431709027e-09 2.92631883e-09)
(0.01099966975 7.350047685e-09 3.862643135e-09)
(0.01099957056 7.979279168e-09 1.640457452e-09)
(0.01099948178 9.779406698e-09 3.179561196e-09)
(0.01099939673 9.691751961e-09 3.746656406e-09)
(0.01099933001 1.355718293e-08 4.356491547e-09)
(0.01099926052 1.462885719e-08 3.67991334e-09)
(0.01100032199 -1.303267248e-07 -3.052278777e-08)
(0.0110002062 -9.416444904e-08 -4.19596977e-08)
(0.01100016107 -5.713728137e-08 -2.490772117e-08)
(0.0110000362 -3.063808323e-08 -9.984675261e-09)
(0.01099989828 -1.716657655e-08 -9.884855116e-12)
(0.01099975683 -7.570904534e-09 6.786432853e-09)
(0.01099962344 2.76522792e-10 8.173869912e-09)
(0.01099950076 2.458506633e-09 8.036738895e-09)
(0.01099939111 3.755307172e-09 5.479348256e-09)
(0.01099929734 3.967433109e-09 5.216218245e-09)
(0.01099921681 6.440936453e-09 5.1170539e-09)
(0.01099914984 6.316825049e-09 6.519559235e-09)
(0.01099909419 1.007758509e-08 8.949074136e-09)
(0.01099904616 8.837514889e-09 7.072145706e-09)
(0.01100041386 -8.887100563e-10 -8.541635206e-08)
(0.01100021208 -6.215148194e-10 -6.080369013e-08)
(0.01100011809 -5.897405253e-10 -2.889989369e-08)
(0.01099995745 -2.730504212e-09 -7.51996332e-09)
(0.01099979213 -7.516723298e-10 1.79947814e-09)
(0.01099963904 5.634981758e-10 4.79580237e-09)
(0.01099949627 1.342080341e-09 5.137550403e-09)
(0.01099937812 1.777797838e-09 5.375653912e-09)
(0.01099926859 7.534413182e-10 5.020968702e-09)
(0.01099917922 1.937448408e-09 6.168891445e-09)
(0.01099910794 2.775953285e-11 5.634200771e-09)
(0.01099904614 1.326579427e-09 4.285965145e-09)
(0.01099900196 -4.12866447e-10 7.128034047e-09)
(0.01099896003 -2.999495929e-10 4.237158378e-09)
(0.0110003181 1.291050085e-07 -3.050438646e-08)
(0.01100020758 9.212658735e-08 -4.175751491e-08)
(0.01100015801 5.537279393e-08 -2.305949095e-08)
(0.01100003772 3.221703773e-08 -7.291508714e-09)
(0.01099990012 1.91134402e-08 1.753179871e-09)
(0.01099975987 6.147766398e-09 6.11872761e-09)
(0.0109996213 1.028945175e-09 8.925078495e-09)
(0.01099950139 -2.222813038e-09 9.666727559e-09)
(0.01099938894 -1.543996103e-09 6.221066777e-09)
(0.01099929578 -4.265016635e-09 6.136530437e-09)
(0.0109992188 -5.559140914e-09 7.568559698e-09)
(0.01099914779 -6.198423501e-09 7.067247068e-09)
(0.01099909724 -8.751699391e-09 8.120342163e-09)
(0.01099904673 -9.655493396e-09 7.910591431e-09)
(0.01100029888 8.314094949e-08 -4.69716888e-08)
(0.01100028435 8.056353292e-08 -4.36328155e-08)
(0.0110002848 5.835159243e-08 -2.663250884e-08)
(0.01100021689 3.904109156e-08 -1.495998507e-08)
(0.01100012148 2.349191902e-08 -4.761766198e-09)
(0.01100001152 1.264702656e-08 1.428565993e-09)
(0.0109998943 4.78336316e-09 2.754173076e-09)
(0.01099977844 -1.433602722e-09 6.5075988e-09)
(0.01099966972 -5.326477833e-09 6.541987815e-09)
(0.01099956956 -5.129823973e-09 5.467422242e-09)
(0.01099948073 -7.909143182e-09 6.321917974e-09)
(0.01099939761 -9.454647669e-09 5.544513384e-09)
(0.01099932953 -1.332889618e-08 8.613765302e-09)
(0.01099926668 -1.371605198e-08 7.558177841e-09)
(0.01100027851 8.935158468e-08 -2.278829813e-08)
(0.01100030398 8.358885109e-08 -2.5502134e-08)
(0.01100034325 6.305047436e-08 -1.647068891e-08)
(0.01100032768 4.695767733e-08 -1.206052706e-08)
(0.01100028259 3.195103044e-08 -9.063159897e-09)
(0.01100021551 1.97062567e-08 -4.58194507e-09)
(0.01100013219 1.083110087e-08 -9.79876477e-10)
(0.01100004202 4.648091329e-09 3.944125788e-09)
(0.010999945 -2.274802061e-09 4.595173926e-09)
(0.01099984986 -4.872941303e-09 4.686464722e-09)
(0.01099975575 -7.346156698e-09 5.165994681e-09)
(0.01099966481 -8.736178385e-09 4.14802366e-09)
(0.01099958497 -1.18020221e-08 7.039044439e-09)
(0.0109995038 -1.144756934e-08 6.564003724e-09)
(0.01100026555 2.049179297e-08 -2.096297905e-08)
(0.01100031622 1.766747357e-08 -2.351896459e-08)
(0.01100037093 1.577859109e-08 -1.688216975e-08)
(0.01100038025 1.188236658e-08 -1.201982379e-08)
(0.01100036497 8.53584004e-09 -1.071111598e-08)
(0.01100032483 5.890726842e-09 -5.780947724e-09)
(0.01100026618 3.478649192e-09 -3.569653944e-09)
(0.01100019325 1.018483051e-09 5.67355483e-10)
(0.01100010719 2.896979098e-10 8.132806558e-10)
(0.01100001748 -1.58627066e-09 2.833634982e-09)
(0.01099992698 -3.253492268e-09 3.761420783e-09)
(0.01099983623 -2.973400847e-09 4.341311051e-09)
(0.01099974719 -3.623145375e-09 7.743537013e-09)
(0.01099966208 -4.321929403e-09 6.938376538e-09)
(0.01100010726 -5.293857298e-08 -1.271212776e-07)
(0.01100028089 -2.213647856e-08 -8.701953574e-08)
(0.01100030398 -2.500963537e-08 -8.209483511e-08)
(0.01100034182 -1.810069057e-08 -6.346088297e-08)
(0.01100032373 -1.156175415e-08 -4.512955544e-08)
(0.01100028236 -6.38770752e-09 -2.985773413e-08)
(0.01100021506 -2.663003073e-09 -1.902307844e-08)
(0.01100013268 -6.07543343e-10 -9.738707195e-09)
(0.01100004108 2.421631582e-09 -4.712849609e-09)
(0.01099994728 3.783727788e-09 2.634424246e-09)
(0.01099985004 2.572760974e-09 7.145726046e-09)
(0.01099975744 3.962633104e-09 8.782526202e-09)
(0.01099966456 4.140293565e-09 9.366501506e-09)
(0.01099958605 5.640320181e-09 1.169621496e-08)
(0.01099950033 7.54306924e-09 1.221684182e-08)
(0.01100029295 -1.155006691e-07 -1.187171331e-07)
(0.01100026096 -1.067747548e-07 -1.093928321e-07)
(0.01100026006 -7.771211074e-08 -7.731866606e-08)
(0.01100019676 -4.921021458e-08 -5.187010245e-08)
(0.01100010944 -2.825255863e-08 -2.861740302e-08)
(0.01100000839 -1.38189815e-08 -1.1473906e-08)
(0.01099990364 -3.778307628e-09 -3.557785233e-09)
(0.01099980138 2.567717703e-09 3.602569317e-09)
(0.01099970278 7.922389698e-09 8.960454348e-09)
(0.01099961138 9.750692297e-09 9.455714181e-09)
(0.01099952552 1.103719033e-08 1.124949658e-08)
(0.01099944307 1.303544303e-08 1.224598889e-08)
(0.01099937876 1.544066803e-08 1.569740102e-08)
(0.0109993112 1.528313615e-08 1.499909406e-08)
(0.01100030802 -9.323003074e-08 -2.235894317e-07)
(0.01100014534 -1.006068445e-07 -1.884808145e-07)
(0.01100006184 -6.44509964e-08 -1.151314767e-07)
(0.01099990432 -3.308314095e-08 -6.067536616e-08)
(0.01099975049 -1.383183813e-08 -2.652871339e-08)
(0.0109996042 -8.818919376e-10 -5.34676278e-09)
(0.01099947744 7.376369763e-09 8.301389361e-09)
(0.0109993707 9.975486465e-09 1.483635828e-08)
(0.01099928179 1.307165107e-08 1.721139231e-08)
(0.01099920885 1.349889005e-08 1.614954031e-08)
(0.01099914684 1.308213131e-08 1.650392114e-08)
(0.01099909488 1.30347917e-08 1.684480561e-08)
(0.01099905572 1.832855371e-08 2.015111851e-08)
(0.01099901996 1.753173926e-08 1.82421949e-08)
(0.01100024238 -1.738172293e-07 -2.260782971e-07)
(0.01099981569 -1.143329442e-07 -2.085668706e-07)
(0.01099965225 -5.866338985e-08 -1.05880773e-07)
(0.01099942684 -2.194748228e-08 -3.897022588e-08)
(0.01099924127 -4.620420037e-09 -3.538146886e-09)
(0.01099909367 3.202533764e-09 1.525139449e-08)
(0.01099898313 6.628830414e-09 2.450722865e-08)
(0.010998905 7.916511168e-09 2.370831736e-08)
(0.01099884809 8.37948905e-09 2.413194909e-08)
(0.01099880897 8.284262238e-09 2.218988397e-08)
(0.01099878262 8.576703046e-09 1.965270775e-08)
(0.01099876648 9.602744908e-09 1.918384526e-08)
(0.01099875919 1.181734632e-08 2.22249746e-08)
(0.01099875185 1.139448491e-08 2.100790767e-08)
(0.01100037649 -1.1308496e-09 -4.397465767e-07)
(0.01099963863 -1.219367079e-09 -2.820725579e-07)
(0.01099939993 -1.174324438e-10 -1.180545234e-07)
(0.01099914786 -8.463128107e-11 -3.131796064e-08)
(0.01099895909 -3.948959295e-10 3.349488668e-09)
(0.01099883221 2.342678064e-10 2.01823788e-08)
(0.01099874713 2.383397212e-09 2.484032698e-08)
(0.01099869168 2.146040724e-09 2.294464745e-08)
(0.01099865695 9.925800152e-10 2.079853724e-08)
(0.01099863837 1.060118212e-09 2.047753085e-08)
(0.01099863071 9.126485859e-10 1.991452717e-08)
(0.01099862865 -3.420367248e-10 1.755962412e-08)
(0.01099863892 -1.131847019e-09 2.301312329e-08)
(0.01099864626 4.103934441e-10 2.188058781e-08)
(0.01100023973 1.726507252e-07 -2.236961552e-07)
(0.01099981471 1.143257065e-07 -2.071419065e-07)
(0.01099964886 5.903943792e-08 -1.047587523e-07)
(0.01099942706 2.377023412e-08 -3.633681887e-08)
(0.01099923669 6.614474655e-09 -2.43372981e-09)
(0.01099909452 -3.37833116e-09 1.731024902e-08)
(0.01099898161 -6.36865388e-09 2.485073536e-08)
(0.01099890438 -6.518561719e-09 2.448261523e-08)
(0.01099884735 -6.734618083e-09 2.408429865e-08)
(0.01099880897 -8.249336696e-09 2.285255613e-08)
(0.01099878362 -8.179895436e-09 2.127015571e-08)
(0.01099876727 -8.059581363e-09 1.860786321e-08)
(0.01099875817 -1.163337166e-08 2.144124998e-08)
(0.01099875189 -1.160427917e-08 2.256117884e-08)
(0.01100030342 9.240909964e-08 -2.243711238e-07)
(0.01100014594 9.935861161e-08 -1.887697669e-07)
(0.01100005922 6.466718799e-08 -1.129213035e-07)
(0.01099990467 3.260926568e-08 -5.874820793e-08)
(0.01099974961 1.357735273e-08 -2.592331255e-08)
(0.01099960612 2.713416795e-09 -4.245860669e-09)
(0.01099947771 -5.507054963e-09 8.997971056e-09)
(0.01099937223 -9.900669007e-09 1.429534915e-08)
(0.01099928104 -1.116824417e-08 1.701230193e-08)
(0.01099920815 -1.114960598e-08 1.685743677e-08)
(0.0109991487 -1.224649441e-08 1.666291056e-08)
(0.01099909389 -1.31079506e-08 1.746230417e-08)
(0.01099905448 -1.600177658e-08 2.024338179e-08)
(0.01099901999 -1.735784134e-08 1.844538832e-08)
(0.01100029015 1.168509439e-07 -1.169097652e-07)
(0.01100026249 1.081386405e-07 -1.086907542e-07)
(0.01100026047 7.696020543e-08 -7.634805683e-08)
(0.01100019537 5.058047805e-08 -4.981863575e-08)
(0.01100011143 2.974706322e-08 -2.9892794e-08)
(0.01100001024 1.320084671e-08 -1.263708654e-08)
(0.01099990366 2.981571519e-09 -2.344869277e-09)
(0.01099979873 -3.437484188e-09 5.468679244e-09)
(0.01099970251 -8.086067808e-09 1.02011704e-08)
(0.01099960688 -8.080865216e-09 1.117094496e-08)
(0.01099952233 -1.247256696e-08 1.274461335e-08)
(0.01099944528 -1.169876128e-08 1.511622839e-08)
(0.01099937766 -1.51524785e-08 1.63678025e-08)
(0.01099931455 -1.361982273e-08 1.442075961e-08)
(0.01100027869 2.329431635e-08 -8.901157763e-08)
(0.01100030721 2.485987477e-08 -8.169995658e-08)
(0.01100034367 1.778000589e-08 -6.043738638e-08)
(0.01100032617 1.422887164e-08 -4.529421368e-08)
(0.01100028262 8.57747417e-09 -3.028485878e-08)
(0.01100021421 3.986164083e-09 -1.907579036e-08)
(0.01100013178 6.618547932e-10 -9.270577581e-09)
(0.01100003969 -1.228986656e-09 -2.6394519e-09)
(0.01099994429 -2.771544012e-09 2.693852792e-09)
(0.01099984928 -5.550125479e-09 6.589917429e-09)
(0.0109997573 -3.433220185e-09 8.062127297e-09)
(0.01099966324 -3.210207745e-09 1.214987938e-08)
(0.01099958648 -4.59942872e-09 1.135710814e-08)
(0.01099950231 -5.01528827e-09 1.20019583e-08)
(0.01100006124 -1.083186574e-07 -1.628836091e-07)
(0.0110003 -4.585958065e-08 -8.311399134e-08)
(0.01100028572 -4.473455827e-08 -8.051046845e-08)
(0.01100028254 -2.632199731e-08 -5.657486163e-08)
(0.01100021563 -1.161101406e-08 -3.605893568e-08)
(0.01100012124 -6.989000371e-09 -2.35466543e-08)
(0.01100000709 4.194171954e-09 -1.224327311e-08)
(0.01099989285 4.747932079e-09 -2.309018609e-09)
(0.01099978036 8.419183659e-09 3.114888059e-09)
(0.01099967182 8.992039691e-09 6.930813987e-09)
(0.01099957113 7.342361545e-09 7.501603318e-09)
(0.01099948222 5.546005972e-09 1.171179883e-08)
(0.01099939578 6.418624665e-09 1.174045784e-08)
(0.01099932894 1.089336763e-08 1.410687021e-08)
(0.01099926184 1.025163463e-08 1.40658891e-08)
(0.01100000511 -4.490222352e-07 -2.750245782e-07)
(0.0110003052 -2.259595005e-07 -9.332740824e-08)
(0.01100014534 -1.886768789e-07 -1.018631245e-07)
(0.01100005897 -1.152260785e-07 -6.515274747e-08)
(0.01099990111 -6.044411679e-08 -3.320632151e-08)
(0.01099975014 -2.581674329e-08 -1.489277394e-08)
(0.01099960164 -4.27472412e-09 -9.821531947e-11)
(0.01099947448 8.018873048e-09 8.307848617e-09)
(0.0109993732 1.512008625e-08 1.131141234e-08)
(0.01099928326 1.710741411e-08 1.327695402e-08)
(0.01099920577 1.71873399e-08 1.271030669e-08)
(0.01099914507 1.687576209e-08 1.455487639e-08)
(0.01099909578 1.708369677e-08 1.282576554e-08)
(0.0109990541 2.116333983e-08 1.727615439e-08)
(0.01099901938 1.979328162e-08 1.59118267e-08)
(0.01100022866 -1.951043949e-07 -1.995515348e-07)
(0.01099970905 -1.826514393e-07 -1.848679876e-07)
(0.01099944536 -8.808836553e-08 -9.017770711e-08)
(0.01099914566 -2.707337799e-08 -2.69617293e-08)
(0.01099892399 4.818114269e-09 3.953551152e-09)
(0.01099877623 1.711201517e-08 1.988455581e-08)
(0.01099867815 2.403905946e-08 2.369364592e-08)
(0.01099862405 2.344276332e-08 2.364945319e-08)
(0.01099860012 2.165542048e-08 2.060700779e-08)
(0.01099859094 1.99743884e-08 1.967078404e-08)
(0.01099859517 1.819019485e-08 1.760906685e-08)
(0.01099860869 1.702012397e-08 1.574594419e-08)
(0.01099862254 2.023020757e-08 2.08796593e-08)
(0.01099864097 1.985917891e-08 1.784459968e-08)
(0.01099966625 -3.598383448e-07 8.16163001e-09)
(0.01099848757 -1.97395827e-07 -1.686057994e-07)
(0.01099814737 -6.752382266e-08 -3.594851967e-08)
(0.0109978477 -4.14372663e-09 3.457401858e-08)
(0.01099771176 1.25824912e-08 4.834496384e-08)
(0.01099768583 1.847828552e-08 4.868474202e-08)
(0.01099772114 1.839943727e-08 4.33109305e-08)
(0.01099779458 1.585720074e-08 3.643107847e-08)
(0.01099787884 1.18791808e-08 2.79514305e-08)
(0.01099797147 9.045196949e-09 2.121116798e-08)
(0.01099806027 1.014169279e-08 1.889741849e-08)
(0.01099814397 9.680001416e-09 1.642190387e-08)
(0.01099821952 1.52419664e-08 1.986545581e-08)
(0.01099829263 1.302039549e-08 1.964032271e-08)
(0.01099946488 -8.673331257e-10 1.57721444e-07)
(0.01099739671 -1.125178806e-09 -1.492695325e-07)
(0.01099710953 4.588082746e-10 -6.476338397e-09)
(0.01099695622 1.214605367e-09 6.326035135e-08)
(0.0109969725 1.415563522e-10 5.919782778e-08)
(0.01099709418 1.35758081e-09 4.964111894e-08)
(0.01099724411 -2.51056431e-10 3.94329393e-08)
(0.01099740306 1.747070936e-10 3.066989834e-08)
(0.01099755836 6.835483255e-10 2.250464042e-08)
(0.01099770483 1.750864732e-09 1.732794365e-08)
(0.01099783433 9.411886633e-10 1.397791917e-08)
(0.01099795508 5.252510085e-10 1.374340189e-08)
(0.01099805556 -8.472537023e-10 2.172400966e-08)
(0.01099815366 1.128566137e-09 2.090767591e-08)
(0.01099966448 3.601842091e-07 7.627903158e-09)
(0.01099848571 1.961556432e-07 -1.681756637e-07)
(0.01099814552 6.533431019e-08 -3.518088122e-08)
(0.01099784929 2.881372117e-09 3.41794573e-08)
(0.01099771105 -1.216741876e-08 4.867283762e-08)
(0.01099768724 -1.764495638e-08 5.114021937e-08)
(0.01099772174 -1.747101905e-08 4.242866645e-08)
(0.01099779418 -1.332069963e-08 3.662468776e-08)
(0.01099787926 -1.049367251e-08 2.760424717e-08)
(0.01099797151 -9.679611251e-09 2.205936979e-08)
(0.01099806118 -7.956856924e-09 1.850173065e-08)
(0.01099814338 -8.174517534e-09 1.671027887e-08)
(0.01099822071 -1.407655195e-08 2.410148564e-08)
(0.01099829242 -1.343094877e-08 2.243724599e-08)
(0.01100022868 1.964898733e-07 -1.964409976e-07)
(0.01099970857 1.856878693e-07 -1.853666315e-07)
(0.01099944543 8.985429546e-08 -8.755591866e-08)
(0.01099914693 2.796842392e-08 -2.60080946e-08)
(0.01099892765 -3.532990059e-09 4.487539574e-09)
(0.0109987746 -1.621531476e-08 2.146322539e-08)
(0.0109986804 -2.016527988e-08 2.352242718e-08)
(0.01099862683 -2.164527194e-08 2.269810831e-08)
(0.01099859711 -1.75943526e-08 2.076951528e-08)
(0.01099859075 -1.676411187e-08 2.002704202e-08)
(0.010998597 -1.707533899e-08 1.920042239e-08)
(0.0109986083 -1.537784573e-08 1.567469769e-08)
(0.01099862191 -1.978949076e-08 2.137358239e-08)
(0.0109986403 -2.096033159e-08 1.918688154e-08)
(0.01100030519 2.247937918e-07 -9.237317039e-08)
(0.0110001437 1.884263973e-07 -9.999824995e-08)
(0.01100005989 1.135822218e-07 -6.560680476e-08)
(0.01099990522 5.982861032e-08 -3.530687524e-08)
(0.0109997512 2.712263841e-08 -1.320357347e-08)
(0.01099960534 4.805337837e-09 9.6552157e-10)
(0.01099947871 -7.015257489e-09 8.692331283e-09)
(0.01099937108 -1.23160397e-08 1.09344413e-08)
(0.01099927813 -1.622566283e-08 1.207204406e-08)
(0.01099920673 -1.565175257e-08 1.36799064e-08)
(0.01099914564 -1.724957492e-08 1.553287855e-08)
(0.01099909196 -1.493115536e-08 1.316392038e-08)
(0.01099905528 -1.768990591e-08 1.583220937e-08)
(0.01099901797 -1.895922547e-08 1.577861395e-08)
(0.01100029998 4.554598021e-08 -8.319489813e-08)
(0.01100028781 4.435091589e-08 -8.147970279e-08)
(0.01100028746 2.789365914e-08 -5.897905711e-08)
(0.01100021736 1.536543737e-08 -3.890217985e-08)
(0.01100012138 6.932257591e-09 -2.273783073e-08)
(0.01100000985 -4.37859383e-10 -9.303943677e-09)
(0.01099989326 -2.206145857e-09 -1.412935715e-09)
(0.01099977907 -5.051156327e-09 1.974555137e-09)
(0.01099966942 -6.302197676e-09 5.804102131e-09)
(0.01099957148 -6.275326396e-09 8.048099446e-09)
(0.01099947943 -5.872204157e-09 1.093840978e-08)
(0.01099939874 -4.419607599e-09 1.05819454e-08)
(0.01099932722 -6.681845825e-09 1.352937088e-08)
(0.01099926301 -6.130859204e-09 1.267747806e-08)
(0.01100004447 -1.587004877e-07 -2.644515047e-07)
(0.01100032102 -3.124718278e-08 -1.328815194e-07)
(0.0110002066 -4.496977246e-08 -9.358981227e-08)
(0.01100015811 -2.28118313e-08 -5.763128009e-08)
(0.01100003597 -6.999795937e-09 -3.158550262e-08)
(0.01099989891 4.324898873e-09 -1.622541188e-08)
(0.01099975735 9.378079841e-09 -6.537510094e-09)
(0.01099962048 9.708175176e-09 -3.158677745e-11)
(0.01099950012 9.594727077e-09 3.733776119e-09)
(0.01099939213 9.596948699e-09 5.414154466e-09)
(0.01099929672 5.830211238e-09 5.648448156e-09)
(0.01099921818 6.207911151e-09 7.185863536e-09)
(0.01099914798 6.532586132e-09 7.383004666e-09)
(0.01099909335 8.530797295e-09 1.131778711e-08)
(0.01099904465 8.508622471e-09 1.148750852e-08)
(0.01099996324 -7.180358419e-07 -5.589299725e-07)
(0.01100024273 -2.242679963e-07 -1.766880226e-07)
(0.01099981489 -2.054694855e-07 -1.170161189e-07)
(0.0109996498 -1.038789499e-07 -6.189136226e-08)
(0.01099942611 -3.65348218e-08 -2.208793956e-08)
(0.01099923904 -1.114426745e-09 -5.320782093e-09)
(0.01099909132 1.602392789e-08 1.640991721e-09)
(0.0109989824 2.260314074e-08 7.954670369e-09)
(0.01099890246 2.582875876e-08 9.912401672e-09)
(0.01099884934 2.43837825e-08 9.164175862e-09)
(0.01099880676 2.238017086e-08 9.23724865e-09)
(0.01099878105 2.071271689e-08 1.060669813e-08)
(0.01099876585 1.868814639e-08 1.060588028e-08)
(0.01099875643 2.174714306e-08 1.305403867e-08)
(0.01099875207 2.09796046e-08 1.042570399e-08)
(0.01099943171 -1.066590152e-06 -1.626941219e-06)
(0.01099966382 1.067464241e-08 -3.641381288e-07)
(0.01099848403 -1.648565672e-07 -1.982394102e-07)
(0.01099814447 -3.375385384e-08 -6.726131728e-08)
(0.01099784694 3.366558883e-08 -5.615368966e-09)
(0.01099771035 4.800820259e-08 1.270264488e-08)
(0.01099768641 4.953868139e-08 1.865994078e-08)
(0.01099772279 4.373267279e-08 1.909792042e-08)
(0.01099779357 3.450482241e-08 1.429445578e-08)
(0.01099787973 2.687859386e-08 1.303452503e-08)
(0.01099797082 2.149983442e-08 1.087519955e-08)
(0.01099805903 1.857904411e-08 1.199207271e-08)
(0.01099814295 1.659794476e-08 1.100208026e-08)
(0.01099822033 2.248528272e-08 1.366888434e-08)
(0.01099829064 2.277572296e-08 1.338323571e-08)
(0.01099661093 1.791175638e-07 1.785246486e-07)
(0.01099451674 -7.807869073e-08 -7.63844132e-08)
(0.01099479366 2.333365284e-08 2.72369798e-08)
(0.01099498652 6.835473171e-08 7.046544171e-08)
(0.01099534998 5.2905782e-08 5.335005026e-08)
(0.01099577379 3.771321176e-08 3.980254139e-08)
(0.0109961715 2.556387295e-08 2.589047107e-08)
(0.01099653276 1.731272461e-08 1.694277647e-08)
(0.01099684428 1.179875312e-08 1.178320002e-08)
(0.01099711802 9.615920909e-09 9.167766949e-09)
(0.01099734861 7.755745042e-09 9.619197787e-09)
(0.01099755222 9.259811605e-09 9.278274624e-09)
(0.01099771814 1.583228407e-08 1.634011786e-08)
(0.01099787174 1.571735919e-08 1.60600845e-08)
(0.01099245673 -5.578684559e-10 1.426047889e-06)
(0.01098930716 -1.168440465e-09 2.456892615e-07)
(0.01099142063 -4.394565044e-10 7.720026844e-08)
(0.01099271093 -2.168516368e-10 8.591653796e-08)
(0.010993774 -3.262405268e-10 3.864090328e-08)
(0.01099466515 9.811229438e-10 1.610468027e-08)
(0.0109953656 9.934844891e-10 7.144854644e-09)
(0.01099592798 -3.570945923e-10 2.357278131e-09)
(0.0109963787 3.080848441e-10 2.908711651e-09)
(0.01099674398 1.285175789e-09 2.32251695e-09)
(0.01099704805 4.344984946e-10 4.996647231e-09)
(0.01099730676 -5.828498949e-10 6.703470257e-09)
(0.01099751217 6.123258442e-11 1.378109344e-08)
(0.01099770401 5.143313144e-11 7.762141185e-09)
(0.01099660843 -1.802578465e-07 1.782446961e-07)
(0.01099451582 7.673386969e-08 -7.614314803e-08)
(0.01099479391 -2.398347243e-08 2.529279672e-08)
(0.01099498772 -6.724210342e-08 6.907342789e-08)
(0.01099535079 -5.090037866e-08 5.253294421e-08)
(0.0109957717 -3.44234883e-08 3.832774085e-08)
(0.01099616942 -2.518916062e-08 2.635022914e-08)
(0.01099653176 -1.55105059e-08 1.611060504e-08)
(0.01099684383 -1.02993689e-08 1.245886969e-08)
(0.01099711885 -8.137561941e-09 9.676156358e-09)
(0.0109973469 -7.684075055e-09 8.191197658e-09)
(0.01099755149 -7.302989948e-09 8.792273557e-09)
(0.01099771655 -1.340943105e-08 1.475536375e-08)
(0.01099787211 -1.428533742e-08 1.426257399e-08)
(0.01099966683 -8.849198577e-09 -3.610392282e-07)
(0.01099848464 1.667886915e-07 -1.951284196e-07)
(0.01099814379 3.556292576e-08 -6.646029354e-08)
(0.01099784804 -3.455409924e-08 -3.543294631e-09)
(0.01099771054 -4.817451845e-08 1.483934749e-08)
(0.01099768537 -4.848957187e-08 1.904365538e-08)
(0.01099771985 -4.097841323e-08 1.804139942e-08)
(0.01099779509 -3.363081794e-08 1.437666601e-08)
(0.0109978801 -2.541082726e-08 1.351932305e-08)
(0.0109979716 -1.994781238e-08 1.124373445e-08)
(0.01099805445 -1.709025924e-08 1.097834978e-08)
(0.01099814584 -1.548517058e-08 1.020488315e-08)
(0.01099821914 -2.229902025e-08 1.408005832e-08)
(0.01099829258 -2.285032575e-08 1.326714902e-08)
(0.01100024335 2.231555084e-07 -1.749658298e-07)
(0.01099981374 2.052724704e-07 -1.152433692e-07)
(0.01099965071 1.028353769e-07 -5.789957391e-08)
(0.01099942729 3.581875605e-08 -2.295528176e-08)
(0.01099924069 4.318787979e-09 -6.521130284e-09)
(0.0109990943 -1.626799023e-08 4.914681303e-09)
(0.01099898142 -2.19830362e-08 7.843210462e-09)
(0.01099890311 -2.437644059e-08 8.577486636e-09)
(0.01099884622 -2.36509772e-08 8.472809084e-09)
(0.01099880829 -2.141269335e-08 8.485753443e-09)
(0.01099877891 -2.140283056e-08 7.881069604e-09)
(0.01099876623 -1.813459447e-08 8.423343888e-09)
(0.0109987575 -2.193465789e-08 1.205495902e-08)
(0.01099875043 -2.130525609e-08 1.086777561e-08)
(0.01100032141 3.190812553e-08 -1.296459501e-07)
(0.01100020671 4.19540121e-08 -9.201789468e-08)
(0.01100016094 2.36628613e-08 -5.724929499e-08)
(0.0110000379 8.625292323e-09 -3.185886967e-08)
(0.01099990015 -9.76459179e-10 -1.559255133e-08)
(0.01099975952 -7.940115673e-09 -6.811547951e-09)
(0.01099962092 -9.492736626e-09 -1.41480372e-09)
(0.01099949876 -8.987458489e-09 1.040737032e-09)
(0.0109993884 -7.60371624e-09 4.892486662e-09)
(0.01099929428 -6.416527918e-09 4.927580375e-09)
(0.01099921695 -5.96541517e-09 6.1889802e-09)
(0.01099914892 -5.078927441e-09 6.902653778e-09)
(0.01099909189 -7.885113667e-09 9.827358801e-09)
(0.01099904159 -6.79731655e-09 9.79843168e-09)
(0.01099995575 -3.901456047e-07 -1.378085173e-09)
(0.01100041131 -8.076080032e-08 -1.788285346e-09)
(0.01100021336 -5.979932633e-08 -1.097628602e-11)
(0.01100011742 -2.421517855e-08 -4.497421892e-09)
(0.01099995624 -3.556455713e-09 -2.059716014e-09)
(0.0109997947 7.133510037e-09 -4.569181254e-10)
(0.01099963845 9.95603864e-09 6.521572458e-10)
(0.01099949734 1.099776967e-08 1.582388824e-09)
(0.0109993759 1.100942659e-08 3.084066794e-09)
(0.01099927018 9.43632466e-09 4.902087121e-10)
(0.01099918329 6.19865688e-09 1.397327174e-09)
(0.01099910857 8.05166449e-09 1.547734255e-09)
(0.01099904601 8.306810682e-09 3.247685222e-09)
(0.0109989997 9.367964938e-09 2.327994128e-09)
(0.01099895599 9.305908286e-09 1.955636804e-09)
(0.01099974493 -1.786649831e-06 -9.715648688e-10)
(0.01100037833 -4.387417164e-07 2.724286797e-10)
(0.0109996376 -2.81216231e-07 -6.010463633e-10)
(0.01099939965 -1.179424465e-07 -1.81690175e-09)
(0.0109991481 -3.038105751e-08 -2.137545223e-09)
(0.01099896135 5.245145207e-09 -1.420500288e-09)
(0.01099883278 1.927138202e-08 -5.107841964e-10)
(0.0109987463 2.432407138e-08 6.581102167e-10)
(0.01099868924 2.32775701e-08 2.197295323e-09)
(0.01099865765 2.289110404e-08 3.876248337e-10)
(0.01099863865 2.104420948e-08 2.742998253e-09)
(0.01099863092 1.781439761e-08 9.255203445e-10)
(0.01099862984 1.596168646e-08 2.030419789e-09)
(0.01099863613 2.14557093e-08 1.149319464e-09)
(0.01099864451 2.188623363e-08 2.587406694e-09)
(0.01099822199 -3.70845991e-06 -1.188198231e-09)
(0.0109994669 1.582668615e-07 -6.491564911e-10)
(0.01099739516 -1.477252191e-07 -8.435682999e-10)
(0.01099710855 -3.315513392e-09 -1.814809486e-09)
(0.01099695208 6.596340945e-08 1.582673384e-09)
(0.01099697525 6.06118655e-08 -6.26132647e-10)
(0.0109970923 5.158333347e-08 6.956147945e-10)
(0.01099724266 4.038899745e-08 8.843060937e-10)
(0.01099740496 2.86856025e-08 -5.419201762e-10)
(0.01099755792 2.356476813e-08 4.897861772e-10)
(0.01099770333 1.732613321e-08 1.030673486e-09)
(0.01099783402 1.496202211e-08 1.074496471e-09)
(0.01099795318 1.460049122e-08 2.869793472e-09)
(0.01099805504 2.316912296e-08 2.4001544e-09)
(0.01099815184 2.16060054e-08 1.744770157e-09)
(0.01098948694 -1.71764113e-05 8.994597773e-11)
(0.01099245397 1.428405569e-06 -1.099338383e-10)
(0.01098930788 2.460601485e-07 -7.834217165e-10)
(0.01099142195 7.497655978e-08 1.063875103e-10)
(0.0109927119 8.397763492e-08 -1.601724847e-10)
(0.01099377184 3.940462376e-08 4.906382766e-10)
(0.0109946619 1.608181821e-08 1.047841686e-09)
(0.01099536347 5.556132423e-09 1.828262111e-09)
(0.01099592696 3.107908545e-09 2.439516302e-10)
(0.0109963774 1.546554984e-09 6.121083483e-11)
(0.01099674825 1.225377323e-09 8.012255192e-10)
(0.01099704619 3.983341511e-09 1.655610802e-09)
(0.01099730968 6.658976817e-09 2.059029035e-09)
(0.01099751216 1.340528574e-08 1.249693702e-09)
(0.01099770479 8.535714933e-09 4.084200181e-10)
(0.01098007717 -8.581429813e-10 -2.932752952e-09)
(0.01097490747 -7.706980392e-10 7.160455934e-10)
(0.01098439558 -2.478405693e-10 9.506245559e-10)
(0.01098891298 -1.263355811e-09 -1.172038483e-09)
(0.01099148037 -1.610117042e-09 1.524817944e-09)
(0.01099319966 -4.07454438e-10 7.640496892e-10)
(0.0109943686 -5.59866182e-10 -7.625427067e-11)
(0.01099520996 -5.678819111e-10 2.763788042e-10)
(0.01099583842 -1.309357697e-09 1.302641651e-09)
(0.01099632682 2.537280901e-09 2.013204961e-10)
(0.01099671481 1.480437267e-10 -2.064660807e-10)
(0.01099703648 -5.108858029e-10 3.464607259e-10)
(0.0109972814 8.902482229e-10 1.635292187e-09)
(0.01099753344 7.630027913e-10 1.410140755e-09)
(0.010992453 -1.426815958e-06 -2.61974204e-10)
(0.01098930639 -2.457881628e-07 8.556923094e-10)
(0.01099142119 -7.639383601e-08 1.450803373e-09)
(0.01099271142 -8.448761592e-08 3.984668391e-10)
(0.01099377187 -3.944984976e-08 -2.193056207e-10)
(0.01099466386 -1.463198177e-08 -1.451002674e-09)
(0.01099536318 -5.591300898e-09 -8.303156734e-10)
(0.01099592759 -1.202084826e-09 -8.369387169e-10)
(0.01099637884 3.814772225e-10 2.070469603e-09)
(0.01099674554 -2.655503177e-09 1.152180856e-09)
(0.01099704594 -4.506373878e-09 5.142197663e-10)
(0.01099730834 -5.189495659e-09 2.045620809e-10)
(0.01099751396 -1.323961645e-08 1.049000414e-09)
(0.01099770262 -8.807864286e-09 -8.183892498e-10)
(0.01099946355 -1.603294454e-07 -9.557973037e-10)
(0.01099739424 1.476712997e-07 -1.186963515e-09)