/*--------------------------------*- C++ -*----------------------------------*\
| =========                 |                                                 |
| \\      /  F ield         | OpenFOAM: The Open Source CFD Toolbox           |
|  \\    /   O peration     | Version:  4.x                                   |
|   \\  /    A nd           | Web:      www.OpenFOAM.org                      |
|    \\/     M anipulation  |                                                 |
\*---------------------------------------------------------------------------*/
FoamFile
{
    version     2.0;
    format      ascii;
    class       volScalarField;
    location    "2000";
    object      X_CO2;
}
// * * * * * * * * * * * * * * * * * * * * * * * * * * * * * * * * * * * * * //

dimensions      [0 0 0 0 0 0 0];

internalField   nonuniform List<scalar> 
1174
(
0.004156719746
0.004160766877
0.004166488259
0.004173960534
0.004183107623
0.004193731859
0.004205552775
0.004218251828
0.004231503131
0.004245000579
0.004258458974
0.004271574235
0.004283806142
0.004293430546
0.004160523654
0.004167019971
0.004175681694
0.0041863131
0.004198551532
0.004211956286
0.004226077293
0.004240505104
0.004254892774
0.004268963189
0.004282496476
0.004295279158
0.004306900521
0.004315883561
0.004168932794
0.004180433645
0.004194681293
0.00421087907
0.004228160265
0.004245745032
0.00426301398
0.004279525172
0.004294994669
0.004309266893
0.004322275222
0.004333976718
0.004344178956
0.004351831588
0.004181270996
0.00419915789
0.004219720007
0.00424145808
0.004263119594
0.004283803194
0.004302940782
0.004320238489
0.004335600537
0.004349061387
0.00436073279
0.004370740947
0.004379095375
0.004385157438
0.004190093465
0.00421149384
0.004234868108
0.004258575436
0.004281423509
0.004302647661
0.004321829109
0.004338802651
0.004353577669
0.004366271065
0.004377057926
0.004386118384
0.004393531367
0.004398823545
0.004181270259
0.004199157393
0.004219719469
0.004241456812
0.004263118126
0.004283801193
0.004302938596
0.004320236098
0.004335597205
0.004349057687
0.00436072871
0.004370736578
0.004379090332
0.004385152579
0.004168932874
0.004180433553
0.004194680627
0.004210877405
0.004228157635
0.004245742101
0.004263011067
0.004279520723
0.004294989751
0.004309261031
0.004322268635
0.004333969112
0.00434417026
0.004351822313
0.004160523085
0.004167019312
0.004175680419
0.004186311301
0.004198549364
0.004211953407
0.004226074178
0.004240500955
0.004254888277
0.004268957695
0.004282489403
0.004295271037
0.004306891535
0.004315873778
0.004156719419
0.004160766248
0.004166487752
0.004173959799
0.004183106376
0.004193730236
0.004205550745
0.004218248938
0.004231499563
0.004244995313
0.00425845225
0.004271565744
0.004283796752
0.004293419872
0.004156141846
0.004160522605
0.004167019465
0.004175681029
0.004186312321
0.004198550895
0.004211955216
0.004226076266
0.004240504264
0.00425489222
0.004268963065
0.004282496002
0.004295279019
0.004306900387
0.00431588334
0.004169110915
0.004180536802
0.004194487483
0.004210129402
0.004226622965
0.004243258847
0.004259507564
0.00427501438
0.004289567647
0.004303062933
0.004315459068
0.004326721413
0.004336646582
0.004344157017
0.004190737806
0.00421297653
0.004237181996
0.004261310058
0.00428395469
0.004304345522
0.004322198194
0.0043375424
0.004350583623
0.004361601123
0.004370886717
0.004378690003
0.004385124122
0.00438976596
0.004229224482
0.004266256772
0.004301528181
0.004332396285
0.004357926656
0.004378226574
0.00439391192
0.004405768087
0.004414568619
0.004420994801
0.004425611519
0.004428865963
0.004431092891
0.004432453965
0.004265597041
0.004310198242
0.004348058882
0.004378165822
0.00440109037
0.004417973082
0.004430035596
0.004438375267
0.004443905397
0.00444735453
0.004449289086
0.004450149025
0.00445029459
0.004450095067
0.004229222493
0.004266254668
0.004301525986
0.004332393812
0.004357923692
0.004378222878
0.004393907646
0.004405762359
0.004414562957
0.004420988471
0.00442560487
0.00442885882
0.004431085853
0.00443244685
0.004190736168
0.004212974807
0.00423717998
0.004261307335
0.004283950893
0.004304340473
0.004322191885
0.004337535444
0.004350575496
0.004361592228
0.004370876608
0.004378679332
0.004385112891
0.004389754046
0.004169109761
0.004180536146
0.004194486501
0.004210127909
0.004226620064
0.004243254911
0.004259502826
0.00427500836
0.004289560741
0.00430305411
0.004315449232
0.004326710439
0.004336634099
0.00434414343
0.004160522937
0.004167019248
0.004175680846
0.004186311533
0.004198549129
0.00421195322
0.004226073429
0.004240499691
0.004254886173
0.004268954656
0.004282486804
0.004295267761
0.004306887601
0.004315869029
0.004160673813
0.004168932336
0.004180432872
0.004194680401
0.004210877263
0.004228158525
0.004245743554
0.004263012494
0.004279523396
0.004294993223
0.004309265692
0.004322274199
0.004333975249
0.004344177517
0.00435182989
0.004172803694
0.004190736421
0.004212975669
0.00423718145
0.004261309292
0.004283953917
0.004304345164
0.004322197464
0.004337541372
0.004350582072
0.004361600356
0.00437088577
0.004378689176
0.004385123752
0.004389764196
0.004254708331
0.00430171302
0.004344356589
0.004379401188
0.004406157976
0.004425371206
0.004438375921
0.00444659915
0.00445131508
0.004453565648
0.004454151372
0.004453674983
0.004452616907
0.00445151366
0.004397180447
0.004476744739
0.004531804429
0.004564490725
0.004580039587
0.004583761612
0.004579954774
0.004571741239
0.004561246362
0.004549845763
0.004538401873
0.004527467951
0.004517567432
0.004509978497
0.004584099704
0.004663513747
0.004697929411
0.004704363703
0.004695024233
0.004677620115
0.004656734822
0.00463498701
0.00461380739
0.004593933687
0.004575712163
0.004559315443
0.004545050306
0.004534377007
0.004397172643
0.004476737173
0.004531796929
0.00456448184
0.004580030363
0.004583751468
0.004579944102
0.004571730978
0.004561235768
0.004549835254
0.004538391177
0.004527457758
0.00451755688
0.004509968837
0.004254701937
0.004301707778
0.004344350278
0.004379393648
0.004406149046
0.004425360509
0.004438363939
0.004446586012
0.004451301226
0.004453550705
0.004454135698
0.004453658985
0.004452601119
0.004451496923
0.004190736264
0.004212974845
0.004237179386
0.004261305435
0.004283948772
0.004304337582
0.004322188377
0.004337531023
0.004350570376
0.004361586448
0.004370871088
0.00437867292
0.004385105883
0.004389746701
0.004168933177
0.004180433342
0.004194679726
0.0042108761
0.004228155994
0.004245739469
0.00426300654
0.004279515476
0.004294982661
0.004309253542
0.004322260306
0.00433395939
0.004344160193
0.00435181049
0.004167488466
0.004181268656
0.004199155962
0.004219717913
0.004241455593
0.004263117704
0.00428380103
0.004302938813
0.004320236418
0.004335597723
0.004349058937
0.004360730201
0.004370738669
0.004379093021
0.004385155482
0.004195209232
0.004229220693
0.004266253499
0.004301525432
0.0043323932
0.004357924092
0.004378224182
0.004393909314
0.004405765664
0.004414565984
0.004420992936
0.004425609499
0.004428863876
0.004431090969
0.004432452407
0.004300326326
0.004397174304
0.004476740878
0.004531801184
0.004564487388
0.004580037043
0.004583758952
0.004579952084
0.004571739632
0.004561244138
0.004549844333
0.004538400109
0.004527466602
0.004517566048
0.004509977875
0.004886307306
0.004987218547
0.005004724476
0.004976831923
0.004928529289
0.004873979859
0.004820395812
0.004771016997
0.004726977922
0.004688377827
0.004654868628
0.004626017495
0.004601772648
0.004584055581
0.005848187931
0.005724928299
0.005533531523
0.005349381307
0.005192588062
0.005064509642
0.004961098736
0.0048775148
0.004809513779
0.004753723328
0.004707576898
0.004669233925
0.004637827136
0.004615246602
0.004886275277
0.004987195756
0.005004703919
0.004976810763
0.004928509168
0.004873960806
0.004820377201
0.004770998785
0.004726960559
0.004688361676
0.004654853613
0.004626003623
0.004601759466
0.004584042614
0.004397173565
0.004476735175
0.004531791123
0.004564473118
0.004580019466
0.004583739604
0.004579931505
0.004571718042
0.004561222598
0.004549822145
0.00453837859
0.004527445404
0.00451754472
0.004509956093
0.004229223493
0.004266253796
0.004301521991
0.00433238735
0.004357914895
0.004378212369
0.00439389532
0.004405748952
0.004414547826
0.004420972885
0.004425588522
0.004428842241
0.004431068433
0.004432429489
0.004181270675
0.004199157021
0.004219717545
0.004241453911
0.004263112937
0.004283793266
0.004302929067
0.004320224264
0.004335583611
0.00434904232
0.004360711635
0.004370718307
0.004379071041
0.004385131499
0.004172610304
0.004190090927
0.004211490945
0.004234865208
0.0042585723
0.004281420095
0.00430264428
0.004321825541
0.004338799315
0.00435357381
0.004366267131
0.004377053816
0.004386114451
0.00439352787
0.004398820609
0.004218640533
0.004265592322
0.00431019323
0.004348054032
0.004378160473
0.004401085298
0.004417968138
0.004430030545
0.004438370949
0.004443901171
0.004447350427
0.004449285055
0.004450145784
0.004450291849
0.004450092539
0.004443730931
0.004584089409
0.00466350324
0.004697919731
0.004704355952
0.004695016523
0.004677613735
0.004656729791
0.004634982231
0.004613802918
0.004593930284
0.004575708821
0.004559312561
0.004545046938
0.004534373796
0.005675397849
0.005848153428
0.005724905763
0.005533516207
0.005349370429
0.005192580611
0.005064503501
0.004961093544
0.00487751046
0.004809510439
0.004753720554
0.00470757434
0.004669231069
0.004637824797
0.004615243778
0.01001174366
0.007902094391
0.006732222572
0.006046346025
0.005621034093
0.005342609764
0.005150999852
0.005013182672
0.004910266257
0.004830998708
0.004768428071
0.004718209385
0.004678088007
0.004649678561
0.005848190455
0.005724894833
0.005533488381
0.005349338455
0.005192549341
0.005064474755
0.004961067958
0.004877486847
0.004809488629
0.004753700911
0.004707555845
0.004669214088
0.004637808892
0.004615229364
0.004584103631
0.004663501642
0.004697906859
0.004704335773
0.00469499213
0.004677587081
0.004656702352
0.004634954625
0.004613775679
0.004593903271
0.004575683368
0.004559287405
0.004545023169
0.00453435033
0.004265597686
0.004310195188
0.004348050817
0.004378152221
0.004401072667
0.004417952924
0.004430012782
0.004438350492
0.004443879195
0.0044473274
0.004449260956
0.004450120936
0.004450266943
0.00445006744
0.004190093974
0.004211492807
0.004234865362
0.004258569711
0.004281413985
0.004302635094
0.004321813256
0.004338784378
0.004353556399
0.004366247353
0.004377032059
0.004386091073
0.004393503073
0.004398794542
0.004167488512
0.004181268667
0.004199155429
0.004219716725
0.004241453747
0.004263114979
0.00428379787
0.004302935005
0.004320232134
0.004335592626
0.004349053387
0.004360724148
0.004370732093
0.004379086098
0.004385147629
0.004195208091
0.004229218485
0.004266250097
0.004301520866
0.004332387995
0.004357917507
0.004378217188
0.004393902234
0.00440575802
0.004414557732
0.00442098442
0.004425600085
0.004428854322
0.004431081708
0.004432442266
0.004300312084
0.004397160581
0.004476725861
0.004531785441
0.004564471761
0.004580021023
0.004583743336
0.004579937173
0.004571724847
0.004561229699
0.00454983018
0.004538386308
0.00452745288
0.004517552655
0.004509964135
0.004661419163
0.004886244553
0.004987170724
0.005004684099
0.004976795453
0.004928496684
0.004873950454
0.004820368454
0.004770992121
0.004726954846
0.004688356154
0.004654848776
0.004625998635
0.004601754665
0.004584037823
0.005675390799
0.005848142622
0.005724864959
0.005533469364
0.005349325712
0.005192540032
0.005064467109
0.004961061762
0.004877481977
0.004809484683
0.004753697691
0.004707553292
0.004669212097
0.00463780692
0.004615227426
0.004661429686
0.004886244383
0.004987158513
0.005004664679
0.004976772738
0.004928473049
0.004873927064
0.004820346071
0.004770971189
0.004726935484
0.004688337958
0.004654831705
0.004625983059
0.004601739784
0.00458402305
0.004397181599
0.004476730654
0.004531779344
0.004564457833
0.004580001619
0.004583721304
0.004579912708
0.004571699456
0.004561204982
0.004549805485
0.004538362538
0.004527429276
0.004517529403
0.004509941209
0.004229226571
0.004266254001
0.004301519944
0.004332382076
0.004357907226
0.004378203404
0.004393885573
0.004405738858
0.004414537285
0.004420962269
0.004425577891
0.004428830822
0.004431056582
0.004432417718
0.004181271468
0.004199157865
0.004219717329
0.004241451634
0.004263110042
0.004283790083
0.004302923717
0.004320218079
0.00433557623
0.004349033927
0.004360703312
0.004370709519
0.004379061651
0.004385122298
0.004160673975
0.004168931936
0.004180432129
0.004194678639
0.00421087509
0.004228155458
0.004245739221
0.004263007513
0.004279517511
0.00429498572
0.004309256929
0.004322264715
0.004333964512
0.00434416685
0.004351818665
0.004172801018
0.004190733356
0.004212971727
0.004237176257
0.004261303066
0.004283946673
0.004304335854
0.00432218717
0.004337530049
0.004350570281
0.004361587735
0.004370871954
0.004378674834
0.004385108276
0.004389749814
0.004209960504
0.0042546954
0.004301700345
0.004344342829
0.004379386089
0.004406141487
0.004425353385
0.004438357181
0.004446579115
0.004451295052
0.00445354543
0.004454130488
0.00445365419
0.004452595851
0.004451492152
0.004300312189
0.004397158249
0.004476719849
0.004531775834
0.004564460095
0.004580007977
0.004583729169
0.004579922358
0.004571709742
0.004561216123
0.004549816552
0.004538373188
0.004527439576
0.004517540095
0.004509951435
0.004443730944
0.004584077801
0.004663480125
0.004697888366
0.004704320473
0.004694979666
0.004677576912
0.004656693995
0.004634947474
0.004613769849
0.004593898329
0.004575678735
0.004559283498
0.004545018912
0.004534346272
0.004300311427
0.00439715557
0.004476713746
0.004531767237
0.004564448579
0.004579994936
0.00458371557
0.004579908224
0.004571696049
0.004561201585
0.004549802737
0.004538359987
0.004527427095
0.004517527571
0.004509939338
0.004209965405
0.004254699486
0.004301700582
0.004344338803
0.004379377865
0.004406130062
0.00442533939
0.00443834079
0.004446561439
0.004451276859
0.004453526843
0.004454111968
0.004453635213
0.004452576656
0.004451473012
0.00419073853
0.0042129742
0.004237176252
0.004261300329
0.004283940262
0.004304326931
0.00432217505
0.004337516383
0.00435055539
0.004361570269
0.004370853729
0.004378654884
0.004385087267
0.004389727617
0.004168933982
0.004180433426
0.004194678985
0.004210874037
0.004228152253
0.004245733834
0.004262999421
0.004279506872
0.004294972614
0.004309242114
0.004322246731
0.004333945231
0.004344145113
0.004351795059
0.004156142231
0.004160522915
0.004167018975
0.004175679546
0.004186309879
0.004198547104
0.004211950992
0.004226071514
0.004240498393
0.004254884913
0.004268953791
0.004282485826
0.004295267102
0.004306887614
0.004315869771
0.004160794086
0.004169108469
0.004180534559
0.004194484111
0.00421012498
0.004226616888
0.004243251651
0.004259499116
0.004275004619
0.004289556746
0.004303049917
0.004315444947
0.004326706256
0.004336629994
0.004344139115
0.004172801327
0.004190733715
0.004212971072
0.004237174443
0.004261300136
0.004283943447
0.004304331876
0.004322182237
0.0043375251
0.004350564881
0.004361581293
0.004370865711
0.004378668026
0.004385101153
0.00438974161
0.004195207803
0.004229217537
0.004266246681
0.004301514917
0.004332379798
0.004357906614
0.004378204481
0.004393887777
0.004405742155
0.004414541665
0.004420967503
0.004425583143
0.00442883677
0.004431063693
0.004432424562
0.00421864104
0.004265588655
0.004310185296
0.004348040898
0.004378142258
0.004401063912
0.004417944727
0.004430005544
0.004438344154
0.004443873391
0.004447321421
0.004449255937
0.004450116113
0.004450262356
0.004450063676
0.0041952075
0.004229215826
0.004266244195
0.004301510794
0.004332374715
0.004357901097
0.004378197321
0.004393880358
0.004405733748
0.004414532557
0.004420958319
0.004425573719
0.004428827579
0.004431054349
0.004432415242
0.004172802033
0.004190733546
0.004212969939
0.004237172449
0.004261296522
0.004283937491
0.004304324089
0.004322173074
0.004337514191
0.004350553135
0.004361568979
0.004370851658
0.004378653399
0.004385086163
0.004389726464
0.004160795398
0.004169109581
0.004180535566
0.004194484549
0.004210123836
0.004226613991
0.004243246368
0.004259491871
0.00427499524
0.004289545331
0.004303037607
0.004315430668
0.004326690116
0.004336612914
0.004344121171
0.004160523959
0.004167019703
0.004175680453
0.004186309723
0.004198545948
0.004211948467
0.004226066656
0.004240490923
0.004254875411
0.00426894243
0.004282472531
0.004295251903
0.004306870343
0.004315850277
0.004154119589
0.004156719448
0.004160765956
0.004166487224
0.004173959197
0.004183105262
0.004193728728
0.004205549183
0.004218246881
0.004231497015
0.004244992377
0.004258448768
0.004271562542
0.004283793194
0.004293415902
0.004156142205
0.00416052267
0.004167018797
0.004175679432
0.00418630965
0.004198547015
0.004211950158
0.004226069725
0.004240496619
0.004254882924
0.004268951426
0.004282483006
0.004295263774
0.004306883723
0.004315864964
0.004160674235
0.004168931764
0.004180431018
0.004194677143
0.004210872943
0.004228152437
0.004245735513
0.004263002694
0.004279511048
0.004294978528
0.004309248792
0.004322255147
0.004333954917
0.004344155865
0.004351806772
0.004167488582
0.004181267739
0.004199153906
0.004219713506
0.004241449004
0.004263108008
0.00428378872
0.004302923667
0.004320218305
0.004335577414
0.004349036565
0.004360705826
0.00437071293
0.004379065783
0.004385126334
0.004172610126
0.004190090057
0.004211488058
0.004234859645
0.004258563748
0.004281408083
0.004302629061
0.004321807643
0.004338778588
0.004353551133
0.004366242154
0.004377026764
0.004386086059
0.004393497965
0.004398789206
0.004167488209
0.0041812675
0.004199152861
0.004219711838
0.004241446503
0.004263104694
0.004283784654
0.004302919138
0.00432021322
0.004335572017
0.004349030297
0.004360699018
0.004370705594
0.004379058476
0.004385118335
0.004160673864
0.004168931399
0.004180430538
0.004194676033
0.004210871113
0.00422814901
0.00424573067
0.004262996779
0.004279504032
0.004294969846
0.004309239584
0.00432224486
0.004333943298
0.004344143133
0.004351793298
0.004156142651
0.004160522948
0.004167018718
0.004175679296
0.00418630928
0.004198545314
0.004211947029
0.004226065576
0.004240490139
0.004254874196
0.004268941555
0.004282471117
0.004295250735
0.004306868849
0.004315849471
0.00415412078
0.004156720306
0.004160766758
0.004166487775
0.004173958947
0.004183104693
0.004193726782
0.004205545457
0.004218241134
0.00423148949
0.004244983208
0.004258437558
0.004271549064
0.004283777974
0.004293399472
)
;

boundaryField
{
    top
    {
        type            calculated;
        value           nonuniform List<scalar> 
127
(
0.00415412078
0.004156719419
0.004160522937
0.004168933177
0.004181270675
0.004190093974
0.004181271468
0.004168933982
0.004160523959
0.004156720306
0.004160766248
0.004167019248
0.004180433342
0.004199157021
0.004211492807
0.004199157865
0.004180433426
0.004167019703
0.004160766758
0.004166487752
0.004175680846
0.004194679726
0.004219717545
0.004234865362
0.004219717329
0.004194678985
0.004175680453
0.004166487775
0.004173959799
0.004186311533
0.0042108761
0.004241453911
0.004258569711
0.004241451634
0.004210874037
0.004186309723
0.004173958947
0.004183106376
0.004198549129
0.004228155994
0.004263112937
0.004281413985
0.004263110042
0.004228152253
0.004198545948
0.004183104693
0.004193730236
0.00421195322
0.004245739469
0.004283793266
0.004302635094
0.004283790083
0.004245733834
0.004211948467
0.004193726782
0.004205550745
0.004226073429
0.00426300654
0.004302929067
0.004321813256
0.004302923717
0.004262999421
0.004226066656
0.004205545457
0.004218248938
0.004240499691
0.004279515476
0.004320224264
0.004338784378
0.004320218079
0.004279506872
0.004240490923
0.004218241134
0.004231499563
0.004254886173
0.004294982661
0.004335583611
0.004353556399
0.00433557623
0.004294972614
0.004254875411
0.00423148949
0.004244995313
0.004268954656
0.004309253542
0.00434904232
0.004366247353
0.004349033927
0.004309242114
0.00426894243
0.004244983208
0.00425845225
0.004282486804
0.004322260306
0.004360711635
0.004377032059
0.004360703312
0.004322246731
0.004282472531
0.004258437558
0.004271565744
0.004295267761
0.00433395939
0.004370718307
0.004386091073
0.004370709519
0.004333945231
0.004295251903
0.004271549064
0.004283796752
0.004306887601
0.004344160193
0.004379071041
0.004393503073
0.004379061651
0.004344145113
0.004306870343
0.004283777974
0.004293419872
0.004315869029
0.00435181049
0.004385131499
0.004398794542
0.004385122298
0.004351795059
0.004315850277
0.004293399472
)
;
    }
    bottom
    {
        type            calculated;
        value           nonuniform List<scalar> 
134
(
0.004156141846
0.004160673813
0.004167488466
0.004172610304
0.004167488512
0.004160673975
0.004156142231
0.004154119589
0.004156719746
0.004160522605
0.004168932336
0.004181268656
0.004190090927
0.004181268667
0.004168931936
0.004160522915
0.004156719448
0.004160766877
0.004167019465
0.004180432872
0.004199155962
0.004211490945
0.004199155429
0.004180432129
0.004167018975
0.004160765956
0.004166488259
0.004175681029
0.004194680401
0.004219717913
0.004234865208
0.004219716725
0.004194678639
0.004175679546
0.004166487224
0.004173960534
0.004186312321
0.004210877263
0.004241455593
0.0042585723
0.004241453747
0.00421087509
0.004186309879
0.004173959197
0.004183107623
0.004198550895
0.004228158525
0.004263117704
0.004281420095
0.004263114979
0.004228155458
0.004198547104
0.004183105262
0.004193731859
0.004211955216
0.004245743554
0.00428380103
0.00430264428
0.00428379787
0.004245739221
0.004211950992
0.004193728728
0.004205552775
0.004226076266
0.004263012494
0.004302938813
0.004321825541
0.004302935005
0.004263007513
0.004226071514
0.004205549183
0.004218251828
0.004240504264
0.004279523396
0.004320236418
0.004338799315
0.004320232134
0.004279517511
0.004240498393
0.004218246881
0.004231503131
0.00425489222
0.004294993223
0.004335597723
0.00435357381
0.004335592626
0.00429498572
0.004254884913
0.004231497015
0.004245000579
0.004268963065
0.004309265692
0.004349058937
0.004366267131
0.004349053387
0.004309256929
0.004268953791
0.004244992377
0.004258458974
0.004282496002
0.004322274199
0.004360730201
0.004377053816
0.004360724148
0.004322264715
0.004282485826
0.004258448768
0.004271574235
0.004295279019
0.004333975249
0.004370738669
0.004386114451
0.004370732093
0.004333964512
0.004295267102
0.004271562542
0.004283806142
0.004306900387
0.004344177517
0.004379093021
0.00439352787
0.004379086098
0.00434416685
0.004306887614
0.004283793194
0.004293430546
0.00431588334
0.00435182989
0.004385155482
0.004398820609
0.004385147629
0.004351818665
0.004315869771
0.004293415902
)
;
    }
    side-walls
    {
        type            calculated;
        value           nonuniform List<scalar> 
261
(
0.004156719746
0.004160523654
0.004168932794
0.004181270996
0.004190093465
0.004181270259
0.004168932874
0.004160523085
0.004156719419
0.004160766877
0.004167019971
0.004180433645
0.00419915789
0.00421149384
0.004199157393
0.004180433553
0.004167019312
0.004160766248
0.004166488259
0.004175681694
0.004194681293
0.004219720007
0.004234868108
0.004219719469
0.004194680627
0.004175680419
0.004166487752
0.004173960534
0.0041863131
0.00421087907
0.00424145808
0.004258575436
0.004241456812
0.004210877405
0.004186311301
0.004173959799
0.004183107623
0.004198551532
0.004228160265
0.004263119594
0.004281423509
0.004263118126
0.004228157635
0.004198549364
0.004183106376
0.004193731859
0.004211956286
0.004245745032
0.004283803194
0.004302647661
0.004283801193
0.004245742101
0.004211953407
0.004193730236
0.004205552775
0.004226077293
0.00426301398
0.004302940782
0.004321829109
0.004302938596
0.004263011067
0.004226074178
0.004205550745
0.004218251828
0.004240505104
0.004279525172
0.004320238489
0.004338802651
0.004320236098
0.004279520723
0.004240500955
0.004218248938
0.004231503131
0.004254892774
0.004294994669
0.004335600537
0.004353577669
0.004335597205
0.004294989751
0.004254888277
0.004231499563
0.004245000579
0.004268963189
0.004309266893
0.004349061387
0.004366271065
0.004349057687
0.004309261031
0.004268957695
0.004244995313
0.004258458974
0.004282496476
0.004322275222
0.00436073279
0.004377057926
0.00436072871
0.004322268635
0.004282489403
0.00425845225
0.004271574235
0.004295279158
0.004333976718
0.004370740947
0.004386118384
0.004370736578
0.004333969112
0.004295271037
0.004271565744
0.004283806142
0.004306900521
0.004344178956
0.004379095375
0.004393531367
0.004379090332
0.00434417026
0.004306891535
0.004283796752
0.004293430546
0.004315883561
0.004351831588
0.004385157438
0.004398823545
0.004385152579
0.004351822313
0.004315873778
0.004293419872
0.004154119589
0.004156142205
0.004160674235
0.004167488582
0.004172610126
0.004167488209
0.004160673864
0.004156142651
0.00415412078
0.004156719448
0.00416052267
0.004168931764
0.004181267739
0.004190090057
0.0041812675
0.004168931399
0.004160522948
0.004156720306
0.004160765956
0.004167018797
0.004180431018
0.004199153906
0.004211488058
0.004199152861
0.004180430538
0.004167018718
0.004160766758
0.004166487224
0.004175679432
0.004194677143
0.004219713506
0.004234859645
0.004219711838
0.004194676033
0.004175679296
0.004166487775
0.004173959197
0.00418630965
0.004210872943
0.004241449004
0.004258563748
0.004241446503
0.004210871113
0.00418630928
0.004173958947
0.004183105262
0.004198547015
0.004228152437
0.004263108008
0.004281408083
0.004263104694
0.00422814901
0.004198545314
0.004183104693
0.004193728728
0.004211950158
0.004245735513
0.00428378872
0.004302629061
0.004283784654
0.00424573067
0.004211947029
0.004193726782
0.004205549183
0.004226069725
0.004263002694
0.004302923667
0.004321807643
0.004302919138
0.004262996779
0.004226065576
0.004205545457
0.004218246881
0.004240496619
0.004279511048
0.004320218305
0.004338778588
0.00432021322
0.004279504032
0.004240490139
0.004218241134
0.004231497015
0.004254882924
0.004294978528
0.004335577414
0.004353551133
0.004335572017
0.004294969846
0.004254874196
0.00423148949
0.004244992377
0.004268951426
0.004309248792
0.004349036565
0.004366242154
0.004349030297
0.004309239584
0.004268941555
0.004244983208
0.004258448768
0.004282483006
0.004322255147
0.004360705826
0.004377026764
0.004360699018
0.00432224486
0.004282471117
0.004258437558
0.004271562542
0.004295263774
0.004333954917
0.00437071293
0.004386086059
0.004370705594
0.004333943298
0.004295250735
0.004271549064
0.004283793194
0.004306883723
0.004344155865
0.004379065783
0.004393497965
0.004379058476
0.004344143133
0.004306868849
0.004283777974
0.004293415902
0.004315864964
0.004351806772
0.004385126334
0.004398789206
0.004385118335
0.004351793298
0.004315849471
0.004293399472
)
;
    }
    inlet
    {
        type            calculated;
        value           nonuniform 0();
    }
    outlet
    {
        type            calculated;
        value           nonuniform List<scalar> 
81
(
0.004293430546
0.004315883561
0.004351831588
0.004385157438
0.004398823545
0.004385152579
0.004351822313
0.004315873778
0.004293419872
0.00431588334
0.004344157017
0.00438976596
0.004432453965
0.004450095067
0.00443244685
0.004389754046
0.00434414343
0.004315869029
0.00435182989
0.004389764196
0.00445151366
0.004509978497
0.004534377007
0.004509968837
0.004451496923
0.004389746701
0.00435181049
0.004385155482
0.004432452407
0.004509977875
0.004584055581
0.004615246602
0.004584042614
0.004509956093
0.004432429489
0.004385131499
0.004398820609
0.004450092539
0.004534373796
0.004615243778
0.004649678561
0.004615229364
0.00453435033
0.00445006744
0.004398794542
0.004385147629
0.004432442266
0.004509964135
0.004584037823
0.004615227426
0.00458402305
0.004509941209
0.004432417718
0.004385122298
0.004351818665
0.004389749814
0.004451492152
0.004509951435
0.004534346272
0.004509939338
0.004451473012
0.004389727617
0.004351795059
0.004315869771
0.004344139115
0.00438974161
0.004432424562
0.004450063676
0.004432415242
0.004389726464
0.004344121171
0.004315850277
0.004293415902
0.004315864964
0.004351806772
0.004385126334
0.004398789206
0.004385118335
0.004351793298
0.004315849471
0.004293399472
)
;
    }
    procBoundary1to0
    {
        type            processor;
        value           nonuniform List<scalar> 
97
(
0.004154119948
0.004154119948
0.004156142193
0.004160673323
0.004167487429
0.0041726079
0.004167486881
0.00416067295
0.004156141212
0.004154119459
0.004153554851
0.00416079472
0.00416079472
0.00416079472
0.004172800732
0.004195204209
0.00421863223
0.004195202833
0.004172799047
0.00416079324
0.004156141389
0.004155604604
0.00416091698
0.004209964654
0.004209964654
0.004209964654
0.004300303034
0.004443685983
0.004300293362
0.004209953839
0.004172799204
0.004160672895
0.004158610474
0.004170293307
0.004211193593
0.004661429108
0.004661429108
0.004661429108
0.005675100142
0.004661350358
0.004300294264
0.004195202876
0.00416748743
0.00416076038
0.004179150917
0.004256685731
0.004563873468
0.01403232856
0.01403232856
0.01403232856
0.005675117739
0.005675117739
0.004443691204
0.004218632817
0.004172608074
0.004158611101
0.00417029349
0.00421119625
0.004330217836
0.004563886407
0.00433021007
0.004300321281
0.004300321281
0.004300321281
0.004195207291
0.00416748752
0.004155605161
0.004160917897
0.004176500427
0.004211196376
0.004256687993
0.004211194895
0.004176499757
0.00417280391
0.00417280391
0.00417280391
0.004160674249
0.004153555821
0.004155648028
0.004160918055
0.004170294059
0.004179152221
0.004170293564
0.004160918032
0.004155648427
0.004156143034
0.004156143034
0.004156143034
0.004152628705
0.004153555409
0.004155605879
0.004158611518
0.004160760804
0.004158611167
0.004155605146
0.00415355603
0.004152629171
)
;
    }
}


// ************************************************************************* //
