/*--------------------------------*- C++ -*----------------------------------*\
| =========                 |                                                 |
| \\      /  F ield         | OpenFOAM: The Open Source CFD Toolbox           |
|  \\    /   O peration     | Version:  4.x                                   |
|   \\  /    A nd           | Web:      www.OpenFOAM.org                      |
|    \\/     M anipulation  |                                                 |
\*---------------------------------------------------------------------------*/
FoamFile
{
    version     2.0;
    format      ascii;
    class       volScalarField;
    location    "2000";
    object      X_CO;
}
// * * * * * * * * * * * * * * * * * * * * * * * * * * * * * * * * * * * * * //

dimensions      [0 0 0 0 0 0 0];

internalField   nonuniform List<scalar> 
1174
(
0.3728686561
0.3728646117
0.3728588939
0.3728514266
0.3728422856
0.3728316689
0.3728198564
0.3728071674
0.3727939268
0.3727804413
0.3727669955
0.3727538931
0.3727416733
0.3727320592
0.3728648546
0.3728583621
0.3728497057
0.3728390811
0.3728268508
0.3728134554
0.3727993446
0.372784928
0.3727705523
0.3727564945
0.3727429742
0.3727302046
0.3727185959
0.3727096229
0.3728564497
0.3728449552
0.3728307157
0.3728145278
0.3727972576
0.3727796846
0.3727624281
0.3727459304
0.3727304744
0.3727162154
0.3727032206
0.3726915326
0.3726813427
0.3726736998
0.372844118
0.3728262396
0.3728056886
0.372783963
0.3727623146
0.3727416452
0.3727225218
0.3727052385
0.372689891
0.3726764439
0.372664786
0.3726547908
0.3726464484
0.3726403956
0.3728352989
0.3728139087
0.3727905463
0.3727668526
0.3727440189
0.3727228094
0.3727036427
0.3726866834
0.3726719227
0.3726592432
0.3726484699
0.3726394218
0.3726320204
0.372626737
0.3728441184
0.3728262399
0.3728056889
0.3727839636
0.3727623153
0.3727416462
0.3727225229
0.3727052397
0.3726898925
0.3726764456
0.3726647879
0.3726547928
0.3726464507
0.3726403978
0.3728564498
0.3728449555
0.3728307162
0.3728145287
0.3727972589
0.3727796861
0.3727624296
0.3727459325
0.3727304767
0.3727162182
0.3727032237
0.3726915361
0.3726813466
0.372673704
0.372864855
0.3728583625
0.3728497064
0.3728390821
0.3728268519
0.3728134569
0.3727993461
0.37278493
0.3727705545
0.3727564972
0.3727429775
0.3727302084
0.3727186
0.3727096274
0.3728686563
0.3728646121
0.3728588942
0.372851427
0.3728422863
0.3728316698
0.3728198575
0.3728071688
0.3727939286
0.3727804437
0.3727669986
0.372753897
0.3727416776
0.372732064
0.3728692331
0.372864855
0.3728583623
0.372849706
0.3728390815
0.372826851
0.3728134559
0.372799345
0.3727849283
0.3727705525
0.3727564946
0.3727429745
0.3727302047
0.372718596
0.372709623
0.3728562724
0.3728448521
0.3728309092
0.3728152767
0.3727987938
0.3727821693
0.3727659326
0.3727504385
0.3727358979
0.3727224159
0.3727100328
0.3726987836
0.3726888709
0.3726813699
0.372834656
0.3728124277
0.3727882347
0.3727641204
0.3727414898
0.3727211132
0.3727032749
0.3726879444
0.3726749165
0.3726639117
0.372654639
0.3726468478
0.3726404248
0.3726357915
0.372796185
0.3727591688
0.3727239147
0.372693064
0.3726675502
0.3726472658
0.3726315951
0.3726197526
0.3726109648
0.3726045503
0.372599945
0.3725967013
0.3725944839
0.3725931298
0.3727598236
0.3727152411
0.3726773996
0.372647311
0.3726244031
0.3726075352
0.3725954866
0.3725871597
0.3725816414
0.3725782034
0.3725762792
0.3725754289
0.3725752918
0.3725754976
0.3727961861
0.37275917
0.372723916
0.3726930655
0.3726675519
0.3726472677
0.3726315972
0.3726197553
0.3726109675
0.3726045532
0.372599948
0.3725967045
0.3725944871
0.372593133
0.372834657
0.3728124288
0.372788236
0.3727641219
0.3727414918
0.3727211157
0.3727032779
0.3726879477
0.3726749203
0.3726639158
0.3726546435
0.3726468526
0.3726404298
0.3726357968
0.3728562731
0.3728448527
0.37283091
0.3728152777
0.3727987954
0.3727821714
0.372765935
0.3727504414
0.3727359013
0.3727224201
0.3727100374
0.3726987887
0.3726888765
0.372681376
0.372864855
0.3728583625
0.3728497062
0.372839082
0.372826852
0.372813457
0.3727993465
0.3727849306
0.3727705554
0.3727564985
0.3727429787
0.3727302098
0.3727186017
0.3727096294
0.3728647039
0.3728564499
0.3728449556
0.3728307161
0.3728145285
0.3727972583
0.3727796852
0.3727624288
0.3727459311
0.372730475
0.372716216
0.3727032211
0.3726915332
0.3726813433
0.3726737006
0.3728525812
0.3728346565
0.372812428
0.3727882349
0.3727641207
0.3727414901
0.3727211134
0.3727032752
0.3726879448
0.3726749172
0.3726639121
0.3726546394
0.3726468482
0.372640425
0.3726357922
0.3727707138
0.3727237279
0.3726811042
0.3726460788
0.3726193396
0.3726001423
0.3725871518
0.3725789416
0.3725742368
0.372571997
0.3725714212
0.3725719067
0.3725729732
0.3725740827
0.3726282908
0.3725487564
0.3724937229
0.3724610581
0.3724455258
0.372441817
0.3724456344
0.372453856
0.3724643581
0.372475765
0.3724872149
0.3724981542
0.3725080599
0.3725156521
0.3724414163
0.3723620362
0.3723276451
0.3723212274
0.3723305787
0.372347991
0.3723688819
0.3723906348
0.3724118186
0.3724316958
0.3724499208
0.3724663214
0.3724805902
0.3724912657
0.3726282953
0.3725487608
0.3724937271
0.3724610627
0.3724455305
0.3724418219
0.3724456394
0.3724538608
0.372464363
0.3724757698
0.3724872197
0.3724981588
0.3725080646
0.3725156564
0.3727707177
0.3727237311
0.3726811076
0.3726460827
0.372619344
0.3726001474
0.3725871574
0.3725789477
0.3725742431
0.3725720037
0.3725714282
0.3725719138
0.3725729802
0.37257409
0.3728346569
0.3728124288
0.3727882362
0.3727641227
0.3727414928
0.3727211171
0.3727032795
0.3726879497
0.3726749226
0.3726639184
0.372654646
0.3726468555
0.3726404329
0.3726358
0.3728564497
0.3728449556
0.3728307166
0.3728145293
0.3727972597
0.3727796873
0.3727624317
0.3727459349
0.3727304799
0.3727162215
0.3727032274
0.3726915404
0.3726813511
0.3726737091
0.3728578927
0.372844119
0.3728262404
0.3728056895
0.3727839641
0.3727623155
0.3727416462
0.3727225228
0.3727052395
0.3726898922
0.3726764451
0.3726647872
0.3726547919
0.3726464495
0.3726403965
0.3728301845
0.3727961864
0.3727591702
0.3727239159
0.3726930654
0.3726675514
0.3726472669
0.3726315963
0.3726197538
0.372610966
0.3726045512
0.372599946
0.3725967023
0.3725944849
0.3725931306
0.3727251103
0.3726282931
0.372548758
0.3724937243
0.3724610596
0.372445527
0.3724418183
0.3724456356
0.3724538568
0.3724643592
0.3724757658
0.3724872158
0.3724981549
0.3725080606
0.3725156525
0.372139312
0.3720384347
0.372020949
0.3720488512
0.3720971559
0.3721517045
0.3722052861
0.3722546622
0.3722986987
0.3723372968
0.3723708046
0.3723996548
0.3724238996
0.3724416162
0.3711776253
0.3713008889
0.3714922701
0.3716763986
0.3718331709
0.371961232
0.3720646284
0.3721482009
0.3722161927
0.3722719762
0.3723181177
0.3723564571
0.3723878613
0.3724104394
0.372139331
0.372038448
0.3720209602
0.372048862
0.3720971658
0.3721517136
0.3722052948
0.3722546705
0.3722987066
0.3723373041
0.3723708113
0.372399661
0.3724239054
0.372441622
0.3726282946
0.3725487617
0.3724937297
0.3724610667
0.3724455354
0.3724418273
0.3724456451
0.3724538666
0.3724643689
0.3724757757
0.3724872253
0.3724981643
0.37250807
0.372515662
0.3727961856
0.3727591704
0.3727239178
0.3726930683
0.3726675558
0.3726472724
0.3726316027
0.3726197613
0.3726109742
0.3726045601
0.3725999553
0.3725967119
0.3725944948
0.3725931407
0.3728441182
0.3728262401
0.3728056899
0.3727839651
0.3727623178
0.3727416498
0.3727225273
0.372705245
0.3726898986
0.3726764525
0.3726647955
0.3726548009
0.3726464592
0.372640407
0.3728527731
0.3728353
0.3728139101
0.3727905477
0.3727668541
0.3727440206
0.3727228111
0.3727036444
0.3726866851
0.3726719245
0.372659245
0.3726484718
0.3726394237
0.3726320221
0.3726267384
0.3728067601
0.3727598255
0.3727152435
0.372677402
0.3726473136
0.3726244055
0.3726075376
0.372595489
0.3725871619
0.3725816434
0.3725782054
0.3725762811
0.3725754305
0.3725752932
0.372575499
0.3725817358
0.37244142
0.3723620411
0.3723276498
0.3723212313
0.3723305825
0.3723479942
0.3723688845
0.3723906373
0.3724118209
0.3724316976
0.3724499225
0.3724663229
0.3724805919
0.3724912673
0.3713503458
0.3711776413
0.3713009
0.3714922778
0.3716764042
0.3718331749
0.3719612353
0.3720646311
0.3721482031
0.3722161945
0.3722719777
0.3723181191
0.3723564585
0.3723878625
0.3724104407
0.3670148503
0.369124148
0.3702938226
0.370979585
0.3714048248
0.3716832013
0.3718747789
0.3720125726
0.3721154719
0.372194727
0.372257288
0.3723075001
0.3723476164
0.3723760213
0.371177624
0.3713009083
0.3714922926
0.3716764198
0.3718331895
0.3719612484
0.3720646427
0.3721482137
0.3722162042
0.3722719864
0.3723181272
0.372356466
0.3723878694
0.3724104471
0.3724414143
0.3723620425
0.3723276561
0.3723212406
0.3723305935
0.3723480061
0.3723688966
0.3723906495
0.3724118328
0.3724317094
0.3724499336
0.3724663339
0.3724806023
0.3724912775
0.3727598232
0.3727152428
0.3726774035
0.3726473173
0.3726244111
0.3726075443
0.3725954969
0.3725871708
0.372581653
0.3725782154
0.3725762916
0.3725754413
0.3725753041
0.3725755099
0.3728352987
0.3728139093
0.3727905477
0.3727668553
0.3727440233
0.3727228151
0.3727036498
0.3726866916
0.3726719322
0.3726592537
0.3726484813
0.3726394339
0.3726320329
0.3726267498
0.3728578927
0.3728441191
0.3728262409
0.3728056903
0.3727839652
0.372762317
0.3727416479
0.3727225247
0.3727052417
0.3726898947
0.3726764478
0.3726647901
0.372654795
0.3726464527
0.3726404001
0.3728301854
0.3727961879
0.3727591723
0.3727239185
0.3726930683
0.3726675548
0.3726472705
0.3726315999
0.3726197576
0.37261097
0.3726045553
0.3725999504
0.3725967067
0.3725944892
0.3725931352
0.3727251181
0.3726283008
0.3725487664
0.3724937328
0.3724610678
0.3724455352
0.3724418261
0.372445643
0.3724538639
0.3724643661
0.3724757724
0.3724872222
0.3724981613
0.3725080667
0.3725156587
0.372364108
0.3721393455
0.3720384607
0.3720209704
0.3720488699
0.3720971722
0.3721517189
0.3722052992
0.372254674
0.3722987095
0.3723373068
0.3723708137
0.3723996634
0.3724239077
0.3724416242
0.3713503499
0.3711776479
0.3713009234
0.3714923023
0.3716764262
0.3718331941
0.3719612521
0.3720646457
0.3721482161
0.3722162061
0.3722719879
0.3723181285
0.372356467
0.3723878704
0.372410448
0.3723641026
0.3721393463
0.3720384667
0.3720209793
0.37204888
0.3720971826
0.3721517291
0.372205309
0.3722546831
0.3722987179
0.3723373147
0.3723708211
0.3723996702
0.3724239142
0.3724416306
0.37262829
0.3725487636
0.3724937351
0.3724610737
0.3724455435
0.3724418355
0.3724456535
0.3724538748
0.3724643767
0.3724757831
0.3724872324
0.3724981714
0.3725080767
0.3725156686
0.372796184
0.3727591702
0.3727239186
0.3726930706
0.3726675591
0.3726472763
0.372631607
0.3726197658
0.3726109788
0.3726045648
0.37259996
0.3725967169
0.3725944999
0.3725931458
0.3728441178
0.3728262397
0.3728056899
0.3727839659
0.372762319
0.3727416512
0.3727225295
0.3727052476
0.3726899018
0.3726764561
0.372664799
0.3726548047
0.3726464632
0.372640411
0.372864704
0.3728564503
0.3728449562
0.3728307172
0.3728145299
0.37279726
0.3727796875
0.3727624314
0.3727459341
0.3727304787
0.3727162202
0.3727032257
0.3726915383
0.3726813484
0.3726737058
0.3728525827
0.3728346583
0.3728124303
0.3727882378
0.3727641241
0.3727414939
0.3727211181
0.3727032803
0.3726879503
0.3726749229
0.3726639181
0.3726546459
0.3726468549
0.3726404321
0.3726357989
0.3728154392
0.3727707208
0.3727237348
0.3726811115
0.3726460866
0.3726193479
0.372600151
0.3725871609
0.3725789511
0.3725742463
0.3725720064
0.3725714308
0.3725719163
0.3725729829
0.3725740924
0.3727251181
0.3726283022
0.3725487696
0.3724937376
0.3724610735
0.3724455413
0.3724418326
0.3724456498
0.3724538708
0.3724643723
0.3724757786
0.3724872281
0.3724981672
0.3725080724
0.3725156644
0.3725817364
0.3724414271
0.3723620536
0.3723276656
0.3723212484
0.3723305999
0.3723480113
0.3723689009
0.3723906531
0.3724118358
0.372431712
0.372449936
0.3724663359
0.3724806044
0.3724912795
0.3727251186
0.3726283035
0.3725487724
0.3724937414
0.3724610784
0.3724455469
0.3724418384
0.3724456558
0.3724538766
0.3724643784
0.3724757845
0.3724872337
0.3724981725
0.3725080777
0.3725156695
0.3728154365
0.3727707185
0.3727237343
0.3726811129
0.3726460899
0.3726193526
0.3726001569
0.3725871678
0.3725789586
0.372574254
0.3725720144
0.3725714388
0.3725719244
0.3725729911
0.3725741006
0.3728346556
0.3728124289
0.3727882376
0.372764125
0.3727414965
0.3727211218
0.3727032854
0.3726879561
0.3726749292
0.3726639255
0.3726546537
0.3726468634
0.3726404411
0.3726358084
0.3728564492
0.3728449554
0.3728307168
0.3728145302
0.3727972613
0.3727796897
0.3727624348
0.3727459386
0.3727304843
0.3727162265
0.3727032333
0.3726915465
0.3726813576
0.3726737158
0.3728692331
0.3728648551
0.3728583627
0.3728497069
0.3728390828
0.372826853
0.3728134581
0.3727993475
0.3727849313
0.3727705562
0.3727564991
0.3727429794
0.3727302104
0.372718602
0.3727096294
0.3728645838
0.3728562738
0.3728448535
0.3728309111
0.3728152791
0.3727987969
0.372782173
0.3727659369
0.3727504433
0.3727359033
0.3727224222
0.3727100395
0.3726987908
0.3726888786
0.3726813782
0.3728525826
0.3728346582
0.3728124307
0.3727882387
0.3727641254
0.3727414955
0.3727211199
0.3727032826
0.3726879527
0.3726749254
0.372663921
0.3726546487
0.372646858
0.3726404354
0.3726358026
0.3728301855
0.3727961885
0.3727591741
0.3727239215
0.3726930723
0.37266756
0.3726472764
0.3726316065
0.3726197648
0.3726109774
0.372604563
0.3725999581
0.3725967147
0.3725944972
0.3725931432
0.3728067601
0.3727598276
0.3727152477
0.3726774085
0.3726473223
0.3726244156
0.3726075485
0.3725955006
0.3725871741
0.3725816561
0.3725782185
0.3725762943
0.3725754438
0.3725753064
0.3725755119
0.3728301857
0.3727961893
0.3727591752
0.3727239233
0.3726930745
0.3726675624
0.3726472795
0.3726316097
0.3726197684
0.3726109812
0.3726045669
0.3725999621
0.3725967186
0.3725945012
0.3725931471
0.3728525822
0.3728346582
0.372812431
0.3727882394
0.3727641269
0.3727414979
0.3727211231
0.3727032864
0.3726879572
0.3726749303
0.3726639263
0.3726546547
0.3726468642
0.3726404417
0.372635809
0.3728645831
0.3728562731
0.3728448529
0.3728309108
0.3728152795
0.3727987981
0.3727821751
0.3727659399
0.3727504472
0.3727359081
0.3727224273
0.3727100456
0.3726987976
0.3726888858
0.3726813858
0.3728648545
0.3728583623
0.3728497063
0.3728390828
0.3728268534
0.3728134591
0.3727993495
0.3727849344
0.3727705601
0.3727565038
0.3727429849
0.3727302167
0.3727186092
0.3727096376
0.3728712541
0.3728686563
0.3728646122
0.3728588945
0.3728514274
0.3728422869
0.3728316706
0.3728198584
0.3728071699
0.3727939299
0.3727804453
0.3727670003
0.3727538986
0.3727416794
0.3727320659
0.3728692331
0.3728648552
0.3728583628
0.3728497069
0.372839083
0.3728268531
0.3728134585
0.3727993483
0.3727849321
0.3727705571
0.3727565002
0.3727429806
0.3727302119
0.3727186037
0.3727096315
0.3728647039
0.3728564504
0.3728449567
0.3728307179
0.3728145309
0.3727972615
0.3727796893
0.3727624337
0.3727459371
0.3727304821
0.3727162239
0.37270323
0.3726915426
0.3726813533
0.3726737111
0.3728578928
0.3728441196
0.3728262418
0.372805692
0.3727839676
0.3727623204
0.3727416523
0.3727225301
0.372705248
0.3726899017
0.3726764554
0.3726647984
0.3726548036
0.3726464619
0.3726404096
0.3728527732
0.3728353006
0.3728139117
0.3727905506
0.3727668584
0.3727440264
0.3727228183
0.3727036528
0.3726866947
0.372671935
0.3726592564
0.372648484
0.3726394364
0.3726320354
0.3726267524
0.3728578929
0.3728441198
0.3728262422
0.3728056927
0.3727839687
0.3727623218
0.372741654
0.372722532
0.3727052502
0.3726899041
0.3726764581
0.3726648013
0.3726548067
0.372646465
0.372640413
0.372864704
0.3728564505
0.3728449569
0.3728307183
0.3728145317
0.3727972629
0.3727796914
0.3727624362
0.3727459401
0.3727304857
0.3727162278
0.3727032344
0.3726915476
0.3726813587
0.3726737168
0.3728692329
0.3728648551
0.3728583628
0.3728497069
0.3728390831
0.3728268538
0.3728134598
0.3727993501
0.3727849349
0.3727705607
0.3727565043
0.3727429856
0.3727302174
0.37271861
0.372709638
0.3728712536
0.3728686559
0.3728646119
0.3728588942
0.3728514275
0.3728422871
0.3728316714
0.3728198599
0.3728071723
0.372793933
0.3727804491
0.372767005
0.3727539043
0.3727416858
0.3727320729
)
;

boundaryField
{
    top
    {
        type            calculated;
        value           nonuniform List<scalar> 
127
(
0.3728712536
0.3728686563
0.372864855
0.3728564497
0.3728441182
0.3728352987
0.3728441178
0.3728564492
0.3728648545
0.3728686559
0.3728646121
0.3728583625
0.3728449556
0.3728262401
0.3728139093
0.3728262397
0.3728449554
0.3728583623
0.3728646119
0.3728588942
0.3728497062
0.3728307166
0.3728056899
0.3727905477
0.3728056899
0.3728307168
0.3728497063
0.3728588942
0.372851427
0.372839082
0.3728145293
0.3727839651
0.3727668553
0.3727839659
0.3728145302
0.3728390828
0.3728514275
0.3728422863
0.372826852
0.3727972597
0.3727623178
0.3727440233
0.372762319
0.3727972613
0.3728268534
0.3728422871
0.3728316698
0.372813457
0.3727796873
0.3727416498
0.3727228151
0.3727416512
0.3727796897
0.3728134591
0.3728316714
0.3728198575
0.3727993465
0.3727624317
0.3727225273
0.3727036498
0.3727225295
0.3727624348
0.3727993495
0.3728198599
0.3728071688
0.3727849306
0.3727459349
0.372705245
0.3726866916
0.3727052476
0.3727459386
0.3727849344
0.3728071723
0.3727939286
0.3727705554
0.3727304799
0.3726898986
0.3726719322
0.3726899018
0.3727304843
0.3727705601
0.372793933
0.3727804437
0.3727564985
0.3727162215
0.3726764525
0.3726592537
0.3726764561
0.3727162265
0.3727565038
0.3727804491
0.3727669986
0.3727429787
0.3727032274
0.3726647955
0.3726484813
0.372664799
0.3727032333
0.3727429849
0.372767005
0.372753897
0.3727302098
0.3726915404
0.3726548009
0.3726394339
0.3726548047
0.3726915465
0.3727302167
0.3727539043
0.3727416776
0.3727186017
0.3726813511
0.3726464592
0.3726320329
0.3726464632
0.3726813576
0.3727186092
0.3727416858
0.372732064
0.3727096294
0.3726737091
0.372640407
0.3726267498
0.372640411
0.3726737158
0.3727096376
0.3727320729
)
;
    }
    bottom
    {
        type            calculated;
        value           nonuniform List<scalar> 
134
(
0.3728692331
0.3728647039
0.3728578927
0.3728527731
0.3728578927
0.372864704
0.3728692331
0.3728712541
0.3728686561
0.372864855
0.3728564499
0.372844119
0.3728353
0.3728441191
0.3728564503
0.3728648551
0.3728686563
0.3728646117
0.3728583623
0.3728449556
0.3728262404
0.3728139101
0.3728262409
0.3728449562
0.3728583627
0.3728646122
0.3728588939
0.372849706
0.3728307161
0.3728056895
0.3727905477
0.3728056903
0.3728307172
0.3728497069
0.3728588945
0.3728514266
0.3728390815
0.3728145285
0.3727839641
0.3727668541
0.3727839652
0.3728145299
0.3728390828
0.3728514274
0.3728422856
0.372826851
0.3727972583
0.3727623155
0.3727440206
0.372762317
0.37279726
0.372826853
0.3728422869
0.3728316689
0.3728134559
0.3727796852
0.3727416462
0.3727228111
0.3727416479
0.3727796875
0.3728134581
0.3728316706
0.3728198564
0.372799345
0.3727624288
0.3727225228
0.3727036444
0.3727225247
0.3727624314
0.3727993475
0.3728198584
0.3728071674
0.3727849283
0.3727459311
0.3727052395
0.3726866851
0.3727052417
0.3727459341
0.3727849313
0.3728071699
0.3727939268
0.3727705525
0.372730475
0.3726898922
0.3726719245
0.3726898947
0.3727304787
0.3727705562
0.3727939299
0.3727804413
0.3727564946
0.372716216
0.3726764451
0.372659245
0.3726764478
0.3727162202
0.3727564991
0.3727804453
0.3727669955
0.3727429745
0.3727032211
0.3726647872
0.3726484718
0.3726647901
0.3727032257
0.3727429794
0.3727670003
0.3727538931
0.3727302047
0.3726915332
0.3726547919
0.3726394237
0.372654795
0.3726915383
0.3727302104
0.3727538986
0.3727416733
0.372718596
0.3726813433
0.3726464495
0.3726320221
0.3726464527
0.3726813484
0.372718602
0.3727416794
0.3727320592
0.372709623
0.3726737006
0.3726403965
0.3726267384
0.3726404001
0.3726737058
0.3727096294
0.3727320659
)
;
    }
    side-walls
    {
        type            calculated;
        value           nonuniform List<scalar> 
261
(
0.3728686561
0.3728648546
0.3728564497
0.372844118
0.3728352989
0.3728441184
0.3728564498
0.372864855
0.3728686563
0.3728646117
0.3728583621
0.3728449552
0.3728262396
0.3728139087
0.3728262399
0.3728449555
0.3728583625
0.3728646121
0.3728588939
0.3728497057
0.3728307157
0.3728056886
0.3727905463
0.3728056889
0.3728307162
0.3728497064
0.3728588942
0.3728514266
0.3728390811
0.3728145278
0.372783963
0.3727668526
0.3727839636
0.3728145287
0.3728390821
0.372851427
0.3728422856
0.3728268508
0.3727972576
0.3727623146
0.3727440189
0.3727623153
0.3727972589
0.3728268519
0.3728422863
0.3728316689
0.3728134554
0.3727796846
0.3727416452
0.3727228094
0.3727416462
0.3727796861
0.3728134569
0.3728316698
0.3728198564
0.3727993446
0.3727624281
0.3727225218
0.3727036427
0.3727225229
0.3727624296
0.3727993461
0.3728198575
0.3728071674
0.372784928
0.3727459304
0.3727052385
0.3726866834
0.3727052397
0.3727459325
0.37278493
0.3728071688
0.3727939268
0.3727705523
0.3727304744
0.372689891
0.3726719227
0.3726898925
0.3727304767
0.3727705545
0.3727939286
0.3727804413
0.3727564945
0.3727162154
0.3726764439
0.3726592432
0.3726764456
0.3727162182
0.3727564972
0.3727804437
0.3727669955
0.3727429742
0.3727032206
0.372664786
0.3726484699
0.3726647879
0.3727032237
0.3727429775
0.3727669986
0.3727538931
0.3727302046
0.3726915326
0.3726547908
0.3726394218
0.3726547928
0.3726915361
0.3727302084
0.372753897
0.3727416733
0.3727185959
0.3726813427
0.3726464484
0.3726320204
0.3726464507
0.3726813466
0.3727186
0.3727416776
0.3727320592
0.3727096229
0.3726736998
0.3726403956
0.372626737
0.3726403978
0.372673704
0.3727096274
0.372732064
0.3728712541
0.3728692331
0.3728647039
0.3728578928
0.3728527732
0.3728578929
0.372864704
0.3728692329
0.3728712536
0.3728686563
0.3728648552
0.3728564504
0.3728441196
0.3728353006
0.3728441198
0.3728564505
0.3728648551
0.3728686559
0.3728646122
0.3728583628
0.3728449567
0.3728262418
0.3728139117
0.3728262422
0.3728449569
0.3728583628
0.3728646119
0.3728588945
0.3728497069
0.3728307179
0.372805692
0.3727905506
0.3728056927
0.3728307183
0.3728497069
0.3728588942
0.3728514274
0.372839083
0.3728145309
0.3727839676
0.3727668584
0.3727839687
0.3728145317
0.3728390831
0.3728514275
0.3728422869
0.3728268531
0.3727972615
0.3727623204
0.3727440264
0.3727623218
0.3727972629
0.3728268538
0.3728422871
0.3728316706
0.3728134585
0.3727796893
0.3727416523
0.3727228183
0.372741654
0.3727796914
0.3728134598
0.3728316714
0.3728198584
0.3727993483
0.3727624337
0.3727225301
0.3727036528
0.372722532
0.3727624362
0.3727993501
0.3728198599
0.3728071699
0.3727849321
0.3727459371
0.372705248
0.3726866947
0.3727052502
0.3727459401
0.3727849349
0.3728071723
0.3727939299
0.3727705571
0.3727304821
0.3726899017
0.372671935
0.3726899041
0.3727304857
0.3727705607
0.372793933
0.3727804453
0.3727565002
0.3727162239
0.3726764554
0.3726592564
0.3726764581
0.3727162278
0.3727565043
0.3727804491
0.3727670003
0.3727429806
0.37270323
0.3726647984
0.372648484
0.3726648013
0.3727032344
0.3727429856
0.372767005
0.3727538986
0.3727302119
0.3726915426
0.3726548036
0.3726394364
0.3726548067
0.3726915476
0.3727302174
0.3727539043
0.3727416794
0.3727186037
0.3726813533
0.3726464619
0.3726320354
0.372646465
0.3726813587
0.37271861
0.3727416858
0.3727320659
0.3727096315
0.3726737111
0.3726404096
0.3726267524
0.372640413
0.3726737168
0.372709638
0.3727320729
)
;
    }
    inlet
    {
        type            calculated;
        value           nonuniform 0();
    }
    outlet
    {
        type            calculated;
        value           nonuniform List<scalar> 
81
(
0.3727320592
0.3727096229
0.3726736998
0.3726403956
0.372626737
0.3726403978
0.372673704
0.3727096274
0.372732064
0.372709623
0.3726813699
0.3726357915
0.3725931298
0.3725754976
0.372593133
0.3726357968
0.372681376
0.3727096294
0.3726737006
0.3726357922
0.3725740827
0.3725156521
0.3724912657
0.3725156564
0.37257409
0.3726358
0.3726737091
0.3726403965
0.3725931306
0.3725156525
0.3724416162
0.3724104394
0.372441622
0.372515662
0.3725931407
0.372640407
0.3726267384
0.372575499
0.3724912673
0.3724104407
0.3723760213
0.3724104471
0.3724912775
0.3725755099
0.3726267498
0.3726404001
0.3725931352
0.3725156587
0.3724416242
0.372410448
0.3724416306
0.3725156686
0.3725931458
0.372640411
0.3726737058
0.3726357989
0.3725740924
0.3725156644
0.3724912795
0.3725156695
0.3725741006
0.3726358084
0.3726737158
0.3727096294
0.3726813782
0.3726358026
0.3725931432
0.3725755119
0.3725931471
0.372635809
0.3726813858
0.3727096376
0.3727320659
0.3727096315
0.3726737111
0.3726404096
0.3726267524
0.372640413
0.3726737168
0.372709638
0.3727320729
)
;
    }
    procBoundary1to0
    {
        type            processor;
        value           nonuniform List<scalar> 
97
(
0.372871254
0.372871254
0.3728692331
0.3728647042
0.3728578933
0.3728527742
0.3728578935
0.3728647045
0.3728692335
0.3728712542
0.3728718181
0.3728645834
0.3728645834
0.3728645834
0.3728525827
0.3728301871
0.372806764
0.3728301879
0.3728525836
0.3728645842
0.3728692334
0.3728697698
0.3728644601
0.3728154367
0.3728154367
0.3728154367
0.3727251215
0.3725817556
0.3727251268
0.3728154423
0.3728525835
0.3728647045
0.3728667653
0.3728550883
0.3728142024
0.3723640968
0.3723640968
0.3723640968
0.3713504683
0.3723641374
0.372725126
0.3728301877
0.3728578933
0.3728646167
0.3728462337
0.3727687239
0.3724615993
0.3629934985
0.3629934985
0.3629934985
0.3713504587
0.3713504587
0.3725817526
0.3728067635
0.3728527741
0.3728667651
0.3728550883
0.3728142016
0.3726952161
0.3724615944
0.3726952192
0.372725113
0.372725113
0.372725113
0.3728301855
0.3728578931
0.3728697696
0.3728644599
0.3728488844
0.3728142016
0.3727687231
0.3728142022
0.3728488845
0.3728525812
0.3728525812
0.3728525812
0.3728647038
0.3728718178
0.3728697267
0.3728644598
0.3728550881
0.3728462332
0.3728550883
0.3728644598
0.3728697265
0.3728692327
0.3728692327
0.3728692327
0.3728727442
0.3728718179
0.3728697693
0.372866765
0.3728646166
0.3728667651
0.3728697696
0.3728718177
0.372872744
)
;
    }
}


// ************************************************************************* //
