/*--------------------------------*- C++ -*----------------------------------*\
| =========                 |                                                 |
| \\      /  F ield         | OpenFOAM: The Open Source CFD Toolbox           |
|  \\    /   O peration     | Version:  4.x                                   |
|   \\  /    A nd           | Web:      www.OpenFOAM.org                      |
|    \\/     M anipulation  |                                                 |
\*---------------------------------------------------------------------------*/
FoamFile
{
    version     2.0;
    format      ascii;
    class       volScalarField;
    location    "5000";
    object      CO;
}
// * * * * * * * * * * * * * * * * * * * * * * * * * * * * * * * * * * * * * //

dimensions      [0 0 0 0 0 0 0];

internalField   nonuniform List<scalar> 
1175
(
0.3315827251
0.3315827251
0.3315827251
0.3315827251
0.3315827251
0.331582725
0.3315827247
0.3315827236
0.3315827202
0.33158271
0.331582681
0.3315826043
0.3315824173
0.3315820051
0.3315811953
0.3315827251
0.3315827251
0.3315827251
0.3315827251
0.3315827251
0.3315827249
0.3315827245
0.331582723
0.3315827181
0.3315827027
0.3315826572
0.3315825318
0.3315822157
0.3315815034
0.331580104
0.3315827251
0.3315827251
0.3315827251
0.3315827251
0.3315827251
0.3315827249
0.3315827242
0.331582722
0.3315827142
0.3315826888
0.3315826099
0.3315823823
0.3315817841
0.3315803966
0.3315776642
0.3315827251
0.3315827251
0.3315827251
0.3315827251
0.331582725
0.3315827248
0.3315827239
0.3315827208
0.3315827098
0.3315826723
0.3315825513
0.3315821859
0.3315811833
0.3315787777
0.3315740059
0.3315827251
0.3315827251
0.3315827251
0.3315827251
0.331582725
0.3315827248
0.3315827238
0.3315827203
0.3315827077
0.3315826638
0.3315825185
0.3315820674
0.3315807889
0.331577624
0.3315712666
0.3315827251
0.3315827251
0.3315827251
0.3315827251
0.331582725
0.3315827248
0.3315827239
0.3315827208
0.3315827098
0.3315826723
0.3315825513
0.3315821859
0.3315811834
0.3315787778
0.331574006
0.3315827251
0.3315827251
0.3315827251
0.3315827251
0.3315827251
0.3315827249
0.3315827242
0.331582722
0.3315827142
0.3315826888
0.3315826099
0.3315823823
0.3315817841
0.3315803966
0.3315776642
0.3315827251
0.3315827251
0.3315827251
0.3315827251
0.3315827251
0.3315827249
0.3315827245
0.331582723
0.3315827181
0.3315827027
0.3315826572
0.3315825318
0.3315822157
0.3315815034
0.3315801041
0.3315827251
0.3315827251
0.3315827251
0.3315827251
0.3315827251
0.331582725
0.3315827247
0.3315827236
0.3315827202
0.33158271
0.331582681
0.3315826043
0.3315824173
0.3315820051
0.3315811953
0.3315827251
0.3315827251
0.3315827251
0.3315827251
0.3315827251
0.3315827249
0.3315827245
0.331582723
0.3315827181
0.3315827027
0.3315826572
0.3315825318
0.3315822157
0.3315815034
0.3315827251
0.3315827251
0.3315827251
0.3315827251
0.3315827251
0.3315827249
0.3315827243
0.3315827221
0.3315827145
0.3315826895
0.3315826114
0.331582384
0.3315817813
0.3315803746
0.3315776019
0.3315827251
0.3315827251
0.3315827251
0.3315827251
0.331582725
0.3315827248
0.3315827238
0.3315827203
0.3315827075
0.3315826626
0.3315825133
0.3315820494
0.3315807414
0.3315775389
0.3315711608
0.3315827251
0.3315827251
0.3315827251
0.3315827251
0.331582725
0.3315827247
0.3315827234
0.3315827183
0.331582699
0.3315826281
0.3315823775
0.3315815467
0.3315790391
0.331572509
0.3315591805
0.3315827251
0.3315827251
0.3315827251
0.3315827251
0.331582725
0.3315827246
0.3315827231
0.3315827173
0.3315826945
0.331582608
0.3315822904
0.3315811847
0.3315776406
0.3315677734
0.3315467014
0.3315827251
0.3315827251
0.3315827251
0.3315827251
0.331582725
0.3315827247
0.3315827234
0.3315827183
0.331582699
0.3315826281
0.3315823775
0.3315815467
0.3315790392
0.3315725091
0.3315591806
0.3315827251
0.3315827251
0.3315827251
0.3315827251
0.331582725
0.3315827248
0.3315827238
0.3315827203
0.3315827075
0.3315826626
0.3315825133
0.3315820494
0.3315807414
0.331577539
0.331571161
0.3315827251
0.3315827251
0.3315827251
0.3315827251
0.3315827251
0.3315827249
0.3315827243
0.3315827221
0.3315827145
0.3315826895
0.3315826114
0.331582384
0.3315817813
0.3315803746
0.3315776021
0.3315827251
0.3315827251
0.3315827251
0.3315827251
0.3315827251
0.3315827249
0.3315827245
0.331582723
0.3315827181
0.3315827027
0.3315826572
0.3315825318
0.3315822157
0.3315815034
0.3315801041
0.3315827251
0.3315827251
0.3315827251
0.3315827251
0.3315827251
0.3315827249
0.3315827242
0.331582722
0.3315827142
0.3315826888
0.3315826099
0.3315823823
0.3315817841
0.3315803965
0.3315827251
0.3315827251
0.3315827251
0.3315827251
0.331582725
0.3315827248
0.3315827238
0.3315827203
0.3315827075
0.3315826626
0.3315825133
0.3315820494
0.3315807414
0.3315775388
0.3315827251
0.3315827251
0.3315827251
0.3315827251
0.331582725
0.3315827246
0.3315827231
0.331582717
0.3315826936
0.3315826055
0.3315822878
0.3315812123
0.3315779066
0.3315691791
0.3315512908
0.3315827251
0.3315827251
0.3315827251
0.3315827251
0.331582725
0.3315827244
0.3315827222
0.3315827131
0.3315826756
0.3315825246
0.3315819357
0.3315797539
0.3315723356
0.3315506243
0.3315031414
0.3315827251
0.3315827251
0.3315827251
0.3315827251
0.3315827249
0.3315827243
0.3315827218
0.331582711
0.331582665
0.3315824714
0.3315816709
0.3315784675
0.3315664171
0.3315263773
0.3314270194
0.3315827251
0.3315827251
0.3315827251
0.3315827251
0.331582725
0.3315827244
0.3315827222
0.3315827131
0.3315826756
0.3315825246
0.3315819357
0.3315797539
0.3315723357
0.3315506247
0.3315031425
0.3315827251
0.3315827251
0.3315827251
0.3315827251
0.331582725
0.3315827246
0.3315827231
0.331582717
0.3315826936
0.3315826055
0.3315822878
0.3315812124
0.3315779067
0.3315691795
0.3315512919
0.3315827251
0.3315827251
0.3315827251
0.3315827251
0.331582725
0.3315827248
0.3315827238
0.3315827203
0.3315827075
0.3315826626
0.3315825133
0.3315820494
0.3315807414
0.331577539
0.331571161
0.3315827251
0.3315827251
0.3315827251
0.3315827251
0.3315827251
0.3315827249
0.3315827242
0.331582722
0.3315827142
0.3315826888
0.3315826099
0.3315823823
0.3315817841
0.3315803966
0.3315776642
0.3315827251
0.3315827251
0.3315827251
0.3315827251
0.331582725
0.3315827248
0.3315827239
0.3315827208
0.3315827098
0.3315826723
0.3315825513
0.3315821859
0.3315811833
0.3315787776
0.3315827251
0.3315827251
0.3315827251
0.3315827251
0.331582725
0.3315827247
0.3315827234
0.3315827183
0.331582699
0.3315826281
0.3315823775
0.3315815467
0.3315790391
0.3315725087
0.3315827251
0.3315827251
0.3315827251
0.3315827251
0.331582725
0.3315827244
0.3315827222
0.3315827131
0.3315826756
0.3315825246
0.3315819357
0.3315797539
0.3315723354
0.3315506234
0.3315827251
0.3315827251
0.3315827251
0.3315827251
0.3315827249
0.3315827242
0.3315827209
0.3315827064
0.3315826427
0.3315823632
0.3315811545
0.3315760891
0.3315561494
0.3314871433
0.3313112696
0.3315827251
0.3315827251
0.3315827251
0.3315827251
0.3315827249
0.331582724
0.3315827202
0.3315827026
0.3315826213
0.3315822417
0.3315804536
0.3315720178
0.3315328926
0.3313629077
0.3307746909
0.3315827251
0.3315827251
0.3315827251
0.3315827251
0.3315827249
0.3315827242
0.3315827209
0.3315827064
0.3315826427
0.3315823632
0.3315811545
0.3315760892
0.3315561497
0.331487145
0.3313112767
0.3315827251
0.3315827251
0.3315827251
0.3315827251
0.331582725
0.3315827244
0.3315827222
0.3315827131
0.3315826756
0.3315825246
0.3315819357
0.3315797539
0.3315723357
0.3315506246
0.3315031424
0.3315827251
0.3315827251
0.3315827251
0.3315827251
0.331582725
0.3315827247
0.3315827234
0.3315827183
0.331582699
0.3315826281
0.3315823775
0.3315815467
0.3315790391
0.331572509
0.3315591806
0.3315827251
0.3315827251
0.3315827251
0.3315827251
0.331582725
0.3315827248
0.3315827239
0.3315827208
0.3315827098
0.3315826723
0.3315825513
0.3315821859
0.3315811833
0.3315787777
0.331574006
0.3315827251
0.3315827251
0.3315827251
0.3315827251
0.331582725
0.3315827248
0.3315827238
0.3315827203
0.3315827077
0.3315826638
0.3315825185
0.3315820674
0.3315807888
0.3315776239
0.3315827251
0.3315827251
0.3315827251
0.3315827251
0.331582725
0.3315827246
0.3315827231
0.3315827173
0.3315826945
0.331582608
0.3315822904
0.3315811846
0.3315776405
0.3315677728
0.3315827251
0.3315827251
0.3315827251
0.3315827251
0.3315827249
0.3315827243
0.3315827218
0.331582711
0.331582665
0.3315824714
0.3315816709
0.3315784674
0.3315664166
0.3315263751
0.3315827251
0.3315827251
0.3315827251
0.3315827251
0.3315827249
0.331582724
0.3315827202
0.3315827026
0.3315826213
0.3315822417
0.3315804536
0.3315720176
0.3315328913
0.3313628995
0.3315827251
0.3315827251
0.3315827251
0.3315827251
0.3315827248
0.3315827239
0.3315827193
0.3315826974
0.3315825904
0.3315820472
0.3315791589
0.3315628978
0.3314649994
0.330830603
0.3263824802
0.3315827251
0.3315827251
0.3315827251
0.3315827251
0.3315827249
0.331582724
0.3315827202
0.3315827026
0.3315826213
0.3315822417
0.3315804536
0.3315720177
0.3315328922
0.3313629063
0.3307746883
0.3315827251
0.3315827251
0.3315827251
0.3315827251
0.3315827249
0.3315827243
0.3315827218
0.331582711
0.331582665
0.3315824714
0.3315816709
0.3315784674
0.331566417
0.331526377
0.3314270189
0.3315827251
0.3315827251
0.3315827251
0.3315827251
0.331582725
0.3315827246
0.3315827231
0.3315827173
0.3315826945
0.331582608
0.3315822904
0.3315811847
0.3315776406
0.3315677733
0.3315467014
0.3315827251
0.3315827251
0.3315827251
0.3315827251
0.331582725
0.3315827248
0.3315827238
0.3315827203
0.3315827077
0.3315826638
0.3315825185
0.3315820674
0.3315807889
0.331577624
0.3315712666
0.3315827251
0.3315827251
0.3315827251
0.3315827251
0.331582725
0.3315827248
0.3315827239
0.3315827208
0.3315827098
0.3315826723
0.3315825513
0.3315821859
0.3315811833
0.3315787776
0.3315827251
0.3315827251
0.3315827251
0.3315827251
0.331582725
0.3315827247
0.3315827234
0.3315827183
0.331582699
0.3315826281
0.3315823775
0.3315815467
0.331579039
0.3315725087
0.3315827251
0.3315827251
0.3315827251
0.3315827251
0.331582725
0.3315827244
0.3315827222
0.3315827131
0.3315826756
0.3315825246
0.3315819357
0.3315797538
0.3315723354
0.3315506234
0.3315827251
0.3315827251
0.3315827251
0.3315827251
0.3315827249
0.3315827242
0.3315827209
0.3315827064
0.3315826427
0.3315823632
0.3315811545
0.331576089
0.3315561489
0.3314871414
0.3315827251
0.3315827251
0.3315827251
0.3315827251
0.3315827249
0.331582724
0.3315827202
0.3315827026
0.3315826213
0.3315822417
0.3315804536
0.3315720176
0.3315328912
0.3313628992
0.3315827251
0.3315827251
0.3315827251
0.3315827251
0.3315827249
0.3315827242
0.3315827209
0.3315827064
0.3315826427
0.3315823632
0.3315811545
0.331576089
0.331556149
0.3314871417
0.3315827251
0.3315827251
0.3315827251
0.3315827251
0.331582725
0.3315827244
0.3315827222
0.3315827131
0.3315826756
0.3315825246
0.3315819357
0.3315797539
0.3315723355
0.3315506238
0.3315031401
0.3315827251
0.3315827251
0.3315827251
0.3315827251
0.331582725
0.3315827247
0.3315827234
0.3315827183
0.331582699
0.3315826281
0.3315823775
0.3315815467
0.3315790391
0.3315725089
0.3315591803
0.3315827251
0.3315827251
0.3315827251
0.3315827251
0.331582725
0.3315827248
0.3315827239
0.3315827208
0.3315827098
0.3315826723
0.3315825513
0.3315821859
0.3315811833
0.3315787777
0.3315740059
0.3315827251
0.3315827251
0.3315827251
0.3315827251
0.3315827251
0.3315827249
0.3315827242
0.331582722
0.3315827142
0.3315826888
0.3315826099
0.3315823823
0.331581784
0.3315803966
0.3315827251
0.3315827251
0.3315827251
0.3315827251
0.331582725
0.3315827248
0.3315827238
0.3315827203
0.3315827075
0.3315826626
0.3315825133
0.3315820494
0.3315807414
0.3315775388
0.3315827251
0.3315827251
0.3315827251
0.3315827251
0.331582725
0.3315827246
0.3315827231
0.331582717
0.3315826936
0.3315826055
0.3315822878
0.3315812123
0.3315779065
0.3315691789
0.3315827251
0.3315827251
0.3315827251
0.3315827251
0.331582725
0.3315827244
0.3315827222
0.3315827131
0.3315826756
0.3315825246
0.3315819357
0.3315797538
0.3315723353
0.3315506234
0.3315827251
0.3315827251
0.3315827251
0.3315827251
0.3315827249
0.3315827243
0.3315827218
0.331582711
0.331582665
0.3315824714
0.3315816709
0.3315784674
0.3315664166
0.3315263753
0.3315827251
0.3315827251
0.3315827251
0.3315827251
0.331582725
0.3315827244
0.3315827222
0.3315827131
0.3315826756
0.3315825246
0.3315819357
0.3315797538
0.3315723354
0.3315506235
0.3315827251
0.3315827251
0.3315827251
0.3315827251
0.331582725
0.3315827246
0.3315827231
0.331582717
0.3315826936
0.3315826055
0.3315822878
0.3315812123
0.3315779066
0.3315691789
0.3315827251
0.3315827251
0.3315827251
0.3315827251
0.331582725
0.3315827248
0.3315827238
0.3315827203
0.3315827075
0.3315826626
0.3315825133
0.3315820494
0.3315807414
0.3315775388
0.3315711606
0.3315827251
0.3315827251
0.3315827251
0.3315827251
0.3315827251
0.3315827249
0.3315827242
0.331582722
0.3315827142
0.3315826888
0.3315826099
0.3315823823
0.3315817841
0.3315803966
0.3315776641
0.3315827251
0.3315827251
0.3315827251
0.3315827251
0.3315827251
0.3315827249
0.3315827245
0.331582723
0.3315827181
0.3315827027
0.3315826572
0.3315825318
0.3315822157
0.3315815034
0.3315827251
0.3315827251
0.3315827251
0.3315827251
0.3315827251
0.3315827249
0.3315827243
0.3315827221
0.3315827145
0.3315826895
0.3315826114
0.331582384
0.3315817812
0.3315803745
0.3315827251
0.3315827251
0.3315827251
0.3315827251
0.331582725
0.3315827248
0.3315827238
0.3315827203
0.3315827075
0.3315826626
0.3315825133
0.3315820494
0.3315807414
0.3315775388
0.3315827251
0.3315827251
0.3315827251
0.3315827251
0.331582725
0.3315827247
0.3315827234
0.3315827183
0.331582699
0.3315826281
0.3315823775
0.3315815467
0.331579039
0.3315725087
0.3315827251
0.3315827251
0.3315827251
0.3315827251
0.331582725
0.3315827246
0.3315827231
0.3315827173
0.3315826945
0.331582608
0.3315822904
0.3315811846
0.3315776405
0.3315677728
0.3315827251
0.3315827251
0.3315827251
0.3315827251
0.331582725
0.3315827247
0.3315827234
0.3315827183
0.331582699
0.3315826281
0.3315823775
0.3315815467
0.331579039
0.3315725087
0.3315827251
0.3315827251
0.3315827251
0.3315827251
0.331582725
0.3315827248
0.3315827238
0.3315827203
0.3315827075
0.3315826626
0.3315825133
0.3315820494
0.3315807414
0.3315775388
0.3315827251
0.3315827251
0.3315827251
0.3315827251
0.3315827251
0.3315827249
0.3315827243
0.3315827221
0.3315827145
0.3315826895
0.3315826114
0.331582384
0.3315817812
0.3315803745
0.3315827251
0.3315827251
0.3315827251
0.3315827251
0.3315827251
0.3315827249
0.3315827245
0.331582723
0.3315827181
0.3315827027
0.3315826572
0.3315825318
0.3315822157
0.3315815034
0.331580104
0.3315827251
0.3315827251
0.3315827251
0.3315827251
0.3315827251
0.331582725
0.3315827247
0.3315827236
0.3315827202
0.33158271
0.331582681
0.3315826043
0.3315824173
0.3315820051
0.3315827251
0.3315827251
0.3315827251
0.3315827251
0.3315827251
0.3315827249
0.3315827245
0.331582723
0.3315827181
0.3315827027
0.3315826572
0.3315825318
0.3315822157
0.3315815034
0.3315827251
0.3315827251
0.3315827251
0.3315827251
0.3315827251
0.3315827249
0.3315827242
0.331582722
0.3315827142
0.3315826888
0.3315826099
0.3315823823
0.331581784
0.3315803965
0.3315827251
0.3315827251
0.3315827251
0.3315827251
0.331582725
0.3315827248
0.3315827239
0.3315827208
0.3315827098
0.3315826723
0.3315825513
0.3315821859
0.3315811833
0.3315787776
0.3315827251
0.3315827251
0.3315827251
0.3315827251
0.331582725
0.3315827248
0.3315827238
0.3315827203
0.3315827077
0.3315826638
0.3315825185
0.3315820674
0.3315807888
0.3315776238
0.3315827251
0.3315827251
0.3315827251
0.3315827251
0.331582725
0.3315827248
0.3315827239
0.3315827208
0.3315827098
0.3315826723
0.3315825513
0.3315821859
0.3315811833
0.3315787776
0.3315827251
0.3315827251
0.3315827251
0.3315827251
0.3315827251
0.3315827249
0.3315827242
0.331582722
0.3315827142
0.3315826888
0.3315826099
0.3315823823
0.331581784
0.3315803965
0.3315827251
0.3315827251
0.3315827251
0.3315827251
0.3315827251
0.3315827249
0.3315827245
0.331582723
0.3315827181
0.3315827027
0.3315826572
0.3315825318
0.3315822157
0.3315815034
0.3315827251
0.3315827251
0.3315827251
0.3315827251
0.3315827251
0.331582725
0.3315827247
0.3315827236
0.3315827202
0.33158271
0.331582681
0.3315826043
0.3315824173
0.3315820051
)
;

boundaryField
{
    top
    {
        type            zeroGradient;
    }
    bottom
    {
        type            zeroGradient;
    }
    side-walls
    {
        type            zeroGradient;
    }
    inlet
    {
        type            zeroGradient;
    }
    outlet
    {
        type            zeroGradient;
    }
    procBoundary0to1
    {
        type            processor;
        value           nonuniform List<scalar> 
97
(
0.3315797878
0.331580104
0.3315777408
0.3315732253
0.3315666201
0.331561913
0.3315666202
0.3315732254
0.3315777409
0.3315797878
0.331580104
0.331580104
0.3315731353
0.3315711606
0.3315615654
0.3315410416
0.331521718
0.3315410418
0.3315615657
0.3315731355
0.3315777409
0.3315776641
0.3315711606
0.3315711606
0.3315274543
0.3315031397
0.331451734
0.3313527685
0.3314517351
0.3315274552
0.3315615657
0.3315732254
0.3315740058
0.3315591801
0.3315031397
0.3315031397
0.3311926124
0.3307746786
0.3306852077
0.3311926164
0.3314517351
0.3315410418
0.3315666202
0.3315712664
0.3315467009
0.3314270169
0.3307746786
0.3307746786
0.3285034682
0.3307746796
0.330685207
0.3313112725
0.3313527684
0.3315217181
0.3315619131
0.3315740059
0.3315591803
0.3315031412
0.3313112733
0.3307746796
0.3313112725
0.3313112725
0.3314517338
0.3315512909
0.3315410415
0.3315666201
0.3315776642
0.3315711609
0.3315512913
0.3315031412
0.3314270177
0.3315031414
0.3315512909
0.3315512909
0.3315615654
0.3315776019
0.3315732252
0.331580104
0.331577602
0.3315711609
0.3315591803
0.3315467011
0.3315591804
0.3315711608
0.3315776019
0.3315776019
0.3315777408
0.3315811953
0.3315811953
0.331580104
0.3315776641
0.3315740059
0.3315712665
0.3315740059
0.3315776641
0.331580104
0.3315811953
)
;
    }
}


// ************************************************************************* //
