/*--------------------------------*- C++ -*----------------------------------*\
| =========                 |                                                 |
| \\      /  F ield         | OpenFOAM: The Open Source CFD Toolbox           |
|  \\    /   O peration     | Version:  4.x                                   |
|   \\  /    A nd           | Web:      www.OpenFOAM.org                      |
|    \\/     M anipulation  |                                                 |
\*---------------------------------------------------------------------------*/
FoamFile
{
    version     2.0;
    format      ascii;
    class       volScalarField;
    location    "5000";
    object      CO2;
}
// * * * * * * * * * * * * * * * * * * * * * * * * * * * * * * * * * * * * * //

dimensions      [0 0 0 0 0 0 0];

internalField   nonuniform List<scalar> 
1175
(
0.06314985524
0.06314985524
0.06314985524
0.06314985525
0.06314985528
0.0631498554
0.06314985579
0.06314985709
0.06314986116
0.06314987338
0.06314990808
0.06315000001
0.06315022403
0.06315071796
0.06315168831
0.06314985524
0.06314985524
0.06314985524
0.06314985525
0.06314985529
0.06314985545
0.06314985598
0.06314985778
0.06314986368
0.06314988211
0.06314993662
0.06315008686
0.06315046565
0.06315131911
0.0631529958
0.06314985524
0.06314985524
0.06314985524
0.06314985526
0.06314985531
0.06314985553
0.0631498563
0.06314985903
0.06314986834
0.0631498988
0.06314999325
0.06315026597
0.06315098279
0.06315264522
0.06315591918
0.06314985524
0.06314985524
0.06314985524
0.06314985526
0.06314985533
0.06314985561
0.06314985664
0.06314986037
0.06314987357
0.06314991846
0.06315006356
0.06315050135
0.06315170259
0.06315458496
0.06316030237
0.06314985524
0.06314985524
0.06314985524
0.06314985526
0.06314985534
0.06314985565
0.06314985679
0.06314986101
0.06314987616
0.06314992873
0.06315010279
0.06315064329
0.06315217519
0.06315596727
0.06316358458
0.06314985524
0.06314985524
0.06314985524
0.06314985526
0.06314985533
0.06314985561
0.06314985664
0.06314986037
0.06314987357
0.06314991846
0.06315006355
0.06315050134
0.06315170257
0.06315458491
0.06316030226
0.06314985524
0.06314985524
0.06314985524
0.06314985526
0.06314985531
0.06314985553
0.0631498563
0.06314985903
0.06314986834
0.0631498988
0.06314999325
0.06315026597
0.06315098278
0.0631526452
0.06315591912
0.06314985524
0.06314985524
0.06314985524
0.06314985525
0.06314985529
0.06314985545
0.06314985598
0.06314985778
0.06314986368
0.06314988211
0.06314993662
0.06315008686
0.06315046564
0.06315131908
0.06315299575
0.06314985524
0.06314985524
0.06314985524
0.06314985525
0.06314985528
0.0631498554
0.06314985579
0.06314985709
0.06314986116
0.06314987338
0.06314990808
0.06315000001
0.06315022402
0.06315071794
0.06315168826
0.06314985524
0.06314985524
0.06314985524
0.06314985525
0.06314985529
0.06314985545
0.06314985598
0.06314985778
0.06314986368
0.06314988211
0.06314993662
0.06315008686
0.06315046565
0.06315131914
0.06314985524
0.06314985524
0.06314985524
0.06314985526
0.06314985531
0.06314985552
0.06314985626
0.06314985891
0.06314986799
0.06314989791
0.06314999145
0.06315026393
0.06315098616
0.06315267163
0.06315599376
0.06314985524
0.06314985524
0.06314985524
0.06314985526
0.06314985534
0.06314985564
0.06314985678
0.06314986102
0.06314987638
0.06314993012
0.06315010899
0.06315066487
0.06315223208
0.06315606922
0.06316371122
0.06314985524
0.06314985524
0.06314985525
0.06314985527
0.06314985537
0.06314985577
0.06314985734
0.06314986342
0.0631498865
0.06314997153
0.06315027171
0.06315126715
0.0631542717
0.06316209591
0.0631780656
0.06314985524
0.06314985524
0.06314985525
0.06314985527
0.06314985538
0.06314985583
0.0631498576
0.06314986463
0.06314989193
0.06314999561
0.06315037607
0.06315170099
0.06315594734
0.06316776998
0.06319301738
0.06314985524
0.06314985524
0.06314985525
0.06314985527
0.06314985537
0.06314985577
0.06314985734
0.06314986342
0.0631498865
0.06314997153
0.0631502717
0.06315126715
0.06315427167
0.06316209583
0.0631780654
0.06314985524
0.06314985524
0.06314985524
0.06314985526
0.06314985534
0.06314985564
0.06314985678
0.06314986102
0.06314987638
0.06314993012
0.06315010899
0.06315066487
0.06315223206
0.06315606915
0.06316371103
0.06314985524
0.06314985524
0.06314985524
0.06314985526
0.06314985531
0.06314985552
0.06314985626
0.06314985891
0.06314986799
0.06314989791
0.06314999145
0.06315026392
0.06315098614
0.06315267156
0.06315599358
0.06314985524
0.06314985524
0.06314985524
0.06314985525
0.06314985529
0.06314985545
0.06314985598
0.06314985778
0.06314986368
0.06314988211
0.06314993662
0.06315008686
0.06315046564
0.06315131909
0.06315299575
0.06314985524
0.06314985524
0.06314985524
0.06314985526
0.06314985531
0.06314985553
0.0631498563
0.06314985903
0.06314986834
0.0631498988
0.06314999325
0.06315026598
0.06315098281
0.06315264528
0.06314985524
0.06314985524
0.06314985524
0.06314985526
0.06314985534
0.06314985564
0.06314985678
0.06314986102
0.06314987638
0.06314993012
0.06315010899
0.06315066487
0.0631522321
0.06315606933
0.06314985524
0.06314985524
0.06314985525
0.06314985527
0.06314985539
0.06314985584
0.06314985767
0.06314986491
0.06314989295
0.0631499985
0.06315037921
0.06315166782
0.0631556286
0.06316608558
0.06318751842
0.06314985524
0.06314985524
0.06314985525
0.06314985528
0.06314985543
0.06314985606
0.06314985869
0.06314986963
0.06314991455
0.06315009544
0.0631508011
0.06315341527
0.06316230361
0.06318831719
0.06324520874
0.06314985524
0.06314985524
0.06314985525
0.06314985529
0.06314985545
0.06314985617
0.06314985921
0.06314987218
0.06314992729
0.06315015923
0.06315111838
0.06315495663
0.06316939498
0.06321736889
0.06333641419
0.06314985524
0.06314985524
0.06314985525
0.06314985528
0.06314985543
0.06314985606
0.06314985869
0.06314986963
0.06314991455
0.06315009544
0.0631508011
0.06315341525
0.0631623035
0.06318831679
0.06324520761
0.06314985524
0.06314985524
0.06314985525
0.06314985527
0.06314985539
0.06314985584
0.06314985767
0.06314986491
0.06314989295
0.0631499985
0.06315037921
0.0631516678
0.06315562852
0.06316608525
0.06318751741
0.06314985524
0.06314985524
0.06314985524
0.06314985526
0.06314985534
0.06314985564
0.06314985678
0.06314986102
0.06314987638
0.06314993012
0.06315010899
0.06315066486
0.06315223205
0.06315606914
0.06316371101
0.06314985524
0.06314985524
0.06314985524
0.06314985526
0.06314985531
0.06314985553
0.0631498563
0.06314985903
0.06314986834
0.0631498988
0.06314999325
0.06315026597
0.06315098278
0.0631526452
0.06315591913
0.06314985524
0.06314985524
0.06314985524
0.06314985526
0.06314985533
0.06314985561
0.06314985664
0.06314986037
0.06314987357
0.06314991846
0.06315006356
0.06315050135
0.06315170262
0.06315458505
0.06314985524
0.06314985524
0.06314985525
0.06314985527
0.06314985537
0.06314985577
0.06314985734
0.06314986342
0.0631498865
0.06314997153
0.06315027171
0.06315126717
0.06315427177
0.0631620962
0.06314985524
0.06314985524
0.06314985525
0.06314985528
0.06314985543
0.06314985606
0.06314985869
0.06314986963
0.06314991455
0.06315009544
0.06315080111
0.0631534153
0.06316230378
0.06318831805
0.06314985524
0.06314985524
0.06314985525
0.0631498553
0.0631498555
0.06314985639
0.06314986032
0.06314987762
0.06314995397
0.06315028891
0.06315173712
0.0631578063
0.06318169724
0.06326437677
0.06347509752
0.06314985524
0.06314985524
0.06314985525
0.0631498553
0.06314985553
0.06314985656
0.06314986118
0.06314988227
0.06314997966
0.06315043445
0.0631525769
0.06316268438
0.06320956253
0.06341322968
0.06411799615
0.06314985524
0.06314985524
0.06314985525
0.0631498553
0.0631498555
0.06314985639
0.06314986032
0.06314987762
0.06314995397
0.06315028891
0.06315173711
0.06315780625
0.06318169693
0.06326437511
0.06347509062
0.06314985524
0.06314985524
0.06314985525
0.06314985528
0.06314985543
0.06314985606
0.06314985869
0.06314986963
0.06314991455
0.06315009544
0.0631508011
0.06315341526
0.06316230354
0.06318831688
0.06324520772
0.06314985524
0.06314985524
0.06314985525
0.06314985527
0.06314985537
0.06314985577
0.06314985734
0.06314986342
0.0631498865
0.06314997153
0.06315027171
0.06315126715
0.06315427169
0.06316209587
0.06317806544
0.06314985524
0.06314985524
0.06314985524
0.06314985526
0.06314985533
0.06314985561
0.06314985664
0.06314986037
0.06314987357
0.06314991846
0.06315006356
0.06315050134
0.06315170258
0.06315458493
0.0631603023
0.06314985524
0.06314985524
0.06314985524
0.06314985526
0.06314985534
0.06314985565
0.06314985679
0.06314986101
0.06314987616
0.06314992873
0.0631501028
0.06315064331
0.06315217524
0.06315596741
0.06314985524
0.06314985524
0.06314985525
0.06314985527
0.06314985538
0.06314985583
0.0631498576
0.06314986463
0.06314989193
0.06314999561
0.06315037608
0.06315170102
0.06315594747
0.06316777045
0.06314985524
0.06314985524
0.06314985525
0.06314985529
0.06314985545
0.06314985617
0.06314985921
0.06314987218
0.06314992729
0.06315015923
0.06315111839
0.06315495673
0.06316939543
0.06321737083
0.06314985524
0.06314985524
0.06314985525
0.0631498553
0.06314985553
0.06314985656
0.06314986118
0.06314988227
0.06314997966
0.06315043445
0.06315257693
0.06316268457
0.06320956373
0.06341323753
0.06314985524
0.06314985524
0.06314985525
0.06314985531
0.06314985557
0.06314985675
0.06314986226
0.06314988845
0.06315001666
0.06315066749
0.06315412816
0.06317361157
0.06329090853
0.06405100611
0.06938046532
0.06314985524
0.06314985524
0.06314985525
0.0631498553
0.06314985553
0.06314985656
0.06314986118
0.06314988227
0.06314997966
0.06315043445
0.06315257692
0.06316268447
0.06320956291
0.06341323097
0.06411799896
0.06314985524
0.06314985524
0.06314985525
0.06314985529
0.06314985545
0.06314985617
0.06314985921
0.06314987218
0.06314992729
0.06315015923
0.06315111838
0.06315495666
0.06316939507
0.06321736917
0.06333641464
0.06314985524
0.06314985524
0.06314985525
0.06314985527
0.06314985538
0.06314985583
0.0631498576
0.06314986463
0.06314989193
0.06314999561
0.06315037607
0.06315170099
0.06315594735
0.06316777002
0.0631930174
0.06314985524
0.06314985524
0.06314985524
0.06314985526
0.06314985534
0.06314985565
0.06314985679
0.06314986101
0.06314987616
0.06314992873
0.06315010279
0.06315064329
0.06315217519
0.06315596726
0.06316358452
0.06314985524
0.06314985524
0.06314985524
0.06314985526
0.06314985533
0.06314985561
0.06314985664
0.06314986037
0.06314987357
0.06314991846
0.06315006356
0.06315050135
0.06315170261
0.06315458503
0.06314985524
0.06314985524
0.06314985525
0.06314985527
0.06314985537
0.06314985577
0.06314985734
0.06314986342
0.0631498865
0.06314997153
0.06315027171
0.06315126717
0.06315427178
0.06316209615
0.06314985524
0.06314985524
0.06314985525
0.06314985528
0.06314985543
0.06314985606
0.06314985869
0.06314986963
0.06314991455
0.06315009544
0.06315080112
0.06315341533
0.06316230384
0.0631883179
0.06314985524
0.06314985524
0.06314985525
0.0631498553
0.0631498555
0.06314985639
0.06314986032
0.06314987762
0.06314995397
0.06315028891
0.06315173714
0.06315780641
0.0631816977
0.0632643783
0.06314985524
0.06314985524
0.06314985525
0.0631498553
0.06314985553
0.06314985656
0.06314986118
0.06314988227
0.06314997966
0.06315043445
0.06315257693
0.06316268459
0.06320956377
0.06341323746
0.06314985524
0.06314985524
0.06314985525
0.0631498553
0.0631498555
0.06314985639
0.06314986032
0.06314987762
0.06314995397
0.06315028891
0.06315173714
0.06315780637
0.06318169756
0.06326437812
0.06314985524
0.06314985524
0.06314985525
0.06314985528
0.06314985543
0.06314985606
0.06314985869
0.06314986963
0.06314991455
0.06315009544
0.06315080111
0.06315341531
0.06316230375
0.06318831761
0.06324520991
0.06314985524
0.06314985524
0.06314985525
0.06314985527
0.06314985537
0.06314985577
0.06314985734
0.06314986342
0.0631498865
0.06314997153
0.06315027171
0.06315126716
0.06315427173
0.063162096
0.06317806575
0.06314985524
0.06314985524
0.06314985524
0.06314985526
0.06314985533
0.06314985561
0.06314985664
0.06314986037
0.06314987357
0.06314991846
0.06315006356
0.06315050135
0.06315170259
0.06315458496
0.06316030236
0.06314985524
0.06314985524
0.06314985524
0.06314985526
0.06314985531
0.06314985553
0.0631498563
0.06314985903
0.06314986834
0.0631498988
0.06314999325
0.06315026598
0.06315098281
0.06315264527
0.06314985524
0.06314985524
0.06314985524
0.06314985526
0.06314985534
0.06314985564
0.06314985678
0.06314986102
0.06314987638
0.06314993012
0.06315010899
0.06315066488
0.06315223212
0.06315606931
0.06314985524
0.06314985524
0.06314985525
0.06314985527
0.06314985539
0.06314985584
0.06314985767
0.06314986491
0.06314989295
0.06314999851
0.06315037922
0.06315166785
0.06315562869
0.06316608575
0.06314985524
0.06314985524
0.06314985525
0.06314985528
0.06314985543
0.06314985606
0.06314985869
0.06314986963
0.06314991455
0.06315009544
0.06315080112
0.06315341534
0.06316230387
0.06318831795
0.06314985524
0.06314985524
0.06314985525
0.06314985529
0.06314985545
0.06314985617
0.06314985921
0.06314987218
0.06314992729
0.06315015923
0.06315111839
0.06315495672
0.0631693954
0.06321737055
0.06314985524
0.06314985524
0.06314985525
0.06314985528
0.06314985543
0.06314985606
0.06314985869
0.06314986963
0.06314991455
0.06315009544
0.06315080111
0.06315341532
0.06316230382
0.06318831782
0.06314985524
0.06314985524
0.06314985525
0.06314985527
0.06314985539
0.06314985584
0.06314985767
0.06314986491
0.06314989295
0.06314999851
0.06315037922
0.06315166784
0.06315562867
0.06316608577
0.06314985524
0.06314985524
0.06314985524
0.06314985526
0.06314985534
0.06314985564
0.06314985678
0.06314986102
0.06314987638
0.06314993012
0.06315010899
0.06315066488
0.0631522321
0.06315606929
0.06316371138
0.06314985524
0.06314985524
0.06314985524
0.06314985526
0.06314985531
0.06314985553
0.0631498563
0.06314985903
0.06314986834
0.0631498988
0.06314999325
0.06315026598
0.0631509828
0.06315264525
0.06315591923
0.06314985524
0.06314985524
0.06314985524
0.06314985525
0.06314985529
0.06314985545
0.06314985598
0.06314985778
0.06314986368
0.06314988211
0.06314993662
0.06315008686
0.06315046565
0.06315131912
0.06314985524
0.06314985524
0.06314985524
0.06314985526
0.06314985531
0.06314985552
0.06314985626
0.06314985891
0.06314986799
0.06314989792
0.06314999145
0.06315026393
0.06315098617
0.06315267164
0.06314985524
0.06314985524
0.06314985524
0.06314985526
0.06314985534
0.06314985564
0.06314985678
0.06314986102
0.06314987638
0.06314993012
0.06315010899
0.06315066488
0.06315223212
0.06315606931
0.06314985524
0.06314985524
0.06314985525
0.06314985527
0.06314985537
0.06314985577
0.06314985734
0.06314986342
0.0631498865
0.06314997154
0.06315027171
0.06315126718
0.0631542718
0.06316209618
0.06314985524
0.06314985524
0.06314985525
0.06314985527
0.06314985538
0.06314985583
0.0631498576
0.06314986463
0.06314989193
0.06314999561
0.06315037608
0.06315170103
0.06315594749
0.06316777042
0.06314985524
0.06314985524
0.06314985525
0.06314985527
0.06314985537
0.06314985577
0.06314985734
0.06314986342
0.0631498865
0.06314997154
0.06315027171
0.06315126718
0.06315427179
0.06316209614
0.06314985524
0.06314985524
0.06314985524
0.06314985526
0.06314985534
0.06314985564
0.06314985678
0.06314986102
0.06314987638
0.06314993012
0.06315010899
0.06315066488
0.06315223212
0.06315606932
0.06314985524
0.06314985524
0.06314985524
0.06314985526
0.06314985531
0.06314985552
0.06314985626
0.06314985891
0.06314986799
0.06314989792
0.06314999145
0.06315026393
0.06315098618
0.06315267167
0.06314985524
0.06314985524
0.06314985524
0.06314985525
0.06314985529
0.06314985545
0.06314985598
0.06314985778
0.06314986368
0.06314988211
0.06314993662
0.06315008686
0.06315046565
0.06315131913
0.06315299584
0.06314985524
0.06314985524
0.06314985524
0.06314985525
0.06314985528
0.0631498554
0.06314985579
0.06314985709
0.06314986116
0.06314987338
0.06314990808
0.06315000001
0.06315022403
0.06315071796
0.06314985524
0.06314985524
0.06314985524
0.06314985525
0.06314985529
0.06314985545
0.06314985598
0.06314985778
0.06314986368
0.06314988211
0.06314993662
0.06315008686
0.06315046565
0.06315131912
0.06314985524
0.06314985524
0.06314985524
0.06314985526
0.06314985531
0.06314985553
0.0631498563
0.06314985903
0.06314986834
0.0631498988
0.06314999325
0.06315026598
0.06315098282
0.06315264528
0.06314985524
0.06314985524
0.06314985524
0.06314985526
0.06314985533
0.06314985561
0.06314985664
0.06314986037
0.06314987357
0.06314991847
0.06315006356
0.06315050136
0.06315170263
0.06315458506
0.06314985524
0.06314985524
0.06314985524
0.06314985526
0.06314985534
0.06314985565
0.06314985679
0.06314986101
0.06314987616
0.06314992873
0.0631501028
0.06315064331
0.06315217525
0.06315596741
0.06314985524
0.06314985524
0.06314985524
0.06314985526
0.06314985533
0.06314985561
0.06314985664
0.06314986037
0.06314987357
0.06314991847
0.06315006356
0.06315050136
0.06315170263
0.06315458506
0.06314985524
0.06314985524
0.06314985524
0.06314985526
0.06314985531
0.06314985553
0.0631498563
0.06314985903
0.06314986834
0.0631498988
0.06314999325
0.06315026598
0.06315098282
0.06315264528
0.06314985524
0.06314985524
0.06314985524
0.06314985525
0.06314985529
0.06314985545
0.06314985598
0.06314985778
0.06314986368
0.06314988211
0.06314993662
0.06315008686
0.06315046566
0.06315131913
0.06314985524
0.06314985524
0.06314985524
0.06314985525
0.06314985528
0.0631498554
0.06314985579
0.06314985709
0.06314986116
0.06314987338
0.06314990808
0.06315000001
0.06315022403
0.06315071797
)
;

boundaryField
{
    top
    {
        type            zeroGradient;
    }
    bottom
    {
        type            zeroGradient;
    }
    side-walls
    {
        type            zeroGradient;
    }
    inlet
    {
        type            zeroGradient;
    }
    outlet
    {
        type            zeroGradient;
    }
    procBoundary0to1
    {
        type            processor;
        value           nonuniform List<scalar> 
97
(
0.06315337479
0.06315299585
0.06315582736
0.06316123779
0.06316915192
0.06317479177
0.06316915175
0.06316123769
0.06315582728
0.06315337472
0.06315299585
0.06315299585
0.06316134555
0.06316371141
0.06317520814
0.06319979894
0.06322295143
0.06319979869
0.06317520789
0.06316134534
0.06315582728
0.06315591924
0.06316371141
0.06316371141
0.06321607852
0.06324521028
0.06330680261
0.06342537754
0.06330680149
0.06321607752
0.06317520784
0.06316123768
0.06316030243
0.06317806592
0.06324521028
0.06324521028
0.06361726674
0.06411800303
0.06422520692
0.06361726252
0.06330680151
0.06319979868
0.06316915178
0.06316358468
0.06319301779
0.063336416
0.06411800303
0.06411800303
0.06683921407
0.06411800194
0.06422520767
0.06347509375
0.06342537756
0.06322295128
0.06317479162
0.06316030236
0.06317806566
0.06324520871
0.063475093
0.06411800194
0.06347509375
0.06347509375
0.0633068029
0.06318751833
0.06319979894
0.06316915182
0.06315591918
0.06316371116
0.06318751789
0.06324520871
0.06333641505
0.06324520842
0.06318751833
0.06318751833
0.06317520815
0.06315599376
0.0631612378
0.06315299577
0.06315599363
0.06316371114
0.06317806566
0.06319301761
0.0631780656
0.06316371121
0.06315599376
0.06315599376
0.06315582738
0.06315168831
0.06315168828
0.06315299577
0.06315591918
0.06316030238
0.06316358463
0.06316030238
0.0631559192
0.0631529958
0.06315168831
)
;
    }
}


// ************************************************************************* //
