/*--------------------------------*- C++ -*----------------------------------*\
| =========                 |                                                 |
| \\      /  F ield         | OpenFOAM: The Open Source CFD Toolbox           |
|  \\    /   O peration     | Version:  4.x                                   |
|   \\  /    A nd           | Web:      www.OpenFOAM.org                      |
|    \\/     M anipulation  |                                                 |
\*---------------------------------------------------------------------------*/
FoamFile
{
    version     2.0;
    format      ascii;
    class       volScalarField;
    location    "5000";
    object      Cpv;
}
// * * * * * * * * * * * * * * * * * * * * * * * * * * * * * * * * * * * * * //

dimensions      [0 2 -2 -1 0 0 0];

internalField   nonuniform List<scalar> 
1175
(
1245.090824
1245.090822
1245.090812
1245.090829
1245.090823
1245.090804
1245.090784
1245.090796
1245.090797
1245.090808
1245.090829
1245.090824
1245.090806
1245.090801
1245.0908
1245.090823
1245.090867
1245.090865
1245.090871
1245.09088
1245.090888
1245.090912
1245.090914
1245.090896
1245.0909
1245.09093
1245.090932
1245.090922
1245.090938
1245.090937
1245.090185
1245.090197
1245.090194
1245.09021
1245.090197
1245.090201
1245.090194
1245.090188
1245.090179
1245.09017
1245.090181
1245.090216
1245.090202
1245.090199
1245.090182
1245.091793
1245.091783
1245.091795
1245.091787
1245.091785
1245.09178
1245.091801
1245.091798
1245.091791
1245.091805
1245.091791
1245.091777
1245.091765
1245.091761
1245.091722
1245.091552
1245.091558
1245.091564
1245.09154
1245.091542
1245.09155
1245.091553
1245.091543
1245.091541
1245.091539
1245.091522
1245.091523
1245.091509
1245.091516
1245.091485
1245.089824
1245.089831
1245.089817
1245.089806
1245.089802
1245.089789
1245.089806
1245.089816
1245.089808
1245.089812
1245.08981
1245.089806
1245.089807
1245.089802
1245.08977
1245.0906
1245.090568
1245.090551
1245.090551
1245.090544
1245.09059
1245.090584
1245.090598
1245.090605
1245.09058
1245.0906
1245.090601
1245.090603
1245.090603
1245.090617
1245.091095
1245.09112
1245.091121
1245.091103
1245.091107
1245.091092
1245.091088
1245.091097
1245.091083
1245.09108
1245.091101
1245.091072
1245.091079
1245.091077
1245.091062
1245.090752
1245.090749
1245.090758
1245.090759
1245.090778
1245.090773
1245.090782
1245.090763
1245.090765
1245.090778
1245.090778
1245.090789
1245.090784
1245.090771
1245.090774
1245.091029
1245.091032
1245.091018
1245.091008
1245.091004
1245.091006
1245.090997
1245.091014
1245.091018
1245.091021
1245.091019
1245.091008
1245.091025
1245.091016
1245.091043
1245.091035
1245.091029
1245.091046
1245.091058
1245.091065
1245.091071
1245.091059
1245.091076
1245.091083
1245.091057
1245.091064
1245.091084
1245.091097
1245.09105
1245.091216
1245.091227
1245.091243
1245.091241
1245.091253
1245.0912
1245.091201
1245.091196
1245.091197
1245.091225
1245.09123
1245.09123
1245.091219
1245.091196
1245.091176
1245.091028
1245.091016
1245.091034
1245.091055
1245.091026
1245.091042
1245.091037
1245.091034
1245.090993
1245.090976
1245.090952
1245.090979
1245.09097
1245.090955
1245.090891
1245.090985
1245.090973
1245.090965
1245.090946
1245.090922
1245.090899
1245.090897
1245.090902
1245.090897
1245.090901
1245.0909
1245.090936
1245.090896
1245.090861
1245.090776
1245.091184
1245.091164
1245.091152
1245.091145
1245.091131
1245.091116
1245.09113
1245.09111
1245.091117
1245.091109
1245.091103
1245.091114
1245.091116
1245.091084
1245.09103
1245.091727
1245.09174
1245.091748
1245.091752
1245.091717
1245.091695
1245.09173
1245.09175
1245.091724
1245.09173
1245.091708
1245.091757
1245.09176
1245.091751
1245.091722
1245.090609
1245.090602
1245.090607
1245.090569
1245.090566
1245.090545
1245.090514
1245.090474
1245.090484
1245.090483
1245.090485
1245.090486
1245.090472
1245.090476
1245.090464
1245.091336
1245.091336
1245.09134
1245.091335
1245.091314
1245.091325
1245.091333
1245.09132
1245.091332
1245.091325
1245.09132
1245.091342
1245.09134
1245.091333
1245.091324
1245.090789
1245.090783
1245.09078
1245.090755
1245.09077
1245.090775
1245.090783
1245.090762
1245.090749
1245.090751
1245.090738
1245.090749
1245.090735
1245.090722
1245.090277
1245.090258
1245.090284
1245.09027
1245.09027
1245.090249
1245.090258
1245.090261
1245.09027
1245.090264
1245.090265
1245.090272
1245.090247
1245.090231
1245.090746
1245.090727
1245.090739
1245.090736
1245.090722
1245.090703
1245.090676
1245.09068
1245.090662
1245.090659
1245.090667
1245.090664
1245.090657
1245.090613
1245.090526
1245.090589
1245.090589
1245.090578
1245.090569
1245.09056
1245.090557
1245.090574
1245.090574
1245.090583
1245.090583
1245.090573
1245.090593
1245.090567
1245.090455
1245.090247
1245.091781
1245.091797
1245.091781
1245.091781
1245.091787
1245.09177
1245.091737
1245.091733
1245.091738
1245.091726
1245.091703
1245.09167
1245.091623
1245.091441
1245.090995
1245.090169
1245.090177
1245.090167
1245.090173
1245.090199
1245.090207
1245.090207
1245.090194
1245.090188
1245.090209
1245.090209
1245.090214
1245.090172
1245.090102
1245.089907
1245.090979
1245.090996
1245.091025
1245.091057
1245.091028
1245.091027
1245.091028
1245.091034
1245.091025
1245.091013
1245.09101
1245.091002
1245.091008
1245.090981
1245.090909
1245.090822
1245.090826
1245.090851
1245.090841
1245.090841
1245.090862
1245.090853
1245.090836
1245.090793
1245.090778
1245.090782
1245.090794
1245.090776
1245.090743
1245.090769
1245.090616
1245.090598
1245.090605
1245.090609
1245.090614
1245.090614
1245.090594
1245.090613
1245.090589
1245.090607
1245.090594
1245.090609
1245.090579
1245.090541
1245.090509
1245.090535
1245.090539
1245.090533
1245.090516
1245.090527
1245.090553
1245.090554
1245.090533
1245.090536
1245.090516
1245.090514
1245.090515
1245.090516
1245.090522
1245.090632
1245.090637
1245.090643
1245.090654
1245.09065
1245.090635
1245.090645
1245.090669
1245.090654
1245.090668
1245.090673
1245.090697
1245.090706
1245.09069
1245.090308
1245.090316
1245.090313
1245.09032
1245.090319
1245.090327
1245.090323
1245.090336
1245.090328
1245.090329
1245.09033
1245.090343
1245.090308
1245.090241
1245.090477
1245.090483
1245.09051
1245.090508
1245.090496
1245.090488
1245.090449
1245.090478
1245.090479
1245.090476
1245.090456
1245.090416
1245.090317
1245.090013
1245.089258
1245.090689
1245.090696
1245.09072
1245.090698
1245.090687
1245.090695
1245.090674
1245.090675
1245.090692
1245.09067
1245.090668
1245.090607
1245.090427
1245.089685
1245.086345
1245.090685
1245.090696
1245.090683
1245.090686
1245.090697
1245.090724
1245.090696
1245.090695
1245.090693
1245.090715
1245.090693
1245.090682
1245.090574
1245.090267
1245.08949
1245.090531
1245.090521
1245.090519
1245.090503
1245.090452
1245.090473
1245.090454
1245.090466
1245.090481
1245.09047
1245.090483
1245.09047
1245.090452
1245.090345
1245.09013
1245.091453
1245.091448
1245.091448
1245.091442
1245.091469
1245.091453
1245.091437
1245.09142
1245.091408
1245.091408
1245.091383
1245.091398
1245.091388
1245.091357
1245.091292
1245.090974
1245.090955
1245.090942
1245.090932
1245.090908
1245.090901
1245.090886
1245.090909
1245.090915
1245.090921
1245.090941
1245.090954
1245.090973
1245.090967
1245.090936
1245.091155
1245.091131
1245.09111
1245.091136
1245.091106
1245.091092
1245.09109
1245.091106
1245.091105
1245.09109
1245.091087
1245.091095
1245.091087
1245.091066
1245.090492
1245.090471
1245.090458
1245.090467
1245.090457
1245.090463
1245.090487
1245.090484
1245.090497
1245.090536
1245.090496
1245.090469
1245.090432
1245.0904
1245.09158
1245.091573
1245.091547
1245.091557
1245.091543
1245.091543
1245.091534
1245.091525
1245.091507
1245.091481
1245.09147
1245.091474
1245.091414
1245.091223
1245.090975
1245.090961
1245.09099
1245.090974
1245.09094
1245.09096
1245.091004
1245.090994
1245.09099
1245.090991
1245.090983
1245.090958
1245.090769
1245.090053
1245.091257
1245.091256
1245.091263
1245.091246
1245.091262
1245.091243
1245.091279
1245.091285
1245.091271
1245.091261
1245.091249
1245.091158
1245.090731
1245.087928
1244.092549
1245.091473
1245.091465
1245.091486
1245.091456
1245.091441
1245.091416
1245.091442
1245.091434
1245.09145
1245.091465
1245.091446
1245.091408
1245.091235
1245.09046
1245.087086
1245.090886
1245.090902
1245.090931
1245.090962
1245.090982
1245.090961
1245.090969
1245.090974
1245.090976
1245.090989
1245.090988
1245.090976
1245.090938
1245.090781
1245.090356
1245.09024
1245.090235
1245.090251
1245.090242
1245.09026
1245.09028
1245.090278
1245.090284
1245.090317
1245.090325
1245.09031
1245.090306
1245.090281
1245.090232
1245.09014
1245.09025
1245.090269
1245.090265
1245.090278
1245.090274
1245.09027
1245.090273
1245.090275
1245.090259
1245.090246
1245.090249
1245.090212
1245.090191
1245.090187
1245.090168
1245.090097
1245.090128
1245.090136
1245.090132
1245.090129
1245.090132
1245.090124
1245.090113
1245.090099
1245.090094
1245.090084
1245.090102
1245.090113
1245.090091
1245.090325
1245.090334
1245.090354
1245.090359
1245.090349
1245.090359
1245.090363
1245.090369
1245.090352
1245.090362
1245.09036
1245.090345
1245.090373
1245.090361
1245.090361
1245.090355
1245.090355
1245.090353
1245.090353
1245.090362
1245.090341
1245.090367
1245.090383
1245.090362
1245.090374
1245.090344
1245.090288
1245.090198
1245.090905
1245.090922
1245.090923
1245.090925
1245.090932
1245.090926
1245.090947
1245.090928
1245.090907
1245.090896
1245.090906
1245.090886
1245.090813
1245.090524
1245.090947
1245.090957
1245.090942
1245.090946
1245.090938
1245.090921
1245.090908
1245.090915
1245.090902
1245.09092
1245.090906
1245.090863
1245.090695
1245.089955
1245.090675
1245.090677
1245.09068
1245.090677
1245.090661
1245.090698
1245.090691
1245.090684
1245.090677
1245.090679
1245.090692
1245.090706
1245.090601
1245.090318
1245.090776
1245.090771
1245.09077
1245.090765
1245.090782
1245.090786
1245.090799
1245.090782
1245.090778
1245.090791
1245.090809
1245.090796
1245.090766
1245.090669
1245.090426
1245.09032
1245.090335
1245.090355
1245.090349
1245.090387
1245.090392
1245.090368
1245.090383
1245.090344
1245.090341
1245.090336
1245.090349
1245.090346
1245.090331
1245.090263
1245.090679
1245.090687
1245.090667
1245.090653
1245.090642
1245.09066
1245.090674
1245.090685
1245.090691
1245.090694
1245.090684
1245.090696
1245.090674
1245.090647
1245.090607
1245.090751
1245.090741
1245.09074
1245.090749
1245.090747
1245.090755
1245.090766
1245.090776
1245.090767
1245.090763
1245.09078
1245.090766
1245.090754
1245.090744
1245.091134
1245.091126
1245.091143
1245.091134
1245.091134
1245.091134
1245.091129
1245.091124
1245.091112
1245.091114
1245.091137
1245.091109
1245.091096
1245.09109
1245.091657
1245.091651
1245.091634
1245.091643
1245.091625
1245.091613
1245.091593
1245.091616
1245.091642
1245.09163
1245.091658
1245.091616
1245.091581
1245.091521
1245.09112
1245.091112
1245.091127
1245.091162
1245.091135
1245.091108
1245.091092
1245.091115
1245.091125
1245.091118
1245.091124
1245.091109
1245.091079
1245.091013
1245.090534
1245.090524
1245.090514
1245.090495
1245.090513
1245.090508
1245.090508
1245.0905
1245.0905
1245.090482
1245.090488
1245.090469
1245.090421
1245.090249
1245.090553
1245.090571
1245.090554
1245.090554
1245.090543
1245.090573
1245.09057
1245.090551
1245.090538
1245.090536
1245.090526
1245.090496
1245.090498
1245.090406
1245.09099
1245.091014
1245.091026
1245.090999
1245.091
1245.090974
1245.090955
1245.090989
1245.090992
1245.090989
1245.090967
1245.090962
1245.090958
1245.09091
1245.091057
1245.091067
1245.091086
1245.09106
1245.091055
1245.09107
1245.091071
1245.091051
1245.091042
1245.091024
1245.091024
1245.091032
1245.091034
1245.091044
1245.09101
1245.09078
1245.090789
1245.090777
1245.090787
1245.090799
1245.090796
1245.090804
1245.090798
1245.090814
1245.090793
1245.090818
1245.090804
1245.090811
1245.090801
1245.090787
1245.091097
1245.09107
1245.09108
1245.091064
1245.091052
1245.09107
1245.091065
1245.091067
1245.091064
1245.09108
1245.091069
1245.091058
1245.091034
1245.091017
1245.090561
1245.090549
1245.090557
1245.090544
1245.090549
1245.090533
1245.090559
1245.09055
1245.090547
1245.090553
1245.090568
1245.090563
1245.090579
1245.090574
1245.090423
1245.090424
1245.090429
1245.090408
1245.090415
1245.090402
1245.090401
1245.090417
1245.090418
1245.090416
1245.090408
1245.090411
1245.090386
1245.090395
1245.09073
1245.090731
1245.090719
1245.090702
1245.090688
1245.090701
1245.090698
1245.090712
1245.090715
1245.090726
1245.090727
1245.090733
1245.090728
1245.090715
1245.091284
1245.091292
1245.091299
1245.091304
1245.091301
1245.091311
1245.091317
1245.091318
1245.091301
1245.091318
1245.091321
1245.091325
1245.091288
1245.091218
1245.090895
1245.090872
1245.09086
1245.090855
1245.090853
1245.090868
1245.090847
1245.090839
1245.090858
1245.090859
1245.090831
1245.090838
1245.090857
1245.090852
1245.091274
1245.091265
1245.091265
1245.091245
1245.091252
1245.091255
1245.091231
1245.091229
1245.091214
1245.091194
1245.091204
1245.091191
1245.091187
1245.091165
1245.0912
1245.091196
1245.091182
1245.091182
1245.091175
1245.091192
1245.091218
1245.091254
1245.091232
1245.09122
1245.091177
1245.091166
1245.091153
1245.091159
1245.091175
1245.091181
1245.091199
1245.091192
1245.091198
1245.091214
1245.091218
1245.091209
1245.091208
1245.091202
1245.091208
1245.091235
1245.091231
1245.091218
1245.091208
1245.090453
1245.090451
1245.090448
1245.09045
1245.090466
1245.090467
1245.090454
1245.090461
1245.090465
1245.090478
1245.090465
1245.090457
1245.090454
1245.090465
1245.09079
1245.090806
1245.090801
1245.090798
1245.090823
1245.09081
1245.09083
1245.090813
1245.090832
1245.090811
1245.090827
1245.090839
1245.090846
1245.090826
1245.090902
1245.090889
1245.090885
1245.090888
1245.090907
1245.090914
1245.090925
1245.090932
1245.090929
1245.09094
1245.090939
1245.09095
1245.090942
1245.090933
1245.091041
1245.091044
1245.091038
1245.09104
1245.091043
1245.091048
1245.091055
1245.09106
1245.091053
1245.091053
1245.091074
1245.091071
1245.091046
1245.091014
1245.090768
1245.090769
1245.090806
1245.090836
1245.090841
1245.090819
1245.090827
1245.090805
1245.090821
1245.090824
1245.090833
1245.090846
1245.090828
1245.090805
1245.091545
1245.091521
1245.091511
1245.091503
1245.091491
1245.091497
1245.091492
1245.091506
1245.091528
1245.091523
1245.091542
1245.09153
1245.091513
1245.091508
1245.091087
1245.091094
1245.091082
1245.091081
1245.091069
1245.091068
1245.091081
1245.091073
1245.09109
1245.091091
1245.091085
1245.091087
1245.091074
1245.091079
1245.090131
1245.090126
1245.090115
1245.090122
1245.090114
1245.090102
1245.090097
1245.090083
1245.090054
1245.090066
1245.090057
1245.090075
1245.090096
1245.090071
1245.090682
1245.090666
1245.090669
1245.090682
1245.090671
1245.090668
1245.090655
1245.090647
1245.090636
1245.090644
1245.090642
1245.090644
1245.090644
1245.090643
)
;

boundaryField
{
    top
    {
        type            calculated;
        value           nonuniform List<scalar> 
134
(
1245.090752
1245.091336
1245.090616
1245.090974
1245.09025
1245.090679
1245.09078
1245.091175
1245.090682
1245.090749
1245.091336
1245.090598
1245.090955
1245.090269
1245.090687
1245.090789
1245.091181
1245.090666
1245.090758
1245.09134
1245.090605
1245.090942
1245.090265
1245.090667
1245.090777
1245.091199
1245.090669
1245.090759
1245.091335
1245.090609
1245.090932
1245.090278
1245.090653
1245.090787
1245.091192
1245.090682
1245.090778
1245.091314
1245.090614
1245.090908
1245.090274
1245.090642
1245.090799
1245.091198
1245.090671
1245.090773
1245.091325
1245.090614
1245.090901
1245.09027
1245.09066
1245.090796
1245.091214
1245.090668
1245.090782
1245.091333
1245.090594
1245.090886
1245.090273
1245.090674
1245.090804
1245.091218
1245.090655
1245.090763
1245.09132
1245.090613
1245.090909
1245.090275
1245.090685
1245.090798
1245.091209
1245.090647
1245.090765
1245.091332
1245.090589
1245.090915
1245.090259
1245.090691
1245.090814
1245.091208
1245.090636
1245.090778
1245.091325
1245.090607
1245.090921
1245.090246
1245.090694
1245.090793
1245.091202
1245.090644
1245.090778
1245.09132
1245.090594
1245.090941
1245.090249
1245.090684
1245.090818
1245.091208
1245.090642
1245.090789
1245.091342
1245.090609
1245.090954
1245.090212
1245.090696
1245.090804
1245.091235
1245.090644
1245.090784
1245.09134
1245.090579
1245.090973
1245.090191
1245.090674
1245.090811
1245.091231
1245.090644
1245.090771
1245.091333
1245.090541
1245.090967
1245.090187
1245.090647
1245.090801
1245.091218
1245.090643
1245.090774
1245.091324
1245.090509
1245.090936
1245.090168
1245.090607
1245.090787
1245.091208
)
;
    }
    bottom
    {
        type            calculated;
        value           nonuniform List<scalar> 
127
(
1245.090824
1245.091029
1245.090789
1245.090535
1245.091155
1245.090097
1245.090751
1245.091097
1245.090453
1245.090822
1245.091032
1245.090783
1245.090539
1245.091131
1245.090128
1245.090741
1245.09107
1245.090451
1245.090812
1245.091018
1245.09078
1245.090533
1245.09111
1245.090136
1245.09074
1245.09108
1245.090448
1245.090829
1245.091008
1245.090755
1245.090516
1245.091136
1245.090132
1245.090749
1245.091064
1245.09045
1245.090823
1245.091004
1245.09077
1245.090527
1245.091106
1245.090129
1245.090747
1245.091052
1245.090466
1245.090804
1245.091006
1245.090775
1245.090553
1245.091092
1245.090132
1245.090755
1245.09107
1245.090467
1245.090784
1245.090997
1245.090783
1245.090554
1245.09109
1245.090124
1245.090766
1245.091065
1245.090454
1245.090796
1245.091014
1245.090762
1245.090533
1245.091106
1245.090113
1245.090776
1245.091067
1245.090461
1245.090797
1245.091018
1245.090749
1245.090536
1245.091105
1245.090099
1245.090767
1245.091064
1245.090465
1245.090808
1245.091021
1245.090751
1245.090516
1245.09109
1245.090094
1245.090763
1245.09108
1245.090478
1245.090829
1245.091019
1245.090738
1245.090514
1245.091087
1245.090084
1245.09078
1245.091069
1245.090465
1245.090824
1245.091008
1245.090749
1245.090515
1245.091095
1245.090102
1245.090766
1245.091058
1245.090457
1245.090806
1245.091025
1245.090735
1245.090516
1245.091087
1245.090113
1245.090754
1245.091034
1245.090454
1245.090801
1245.091016
1245.090722
1245.090522
1245.091066
1245.090091
1245.090744
1245.091017
1245.090465
1245.0908
)
;
    }
    side-walls
    {
        type            calculated;
        value           nonuniform List<scalar> 
261
(
1245.090824
1245.090823
1245.090185
1245.091793
1245.091552
1245.089824
1245.0906
1245.091095
1245.090752
1245.090822
1245.090867
1245.090197
1245.091783
1245.091558
1245.089831
1245.090568
1245.09112
1245.090749
1245.090812
1245.090865
1245.090194
1245.091795
1245.091564
1245.089817
1245.090551
1245.091121
1245.090758
1245.090829
1245.090871
1245.09021
1245.091787
1245.09154
1245.089806
1245.090551
1245.091103
1245.090759
1245.090823
1245.09088
1245.090197
1245.091785
1245.091542
1245.089802
1245.090544
1245.091107
1245.090778
1245.090804
1245.090888
1245.090201
1245.09178
1245.09155
1245.089789
1245.09059
1245.091092
1245.090773
1245.090784
1245.090912
1245.090194
1245.091801
1245.091553
1245.089806
1245.090584
1245.091088
1245.090782
1245.090796
1245.090914
1245.090188
1245.091798
1245.091543
1245.089816
1245.090598
1245.091097
1245.090763
1245.090797
1245.090896
1245.090179
1245.091791
1245.091541
1245.089808
1245.090605
1245.091083
1245.090765
1245.090808
1245.0909
1245.09017
1245.091805
1245.091539
1245.089812
1245.09058
1245.09108
1245.090778
1245.090829
1245.09093
1245.090181
1245.091791
1245.091522
1245.08981
1245.0906
1245.091101
1245.090778
1245.090824
1245.090932
1245.090216
1245.091777
1245.091523
1245.089806
1245.090601
1245.091072
1245.090789
1245.090806
1245.090922
1245.090202
1245.091765
1245.091509
1245.089807
1245.090603
1245.091079
1245.090784
1245.090801
1245.090938
1245.090199
1245.091761
1245.091516
1245.089802
1245.090603
1245.091077
1245.090771
1245.0908
1245.090937
1245.090182
1245.091722
1245.091485
1245.08977
1245.090617
1245.091062
1245.090774
1245.090453
1245.09079
1245.090902
1245.091041
1245.090768
1245.091545
1245.091087
1245.090131
1245.090682
1245.090451
1245.090806
1245.090889
1245.091044
1245.090769
1245.091521
1245.091094
1245.090126
1245.090666
1245.090448
1245.090801
1245.090885
1245.091038
1245.090806
1245.091511
1245.091082
1245.090115
1245.090669
1245.09045
1245.090798
1245.090888
1245.09104
1245.090836
1245.091503
1245.091081
1245.090122
1245.090682
1245.090466
1245.090823
1245.090907
1245.091043
1245.090841
1245.091491
1245.091069
1245.090114
1245.090671
1245.090467
1245.09081
1245.090914
1245.091048
1245.090819
1245.091497
1245.091068
1245.090102
1245.090668
1245.090454
1245.09083
1245.090925
1245.091055
1245.090827
1245.091492
1245.091081
1245.090097
1245.090655
1245.090461
1245.090813
1245.090932
1245.09106
1245.090805
1245.091506
1245.091073
1245.090083
1245.090647
1245.090465
1245.090832
1245.090929
1245.091053
1245.090821
1245.091528
1245.09109
1245.090054
1245.090636
1245.090478
1245.090811
1245.09094
1245.091053
1245.090824
1245.091523
1245.091091
1245.090066
1245.090644
1245.090465
1245.090827
1245.090939
1245.091074
1245.090833
1245.091542
1245.091085
1245.090057
1245.090642
1245.090457
1245.090839
1245.09095
1245.091071
1245.090846
1245.09153
1245.091087
1245.090075
1245.090644
1245.090454
1245.090846
1245.090942
1245.091046
1245.090828
1245.091513
1245.091074
1245.090096
1245.090644
1245.090465
1245.090826
1245.090933
1245.091014
1245.090805
1245.091508
1245.091079
1245.090071
1245.090643
)
;
    }
    inlet
    {
        type            calculated;
        value           nonuniform List<scalar> 
81
(
1245.090824
1245.090823
1245.090185
1245.091793
1245.091552
1245.089824
1245.0906
1245.091095
1245.090752
1245.091029
1245.091043
1245.091216
1245.091028
1245.090985
1245.091184
1245.091727
1245.090609
1245.091336
1245.090789
1245.090277
1245.090746
1245.090589
1245.091781
1245.090169
1245.090979
1245.090822
1245.090616
1245.090535
1245.090632
1245.090308
1245.090477
1245.090689
1245.090685
1245.090531
1245.091453
1245.090974
1245.091155
1245.090492
1245.09158
1245.090975
1245.091257
1245.091473
1245.090886
1245.09024
1245.09025
1245.090097
1245.090325
1245.090361
1245.090905
1245.090947
1245.090675
1245.090776
1245.09032
1245.090679
1245.090751
1245.091134
1245.091657
1245.09112
1245.090534
1245.090553
1245.09099
1245.091057
1245.09078
1245.091097
1245.090561
1245.090423
1245.09073
1245.091284
1245.090895
1245.091274
1245.0912
1245.091175
1245.090453
1245.09079
1245.090902
1245.091041
1245.090768
1245.091545
1245.091087
1245.090131
1245.090682
)
;
    }
    outlet
    {
        type            calculated;
        value           nonuniform 0();
    }
    procBoundary0to1
    {
        type            processor;
        value           nonuniform List<scalar> 
97
(
1245.090802
1245.091024
1245.090926
1245.090185
1245.091683
1245.091438
1245.089737
1245.090591
1245.091065
1245.090758
1245.091024
1245.091024
1245.091032
1245.090218
1245.091142
1245.09083
1245.090682
1245.090965
1245.09169
1245.090404
1245.091329
1245.090715
1245.090218
1245.090218
1245.090435
1245.090017
1245.090014
1245.090655
1245.089682
1245.090788
1245.090712
1245.090468
1245.090511
1245.09063
1245.090017
1245.090017
1245.088737
1245.086704
1245.085972
1245.088974
1245.089908
1245.091202
1245.090928
1245.091033
1245.090333
1245.090794
1245.086704
1245.086704
1244.10354
1245.086616
1245.086741
1245.089573
1245.090052
1245.090045
1245.090127
1245.090073
1245.090279
1245.089971
1245.089744
1245.086616
1245.089573
1245.089573
1245.090209
1245.090795
1245.09017
1245.090559
1245.090734
1245.091101
1245.091453
1245.090794
1245.089785
1245.090225
1245.090795
1245.090795
1245.090987
1245.091156
1245.090799
1245.091004
1245.090559
1245.090377
1245.090629
1245.091148
1245.09079
1245.091127
1245.091156
1245.091156
1245.091198
1245.090647
1245.090464
1245.090813
1245.090902
1245.090996
1245.090778
1245.09151
1245.091069
1245.090057
1245.090647
)
;
    }
}


// ************************************************************************* //
