/*--------------------------------*- C++ -*----------------------------------*\
| =========                 |                                                 |
| \\      /  F ield         | OpenFOAM: The Open Source CFD Toolbox           |
|  \\    /   O peration     | Version:  4.x                                   |
|   \\  /    A nd           | Web:      www.OpenFOAM.org                      |
|    \\/     M anipulation  |                                                 |
\*---------------------------------------------------------------------------*/
FoamFile
{
    version     2.0;
    format      ascii;
    class       volScalarField;
    location    "5000";
    object      H2O;
}
// * * * * * * * * * * * * * * * * * * * * * * * * * * * * * * * * * * * * * //

dimensions      [0 0 0 0 0 0 0];

internalField   nonuniform List<scalar> 
1175
(
9.99879122e-07
9.998790789e-07
9.998795788e-07
9.998812279e-07
9.998870256e-07
9.999078568e-07
9.99977853e-07
1.000206774e-06
1.000926894e-06
1.003089915e-06
1.009229595e-06
1.025497533e-06
1.065146306e-06
1.15257671e-06
1.324356714e-06
9.998791449e-07
9.998791759e-07
9.998796697e-07
9.998817109e-07
9.998891143e-07
9.999161167e-07
1.00001024e-06
1.000329307e-06
1.001372396e-06
1.00463403e-06
1.014280369e-06
1.040871453e-06
1.107918741e-06
1.25900185e-06
1.555848148e-06
9.998792468e-07
9.998791916e-07
9.99879875e-07
9.998825304e-07
9.998927349e-07
9.999305796e-07
1.000067273e-06
1.000549737e-06
1.002197016e-06
1.007588703e-06
1.024304547e-06
1.072577191e-06
1.199470117e-06
1.493785855e-06
2.073470328e-06
9.998791667e-07
9.998792052e-07
9.998800348e-07
9.998832449e-07
9.998962294e-07
9.999450503e-07
1.000126706e-06
1.000787615e-06
1.003123786e-06
1.011068524e-06
1.036749471e-06
1.114245673e-06
1.326905845e-06
1.837234094e-06
2.849625541e-06
9.998790441e-07
9.99879233e-07
9.998801006e-07
9.998837197e-07
9.998977062e-07
9.999513401e-07
1.000153583e-06
1.000899838e-06
1.003581372e-06
1.012885477e-06
1.043695372e-06
1.139375782e-06
1.410583097e-06
2.082002688e-06
3.430866055e-06
9.998791113e-07
9.998791791e-07
9.998800293e-07
9.998834661e-07
9.998961825e-07
9.999450295e-07
1.000126778e-06
1.000787706e-06
1.003123739e-06
1.011068492e-06
1.036749188e-06
1.114244162e-06
1.326900966e-06
1.83721978e-06
2.849592061e-06
9.998789822e-07
9.99879199e-07
9.998798815e-07
9.9988255e-07
9.998927688e-07
9.999304217e-07
1.000067221e-06
1.000549705e-06
1.002196925e-06
1.007588596e-06
1.024304239e-06
1.072576096e-06
1.199465896e-06
1.493771868e-06
2.073436737e-06
9.99879016e-07
9.99879016e-07
9.998795018e-07
9.998815678e-07
9.998891328e-07
9.999160831e-07
1.000010209e-06
1.000329202e-06
1.001372355e-06
1.004633776e-06
1.014279902e-06
1.040870143e-06
1.10791404e-06
1.258987668e-06
1.555815213e-06
9.998788163e-07
9.998789479e-07
9.998793551e-07
9.998809768e-07
9.998869172e-07
9.999076132e-07
9.999776164e-07
1.000206576e-06
1.000926719e-06
1.003089771e-06
1.009229298e-06
1.025496408e-06
1.06514203e-06
1.152563272e-06
1.324323201e-06
9.99879031e-07
9.998791153e-07
9.998797037e-07
9.998817146e-07
9.998892304e-07
9.999161116e-07
1.000010303e-06
1.000329345e-06
1.001372373e-06
1.004634119e-06
1.014280758e-06
1.040873107e-06
1.107924921e-06
1.259026346e-06
9.998791121e-07
9.998793098e-07
9.998798944e-07
9.998824006e-07
9.998920714e-07
9.999283631e-07
1.000060522e-06
1.000528557e-06
1.002135222e-06
1.007431644e-06
1.023987086e-06
1.072219035e-06
1.200079393e-06
1.498497297e-06
2.086767936e-06
9.998792292e-07
9.998794816e-07
9.99880242e-07
9.998835661e-07
9.998972645e-07
9.999503628e-07
1.00015167e-06
1.00090146e-06
1.00362084e-06
1.013131675e-06
1.044794051e-06
1.143202002e-06
1.420674342e-06
2.100107416e-06
3.453409169e-06
9.998793118e-07
9.998794023e-07
9.998805234e-07
9.998848527e-07
9.999024798e-07
9.999731009e-07
1.000250638e-06
1.001326966e-06
1.0054121e-06
1.020463282e-06
1.073600969e-06
1.24983675e-06
1.781821986e-06
3.167321755e-06
5.995528431e-06
9.998792102e-07
9.998793786e-07
9.998804407e-07
9.998853345e-07
9.999048901e-07
9.999834851e-07
1.000297874e-06
1.001540574e-06
1.006372506e-06
1.024725866e-06
1.092078631e-06
1.326652983e-06
2.078542341e-06
4.172160958e-06
8.643620356e-06
9.998790973e-07
9.998792344e-07
9.998804108e-07
9.998848141e-07
9.999025661e-07
9.999730659e-07
1.00025066e-06
1.001326901e-06
1.005412001e-06
1.020463193e-06
1.073600652e-06
1.249834934e-06
1.781812051e-06
3.167282975e-06
5.995419735e-06
9.998790468e-07
9.998792632e-07
9.99880156e-07
9.99883633e-07
9.998974286e-07
9.999503953e-07
1.000151688e-06
1.000901558e-06
1.003620826e-06
1.013131803e-06
1.044793686e-06
1.143199372e-06
1.420661171e-06
2.100058224e-06
3.453278391e-06
9.998789751e-07
9.998791576e-07
9.998796299e-07
9.998823048e-07
9.998921158e-07
9.99928538e-07
1.000060594e-06
1.000528702e-06
1.002135326e-06
1.007431566e-06
1.023986499e-06
1.072216058e-06
1.200066962e-06
1.498453059e-06
2.086644591e-06
9.998788549e-07
9.998789847e-07
9.998795426e-07
9.998816107e-07
9.998891576e-07
9.99916073e-07
1.000010207e-06
1.000329385e-06
1.001372363e-06
1.004634006e-06
1.014280278e-06
1.040870737e-06
1.107915243e-06
1.258989434e-06
1.555817366e-06
9.998790886e-07
9.998793321e-07
9.998800041e-07
9.998827382e-07
9.998928107e-07
9.999305571e-07
1.000067231e-06
1.000549905e-06
1.002197155e-06
1.007589037e-06
1.024306062e-06
1.072582564e-06
1.199489086e-06
1.493849141e-06
9.998791218e-07
9.998793579e-07
9.998802112e-07
9.998836249e-07
9.99897363e-07
9.999503873e-07
1.000151667e-06
1.000901616e-06
1.003620947e-06
1.013132102e-06
1.044795384e-06
1.143207812e-06
1.420698405e-06
2.100210277e-06
9.99879213e-07
9.998793726e-07
9.99880581e-07
9.998853146e-07
9.999052825e-07
9.999861042e-07
1.000309969e-06
1.001590243e-06
1.006553446e-06
1.02523852e-06
1.092636531e-06
1.320788357e-06
2.022134105e-06
3.873993492e-06
7.670110499e-06
9.998793106e-07
9.998796479e-07
9.998811567e-07
9.998873092e-07
9.999136839e-07
1.000025088e-06
1.000490836e-06
1.002426524e-06
1.010377139e-06
1.042399623e-06
1.167334126e-06
1.630209227e-06
3.204177995e-06
7.811203612e-06
1.788790099e-05
9.998794086e-07
9.998796612e-07
9.998813029e-07
9.99888114e-07
9.999175117e-07
1.000043496e-06
1.000581802e-06
1.002878059e-06
1.012632696e-06
1.053693669e-06
1.223512299e-06
1.903155215e-06
4.460022901e-06
1.295650775e-05
3.404247519e-05
9.998793849e-07
9.998796564e-07
9.998811084e-07
9.998872913e-07
9.999136495e-07
1.00002499e-06
1.000490699e-06
1.002426491e-06
1.010377164e-06
1.042399427e-06
1.167332656e-06
1.630200485e-06
3.204130434e-06
7.810990784e-06
1.788721704e-05
9.998793169e-07
9.998794876e-07
9.998805726e-07
9.998853935e-07
9.999052561e-07
9.999861427e-07
1.000309872e-06
1.001590267e-06
1.006553372e-06
1.02523835e-06
1.092634877e-06
1.32077836e-06
2.022082828e-06
3.873772756e-06
7.669395506e-06
9.998791304e-07
9.998793647e-07
9.9988012e-07
9.99883666e-07
9.998973949e-07
9.999503405e-07
1.000151769e-06
1.000901589e-06
1.003620862e-06
1.013131863e-06
1.044793987e-06
1.143200491e-06
1.420663963e-06
2.10006227e-06
3.453277964e-06
9.998790117e-07
9.998792243e-07
9.998798742e-07
9.99882521e-07
9.998927118e-07
9.999304579e-07
1.000067309e-06
1.000549861e-06
1.002197178e-06
1.00758891e-06
1.024304897e-06
1.072577677e-06
1.199469103e-06
1.493777399e-06
2.073441753e-06
9.998792699e-07
9.998794273e-07
9.998802615e-07
9.998835635e-07
9.998963703e-07
9.999450872e-07
1.000126739e-06
1.000787911e-06
1.003124e-06
1.011069422e-06
1.03675258e-06
1.114256833e-06
1.326944727e-06
1.837356405e-06
9.998792687e-07
9.998796295e-07
9.998805592e-07
9.998849514e-07
9.999026433e-07
9.999732411e-07
1.000250821e-06
1.001327115e-06
1.00541245e-06
1.020464438e-06
1.073605769e-06
1.249856742e-06
1.78190166e-06
3.16761856e-06
9.998794678e-07
9.998797604e-07
9.998811271e-07
9.998873238e-07
9.999138295e-07
1.00002507e-06
1.000490918e-06
1.002426589e-06
1.010377364e-06
1.04240097e-06
1.16734031e-06
1.630239241e-06
3.204323481e-06
7.811917243e-06
9.998796859e-07
9.998799625e-07
9.998816994e-07
9.998899198e-07
9.999259048e-07
1.000083689e-06
1.000777878e-06
1.003841308e-06
1.017355727e-06
1.076655218e-06
1.333079548e-06
2.407824664e-06
6.638941996e-06
2.128321039e-05
5.861101891e-05
9.998795816e-07
9.998799566e-07
9.998819461e-07
9.998909904e-07
9.999314673e-07
1.000112525e-06
1.000930194e-06
1.004663364e-06
1.021904278e-06
1.102424802e-06
1.481788444e-06
3.271709014e-06
1.157412461e-05
4.764821295e-05
0.0001724901112
9.998795337e-07
9.998798127e-07
9.998816531e-07
9.998898752e-07
9.999257282e-07
1.000083533e-06
1.000777802e-06
1.003841227e-06
1.01735565e-06
1.07665496e-06
1.333076437e-06
2.407798272e-06
6.638760718e-06
2.12821378e-05
5.860617335e-05
9.998793622e-07
9.998796512e-07
9.99880995e-07
9.998873711e-07
9.999137864e-07
1.000025091e-06
1.000490788e-06
1.002426633e-06
1.010377416e-06
1.042400376e-06
1.167336067e-06
1.630212018e-06
3.204164232e-06
7.811063335e-06
1.788727188e-05
9.998792131e-07
9.998793512e-07
9.998804604e-07
9.998847892e-07
9.999024475e-07
9.999731197e-07
1.000250748e-06
1.001327095e-06
1.005412415e-06
1.020463937e-06
1.073603075e-06
1.24984202e-06
1.781830242e-06
3.167316372e-06
5.995445036e-06
9.998791116e-07
9.998793397e-07
9.998801409e-07
9.998833937e-07
9.998962598e-07
9.999450794e-07
1.000126706e-06
1.000787722e-06
1.003123954e-06
1.011069018e-06
1.03675081e-06
1.114248595e-06
1.32691124e-06
1.8372376e-06
2.849609774e-06
9.998792849e-07
9.998794338e-07
9.998803592e-07
9.998838765e-07
9.998979774e-07
9.999515564e-07
1.000153832e-06
1.000900199e-06
1.003581855e-06
1.012886839e-06
1.043699947e-06
1.139392659e-06
1.410641015e-06
2.082180463e-06
9.998793932e-07
9.998796774e-07
9.998808597e-07
9.998856218e-07
9.999050379e-07
9.999836974e-07
1.000298088e-06
1.001540816e-06
1.006373069e-06
1.024727809e-06
1.092087099e-06
1.326688833e-06
2.07868533e-06
4.172678233e-06
9.998794964e-07
9.998798339e-07
9.998813583e-07
9.998881882e-07
9.999175569e-07
1.000043646e-06
1.000581844e-06
1.002878186e-06
1.012633425e-06
1.05369708e-06
1.223528879e-06
1.903237706e-06
4.460426338e-06
1.295837086e-05
9.998796508e-07
9.998799826e-07
9.99881906e-07
9.998910385e-07
9.9993154e-07
1.000112596e-06
1.000930201e-06
1.004663496e-06
1.021904911e-06
1.102428668e-06
1.481810823e-06
3.271844433e-06
1.157498833e-05
4.765406124e-05
9.998795956e-07
9.998800628e-07
9.998822611e-07
9.998923463e-07
9.999381271e-07
1.000147501e-06
1.001121915e-06
1.005758625e-06
1.028456443e-06
1.143695157e-06
1.756522478e-06
5.207098373e-06
2.598281687e-05
0.0001606234106
0.001104733095
9.99879538e-07
9.998799788e-07
9.998819601e-07
9.99890972e-07
9.999315201e-07
1.000112605e-06
1.000930238e-06
1.004663508e-06
1.021904896e-06
1.102428128e-06
1.481803981e-06
3.27178099e-06
1.157444025e-05
4.764936416e-05
0.0001724913874
9.998796006e-07
9.998798825e-07
9.998813495e-07
9.998882097e-07
9.999175689e-07
1.00004366e-06
1.000581834e-06
1.002878281e-06
1.0126332e-06
1.053696022e-06
1.223521909e-06
1.903192284e-06
4.460149632e-06
1.295683675e-05
3.404274942e-05
9.998794215e-07
9.998796575e-07
9.998807083e-07
9.998854419e-07
9.999048669e-07
9.999835419e-07
1.000298034e-06
1.001540717e-06
1.006372883e-06
1.024727161e-06
1.092083129e-06
1.326667574e-06
2.078582919e-06
4.172243834e-06
8.643677856e-06
9.99879285e-07
9.998793814e-07
9.998802836e-07
9.998838519e-07
9.998978511e-07
9.999515088e-07
1.00015376e-06
1.000900029e-06
1.003581609e-06
1.012886307e-06
1.04369749e-06
1.139381714e-06
1.410597357e-06
2.082026848e-06
3.430879855e-06
9.998793772e-07
9.99879461e-07
9.998801848e-07
9.998835319e-07
9.998963743e-07
9.999450383e-07
1.000126732e-06
1.000787878e-06
1.003124036e-06
1.011069719e-06
1.036753631e-06
1.114259594e-06
1.326950367e-06
1.837361006e-06
9.998794299e-07
9.998795858e-07
9.998806268e-07
9.998850367e-07
9.999027093e-07
9.99973237e-07
1.000250803e-06
1.001327142e-06
1.00541256e-06
1.020465206e-06
1.073608704e-06
1.249865876e-06
1.781923804e-06
3.167640951e-06
9.998794628e-07
9.998797378e-07
9.998812314e-07
9.998874056e-07
9.99913879e-07
1.000025161e-06
1.000490805e-06
1.002426582e-06
1.010377928e-06
1.042403091e-06
1.167348796e-06
1.630271851e-06
3.204427111e-06
7.812096913e-06
9.998795909e-07
9.998799514e-07
9.998817054e-07
9.998898808e-07
9.999258608e-07
1.000083683e-06
1.000777844e-06
1.003841506e-06
1.017356775e-06
1.07665988e-06
1.333101123e-06
2.407925521e-06
6.639400271e-06
2.128513151e-05
9.998796367e-07
9.998799184e-07
9.998818989e-07
9.998910993e-07
9.999315663e-07
1.000112545e-06
1.000930291e-06
1.004663692e-06
1.02190559e-06
1.102431187e-06
1.481822428e-06
3.271898535e-06
1.157522283e-05
4.765483033e-05
9.998795975e-07
9.998799193e-07
9.998817346e-07
9.998898628e-07
9.999258692e-07
1.00008356e-06
1.000777775e-06
1.003841432e-06
1.017356547e-06
1.076659267e-06
1.333097089e-06
2.407900087e-06
6.639262776e-06
2.128460038e-05
9.998794131e-07
9.998797569e-07
9.998811594e-07
9.998874262e-07
9.99913787e-07
1.000025079e-06
1.000490802e-06
1.002426675e-06
1.010377906e-06
1.042402439e-06
1.167344805e-06
1.630248928e-06
3.204312223e-06
7.811595253e-06
1.788897045e-05
9.998794278e-07
9.998795882e-07
9.998806171e-07
9.998849637e-07
9.999025627e-07
9.999731562e-07
1.000250797e-06
1.001327165e-06
1.005412456e-06
1.020464728e-06
1.073605907e-06
1.249852319e-06
1.781865932e-06
3.167423774e-06
5.99569238e-06
9.998792766e-07
9.998794157e-07
9.998801768e-07
9.998835485e-07
9.998963996e-07
9.999451252e-07
1.000126676e-06
1.000787795e-06
1.003123993e-06
1.011069407e-06
1.036751888e-06
1.114252065e-06
1.326921472e-06
1.837263617e-06
2.84965883e-06
9.998791936e-07
9.998792999e-07
9.998799861e-07
9.998826542e-07
9.998928924e-07
9.999305423e-07
1.000067278e-06
1.000549901e-06
1.002197394e-06
1.007589639e-06
1.024307512e-06
1.072586407e-06
1.199496762e-06
1.493855641e-06
9.998792353e-07
9.998793837e-07
9.998802684e-07
9.998837556e-07
9.998974453e-07
9.999503578e-07
1.000151839e-06
1.000901703e-06
1.003621246e-06
1.013133223e-06
1.044799098e-06
1.14321852e-06
1.420723867e-06
2.100241145e-06
9.998793127e-07
9.998795648e-07
9.998807579e-07
9.998854629e-07
9.999055086e-07
9.999862404e-07
1.000309976e-06
1.001590464e-06
1.006553916e-06
1.025240879e-06
1.092645318e-06
1.320819274e-06
2.022231014e-06
3.874249173e-06
9.998794246e-07
9.9987971e-07
9.998811583e-07
9.998871988e-07
9.999137598e-07
1.000025154e-06
1.00049094e-06
1.002426811e-06
1.010378241e-06
1.042403853e-06
1.167351909e-06
1.63028109e-06
3.204449888e-06
7.812120961e-06
9.998795083e-07
9.998797499e-07
9.998813476e-07
9.99888255e-07
9.999176639e-07
1.000043592e-06
1.000581963e-06
1.002878418e-06
1.012633832e-06
1.053698792e-06
1.223535918e-06
1.903262539e-06
4.46049516e-06
1.295842566e-05
9.998794837e-07
9.998796993e-07
9.998811103e-07
9.998872903e-07
9.999138961e-07
1.000025109e-06
1.000490809e-06
1.002426704e-06
1.010378135e-06
1.042403465e-06
1.167349681e-06
1.630271356e-06
3.204409851e-06
7.811995491e-06
9.998794264e-07
9.998795164e-07
9.998807258e-07
9.998855152e-07
9.999054507e-07
9.999861946e-07
1.000309967e-06
1.00159039e-06
1.006553924e-06
1.025240532e-06
1.092643336e-06
1.320810528e-06
2.022199906e-06
3.874190997e-06
9.998792739e-07
9.998794282e-07
9.998802223e-07
9.998837515e-07
9.998974414e-07
9.999503958e-07
1.000151628e-06
1.000901636e-06
1.003621111e-06
1.013132763e-06
1.044797484e-06
1.14321233e-06
1.420701917e-06
2.100172318e-06
3.45355831e-06
9.99879213e-07
9.998792956e-07
9.998799925e-07
9.998825942e-07
9.998927599e-07
9.999305287e-07
1.000067357e-06
1.000549997e-06
1.002197241e-06
1.007589373e-06
1.024306583e-06
1.072582559e-06
1.199482729e-06
1.493811491e-06
2.073508221e-06
9.998790319e-07
9.998792193e-07
9.998796589e-07
9.998817066e-07
9.998893123e-07
9.999162176e-07
1.000010285e-06
1.000329505e-06
1.001372502e-06
1.004634438e-06
1.014281936e-06
1.040876272e-06
1.107931249e-06
1.259031572e-06
9.998792159e-07
9.998793899e-07
9.998798525e-07
9.998823832e-07
9.998922254e-07
9.999286018e-07
1.000060608e-06
1.000528708e-06
1.00213555e-06
1.007432521e-06
1.0239896e-06
1.07222613e-06
1.200097325e-06
1.498535784e-06
9.998792346e-07
9.998795017e-07
9.998802923e-07
9.998837525e-07
9.998973973e-07
9.999503292e-07
1.000151749e-06
1.000901659e-06
1.00362113e-06
1.013133172e-06
1.044799358e-06
1.143219285e-06
1.420725542e-06
2.100240938e-06
9.998794256e-07
9.998796959e-07
9.998808154e-07
9.998849547e-07
9.999026537e-07
9.999732843e-07
1.000250895e-06
1.001327153e-06
1.005412863e-06
1.020465876e-06
1.073610611e-06
1.249871255e-06
1.78193517e-06
3.167651047e-06
9.998793513e-07
9.998795769e-07
9.998808033e-07
9.998854863e-07
9.99904952e-07
9.999835112e-07
1.000297988e-06
1.001540854e-06
1.006373416e-06
1.024729112e-06
1.092091081e-06
1.326700043e-06
2.078709481e-06
4.172690897e-06
9.998792452e-07
9.998794698e-07
9.99880521e-07
9.998848906e-07
9.999024936e-07
9.99973122e-07
1.00025071e-06
1.001327234e-06
1.005412767e-06
1.020465797e-06
1.073610039e-06
1.249868631e-06
1.781924968e-06
3.16762053e-06
9.998792339e-07
9.998793651e-07
9.998801766e-07
9.998837707e-07
9.998974434e-07
9.999503548e-07
1.00015171e-06
1.000901737e-06
1.003621348e-06
1.01313315e-06
1.044798866e-06
1.143216816e-06
1.420718081e-06
2.100227457e-06
9.998791033e-07
9.998792281e-07
9.998798878e-07
9.998824571e-07
9.99892264e-07
9.999285683e-07
1.000060615e-06
1.00052851e-06
1.002135404e-06
1.007432232e-06
1.0239891e-06
1.072224431e-06
1.200092536e-06
1.498531433e-06
9.998790924e-07
9.998791713e-07
9.998795849e-07
9.998816297e-07
9.998890843e-07
9.999161477e-07
1.000010235e-06
1.000329321e-06
1.001372598e-06
1.004634474e-06
1.014281588e-06
1.040874769e-06
1.107926526e-06
1.259018528e-06
1.555882429e-06
9.998790018e-07
9.998791615e-07
9.998796034e-07
9.998812314e-07
9.998871315e-07
9.99907743e-07
9.999777036e-07
1.000206596e-06
1.000926861e-06
1.003090252e-06
1.009230668e-06
1.025500289e-06
1.065152399e-06
1.152588945e-06
9.998791743e-07
9.998792686e-07
9.998797449e-07
9.998817983e-07
9.998891704e-07
9.999161421e-07
1.000010304e-06
1.000329391e-06
1.001372565e-06
1.004634742e-06
1.0142821e-06
1.040876508e-06
1.107931713e-06
1.259032207e-06
9.998791683e-07
9.998793579e-07
9.998800126e-07
9.998826462e-07
9.998928134e-07
9.999306073e-07
1.000067358e-06
1.000550002e-06
1.00219743e-06
1.007589801e-06
1.024308016e-06
1.072587603e-06
1.199499128e-06
1.493858197e-06
9.998793671e-07
9.998795155e-07
9.998803831e-07
9.998835651e-07
9.998963933e-07
9.99945159e-07
1.000126715e-06
1.00078785e-06
1.003124259e-06
1.011070269e-06
1.036755042e-06
1.114263022e-06
1.326957124e-06
1.837368234e-06
9.998794176e-07
9.998795393e-07
9.998802935e-07
9.998837058e-07
9.998977605e-07
9.999514828e-07
1.000153702e-06
1.000900158e-06
1.003582027e-06
1.012887458e-06
1.043701951e-06
1.139397602e-06
1.410650111e-06
2.082185135e-06
9.998790364e-07
9.998792417e-07
9.998801542e-07
9.998834472e-07
9.99896263e-07
9.999450476e-07
1.000126778e-06
1.000787847e-06
1.003124269e-06
1.01107022e-06
1.03675486e-06
1.114262346e-06
1.326954322e-06
1.837359975e-06
9.998790543e-07
9.998792149e-07
9.998798851e-07
9.998826299e-07
9.998928464e-07
9.999305544e-07
1.000067413e-06
1.000550084e-06
1.002197445e-06
1.007589731e-06
1.024307742e-06
1.072586825e-06
1.199496467e-06
1.493852224e-06
9.998790583e-07
9.998791423e-07
9.9987961e-07
9.998816212e-07
9.998891299e-07
9.999161434e-07
1.000010235e-06
1.000329357e-06
1.001372605e-06
1.004634605e-06
1.01428192e-06
1.040875748e-06
1.107929789e-06
1.259029777e-06
9.998789169e-07
9.998790124e-07
9.998794823e-07
9.998811435e-07
9.99887094e-07
9.999076874e-07
9.999776721e-07
1.000206633e-06
1.000926979e-06
1.003090229e-06
1.009230583e-06
1.025499733e-06
1.065151182e-06
1.152588842e-06
)
;

boundaryField
{
    top
    {
        type            zeroGradient;
    }
    bottom
    {
        type            zeroGradient;
    }
    side-walls
    {
        type            zeroGradient;
    }
    inlet
    {
        type            zeroGradient;
    }
    outlet
    {
        type            zeroGradient;
    }
    procBoundary0to1
    {
        type            processor;
        value           nonuniform List<scalar> 
97
(
1.622852919e-06
1.55587912e-06
2.057097203e-06
3.015094742e-06
4.416515419e-06
5.415289308e-06
4.41647015e-06
3.015054906e-06
2.057062178e-06
1.622827933e-06
1.55587912e-06
1.55587912e-06
3.034241121e-06
3.453563266e-06
5.489140884e-06
9.844193393e-06
1.394483651e-05
9.844081679e-06
5.489021482e-06
3.034163839e-06
2.057065912e-06
2.073515457e-06
3.453563266e-06
3.453563266e-06
1.272754445e-05
1.788925948e-05
2.879657464e-05
4.979995452e-05
2.879604319e-05
1.272715028e-05
5.489018888e-06
3.015061918e-06
2.84970747e-06
5.99581706e-06
1.788925948e-05
1.788925948e-05
8.37908843e-05
0.0001725086294
0.0001914854187
8.378898845e-05
2.87960973e-05
9.844110124e-06
4.41649613e-06
3.430999812e-06
8.644132699e-06
3.404525231e-05
0.0001725086294
0.0001725086294
0.0006545843051
0.0001725081053
0.000191485651
5.861107874e-05
4.980012938e-05
1.394488809e-05
5.415301862e-06
2.849695506e-06
5.995723105e-06
1.788839063e-05
5.861047113e-05
0.0001725081053
5.861107874e-05
5.861107874e-05
2.879663683e-05
7.670120125e-06
9.844280068e-06
4.416543146e-06
2.073495958e-06
3.453419834e-06
7.669827667e-06
1.788840696e-05
3.404510317e-05
1.788832932e-05
7.670120125e-06
7.670120125e-06
5.489145597e-06
2.086771251e-06
3.015122298e-06
1.555844882e-06
2.086704445e-06
3.453418666e-06
5.995733754e-06
8.644113636e-06
5.995694245e-06
3.453443965e-06
2.086771251e-06
2.086771251e-06
2.057102892e-06
1.324358248e-06
1.324339546e-06
1.555846199e-06
2.073499901e-06
2.849706154e-06
3.430999428e-06
2.84969369e-06
2.07349786e-06
1.555854472e-06
1.324358248e-06
)
;
    }
}


// ************************************************************************* //
