/*--------------------------------*- C++ -*----------------------------------*\
| =========                 |                                                 |
| \\      /  F ield         | OpenFOAM: The Open Source CFD Toolbox           |
|  \\    /   O peration     | Version:  4.x                                   |
|   \\  /    A nd           | Web:      www.OpenFOAM.org                      |
|    \\/     M anipulation  |                                                 |
\*---------------------------------------------------------------------------*/
FoamFile
{
    version     2.0;
    format      ascii;
    class       volScalarField;
    location    "5000";
    object      molarConc;
}
// * * * * * * * * * * * * * * * * * * * * * * * * * * * * * * * * * * * * * //

dimensions      [0 -3 0 0 1 0 0];

internalField   nonuniform List<scalar> 
1175
(
9.963275953
9.963276041
9.963276544
9.963275647
9.963275986
9.963276981
9.96327802
9.963277379
9.963277371
9.96327675
9.963275639
9.963275812
9.963276549
9.963276431
9.963275687
9.963276005
9.963273677
9.963273806
9.963273483
9.963272996
9.963272574
9.963271311
9.9632712
9.963272123
9.963271898
9.963270286
9.963270077
9.963270276
9.963268708
9.963267405
9.963309467
9.963308866
9.963309003
9.963308158
9.963308861
9.963308632
9.963309011
9.963309345
9.963309762
9.963310256
9.963309589
9.963307489
9.963307657
9.963306424
9.96330461
9.963225065
9.963225585
9.96322494
9.963225377
9.963225505
9.963225763
9.963224658
9.963224772
9.963225125
9.963224362
9.963224976
9.963225346
9.963225008
9.963222767
9.963220056
9.963237702
9.963237387
9.963237091
9.963238319
9.963238237
9.963237809
9.963237678
9.963238195
9.963238298
9.963238345
9.963239072
9.963238573
9.963238027
9.963234506
9.96322974
9.963328438
9.963328084
9.963328812
9.963329377
9.963329607
9.963330246
9.963329381
9.963328851
9.963329252
9.963329025
9.963329016
9.96332883
9.963327763
9.963325639
9.963322524
9.963287713
9.963289363
9.963290253
9.963290272
9.963290609
9.963288237
9.963288547
9.963287809
9.963287409
9.963288685
9.963287579
9.96328729
9.963286568
9.963285183
9.963281756
9.963261684
9.963260372
9.963260316
9.963261311
9.963261092
9.963261883
9.963262064
9.963261582
9.963262328
9.963262473
9.96326131
9.963262719
9.963262056
9.963261426
9.963260839
9.963279698
9.963279872
9.963279408
9.963279324
9.963278336
9.963278602
9.963278126
9.96327914
9.96327901
9.963278331
9.963278322
9.963277648
9.963277733
9.963277987
9.963277013
9.963265164
9.963265004
9.963265723
9.963266284
9.963266504
9.963266364
9.963266872
9.963265975
9.963265724
9.963265584
9.963265649
9.963266056
9.963264859
9.963264623
9.96326442
9.963264831
9.963265185
9.963264299
9.963263656
9.963263279
9.963262984
9.963263582
9.963262675
9.963262295
9.963263583
9.963262994
9.963261331
9.963259258
9.963258943
9.963255328
9.963254794
9.963253933
9.963254049
9.963253418
9.963256183
9.963256159
9.96325639
9.963256322
9.963254816
9.963254402
9.963253926
9.96325319
9.963251227
9.96324588
9.963265241
9.963265878
9.963264901
9.963263809
9.963265302
9.963264475
9.963264725
9.963264899
9.963267022
9.963267852
9.963268865
9.963266602
9.963264565
9.963258831
9.963248818
9.963267473
9.963268122
9.96326851
9.963269537
9.963270781
9.96327201
9.963272079
9.963271807
9.963272067
9.963271764
9.963271509
9.963268515
9.963267031
9.963258968
9.963242279
9.963257016
9.963258095
9.963258702
9.963259057
9.96325983
9.963260607
9.963259886
9.96326092
9.963260509
9.963260854
9.963260924
9.963259525
9.963256925
9.963252041
9.963241497
9.96322851
9.963227829
9.963227412
9.963227226
9.963229053
9.963230187
9.96322839
9.963227301
9.963228655
9.963228293
9.963229328
9.963226264
9.963224785
9.963222057
9.963217192
9.963287223
9.963287588
9.963287334
9.963289307
9.963289479
9.963290569
9.963292206
9.963294324
9.963293791
9.963293778
9.963293616
9.963293358
9.963293448
9.963291855
9.963289708
9.963249038
9.963249072
9.963248866
9.963249108
9.963250182
9.963249618
9.963249212
9.963249874
9.963249241
9.963249592
9.963249849
9.963248563
9.963248339
9.963248002
9.963247051
9.963277786
9.963278089
9.963278255
9.96327956
9.963278763
9.963278489
9.963278062
9.963279164
9.963279849
9.963279716
9.963280333
9.963279526
9.963279648
9.963278982
9.963304659
9.963305657
9.963304272
9.963304999
9.963305009
9.963306144
9.963305661
9.963305497
9.963304975
9.96330525
9.963305064
9.963304213
9.963304225
9.963301902
9.963280046
9.963281012
9.96328041
9.963280554
9.963281273
9.963282264
9.963283682
9.963283473
9.963284424
9.963284468
9.963283748
9.963282813
9.963279885
9.963273435
9.963260092
9.96328828
9.963288288
9.963288855
9.9632893
9.963289808
9.963289961
9.963289055
9.963289065
9.96328854
9.963288395
9.963288344
9.963285099
9.963278999
9.963263055
9.963226349
9.963225674
9.963224842
9.963225702
9.963225701
9.963225365
9.963226274
9.963228016
9.963228206
9.963227894
9.963228316
9.963228727
9.963227239
9.963217577
9.963186875
9.963110336
9.963310339
9.96330989
9.963310404
9.963310118
9.963308725
9.963308298
9.963308323
9.963308997
9.963309257
9.963308003
9.963307424
9.963304987
9.963299725
9.963281593
9.963244161
9.96326778
9.963266883
9.963265357
9.963263708
9.963265208
9.963265296
9.963265214
9.963264876
9.96326534
9.963265897
9.963265723
9.963265055
9.963261418
9.963254095
9.963239962
9.963276044
9.963275831
9.9632745
9.963275062
9.963275019
9.963273926
9.963274407
9.963275306
9.963277517
9.963278294
9.963277934
9.963276841
9.963276451
9.963274988
9.963267269
9.96328687
9.963287798
9.96328742
9.963287223
9.963286965
9.963286951
9.963288029
9.963287032
9.963288235
9.96328727
9.963287906
9.963286881
9.963287857
9.963288466
9.963287416
9.963291111
9.963290909
9.963291203
9.963292081
9.963291501
9.963290139
9.963290097
9.963291221
9.963291042
9.963292048
9.963292016
9.96329159
9.963290561
9.963287843
9.963286006
9.963285755
9.96328543
9.963284881
9.963285087
9.963285838
9.963285339
9.963284087
9.963284807
9.963284051
9.96328352
9.963281404
9.963278424
9.963272716
9.963303012
9.963302587
9.963302743
9.963302379
9.963302462
9.963302044
9.963302217
9.963301517
9.963301913
9.963301718
9.963301085
9.963298193
9.963292576
9.963274359
9.963294125
9.963293851
9.963292394
9.963292546
9.963293129
9.96329357
9.963295596
9.963294068
9.963293978
9.963293864
9.963293662
9.963290691
9.963275834
9.963222386
9.9630853
9.963283021
9.963282676
9.963281406
9.963282556
9.963283127
9.963282714
9.963283782
9.963283737
9.963282753
9.963283558
9.963281841
9.963276537
9.963246591
9.963114247
9.962696772
9.96328321
9.963282632
9.963283329
9.963283157
9.96328258
9.963281205
9.96328263
9.963282672
9.963282717
9.963281274
9.963281231
9.963276727
9.963262305
9.963209007
9.963072852
9.963291317
9.96329184
9.963291932
9.96329281
9.963295466
9.963294346
9.963295361
9.96329469
9.963293915
9.963294298
9.963293037
9.96329152
9.963285022
9.963268804
9.963232424
9.963242889
9.963243157
9.96324315
9.963243466
9.963242049
9.963242902
9.963243759
9.963244636
9.963245258
9.963245151
9.963246238
9.963244608
9.963242653
9.963237688
9.96322775
9.963268067
9.963269078
9.963269755
9.963270239
9.963271527
9.96327189
9.963272667
9.963271481
9.963271136
9.963270767
9.963269601
9.963268573
9.963266546
9.963264456
9.963261328
9.963258538
9.963259805
9.963260928
9.96325955
9.963261121
9.96326184
9.963261971
9.96326114
9.963261178
9.963261931
9.963261936
9.96326106
9.963260171
9.96325815
9.963293382
9.963294475
9.963295145
9.963294673
9.963295205
9.963294899
9.963293616
9.96329379
9.963293089
9.963290936
9.963292707
9.963293027
9.963291428
9.963283189
9.963236234
9.963236634
9.963237978
9.963237467
9.9632382
9.96323818
9.963238639
9.963239121
9.963240032
9.963241185
9.96324098
9.963237555
9.963228596
9.963198407
9.963267987
9.963268717
9.963267214
9.96326806
9.963269849
9.963268803
9.963266471
9.96326698
9.963267103
9.963266662
9.963265317
9.96325812
9.963228673
9.963095224
9.963253198
9.963253269
9.963252897
9.963253789
9.963252953
9.963253912
9.963252016
9.963251723
9.96325233
9.963252327
9.963250057
9.963238456
9.963162132
9.962669378
10.01036334
9.963241861
9.963242298
9.963241162
9.963242731
9.963243528
9.963244864
9.963243495
9.963243876
9.963242969
9.963241792
9.963240998
9.963234506
9.963204188
9.963073602
9.962657986
9.963272676
9.963271818
9.963270333
9.963268699
9.963267658
9.963268763
9.963268326
9.963268054
9.963267872
9.963267013
9.963266262
9.963263662
9.963253573
9.963221537
9.963143877
9.963306596
9.963306855
9.96330602
9.963306481
9.963305562
9.963304501
9.963304589
9.9633043
9.96330253
9.963301994
9.963302499
9.963301597
9.96329935
9.963292012
9.963275713
9.963306085
9.963305071
9.963305273
9.963304588
9.96330483
9.963305013
9.963304881
9.963304727
9.963305592
9.963306227
9.963305905
9.963307418
9.963307201
9.963304279
9.963298922
9.963314088
9.963312474
9.963312059
9.963312274
9.963312433
9.963312235
9.963312674
9.963313229
9.963313973
9.963314192
9.963314622
9.963313283
9.963311737
9.963310496
9.963302105
9.96330166
9.963300598
9.963300322
9.963300878
9.963300363
9.963300146
9.963299812
9.96330071
9.963300097
9.963299929
9.963299922
9.963295915
9.963290033
9.963300238
9.963300534
9.963300572
9.963300682
9.963300685
9.963300194
9.963301309
9.963299935
9.963299017
9.963300005
9.96329875
9.963298154
9.963293629
9.963276619
9.963271678
9.963270777
9.963270717
9.963270621
9.963270249
9.963270571
9.963269493
9.963270447
9.963271485
9.963271779
9.963270066
9.963266033
9.963249804
9.963195671
9.963269473
9.963268949
9.963269759
9.963269514
9.96326994
9.963270815
9.963271502
9.963271134
9.96327172
9.963270417
9.96326933
9.963263123
9.96323257
9.963100449
9.963283734
9.96328366
9.963283477
9.963283637
9.963284508
9.963282571
9.963282935
9.963283241
9.963283591
9.963283175
9.96328128
9.963275475
9.963260916
9.963206472
9.963278451
9.963278713
9.963278748
9.963279016
9.963278156
9.96327792
9.96327725
9.963278119
9.963278304
9.963277458
9.963275938
9.963274434
9.963268557
9.963251867
9.963216974
9.963302382
9.963301622
9.963300575
9.963300856
9.963298881
9.963298622
9.963299888
9.963299088
9.96330112
9.963301212
9.963301228
9.963299715
9.963297355
9.963291581
9.963281813
9.963283536
9.963283143
9.963284151
9.963284894
9.963285461
9.963284533
9.963283826
9.963283219
9.963282908
9.963282727
9.963283119
9.963282105
9.963282287
9.963281266
9.963278597
9.963279781
9.963280279
9.963280358
9.963279869
9.963280001
9.963279536
9.963278979
9.963278471
9.963278898
9.963279104
9.963278136
9.963278637
9.963278667
9.963277818
9.963259635
9.963260055
9.963259173
9.963259667
9.963259652
9.963259666
9.963259929
9.963260155
9.963260811
9.963260636
9.963259277
9.963260286
9.963259645
9.9632568
9.963232215
9.96323249
9.963233393
9.963232919
9.963233873
9.963234507
9.963235537
9.963234342
9.963232951
9.963233518
9.963231722
9.963232857
9.963231358
9.963225771
9.963260401
9.963260796
9.963260044
9.96325819
9.963259623
9.963261039
9.963261868
9.963260625
9.963260071
9.963260271
9.963259391
9.963258017
9.963252119
9.963233798
9.963291137
9.963291695
9.963292195
9.963293205
9.963292243
9.963292512
9.963292506
9.963292914
9.963292861
9.963293655
9.963292518
9.963290293
9.963280692
9.963249548
9.963290162
9.963289207
9.96329011
9.963290132
9.963290675
9.963289088
9.963289275
9.963290277
9.963290881
9.963290851
9.96329079
9.963290169
9.963282632
9.963265662
9.963267217
9.963265947
9.963265312
9.963266753
9.963266673
9.963268083
9.963269046
9.963267257
9.963267101
9.963267169
9.963268
9.963267192
9.963264082
9.963257826
9.963263725
9.963263169
9.963262186
9.96326352
9.963263824
9.963262993
9.963262958
9.963264017
9.963264468
9.963265375
9.96326523
9.963264341
9.963262941
9.963259196
9.963254635
9.96327826
9.963277785
9.963278387
9.963277897
9.963277223
9.96327738
9.963276982
9.963277304
9.96327644
9.96327753
9.963276127
9.963276635
9.963275666
9.963274802
9.963272803
9.963261615
9.963263002
9.963262473
9.963263315
9.963263967
9.963263037
9.963263289
9.963263147
9.963263304
9.963262494
9.963263011
9.963263449
9.963264395
9.963264576
9.963289722
9.963290382
9.963289932
9.963290635
9.963290353
9.963291216
9.963289839
9.963290295
9.963290445
9.963290128
9.963289284
9.9632893
9.963287849
9.963286723
9.963296997
9.963296946
9.963296645
9.963297764
9.963297406
9.963298066
9.963298151
9.963297316
9.963297235
9.963297273
9.963297539
9.963296921
9.963296932
9.963293259
9.96328087
9.963280823
9.963281431
9.963282345
9.963283094
9.963282407
9.963282556
9.963281795
9.963281621
9.963280958
9.963280657
9.963279544
9.963277258
9.963271451
9.963251805
9.963251352
9.963251022
9.963250713
9.963250897
9.963250355
9.96325004
9.963250003
9.963250867
9.963249883
9.963249397
9.963248113
9.963246467
9.963240286
9.963272227
9.963273397
9.963274058
9.96327433
9.963274396
9.963273644
9.963274708
9.963275113
9.963274104
9.963273979
9.963275206
9.963274036
9.963270513
9.96326421
9.963252331
9.963252767
9.963252804
9.963253829
9.963253483
9.963253317
9.96325454
9.96325469
9.963255458
9.963256466
9.963255779
9.963255984
9.963254891
9.963252837
9.963256195
9.963256424
9.963257134
9.963257138
9.963257491
9.963256625
9.963255243
9.963253374
9.963254522
9.963255115
9.963257262
9.963257611
9.963257704
9.963255988
9.9632575
9.963257174
9.963256266
9.963256634
9.963256311
9.963255446
9.963255239
9.963255721
9.963255765
9.963256074
9.963255699
9.963254139
9.963254064
9.963254034
9.963253138
9.963295412
9.963295516
9.963295662
9.963295561
9.963294751
9.963294659
9.963295366
9.963294978
9.963294777
9.963294083
9.96329476
9.963295055
9.963295063
9.963294068
9.963277739
9.963276854
9.963277136
9.963277304
9.963275961
9.963276693
9.963275613
9.963276528
9.963275504
9.963276573
9.963275715
9.963274929
9.963274291
9.963274615
9.963271856
9.963272503
9.963272727
9.963272577
9.963271591
9.963271229
9.963270654
9.96327025
9.963270384
9.963269808
9.963269783
9.963268996
9.963268813
9.963267911
9.96326456
9.963264405
9.963264699
9.963264618
9.963264432
9.963264196
9.963263819
9.963263528
9.963263887
9.963263876
9.963262638
9.963262432
9.963262742
9.963262
9.963278889
9.963278812
9.963276893
9.963275284
9.963275044
9.963276187
9.963275751
9.963276945
9.963276047
9.963275857
9.96327526
9.963274102
9.963273794
9.963271834
9.963238069
9.963239348
9.963239877
9.963240299
9.963240922
9.963240617
9.963240878
9.963240106
9.963238972
9.963239158
9.963238056
9.96323832
9.963238202
9.963236072
9.963262125
9.963261774
9.963262402
9.963262432
9.963263092
9.963263104
9.963262447
9.963262849
9.963261942
9.963261881
9.963262094
9.963261759
9.963261868
9.963260234
9.963312328
9.963312596
9.96331318
9.963312778
9.963313226
9.963313823
9.963314097
9.96331485
9.96331634
9.96331573
9.963316155
9.963315052
9.963313647
9.963314239
9.963283385
9.963284221
9.963284095
9.963283384
9.963283962
9.963284107
9.96328482
9.963285249
9.963285823
9.963285352
9.963285458
9.963285239
9.963285096
9.963284694
)
;

boundaryField
{
    top
    {
        type            calculated;
        value           nonuniform List<scalar> 
134
(
9.963279698
9.963249038
9.96328687
9.963268067
9.963306085
9.963283536
9.96327826
9.9632575
9.963283385
9.963279872
9.963249072
9.963287798
9.963269078
9.963305071
9.963283143
9.963277785
9.963257174
9.963284221
9.963279408
9.963248866
9.96328742
9.963269755
9.963305273
9.963284151
9.963278387
9.963256266
9.963284095
9.963279324
9.963249108
9.963287223
9.963270239
9.963304588
9.963284894
9.963277897
9.963256634
9.963283384
9.963278336
9.963250182
9.963286965
9.963271527
9.96330483
9.963285461
9.963277223
9.963256311
9.963283962
9.963278602
9.963249618
9.963286951
9.96327189
9.963305013
9.963284533
9.96327738
9.963255446
9.963284107
9.963278126
9.963249212
9.963288029
9.963272667
9.963304881
9.963283826
9.963276982
9.963255239
9.96328482
9.96327914
9.963249874
9.963287032
9.963271481
9.963304727
9.963283219
9.963277304
9.963255721
9.963285249
9.96327901
9.963249241
9.963288235
9.963271136
9.963305592
9.963282908
9.96327644
9.963255765
9.963285823
9.963278331
9.963249592
9.96328727
9.963270767
9.963306227
9.963282727
9.96327753
9.963256074
9.963285352
9.963278322
9.963249849
9.963287906
9.963269601
9.963305905
9.963283119
9.963276127
9.963255699
9.963285458
9.963277648
9.963248563
9.963286881
9.963268573
9.963307418
9.963282105
9.963276635
9.963254139
9.963285239
9.963277733
9.963248339
9.963287857
9.963266546
9.963307201
9.963282287
9.963275666
9.963254064
9.963285096
9.963277987
9.963248002
9.963288466
9.963264456
9.963304279
9.963281266
9.963274802
9.963254034
9.963284694
9.963277013
9.963247051
9.963287416
9.963261328
9.963298922
9.963278597
9.963272803
9.963253138
)
;
    }
    bottom
    {
        type            calculated;
        value           nonuniform List<scalar> 
127
(
9.963275953
9.963265164
9.963277786
9.963291111
9.963258538
9.963314088
9.963279781
9.963261615
9.963295412
9.963276041
9.963265004
9.963278089
9.963290909
9.963259805
9.963312474
9.963280279
9.963263002
9.963295516
9.963276544
9.963265723
9.963278255
9.963291203
9.963260928
9.963312059
9.963280358
9.963262473
9.963295662
9.963275647
9.963266284
9.96327956
9.963292081
9.96325955
9.963312274
9.963279869
9.963263315
9.963295561
9.963275986
9.963266504
9.963278763
9.963291501
9.963261121
9.963312433
9.963280001
9.963263967
9.963294751
9.963276981
9.963266364
9.963278489
9.963290139
9.96326184
9.963312235
9.963279536
9.963263037
9.963294659
9.96327802
9.963266872
9.963278062
9.963290097
9.963261971
9.963312674
9.963278979
9.963263289
9.963295366
9.963277379
9.963265975
9.963279164
9.963291221
9.96326114
9.963313229
9.963278471
9.963263147
9.963294978
9.963277371
9.963265724
9.963279849
9.963291042
9.963261178
9.963313973
9.963278898
9.963263304
9.963294777
9.96327675
9.963265584
9.963279716
9.963292048
9.963261931
9.963314192
9.963279104
9.963262494
9.963294083
9.963275639
9.963265649
9.963280333
9.963292016
9.963261936
9.963314622
9.963278136
9.963263011
9.96329476
9.963275812
9.963266056
9.963279526
9.96329159
9.96326106
9.963313283
9.963278637
9.963263449
9.963295055
9.963276549
9.963264859
9.963279648
9.963290561
9.963260171
9.963311737
9.963278667
9.963264395
9.963295063
9.963276431
9.963264623
9.963278982
9.963287843
9.96325815
9.963310496
9.963277818
9.963264576
9.963294068
9.963275687
)
;
    }
    side-walls
    {
        type            calculated;
        value           nonuniform List<scalar> 
261
(
9.963275953
9.963276005
9.963309467
9.963225065
9.963237702
9.963328438
9.963287713
9.963261684
9.963279698
9.963276041
9.963273677
9.963308866
9.963225585
9.963237387
9.963328084
9.963289363
9.963260372
9.963279872
9.963276544
9.963273806
9.963309003
9.96322494
9.963237091
9.963328812
9.963290253
9.963260316
9.963279408
9.963275647
9.963273483
9.963308158
9.963225377
9.963238319
9.963329377
9.963290272
9.963261311
9.963279324
9.963275986
9.963272996
9.963308861
9.963225505
9.963238237
9.963329607
9.963290609
9.963261092
9.963278336
9.963276981
9.963272574
9.963308632
9.963225763
9.963237809
9.963330246
9.963288237
9.963261883
9.963278602
9.96327802
9.963271311
9.963309011
9.963224658
9.963237678
9.963329381
9.963288547
9.963262064
9.963278126
9.963277379
9.9632712
9.963309345
9.963224772
9.963238195
9.963328851
9.963287809
9.963261582
9.96327914
9.963277371
9.963272123
9.963309762
9.963225125
9.963238298
9.963329252
9.963287409
9.963262328
9.96327901
9.96327675
9.963271898
9.963310256
9.963224362
9.963238345
9.963329025
9.963288685
9.963262473
9.963278331
9.963275639
9.963270286
9.963309589
9.963224976
9.963239072
9.963329016
9.963287579
9.96326131
9.963278322
9.963275812
9.963270077
9.963307489
9.963225346
9.963238573
9.96332883
9.96328729
9.963262719
9.963277648
9.963276549
9.963270276
9.963307657
9.963225008
9.963238027
9.963327763
9.963286568
9.963262056
9.963277733
9.963276431
9.963268708
9.963306424
9.963222767
9.963234506
9.963325639
9.963285183
9.963261426
9.963277987
9.963275687
9.963267405
9.96330461
9.963220056
9.96322974
9.963322524
9.963281756
9.963260839
9.963277013
9.963295412
9.963277739
9.963271856
9.96326456
9.963278889
9.963238069
9.963262125
9.963312328
9.963283385
9.963295516
9.963276854
9.963272503
9.963264405
9.963278812
9.963239348
9.963261774
9.963312596
9.963284221
9.963295662
9.963277136
9.963272727
9.963264699
9.963276893
9.963239877
9.963262402
9.96331318
9.963284095
9.963295561
9.963277304
9.963272577
9.963264618
9.963275284
9.963240299
9.963262432
9.963312778
9.963283384
9.963294751
9.963275961
9.963271591
9.963264432
9.963275044
9.963240922
9.963263092
9.963313226
9.963283962
9.963294659
9.963276693
9.963271229
9.963264196
9.963276187
9.963240617
9.963263104
9.963313823
9.963284107
9.963295366
9.963275613
9.963270654
9.963263819
9.963275751
9.963240878
9.963262447
9.963314097
9.96328482
9.963294978
9.963276528
9.96327025
9.963263528
9.963276945
9.963240106
9.963262849
9.96331485
9.963285249
9.963294777
9.963275504
9.963270384
9.963263887
9.963276047
9.963238972
9.963261942
9.96331634
9.963285823
9.963294083
9.963276573
9.963269808
9.963263876
9.963275857
9.963239158
9.963261881
9.96331573
9.963285352
9.96329476
9.963275715
9.963269783
9.963262638
9.96327526
9.963238056
9.963262094
9.963316155
9.963285458
9.963295055
9.963274929
9.963268996
9.963262432
9.963274102
9.96323832
9.963261759
9.963315052
9.963285239
9.963295063
9.963274291
9.963268813
9.963262742
9.963273794
9.963238202
9.963261868
9.963313647
9.963285096
9.963294068
9.963274615
9.963267911
9.963262
9.963271834
9.963236072
9.963260234
9.963314239
9.963284694
)
;
    }
    inlet
    {
        type            calculated;
        value           nonuniform List<scalar> 
81
(
9.963275953
9.963276005
9.963309467
9.963225065
9.963237702
9.963328438
9.963287713
9.963261684
9.963279698
9.963265164
9.96326442
9.963255328
9.963265241
9.963267473
9.963257016
9.96322851
9.963287223
9.963249038
9.963277786
9.963304659
9.963280046
9.96328828
9.963225674
9.963310339
9.96326778
9.963276044
9.96328687
9.963291111
9.963286006
9.963303012
9.963294125
9.963283021
9.96328321
9.963291317
9.963242889
9.963268067
9.963258538
9.963293382
9.963236234
9.963267987
9.963253198
9.963241861
9.963272676
9.963306596
9.963306085
9.963314088
9.963302105
9.963300238
9.963271678
9.963269473
9.963283734
9.963278451
9.963302382
9.963283536
9.963279781
9.963259635
9.963232215
9.963260401
9.963291137
9.963290162
9.963267217
9.963263725
9.96327826
9.963261615
9.963289722
9.963296997
9.96328087
9.963251805
9.963272227
9.963252331
9.963256195
9.9632575
9.963295412
9.963277739
9.963271856
9.96326456
9.963278889
9.963238069
9.963262125
9.963312328
9.963283385
)
;
    }
    outlet
    {
        type            calculated;
        value           nonuniform 0();
    }
    procBoundary0to1
    {
        type            processor;
        value           nonuniform List<scalar> 
97
(
9.96327416
9.96326284
9.963265601
9.963300015
9.963214755
9.963222907
9.963316891
9.963278667
9.963258311
9.963276452
9.96326284
9.96326284
9.963255444
9.963296177
9.96323806
9.963233857
9.963222222
9.963226791
9.963209283
9.963288432
9.963244469
9.963276613
9.963296177
9.963296177
9.963240988
9.963238459
9.963187061
9.963053849
9.963204468
9.963222463
9.963260627
9.963285146
9.963283657
9.963262515
9.963238459
9.963238459
9.962993665
9.962679258
9.96262811
9.962981147
9.963192611
9.963214346
9.963254368
9.963253496
9.963265588
9.963121063
9.962679258
9.962679258
10.01200577
9.962683859
9.96258777
9.9630688
9.963085524
9.963255665
9.963291689
9.963306634
9.963280952
9.96324084
9.963059779
9.962683859
9.9630688
9.9630688
9.963176822
9.963245985
9.963268537
9.963273744
9.963275596
9.963249846
9.963211425
9.963197665
9.963174025
9.9632275
9.963245985
9.963245985
9.963246203
9.96325341
9.963267767
9.963263881
9.963284722
9.963287813
9.963262564
9.963222798
9.96325416
9.963248452
9.96325341
9.96325341
9.963251334
9.963283721
9.963293325
9.963273883
9.963266765
9.96325821
9.963266906
9.963231196
9.963258016
9.963313563
9.963283721
)
;
    }
}


// ************************************************************************* //
