/*--------------------------------*- C++ -*----------------------------------*\
| =========                 |                                                 |
| \\      /  F ield         | OpenFOAM: The Open Source CFD Toolbox           |
|  \\    /   O peration     | Version:  4.x                                   |
|   \\  /    A nd           | Web:      www.OpenFOAM.org                      |
|    \\/     M anipulation  |                                                 |
\*---------------------------------------------------------------------------*/
FoamFile
{
    version     2.0;
    format      ascii;
    class       surfaceScalarField;
    location    "5000";
    object      phi;
}
// * * * * * * * * * * * * * * * * * * * * * * * * * * * * * * * * * * * * * //

dimensions      [1 0 -1 0 0 0 0];

internalField   nonuniform List<scalar> 
3175
(
9.428244929e-06
4.501708287e-13
-2.051412917e-13
9.428246238e-06
1.859935606e-12
4.797341028e-13
9.428245464e-06
-3.133363077e-13
-2.175127042e-13
9.42824431e-06
-2.468447689e-12
1.363011624e-13
9.428248832e-06
-1.196025172e-12
1.449202612e-12
9.428247353e-06
-2.270260284e-13
6.104004081e-13
9.428248327e-06
-7.46409519e-13
-1.562153208e-12
9.428253111e-06
-1.512839407e-12
-3.194040199e-12
9.428261929e-06
-3.017263733e-12
-3.441296031e-12
9.428267667e-06
-4.506660635e-12
-6.438847531e-12
9.428283044e-06
-5.886327009e-12
-9.002128025e-12
9.428300819e-06
-9.765331334e-12
-1.152184293e-11
9.428338109e-06
-1.94662955e-11
-2.014326461e-11
9.428373988e-06
-1.689095118e-11
-1.706105966e-11
-4.454124956e-11
9.42824528e-06
8.904464976e-13
-1.195365506e-13
9.428243193e-06
-5.095815639e-13
-1.592438915e-12
9.428243503e-06
1.147776037e-12
1.179335715e-13
9.428244586e-06
1.139591534e-12
1.766510959e-12
9.428244275e-06
5.415991037e-13
-1.779583906e-13
9.42824373e-06
-9.86724951e-14
-1.439019852e-12
9.428244274e-06
3.426632386e-13
-1.658937069e-12
9.428247174e-06
-2.980911725e-12
-2.053656633e-12
9.428252342e-06
-5.520414161e-12
-3.263159819e-12
9.428259954e-06
-8.266848229e-12
-5.610150361e-12
9.428270074e-06
-1.498203982e-11
-1.00646276e-11
9.428288756e-06
-1.913590942e-11
-1.276722874e-11
9.428327873e-06
-3.473723003e-11
-2.222657241e-11
9.428358573e-06
-3.404119649e-11
-2.1506087e-11
-8.713481748e-11
-6.856852692e-11
9.428276063e-06
-6.149327117e-15
-4.052840925e-13
9.428276917e-06
-1.363087375e-13
5.095835324e-13
9.428276224e-06
5.038258433e-13
5.564205824e-13
9.428278034e-06
-1.291759945e-12
-2.77979048e-13
9.428277875e-06
1.843561416e-13
-1.319811864e-12
9.428275122e-06
-5.430972226e-13
-3.061696012e-12
9.428276823e-06
7.308768448e-14
-7.708645292e-13
9.428281314e-06
-5.382285067e-13
-1.44274697e-12
9.428283247e-06
-1.403279055e-12
-3.279762752e-12
9.428289361e-06
-5.558860915e-12
-5.124885717e-12
9.428296319e-06
-1.099573858e-11
-8.92685858e-12
9.428308626e-06
-1.701537839e-11
-1.78423856e-11
9.428343142e-06
-3.336219444e-11
-3.376012862e-11
9.428376442e-06
-3.492183126e-11
-3.747976682e-11
-1.059712304e-10
-1.470747653e-10
9.4281968e-06
-2.179672095e-12
-1.336457695e-13
9.428198197e-06
-2.375414151e-12
4.34642325e-13
9.428196154e-06
-2.584874335e-12
-3.566322708e-13
9.428200677e-06
1.067232402e-12
9.174810616e-13
9.428198811e-06
-1.700521566e-12
-9.679055075e-13
9.428196759e-06
-3.588937501e-12
-8.961508968e-13
9.428195337e-06
-2.749354023e-12
-2.21596415e-12
9.4281972e-06
-1.647535595e-12
-1.379707252e-12
9.428199672e-06
-2.489958195e-12
-3.004523082e-12
9.42820577e-06
-3.795996452e-12
-5.260456268e-12
9.428212479e-06
-6.095760408e-12
-6.509117361e-12
9.428226364e-06
-1.3920443e-11
-1.960387541e-11
9.428257834e-06
-2.898616476e-11
-3.12637146e-11
9.428299703e-06
-3.682279268e-11
-3.805844755e-11
-9.870649469e-11
-2.192623652e-10
9.428209061e-06
-3.660960305e-13
5.169415914e-13
9.428208672e-06
-8.187330435e-13
8.99484323e-13
9.428211348e-06
1.946329119e-13
5.464864788e-13
9.428208529e-06
4.558487909e-13
-4.62858252e-13
9.428207815e-06
-2.326811005e-13
-5.003219179e-14
9.428209924e-06
6.519075987e-13
1.641683712e-12
9.428208636e-06
8.189451456e-13
-1.501902912e-12
9.428209718e-06
1.990435401e-12
-2.515947181e-12
9.428208876e-06
3.259675371e-12
-2.754416727e-12
9.42820963e-06
5.636242676e-12
-6.930860358e-12
9.428204766e-06
9.018469098e-12
-1.126633632e-11
9.428209089e-06
1.421200313e-11
-3.239375962e-11
9.428218671e-06
2.860649531e-11
-6.358499641e-11
9.42825298e-06
3.520465829e-11
-1.072775587e-10
9.715386917e-11
-5.391424101e-10
9.428294648e-06
-1.472961407e-12
3.63745384e-13
9.428296504e-06
1.284215904e-13
1.499269562e-12
9.428296646e-06
-6.096606706e-13
9.477804322e-13
9.428294379e-06
-2.374229577e-12
-1.542664704e-12
9.42829602e-06
-4.99405116e-13
4.05615704e-14
9.428296015e-06
-3.532171958e-13
7.636179147e-14
9.428296699e-06
-4.301392105e-13
-6.284278608e-13
9.428296511e-06
1.161285988e-12
-3.519722601e-12
9.428298816e-06
3.607444116e-12
-2.483956857e-12
9.428302052e-06
5.002634572e-12
-5.98075468e-12
9.428307161e-06
9.262840839e-12
-8.161857333e-12
9.428324263e-06
1.500791451e-11
-1.744254227e-11
9.428351059e-06
3.196245987e-11
-3.205849489e-11
9.428397155e-06
3.323535161e-11
-3.858050384e-11
1.039536489e-10
-2.200132907e-10
9.428257544e-06
-1.189621621e-12
-4.857046065e-13
9.428258983e-06
-1.139362773e-12
7.916471639e-13
9.42825749e-06
-1.491424487e-12
4.719687392e-14
9.428258295e-06
-1.807379213e-12
-1.808895352e-13
9.428259197e-06
6.774411458e-13
-1.317762335e-13
9.428258005e-06
9.599933163e-13
7.206869586e-13
9.42826039e-06
1.048159062e-12
1.657536994e-13
9.428260367e-06
3.348553144e-12
-4.656147201e-13
9.428263014e-06
4.535277222e-12
-1.447312238e-12
9.428267227e-06
5.384964886e-12
-3.319549431e-12
9.428272187e-06
1.054710675e-11
-7.97056237e-12
9.428288789e-06
1.783184882e-11
-1.475755218e-11
9.42832005e-06
3.193649258e-11
-3.383289184e-11
9.428358144e-06
3.314229172e-11
-3.462677837e-11
8.779131088e-11
-1.452591585e-10
9.428230354e-06
-1.30961467e-12
1.0998148e-13
9.42823269e-06
3.023999953e-13
7.139450948e-13
9.42823019e-06
4.678615941e-13
-3.327349788e-13
9.428235351e-06
1.550198301e-12
-8.182437979e-13
9.428233043e-06
4.340066026e-13
-1.322248873e-12
9.428233555e-06
1.456622107e-12
-3.027670327e-13
9.428237226e-06
2.88995962e-12
-6.10274285e-13
9.428236237e-06
2.135107292e-12
-1.39264445e-12
9.42824106e-06
1.732032036e-12
-2.115014462e-12
9.428249723e-06
3.576224562e-12
-2.593131876e-12
9.428263606e-06
6.788770357e-12
-6.040075558e-12
9.428278807e-06
8.794538548e-12
-1.033950918e-11
9.428319799e-06
1.952496028e-11
-2.070343455e-11
9.428356538e-06
1.882633432e-11
-1.964245406e-11
4.607219608e-11
-6.772189812e-11
9.428249731e-06
5.556059235e-13
9.42825059e-06
-1.134688861e-12
9.428250044e-06
-1.632048807e-12
9.428251116e-06
-7.128733853e-13
9.428250648e-06
-1.085959572e-12
9.428253087e-06
-1.329286927e-12
9.428251943e-06
-2.299898037e-12
9.428252904e-06
-2.102993127e-12
9.42825914e-06
-1.85200964e-12
9.428268171e-06
-2.296142795e-12
9.42828259e-06
-5.238219572e-12
9.428301916e-06
-7.3060988e-12
9.428342404e-06
-1.657767777e-11
9.428377994e-06
-1.751957269e-11
-4.628920421e-11
9.428235667e-06
3.531378829e-14
-2.312406396e-13
9.428235178e-06
9.24817822e-13
1.057691112e-14
9.428234905e-06
2.560231486e-13
1.074335014e-13
9.428237007e-06
5.296961857e-13
4.917441111e-13
9.428238311e-06
-1.9734196e-12
9.487738732e-13
9.428236628e-06
-1.276614786e-12
4.38856821e-13
9.428239003e-06
-6.595152596e-13
-5.534942953e-13
9.428243344e-06
-5.159554499e-13
5.6079311e-14
9.428247666e-06
-2.906675421e-12
-3.775273359e-12
9.428253856e-06
-4.720291195e-12
-7.617923063e-12
9.42826756e-06
-7.071480712e-12
-1.285256155e-11
9.428284826e-06
-1.104706863e-11
-1.778656385e-11
9.428321796e-06
-2.225905925e-11
-3.431183934e-11
-2.103724968e-11
-3.262438409e-11
9.428235153e-06
5.037932173e-13
-4.184153868e-13
9.428233805e-06
8.343665353e-13
-3.683014507e-13
9.428234339e-06
5.297349381e-13
-2.626760121e-13
9.428232972e-06
-1.295337179e-12
-6.741538009e-13
9.428235925e-06
-2.294756588e-13
1.394469242e-12
9.42823641e-06
-2.942315461e-13
2.164970862e-13
9.42823589e-06
-1.639437126e-13
-9.768270606e-13
9.428238246e-06
-2.017175459e-12
-2.279459793e-12
9.428241894e-06
-4.433791787e-12
-2.819793418e-12
9.428249848e-06
-7.52901757e-12
-6.165787527e-12
9.428258595e-06
-1.269200446e-11
-1.252681757e-11
9.428276604e-06
-2.116955062e-11
-2.014336651e-11
9.428308929e-06
-4.206612851e-11
-4.099879945e-11
9.428347482e-06
-4.182766701e-11
-4.08114794e-11
-1.402953124e-10
9.428226005e-06
3.406746272e-13
-9.440846339e-13
9.42822388e-06
-1.146366721e-12
-4.102896173e-13
9.428222544e-06
-1.003816711e-12
-1.041139489e-12
9.428226196e-06
7.968865745e-13
-5.445239668e-13
9.428226728e-06
7.051609994e-13
5.999611079e-13
9.428227307e-06
1.32404908e-13
-1.645559145e-12
9.428226652e-06
-2.488314879e-14
-1.775073784e-12
9.428226453e-06
-6.270587375e-13
-1.770964047e-12
9.428229283e-06
-2.614123356e-12
-3.150715403e-12
9.428233404e-06
-6.57844566e-12
-8.748324982e-12
9.42823337e-06
-1.205571732e-11
-1.514727797e-11
9.428248027e-06
-2.116301467e-11
-3.138488877e-11
9.428274178e-06
-3.957668101e-11
-5.989946016e-11
9.428316425e-06
-4.357183025e-11
-7.542868898e-11
-1.970464832e-10
-3.274075828e-10
9.428234001e-06
-1.150853785e-12
-5.877157761e-13
9.428235169e-06
-1.55097323e-12
4.054499229e-13
9.428233484e-06
-1.450567635e-12
5.091148572e-13
9.42823468e-06
-4.601317802e-13
5.93655389e-13
9.428235619e-06
-1.914715941e-13
-7.100262552e-13
9.428234131e-06
-8.961835805e-13
-2.611628227e-12
9.428235205e-06
-2.026026102e-12
-1.920657587e-12
9.428233551e-06
-2.945461524e-12
-2.90290599e-12
9.428236961e-06
-1.802087659e-12
-4.03537529e-12
9.428241424e-06
-3.79273333e-12
-9.70374969e-12
9.42824391e-06
-7.39468702e-12
-1.060253979e-11
9.428262652e-06
-1.816720601e-11
-3.58531082e-11
9.42827858e-06
-4.246005595e-11
-4.564256606e-11
9.428349659e-06
-6.125096198e-11
-9.35609569e-11
-1.950952727e-10
-5.186733727e-10
9.428237736e-06
-9.918545691e-13
2.010582824e-13
9.428236986e-06
-1.28311428e-12
8.58448162e-13
9.42824031e-06
6.696587024e-13
3.146428524e-13
9.428237911e-06
-7.47551308e-13
1.517550856e-13
9.428240018e-06
-8.021550476e-13
5.580453512e-13
9.428240087e-06
-5.660288233e-13
-1.331302624e-12
9.428240725e-06
8.86354641e-13
-1.190978524e-13
9.428238288e-06
1.049520659e-12
-3.020154621e-12
9.428234821e-06
2.630327496e-12
-5.053347605e-12
9.428232803e-06
5.579215538e-12
-1.506362343e-11
9.42821775e-06
8.911562015e-12
-1.903915034e-11
9.428213422e-06
1.951122456e-11
-6.984459213e-11
9.428174742e-06
4.119647371e-11
-1.060376224e-10
9.428245766e-06
5.80543545e-11
-2.966839313e-10
1.919918616e-10
-1.522302208e-09
9.428227513e-06
-2.259349902e-12
2.122425629e-14
9.428229239e-06
-6.553542716e-13
-8.874984977e-16
9.428228537e-06
-8.79241119e-13
-5.394478364e-13
9.42822753e-06
-9.99216508e-13
-5.539312892e-13
9.428230258e-06
-1.776964553e-14
8.576402603e-13
9.428230037e-06
6.896746342e-13
3.043219959e-13
9.428229656e-06
1.111530469e-12
-3.659414408e-13
9.428232103e-06
4.108482672e-12
-2.663948344e-12
9.428231096e-06
4.566222517e-12
-4.280288247e-12
9.428234011e-06
7.359236079e-12
-1.103982852e-11
9.428235364e-06
1.166223594e-11
-1.192658548e-11
9.428253508e-06
1.95853834e-11
-3.842011447e-11
9.428270249e-06
3.874300195e-11
-4.782581856e-11
9.428342728e-06
4.368007615e-11
-9.284740488e-11
1.963846404e-10
-5.169074603e-10
9.428201714e-06
-7.238229155e-13
8.178198266e-13
9.428200572e-06
-8.249137344e-13
7.309615649e-13
9.428198732e-06
-1.007524028e-12
4.526800746e-13
9.428199447e-06
-2.150346817e-12
4.582099967e-13
9.428200783e-06
-1.408057012e-12
-6.998884492e-13
9.428200849e-06
4.493563443e-13
-1.220850188e-12
9.428200629e-06
1.725276781e-13
-1.206152115e-12
9.428201794e-06
2.135579406e-12
-3.587935658e-12
9.42820187e-06
3.764165287e-12
-5.029549657e-12
9.428204743e-06
6.269463205e-12
-1.006938568e-11
9.428206391e-06
1.237007882e-11
-1.518413189e-11
9.428220041e-06
2.095446629e-11
-3.254272623e-11
9.428245451e-06
4.14582831e-11
-5.959249248e-11
9.428289147e-06
4.045849812e-11
-7.409853296e-11
1.417357476e-10
-3.238129081e-10
9.428256272e-06
-1.081126053e-12
3.005995316e-13
9.428258431e-06
-1.731401486e-12
1.604442944e-12
9.42825807e-06
1.669038183e-13
1.141486963e-12
9.428259979e-06
5.044095462e-13
1.7857553e-12
9.428260996e-06
1.109531556e-13
1.225113795e-12
9.428260415e-06
2.305085315e-13
-5.454168812e-13
9.428263831e-06
2.647383925e-13
-1.423877142e-12
9.428266084e-06
1.181320613e-12
-3.812934462e-12
9.428268355e-06
2.086252632e-12
-5.109986062e-12
9.428275873e-06
3.625061414e-12
-7.502856956e-12
9.428284368e-06
6.018946346e-12
-1.279263739e-11
9.428303795e-06
1.117037069e-11
-2.060218678e-11
9.428338682e-06
2.313788146e-11
-4.048705927e-11
9.428379853e-06
2.07096663e-11
-3.960590862e-11
6.730726903e-11
-1.396442107e-10
9.428220559e-06
7.428158244e-13
9.42822211e-06
1.485510995e-12
9.428220688e-06
8.254650758e-13
9.428221673e-06
1.077070975e-12
9.428222734e-06
-7.537046211e-14
9.428222114e-06
-8.861752945e-13
9.428225204e-06
-1.397324643e-12
9.428223593e-06
-2.35548181e-12
9.428228493e-06
-4.143582268e-12
9.428236371e-06
-4.512244855e-12
9.428250407e-06
-9.501791291e-12
9.428268002e-06
-1.590294077e-11
9.428304094e-06
-3.28670601e-11
9.428341674e-06
-3.252729998e-11
-8.522437447e-11
9.428247626e-06
2.902424539e-13
1.258496149e-12
9.428247698e-06
1.51921096e-13
4.960781569e-13
9.428246002e-06
-8.161183842e-13
-3.497671183e-13
9.428248685e-06
-1.669107766e-12
-1.44543738e-13
9.428249605e-06
-2.295235998e-12
6.036594908e-13
9.428247974e-06
-1.155615552e-12
-8.77870827e-13
9.428250493e-06
-1.361206877e-12
-2.488353314e-13
9.428250921e-06
-2.404843865e-12
-1.387289478e-12
9.428256295e-06
-1.830071417e-12
-2.048240917e-12
9.42826029e-06
-4.182228198e-12
-4.287217039e-12
9.428267418e-06
-7.925015766e-12
-1.00458605e-11
9.42828157e-06
-1.448392245e-11
-1.772263497e-11
9.428316158e-06
-3.310169817e-11
-3.27785056e-11
-3.639499918e-11
-3.397956714e-11
9.428273289e-06
-2.5734339e-13
-4.118955179e-13
9.428272986e-06
8.636215691e-15
8.563119117e-13
9.428272194e-06
-1.548599697e-13
3.756278835e-13
9.428272958e-06
-2.096030892e-12
4.114124068e-13
9.428272997e-06
-1.766233992e-12
3.511671111e-13
9.428273203e-06
-2.862132404e-12
3.42600324e-13
9.428273913e-06
-2.242554594e-12
8.534630357e-13
9.428275369e-06
-2.6355591e-12
-6.431175141e-13
9.428275781e-06
-4.023681751e-12
-1.979818205e-12
9.428277247e-06
-1.005926434e-11
-6.859252742e-12
9.428282748e-06
-1.569983452e-11
-1.019238785e-11
9.428295447e-06
-3.275079194e-11
-2.150093173e-11
9.428320409e-06
-6.057424268e-11
-4.030140202e-11
-7.55965022e-11
-4.43385331e-11
9.428250796e-06
7.248781507e-13
1.649369854e-13
9.428249849e-06
5.191652966e-13
3.793671477e-13
9.428249085e-06
3.092719821e-13
5.361562041e-13
9.428252192e-06
1.511355153e-12
1.121428074e-12
9.428250911e-06
-4.834259417e-13
-8.60173254e-13
9.428252139e-06
4.547149689e-13
-1.654874214e-13
9.428251512e-06
1.298023058e-13
3.234352182e-14
9.428249366e-06
-2.144481503e-12
-1.920570281e-13
9.428248752e-06
-4.739982447e-12
-2.594036174e-12
9.428247389e-06
-9.763308768e-12
-8.056484073e-12
9.428241032e-06
-1.20087214e-11
-1.124874353e-11
9.428244932e-06
-3.334740216e-11
-3.21429067e-11
9.428239944e-06
-5.779000613e-11
-5.96833363e-11
9.428290325e-06
-1.016233263e-10
-1.023084573e-10
-5.443672263e-10
9.428258309e-06
2.676045555e-14
4.663183031e-13
9.428257121e-06
6.300128171e-14
-2.641953281e-13
9.428258115e-06
-1.337402263e-12
1.115497108e-13
9.428256703e-06
-1.316880931e-12
-4.525617141e-13
9.428258978e-06
1.163266151e-12
1.914237408e-12
9.428255474e-06
2.61577067e-13
-2.501772448e-13
9.428255224e-06
-2.880821641e-13
-3.993203438e-13
9.428250387e-06
-2.186859047e-12
-2.555761855e-12
9.428251649e-06
-1.960877013e-12
-1.043609928e-12
9.428247315e-06
-7.296894329e-12
-9.261898991e-12
9.42824127e-06
-1.265157114e-11
-4.225729931e-12
9.428248453e-06
-3.690843762e-11
-4.013694937e-11
9.428237281e-06
-7.557979885e-11
-1.806169239e-11
9.428350567e-06
-1.516595396e-10
-1.596790268e-10
-5.71956645e-10
-1.030762167e-09
9.428197386e-06
-7.102796725e-13
1.554986928e-13
9.428195783e-06
-1.159138982e-12
1.565571813e-13
9.428197813e-06
-2.61686442e-13
1.364028951e-12
9.42819729e-06
-5.903173863e-13
4.904064545e-13
9.428197425e-06
-7.183738811e-14
-1.763470036e-14
9.42819699e-06
6.490009061e-13
-1.331669523e-12
9.428195377e-06
8.054532855e-13
-9.08044765e-13
9.42819007e-06
1.521394058e-12
-4.357219325e-12
9.428183267e-06
3.427686561e-12
-4.243175818e-12
9.428170391e-06
7.986718287e-12
-1.493521897e-11
9.428136212e-06
1.366166653e-11
-9.255516078e-12
9.428090144e-06
3.567572566e-11
-8.730072851e-11
9.427921626e-06
7.306217538e-11
-8.893601282e-11
9.427973493e-06
1.487868803e-10
-6.490380708e-10
5.71466648e-10
-4.05632442e-09
9.428277574e-06
-1.577441497e-12
3.872913916e-13
9.428277741e-06
-2.966142187e-13
1.136141816e-12
9.428277301e-06
-2.899353213e-13
-4.811580743e-13
9.428277337e-06
-6.138121034e-13
-3.204689547e-13
9.428276411e-06
-1.460388418e-12
-1.040219319e-13
9.428275245e-06
-4.303509722e-13
-9.254264622e-13
9.428272789e-06
4.887104672e-13
-2.081663046e-12
9.428271716e-06
2.563659865e-12
-4.114402818e-12
9.428270311e-06
3.754683589e-12
-3.927749114e-12
9.42826687e-06
9.545399253e-12
-1.104721603e-11
9.428258688e-06
1.192884727e-11
-5.838981361e-12
9.428267124e-06
3.226332344e-11
-3.919407417e-11
9.428257454e-06
5.792969282e-11
-1.586305371e-11
9.428370329e-06
1.010376408e-10
-1.59025336e-10
5.454312854e-10
-1.031640653e-09
9.428237856e-06
-1.085144154e-12
8.54824599e-13
9.428236956e-06
-6.982748585e-13
-2.086213949e-13
9.428234705e-06
-1.640609119e-12
-1.08218281e-13
9.428234984e-06
-1.061442352e-12
1.189009022e-13
9.428235561e-06
-8.157796195e-14
-2.811827328e-13
9.428235676e-06
1.092471033e-12
-7.58883963e-13
9.42823276e-06
8.179305081e-13
-2.762214749e-12
9.428232374e-06
3.048495127e-12
-3.802940972e-12
9.428230798e-06
3.734668712e-12
-3.667948395e-12
9.428229105e-06
9.992175577e-12
-9.165469251e-12
9.42822127e-06
1.403276972e-11
-1.08062896e-11
9.428226764e-06
3.251516502e-11
-3.118591688e-11
9.428221622e-06
6.097282444e-11
-5.649258964e-11
9.428276069e-06
7.598857436e-11
-1.013596792e-10
3.262145935e-10
-5.455901049e-10
9.428247058e-06
-5.869067963e-13
3.156885012e-13
9.428243986e-06
-1.641578847e-12
-6.303277829e-13
9.428243903e-06
-2.878936045e-13
2.352404189e-13
9.428245304e-06
5.221994157e-13
2.976195369e-15
9.428243831e-06
-2.008751265e-13
-3.66618857e-13
9.428243564e-06
-4.276227388e-13
9.628008057e-14
9.428244643e-06
2.296956346e-13
-1.451696266e-12
9.428245349e-06
2.324826245e-12
-3.378676904e-12
9.428249204e-06
4.159185644e-12
-1.886751882e-12
9.428252069e-06
6.584387971e-12
-6.875803083e-12
9.428255054e-06
9.222410115e-12
-1.065546229e-11
9.428271491e-06
1.709593676e-11
-2.020021579e-11
9.42829568e-06
3.414672832e-11
-3.94419504e-11
9.428337806e-06
3.460079661e-11
-4.416646578e-11
1.452889635e-10
-1.982846436e-10
9.428256863e-06
1.696864773e-12
9.42825696e-06
1.026657251e-12
9.428257476e-06
3.483693772e-13
9.428256657e-06
-7.874065918e-13
9.42825619e-06
9.50429716e-13
9.428257208e-06
9.299870327e-13
9.428260479e-06
2.158693645e-13
9.428259332e-06
-2.009900388e-12
9.428262271e-06
-2.465265133e-12
9.428264277e-06
-6.240864412e-12
9.428273935e-06
-1.084246974e-11
9.428290374e-06
-1.680029564e-11
9.428322393e-06
-3.28191727e-11
9.428360113e-06
-3.216713884e-11
-1.057476824e-10
9.42825848e-06
-1.351211201e-12
3.114582253e-12
9.428259384e-06
-2.127101189e-13
3.609698286e-12
9.428260195e-06
3.113726309e-13
9.881355849e-13
9.428261317e-06
9.594233864e-14
2.782480863e-13
9.428258652e-06
-1.56228143e-12
-5.718287317e-13
9.428259319e-06
-4.295828507e-13
-1.22898484e-12
9.428261046e-06
-9.709386905e-14
2.462432445e-13
9.428261179e-06
-1.432599405e-12
1.442376391e-12
9.428264159e-06
-2.964498748e-12
-1.338741678e-12
9.428267025e-06
-6.658658074e-12
-3.765176181e-12
9.428273292e-06
-6.758175515e-12
-7.955396118e-12
9.428288607e-06
-1.766749595e-11
-1.403248926e-11
9.42831736e-06
-3.154831784e-11
-2.968972591e-11
-3.861421083e-11
-3.700015508e-11
9.428256007e-06
1.169417254e-12
3.373313006e-12
9.428255388e-06
-9.276876121e-13
2.110252332e-12
9.428253877e-06
-6.794149705e-13
1.908478764e-13
9.42825331e-06
-1.160334615e-12
-1.22815078e-13
9.428253779e-06
-2.582014696e-12
3.013565425e-13
9.428252385e-06
-2.850137659e-12
-8.696306669e-13
9.428251841e-06
-2.327279734e-12
-1.350410391e-12
9.428252526e-06
-2.303428615e-12
-1.285462425e-12
9.428253317e-06
-4.422309609e-12
-2.444724551e-12
9.428255597e-06
-1.123397887e-11
-4.128210857e-12
9.428257116e-06
-1.172118519e-11
-1.089286576e-11
9.428274645e-06
-3.695121688e-11
-2.173924434e-11
9.428289089e-06
-4.782091613e-11
-4.333985654e-11
-9.448581382e-11
-6.103096973e-11
9.428271351e-06
1.119283426e-12
1.532164544e-12
9.428270737e-06
1.588282798e-13
1.72907443e-12
9.428269905e-06
-8.541617326e-13
4.222307109e-14
9.428268072e-06
-2.010986087e-13
1.379065324e-14
9.428269415e-06
2.023580746e-12
7.828508254e-13
9.42826862e-06
1.797081434e-13
-6.590144875e-13
9.428268762e-06
-1.943588531e-13
-3.045415036e-12
9.428265057e-06
-3.652622134e-12
-3.392875904e-12
9.428263747e-06
-3.102781018e-12
-2.835232196e-12
9.428258534e-06
-1.116776867e-11
-7.434863147e-12
9.428252491e-06
-4.846123965e-12
-1.328728035e-11
9.428258939e-06
-4.085297325e-11
-3.658625103e-11
9.428249482e-06
-1.746869437e-11
-7.627030168e-11
-1.592847682e-10
-1.502353998e-10
9.428261538e-06
-6.922297141e-13
3.439832035e-13
9.428261497e-06
-1.291402414e-13
-3.091211428e-14
9.428262348e-06
2.814075441e-13
-1.406744867e-12
9.428260716e-06
-3.204507213e-13
-1.147959283e-12
9.428257203e-06
-1.023478157e-12
-1.239140734e-12
9.428259835e-06
-9.706372324e-13
2.874314835e-14
9.428258987e-06
-1.240128686e-12
-7.911452893e-13
9.428255746e-06
-3.710907974e-12
-3.450253721e-12
9.428256027e-06
-3.686000234e-12
-3.535840181e-12
9.42825532e-06
-9.431718812e-12
-1.081427162e-11
9.428270924e-06
-1.300754175e-11
-1.448185662e-11
9.428298337e-06
-5.329612115e-11
-5.249095439e-11
9.428417115e-06
-7.5770242e-11
-7.719156704e-11
9.428695993e-06
-2.999105711e-10
-3.003393522e-10
-1.075996879e-09
9.428252227e-06
-6.668202968e-13
-9.505458495e-13
9.428252284e-06
-2.796462472e-13
-8.768671962e-13
9.428250331e-06
-1.377392822e-12
-1.303084391e-12
9.428251346e-06
-4.832696535e-13
-9.32564795e-13
9.428249206e-06
-3.982998604e-13
7.636936692e-13
9.428248698e-06
1.275544174e-12
-5.705257647e-14
9.428245971e-06
6.024824159e-13
-1.77224104e-12
9.428240688e-06
1.563530678e-12
-2.228886196e-12
9.428234484e-06
2.470429809e-12
-5.127886802e-12
9.428214981e-06
9.104775695e-12
-1.374899322e-11
9.428199234e-06
1.155976551e-11
-2.060825953e-11
9.428116662e-06
5.285217208e-11
-1.075476232e-10
9.428080966e-06
7.589345483e-11
-2.01351248e-10
9.428133076e-06
2.976375329e-10
-1.298361659e-09
1.074320078e-09
-7.468329524e-09
9.42825215e-06
-1.48909352e-12
-9.418022861e-13
9.428251573e-06
-1.891339963e-12
1.889529867e-13
9.428251941e-06
5.374179128e-14
-1.616826164e-13
9.428252782e-06
-5.091410852e-13
-2.110102529e-13
9.428250207e-06
-1.278780164e-12
2.724731776e-13
9.428248498e-06
-1.00380361e-13
-7.238566896e-13
9.428247775e-06
1.865004929e-13
-8.825350258e-13
9.428246031e-06
3.139413146e-12
-2.101580087e-12
9.428244849e-06
4.086112214e-12
-3.102556568e-12
9.428243462e-06
1.171898678e-11
-9.530347501e-12
9.428259014e-06
6.4470991e-12
-1.192739653e-11
9.428285395e-06
4.011934981e-11
-5.217248433e-11
9.428404333e-06
1.748028515e-11
-7.461959123e-11
9.428684514e-06
1.591918871e-10
-2.987288031e-10
1.030993897e-09
-1.076259567e-09
9.42826081e-06
-1.167100462e-12
9.971536919e-13
9.428261723e-06
-5.566307741e-13
1.666881317e-12
9.428260468e-06
-9.105249343e-13
-3.271228015e-13
9.428262244e-06
-1.493279955e-12
1.102117754e-13
9.428262447e-06
-6.123585441e-13
9.171644404e-14
9.428262176e-06
1.700900926e-12
-4.752128187e-13
9.428261271e-06
8.881345558e-13
-4.465301572e-13
9.428258533e-06
3.357752293e-12
-1.233748541e-12
9.428255345e-06
4.425115735e-12
-2.967851728e-12
9.428253308e-06
1.069619377e-11
-7.715504429e-12
9.428243978e-06
1.081427574e-11
-1.286095268e-11
9.428253799e-06
3.630948861e-11
-3.54724249e-11
9.428242277e-06
4.657232699e-11
-7.406129133e-11
9.428356125e-06
9.455808336e-11
-1.512128694e-10
5.164961548e-10
-5.735838548e-10
9.428215748e-06
-1.077557761e-12
1.688429753e-12
9.428215328e-06
-3.514564321e-13
7.378809926e-13
9.428214594e-06
-1.248824959e-13
7.762416306e-13
9.428215457e-06
-5.05361413e-13
1.151273473e-12
9.428215582e-06
4.499424669e-13
6.582888345e-13
9.428213012e-06
3.3067795e-13
-1.025784002e-12
9.428215407e-06
1.401240621e-12
-1.218548225e-13
9.42821648e-06
2.443268462e-12
-1.319157696e-12
9.42821484e-06
2.874984498e-12
-1.902747549e-12
9.428219069e-06
6.200466873e-12
-4.80633523e-12
9.42822005e-06
6.953620076e-12
-8.562746524e-12
9.428239656e-06
1.865807141e-11
-1.819653975e-11
9.428257275e-06
3.214533447e-11
-3.973717667e-11
9.428326536e-06
3.781441094e-11
-5.879390002e-11
2.192077535e-10
-1.947990704e-10
9.428239413e-06
4.062875193e-13
9.428239221e-06
1.765522119e-12
9.428239495e-06
7.878679496e-13
9.428243485e-06
5.853100796e-13
9.428242111e-06
7.397316342e-13
9.428240674e-06
-9.431811606e-13
9.428243085e-06
5.370992394e-13
9.428243212e-06
-1.665920386e-13
9.428244007e-06
-2.871251098e-12
9.428245594e-06
-4.208793601e-12
9.428251005e-06
-6.690194959e-12
9.42826616e-06
-1.324224983e-11
9.428295079e-06
-2.77424493e-11
9.428336011e-06
-3.597670129e-11
-9.76113834e-11
9.428229741e-06
-3.71593184e-13
-9.6593356e-14
9.428227596e-06
-4.224026244e-13
-2.242395871e-13
9.428231369e-06
6.307484624e-13
2.538193519e-12
9.428231432e-06
-3.33946361e-13
2.464953409e-12
9.428229651e-06
-1.898302353e-12
9.276056069e-13
9.428229994e-06
6.312052756e-14
1.545819228e-12
9.428232909e-06
-1.042831522e-12
2.607157528e-12
9.428229539e-06
-3.454378411e-12
4.762384276e-13
9.428230023e-06
-3.875790543e-12
1.151623133e-12
9.428229835e-06
-8.33176434e-12
2.986370658e-12
9.428228152e-06
-1.247561874e-11
6.80297199e-12
9.428230702e-06
-3.274479515e-11
1.408929537e-11
9.428237301e-06
-6.410659957e-11
2.754541918e-11
-1.074993452e-10
3.455361243e-11
9.4282626e-06
-9.230088199e-13
6.578319719e-13
9.428261286e-06
-8.231033061e-13
1.266071584e-12
9.428261735e-06
-6.27209365e-13
2.418726589e-12
9.428261208e-06
-1.480514174e-12
1.104569294e-12
9.428261754e-06
-1.548409762e-12
6.543934897e-13
9.428259817e-06
-2.210230675e-12
2.762632615e-12
9.428260244e-06
-3.283145853e-12
3.145766851e-12
9.428258337e-06
-4.737469038e-12
1.554053242e-12
9.428255309e-06
-5.558327017e-12
2.299401489e-12
9.42824809e-06
-1.623694673e-11
4.857649451e-12
9.428239982e-06
-1.760969016e-11
1.207805505e-11
9.428236528e-06
-6.717875225e-11
2.219261657e-11
9.428197077e-06
-1.083111858e-10
4.142684518e-11
-2.965020237e-10
5.91912412e-11
9.428207606e-06
-1.725712394e-13
6.741305703e-13
9.428207381e-06
-1.086079586e-12
-4.379240098e-13
9.42820755e-06
-1.532180756e-12
1.68269809e-12
9.428208894e-06
-7.198194335e-13
6.464100525e-13
9.428208479e-06
-7.605315942e-13
6.301588489e-13
9.428207005e-06
2.363183542e-13
2.479948174e-12
9.428208011e-06
4.239718283e-13
2.457247561e-12
9.428203179e-06
-3.467980287e-12
1.731257767e-12
9.428195222e-06
-4.612395661e-12
3.023223043e-12
9.428180485e-06
-1.801034854e-11
7.673216755e-12
9.42814858e-06
-1.127901373e-11
1.388977839e-11
9.428097966e-06
-8.678227679e-11
3.70160323e-11
9.427933442e-06
-8.773590543e-11
7.639382611e-11
-6.487292352e-10
1.496984473e-10
9.428236596e-06
-1.991296394e-12
-1.61467994e-13
9.428237351e-06
-5.691037851e-13
1.333742781e-12
9.428238642e-06
1.853762736e-13
2.37838872e-12
9.428237278e-06
-6.423389758e-13
1.522778208e-12
9.428237672e-06
1.221317369e-12
-8.114747823e-14
9.428234907e-06
-8.009990696e-13
1.098388056e-12
9.428230391e-06
-1.453927691e-12
8.502709675e-13
9.428225157e-06
-3.648907734e-12
1.296573292e-12
9.428217615e-06
-5.668473039e-12
2.491147948e-12
9.428199718e-06
-1.296853339e-11
1.088031068e-11
9.428185584e-06
-1.982071058e-11
1.407866457e-11
9.428097204e-06
-1.096650454e-10
5.256771277e-11
9.428062696e-06
-2.01505951e-10
7.753108597e-11
-1.298987594e-09
2.995063869e-10
9.42822506e-06
-3.360936537e-13
1.04632912e-12
9.428225031e-06
1.106692338e-13
2.714969757e-13
9.428222955e-06
-1.608754178e-12
-3.099104865e-13
9.428224124e-06
-1.465571176e-12
1.241112954e-12
9.428220341e-06
-6.894538606e-14
-2.1447477e-14
9.428218343e-06
-9.101789344e-14
1.121410717e-12
9.428213876e-06
1.534946251e-12
1.182353047e-12
9.428203296e-06
2.444543586e-12
3.8744383e-12
9.428188552e-06
4.898288587e-12
5.399457096e-12
9.428131921e-06
1.387164982e-11
1.523526226e-11
9.428045383e-06
2.101694663e-11
2.213319175e-11
9.427608406e-06
1.082376258e-10
1.08417239e-10
9.426803762e-06
2.027298872e-10
2.019881396e-10
9.421610331e-06
1.297227787e-09
1.299284007e-09
7.466834708e-09
9.428215352e-06
5.106574934e-13
8.186912543e-13
9.428211177e-06
-3.61488108e-13
-3.337855443e-13
9.428213308e-06
-8.271781068e-13
6.481430308e-13
9.42821481e-06
-1.086210172e-13
1.093550723e-13
9.428212348e-06
-9.312063777e-13
-1.047583848e-12
9.428211357e-06
1.149620419e-12
1.665582577e-12
9.428208549e-06
8.808028161e-13
1.051327661e-12
9.428202796e-06
4.151849171e-12
2.674946644e-12
9.428195455e-06
5.030388183e-12
2.507279898e-12
9.428176177e-06
1.733981593e-11
9.768616923e-12
9.428160562e-06
1.135821606e-11
1.342265339e-11
9.428077327e-06
8.752584914e-11
5.294281123e-11
9.428040784e-06
8.812679213e-11
7.583069425e-11
9.428094411e-06
6.47219764e-10
3.000168052e-10
4.055739829e-09
9.428240671e-06
-8.283325149e-13
-4.345157348e-13
9.428239665e-06
-1.09945776e-12
-1.231174262e-12
9.428239584e-06
-8.981450987e-13
8.239582644e-14
9.428237086e-06
-1.327263423e-13
1.852479736e-13
9.428237017e-06
-5.312151503e-13
1.497524008e-12
9.42823621e-06
1.400210891e-12
3.725701331e-13
9.428234348e-06
1.349468402e-12
1.039334284e-12
9.428228387e-06
2.347367776e-12
1.773162342e-12
9.428221955e-06
5.515538886e-12
2.352216342e-12
9.428206384e-06
1.542438525e-11
6.603249041e-12
9.428170893e-06
1.87690397e-11
1.327853637e-11
9.428123397e-06
6.807834343e-11