/*--------------------------------*- C++ -*----------------------------------*\
| =========                 |                                                 |
| \\      /  F ield         | OpenFOAM: The Open Source CFD Toolbox           |
|  \\    /   O peration     | Version:  4.x                                   |
|   \\  /    A nd           | Web:      www.OpenFOAM.org                      |
|    \\/     M anipulation  |                                                 |
\*---------------------------------------------------------------------------*/
FoamFile
{
    version     2.0;
    format      ascii;
    class       volScalarField;
    location    "5000";
    object      rhoeps;
}
// * * * * * * * * * * * * * * * * * * * * * * * * * * * * * * * * * * * * * //

dimensions      [1 -3 0 0 0 0 0];

internalField   nonuniform List<scalar> 
1175
(
0.2777047112
0.2777046806
0.2777047035
0.2777047066
0.2777046742
0.277704722
0.2777047479
0.2777047617
0.2777047428
0.2777047153
0.2777046985
0.2777046974
0.2777047674
0.2777048312
0.277704976
0.2777046851
0.2777046459
0.2777046335
0.2777046361
0.2777046058
0.2777046107
0.2777045833
0.2777045747
0.2777045827
0.2777045759
0.2777045718
0.2777045673
0.2777046164
0.2777047042
0.2777049268
0.2777056553
0.2777055914
0.2777056021
0.2777055962
0.2777056058
0.277705635
0.2777056243
0.2777056085
0.2777056327
0.2777056656
0.2777056578
0.2777056682
0.2777057649
0.2777059819
0.2777063703
0.2777032913
0.2777032724
0.2777032766
0.2777032519
0.2777032943
0.2777033044
0.2777033063
0.2777032623
0.2777032947
0.2777032633
0.2777032825
0.2777033935
0.2777035299
0.2777039305
0.2777046779
0.2777036352
0.277703632
0.2777036244
0.2777036398
0.2777036424
0.2777036329
0.2777036322
0.2777036188
0.2777036326
0.2777036472
0.2777036951
0.2777037848
0.2777039678
0.2777044278
0.2777054228
0.2777061609
0.2777061358
0.2777061555
0.277706194
0.2777061635
0.2777061906
0.2777062288
0.2777061933
0.2777061949
0.2777061881
0.2777062198
0.2777062657
0.2777064047
0.2777067889
0.2777075388
0.2777050324
0.2777050693
0.2777050835
0.2777050893
0.2777051018
0.2777050464
0.2777050448
0.2777050092
0.2777050049
0.277705038
0.277705023
0.2777050555
0.2777051603
0.2777053325
0.2777057377
0.2777043152
0.2777042752
0.2777042598
0.2777042632
0.2777042798
0.2777042956
0.2777043054
0.2777042923
0.2777043309
0.2777042928
0.2777043057
0.2777043476
0.2777043815
0.2777045018
0.2777047492
0.2777047861
0.277704797
0.2777047895
0.2777047848
0.2777047717
0.2777047673
0.2777047656
0.2777047885
0.2777047733
0.2777047616
0.2777047526
0.2777047581
0.2777047992
0.2777048722
0.2777050041
0.2777043986
0.2777043923
0.2777044248
0.2777044283
0.277704438
0.2777044166
0.2777044302
0.2777044283
0.2777044087
0.2777044105
0.2777044254
0.2777044523
0.2777044716
0.2777045892
0.2777043665
0.2777044017
0.2777044024
0.2777043724
0.2777043342
0.2777043001
0.2777043197
0.2777043374
0.2777043171
0.27770433
0.2777043639
0.2777044043
0.2777044794
0.2777046932
0.2777051433
0.2777041177
0.2777041412
0.277704109
0.2777040779
0.2777040805
0.2777041411
0.2777041466
0.2777041127
0.2777041549
0.2777041248
0.2777041494
0.2777041957
0.2777044016
0.2777049177
0.2777059208
0.2777044209
0.2777043969
0.277704416
0.2777043963
0.2777043807
0.27770439
0.2777043644
0.2777044057
0.2777044465
0.2777044994
0.2777045406
0.2777046255
0.2777050085
0.2777060171
0.2777081032
0.277704477
0.2777044686
0.2777044692
0.277704528
0.2777045719
0.2777045769
0.2777045743
0.2777045734
0.2777045873
0.2777045988
0.2777046437
0.27770477
0.2777053435
0.2777068814
0.277710172
0.2777041873
0.2777041712
0.27770421
0.2777042198
0.2777042451
0.2777042535
0.2777042472
0.2777042611
0.2777042585
0.2777042988
0.2777043421
0.2777044743
0.2777048127
0.2777058566
0.2777079307
0.2777033316
0.277703348
0.2777033639
0.277703361
0.2777034011
0.2777034114
0.277703383
0.2777033594
0.2777033617
0.2777033984
0.2777034276
0.2777034647
0.2777036121
0.2777041015
0.2777050987
0.2777050236
0.2777050445
0.2777050032
0.2777050634
0.277705078
0.2777051209
0.2777051366
0.2777052072
0.2777051903
0.2777051938
0.2777052254
0.277705267
0.2777053634
0.2777055661
0.2777059868
0.2777039286
0.2777039361
0.27770395
0.2777039651
0.2777039781
0.2777039606
0.2777039472
0.2777039786
0.2777039526
0.2777039585
0.2777039882
0.2777039979
0.2777040497
0.2777041323
0.2777043764
0.27770473
0.2777047689
0.2777047709
0.2777048102
0.2777047853
0.2777047899
0.2777047578
0.2777047886
0.2777047901
0.2777047999
0.2777048453
0.2777048645
0.2777049573
0.2777051969
0.2777055039
0.2777055188
0.2777055104
0.2777054935
0.2777055117
0.2777055345
0.2777055172
0.2777055254
0.2777055283
0.2777055454
0.2777055358
0.2777056109
0.2777058315
0.2777063252
0.2777047942
0.2777047893
0.277704817
0.2777047913
0.2777048148
0.2777048645
0.2777049302
0.2777049164
0.2777049467
0.2777049524
0.2777049899
0.2777051452
0.2777056771
0.2777070516
0.2777098353
0.2777050154
0.277705036
0.2777050808
0.2777050664
0.2777050611
0.2777050966
0.2777050953
0.2777050745
0.2777050399
0.277705078
0.2777052002
0.2777054924
0.2777066518
0.277710014
0.2777174153
0.277703299
0.2777032908
0.2777033161
0.2777033057
0.2777032934
0.2777033069
0.277703343
0.2777033612
0.2777033966
0.2777034235
0.2777035643
0.2777040748
0.2777059718
0.2777122179
0.277727708
0.2777056495
0.2777056596
0.2777056694
0.2777056447
0.2777056006
0.2777056054
0.2777055939
0.2777056178
0.2777056419
0.2777056461
0.2777057359
0.2777060404
0.2777071772
0.2777105226
0.2777179249
0.2777044736
0.2777044445
0.2777044043
0.2777043691
0.2777043572
0.2777044085
0.2777044071
0.2777044145
0.2777044088
0.2777044353
0.2777044576
0.2777046264
0.2777051629
0.2777064975
0.2777092642
0.2777046824
0.2777046974
0.2777046659
0.2777046752
0.2777046825
0.2777046606
0.2777046874
0.2777046792
0.2777047107
0.2777047613
0.2777047584
0.2777048242
0.2777050358
0.2777055494
0.2777065183
0.2777050092
0.2777050264
0.2777050177
0.2777050077
0.2777050012
0.2777050017
0.27770503
0.2777050259
0.2777050497
0.2777050504
0.2777050381
0.2777050886
0.2777051859
0.2777054542
0.2777059127
0.2777051245
0.2777051282
0.2777051366
0.2777051372
0.2777051233
0.2777050904
0.2777050881
0.2777051377
0.2777051255
0.2777051415
0.2777051575
0.2777052307
0.2777053822
0.2777057251
0.2777049522
0.2777049881
0.2777049414
0.2777049434
0.2777049449
0.2777049756
0.2777049541
0.2777049408
0.2777049498
0.2777049452
0.2777049638
0.2777050562
0.2777054119
0.2777064352
0.277705443
0.2777054519
0.2777054385
0.2777054318
0.27770545
0.2777054263
0.2777054595
0.2777054242
0.2777053947
0.2777054587
0.2777055594
0.2777058426
0.2777069781
0.2777103463
0.2777052351
0.2777052048
0.2777051656
0.2777051702
0.2777051786
0.277705205
0.2777052156
0.2777052258
0.2777052298
0.2777052669
0.2777054653
0.2777062981
0.2777094121
0.2777201693
0.2777475406
0.2777048888
0.2777048897
0.2777048737
0.2777048713
0.2777048962
0.2777049023
0.2777049079
0.2777049073
0.277704937
0.2777049952
0.2777052744
0.2777066103
0.2777127046
0.2777391654
0.2778319418
0.2777049079
0.2777048773
0.2777048911
0.2777049117
0.2777048742
0.2777048748
0.2777048884
0.2777048915
0.2777048955
0.2777049235
0.2777051237
0.2777058894
0.2777090207
0.2777197798
0.2777471899
0.2777051333
0.2777051487
0.277705131
0.2777051875
0.2777052034
0.2777052179
0.277705221
0.2777052462
0.2777052278
0.2777052564
0.277705351
0.2777056701
0.2777068036
0.2777101913
0.2777176122
0.277703779
0.2777037488
0.2777037644
0.2777037608
0.2777037345
0.2777037841
0.2777037882
0.2777038226
0.2777038622
0.2777038494
0.2777039122
0.2777040376
0.2777044184
0.2777054502
0.277707566
0.2777044706
0.2777045091
0.2777045279
0.2777045325
0.2777045622
0.2777045886
0.2777045997
0.2777045718
0.277704577
0.2777045483
0.2777045576
0.2777045822
0.2777047226
0.2777050696
0.2777058346
0.2777042232
0.2777042238
0.2777042656
0.2777042515
0.2777042977
0.2777043024
0.2777043255
0.2777043117
0.2777043077
0.2777043257
0.2777043207
0.2777044016
0.2777046076
0.2777051019
0.2777051578
0.2777051949
0.2777052382
0.2777052516
0.2777052379
0.2777052304
0.2777052042
0.2777051821
0.277705178
0.2777051413
0.2777052259
0.2777054335
0.2777060096
0.2777075366
0.277703588
0.2777036078
0.2777036183
0.2777036247
0.2777036006
0.2777036399
0.2777036356
0.2777036676
0.2777037347
0.2777037787
0.2777038955
0.2777043684
0.277706251
0.2777125273
0.2777044972
0.2777044823
0.2777044586
0.2777044833
0.2777045224
0.2777045122
0.2777044562
0.2777044506
0.2777044501
0.2777045065
0.2777047795
0.2777061083
0.2777121727
0.2777386559
0.2777040401
0.2777040575
0.2777040631
0.2777040712
0.2777040619
0.2777040751
0.2777040575
0.277704037
0.2777040468
0.2777041765
0.277704617
0.277707173
0.2777224123
0.2778212583
0.2786206977
0.2777037253
0.2777037507
0.2777037476
0.277703742
0.2777037909
0.2777038275
0.2777038005
0.2777037846
0.2777037831
0.2777038462
0.2777041224
0.2777054375
0.2777115238
0.2777380289
0.2778308372
0.2777046113
0.2777045865
0.2777045439
0.2777045193
0.2777044678
0.2777044972
0.277704459
0.2777044861
0.2777044617
0.277704483
0.2777046144
0.2777051027
0.2777069501
0.2777131478
0.2777286275
0.2777055406
0.2777055558
0.2777055304
0.2777055168
0.2777055134
0.2777054989
0.2777055147
0.277705482
0.2777054606
0.2777054605
0.2777055131
0.2777056758
0.2777062487
0.277707793
0.2777110626
0.2777055389
0.2777055056
0.2777055119
0.2777055081
0.2777055058
0.2777055086
0.2777055061
0.2777054915
0.2777054916
0.2777055574
0.2777055729
0.2777056767
0.2777059172
0.2777063932
0.2777073861
0.2777057737
0.2777057363
0.277705695
0.2777057096
0.2777057135
0.2777056999
0.2777057205
0.2777057483
0.2777057374
0.2777057567
0.2777057868
0.2777058312
0.2777059786
0.2777063512
0.2777054396
0.277705405
0.2777053838
0.2777053877
0.2777053897
0.2777053881
0.2777053639
0.2777053645
0.2777053647
0.2777053878
0.2777054413
0.2777055757
0.2777059223
0.2777068972
0.2777053506
0.2777053661
0.2777053966
0.2777053841
0.2777053855
0.2777053892
0.2777053752
0.2777053515
0.2777053571
0.2777054082
0.2777054739
0.2777058479
0.2777070303
0.2777103929
0.277704576
0.2777045678
0.2777045412
0.2777045352
0.2777045396
0.2777045606
0.2777045272
0.2777045573
0.2777045883
0.2777046407
0.2777048034
0.277705587
0.2777086871
0.2777194245
0.2777045133
0.2777044882
0.2777044953
0.2777045258
0.2777045447
0.2777045379
0.2777045607
0.2777045786
0.2777046128
0.2777046398
0.2777048896
0.2777062316
0.2777123184
0.2777387987
0.2777049335
0.277704927
0.2777049284
0.2777049164
0.2777049349
0.2777049072
0.2777048892
0.2777049046
0.2777049029
0.2777049499
0.2777051222
0.2777058799
0.2777089963
0.2777197154
0.2777047396
0.2777047626
0.2777047592
0.2777047768
0.2777047391
0.2777047453
0.2777047294
0.2777047366
0.2777047612
0.2777047855
0.277704848
0.2777051649
0.2777063197
0.2777096999
0.2777171655
0.2777054375
0.2777054152
0.2777053986
0.277705378
0.2777053439
0.2777053606
0.2777053633
0.2777053697
0.2777053762
0.27770542
0.2777054676
0.2777055626
0.277705961
0.2777069578
0.277709026
0.277704901
0.2777048933
0.2777048952
0.2777049333
0.2777049549
0.2777049467
0.2777049144
0.2777049117
0.277704896
0.277704905
0.2777049166
0.2777049719
0.2777051396
0.277705524
0.2777063151
0.2777048054
0.2777048074
0.2777048248
0.277704806
0.2777048109
0.2777047834
0.2777047658
0.2777047541
0.277704781
0.2777047937
0.2777047838
0.2777048189
0.2777049191
0.2777051498
0.2777042387
0.2777042357
0.277704241
0.2777042525
0.277704241
0.2777042286
0.2777042778
0.2777042538
0.2777042678
0.2777042998
0.277704327
0.2777044121
0.2777045817
0.2777050953
0.2777034717
0.2777034843
0.277703517
0.277703484
0.2777035343
0.2777035439
0.2777035367
0.2777035347
0.2777034968
0.2777035334
0.2777035651
0.2777037471
0.2777042969
0.2777056973
0.2777042788
0.2777042777
0.2777042715
0.2777042023
0.2777042392
0.2777042892
0.2777043072
0.2777042884
0.2777042853
0.2777042871
0.2777044043
0.2777047332
0.2777059025
0.2777092568
0.2777051298
0.2777051196
0.2777051418
0.2777051782
0.2777051613
0.2777051508
0.2777051667
0.2777051749
0.2777051719
0.2777052001
0.2777053533
0.2777058491
0.277707738
0.2777139726
0.277705106
0.2777050847
0.2777050804
0.277705061
0.2777051107
0.2777050893
0.2777050732
0.2777050736
0.2777051159
0.2777051597
0.2777052488
0.2777056167
0.2777067663
0.2777100831
0.2777044538
0.2777044135
0.277704423
0.2777044239
0.277704451
0.2777044782
0.2777044971
0.2777044698
0.2777044465
0.2777044743
0.2777045366
0.2777047364
0.2777052135
0.2777066162
0.2777043625
0.2777043479
0.2777043374
0.2777043607
0.2777043673
0.2777043627
0.2777043277
0.2777043584
0.2777043822
0.2777044021
0.2777044279
0.2777044925
0.2777046961
0.277705176
0.2777061546
0.277704767
0.277704757
0.2777047604
0.2777047436
0.2777047334
0.2777047328
0.2777047294
0.2777047408
0.2777047154
0.2777047387
0.2777047585
0.2777047876
0.2777048375
0.2777050745
0.2777054949
0.2777043029
0.277704336
0.2777043142
0.2777043371
0.2777043752
0.277704351
0.2777043333
0.2777043778
0.2777043414
0.2777043209
0.2777043421
0.2777043991
0.2777044673
0.2777045921
0.2777051094
0.2777051239
0.2777050713
0.2777050731
0.2777051008
0.2777051201
0.2777050808
0.277705087
0.2777050861
0.2777051061
0.2777051092
0.2777051243
0.2777051822
0.2777054281
0.2777052812
0.2777053021
0.27770529
0.2777052972
0.2777052853
0.2777052873
0.2777053102
0.2777052937
0.2777052795
0.2777052929
0.2777053416
0.2777053824
0.2777056298
0.2777061055
0.2777048536
0.277704868
0.2777049015
0.2777048545
0.277704875
0.2777049018
0.2777048805
0.2777048312
0.2777048629
0.2777048576
0.2777048714
0.2777049989
0.2777053801
0.2777064211
0.2777040166
0.2777040102
0.2777040297
0.2777040113
0.2777040072
0.2777039799
0.2777039816
0.2777039812
0.2777040046
0.2777040025
0.277704046
0.2777041849
0.2777047752
0.277706356
0.2777045866
0.2777046095
0.2777046314
0.2777046409
0.2777046202
0.2777046467
0.2777046275
0.2777046738
0.2777046483
0.2777046786
0.2777047062
0.2777048435
0.2777051996
0.2777061881
0.2777040544
0.2777040487
0.2777040389
0.2777040758
0.277704075
0.2777040738
0.2777040918
0.27770412
0.2777041706
0.2777041567
0.2777042067
0.2777042337
0.2777044822
0.2777049843
0.2777041565
0.2777041562
0.2777041691
0.2777041667
0.2777041766
0.2777041578
0.277704141
0.277704059
0.2777040789
0.2777041091
0.2777041843
0.2777042636
0.277704338
0.2777045446
0.2777041986
0.2777041851
0.2777041446
0.2777041368
0.2777041225
0.2777041492
0.2777041322
0.2777041341
0.2777041562
0.2777041413
0.2777041315
0.2777041411
0.2777041935
0.2777043039
0.2777045188
0.2777052277
0.2777052404
0.277705244
0.2777052405
0.2777052333
0.2777052164
0.2777052215
0.2777052178
0.2777052154
0.2777052182
0.2777052243
0.2777052379
0.2777052817
0.2777053432
0.277704756
0.2777047456
0.2777047398
0.2777047427
0.277704693
0.2777047009
0.2777046981
0.2777047083
0.2777046962
0.2777047358
0.2777046905
0.2777047045
0.277704739
0.2777048776
0.2777045924
0.2777046069
0.2777046093
0.2777046016
0.277704582
0.2777045748
0.277704547
0.2777045448
0.2777045417
0.2777045378
0.2777045348
0.2777045551
0.2777046668
0.2777049006
0.2777043782
0.2777043748
0.277704405
0.2777043776
0.2777043777
0.2777043732
0.2777043491
0.2777043507
0.2777043558
0.277704366
0.2777043715
0.2777044172
0.2777046106
0.2777049916
0.2777047999
0.27770478
0.2777047256
0.2777046701
0.2777046775
0.2777047013
0.2777046905
0.2777047086
0.27770471
0.2777047117
0.2777047081
0.2777047611
0.2777049647
0.2777054763
0.2777036204
0.2777036454
0.2777036854
0.2777036877
0.2777036987
0.2777037088
0.2777037288
0.2777036903
0.2777036974
0.2777036847
0.2777036785
0.2777037537
0.2777039095
0.2777042875
0.277704307
0.2777043063
0.2777043097
0.2777043299
0.2777043444
0.2777043265
0.2777043364
0.2777043542
0.2777043256
0.2777043124
0.2777043042
0.2777043679
0.277704453
0.2777046515
0.2777057198
0.2777057211
0.2777057208
0.2777057193
0.2777057185
0.277705748
0.2777057443
0.2777057774
0.2777058155
0.2777058328
0.2777058348
0.2777058347
0.2777058597
0.2777059618
0.2777049019
0.2777049081
0.2777049183
0.2777049217
0.2777049321
0.2777049096
0.2777049267
0.2777049531
0.277704978
0.2777049544
0.2777049754
0.277704982
0.277705017
0.2777050713
)
;

boundaryField
{
    top
    {
        type            calculated;
        value           nonuniform List<scalar> 
134
(
0.2777047861
0.2777039286
0.2777050092
0.2777044706
0.2777055389
0.277704901
0.277704767
0.2777041986
0.2777049019
0.277704797
0.2777039361
0.2777050264
0.2777045091
0.2777055056
0.2777048933
0.277704757
0.2777041851
0.2777049081
0.2777047895
0.27770395
0.2777050177
0.2777045279
0.2777055119
0.2777048952
0.2777047604
0.2777041446
0.2777049183
0.2777047848
0.2777039651
0.2777050077
0.2777045325
0.2777055081
0.2777049333
0.2777047436
0.2777041368
0.2777049217
0.2777047717
0.2777039781
0.2777050012
0.2777045622
0.2777055058
0.2777049549
0.2777047334
0.2777041225
0.2777049321
0.2777047673
0.2777039606
0.2777050017
0.2777045886
0.2777055086
0.2777049467
0.2777047328
0.2777041492
0.2777049096
0.2777047656
0.2777039472
0.27770503
0.2777045997
0.2777055061
0.2777049144
0.2777047294
0.2777041322
0.2777049267
0.2777047885
0.2777039786
0.2777050259
0.2777045718
0.2777054915
0.2777049117
0.2777047408
0.2777041341
0.2777049531
0.2777047733
0.2777039526
0.2777050497
0.277704577
0.2777054916
0.277704896
0.2777047154
0.2777041562
0.277704978
0.2777047616
0.2777039585
0.2777050504
0.2777045483
0.2777055574
0.277704905
0.2777047387
0.2777041413
0.2777049544
0.2777047526
0.2777039882
0.2777050381
0.2777045576
0.2777055729
0.2777049166
0.2777047585
0.2777041315
0.2777049754
0.2777047581
0.2777039979
0.2777050886
0.2777045822
0.2777056767
0.2777049719
0.2777047876
0.2777041411
0.277704982
0.2777047992
0.2777040497
0.2777051859
0.2777047226
0.2777059172
0.2777051396
0.2777048375
0.2777041935
0.277705017
0.2777048722
0.2777041323
0.2777054542
0.2777050696
0.2777063932
0.277705524
0.2777050745
0.2777043039
0.2777050713
0.2777050041
0.2777043764
0.2777059127
0.2777058346
0.2777073861
0.2777063151
0.2777054949
0.2777045188
)
;
    }
    bottom
    {
        type            calculated;
        value           nonuniform List<scalar> 
127
(
0.2777047112
0.2777043986
0.27770473
0.2777051245
0.2777042232
0.2777057737
0.2777048054
0.2777043029
0.2777052277
0.2777046806
0.2777043923
0.2777047689
0.2777051282
0.2777042238
0.2777057363
0.2777048074
0.277704336
0.2777052404
0.2777047035
0.2777044248
0.2777047709
0.2777051366
0.2777042656
0.277705695
0.2777048248
0.2777043142
0.277705244
0.2777047066
0.2777044283
0.2777048102
0.2777051372
0.2777042515
0.2777057096
0.277704806
0.2777043371
0.2777052405
0.2777046742
0.277704438
0.2777047853
0.2777051233
0.2777042977
0.2777057135
0.2777048109
0.2777043752
0.2777052333
0.277704722
0.2777044166
0.2777047899
0.2777050904
0.2777043024
0.2777056999
0.2777047834
0.277704351
0.2777052164
0.2777047479
0.2777044302
0.2777047578
0.2777050881
0.2777043255
0.2777057205
0.2777047658
0.2777043333
0.2777052215
0.2777047617
0.2777044283
0.2777047886
0.2777051377
0.2777043117
0.2777057483
0.2777047541
0.2777043778
0.2777052178
0.2777047428
0.2777044087
0.2777047901
0.2777051255
0.2777043077
0.2777057374
0.277704781
0.2777043414
0.2777052154
0.2777047153
0.2777044105
0.2777047999
0.2777051415
0.2777043257
0.2777057567
0.2777047937
0.2777043209
0.2777052182
0.2777046985
0.2777044254
0.2777048453
0.2777051575
0.2777043207
0.2777057868
0.2777047838
0.2777043421
0.2777052243
0.2777046974
0.2777044523
0.2777048645
0.2777052307
0.2777044016
0.2777058312
0.2777048189
0.2777043991
0.2777052379
0.2777047674
0.2777044716
0.2777049573
0.2777053822
0.2777046076
0.2777059786
0.2777049191
0.2777044673
0.2777052817
0.2777048312
0.2777045892
0.2777051969
0.2777057251
0.2777051019
0.2777063512
0.2777051498
0.2777045921
0.2777053432
0.277704976
)
;
    }
    side-walls
    {
        type            calculated;
        value           nonuniform List<scalar> 
261
(
0.2777047112
0.2777046851
0.2777056553
0.2777032913
0.2777036352
0.2777061609
0.2777050324
0.2777043152
0.2777047861
0.2777046806
0.2777046459
0.2777055914
0.2777032724
0.277703632
0.2777061358
0.2777050693
0.2777042752
0.277704797
0.2777047035
0.2777046335
0.2777056021
0.2777032766
0.2777036244
0.2777061555
0.2777050835
0.2777042598
0.2777047895
0.2777047066
0.2777046361
0.2777055962
0.2777032519
0.2777036398
0.277706194
0.2777050893
0.2777042632
0.2777047848
0.2777046742
0.2777046058
0.2777056058
0.2777032943
0.2777036424
0.2777061635
0.2777051018
0.2777042798
0.2777047717
0.277704722
0.2777046107
0.277705635
0.2777033044
0.2777036329
0.2777061906
0.2777050464
0.2777042956
0.2777047673
0.2777047479
0.2777045833
0.2777056243
0.2777033063
0.2777036322
0.2777062288
0.2777050448
0.2777043054
0.2777047656
0.2777047617
0.2777045747
0.2777056085
0.2777032623
0.2777036188
0.2777061933
0.2777050092
0.2777042923
0.2777047885
0.2777047428
0.2777045827
0.2777056327
0.2777032947
0.2777036326
0.2777061949
0.2777050049
0.2777043309
0.2777047733
0.2777047153
0.2777045759
0.2777056656
0.2777032633
0.2777036472
0.2777061881
0.277705038
0.2777042928
0.2777047616
0.2777046985
0.2777045718
0.2777056578
0.2777032825
0.2777036951
0.2777062198
0.277705023
0.2777043057
0.2777047526
0.2777046974
0.2777045673
0.2777056682
0.2777033935
0.2777037848
0.2777062657
0.2777050555
0.2777043476
0.2777047581
0.2777047674
0.2777046164
0.2777057649
0.2777035299
0.2777039678
0.2777064047
0.2777051603
0.2777043815
0.2777047992
0.2777048312
0.2777047042
0.2777059819
0.2777039305
0.2777044278
0.2777067889
0.2777053325
0.2777045018
0.2777048722
0.277704976
0.2777049268
0.2777063703
0.2777046779
0.2777054228
0.2777075388
0.2777057377
0.2777047492
0.2777050041
0.2777052277
0.277704756
0.2777045924
0.2777043782
0.2777047999
0.2777036204
0.277704307
0.2777057198
0.2777049019
0.2777052404
0.2777047456
0.2777046069
0.2777043748
0.27770478
0.2777036454
0.2777043063
0.2777057211
0.2777049081
0.277705244
0.2777047398
0.2777046093
0.277704405
0.2777047256
0.2777036854
0.2777043097
0.2777057208
0.2777049183
0.2777052405
0.2777047427
0.2777046016
0.2777043776
0.2777046701
0.2777036877
0.2777043299
0.2777057193
0.2777049217
0.2777052333
0.277704693
0.277704582
0.2777043777
0.2777046775
0.2777036987
0.2777043444
0.2777057185
0.2777049321
0.2777052164
0.2777047009
0.2777045748
0.2777043732
0.2777047013
0.2777037088
0.2777043265
0.277705748
0.2777049096
0.2777052215
0.2777046981
0.277704547
0.2777043491
0.2777046905
0.2777037288
0.2777043364
0.2777057443
0.2777049267
0.2777052178
0.2777047083
0.2777045448
0.2777043507
0.2777047086
0.2777036903
0.2777043542
0.2777057774
0.2777049531
0.2777052154
0.2777046962
0.2777045417
0.2777043558
0.27770471
0.2777036974
0.2777043256
0.2777058155
0.277704978
0.2777052182
0.2777047358
0.2777045378
0.277704366
0.2777047117
0.2777036847
0.2777043124
0.2777058328
0.2777049544
0.2777052243
0.2777046905
0.2777045348
0.2777043715
0.2777047081
0.2777036785
0.2777043042
0.2777058348
0.2777049754
0.2777052379
0.2777047045
0.2777045551
0.2777044172
0.2777047611
0.2777037537
0.2777043679
0.2777058347
0.277704982
0.2777052817
0.277704739
0.2777046668
0.2777046106
0.2777049647
0.2777039095
0.277704453
0.2777058597
0.277705017
0.2777053432
0.2777048776
0.2777049006
0.2777049916
0.2777054763
0.2777042875
0.2777046515
0.2777059618
0.2777050713
)
;
    }
    inlet
    {
        type            calculated;
        value           nonuniform List<scalar> 
81
(
0.2777047112
0.2777046851
0.2777056553
0.2777032913
0.2777036352
0.2777061609
0.2777050324
0.2777043152
0.2777047861
0.2777043986
0.2777043665
0.2777041177
0.2777044209
0.277704477
0.2777041873
0.2777033316
0.2777050236
0.2777039286
0.27770473
0.2777055039
0.2777047942
0.2777050154
0.277703299
0.2777056495
0.2777044736
0.2777046824
0.2777050092
0.2777051245
0.2777049522
0.277705443
0.2777052351
0.2777048888
0.2777049079
0.2777051333
0.277703779
0.2777044706
0.2777042232
0.2777051578
0.277703588
0.2777044972
0.2777040401
0.2777037253
0.2777046113
0.2777055406
0.2777055389
0.2777057737
0.2777054396
0.2777053506
0.277704576
0.2777045133
0.2777049335
0.2777047396
0.2777054375
0.277704901
0.2777048054
0.2777042387
0.2777034717
0.2777042788
0.2777051298
0.277705106
0.2777044538
0.2777043625
0.277704767
0.2777043029
0.2777051094
0.2777052812
0.2777048536
0.2777040166
0.2777045866
0.2777040544
0.2777041565
0.2777041986
0.2777052277
0.277704756
0.2777045924
0.2777043782
0.2777047999
0.2777036204
0.277704307
0.2777057198
0.2777049019
)
;
    }
    outlet
    {
        type            calculated;
        value           nonuniform 0();
    }
    procBoundary0to1
    {
        type            processor;
        value           nonuniform List<scalar> 
97
(
0.2777051628
0.2777047625
0.2777052811
0.277707085
0.277705866
0.2777068902
0.2777086632
0.2777064681
0.2777051089
0.277705229
0.2777047625
0.2777047625
0.277705804
0.2777073001
0.277707378
0.2777109393
0.277714006
0.2777107402
0.2777065775
0.2777067296
0.2777047109
0.2777055953
0.2777073001
0.2777073001
0.2777135335
0.2777177526
0.2777254399
0.2777392975
0.277725925
0.2777130264
0.2777080131
0.2777066232
0.2777064559
0.2777084758
0.2777177526
0.2777177526
0.2777660474
0.2778314246
0.2778458862
0.2777656678
0.2777255934
0.2777103718
0.2777069512
0.2777061134
0.2777108328
0.2777280226
0.2778314246
0.2778314246
0.2796126987
0.2778315476
0.277844758
0.2777471018
0.2777401767
0.2777149498
0.2777088149
0.2777071042
0.2777089938
0.2777178514
0.277746836
0.2778315476
0.2777471018
0.2777471018
0.2777251792
0.2777094023
0.2777118839
0.2777074598
0.2777055682
0.2777060059
0.2777084897
0.2777166245
0.2777294788
0.2777174996
0.2777094023
0.2777094023
0.2777076374
0.27770499
0.2777061879
0.277704831
0.2777058434
0.277707084
0.2777085057
0.2777096086
0.2777082568
0.2777059627
0.27770499
0.27770499
0.2777048844
0.2777051964
0.2777054479
0.2777051101
0.277705317
0.2777057501
0.277706476
0.2777050107
0.2777051047
0.2777062061
0.2777051964
)
;
    }
}


// ************************************************************************* //
