/*--------------------------------*- C++ -*----------------------------------*\
| =========                 |                                                 |
| \\      /  F ield         | OpenFOAM: The Open Source CFD Toolbox           |
|  \\    /   O peration     | Version:  4.x                                   |
|   \\  /    A nd           | Web:      www.OpenFOAM.org                      |
|    \\/     M anipulation  |                                                 |
\*---------------------------------------------------------------------------*/
FoamFile
{
    version     2.0;
    format      ascii;
    class       volScalarField;
    location    "5000";
    object      T;
}
// * * * * * * * * * * * * * * * * * * * * * * * * * * * * * * * * * * * * * //

dimensions      [0 0 0 1 0 0 0];

internalField   nonuniform List<scalar> 
1175
(
1223.150387
1223.150522
1223.150421
1223.150407
1223.15055
1223.15034
1223.150226
1223.150166
1223.150252
1223.150381
1223.150477
1223.150542
1223.15038
1223.150421
1223.150416
1223.150502
1223.150675
1223.150729
1223.150718
1223.150852
1223.15083
1223.150951
1223.15099
1223.150959
1223.151001
1223.151054
1223.151172
1223.151203
1223.151372
1223.151485
1223.146229
1223.14651
1223.146463
1223.146489
1223.146447
1223.146318
1223.146366
1223.146437
1223.146337
1223.146212
1223.146308
1223.14644
1223.146481
1223.146609
1223.147033
1223.156641
1223.156725
1223.156706
1223.156815
1223.156628
1223.156584
1223.156576
1223.156772
1223.156638
1223.156806
1223.156816
1223.156612
1223.156795
1223.156909
1223.157344
1223.155127
1223.155141
1223.155174
1223.155106
1223.155095
1223.155137
1223.155141
1223.155202
1223.155152
1223.155122
1223.155024
1223.154981
1223.155174
1223.15562
1223.156203
1223.144002
1223.144113
1223.144026
1223.143856
1223.143991
1223.143872
1223.143704
1223.143863
1223.143864
1223.143924
1223.143878
1223.143962
1223.144132
1223.144319
1223.144743
1223.148973
1223.14881
1223.148748
1223.148722
1223.148667
1223.148911
1223.148919
1223.149077
1223.149102
1223.148976
1223.149104
1223.149138
1223.149144
1223.149469
1223.149819
1223.152131
1223.152308
1223.152375
1223.15236
1223.152287
1223.152218
1223.152175
1223.152234
1223.152068
1223.152248
1223.152226
1223.15214
1223.152237
1223.152264
1223.152267
1223.150057
1223.150009
1223.150042
1223.150063
1223.150121
1223.15014
1223.150148
1223.150048
1223.150118
1223.150177
1223.150239
1223.150275
1223.15024
1223.15024
1223.150292
1223.151764
1223.151792
1223.151648
1223.151633
1223.15159
1223.151685
1223.151626
1223.151635
1223.151725
1223.151729
1223.151699
1223.151679
1223.15184
1223.151879
1223.151905
1223.151751
1223.151747
1223.15188
1223.152048
1223.152198
1223.152112
1223.152036
1223.152132
1223.152094
1223.152006
1223.152005
1223.152145
1223.152302
1223.152485
1223.153001
1223.152898
1223.15304
1223.153177
1223.153165
1223.152899
1223.152875
1223.153027
1223.152851
1223.153019
1223.153027
1223.153186
1223.1533
1223.153529
1223.154092
1223.151666
1223.151772
1223.151687
1223.151774
1223.151843
1223.151802
1223.151916
1223.151738
1223.151574
1223.151396
1223.15141
1223.151685
1223.151957
1223.152615
1223.153839
1223.151419
1223.151456
1223.151453
1223.151194
1223.151001
1223.150979
1223.150992
1223.151
1223.150957
1223.150974
1223.151024
1223.151331
1223.151574
1223.152508
1223.154476
1223.152695
1223.152766
1223.152595
1223.152552
1223.15244
1223.152403
1223.152432
1223.152375
1223.152402
1223.152279
1223.152285
1223.152351
1223.152819
1223.153322
1223.154598
1223.156464
1223.156392
1223.156321
1223.156334
1223.156158
1223.156113
1223.156238
1223.156345
1223.156345
1223.156218
1223.156206
1223.156405
1223.156778
1223.157124
1223.157713
1223.149011
1223.148919
1223.149101
1223.148836
1223.148772
1223.148583
1223.148514
1223.148205
1223.148285
1223.148289
1223.148211
1223.148205
1223.148252
1223.148458
1223.14877
1223.153834
1223.153801
1223.15374
1223.153673
1223.153616
1223.153693
1223.153753
1223.153616
1223.153734
1223.15372
1223.153625
1223.15368
1223.153699
1223.153891
1223.153909
1223.150304
1223.150133
1223.150124
1223.149951
1223.150061
1223.150041
1223.150183
1223.150049
1223.150048
1223.150025
1223.149887
1223.14998
1223.150038
1223.150066
1223.146896
1223.14683
1223.146867
1223.146942
1223.146861
1223.146761
1223.146838
1223.146805
1223.146802
1223.146762
1223.146921
1223.146952
1223.147002
1223.147329
1223.150022
1223.150043
1223.149921
1223.150034
1223.149931
1223.149712
1223.149424
1223.14949
1223.149374
1223.149418
1223.149501
1223.149657
1223.149897
1223.15066
1223.152372
1223.149047
1223.148957
1223.148759
1223.148823
1223.148846
1223.14869
1223.148698
1223.148797
1223.148978
1223.148928
1223.14885
1223.149268
1223.149956
1223.152108
1223.156603
1223.156607
1223.156643
1223.156532
1223.156578
1223.156632
1223.156573
1223.156416
1223.156344
1223.156224
1223.156257
1223.156262
1223.156516
1223.157575
1223.161345
1223.170748
1223.146254
1223.14621
1223.146167
1223.146276
1223.14647
1223.146449
1223.146502
1223.146404
1223.146327
1223.146426
1223.14649
1223.146854
1223.147641
1223.149868
1223.154359
1223.151434
1223.151562
1223.151739
1223.151894
1223.151947
1223.151721
1223.151728
1223.1517
1223.151744
1223.151696
1223.151846
1223.151942
1223.152162
1223.1531
1223.154887
1223.150514
1223.150448
1223.150587
1223.150546
1223.150514
1223.15061
1223.150493
1223.150532
1223.150403
1223.150215
1223.150345
1223.150417
1223.150507
1223.150746
1223.15146
1223.149075
1223.148999
1223.149037
1223.149081
1223.14911
1223.149108
1223.148984
1223.149004
1223.148905
1223.148921
1223.149038
1223.148993
1223.149031
1223.148933
1223.149048
1223.148567
1223.14855
1223.148514
1223.148511
1223.148572
1223.148717
1223.148728
1223.148512
1223.148574
1223.148533
1223.148557
1223.14852
1223.148636
1223.149005
1223.149326
1223.149168
1223.149373
1223.149365
1223.149358
1223.149223
1223.149319
1223.149381
1223.149357
1223.149432
1223.149546
1223.149788
1223.15018
1223.150774
1223.147164
1223.147125
1223.147184
1223.147213
1223.147133
1223.147238
1223.147094
1223.147256
1223.147415
1223.147251
1223.147268
1223.147725
1223.148519
1223.150644
1223.14808
1223.148213
1223.148386
1223.148366
1223.148329
1223.148213
1223.148169
1223.148135
1223.148168
1223.148222
1223.148293
1223.148582
1223.150443
1223.156976
1223.173843
1223.149605
1223.149601
1223.149672
1223.149682
1223.149573
1223.149547
1223.149525
1223.149541
1223.149474
1223.149514
1223.149681
1223.150387
1223.154112
1223.170389
1223.221588
1223.149521
1223.149656
1223.149595
1223.149504
1223.14967
1223.149667
1223.14961
1223.149608
1223.14964
1223.149735
1223.149797
1223.150382
1223.152167
1223.158691
1223.175386
1223.148528
1223.14846
1223.148538
1223.148289
1223.14822
1223.148156
1223.148144
1223.14804
1223.148151
1223.148142
1223.148186
1223.148485
1223.149287
1223.151327
1223.155736
1223.154493
1223.154626
1223.154558
1223.154573
1223.154689
1223.154471
1223.154454
1223.154306
1223.154147
1223.154259
1223.154178
1223.154275
1223.154556
1223.155112
1223.156205
1223.151447
1223.151278
1223.151195
1223.151174
1223.151044
1223.150927
1223.150879
1223.151004
1223.15099
1223.151146
1223.151199
1223.151377
1223.151541
1223.151892
1223.152249
1223.152537
1223.152534
1223.15235
1223.152412
1223.152209
1223.152188
1223.152087
1223.15215
1223.152178
1223.152133
1223.152269
1223.152264
1223.152356
1223.152651
1223.14842
1223.148257
1223.148066
1223.148007
1223.148067
1223.148101
1223.148217
1223.148319
1223.148355
1223.148584
1223.14846
1223.148409
1223.14864
1223.149623
1223.155334
1223.155247
1223.155201
1223.155173
1223.155279
1223.155106
1223.155127
1223.154995
1223.154735
1223.154692
1223.154803
1223.155223
1223.156345
1223.159982
1223.15133
1223.151395
1223.1515
1223.151391
1223.151219
1223.151264
1223.151514
1223.151553
1223.151618
1223.151666
1223.151861
1223.152598
1223.156455
1223.172634
1223.153343
1223.153266
1223.153242
1223.153206
1223.153247
1223.15319
1223.153271
1223.153378
1223.153419
1223.153272
1223.153588
1223.155034
1223.164403
1223.224932
1217.398002
1223.15473
1223.154618
1223.154631
1223.154656
1223.154441
1223.15428
1223.154402
1223.154486
1223.154556
1223.154575
1223.154755
1223.155553
1223.159313
1223.175394
1223.226453
1223.150827
1223.150936
1223.151124
1223.151233
1223.151459
1223.15133
1223.1515
1223.15139
1223.151533
1223.15159
1223.151637
1223.151989
1223.153266
1223.157249
1223.166699
1223.146734
1223.146667
1223.146779
1223.146839
1223.146854
1223.146918
1223.14685
1223.146998
1223.147111
1223.147178
1223.147195
1223.147342
1223.147587
1223.148493
1223.150553
1223.146742
1223.146888
1223.146861
1223.146877
1223.146887
1223.146876
1223.146887
1223.146954
1223.146963
1223.146708
1223.146753
1223.146649
1223.146588
1223.146963
1223.147556
1223.145707
1223.145872
1223.146054
1223.14599
1223.145973
1223.146033
1223.145943
1223.145823
1223.145879
1223.145823
1223.145785
1223.145875
1223.146009
1223.146247
1223.147179
1223.147331
1223.147425
1223.147408
1223.147399
1223.147406
1223.147514
1223.147515
1223.147529
1223.147483
1223.147443
1223.1475
1223.147932
1223.148739
1223.147571
1223.147503
1223.147368
1223.147423
1223.147418
1223.147402
1223.147465
1223.147576
1223.147581
1223.147474
1223.147645
1223.147701
1223.148289
1223.150439
1223.150983
1223.151019
1223.151136
1223.151163
1223.151143
1223.151051
1223.151201
1223.15108
1223.150993
1223.15098
1223.151208
1223.151714
1223.153636
1223.160256
1223.151259
1223.151369
1223.151338
1223.151204
1223.151121
1223.151152
1223.151054
1223.150989
1223.150902
1223.151079
1223.151376
1223.152055
1223.155813
1223.172005
1223.149408
1223.149437
1223.149431
1223.149483
1223.149402
1223.149525
1223.149606
1223.14955
1223.149607
1223.149619
1223.149804
1223.150424
1223.152275
1223.158975
1223.150262
1223.150161
1223.150176
1223.150099
1223.150265
1223.150237
1223.150309
1223.150285
1223.150206
1223.150217
1223.150401
1223.15071
1223.151419
1223.153491
1223.157704
1223.147188
1223.147286
1223.14736
1223.14745
1223.147601
1223.147527
1223.147516
1223.147492
1223.147479
1223.147341
1223.147327
1223.147558
1223.147762
1223.148472
1223.149774
1223.149551
1223.149585
1223.149577
1223.149409
1223.149314
1223.14935
1223.149493
1223.149508
1223.149585
1223.149575
1223.149618
1223.14966
1223.149705
1223.14989
1223.150133
1223.149972
1223.149963
1223.149887
1223.14997
1223.149948
1223.150069
1223.150148
1223.150201
1223.150088
1223.150052
1223.150157
1223.150181
1223.150206
1223.150274
1223.152468
1223.152482
1223.152458
1223.152408
1223.152458
1223.152513
1223.152297
1223.152406
1223.152354
1223.152248
1223.152245
1223.152233
1223.152507
1223.152746
1223.155847
1223.155791
1223.155647
1223.155792
1223.155571
1223.155529
1223.155562
1223.155575
1223.155761
1223.155668
1223.155777
1223.155815
1223.155976
1223.156625
1223.152292
1223.152297
1223.152324
1223.152629
1223.152466
1223.152247
1223.152169
1223.152259
1223.152302
1223.152412
1223.152355
1223.152611
1223.153256
1223.155443
1223.148543
1223.148589
1223.148491
1223.148331
1223.148405
1223.148452
1223.148383
1223.148356
1223.148405
1223.148432
1223.148383
1223.148701
1223.149796
1223.153616
1223.148648
1223.148742
1223.148761
1223.148847
1223.148628
1223.148722
1223.148795
1223.1488
1223.148643
1223.148568
1223.148636
1223.14872
1223.149451
1223.151803
1223.151521
1223.151698
1223.151657
1223.151652
1223.151533
1223.151414
1223.151332
1223.151457
1223.151578
1223.151524
1223.151498
1223.151458
1223.151938
1223.152578
1223.151923
1223.151987
1223.152034
1223.151931
1223.151902
1223.151923
1223.152077
1223.151945
1223.15185
1223.151797
1223.151801
1223.151878
1223.152003
1223.152391
1223.153062
1223.150142
1223.150185
1223.150171
1223.150244
1223.150289
1223.150292
1223.150308
1223.150259
1223.150377
1223.150295
1223.150269
1223.150319
1223.150566
1223.150606
1223.150888
1223.152186
1223.15204
1223.152136
1223.152035
1223.151867
1223.151974
1223.152052
1223.151858
1223.152022
1223.152124
1223.152066
1223.151913
1223.151859
1223.151866
1223.148633
1223.148569
1223.148801
1223.148793
1223.148671
1223.148587
1223.14876
1223.148734
1223.148744
1223.148676
1223.148723
1223.148834
1223.14905
1223.149066
1223.147877
1223.147784
1223.147838
1223.147806
1223.147859
1223.14785
1223.14775
1223.147825
1223.147898
1223.147874
1223.147776
1223.147959
1223.14789
1223.148297
1223.14976
1223.149696
1223.149549
1223.149756
1223.149666
1223.149548
1223.149643
1223.149864
1223.14974
1223.149818
1223.149953
1223.150041
1223.15032
1223.150836
1223.153446
1223.153475
1223.153389
1223.15347
1223.153488
1223.153609
1223.153602
1223.153609
1223.153523
1223.1536
1223.153657
1223.153909
1223.154077
1223.154823
1223.150936
1223.150835
1223.150739
1223.150697
1223.150788
1223.150672
1223.150757
1223.150557
1223.150685
1223.150606
1223.150681
1223.150725
1223.151115
1223.151863
1223.15328
1223.153305
1223.153348
1223.153186
1223.15319
1223.153195
1223.153116
1223.152995
1223.152782
1223.152878
1223.152775
1223.153018
1223.152945
1223.153235
1223.15283
1223.152832
1223.152775
1223.152786
1223.152742
1223.152825
1223.152899
1223.153262
1223.15318
1223.153067
1223.152797
1223.152625
1223.152768
1223.152957
1223.152645
1223.152704
1223.152883
1223.152917
1223.15298
1223.152863
1223.152938
1223.152931
1223.152837
1223.152915
1223.152994
1223.153049
1223.153065
1223.153135
1223.153282
1223.148112
1223.148056
1223.148041
1223.148056
1223.148088
1223.148162
1223.14814
1223.148157
1223.14817
1223.148166
1223.148162
1223.148162
1223.148115
1223.148166
1223.15019
1223.150236
1223.150261
1223.150249
1223.150467
1223.150433
1223.150445
1223.150402
1223.150459
1223.150297
1223.150531
1223.150568
1223.150663
1223.150609
1223.150911
1223.150847
1223.150836
1223.15087
1223.150956
1223.150988
1223.151111
1223.151123
1223.151143
1223.151179
1223.151254
1223.151343
1223.151318
1223.151372
1223.151854
1223.151869
1223.151736
1223.151857
1223.151856
1223.151876
1223.151983
1223.151979
1223.151965
1223.151949
1223.152019
1223.152103
1223.152034
1223.152235
1223.149996
1223.150084
1223.150324
1223.150568
1223.150536
1223.150431
1223.150479
1223.150402
1223.150406
1223.150433
1223.150562
1223.150681
1223.150783
1223.151002
1223.155192
1223.155082
1223.154905
1223.154895
1223.154847
1223.154803
1223.154715
1223.154887
1223.154864
1223.15495
1223.155072
1223.155026
1223.155122
1223.155336
1223.152168
1223.152171
1223.152155
1223.152067
1223.152003
1223.152082
1223.152039
1223.151962
1223.152094
1223.152172
1223.15227
1223.152167
1223.152259
1223.152469
1223.145945
1223.145939
1223.14594
1223.145947
1223.145951
1223.145821
1223.145838
1223.145693
1223.145529
1223.145465
1223.145491
1223.14559
1223.145727
1223.145833
1223.149547
1223.14952
1223.149475
1223.14946
1223.149414
1223.149513
1223.149438
1223.149323
1223.149216
1223.149328
1223.149258
1223.149289
1223.149281
1223.149363
)
;

boundaryField
{
    top
    {
        type            zeroGradient;
    }
    bottom
    {
        type            zeroGradient;
    }
    side-walls
    {
        type            zeroGradient;
    }
    inlet
    {
        type            zeroGradient;
    }
    outlet
    {
        type            zeroGradient;
    }
    procBoundary0to1
    {
        type            processor;
        value           nonuniform List<scalar> 
97
(
1223.150692
1223.152208
1223.15177
1223.147352
1223.15788
1223.157046
1223.14556
1223.150069
1223.152528
1223.150401
1223.152208
1223.152208
1223.153064
1223.148017
1223.155168
1223.155516
1223.157105
1223.156392
1223.158694
1223.148987
1223.154281
1223.150446
1223.148017
1223.148017
1223.154703
1223.155118
1223.16142
1223.177714
1223.159283
1223.156937
1223.152371
1223.149385
1223.149513
1223.152198
1223.155118
1223.155118
1223.185054
1223.223858
1223.230114
1223.186725
1223.160743
1223.158015
1223.1531
1223.153161
1223.151565
1223.169362
1223.223858
1223.223858
1217.198013
1223.223316
1223.235081
1223.175773
1223.173842
1223.152948
1223.148568
1223.146658
1223.149916
1223.154683
1223.176943
1223.223316
1223.175773
1223.175773
1223.162568
1223.15428
1223.151355
1223.15086
1223.150565
1223.153717
1223.158299
1223.160086
1223.162948
1223.156232
1223.15428
1223.15428
1223.154026
1223.153161
1223.151303
1223.151907
1223.149402
1223.148969
1223.152066
1223.156957
1223.153162
1223.153907
1223.153161
1223.153161
1223.153517
1223.149445
1223.148337
1223.150677
1223.151671
1223.152622
1223.151564
1223.155878
1223.152607
1223.14585
1223.149445
)
;
    }
}


// ************************************************************************* //
