/*--------------------------------*- C++ -*----------------------------------*\
| =========                 |                                                 |
| \\      /  F ield         | OpenFOAM: The Open Source CFD Toolbox           |
|  \\    /   O peration     | Version:  4.x                                   |
|   \\  /    A nd           | Web:      www.OpenFOAM.org                      |
|    \\/     M anipulation  |                                                 |
\*---------------------------------------------------------------------------*/
FoamFile
{
    version     2.0;
    format      ascii;
    class       volVectorField;
    location    "5000";
    object      U;
}
// * * * * * * * * * * * * * * * * * * * * * * * * * * * * * * * * * * * * * //

dimensions      [0 1 -1 0 0 0 0];

internalField   nonuniform List<vector> 
1175
(
(0.01099999945 9.228641821e-10 -5.881120562e-10)
(0.01100000033 1.289580219e-09 1.041233278e-09)
(0.01099999877 -6.012595131e-10 -3.929477026e-11)
(0.01099999916 -3.406114215e-09 1.695927501e-09)
(0.0110000019 -1.255543417e-09 2.255117084e-09)
(0.01100000071 -5.963142964e-10 -1.174174298e-10)
(0.01100000065 -8.616644782e-10 -1.072618159e-09)
(0.01100000253 -1.966473644e-09 -1.016480932e-09)
(0.01100001304 -1.594888755e-09 -3.413727741e-09)
(0.01100001809 -2.213073039e-09 -6.250520551e-09)
(0.01100003348 -3.531028553e-09 -6.375322734e-09)
(0.01100004674 -4.905142258e-09 -6.524521268e-09)
(0.01100008463 -1.176128625e-08 -1.172714514e-08)
(0.01100011496 -8.633562825e-09 -9.139012394e-09)
(0.01100018036 -2.491837379e-08 -2.45114033e-08)
(0.01100000051 -8.696798229e-11 -1.838647236e-10)
(0.01099999958 7.159023655e-10 -9.366139098e-10)
(0.01099999948 7.603430943e-10 6.355981637e-11)
(0.01100000052 -3.197868232e-10 2.006075718e-09)
(0.01100000149 -7.976206855e-10 -4.606818446e-10)
(0.01100000079 9.717139466e-10 -1.492761552e-09)
(0.01100000326 -6.464590238e-11 -7.065664999e-10)
(0.01100000356 -1.825094885e-09 -3.173874842e-10)
(0.01100001002 -4.632114033e-09 -2.450165353e-09)
(0.01100001235 -7.93799342e-09 -4.316613182e-09)
(0.01100002892 -1.38735572e-08 -6.790358077e-09)
(0.0110000356 -1.974647704e-08 -7.886184322e-09)
(0.0110000798 -3.909223418e-08 -1.380043599e-08)
(0.01100009853 -3.803488565e-08 -1.038013086e-08)
(0.01100017822 -9.143537995e-08 -3.626054354e-08)
(0.01099999818 8.755613355e-10 -5.312136302e-10)
(0.01100000005 -1.048656889e-09 8.131232038e-10)
(0.01099999974 5.859071896e-10 9.27455806e-10)
(0.01100000039 -1.382956065e-09 1.934920235e-09)
(0.01100000199 1.56901727e-09 -5.428307246e-10)
(0.01099999926 -1.609664926e-09 -3.919417376e-09)
(0.01099999775 -6.069216752e-10 -4.329428342e-11)
(0.01100000077 -2.422019549e-09 -1.762848417e-09)
(0.01100000615 -4.449273646e-09 -3.708200054e-09)
(0.01100000664 -8.385056173e-09 -3.560232332e-09)
(0.01100001942 -1.869348943e-08 -7.648925829e-09)
(0.01100001741 -2.323123042e-08 -1.308851452e-08)
(0.01100006003 -4.126065118e-08 -2.049499825e-08)
(0.01100005618 -3.927074068e-08 -1.990842045e-08)
(0.01100016382 -1.137911988e-07 -7.799239758e-08)
(0.01099999899 -8.90977773e-10 2.96631325e-10)
(0.01099999945 -2.373495514e-10 1.058312863e-09)
(0.01099999932 -1.407293471e-09 7.860414661e-10)
(0.01099999939 2.295747107e-10 2.843005675e-10)
(0.01100000265 -3.579215877e-10 -1.818247873e-09)
(0.01099999956 -1.83557703e-09 -1.600064897e-09)
(0.01099999808 -5.449454507e-10 -2.078051964e-09)
(0.01099999778 -2.541398217e-09 -2.177556291e-10)
(0.01100000087 -2.68218183e-09 -2.64165197e-09)
(0.01100000437 -7.631002735e-09 -3.766446359e-09)
(0.01100001581 -1.225156749e-08 -3.717035469e-09)
(0.0110000068 -2.563379872e-08 -1.154325978e-08)
(0.01100005791 -5.254662787e-08 -2.027967372e-08)
(0.01100002684 -6.280885574e-08 -1.621896144e-08)
(0.01100016798 -1.813030361e-07 -1.053164183e-07)
(0.01099999988 -2.218618922e-09 -9.603535286e-10)
(0.01099999921 -2.655312834e-09 -7.217519875e-10)
(0.01100000059 -8.706142465e-10 -7.077794526e-10)
(0.01100000089 9.148144618e-10 -1.258528055e-09)
(0.01099999746 -2.373661092e-09 4.786575022e-10)
(0.01099999907 -8.746766301e-10 -1.845163906e-09)
(0.01099999851 -1.200804821e-09 -2.638853221e-09)
(0.01099999868 6.91665884e-10 -3.641391061e-09)
(0.01100000047 -3.345009547e-10 -2.26491608e-09)
(0.01099999521 1.341030555e-09 -5.30375961e-09)
(0.01100000099 1.53281472e-09 -9.284079933e-09)
(0.01099997564 -1.045736332e-10 -2.036353047e-08)
(0.01100001683 6.42033801e-10 -3.910399315e-08)
(0.01099992929 -9.21383437e-10 -5.351200614e-08)
(0.01100015332 -1.378900593e-09 -2.579176205e-07)
(0.01099999837 -9.045392737e-10 9.961126936e-10)
(0.0110000012 -6.994335916e-10 9.375409669e-10)
(0.01099999983 -5.303538666e-10 1.322178694e-09)
(0.01099999798 -7.167224577e-10 -2.348590291e-10)
(0.01099999837 9.705155586e-11 3.422926258e-10)
(0.01099999991 4.244215891e-10 -1.692665834e-09)
(0.01099999931 4.201346646e-10 7.680768138e-10)
(0.01099999972 2.961826109e-09 -2.363760118e-09)
(0.01100000222 4.889593553e-09 -1.661754487e-09)
(0.01100000149 8.584357051e-09 -3.660095571e-09)
(0.01100001316 1.364546489e-08 -6.373789216e-09)
(0.01100000597 2.393560446e-08 -1.023949448e-08)
(0.01100005475 5.050583732e-08 -1.889312958e-08)
(0.01100002616 5.987876583e-08 -1.601473493e-08)
(0.01100016911 1.803953623e-07 -1.050617907e-07)
(0.01100000029 -1.876940137e-09 -3.554841585e-10)
(0.0109999991 -4.768212974e-10 6.253620422e-10)
(0.01099999872 -1.551337229e-09 1.06700338e-09)
(0.01099999886 -3.117348198e-09 -8.846383099e-10)
(0.01099999926 1.126064493e-09 -3.097657525e-10)
(0.01100000014 2.53658496e-11 1.435976183e-09)
(0.01100000181 7.812512879e-10 -1.20188547e-09)
(0.0110000038 3.172455241e-09 -5.186546856e-10)
(0.0110000053 6.040337148e-09 8.798160657e-10)
(0.01100000595 7.17730723e-09 -1.218050001e-09)
(0.01100001822 1.298867377e-08 -4.04409974e-09)
(0.01100001384 2.087465103e-08 -7.663695558e-09)
(0.01100005817 3.982518337e-08 -2.109278013e-08)
(0.01100005749 3.800582136e-08 -1.813991735e-08)
(0.01100016849 1.127015078e-07 -7.565236442e-08)
(0.01099999882 -2.170471171e-09 -1.070989216e-11)
(0.01100000131 -6.530153109e-10 1.924486793e-09)
(0.01100000025 -2.655264544e-10 -3.260185416e-10)
(0.01099999868 -4.357630426e-10 -7.675269841e-10)
(0.01100000389 5.717779226e-10 -1.886042742e-09)
(0.01100000116 1.436242463e-09 -7.839017505e-10)
(0.01100000401 1.650378705e-09 -2.663798442e-10)
(0.01100000367 2.940458299e-09 -1.133808796e-09)
(0.01100000702 3.046812356e-09 -9.837626968e-10)
(0.01100001309 6.904798828e-09 -9.370151569e-10)
(0.01100002865 1.269605629e-08 -3.031437803e-09)
(0.01100003505 1.886706374e-08 -5.235015128e-09)
(0.01100007883 3.660144922e-08 -1.424894361e-08)
(0.01100010087 3.763301506e-08 -1.03674029e-08)
(0.01100018079 9.283568915e-08 -3.599648493e-08)
(0.01100000105 -5.05005132e-10 7.458350973e-10)
(0.01100000135 2.852825115e-10 -1.51170378e-09)
(0.01100000126 3.124839237e-10 -2.155518964e-09)
(0.01099999992 1.111236657e-09 4.578453202e-10)
(0.01100000473 6.971954789e-10 9.910876701e-10)
(0.01100000367 2.033192255e-09 -5.961293422e-10)
(0.01100000449 2.755372731e-09 1.08638317e-09)
(0.01100000272 2.229438307e-09 -1.081216637e-09)
(0.01100000826 1.670682168e-09 -2.369962699e-10)
(0.01100001499 3.393200422e-09 1.462912355e-09)
(0.01100003153 5.458094516e-09 -2.360421398e-09)
(0.01100004611 5.620931278e-09 -3.910512038e-09)
(0.01100008542 1.30963453e-08 -1.09727005e-08)
(0.01100011629 1.125821073e-08 -1.074274372e-08)
(0.01100018533 2.54622159e-08 -2.542785654e-08)
(0.01100000033 3.191379432e-10 3.663238272e-10)
(0.01099999982 3.033531464e-09 1.611049804e-10)
(0.01099999763 1.127554062e-09 -5.058490005e-10)
(0.01099999894 5.463493512e-10 5.485393944e-10)
(0.0110000005 -2.633770762e-09 8.191524285e-10)
(0.01100000095 -1.849803201e-09 1.270671123e-09)
(0.01100000087 -5.219532787e-10 -1.521589741e-09)
(0.01100000361 -1.638234406e-10 -2.248515474e-09)
(0.01100001247 -2.238314329e-09 -4.834487824e-09)
(0.01100001375 -3.479442364e-09 -7.994055609e-09)
(0.01100002869 -5.436087931e-09 -1.543322161e-08)
(0.0110000374 -5.990251601e-09 -2.044527946e-08)
(0.01100007925 -1.356454234e-08 -3.89342849e-08)
(0.0110000987 -9.661090466e-09 -3.683016164e-08)
(0.01100000049 2.91574929e-10 1.876551382e-10)
(0.01099999948 9.64065191e-10 -1.510397505e-09)
(0.01099999769 4.448116059e-10 2.320125673e-10)
(0.01099999945 -3.585080204e-10 -2.488292823e-10)
(0.01100000043 -1.712464612e-09 9.453765992e-10)
(0.01100000203 1.806480216e-10 -9.74082375e-10)
(0.01100000349 -1.326294885e-09 -2.311448607e-09)
(0.01100000259 -1.742649231e-09 -3.480887132e-09)
(0.011000009 -4.642235671e-09 -5.323826827e-09)
(0.01100000898 -7.751174959e-09 -7.269131197e-09)
(0.01100002531 -1.302227137e-08 -1.6472154e-08)
(0.01100002808 -2.408436877e-08 -2.235876346e-08)
(0.01100007222 -4.668067296e-08 -4.45019427e-08)
(0.01100007322 -4.698186986e-08 -4.704719448e-08)
(0.01100017328 -1.433205477e-07 -1.439660523e-07)
(0.01100000147 3.428064655e-10 -1.811532411e-10)
(0.01099999814 -1.361368916e-09 -4.666815821e-10)
(0.01099999749 -4.658850099e-10 -4.636288112e-10)
(0.01099999916 -6.085150636e-10 -1.282890544e-09)
(0.01100000114 9.283270785e-10 -1.220906466e-09)
(0.0109999999 -1.963769692e-10 -3.140629018e-09)
(0.01099999946 -6.42331385e-10 -1.679683866e-09)
(0.01099999864 -1.869537163e-09 -2.992764464e-09)
(0.01100000202 -5.12128667e-09 -4.511732294e-09)
(0.01100000274 -1.049149386e-08 -9.479396103e-09)
(0.01100001094 -1.681147246e-08 -1.772522807e-08)
(0.0109999996 -2.61602829e-08 -3.494762315e-08)
(0.01100004836 -4.68185208e-08 -6.908750384e-08)
(0.01100000075 -4.447617671e-08 -8.138408544e-08)
(0.01100015183 -1.840374946e-07 -3.101931284e-07)
(0.01099999874 1.96885217e-10 -6.315814516e-10)
(0.01099999888 -1.302716424e-09 1.170734883e-09)
(0.01099999785 -1.631920214e-09 -1.357931942e-10)
(0.0109999991 3.26288948e-10 6.664210238e-10)
(0.01099999994 2.1195718e-10 -4.122528074e-10)
(0.01099999843 -9.881684024e-11 -1.576635059e-09)
(0.01099999947 -9.777724188e-10 -2.127016e-09)
(0.01099999763 -2.399493451e-09 -3.435484722e-09)
(0.01099999834 -2.779122967e-09 -4.693148499e-09)
(0.01099999719 -7.857231582e-09 -9.417647937e-09)
(0.01100000606 -1.577741163e-08 -1.486227655e-08)
(0.01099999439 -3.297667656e-08 -3.790654912e-08)
(0.0110000404 -7.130830914e-08 -6.728768632e-08)
(0.01099995319 -9.578193022e-08 -9.475658544e-08)
(0.01100014814 -3.698489672e-07 -4.779997881e-07)
(0.01099999966 -2.138841055e-09 -2.349009005e-11)
(0.01099999745 -1.957393989e-09 1.627365463e-09)
(0.01100000007 -1.585558858e-09 -2.020162201e-10)
(0.01100000007 -1.479499092e-09 2.938113656e-10)
(0.01099999621 -6.918348438e-10 -7.993804622e-10)
(0.01099999827 -1.938241699e-09 7.874302319e-10)
(0.01099999824 -4.718202893e-10 -1.334326732e-09)
(0.01099999688 -2.285148929e-09 -3.608624552e-09)
(0.01099999356 1.054732936e-09 -5.569080985e-09)
(0.01099998714 1.352775001e-09 -1.485891031e-08)
(0.01099998663 8.725559218e-10 -2.361951752e-08)
(0.01099994545 8.178468305e-10 -6.81823254e-08)
(0.01099996181 -8.963836854e-10 -1.319724608e-07)
(0.01099973038 -1.539337845e-09 -2.464248695e-07)
(0.01100010735 -1.86520306e-09 -1.178899337e-06)
(0.01100000021 -2.195513997e-09 -3.87856454e-10)
(0.01099999968 -6.313920816e-10 3.452560752e-10)
(0.01099999933 5.376312203e-11 6.488601839e-10)
(0.01099999817 -1.115753323e-09 -2.087407498e-09)
(0.01099999878 -6.915413872e-10 6.900679338e-10)
(0.01099999951 6.944536138e-12 3.263206229e-10)
(0.01099999846 6.228371683e-10 -2.942755223e-09)
(0.01099999849 3.984821031e-09 -3.982814002e-09)
(0.01100000092 4.910524498e-09 -5.49438871e-09)
(0.01099999863 9.51472618e-09 -1.18555893e-08)
(0.01100000501 1.627625823e-08 -1.574800755e-08)
(0.01099999234 3.222102289e-08 -3.94645782e-08)
(0.01100003907 6.963059748e-08 -6.931727966e-08)
(0.0109999518 9.48006744e-08 -9.49340636e-08)
(0.01100014868 3.681955365e-07 -4.778562535e-07)
(0.0110000013 -2.210503012e-09 -8.618212471e-10)
(0.01100000112 -1.750486908e-10 1.149703249e-09)
(0.01099999985 -1.421327065e-09 1.773145881e-10)
(0.01099999868 -2.413912623e-09 1.557322124e-09)
(0.01099999851 -7.963807029e-10 -2.049930791e-11)
(0.01099999734 9.998725269e-10 -9.647976299e-10)
(0.01100000058 1.232251104e-09 -1.066467372e-09)
(0.01099999998 4.545379118e-09 -1.983349315e-09)
(0.01100000103 4.975905986e-09 -4.897837922e-09)
(0.01099999984 8.51145983e-09 -9.367390647e-09)
(0.01100000775 1.57445319e-08 -1.798900721e-08)
(0.01099999671 2.493783135e-08 -3.417154335e-08)
(0.01100004624 4.703403549e-08 -6.847698467e-08)
(0.01100000059 4.272779381e-08 -7.888162395e-08)
(0.01100015314 1.853817103e-07 -3.067220943e-07)
(0.01099999968 -9.406385757e-10 -1.702831789e-11)
(0.01099999872 -1.987053747e-09 1.530924731e-09)
(0.01100000237 -2.677478428e-10 6.181313725e-10)
(0.01099999996 -7.906493603e-10 9.825423475e-10)
(0.011000003 -3.512439983e-11 1.025156602e-10)
(0.01099999975 5.44357686e-10 2.508789194e-11)
(0.01100000194 7.578902938e-10 -1.458453591e-09)
(0.0110000005 2.668358513e-09 -3.287219537e-09)
(0.01100000564 4.458081833e-09 -5.443038076e-09)
(0.01100000856 7.410478284e-09 -7.106089058e-09)
(0.01100002146 1.29787099e-08 -1.479030494e-08)
(0.01100002406 2.353338605e-08 -2.273517716e-08)
(0.01100007097 4.64994638e-08 -4.446375212e-08)
(0.01100007339 4.550775229e-08 -4.474177358e-08)
(0.01100017726 1.430980915e-07 -1.41776802e-07)
(0.0110000009 -1.151437821e-09 3.543096114e-10)
(0.01100000066 -7.945514235e-10 -1.116589995e-11)
(0.01100000036 -2.446526135e-10 5.258526944e-10)
(0.01099999942 9.28799385e-10 3.49386363e-11)
(0.01100000191 3.132026437e-10 -1.433358349e-09)
(0.01100000134 -7.020203336e-10 -2.747398473e-10)
(0.01100000483 3.099529227e-10 -1.91510045e-09)
(0.01100000188 4.876639663e-10 -2.673151586e-09)
(0.01100000665 1.174943988e-09 -4.58587199e-09)
(0.0110000116 2.079198379e-09 -5.691367099e-09)
(0.01100002677 3.650371579e-09 -1.114451339e-08)
(0.01100003627 6.323839651e-09 -1.611212285e-08)
(0.01100007748 1.501748395e-08 -3.644106773e-08)
(0.0110000988 1.052308284e-08 -3.657097028e-08)
(0.01100017747 3.570649162e-08 -9.151119022e-08)
(0.01100000071 1.104518023e-09 1.030177267e-09)
(0.01099999988 -1.380014599e-10 1.005118274e-09)
(0.01099999918 -2.905823674e-10 -3.646100256e-10)
(0.01099999666 -1.811780438e-09 -8.46473963e-10)
(0.01100000087 -2.452211293e-09 9.727334039e-10)
(0.01099999999 3.13258633e-10 -3.661104527e-10)
(0.01100000137 -2.400444736e-09 -2.562702412e-10)
(0.01100000085 1.783162158e-10 -1.420739809e-09)
(0.01100000622 -4.271560076e-10 -4.627328919e-09)
(0.01100000713 -1.69420242e-09 -8.623680284e-09)
(0.01100001734 -3.858219153e-09 -1.505293545e-08)
(0.0110000164 -6.246906628e-09 -2.296049102e-08)
(0.01100006183 -2.020716924e-08 -4.113390997e-08)
(0.01100005499 -1.783549517e-08 -3.959477303e-08)
(0.01099999983 -6.804731084e-10 -9.221832233e-10)
(0.01099999961 -8.162864535e-10 7.96345721e-10)
(0.01099999861 -6.151053562e-10 4.035837876e-11)
(0.01100000061 -3.106802752e-09 -5.100686971e-10)
(0.01099999865 -1.965195006e-09 7.82778409e-10)
(0.01099999851 -1.860800884e-09 1.098656279e-09)
(0.01100000052 -1.955472035e-09 5.849573321e-10)
(0.01099999991 -2.995335131e-09 -2.441035598e-09)
(0.01100000218 -4.15946529e-09 -3.092027911e-09)
(0.01100000141 -1.084425248e-08 -8.601935231e-09)
(0.01100000932 -1.692089679e-08 -1.543595316e-08)
(0.01100000074 -3.449795944e-08 -2.614991975e-08)
(0.01100004507 -6.959994226e-08 -4.808875286e-08)
(0.01099999802 -8.09332981e-08 -4.414322777e-08)
(0.01100000059 5.469657553e-10 9.446148586e-11)
(0.01099999978 6.289226912e-10 7.871144081e-10)
(0.01099999917 2.269877531e-10 3.427032575e-10)
(0.01100000063 1.330434939e-10 8.488743775e-10)
(0.01100000029 -2.252428035e-09 -4.855707143e-10)
(0.01100000092 -2.614988177e-09 -5.655518589e-10)
(0.01099999717 -1.385514905e-09 -1.420387371e-09)
(0.01099999714 -4.028067783e-09 -1.86375616e-09)
(0.01099999445 -5.92490747e-09 -5.151528182e-09)
(0.01099998984 -1.353078787e-08 -1.172449018e-08)
(0.01099999129 -1.682298132e-08 -1.526091675e-08)
(0.0109999624 -3.844644535e-08 -3.748010132e-08)
(0.01099999086 -6.426287569e-08 -6.48512174e-08)
(0.01099983332 -8.611432694e-08 -8.752276319e-08)
(0.01100008228 -4.524185744e-07 -4.574418243e-07)
(0.01100000015 6.415112671e-10 2.983270415e-10)
(0.01100000067 4.632288303e-10 -1.545708386e-10)
(0.01099999794 -3.825759436e-10 4.810628234e-10)
(0.01099999763 9.573526966e-10 4.034119134e-10)
(0.01099999902 1.040837214e-09 7.031607583e-10)
(0.01099999889 3.354787254e-10 -2.271329993e-09)
(0.01099999471 -7.776047597e-10 -1.337924661e-09)
(0.01099999524 -2.695277731e-09 -3.839949348e-09)
(0.01099999148 -4.605981688e-09 -2.419425857e-09)
(0.01099998911 -1.331265791e-08 -1.283203584e-08)
(0.01099998037 -1.978886813e-08 -6.220870087e-09)
(0.01099995944 -5.981282708e-08 -4.220577613e-08)
(0.01099994492 -1.170990302e-07 -1.68642747e-08)
(0.01099972466 -2.305340168e-07 -9.372254318e-08)
(0.01099992669 -1.067641246e-06 -6.702002123e-07)
(0.0110000005 -2.603155076e-10 1.038855877e-09)
(0.01099999848 -1.027026699e-09 2.176533906e-09)
(0.01099999792 -1.411569797e-09 2.852011456e-09)
(0.0109999987 -1.769363663e-09 1.017233796e-09)
(0.0109999992 5.258855956e-10 1.988983964e-09)
(0.01099999863 -9.79225975e-11 -2.984316761e-09)
(0.0109999943 -3.624274367e-10 -5.219047275e-10)
(0.0109999929 -5.061274833e-10 -5.100406963e-09)
(0.01099998217 8.312378624e-10 -5.747222478e-09)
(0.01099997549 2.281084446e-09 -1.957004495e-08)
(0.01099993984 3.139745629e-10 -1.486552358e-08)
(0.01099987259 -3.394055692e-10 -8.95223918e-08)
(0.01099973503 -2.551768244e-09 -8.732061137e-08)
(0.01099910497 -2.856230584e-09 -4.415786997e-07)
(0.01099948929 -6.484257568e-10 -2.333167123e-06)
(0.01100000048 -1.717157771e-09 9.525079496e-10)
(0.01099999922 -1.113314237e-10 1.513925379e-09)
(0.01099999867 -1.749930174e-10 -8.611392127e-10)
(0.01099999887 -4.318219241e-10 -2.315941878e-10)
(0.01100000061 -4.969147661e-10 -9.833335743e-11)
(0.01099999872 1.515469257e-09 -1.121344017e-09)
(0.01099999645 1.032369908e-09 -6.718421451e-10)
(0.01099999571 3.179407796e-09 -4.9731506e-09)
(0.01099999166 4.13126678e-09 -3.884393047e-09)
(0.01099999101 1.23407716e-08 -1.383729856e-08)
(0.01099997952 2.055272978e-08 -9.166214068e-09)
(0.01099995631 5.823807958e-08 -4.210439275e-08)
(0.01099994611 1.160068984e-07 -1.667832945e-08)
(0.01099972813 2.293699528e-07 -9.445402663e-08)
(0.01099992775 1.068126268e-06 -6.704758652e-07)
(0.01099999983 -2.119521993e-09 2.283232007e-09)
(0.01100000042 -1.353755625e-09 2.642581556e-10)
(0.01100000041 -1.273353309e-09 5.391967578e-10)
(0.01099999987 -1.619232029e-09 1.037584619e-10)
(0.01100000122 -1.396450579e-09 -1.942615977e-09)
(0.01099999827 -8.272977702e-10 -1.164271676e-09)
(0.01099999841 1.750201012e-09 -2.16548263e-09)
(0.01099999638 4.385497862e-09 -5.451226511e-09)
(0.01099999505 5.069924334e-09 -5.010094514e-09)
(0.01099998893 1.281682367e-08 -1.296269365e-08)
(0.0109999914 1.492821963e-08 -1.508957454e-08)
(0.01099995952 3.793120154e-08 -3.75300197e-08)
(0.0109999916 6.49832967e-08 -6.355298684e-08)
(0.01099983343 8.695000576e-08 -8.597020958e-08)
(0.01100008772 4.555300559e-07 -4.550209609e-07)
(0.01100000061 -7.974641283e-10 1.281868503e-09)
(0.01100000003 -1.117996382e-09 5.144661189e-10)
(0.01100000058 -1.071692158e-09 1.615698368e-09)
(0.01099999857 -4.139861366e-10 5.865605804e-10)
(0.01099999996 4.703009975e-10 1.201189793e-09)
(0.0109999985 1.912917058e-09 -6.703512468e-10)
(0.01100000001 9.267803389e-10 -2.110149793e-09)
(0.01099999853 3.254826676e-09 -5.641945595e-09)
(0.01100000235 5.220832177e-09 -5.806165868e-09)
(0.01099999865 1.04594213e-08 -1.076729613e-08)
(0.01100001053 1.712607345e-08 -1.520091075e-08)
(0.01099999867 3.463182594e-08 -2.485301337e-08)
(0.01100004883 6.966975856e-08 -4.726240317e-08)
(0.01099999855 7.973189631e-08 -4.312348098e-08)
(0.01100015501 3.093242685e-07 -1.841575968e-07)
(0.01100000041 -5.596945045e-11 2.040334044e-09)
(0.01100000003 -3.124562256e-10 2.008537689e-09)
(0.01100000002 5.591661799e-10 2.079343156e-10)
(0.01100000069 5.830378107e-10 -5.606840206e-12)
(0.01099999979 -7.784162982e-10 -2.859157024e-10)
(0.01100000108 -5.098910228e-10 -1.001859062e-09)
(0.01100000193 5.323643871e-11 -1.586959432e-09)
(0.01100000224 2.571788226e-09 -3.034970121e-09)
(0.0110000032 3.868116377e-09 -5.799024971e-09)
(0.01100000436 4.498700147e-09 -7.538528378e-09)
(0.01100001718 6.709357573e-09 -1.419982468e-08)
(0.01100001573 1.018474588e-08 -2.166068725e-08)
(0.01100006088 2.046352645e-08 -3.984309418e-08)
(0.01100005424 1.815482616e-08 -3.791723126e-08)
(0.0110001655 7.498474661e-08 -1.123468486e-07)
(0.01100000034 -7.7358587e-10 2.050134336e-09)
(0.01099999911 -1.611478318e-09 9.872377708e-10)
(0.01099999811 -7.651728132e-10 6.277168402e-10)
(0.01099999947 1.959433574e-09 2.888805124e-10)
(0.01099999945 -9.802492377e-10 -4.579348275e-11)
(0.01099999798 -2.812854628e-10 -1.83405883e-09)
(0.01100000161 -5.702397007e-11 -7.580328951e-10)
(0.01099999938 -3.908443898e-10 -5.580524995e-10)
(0.01100000361 -1.072826934e-09 -2.231790304e-09)
(0.01100000201 -4.238302596e-09 -6.875371187e-09)
(0.01100001259 -4.518803227e-09 -1.429276568e-08)
(0.01100000712 -9.770465109e-09 -2.484385395e-08)
(0.0110000533 -1.724018277e-08 -5.160093646e-08)
(0.01100002541 -1.503976121e-08 -6.07089775e-08)
(0.01100000085 -1.169803383e-09 1.541042327e-09)
(0.0110000006 -1.201054432e-09 9.317700331e-10)
(0.01100000004 -9.292029776e-10 4.830418736e-10)
(0.01099999857 -7.745935915e-10 1.123155328e-09)
(0.01099999817 -1.195847965e-09 -3.206840042e-10)
(0.01099999834 -2.656766483e-09 2.726704828e-10)
(0.01099999794 -1.521360559e-09 -1.143407244e-09)
(0.01099999803 -3.39494673e-09 -1.146530524e-09)
(0.01099999969 -6.356968445e-09 -3.845652506e-09)
(0.01099999716 -1.111496139e-08 -9.007117214e-09)
(0.0110000051 -1.447565316e-08 -1.632000907e-08)
(0.01099999271 -3.823161192e-08 -3.518249814e-08)
(0.01100003987 -6.967783821e-08 -7.206309149e-08)
(0.01099994932 -9.671507943e-08 -9.575665811e-08)
(0.01100000033 2.332693215e-09 4.786751731e-12)
(0.01099999887 -1.932646807e-10 1.636772234e-10)
(0.0109999992 -5.645749476e-10 -1.386713361e-10)
(0.01099999742 -9.937877761e-10 4.039779489e-10)
(0.01099999761 -7.164878463e-10 4.00172397e-10)
(0.01099999947 -1.579950828e-09 -9.889144031e-10)
(0.01099999668 -2.031969678e-09 -1.917689642e-09)
(0.01099999606 -4.657457688e-09 -2.454746196e-09)
(0.01099999281 -5.657170817e-09 -3.325541927e-09)
(0.01099998867 -1.434280552e-08 -1.209526017e-08)
(0.01099997848 -8.78404158e-09 -2.007323971e-08)
(0.01099995713 -4.307501019e-08 -5.859636692e-08)
(0.01099994583 -1.795774514e-08 -1.1918528e-07)
(0.01099972595 -9.387271761e-08 -2.297027459e-07)
(0.010999998 -1.557378435e-10 -2.693271114e-10)
(0.0109999991 -7.573932366e-10 -5.075700753e-10)
(0.01099999971 -2.274493853e-10 -2.014906045e-10)
(0.01100000015 -6.499285919e-10 -1.537647133e-09)
(0.01099999628 -1.194757365e-10 -6.734546654e-10)
(0.01099999532 -2.490792985e-10 -4.260943927e-10)
(0.01099999423 -9.435764167e-10 -1.011596743e-09)
(0.01099999479 -4.287930838e-09 -3.705155715e-09)
(0.01099998817 -2.840877915e-09 -5.17299843e-09)
(0.01099999419 -1.695124552e-08 -1.587019982e-08)
(0.01099996952 -1.527136639e-08 -1.690671112e-08)
(0.01100001061 -8.487921482e-08 -8.479000398e-08)
(0.0109998412 -9.36918105e-08 -9.648049064e-08)
(0.01099982966 -4.513792036e-07 -4.51168896e-07)
(0.01099882348 -2.246817504e-06 -2.248675806e-06)
(0.01100000191 -1.26504087e-09 -9.632610304e-10)
(0.01099999874 -4.969681981e-10 -1.06245954e-09)
(0.01099999995 -1.137688261e-09 -6.042259287e-11)
(0.0109999983 -8.748959846e-10 -1.136869522e-09)
(0.01099999737 -1.661960401e-10 -1.102467966e-09)
(0.01099999643 -1.131693579e-10 -1.074896356e-09)
(0.01099999211 -1.024789684e-09 -1.75389401e-09)
(0.01099999329 -1.175393176e-09 -3.540506767e-09)
(0.0109999765 -2.351011867e-09 -6.957717938e-09)
(0.01099997909 -8.741324788e-10 -2.344577485e-08)
(0.01099990296 -5.368163136e-10 -2.489456064e-08)
(0.01099991327 -1.794805258e-10 -1.709476081e-07)
(0.01099931015 2.708987853e-10 -2.588434102e-07)
(0.01099879785 -1.81077509e-09 -1.70277446e-06)
(0.01099481552 -9.897147833e-10 -1.075779209e-05)
(0.01099999972 -9.176424228e-10 -6.101108941e-10)
(0.01099999981 -9.255905601e-10 -1.363912494e-09)
(0.01099999943 -7.566782588e-10 -1.275468964e-09)
(0.0109999977 -8.489850135e-10 -5.715829271e-10)
(0.01100000103 -1.762749738e-09 -3.71381668e-10)
(0.01099999716 1.030583811e-09 -1.198010458e-09)
(0.0109999951 6.733587006e-10 -2.265911215e-09)
(0.01099999492 3.023586385e-09 -4.198875816e-09)
(0.01099998945 5.332413935e-09 -5.959547513e-09)
(0.01099999527 1.664575069e-08 -1.643293535e-08)
(0.01099996839 1.541396601e-08 -1.437644027e-08)
(0.0110000119 8.475266817e-08 -8.459874869e-08)
(0.01099984006 9.38769292e-08 -9.271394789e-08)
(0.01099983187 4.4921028e-07 -4.505662249e-07)
(0.01099882394 2.246572877e-06 -2.248115097e-06)
(0.01099999997 -1.872027294e-09 5.65141058e-11)
(0.01099999941 -2.047848189e-09 -6.54237225e-11)
(0.01100000142 -3.933458577e-11 -1.019428804e-09)
(0.01099999753 -1.148746055e-09 -2.237839242e-10)
(0.01099999861 -8.15171555e-10 8.198742026e-10)
(0.01099999843 9.972642065e-10 -9.466990795e-10)
(0.01099999807 1.351792277e-09 -2.268902144e-09)
(0.01099999586 5.053595836e-09 -3.870916418e-09)
(0.01099999202 5.63012299e-09 -6.04413695e-09)
(0.01099998965 1.489011013e-08 -1.259143868e-08)
(0.01099997906 8.095067658e-09 -2.027543422e-08)
(0.01099995744 4.178107206e-08 -5.749681205e-08)
(0.01099994498 1.708012361e-08 -1.153933584e-07)
(0.01099972445 9.580955273e-08 -2.304354205e-07)
(0.01099992562 6.685368391e-07 -1.068103916e-06)
(0.01099999979 -1.250362558e-09 5.322478545e-10)
(0.0110000017 -6.890411803e-11 -4.418364107e-10)
(0.01100000064 -8.939532157e-10 4.172607954e-10)
(0.01099999965 -1.036065293e-09 -6.642042126e-11)
(0.01100000268 -3.015370032e-10 -4.67636238e-10)
(0.01099999844 9.862064924e-10 -6.460848116e-10)
(0.01099999836 1.083114263e-09 -1.528182849e-09)
(0.01099999876 3.361801664e-09 -3.547599732e-09)
(0.01099999877 5.042347819e-09 -2.341675532e-09)
(0.01099999797 1.087227527e-08 -7.395972253e-09)
(0.01100000437 1.517116827e-08 -1.564531536e-08)
(0.01099999233 3.812639065e-08 -3.270697833e-08)
(0.01100003874 6.898416817e-08 -6.887440059e-08)
(0.01099995109 9.495972019e-08 -9.469320325e-08)
(0.01100014529 4.766955828e-07 -3.716926464e-07)
(0.01100000017 3.562612563e-12 1.625931928e-10)
(0.01100000007 -6.16607921e-10 7.275985805e-10)
(0.01099999904 -1.544110873e-10 7.918145738e-11)
(0.01100000132 1.11822247e-09 8.653191937e-10)
(0.01100000191 2.894938206e-10 9.422375993e-10)
(0.01099999865 3.789099538e-11 4.672315208e-10)
(0.01099999964 1.289047294e-09 -5.421021916e-10)
(0.0110000014 2.357333083e-09 -2.197688629e-09)
(0.01100000248 2.898499248e-09 -3.798707898e-09)
(0.01100000181 4.249714314e-09 -8.102690819e-09)
(0.01100001313 5.452902424e-09 -1.297420484e-08)
(0.0110000059 1.102343942e-08 -2.422273398e-08)
(0.01100005429 1.829069865e-08 -5.110498986e-08)
(0.01100002569 1.499999081e-08 -5.956990975e-08)
(0.01100016553 1.053446029e-07 -1.81437538e-07)
(0.01099999958 9.242735228e-10 1.123152701e-09)
(0.01099999906 -9.699936446e-10 2.524098752e-09)
(0.01099999759 -4.421285854e-10 2.402535372e-09)
(0.01100000037 -2.679693046e-10 3.241641139e-09)
(0.01099999729 -2.00814046e-09 5.014142309e-10)
(0.01099999816 1.290366021e-09 8.380077269e-10)
(0.01099999715 -1.369752795e-09 2.319571693e-09)
(0.01100000004 -2.500724999e-09 1.307607575e-09)
(0.01099999759 -3.617478049e-09 5.700029466e-10)
(0.01099999401 -6.703756388e-09 8.580200396e-10)
(0.01100000041 -8.020640955e-09 -6.959790536e-10)
(0.01099997553 -1.711459983e-08 -6.21452313e-10)
(0.01100001715 -3.849457104e-08 -9.269246294e-10)
(0.01099992425 -5.012590772e-08 -1.771954245e-09)
(0.01100000004 -1.844831057e-09 3.574743625e-09)
(0.01099999858 1.066711404e-10 1.241595815e-09)
(0.01099999835 -2.56481962e-10 1.856677559e-09)
(0.01099999702 -1.499689138e-09 -5.002573714e-10)
(0.01099999612 -1.205443509e-09 1.797653055e-09)
(0.01099999804 -1.118485267e-09 -3.817707597e-10)
(0.01099999546 -2.17455618e-09 1.178071966e-09)
(0.0109999969 -4.612783914e-09 -2.137615649e-10)
(0.01099999444 -6.831626572e-09 -4.200481878e-10)
(0.01099998756 -1.584386962e-08 9.401860779e-10)
(0.01099998327 -2.20197627e-08 1.043855274e-09)
(0.01099994505 -6.6612269e-08 -2.115219429e-11)
(0.01099996186 -1.344151258e-07 -1.206798045e-09)
(0.01099972902 -2.469333326e-07 -1.431145764e-09)
(0.01099999956 1.597911592e-10 1.753122914e-09)
(0.01099999684 -1.751564294e-09 5.416768758e-10)
(0.01099999913 -1.106459037e-09 1.175200893e-09)
(0.01099999818 -1.792845193e-09 7.703017195e-10)
(0.01099999896 -2.257257047e-09 1.143836214e-09)
(0.0109999976 -2.863197771e-09 1.198665744e-09)
(0.01099999502 -2.425709502e-09 -1.156050361e-09)
(0.01099999736 -5.702817994e-09 -3.501017583e-10)
(0.01099998207 -6.68097226e-09 5.695749401e-10)
(0.01099997469 -2.224738421e-08 5.088979705e-10)
(0.01099993976 -1.630176807e-08 1.448320325e-10)
(0.01099987143 -8.803907639e-08 6.95073558e-10)
(0.01099973446 -8.766921829e-08 8.051731391e-10)
(0.01099910423 -4.434053736e-07 -7.450856992e-10)
(0.01099999846 -1.929345392e-09 -8.276086506e-12)
(0.01099999727 5.872998071e-10 4.300975242e-10)
(0.01100000097 -1.175850545e-09 -1.140434042e-10)
(0.01099999955 -9.419193756e-10 9.290951107e-12)
(0.01099999607 3.511602143e-10 -8.744158041e-10)
(0.01099999752 3.631855683e-11 1.428837633e-09)
(0.01099999425 -1.3987198e-10 1.684996275e-10)
(0.0109999903 -4.850271818e-09 -2.244618252e-09)
(0.01099997692 -7.462016501e-09 -1.409296064e-09)
(0.01099997856 -2.515104329e-08 -5.576845977e-10)
(0.01099990358 -2.511060625e-08 -7.350738177e-10)
(0.01099991368 -1.720624516e-07 -4.354955836e-10)
(0.01099930988 -2.586974904e-07 4.28125857e-10)
(0.01099879651 -1.701106942e-06 -1.234339969e-09)
(0.01100000066 -1.804853137e-09 3.478947421e-11)
(0.01099999993 -8.739082563e-10 4.518450833e-12)
(0.01100000093 -4.299689168e-10 -2.065733789e-09)
(0.01099999757 -1.598656172e-09 -6.066430601e-11)