/*--------------------------------*- C++ -*----------------------------------*\
| =========                 |                                                 |
| \\      /  F ield         | OpenFOAM: The Open Source CFD Toolbox           |
|  \\    /   O peration     | Version:  4.x                                   |
|   \\  /    A nd           | Web:      www.OpenFOAM.org                      |
|    \\/     M anipulation  |                                                 |
\*---------------------------------------------------------------------------*/
FoamFile
{
    version     2.0;
    format      ascii;
    class       volScalarField;
    location    "5000";
    object      X_CO2;
}
// * * * * * * * * * * * * * * * * * * * * * * * * * * * * * * * * * * * * * //

dimensions      [0 0 0 0 0 0 0];

internalField   nonuniform List<scalar> 
1175
(
0.03999466442
0.03999466442
0.03999466442
0.03999466443
0.03999466445
0.03999466453
0.03999466478
0.03999466563
0.0399946683
0.0399946763
0.03999469902
0.03999475921
0.03999490589
0.03999522929
0.03999586463
0.03999466442
0.03999466442
0.03999466442
0.03999466443
0.03999466446
0.03999466456
0.0399946649
0.03999466609
0.03999466995
0.03999468201
0.0399947177
0.03999481608
0.03999506409
0.0399956229
0.03999672072
0.03999466442
0.03999466442
0.03999466442
0.03999466443
0.03999466447
0.03999466461
0.03999466512
0.0399946669
0.039994673
0.03999469294
0.03999475478
0.03999493335
0.03999540269
0.03999649118
0.03999863483
0.03999466442
0.03999466442
0.03999466442
0.03999466444
0.03999466448
0.03999466466
0.03999466534
0.03999466778
0.03999467643
0.03999470582
0.03999480082
0.03999508746
0.03999587399
0.03999776124
0.04000150479
0.03999466442
0.03999466442
0.03999466442
0.03999466444
0.03999466449
0.03999466469
0.03999466544
0.0399946682
0.03999467812
0.03999471254
0.03999482651
0.0399951804
0.03999618343
0.03999866633
0.04000365387
0.03999466442
0.03999466442
0.03999466442
0.03999466444
0.03999466448
0.03999466466
0.03999466534
0.03999466778
0.03999467642
0.03999470582
0.03999480082
0.03999508746
0.03999587397
0.03999776121
0.04000150472
0.03999466442
0.03999466442
0.03999466442
0.03999466443
0.03999466447
0.03999466461
0.03999466512
0.0399946669
0.039994673
0.03999469294
0.03999475478
0.03999493335
0.03999540269
0.03999649116
0.03999863479
0.03999466442
0.03999466442
0.03999466442
0.03999466443
0.03999466446
0.03999466456
0.0399946649
0.03999466609
0.03999466995
0.03999468201
0.0399947177
0.03999481607
0.03999506408
0.03999562288
0.03999672068
0.03999466442
0.03999466442
0.03999466442
0.03999466443
0.03999466445
0.03999466453
0.03999466478
0.03999466563
0.0399946683
0.0399946763
0.03999469902
0.03999475921
0.03999490588
0.03999522928
0.0399958646
0.03999466442
0.03999466442
0.03999466442
0.03999466443
0.03999466446
0.03999466456
0.0399946649
0.03999466609
0.03999466995
0.03999468201
0.0399947177
0.03999481608
0.03999506409
0.03999562291
0.03999466442
0.03999466442
0.03999466442
0.03999466443
0.03999466447
0.0399946646
0.03999466509
0.03999466682
0.03999467277
0.03999469236
0.03999475361
0.03999493201
0.0399954049
0.03999650847
0.03999868366
0.03999466442
0.03999466442
0.03999466442
0.03999466444
0.03999466449
0.03999466468
0.03999466543
0.0399946682
0.03999467826
0.03999471345
0.03999483056
0.03999519453
0.03999622067
0.03999873308
0.04000373679
0.03999466442
0.03999466442
0.03999466442
0.03999466444
0.03999466451
0.03999466477
0.03999466579
0.03999466978
0.03999468489
0.03999474056
0.03999493711
0.03999558888
0.03999755614
0.04000267916
0.04001313566
0.03999466442
0.03999466442
0.03999466443
0.03999466444
0.03999466451
0.03999466481
0.03999466597
0.03999467057
0.03999468844
0.03999475633
0.03999500544
0.03999587294
0.03999865329
0.04000639437
0.04002292588
0.03999466442
0.03999466442
0.03999466442
0.03999466444
0.03999466451
0.03999466477
0.03999466579
0.03999466978
0.03999468489
0.03999474056
0.0399949371
0.03999558888
0.03999755612
0.0400026791
0.04001313554
0.03999466442
0.03999466442
0.03999466442
0.03999466444
0.03999466449
0.03999466468
0.03999466543
0.0399946682
0.03999467826
0.03999471345
0.03999483056
0.03999519453
0.03999622066
0.03999873303
0.04000373667
0.03999466442
0.03999466442
0.03999466442
0.03999466443
0.03999466447
0.0399946646
0.03999466509
0.03999466682
0.03999467277
0.03999469236
0.03999475361
0.03999493201
0.03999540489
0.03999650843
0.03999868355
0.03999466442
0.03999466442
0.03999466442
0.03999466443
0.03999466446
0.03999466456
0.0399946649
0.03999466609
0.03999466995
0.03999468201
0.0399947177
0.03999481607
0.03999506408
0.03999562288
0.03999672069
0.03999466442
0.03999466442
0.03999466442
0.03999466443
0.03999466447
0.03999466461
0.03999466512
0.0399946669
0.039994673
0.03999469294
0.03999475479
0.03999493335
0.0399954027
0.03999649122
0.03999466442
0.03999466442
0.03999466442
0.03999466444
0.03999466449
0.03999466468
0.03999466543
0.0399946682
0.03999467826
0.03999471345
0.03999483056
0.03999519453
0.03999622069
0.03999873315
0.03999466442
0.03999466442
0.03999466443
0.03999466444
0.03999466452
0.03999466482
0.03999466601
0.03999467075
0.03999468911
0.03999475822
0.0399950075
0.03999585122
0.03999844459
0.04000529146
0.0400193252
0.03999466442
0.03999466442
0.03999466443
0.03999466445
0.03999466455
0.03999466496
0.03999466668
0.03999467384
0.03999470325
0.03999482169
0.03999528373
0.03999699539
0.04000281516
0.04001984827
0.04005710123
0.03999466442
0.03999466442
0.03999466443
0.03999466445
0.03999466456
0.03999466503
0.03999466702
0.03999467551
0.0399947116
0.03999486346
0.03999549147
0.03999800461
0.04000745839
0.04003887129
0.04011682812
0.03999466442
0.03999466442
0.03999466443
0.03999466445
0.03999466455
0.03999466496
0.03999466668
0.03999467384
0.03999470325
0.03999482169
0.03999528373
0.03999699537
0.04000281509
0.04001984801
0.04005710051
0.03999466442
0.03999466442
0.03999466443
0.03999466444
0.03999466452
0.03999466482
0.03999466601
0.03999467075
0.03999468911
0.03999475822
0.03999500749
0.03999585121
0.03999844453
0.04000529125
0.04001932455
0.03999466442
0.03999466442
0.03999466442
0.03999466444
0.03999466449
0.03999466468
0.03999466543
0.0399946682
0.03999467826
0.03999471345
0.03999483056
0.03999519453
0.03999622066
0.03999873303
0.04000373665
0.03999466442
0.03999466442
0.03999466442
0.03999466443
0.03999466447
0.03999466461
0.03999466512
0.0399946669
0.039994673
0.03999469294
0.03999475478
0.03999493335
0.03999540269
0.03999649116
0.0399986348
0.03999466442
0.03999466442
0.03999466442
0.03999466444
0.03999466448
0.03999466466
0.03999466534
0.03999466778
0.03999467642
0.03999470582
0.03999480082
0.03999508747
0.039995874
0.0399977613
0.03999466442
0.03999466442
0.03999466442
0.03999466444
0.03999466451
0.03999466477
0.03999466579
0.03999466978
0.03999468489
0.03999474057
0.03999493711
0.03999558889
0.03999755619
0.04000267934
0.03999466442
0.03999466442
0.03999466443
0.03999466445
0.03999466455
0.03999466496
0.03999466668
0.03999467384
0.03999470325
0.03999482169
0.03999528374
0.03999699541
0.04000281527
0.04001984882
0.03999466442
0.03999466442
0.03999466443
0.03999466446
0.03999466459
0.03999466518
0.03999466774
0.03999467908
0.03999472906
0.03999494837
0.0399958966
0.03999987048
0.04001551365
0.04006965321
0.04020765735
0.03999466442
0.03999466442
0.03999466443
0.03999466446
0.03999466461
0.03999466528
0.03999466831
0.03999468212
0.03999474588
0.03999504366
0.03999644645
0.04000306449
0.04003375968
0.04016713619
0.04062889427
0.03999466442
0.03999466442
0.03999466443
0.03999466446
0.03999466459
0.03999466518
0.03999466774
0.03999467908
0.03999472906
0.03999494837
0.03999589659
0.03999987044
0.04001551345
0.04006965214
0.04020765292
0.03999466442
0.03999466442
0.03999466443
0.03999466445
0.03999466455
0.03999466496
0.03999466668
0.03999467384
0.03999470325
0.03999482169
0.03999528373
0.03999699538
0.04000281512
0.04001984807
0.04005710058
0.03999466442
0.03999466442
0.03999466442
0.03999466444
0.03999466451
0.03999466477
0.03999466579
0.03999466978
0.03999468489
0.03999474057
0.03999493711
0.03999558888
0.03999755613
0.04000267913
0.04001313556
0.03999466442
0.03999466442
0.03999466442
0.03999466444
0.03999466448
0.03999466466
0.03999466534
0.03999466778
0.03999467642
0.03999470582
0.03999480082
0.03999508746
0.03999587398
0.03999776123
0.04000150474
0.03999466442
0.03999466442
0.03999466442
0.03999466444
0.03999466449
0.03999466469
0.03999466544
0.0399946682
0.03999467812
0.03999471254
0.03999482651
0.03999518041
0.03999618346
0.03999866642
0.03999466442
0.03999466442
0.03999466443
0.03999466444
0.03999466451
0.03999466481
0.03999466597
0.03999467057
0.03999468844
0.03999475633
0.03999500544
0.03999587296
0.03999865337
0.04000639467
0.03999466442
0.03999466442
0.03999466443
0.03999466445
0.03999466456
0.03999466503
0.03999466702
0.03999467551
0.0399947116
0.03999486346
0.03999549148
0.03999800468
0.04000745868
0.04003887253
0.03999466442
0.03999466442
0.03999466443
0.03999466446
0.03999466461
0.03999466528
0.03999466831
0.03999468212
0.03999474588
0.03999504367
0.03999644648
0.04000306461
0.04003376045
0.04016714123
0.03999466442
0.03999466442
0.03999466443
0.03999466447
0.03999466464
0.03999466541
0.03999466902
0.03999468617
0.03999477011
0.03999519625
0.03999746216
0.04001021934
0.0400870277
0.04058498814
0.04408784039
0.03999466442
0.03999466442
0.03999466443
0.03999466446
0.03999466461
0.03999466528
0.03999466831
0.03999468212
0.03999474588
0.03999504366
0.03999644647
0.04000306455
0.04003375992
0.04016713702
0.04062889607
0.03999466442
0.03999466442
0.03999466443
0.03999466445
0.03999466456
0.03999466503
0.03999466702
0.03999467551
0.0399947116
0.03999486346
0.03999549147
0.03999800463
0.04000745845
0.04003887147
0.04011682841
0.03999466442
0.03999466442
0.03999466443
0.03999466444
0.03999466451
0.03999466481
0.03999466597
0.03999467057
0.03999468844
0.03999475633
0.03999500544
0.03999587294
0.0399986533
0.0400063944
0.04002292589
0.03999466442
0.03999466442
0.03999466442
0.03999466444
0.03999466449
0.03999466469
0.03999466544
0.0399946682
0.03999467812
0.03999471254
0.03999482651
0.0399951804
0.03999618342
0.03999866632
0.04000365383
0.03999466442
0.03999466442
0.03999466442
0.03999466444
0.03999466448
0.03999466466
0.03999466534
0.03999466778
0.03999467643
0.03999470582
0.03999480082
0.03999508747
0.039995874
0.03999776129
0.03999466442
0.03999466442
0.03999466442
0.03999466444
0.03999466451
0.03999466477
0.03999466579
0.03999466978
0.03999468489
0.03999474057
0.03999493711
0.0399955889
0.03999755619
0.0400026793
0.03999466442
0.03999466442
0.03999466443
0.03999466445
0.03999466455
0.03999466496
0.03999466668
0.03999467384
0.03999470325
0.0399948217
0.03999528374
0.03999699542
0.0400028153
0.04001984872
0.03999466442
0.03999466442
0.03999466443
0.03999466446
0.03999466459
0.03999466518
0.03999466774
0.03999467908
0.03999472906
0.03999494837
0.03999589661
0.03999987054
0.04001551394
0.04006965417
0.03999466442
0.03999466442
0.03999466443
0.03999466446
0.03999466461
0.03999466528
0.03999466831
0.03999468212
0.03999474588
0.03999504367
0.03999644648
0.04000306462
0.04003376047
0.04016714118
0.03999466442
0.03999466442
0.03999466443
0.03999466446
0.03999466459
0.03999466518
0.03999466774
0.03999467908
0.03999472906
0.03999494837
0.03999589661
0.03999987052
0.04001551385
0.04006965406
0.03999466442
0.03999466442
0.03999466443
0.03999466445
0.03999466455
0.03999466496
0.03999466668
0.03999467384
0.03999470325
0.03999482169
0.03999528374
0.03999699541
0.04000281525
0.04001984854
0.04005710198
0.03999466442
0.03999466442
0.03999466442
0.03999466444
0.03999466451
0.03999466477
0.03999466579
0.03999466978
0.03999468489
0.03999474057
0.03999493711
0.03999558889
0.03999755616
0.04000267921
0.04001313576
0.03999466442
0.03999466442
0.03999466442
0.03999466444
0.03999466448
0.03999466466
0.03999466534
0.03999466778
0.03999467642
0.03999470582
0.03999480082
0.03999508746
0.03999587399
0.03999776124
0.04000150477
0.03999466442
0.03999466442
0.03999466442
0.03999466443
0.03999466447
0.03999466461
0.03999466512
0.0399946669
0.039994673
0.03999469295
0.03999475479
0.03999493335
0.0399954027
0.03999649121
0.03999466442
0.03999466442
0.03999466442
0.03999466444
0.03999466449
0.03999466468
0.03999466543
0.0399946682
0.03999467826
0.03999471345
0.03999483057
0.03999519454
0.0399962207
0.03999873314
0.03999466442
0.03999466442
0.03999466443
0.03999466444
0.03999466452
0.03999466482
0.03999466601
0.03999467075
0.03999468911
0.03999475823
0.0399950075
0.03999585124
0.03999844465
0.04000529157
0.03999466442
0.03999466442
0.03999466443
0.03999466445
0.03999466455
0.03999466496
0.03999466668
0.03999467384
0.03999470325
0.0399948217
0.03999528374
0.03999699543
0.04000281533
0.04001984875
0.03999466442
0.03999466442
0.03999466443
0.03999466445
0.03999466456
0.03999466503
0.03999466702
0.03999467551
0.0399947116
0.03999486346
0.03999549148
0.03999800467
0.04000745866
0.04003887235
0.03999466442
0.03999466442
0.03999466443
0.03999466445
0.03999466455
0.03999466496
0.03999466668
0.03999467384
0.03999470325
0.0399948217
0.03999528374
0.03999699542
0.04000281529
0.04001984867
0.03999466442
0.03999466442
0.03999466443
0.03999466444
0.03999466452
0.03999466482
0.03999466601
0.03999467075
0.03999468911
0.03999475823
0.0399950075
0.03999585124
0.03999844463
0.04000529159
0.03999466442
0.03999466442
0.03999466442
0.03999466444
0.03999466449
0.03999466468
0.03999466543
0.0399946682
0.03999467826
0.03999471345
0.03999483057
0.03999519454
0.03999622069
0.03999873312
0.04000373689
0.03999466442
0.03999466442
0.03999466442
0.03999466443
0.03999466447
0.03999466461
0.03999466512
0.0399946669
0.039994673
0.03999469294
0.03999475479
0.03999493335
0.0399954027
0.0399964912
0.03999863486
0.03999466442
0.03999466442
0.03999466442
0.03999466443
0.03999466446
0.03999466456
0.0399946649
0.03999466609
0.03999466995
0.03999468201
0.0399947177
0.03999481608
0.03999506409
0.03999562291
0.03999466442
0.03999466442
0.03999466442
0.03999466443
0.03999466447
0.0399946646
0.03999466509
0.03999466682
0.03999467277
0.03999469236
0.03999475361
0.03999493201
0.03999540491
0.03999650847
0.03999466442
0.03999466442
0.03999466442
0.03999466444
0.03999466449
0.03999466468
0.03999466543
0.0399946682
0.03999467826
0.03999471345
0.03999483057
0.03999519454
0.0399962207
0.03999873314
0.03999466442
0.03999466442
0.03999466442
0.03999466444
0.03999466451
0.03999466477
0.03999466579
0.03999466978
0.03999468489
0.03999474057
0.03999493711
0.0399955889
0.0399975562
0.04000267932
0.03999466442
0.03999466442
0.03999466443
0.03999466444
0.03999466451
0.03999466481
0.03999466597
0.03999467057
0.03999468844
0.03999475633
0.03999500545
0.03999587297
0.03999865338
0.04000639465
0.03999466442
0.03999466442
0.03999466442
0.03999466444
0.03999466451
0.03999466477
0.03999466579
0.03999466978
0.03999468489
0.03999474057
0.03999493711
0.0399955889
0.03999755619
0.0400026793
0.03999466442
0.03999466442
0.03999466442
0.03999466444
0.03999466449
0.03999466468
0.03999466543
0.0399946682
0.03999467826
0.03999471345
0.03999483057
0.03999519454
0.0399962207
0.03999873315
0.03999466442
0.03999466442
0.03999466442
0.03999466443
0.03999466447
0.0399946646
0.03999466509
0.03999466682
0.03999467277
0.03999469236
0.03999475361
0.03999493201
0.03999540491
0.03999650849
0.03999466442
0.03999466442
0.03999466442
0.03999466443
0.03999466446
0.03999466456
0.0399946649
0.03999466609
0.03999466995
0.03999468201
0.0399947177
0.03999481608
0.03999506409
0.03999562291
0.03999672075
0.03999466442
0.03999466442
0.03999466442
0.03999466443
0.03999466445
0.03999466453
0.03999466478
0.03999466563
0.0399946683
0.0399946763
0.03999469902
0.03999475921
0.03999490589
0.03999522929
0.03999466442
0.03999466442
0.03999466442
0.03999466443
0.03999466446
0.03999466456
0.0399946649
0.03999466609
0.03999466995
0.03999468201
0.0399947177
0.03999481608
0.03999506409
0.03999562291
0.03999466442
0.03999466442
0.03999466442
0.03999466443
0.03999466447
0.03999466461
0.03999466512
0.0399946669
0.039994673
0.03999469295
0.03999475479
0.03999493336
0.03999540271
0.03999649121
0.03999466442
0.03999466442
0.03999466442
0.03999466444
0.03999466448
0.03999466466
0.03999466534
0.03999466778
0.03999467643
0.03999470582
0.03999480082
0.03999508747
0.03999587401
0.0399977613
0.03999466442
0.03999466442
0.03999466442
0.03999466444
0.03999466449
0.03999466469
0.03999466544
0.0399946682
0.03999467812
0.03999471254
0.03999482651
0.03999518042
0.03999618346
0.03999866642
0.03999466442
0.03999466442
0.03999466442
0.03999466444
0.03999466448
0.03999466466
0.03999466534
0.03999466778
0.03999467643
0.03999470582
0.03999480082
0.03999508747
0.03999587401
0.0399977613
0.03999466442
0.03999466442
0.03999466442
0.03999466443
0.03999466447
0.03999466461
0.03999466512
0.0399946669
0.039994673
0.03999469295
0.03999475479
0.03999493336
0.03999540271
0.03999649122
0.03999466442
0.03999466442
0.03999466442
0.03999466443
0.03999466446
0.03999466456
0.0399946649
0.03999466609
0.03999466995
0.03999468201
0.0399947177
0.03999481608
0.03999506409
0.03999562291
0.03999466442
0.03999466442
0.03999466442
0.03999466443
0.03999466445
0.03999466453
0.03999466478
0.03999466563
0.0399946683
0.0399946763
0.03999469902
0.03999475921
0.03999490589
0.0399952293
)
;

boundaryField
{
    top
    {
        type            calculated;
        value           nonuniform List<scalar> 
134
(
0.03999466442
0.03999466442
0.03999466442
0.03999466442
0.03999466442
0.03999466442
0.03999466442
0.03999466442
0.03999466442
0.03999466442
0.03999466442
0.03999466442
0.03999466442
0.03999466442
0.03999466442
0.03999466442
0.03999466442
0.03999466442
0.03999466442
0.03999466442
0.03999466442
0.03999466442
0.03999466442
0.03999466442
0.03999466442
0.03999466442
0.03999466442
0.03999466443
0.03999466443
0.03999466443
0.03999466444
0.03999466444
0.03999466444
0.03999466443
0.03999466443
0.03999466443
0.03999466445
0.03999466446
0.03999466447
0.03999466448
0.03999466449
0.03999466448
0.03999466447
0.03999466446
0.03999466445
0.03999466453
0.03999466456
0.03999466461
0.03999466466
0.03999466469
0.03999466466
0.03999466461
0.03999466456
0.03999466453
0.03999466478
0.0399946649
0.03999466512
0.03999466534
0.03999466544
0.03999466534
0.03999466512
0.0399946649
0.03999466478
0.03999466563
0.03999466609
0.0399946669
0.03999466778
0.0399946682
0.03999466778
0.0399946669
0.03999466609
0.03999466563
0.0399946683
0.03999466995
0.039994673
0.03999467642
0.03999467812
0.03999467642
0.039994673
0.03999466995
0.0399946683
0.0399946763
0.03999468201
0.03999469294
0.03999470582
0.03999471254
0.03999470582
0.03999469294
0.03999468201
0.0399946763
0.03999469902
0.0399947177
0.03999475478
0.03999480082
0.03999482651
0.03999480082
0.03999475479
0.0399947177
0.03999469902
0.03999475921
0.03999481607
0.03999493335
0.03999508746
0.0399951804
0.03999508746
0.03999493335
0.03999481608
0.03999475921
0.03999490588
0.03999506408
0.03999540269
0.03999587398
0.03999618342
0.03999587399
0.0399954027
0.03999506409
0.03999490589
0.03999522928
0.03999562288
0.03999649116
0.03999776123
0.03999866632
0.03999776124
0.0399964912
0.03999562291
0.0399952293
0.0399958646
0.03999672069
0.0399986348
0.04000150474
0.04000365383
0.04000150477
0.03999863486
0.03999672075
)
;
    }
    bottom
    {
        type            calculated;
        value           nonuniform List<scalar> 
127
(
0.03999466442
0.03999466442
0.03999466442
0.03999466442
0.03999466442
0.03999466442
0.03999466442
0.03999466442
0.03999466442
0.03999466442
0.03999466442
0.03999466442
0.03999466442
0.03999466442
0.03999466442
0.03999466442
0.03999466442
0.03999466442
0.03999466442
0.03999466442
0.03999466442
0.03999466442
0.03999466442
0.03999466442
0.03999466442
0.03999466442
0.03999466442
0.03999466443
0.03999466443
0.03999466443
0.03999466444
0.03999466444
0.03999466444
0.03999466443
0.03999466443
0.03999466443
0.03999466445
0.03999466446
0.03999466447
0.03999466448
0.03999466449
0.03999466448
0.03999466447
0.03999466446
0.03999466445
0.03999466453
0.03999466456
0.03999466461
0.03999466466
0.03999466469
0.03999466466
0.03999466461
0.03999466456
0.03999466453
0.03999466478
0.0399946649
0.03999466512
0.03999466534
0.03999466544
0.03999466534
0.03999466512
0.0399946649
0.03999466478
0.03999466563
0.03999466609
0.0399946669
0.03999466778
0.0399946682
0.03999466778
0.0399946669
0.03999466609
0.03999466563
0.0399946683
0.03999466995
0.039994673
0.03999467642
0.03999467812
0.03999467643
0.039994673
0.03999466995
0.0399946683
0.0399946763
0.03999468201
0.03999469294
0.03999470582
0.03999471254
0.03999470582
0.03999469295
0.03999468201
0.0399946763
0.03999469902
0.0399947177
0.03999475479
0.03999480082
0.03999482651
0.03999480082
0.03999475479
0.0399947177
0.03999469902
0.03999475921
0.03999481608
0.03999493335
0.03999508747
0.03999518041
0.03999508747
0.03999493335
0.03999481608
0.03999475921
0.03999490589
0.03999506409
0.0399954027
0.039995874
0.03999618346
0.039995874
0.0399954027
0.03999506409
0.03999490589
0.03999522929
0.03999562291
0.03999649122
0.0399977613
0.03999866642
0.03999776129
0.03999649121
0.03999562291
0.03999522929
0.03999586463
)
;
    }
    side-walls
    {
        type            calculated;
        value           nonuniform List<scalar> 
261
(
0.03999466442
0.03999466442
0.03999466442
0.03999466442
0.03999466442
0.03999466442
0.03999466442
0.03999466442
0.03999466442
0.03999466442
0.03999466442
0.03999466442
0.03999466442
0.03999466442
0.03999466442
0.03999466442
0.03999466442
0.03999466442
0.03999466442
0.03999466442
0.03999466442
0.03999466442
0.03999466442
0.03999466442
0.03999466442
0.03999466442
0.03999466442
0.03999466443
0.03999466443
0.03999466443
0.03999466444
0.03999466444
0.03999466444
0.03999466443
0.03999466443
0.03999466443
0.03999466445
0.03999466446
0.03999466447
0.03999466448
0.03999466449
0.03999466448
0.03999466447
0.03999466446
0.03999466445
0.03999466453
0.03999466456
0.03999466461
0.03999466466
0.03999466469
0.03999466466
0.03999466461
0.03999466456
0.03999466453
0.03999466478
0.0399946649
0.03999466512
0.03999466534
0.03999466544
0.03999466534
0.03999466512
0.0399946649
0.03999466478
0.03999466563
0.03999466609
0.0399946669
0.03999466778
0.0399946682
0.03999466778
0.0399946669
0.03999466609
0.03999466563
0.0399946683
0.03999466995
0.039994673
0.03999467643
0.03999467812
0.03999467642
0.039994673
0.03999466995
0.0399946683
0.0399946763
0.03999468201
0.03999469294
0.03999470582
0.03999471254
0.03999470582
0.03999469294
0.03999468201
0.0399946763
0.03999469902
0.0399947177
0.03999475478
0.03999480082
0.03999482651
0.03999480082
0.03999475478
0.0399947177
0.03999469902
0.03999475921
0.03999481608
0.03999493335
0.03999508746
0.0399951804
0.03999508746
0.03999493335
0.03999481607
0.03999475921
0.03999490589
0.03999506409
0.03999540269
0.03999587399
0.03999618343
0.03999587397
0.03999540269
0.03999506408
0.03999490588
0.03999522929
0.0399956229
0.03999649118
0.03999776124
0.03999866633
0.03999776121
0.03999649116
0.03999562288
0.03999522928
0.03999586463
0.03999672072
0.03999863483
0.04000150479
0.04000365387
0.04000150472
0.03999863479
0.03999672068
0.0399958646
0.03999466442
0.03999466442
0.03999466442
0.03999466442
0.03999466442
0.03999466442
0.03999466442
0.03999466442
0.03999466442
0.03999466442
0.03999466442
0.03999466442
0.03999466442
0.03999466442
0.03999466442
0.03999466442
0.03999466442
0.03999466442
0.03999466442
0.03999466442
0.03999466442
0.03999466442
0.03999466442
0.03999466442
0.03999466442
0.03999466442
0.03999466442
0.03999466443
0.03999466443
0.03999466443
0.03999466444
0.03999466444
0.03999466444
0.03999466443
0.03999466443
0.03999466443
0.03999466445
0.03999466446
0.03999466447
0.03999466448
0.03999466449
0.03999466448
0.03999466447
0.03999466446
0.03999466445
0.03999466453
0.03999466456
0.03999466461
0.03999466466
0.03999466469
0.03999466466
0.03999466461
0.03999466456
0.03999466453
0.03999466478
0.0399946649
0.03999466512
0.03999466534
0.03999466544
0.03999466534
0.03999466512
0.0399946649
0.03999466478
0.03999466563
0.03999466609
0.0399946669
0.03999466778
0.0399946682
0.03999466778
0.0399946669
0.03999466609
0.03999466563
0.0399946683
0.03999466995
0.039994673
0.03999467643
0.03999467812
0.03999467643
0.039994673
0.03999466995
0.0399946683
0.0399946763
0.03999468201
0.03999469295
0.03999470582
0.03999471254
0.03999470582
0.03999469295
0.03999468201
0.0399946763
0.03999469902
0.0399947177
0.03999475479
0.03999480082
0.03999482651
0.03999480082
0.03999475479
0.0399947177
0.03999469902
0.03999475921
0.03999481608
0.03999493336
0.03999508747
0.03999518042
0.03999508747
0.03999493336
0.03999481608
0.03999475921
0.03999490589
0.03999506409
0.03999540271
0.03999587401
0.03999618346
0.03999587401
0.03999540271
0.03999506409
0.03999490589
0.03999522929
0.03999562291
0.03999649121
0.0399977613
0.03999866642
0.0399977613
0.03999649122
0.03999562291
0.0399952293
)
;
    }
    inlet
    {
        type            calculated;
        value           nonuniform List<scalar> 
81
(
0.03999466442
0.03999466442
0.03999466442
0.03999466442
0.03999466442
0.03999466442
0.03999466442
0.03999466442
0.03999466442
0.03999466442
0.03999466442
0.03999466442
0.03999466442
0.03999466442
0.03999466442
0.03999466442
0.03999466442
0.03999466442
0.03999466442
0.03999466442
0.03999466442
0.03999466442
0.03999466442
0.03999466442
0.03999466442
0.03999466442
0.03999466442
0.03999466442
0.03999466442
0.03999466442
0.03999466442
0.03999466442
0.03999466442
0.03999466442
0.03999466442
0.03999466442
0.03999466442
0.03999466442
0.03999466442
0.03999466442
0.03999466442
0.03999466442
0.03999466442
0.03999466442
0.03999466442
0.03999466442
0.03999466442
0.03999466442
0.03999466442
0.03999466442
0.03999466442
0.03999466442
0.03999466442
0.03999466442
0.03999466442
0.03999466442
0.03999466442
0.03999466442
0.03999466442
0.03999466442
0.03999466442
0.03999466442
0.03999466442
0.03999466442
0.03999466442
0.03999466442
0.03999466442
0.03999466442
0.03999466442
0.03999466442
0.03999466442
0.03999466442
0.03999466442
0.03999466442
0.03999466442
0.03999466442
0.03999466442
0.03999466442
0.03999466442
0.03999466442
0.03999466442
)
;
    }
    outlet
    {
        type            calculated;
        value           nonuniform 0();
    }
    procBoundary0to1
    {
        type            processor;
        value           nonuniform List<scalar> 
97
(
0.03999696886
0.03999672075
0.0399985747
0.04000211725
0.04000729917
0.040010992
0.04000729906
0.04000211718
0.03999857465
0.03999696881
0.03999672075
0.03999672075
0.04000218781
0.04000373691
0.04001126463
0.04002736633
0.04004252665
0.04002736617
0.04001126447
0.04000218767
0.03999857465
0.03999863487
0.04000373691
0.04000373691
0.04003802618
0.04005710221
0.04009743578
0.04017509201
0.04009743505
0.04003802553
0.04001126443
0.04000211718
0.04000150482
0.04001313587
0.04005710221
0.04005710221
0.04030078333
0.04062889841
0.04069916737
0.04030078061
0.04009743507
0.04002736616
0.04000729908
0.04000365393
0.04002292614
0.04011682925
0.04062889841
0.04062889841
0.04241508027
0.04062889774
0.04069916788
0.0402076549
0.04017509201
0.04004252655
0.0400109919
0.04000150478
0.0400131357
0.04005710121
0.04020765441
0.04062889774
0.0402076549
0.0402076549
0.04009743597
0.04001932513
0.04002736633
0.04000729911
0.03999863483
0.04000373675
0.04001932485
0.04005710121
0.04011682864
0.04005710102
0.04001932513
0.04001932513
0.04001126463
0.03999868366
0.04000211725
0.0399967207
0.03999868358
0.04000373673
0.0400131357
0.04002292602
0.04001313566
0.04000373678
0.03999868366
0.03999868366
0.03999857471
0.03999586463
0.03999586461
0.0399967207
0.03999863483
0.04000150479
0.0400036539
0.04000150479
0.03999863484
0.03999672072
0.03999586463
)
;
    }
}


// ************************************************************************* //
