/*--------------------------------*- C++ -*----------------------------------*\
| =========                 |                                                 |
| \\      /  F ield         | OpenFOAM: The Open Source CFD Toolbox           |
|  \\    /   O peration     | Version:  4.x                                   |
|   \\  /    A nd           | Web:      www.OpenFOAM.org                      |
|    \\/     M anipulation  |                                                 |
\*---------------------------------------------------------------------------*/
FoamFile
{
    version     2.0;
    format      ascii;
    class       volScalarField;
    location    "5000";
    object      X_H2O;
}
// * * * * * * * * * * * * * * * * * * * * * * * * * * * * * * * * * * * * * //

dimensions      [0 0 0 0 0 0 0];

internalField   nonuniform List<scalar> 
1175
(
1.547014138e-06
1.547014194e-06
1.547014877e-06
1.547017412e-06
1.547026513e-06
1.547058691e-06
1.547166973e-06
1.547521094e-06
1.548635496e-06
1.551982535e-06
1.561483293e-06
1.586656501e-06
1.648009815e-06
1.783301434e-06
2.049117269e-06
1.547014274e-06
1.547014178e-06
1.547015027e-06
1.547018285e-06
1.547029667e-06
1.547071424e-06
1.547216981e-06
1.547710722e-06
1.549324956e-06
1.554372067e-06
1.569298884e-06
1.610446431e-06
1.71419676e-06
1.947985611e-06
2.407332416e-06
1.547014341e-06
1.547014269e-06
1.54701531e-06
1.547019359e-06
1.547035232e-06
1.547093713e-06
1.547305382e-06
1.548052e-06
1.550601086e-06
1.558944219e-06
1.584810538e-06
1.659508479e-06
1.855865158e-06
2.31129548e-06
3.208314338e-06
1.547014212e-06
1.547014346e-06
1.547015508e-06
1.547020663e-06
1.54704067e-06
1.547116099e-06
1.547397195e-06
1.54841994e-06
1.552034914e-06
1.564328895e-06
1.604068094e-06
1.723987096e-06
2.05306183e-06
2.842755684e-06
4.409361305e-06
1.547014054e-06
1.547014333e-06
1.547015764e-06
1.547021329e-06
1.547042965e-06
1.547126048e-06
1.547438929e-06
1.548593682e-06
1.552743176e-06
1.567140516e-06
1.61481626e-06
1.762873962e-06
2.182545909e-06
3.221517153e-06
5.308795666e-06
1.547014187e-06
1.547014336e-06
1.547015613e-06
1.547020797e-06
1.547040638e-06
1.547116288e-06
1.547397389e-06
1.548420106e-06
1.552034943e-06
1.564328716e-06
1.604067589e-06
1.723984813e-06
2.05305428e-06
2.842733653e-06
4.409309514e-06
1.547013924e-06
1.547014336e-06
1.547015346e-06
1.547019547e-06
1.547035354e-06
1.547093475e-06
1.547305221e-06
1.54805181e-06
1.550600804e-06
1.558943953e-06
1.584810136e-06
1.659506897e-06
1.855858528e-06
2.311274175e-06
3.208262275e-06
1.547013946e-06
1.547014065e-06
1.54701481e-06
1.547017973e-06
1.547029537e-06
1.547071431e-06
1.547217059e-06
1.547710654e-06
1.549324765e-06
1.554371744e-06
1.569298207e-06
1.610444411e-06
1.71418958e-06
1.947963877e-06
2.407281316e-06
1.547013751e-06
1.547013916e-06
1.547014543e-06
1.547017087e-06
1.547026233e-06
1.547058303e-06
1.547166517e-06
1.547520921e-06
1.548635251e-06
1.551982469e-06
1.56148288e-06
1.586654886e-06
1.648003277e-06
1.783280637e-06
2.049065328e-06
1.547014016e-06
1.547014204e-06
1.54701506e-06
1.547018216e-06
1.547029808e-06
1.547071418e-06
1.547217249e-06
1.547710927e-06
1.549324838e-06
1.554372035e-06
1.569299549e-06
1.61044908e-06
1.714206212e-06
1.948023688e-06
1.547014182e-06
1.547014417e-06
1.547015408e-06
1.547019215e-06
1.547034326e-06
1.547090456e-06
1.547294897e-06
1.548019283e-06
1.550505371e-06
1.558701016e-06
1.584319312e-06
1.658954261e-06
1.85680772e-06
2.31858618e-06
3.228891272e-06
1.547014322e-06
1.547014624e-06
1.547015779e-06
1.547021092e-06
1.547042325e-06
1.547124448e-06
1.547435965e-06
1.548596239e-06
1.552804253e-06
1.567521487e-06
1.616516403e-06
1.768794666e-06
2.198161204e-06
3.249533138e-06
5.343679124e-06
1.547014345e-06
1.547014682e-06
1.547016246e-06
1.54702292e-06
1.547050384e-06
1.547159396e-06
1.547589052e-06
1.549254477e-06
1.555576053e-06
1.578866499e-06
1.661092773e-06
1.933803595e-06
2.757009651e-06
4.900975885e-06
9.277489046e-06
1.547014235e-06
1.547014539e-06
1.547016276e-06
1.547023744e-06
1.547053931e-06
1.547175558e-06
1.547662243e-06
1.549585127e-06
1.557062143e-06
1.585462455e-06
1.689685375e-06
2.05267042e-06
3.216162631e-06
6.455907204e-06
1.337534942e-05
1.547014122e-06
1.547014369e-06
1.547016133e-06
1.547023037e-06
1.54705051e-06
1.54715954e-06
1.547589074e-06
1.54925455e-06
1.555575884e-06
1.578866281e-06
1.661092175e-06
1.933800421e-06
2.756994166e-06
4.900916042e-06
9.277320454e-06
1.547014194e-06
1.547014464e-06
1.547015787e-06
1.547021129e-06
1.547042569e-06
1.54712442e-06
1.547435866e-06
1.548596264e-06
1.552804192e-06
1.567521595e-06
1.616515903e-06
1.76879053e-06
2.198140833e-06
3.249457072e-06
5.343477169e-06
1.547013913e-06
1.547014187e-06
1.547014989e-06
1.547019264e-06
1.5470343e-06
1.547090611e-06
1.547295051e-06
1.548019399e-06
1.550505456e-06
1.558701008e-06
1.584318365e-06
1.658949656e-06
1.856788474e-06
2.318517638e-06
3.228700375e-06
1.547013767e-06
1.547014026e-06
1.547014754e-06
1.547018049e-06
1.547029706e-06
1.547071408e-06
1.547217121e-06
1.547710922e-06
1.549324875e-06
1.554372044e-06
1.569298848e-06
1.610445264e-06
1.714191166e-06
1.947966584e-06
2.407284683e-06
1.547014204e-06
1.547014505e-06
1.547015465e-06
1.547019748e-06
1.547035278e-06
1.547093695e-06
1.547305292e-06
1.548052177e-06
1.55060119e-06
1.55894469e-06
1.58481285e-06
1.659516738e-06
1.855894485e-06
2.311393438e-06
1.547014156e-06
1.547014564e-06
1.547015784e-06
1.547021176e-06
1.547042446e-06
1.547124477e-06
1.547436008e-06
1.548596548e-06
1.552804365e-06
1.567522103e-06
1.616518418e-06
1.76880361e-06
2.198198421e-06
3.24969207e-06
1.547014358e-06
1.547014702e-06
1.547016401e-06
1.547023775e-06
1.547054575e-06
1.547179797e-06
1.547680904e-06
1.549661883e-06
1.557342139e-06
1.586255784e-06
1.690548579e-06
2.043595318e-06
3.128874621e-06
5.994508757e-06
1.186885821e-05
1.547014472e-06
1.547014985e-06
1.547017253e-06
1.547026789e-06
1.547067811e-06
1.54724003e-06
1.547960784e-06
1.550956076e-06
1.563259054e-06
1.612811218e-06
1.806137064e-06
2.522399958e-06
4.958008355e-06
1.208719643e-05
2.768117262e-05
1.547014592e-06
1.54701503e-06
1.54701751e-06
1.547028107e-06
1.547073654e-06
1.547268582e-06
1.548101613e-06
1.551654721e-06
1.566749268e-06
1.630287845e-06
1.893068335e-06
2.944763678e-06
6.901357601e-06
2.00495812e-05
5.268281133e-05
1.54701456e-06
1.547015067e-06
1.547017241e-06
1.547026817e-06
1.547067658e-06
1.547239813e-06
1.547960443e-06
1.550955943e-06
1.563259087e-06
1.6128108e-06
1.806134933e-06
2.522386579e-06
4.957935243e-06
1.208686694e-05
2.768011292e-05
1.547014506e-06
1.547014695e-06
1.547016364e-06
1.547023948e-06
1.547054819e-06
1.547179699e-06
1.547680675e-06
1.549662075e-06
1.557342109e-06
1.586255461e-06
1.690546184e-06
2.04358018e-06
3.128795478e-06
5.994167428e-06
1.186775194e-05
1.547014273e-06
1.547014496e-06
1.547015765e-06
1.547021206e-06
1.547042376e-06
1.547124327e-06
1.547435922e-06
1.548596416e-06
1.552804272e-06
1.567521678e-06
1.616516274e-06
1.768792376e-06
2.198145157e-06
3.249463289e-06
5.343476034e-06
1.547014024e-06
1.547014415e-06
1.547015389e-06
1.547019437e-06
1.547035192e-06
1.54709367e-06
1.547305436e-06
1.54805211e-06
1.550601147e-06
1.558944288e-06
1.58481099e-06
1.659509101e-06
1.855863542e-06
2.311282554e-06
3.208269903e-06
1.54701441e-06
1.547014728e-06
1.547015944e-06
1.547021031e-06
1.547040871e-06
1.547116205e-06
1.547397293e-06
1.548420433e-06
1.55203536e-06
1.56433031e-06
1.604072919e-06
1.724004429e-06
2.05312193e-06
2.842945056e-06
1.547014564e-06
1.547015011e-06
1.547016375e-06
1.547023236e-06
1.547050659e-06
1.547159698e-06
1.547589273e-06
1.549254847e-06
1.555576613e-06
1.578868227e-06
1.661100085e-06
1.933834373e-06
2.757132795e-06
4.901435526e-06
1.547014749e-06
1.54701516e-06
1.547017324e-06
1.547026819e-06
1.547067947e-06
1.547240103e-06
1.547960833e-06
1.550956052e-06
1.563259404e-06
1.612813178e-06
1.806146735e-06
2.522446476e-06
4.958233471e-06
1.208829999e-05
1.547014894e-06
1.547015386e-06
1.54701809e-06
1.547030889e-06
1.547086492e-06
1.547330645e-06
1.548404963e-06
1.553145238e-06
1.574057683e-06
1.665818924e-06
2.062614946e-06
3.725703318e-06
1.027314808e-05
3.293571811e-05
9.071098916e-05
1.547014891e-06
1.547015452e-06
1.547018485e-06
1.54703258e-06
1.547095242e-06
1.547375326e-06
1.548640633e-06
1.554417364e-06
1.581096239e-06
1.705695324e-06
2.292730323e-06
5.062507989e-06
1.791030965e-05
7.374160826e-05
0.0002670511508
1.547014727e-06
1.547015148e-06
1.547018258e-06
1.547030828e-06
1.547086238e-06
1.547330335e-06
1.548404795e-06
1.553145169e-06
1.574057767e-06
1.665818534e-06
2.062610149e-06
3.725662426e-06
1.027286756e-05
3.293405969e-05
9.070348957e-05
1.547014498e-06
1.547014984e-06
1.547017116e-06
1.547026872e-06
1.547067809e-06
1.547240062e-06
1.547960725e-06
1.550956268e-06
1.563259408e-06
1.612812381e-06
1.80614013e-06
2.52240443e-06
4.957986875e-06
1.208697871e-05
2.768019904e-05
1.547014394e-06
1.547014685e-06
1.547016293e-06
1.547023054e-06
1.547050258e-06
1.547159526e-06
1.547589307e-06
1.549254873e-06
1.555576423e-06
1.578867458e-06
1.661095957e-06
1.933811598e-06
2.75702222e-06
4.900967777e-06
9.277358832e-06
1.547014172e-06
1.547014516e-06
1.547015825e-06
1.547020804e-06
1.547040667e-06
1.547116209e-06
1.547397351e-06
1.548420195e-06
1.552035272e-06
1.564329657e-06
1.604070163e-06
1.723991671e-06
2.053070102e-06
2.842761229e-06
4.409337156e-06
1.547014355e-06
1.547014632e-06
1.547016283e-06
1.547021538e-06
1.547043321e-06
1.547126341e-06
1.547439285e-06
1.548594011e-06
1.5527439e-06
1.567142562e-06
1.614823407e-06
1.762899953e-06
2.182635435e-06
3.221792334e-06
1.547014543e-06
1.547014925e-06
1.547016901e-06
1.547024159e-06
1.547054249e-06
1.547175944e-06
1.547662555e-06
1.549585424e-06
1.557062958e-06
1.585465406e-06
1.689698601e-06
2.052725964e-06
3.216383788e-06
6.456707986e-06
1.547014708e-06
1.547015239e-06
1.547017741e-06
1.547028265e-06
1.547073672e-06
1.547268911e-06
1.548101661e-06
1.551654992e-06
1.566750336e-06
1.630293076e-06
1.893094117e-06
2.944891333e-06
6.901982975e-06
2.005246465e-05
1.547014883e-06
1.547015507e-06
1.547018555e-06
1.547032648e-06
1.547095357e-06
1.547375411e-06
1.548640586e-06
1.554417591e-06
1.581097301e-06
1.70570136e-06
2.292764915e-06
5.06271723e-06
1.791164713e-05
7.375065887e-05
1.547014994e-06
1.547015591e-06
1.547018988e-06
1.547034733e-06
1.547105405e-06
1.547429476e-06
1.548937298e-06
1.55611222e-06
1.591235302e-06
1.769557618e-06
2.717860072e-06
8.057421229e-06
4.020895189e-05
0.0002486699542
0.001715176377
1.547014926e-06
1.547015475e-06
1.547018551e-06
1.547032542e-06
1.54709523e-06
1.547375468e-06
1.548640702e-06
1.554417559e-06
1.5810973e-06
1.705700207e-06
2.292754226e-06
5.062619209e-06
1.791079688e-05
7.374339015e-05
0.0002670531432
1.547014934e-06
1.547015295e-06
1.547017545e-06
1.54702821e-06
1.547073677e-06
1.547268778e-06
1.548101676e-06
1.551655101e-06
1.566750154e-06
1.630291521e-06
1.893083247e-06
2.944820773e-06
6.901554383e-06
2.005009122e-05
5.268323686e-05
1.547014568e-06
1.547015045e-06
1.547016591e-06
1.54702397e-06
1.547054128e-06
1.547175763e-06
1.547662357e-06
1.549585328e-06
1.557062729e-06
1.585464552e-06
1.689692298e-06
2.052693039e-06
3.21622515e-06
6.456034983e-06
1.337544018e-05
1.547014418e-06
1.547014567e-06
1.547015913e-06
1.54702152e-06
1.547043126e-06
1.547126255e-06
1.54743908e-06
1.548593903e-06
1.552743516e-06
1.567141696e-06
1.61481952e-06
1.762883116e-06
2.182567844e-06
3.22155466e-06
5.308816291e-06
1.547014631e-06
1.547014643e-06
1.547015849e-06
1.547020978e-06
1.547040728e-06
1.547116233e-06
1.547397274e-06
1.548420375e-06
1.552035458e-06
1.564330766e-06
1.6040745e-06
1.724008576e-06
2.053130615e-06
2.842952181e-06
1.547014625e-06
1.547014876e-06
1.547016516e-06
1.547023315e-06
1.547050762e-06
1.547159693e-06
1.547589375e-06
1.549254838e-06
1.555576804e-06
1.578869468e-06
1.661104659e-06
1.933848454e-06
2.757166995e-06
4.901470187e-06
1.547014729e-06
1.547015213e-06
1.547017482e-06
1.547027139e-06
1.547068051e-06
1.547240143e-06
1.547960819e-06
1.550956205e-06
1.563260161e-06
1.61281652e-06
1.806159857e-06
2.522496872e-06
4.95839364e-06
1.208857899e-05
1.547014913e-06
1.547015443e-06
1.547018112e-06
1.547030809e-06
1.54708658e-06
1.547330682e-06
1.548404873e-06
1.553145578e-06
1.574059309e-06
1.665826198e-06
2.062648368e-06
3.725859667e-06
1.027385702e-05
3.293868919e-05
1.54701495e-06
1.547015448e-06
1.547018559e-06
1.547032544e-06
1.547095337e-06
1.547375428e-06
1.548640754e-06
1.554417872e-06
1.581098212e-06
1.705705093e-06
2.292782789e-06
5.062801164e-06
1.791200794e-05
7.375184154e-05
1.547014882e-06
1.547015331e-06
1.547018252e-06
1.547030906e-06
1.547086487e-06
1.547330444e-06
1.54840474e-06
1.55314541e-06
1.574059169e-06
1.665825286e-06
2.062642165e-06
3.725819947e-06
1.027364476e-05
3.293786876e-05
1.54701467e-06
1.547015189e-06
1.54701732e-06
1.547026962e-06
1.54706775e-06
1.547240012e-06
1.54796069e-06
1.550956242e-06
1.56326026e-06
1.612815437e-06
1.806153629e-06
2.522461612e-06
4.958216136e-06
1.208780279e-05
2.768282865e-05
1.54701466e-06
1.547014928e-06
1.547016544e-06
1.547023274e-06
1.547050536e-06
1.547159644e-06
1.547589277e-06
1.549254771e-06
1.555576655e-06
1.578868685e-06
1.661100267e-06
1.933827513e-06
2.757077675e-06
4.901133657e-06
9.2777431e-06
1.54701446e-06
1.547014522e-06
1.547015837e-06
1.547021001e-06
1.547040908e-06
1.547116282e-06
1.547397245e-06
1.548420209e-06
1.552035351e-06
1.564330231e-06
1.604071829e-06
1.723997002e-06
2.053085896e-06
2.842801569e-06
4.409413236e-06
1.547014309e-06
1.547014521e-06
1.547015567e-06
1.547019659e-06
1.547035453e-06
1.547093724e-06
1.547305468e-06
1.548052175e-06
1.55060152e-06
1.558945592e-06
1.584815073e-06
1.659522829e-06
1.855906335e-06
2.311403797e-06
1.547014305e-06
1.547014681e-06
1.547015965e-06
1.547021377e-06
1.547042493e-06
1.547124377e-06
1.54743605e-06
1.548596521e-06
1.552804881e-06
1.567523813e-06
1.616523996e-06
1.768820157e-06
2.198237835e-06
3.249740033e-06
1.54701455e-06
1.547014855e-06
1.547016682e-06
1.547024099e-06
1.547055034e-06
1.547180007e-06
1.547680961e-06
1.549662268e-06
1.557342971e-06
1.586259334e-06
1.69056227e-06
2.043643178e-06
3.129024712e-06
5.994904855e-06
1.547014601e-06
1.547015138e-06
1.547017271e-06
1.547026771e-06
1.547067831e-06
1.547240171e-06
1.547960881e-06
1.550956541e-06
1.563260716e-06
1.61281782e-06
1.806164626e-06
2.522511358e-06
4.958428766e-06
1.20886136e-05
1.547014741e-06
1.547015161e-06
1.547017623e-06
1.54702828e-06
1.547073765e-06
1.547268688e-06
1.548101752e-06
1.551655331e-06
1.566751013e-06
1.63029588e-06
1.893104942e-06
2.944929474e-06
6.902088328e-06
2.005254554e-05
1.547014817e-06
1.547015084e-06
1.547017228e-06
1.547026931e-06
1.547067938e-06
1.547240051e-06
1.547960745e-06
1.550956287e-06
1.56326058e-06
1.612817193e-06
1.806161313e-06
2.522496185e-06
4.958367026e-06
1.208842148e-05
1.547014609e-06
1.547014912e-06
1.547016638e-06
1.547024168e-06
1.547054862e-06
1.547179848e-06
1.547680882e-06
1.549662252e-06
1.557342882e-06
1.586258848e-06
1.690559289e-06
2.043629602e-06
3.12897661e-06
5.994814238e-06
1.547014427e-06
1.547014573e-06
1.547015774e-06
1.547021258e-06
1.547042478e-06
1.547124395e-06
1.5474359e-06
1.548596468e-06
1.552804701e-06
1.567523197e-06
1.616521758e-06
1.768810641e-06
2.198203763e-06
3.249633507e-06
5.34390999e-06
1.547014274e-06
1.547014497e-06
1.547015493e-06
1.547019682e-06
1.547035327e-06
1.547093724e-06
1.547305423e-06
1.5480522e-06
1.550601278e-06
1.558945207e-06
1.584813644e-06
1.659516775e-06
1.85588475e-06
2.311335292e-06
3.208372902e-06
1.54701405e-06
1.547014278e-06
1.547014919e-06
1.547018202e-06
1.547029978e-06
1.5470715e-06
1.547217114e-06
1.547710956e-06
1.549325054e-06
1.554372642e-06
1.569301382e-06
1.610453902e-06
1.714216024e-06
1.94803178e-06
1.547014283e-06
1.547014421e-06
1.547015278e-06
1.547019319e-06
1.547034503e-06
1.547090778e-06
1.547295024e-06
1.548019377e-06
1.550505885e-06
1.558702433e-06
1.584323191e-06
1.658965333e-06
1.856835638e-06
2.318645582e-06
1.547014401e-06
1.547014728e-06
1.547015939e-06
1.547021335e-06
1.547042364e-06
1.547124554e-06
1.54743612e-06
1.548596499e-06
1.552804715e-06
1.567523714e-06
1.616524647e-06
1.768821438e-06
2.198240278e-06
3.249739711e-06
1.547014581e-06
1.547014935e-06
1.547016694e-06
1.547023283e-06
1.547050703e-06
1.547159947e-06
1.547589536e-06
1.549254994e-06
1.555577131e-06
1.578870466e-06
1.661107716e-06
1.933856792e-06
2.75718476e-06
4.901485213e-06
1.547014543e-06
1.547014938e-06
1.547016671e-06
1.547023977e-06
1.54705413e-06
1.547175774e-06
1.547662396e-06
1.549585569e-06
1.557063608e-06
1.585467551e-06
1.689704723e-06
2.052743238e-06
3.216421198e-06
6.456726932e-06
1.547014441e-06
1.547014788e-06
1.547016461e-06
1.547023221e-06
1.547050546e-06
1.547159644e-06
1.547589269e-06
1.549254925e-06
1.555577089e-06
1.578870342e-06
1.661106881e-06
1.933852736e-06
2.757168956e-06
4.901438385e-06
1.547014334e-06
1.547014544e-06
1.547015887e-06
1.547021322e-06
1.547042561e-06
1.547124422e-06
1.547436027e-06
1.548596562e-06
1.552804962e-06
1.567523601e-06
1.616523691e-06
1.768817684e-06
2.198228745e-06
3.249718668e-06
1.547014172e-06
1.547014265e-06
1.547015352e-06
1.547019286e-06
1.547034522e-06
1.547090747e-06
1.547295004e-06
1.548018985e-06
1.550505656e-06
1.558702182e-06
1.584322536e-06
1.65896272e-06
1.85682825e-06
2.318639001e-06
1.547014096e-06
1.547014155e-06
1.547014918e-06
1.547017992e-06
1.547029664e-06
1.547071342e-06
1.547217055e-06
1.5477109e-06
1.549325151e-06
1.554372736e-06
1.569300816e-06
1.610451537e-06
1.714208814e-06
1.94801153e-06
2.407385394e-06
1.547013991e-06
1.547014233e-06
1.547014964e-06
1.54701744e-06
1.547026504e-06
1.547058461e-06
1.547166784e-06
1.547520897e-06
1.548635463e-06
1.551983147e-06
1.561484933e-06
1.586660762e-06
1.648019206e-06
1.783320306e-06
1.547014264e-06
1.547014314e-06
1.547015267e-06
1.547018344e-06
1.547029762e-06
1.547071522e-06
1.547217162e-06
1.547710941e-06
1.549325163e-06
1.554373052e-06
1.569301665e-06
1.610454296e-06
1.714216741e-06
1.948032767e-06
1.547014262e-06
1.547014472e-06
1.547015525e-06
1.547019656e-06
1.547035343e-06
1.54709378e-06
1.547305384e-06
1.548052368e-06
1.550601509e-06
1.558945754e-06
1.584815882e-06
1.659524665e-06
1.855910149e-06
2.31140744e-06
1.547014581e-06
1.547014747e-06
1.547016089e-06
1.547021106e-06
1.547040884e-06
1.547116227e-06
1.547397222e-06
1.548420345e-06
1.552035753e-06
1.56433159e-06
1.604076609e-06
1.724013856e-06
2.053141131e-06
2.84296335e-06
1.547014584e-06
1.547014777e-06
1.547015942e-06
1.547021379e-06
1.547043035e-06
1.547126187e-06
1.547439129e-06
1.548594146e-06
1.552744059e-06
1.567143473e-06
1.614826438e-06
1.762907682e-06
2.182649581e-06
3.221799761e-06
1.547014109e-06
1.547014395e-06
1.547015811e-06
1.547020827e-06
1.547040715e-06
1.547116181e-06
1.547397428e-06
1.548420367e-06
1.552035746e-06
1.564331402e-06
1.604076318e-06
1.724012923e-06
2.053136792e-06
2.842950655e-06
1.547014131e-06
1.547014186e-06
1.547015337e-06
1.54701958e-06
1.547035386e-06
1.547093723e-06
1.547305476e-06
1.548052437e-06
1.550601605e-06
1.558945618e-06
1.584815525e-06
1.659523435e-06
1.855905878e-06
2.311398383e-06
1.547014045e-06
1.54701418e-06
1.547014985e-06
1.547018025e-06
1.547029685e-06
1.547071461e-06
1.547217068e-06
1.547710896e-06
1.549325228e-06
1.554372919e-06
1.569301357e-06
1.610452974e-06
1.714213737e-06
1.948029046e-06
1.547013878e-06
1.547014072e-06
1.547014761e-06
1.547017283e-06
1.547026426e-06
1.547058383e-06
1.5471668e-06
1.547520951e-06
1.548635628e-06
1.551983101e-06
1.561484795e-06
1.586660076e-06
1.648017307e-06
1.783320092e-06
)
;

boundaryField
{
    top
    {
        type            calculated;
        value           nonuniform List<scalar> 
134
(
1.547013751e-06
1.547013767e-06
1.547014024e-06
1.547014172e-06
1.547014418e-06
1.54701446e-06
1.547014274e-06
1.547014096e-06
1.547013878e-06
1.547013916e-06
1.547014026e-06
1.547014415e-06
1.547014516e-06
1.547014567e-06
1.547014522e-06
1.547014497e-06
1.547014155e-06
1.547014072e-06
1.547014543e-06
1.547014754e-06
1.547015389e-06
1.547015825e-06
1.547015913e-06
1.547015837e-06
1.547015493e-06
1.547014918e-06
1.547014761e-06
1.547017087e-06
1.547018049e-06
1.547019437e-06
1.547020804e-06
1.54702152e-06
1.547021001e-06
1.547019682e-06
1.547017992e-06
1.547017283e-06
1.547026233e-06
1.547029706e-06
1.547035192e-06
1.547040667e-06
1.547043126e-06
1.547040908e-06
1.547035327e-06
1.547029664e-06
1.547026426e-06
1.547058303e-06
1.547071408e-06
1.54709367e-06
1.547116209e-06
1.547126255e-06
1.547116282e-06
1.547093724e-06
1.547071342e-06
1.547058383e-06
1.547166517e-06
1.547217121e-06
1.547305436e-06
1.547397351e-06
1.54743908e-06
1.547397245e-06
1.547305423e-06
1.547217055e-06
1.5471668e-06
1.547520921e-06
1.547710922e-06
1.54805211e-06
1.548420195e-06
1.548593903e-06
1.548420209e-06
1.5480522e-06
1.5477109e-06
1.547520951e-06
1.548635251e-06
1.549324875e-06
1.550601147e-06
1.552035272e-06
1.552743516e-06
1.552035351e-06
1.550601278e-06
1.549325151e-06
1.548635628e-06
1.551982469e-06
1.554372044e-06
1.558944288e-06
1.564329657e-06
1.567141696e-06
1.564330231e-06
1.558945207e-06
1.554372736e-06
1.551983101e-06
1.56148288e-06
1.569298848e-06
1.58481099e-06
1.604070163e-06
1.61481952e-06
1.604071829e-06
1.584813644e-06
1.569300816e-06
1.561484795e-06
1.586654886e-06
1.610445264e-06
1.659509101e-06
1.723991671e-06
1.762883116e-06
1.723997002e-06
1.659516775e-06
1.610451537e-06
1.586660076e-06
1.648003277e-06
1.714191166e-06
1.855863542e-06
2.053070102e-06
2.182567844e-06
2.053085896e-06
1.85588475e-06
1.714208814e-06
1.648017307e-06
1.783280637e-06
1.947966584e-06
2.311282554e-06
2.842761229e-06
3.22155466e-06
2.842801569e-06
2.311335292e-06
1.94801153e-06
1.783320092e-06
2.049065328e-06
2.407284683e-06
3.208269903e-06
4.409337156e-06
5.308816291e-06
4.409413236e-06
3.208372902e-06
2.407385394e-06
)
;
    }
    bottom
    {
        type            calculated;
        value           nonuniform List<scalar> 
127
(
1.547014138e-06
1.547014016e-06
1.547014204e-06
1.54701441e-06
1.547014355e-06
1.547014631e-06
1.547014309e-06
1.54701405e-06
1.547013991e-06
1.547014194e-06
1.547014204e-06
1.547014505e-06
1.547014728e-06
1.547014632e-06
1.547014643e-06
1.547014521e-06
1.547014278e-06
1.547014233e-06
1.547014877e-06
1.54701506e-06
1.547015465e-06
1.547015944e-06
1.547016283e-06
1.547015849e-06
1.547015567e-06
1.547014919e-06
1.547014964e-06
1.547017412e-06
1.547018216e-06
1.547019748e-06
1.547021031e-06
1.547021538e-06
1.547020978e-06
1.547019659e-06
1.547018202e-06
1.54701744e-06
1.547026513e-06
1.547029808e-06
1.547035278e-06
1.547040871e-06
1.547043321e-06
1.547040728e-06
1.547035453e-06
1.547029978e-06
1.547026504e-06
1.547058691e-06
1.547071418e-06
1.547093695e-06
1.547116205e-06
1.547126341e-06
1.547116233e-06
1.547093724e-06
1.5470715e-06
1.547058461e-06
1.547166973e-06
1.547217249e-06
1.547305292e-06
1.547397293e-06
1.547439285e-06
1.547397274e-06
1.547305468e-06
1.547217114e-06
1.547166784e-06
1.547521094e-06
1.547710927e-06
1.548052177e-06
1.548420433e-06
1.548594011e-06
1.548420375e-06
1.548052175e-06
1.547710956e-06
1.547520897e-06
1.548635496e-06
1.549324838e-06
1.55060119e-06
1.55203536e-06
1.5527439e-06
1.552035458e-06
1.55060152e-06
1.549325054e-06
1.548635463e-06
1.551982535e-06
1.554372035e-06
1.55894469e-06
1.56433031e-06
1.567142562e-06
1.564330766e-06
1.558945592e-06
1.554372642e-06
1.551983147e-06
1.561483293e-06
1.569299549e-06
1.58481285e-06
1.604072919e-06
1.614823407e-06
1.6040745e-06
1.584815073e-06
1.569301382e-06
1.561484933e-06
1.586656501e-06
1.61044908e-06
1.659516738e-06
1.724004429e-06
1.762899953e-06
1.724008576e-06
1.659522829e-06
1.610453902e-06
1.586660762e-06
1.648009815e-06
1.714206212e-06
1.855894485e-06
2.05312193e-06
2.182635435e-06
2.053130615e-06
1.855906335e-06
1.714216024e-06
1.648019206e-06
1.783301434e-06
1.948023688e-06
2.311393438e-06
2.842945056e-06
3.221792334e-06
2.842952181e-06
2.311403797e-06
1.94803178e-06
1.783320306e-06
2.049117269e-06
)
;
    }
    side-walls
    {
        type            calculated;
        value           nonuniform List<scalar> 
261
(
1.547014138e-06
1.547014274e-06
1.547014341e-06
1.547014212e-06
1.547014054e-06
1.547014187e-06
1.547013924e-06
1.547013946e-06
1.547013751e-06
1.547014194e-06
1.547014178e-06
1.547014269e-06
1.547014346e-06
1.547014333e-06
1.547014336e-06
1.547014336e-06
1.547014065e-06
1.547013916e-06
1.547014877e-06
1.547015027e-06
1.54701531e-06
1.547015508e-06
1.547015764e-06
1.547015613e-06
1.547015346e-06
1.54701481e-06
1.547014543e-06
1.547017412e-06
1.547018285e-06
1.547019359e-06
1.547020663e-06
1.547021329e-06
1.547020797e-06
1.547019547e-06
1.547017973e-06
1.547017087e-06
1.547026513e-06
1.547029667e-06
1.547035232e-06
1.54704067e-06
1.547042965e-06
1.547040638e-06
1.547035354e-06
1.547029537e-06
1.547026233e-06
1.547058691e-06
1.547071424e-06
1.547093713e-06
1.547116099e-06
1.547126048e-06
1.547116288e-06
1.547093475e-06
1.547071431e-06
1.547058303e-06
1.547166973e-06
1.547216981e-06
1.547305382e-06
1.547397195e-06
1.547438929e-06
1.547397389e-06
1.547305221e-06
1.547217059e-06
1.547166517e-06
1.547521094e-06
1.547710722e-06
1.548052e-06
1.54841994e-06
1.548593682e-06
1.548420106e-06
1.54805181e-06
1.547710654e-06
1.547520921e-06
1.548635496e-06
1.549324956e-06
1.550601086e-06
1.552034914e-06
1.552743176e-06
1.552034943e-06
1.550600804e-06
1.549324765e-06
1.548635251e-06
1.551982535e-06
1.554372067e-06
1.558944219e-06
1.564328895e-06
1.567140516e-06
1.564328716e-06
1.558943953e-06
1.554371744e-06
1.551982469e-06
1.561483293e-06
1.569298884e-06
1.584810538e-06
1.604068094e-06
1.61481626e-06
1.604067589e-06
1.584810136e-06
1.569298207e-06
1.56148288e-06
1.586656501e-06
1.610446431e-06
1.659508479e-06
1.723987096e-06
1.762873962e-06
1.723984813e-06
1.659506897e-06
1.610444411e-06
1.586654886e-06
1.648009815e-06
1.71419676e-06
1.855865158e-06
2.05306183e-06
2.182545909e-06
2.05305428e-06
1.855858528e-06
1.71418958e-06
1.648003277e-06
1.783301434e-06
1.947985611e-06
2.31129548e-06
2.842755684e-06
3.221517153e-06
2.842733653e-06
2.311274175e-06
1.947963877e-06
1.783280637e-06
2.049117269e-06
2.407332416e-06
3.208314338e-06
4.409361305e-06
5.308795666e-06
4.409309514e-06
3.208262275e-06
2.407281316e-06
2.049065328e-06
1.547013991e-06
1.547014264e-06
1.547014262e-06
1.547014581e-06
1.547014584e-06
1.547014109e-06
1.547014131e-06
1.547014045e-06
1.547013878e-06
1.547014233e-06
1.547014314e-06
1.547014472e-06
1.547014747e-06
1.547014777e-06
1.547014395e-06
1.547014186e-06
1.54701418e-06
1.547014072e-06
1.547014964e-06
1.547015267e-06
1.547015525e-06
1.547016089e-06
1.547015942e-06
1.547015811e-06
1.547015337e-06
1.547014985e-06
1.547014761e-06
1.54701744e-06
1.547018344e-06
1.547019656e-06
1.547021106e-06
1.547021379e-06
1.547020827e-06
1.54701958e-06
1.547018025e-06
1.547017283e-06
1.547026504e-06
1.547029762e-06
1.547035343e-06
1.547040884e-06
1.547043035e-06
1.547040715e-06
1.547035386e-06
1.547029685e-06
1.547026426e-06
1.547058461e-06
1.547071522e-06
1.54709378e-06
1.547116227e-06
1.547126187e-06
1.547116181e-06
1.547093723e-06
1.547071461e-06
1.547058383e-06
1.547166784e-06
1.547217162e-06
1.547305384e-06
1.547397222e-06
1.547439129e-06
1.547397428e-06
1.547305476e-06
1.547217068e-06
1.5471668e-06
1.547520897e-06
1.547710941e-06
1.548052368e-06
1.548420345e-06
1.548594146e-06
1.548420367e-06
1.548052437e-06
1.547710896e-06
1.547520951e-06
1.548635463e-06
1.549325163e-06
1.550601509e-06
1.552035753e-06
1.552744059e-06
1.552035746e-06
1.550601605e-06
1.549325228e-06
1.548635628e-06
1.551983147e-06
1.554373052e-06
1.558945754e-06
1.56433159e-06
1.567143473e-06
1.564331402e-06
1.558945618e-06
1.554372919e-06
1.551983101e-06
1.561484933e-06
1.569301665e-06
1.584815882e-06
1.604076609e-06
1.614826438e-06
1.604076318e-06
1.584815525e-06
1.569301357e-06
1.561484795e-06
1.586660762e-06
1.610454296e-06
1.659524665e-06
1.724013856e-06
1.762907682e-06
1.724012923e-06
1.659523435e-06
1.610452974e-06
1.586660076e-06
1.648019206e-06
1.714216741e-06
1.855910149e-06
2.053141131e-06
2.182649581e-06
2.053136792e-06
1.855905878e-06
1.714213737e-06
1.648017307e-06
1.783320306e-06
1.948032767e-06
2.31140744e-06
2.84296335e-06
3.221799761e-06
2.842950655e-06
2.311398383e-06
1.948029046e-06
1.783320092e-06
)
;
    }
    inlet
    {
        type            calculated;
        value           nonuniform List<scalar> 
81
(
1.547014138e-06
1.547014274e-06
1.547014341e-06
1.547014212e-06
1.547014054e-06
1.547014187e-06
1.547013924e-06
1.547013946e-06
1.547013751e-06
1.547014016e-06
1.547014182e-06
1.547014322e-06
1.547014345e-06
1.547014235e-06
1.547014122e-06
1.547014194e-06
1.547013913e-06
1.547013767e-06
1.547014204e-06
1.547014156e-06
1.547014358e-06
1.547014472e-06
1.547014592e-06
1.54701456e-06
1.547014506e-06
1.547014273e-06
1.547014024e-06
1.54701441e-06
1.547014564e-06
1.547014749e-06
1.547014894e-06
1.547014891e-06
1.547014727e-06
1.547014498e-06
1.547014394e-06
1.547014172e-06
1.547014355e-06
1.547014543e-06
1.547014708e-06
1.547014883e-06
1.547014994e-06
1.547014926e-06
1.547014934e-06
1.547014568e-06
1.547014418e-06
1.547014631e-06
1.547014625e-06
1.547014729e-06
1.547014913e-06
1.54701495e-06
1.547014882e-06
1.54701467e-06
1.54701466e-06
1.54701446e-06
1.547014309e-06
1.547014305e-06
1.54701455e-06
1.547014601e-06
1.547014741e-06
1.547014817e-06
1.547014609e-06
1.547014427e-06
1.547014274e-06
1.54701405e-06
1.547014283e-06
1.547014401e-06
1.547014581e-06
1.547014543e-06
1.547014441e-06
1.547014334e-06
1.547014172e-06
1.547014096e-06
1.547013991e-06
1.547014264e-06
1.547014262e-06
1.547014581e-06
1.547014584e-06
1.547014109e-06
1.547014131e-06
1.547014045e-06
1.547013878e-06
)
;
    }
    outlet
    {
        type            calculated;
        value           nonuniform 0();
    }
    procBoundary0to1
    {
        type            processor;
        value           nonuniform List<scalar> 
97
(
2.511017116e-06
2.407380414e-06
3.182977873e-06
4.665414315e-06
6.83403393e-06
8.379592e-06
6.833964611e-06
4.665353167e-06
3.18292373e-06
2.510978379e-06
2.407380414e-06