/*--------------------------------*- C++ -*----------------------------------*\
| =========                 |                                                 |
| \\      /  F ield         | OpenFOAM: The Open Source CFD Toolbox           |
|  \\    /   O peration     | Version:  4.x                                   |
|   \\  /    A nd           | Web:      www.OpenFOAM.org                      |
|    \\/     M anipulation  |                                                 |
\*---------------------------------------------------------------------------*/
FoamFile
{
    version     2.0;
    format      ascii;
    class       volScalarField;
    location    "7000";
    object      CO2;
}
// * * * * * * * * * * * * * * * * * * * * * * * * * * * * * * * * * * * * * //

dimensions      [0 0 0 0 0 0 0];

internalField   nonuniform List<scalar> 
1175
(
0.06314985537
0.06314985537
0.06314985537
0.06314985538
0.0631498554
0.06314985549
0.06314985577
0.06314985671
0.06314985966
0.06314986851
0.06314989362
0.06314996015
0.06315012229
0.06315047977
0.06315118203
0.06314985537
0.06314985537
0.06314985537
0.06314985538
0.06314985541
0.06314985552
0.06314985591
0.06314985721
0.06314986148
0.06314987482
0.06314991428
0.06315002303
0.06315029721
0.06315091495
0.06315212848
0.06314985537
0.06314985537
0.06314985537
0.06314985538
0.06314985543
0.06314985558
0.06314985614
0.06314985811
0.06314986485
0.06314988691
0.06314995528
0.06315015271
0.06315067161
0.06315187499
0.06315424473
0.06314985537
0.06314985537
0.06314985537
0.06314985539
0.06314985544
0.06314985564
0.06314985638
0.06314985909
0.06314986864
0.06314990114
0.06315000619
0.06315032313
0.06315119277
0.06315327935
0.06315741786
0.06314985537
0.06314985537
0.06314985538
0.06314985539
0.06314985545
0.06314985567
0.06314985649
0.06314985955
0.06314987052
0.06314990858
0.0631500346
0.06315042592
0.06315153499
0.0631542802
0.06315979387
0.06314985537
0.06314985537
0.06314985537
0.06314985539
0.06314985544
0.06314985564
0.06314985638
0.06314985909
0.06314986864
0.06314990114
0.06315000618
0.06315032313
0.06315119276
0.06315327932
0.0631574178
0.06314985537
0.06314985537
0.06314985537
0.06314985538
0.06314985543
0.06314985558
0.06314985614
0.06314985811
0.06314986485
0.06314988691
0.06314995528
0.0631501527
0.06315067161
0.06315187497
0.06315424469
0.06314985537
0.06314985537
0.06314985537
0.06314985538
0.06314985541
0.06314985552
0.06314985591
0.06314985721
0.06314986148
0.06314987482
0.06314991428
0.06315002303
0.0631502972
0.06315091493
0.06315212844
0.06314985537
0.06314985537
0.06314985537
0.06314985538
0.0631498554
0.06314985549
0.06314985577
0.06314985671
0.06314985966
0.06314986851
0.06314989362
0.06314996015
0.06315012228
0.06315047976
0.06315118199
0.06314985537
0.06314985537
0.06314985537
0.06314985538
0.06314985541
0.06314985552
0.06314985591
0.06314985721
0.06314986148
0.06314987482
0.06314991428
0.06315002303
0.06315029721
0.06315091497
0.06314985537
0.06314985537
0.06314985537
0.06314985538
0.06314985542
0.06314985557
0.06314985611
0.06314985803
0.0631498646
0.06314988627
0.06314995398
0.06315015123
0.06315067407
0.06315189413
0.06315429877
0.06314985537
0.06314985537
0.06314985538
0.06314985539
0.06314985545
0.06314985566
0.06314985649
0.06314985955
0.06314987068
0.06314990958
0.06315003909
0.06315044155
0.06315157619
0.06315435408
0.06315988591
0.06314985537
0.06314985537
0.06314985538
0.06314985539
0.06314985547
0.06314985576
0.06314985689
0.06314986129
0.06314987801
0.06314993957
0.06315015692
0.0631508777
0.06315305316
0.06315871794
0.06317027838
0.06314985537
0.06314985537
0.06314985538
0.0631498554
0.06314985548
0.0631498558
0.06314985708
0.06314986217
0.06314988194
0.06314995701
0.06315023251
0.06315119191
0.06315426673
0.06316282688
0.06318110239
0.06314985537
0.06314985537
0.06314985538
0.06314985539
0.06314985547
0.06314985576
0.06314985689
0.06314986129
0.06314987801
0.06314993957
0.06315015692
0.0631508777
0.06315305315
0.0631587179
0.06317027828
0.06314985537
0.06314985537
0.06314985538
0.06314985539
0.06314985545
0.06314985566
0.06314985649
0.06314985955
0.06314987068
0.06314990958
0.06315003909
0.06315044155
0.06315157618
0.06315435404
0.0631598858
0.06314985537
0.06314985537
0.06314985537
0.06314985538
0.06314985542
0.06314985557
0.06314985611
0.06314985803
0.0631498646
0.06314988627
0.06314995398
0.06315015123
0.06315067405
0.06315189409
0.06315429865
0.06314985537
0.06314985537
0.06314985537
0.06314985538
0.06314985541
0.06314985552
0.06314985591
0.06314985721
0.06314986148
0.06314987482
0.06314991428
0.06315002303
0.0631502972
0.06315091493
0.06315212845
0.06314985537
0.06314985537
0.06314985537
0.06314985538
0.06314985543
0.06314985558
0.06314985614
0.06314985811
0.06314986485
0.06314988691
0.06314995528
0.06315015271
0.06315067162
0.06315187503
0.06314985537
0.06314985537
0.06314985538
0.06314985539
0.06314985545
0.06314985566
0.06314985649
0.06314985955
0.06314987068
0.06314990958
0.06315003909
0.06315044155
0.0631515762
0.06315435415
0.06314985537
0.06314985537
0.06314985538
0.0631498554
0.06314985548
0.06314985581
0.06314985713
0.06314986237
0.06314988267
0.06314995911
0.06315023478
0.06315116786
0.06315403578
0.06316160695
0.06317712263
0.06314985537
0.06314985537
0.06314985538
0.0631498554
0.06314985551
0.06314985597
0.06314985787
0.06314986579
0.06314989832
0.06315002931
0.06315054034
0.06315243348
0.06315887015
0.06317770694
0.06321889404
0.06314985537
0.06314985537
0.06314985538
0.06314985541
0.06314985553
0.06314985604
0.06314985825
0.06314986764
0.06314990755
0.06315007552
0.06315077016
0.06315355003
0.06316400696
0.06319874929
0.06328492612
0.06314985537
0.06314985537
0.06314985538
0.0631498554
0.06314985551
0.06314985597
0.06314985787
0.06314986579
0.06314989832
0.06315002931
0.06315054033
0.06315243346
0.06315887008
0.06317770667
0.06321889329
0.06314985537
0.06314985537
0.06314985538
0.0631498554
0.06314985548
0.06314985581
0.06314985713
0.06314986237
0.06314988267
0.06314995911
0.06315023477
0.06315116785
0.06315403573
0.06316160674
0.06317712198
0.06314985537
0.06314985537
0.06314985538
0.06314985539
0.06314985545
0.06314985566
0.06314985649
0.06314985955
0.06314987068
0.06314990958
0.06315003909
0.06315044155
0.06315157618
0.06315435403
0.06315988579
0.06314985537
0.06314985537
0.06314985537
0.06314985538
0.06314985543
0.06314985558
0.06314985614
0.06314985811
0.06314986485
0.06314988691
0.06314995528
0.06315015271
0.06315067161
0.06315187497
0.06315424469
0.06314985537
0.06314985537
0.06314985537
0.06314985539
0.06314985544
0.06314985564
0.06314985638
0.06314985909
0.06314986864
0.06314990114
0.06315000619
0.06315032314
0.06315119279
0.06315327941
0.06314985537
0.06314985537
0.06314985538
0.06314985539
0.06314985547
0.06314985576
0.06314985689
0.06314986129
0.06314987801
0.06314993957
0.06315015692
0.06315087771
0.06315305321
0.06315871813
0.06314985537
0.06314985537
0.06314985538
0.0631498554
0.06314985551
0.06314985597
0.06314985787
0.06314986579
0.06314989832
0.06315002931
0.06315054034
0.0631524335
0.06315887026
0.06317770749
0.06314985537
0.06314985537
0.06314985538
0.06314985541
0.06314985556
0.06314985621
0.06314985905
0.06314987158
0.06314992687
0.06315016945
0.06315121834
0.0631556142
0.06317291812
0.06323279785
0.06338537111
0.06314985537
0.06314985537
0.06314985538
0.06314985542
0.06314985558
0.06314985633
0.06314985967
0.06314987494
0.06314994548
0.06315027488
0.06315182675
0.06315914844
0.06319310732
0.06334064159
0.06385097978
0.06314985537
0.06314985537
0.06314985538
0.06314985541
0.06314985556
0.06314985621
0.06314985905
0.06314987158
0.06314992687
0.06315016945
0.06315121834
0.06315561416
0.0631729179
0.06323279672
0.06338536649
0.06314985537
0.06314985537
0.06314985538
0.0631498554
0.06314985551
0.06314985597
0.06314985787
0.06314986579
0.06314989832
0.06315002931
0.06315054033
0.06315243347
0.0631588701
0.06317770673
0.06321889337
0.06314985537
0.06314985537
0.06314985538
0.06314985539
0.06314985547
0.06314985576
0.06314985689
0.06314986129
0.06314987801
0.06314993957
0.06315015692
0.0631508777
0.06315305316
0.06315871791
0.06317027827
0.06314985537
0.06314985537
0.06314985537
0.06314985539
0.06314985544
0.06314985564
0.06314985638
0.06314985909
0.06314986864
0.06314990114
0.06315000619
0.06315032313
0.06315119277
0.06315327933
0.06315741782
0.06314985537
0.06314985537
0.06314985538
0.06314985539
0.06314985545
0.06314985567
0.06314985649
0.06314985955
0.06314987052
0.06314990858
0.0631500346
0.06315042593
0.06315153502
0.06315428029
0.06314985537
0.06314985537
0.06314985538
0.0631498554
0.06314985548
0.0631498558
0.06314985708
0.06314986217
0.06314988194
0.06314995701
0.06315023251
0.06315119193
0.06315426682
0.06316282718
0.06314985537
0.06314985537
0.06314985538
0.06314985541
0.06314985553
0.06314985604
0.06314985825
0.06314986764
0.06314990755
0.06315007552
0.06315077017
0.06315355009
0.06316400728
0.06319875061
0.06314985537
0.06314985537
0.06314985538
0.06314985542
0.06314985558
0.06314985633
0.06314985967
0.06314987494
0.06314994548
0.06315027488
0.06315182677
0.06315914856
0.0631931081
0.06334064673
0.06314985537
0.06314985537
0.06314985538
0.06314985542
0.06314985561
0.06314985647
0.06314986046
0.06314987943
0.06314997228
0.06315044373
0.06315295076
0.0631670667
0.06325205798
0.06380285827
0.06766369841
0.06314985537
0.06314985537
0.06314985538
0.06314985542
0.06314985558
0.06314985633
0.06314985967
0.06314987494
0.06314994548
0.06315027488
0.06315182676
0.06315914848
0.06319310751
0.0633406423
0.06385098137
0.06314985537
0.06314985537
0.06314985538
0.06314985541
0.06314985553
0.06314985604
0.06314985825
0.06314986764
0.06314990755
0.06315007552
0.06315077016
0.06315355003
0.06316400698
0.06319874933
0.06328492613
0.06314985537
0.06314985537
0.06314985538
0.0631498554
0.06314985548
0.0631498558
0.06314985708
0.06314986217
0.06314988194
0.06314995701
0.06315023251
0.06315119191
0.06315426672
0.06316282685
0.0631811023
0.06314985537
0.06314985537
0.06314985538
0.06314985539
0.06314985545
0.06314985567
0.06314985649
0.06314985955
0.06314987052
0.06314990858
0.0631500346
0.06315042592
0.06315153498
0.06315428018
0.06315979382
0.06314985537
0.06314985537
0.06314985537
0.06314985539
0.06314985544
0.06314985564
0.06314985638
0.06314985909
0.06314986864
0.06314990114
0.06315000619
0.06315032314
0.06315119279
0.0631532794
0.06314985537
0.06314985537
0.06314985538
0.06314985539
0.06314985547
0.06314985576
0.06314985689
0.06314986129
0.06314987801
0.06314993958
0.06315015693
0.06315087772
0.06315305322
0.0631587181
0.06314985537
0.06314985537
0.06314985538
0.0631498554
0.06314985551
0.06314985597
0.06314985787
0.06314986579
0.06314989832
0.06315002931
0.06315054034
0.06315243351
0.06315887029
0.06317770737
0.06314985537
0.06314985537
0.06314985538
0.06314985541
0.06314985556
0.06314985621
0.06314985905
0.06314987158
0.06314992687
0.06315016945
0.06315121835
0.06315561424
0.06317291834
0.06323279861
0.06314985537
0.06314985537
0.06314985538
0.06314985542
0.06314985558
0.06314985633
0.06314985967
0.06314987494
0.06314994548
0.06315027488
0.06315182677
0.06315914858
0.06319310816
0.06334064683
0.06314985537
0.06314985537
0.06314985538
0.06314985541
0.06314985556
0.06314985621
0.06314985905
0.06314987158
0.06314992687
0.06315016945
0.06315121835
0.06315561422
0.06317291825
0.06323279848
0.06314985537
0.06314985537
0.06314985538
0.0631498554
0.06314985551
0.06314985597
0.06314985787
0.06314986579
0.06314989832
0.06315002931
0.06315054034
0.06315243349
0.06315887022
0.06317770714
0.06321889465
0.06314985537
0.06314985537
0.06314985538
0.06314985539
0.06314985547
0.06314985576
0.06314985689
0.06314986129
0.06314987801
0.06314993957
0.06315015692
0.0631508777
0.06315305318
0.06315871799
0.06317027846
0.06314985537
0.06314985537
0.06314985537
0.06314985539
0.06314985544
0.06314985564
0.06314985638
0.06314985909
0.06314986864
0.06314990114
0.06315000619
0.06315032313
0.06315119277
0.06315327935
0.06315741784
0.06314985537
0.06314985537
0.06314985537
0.06314985538
0.06314985543
0.06314985558
0.06314985614
0.06314985811
0.06314986485
0.06314988691
0.06314995528
0.06315015271
0.06315067162
0.06315187502
0.06314985537
0.06314985537
0.06314985538
0.06314985539
0.06314985545
0.06314985566
0.06314985649
0.06314985955
0.06314987068
0.06314990958
0.06315003909
0.06315044156
0.06315157622
0.06315435414
0.06314985537
0.06314985537
0.06314985538
0.0631498554
0.06314985548
0.06314985581
0.06314985713
0.06314986237
0.06314988268
0.06314995911
0.06315023478
0.06315116788
0.06315403584
0.06316160706
0.06314985537
0.06314985537
0.06314985538
0.0631498554
0.06314985551
0.06314985597
0.06314985787
0.06314986579
0.06314989832
0.06315002931
0.06315054034
0.06315243352
0.0631588703
0.06317770736
0.06314985537
0.06314985537
0.06314985538
0.06314985541
0.06314985553
0.06314985604
0.06314985825
0.06314986764
0.06314990755
0.06315007552
0.06315077017
0.06315355007
0.06316400719
0.06319875025
0.06314985537
0.06314985537
0.06314985538
0.0631498554
0.06314985551
0.06314985597
0.06314985787
0.06314986579
0.06314989832
0.06315002931
0.06315054034
0.06315243351
0.06315887028
0.06317770733
0.06314985537
0.06314985537
0.06314985538
0.0631498554
0.06314985548
0.06314985581
0.06314985713
0.06314986237
0.06314988267
0.06314995911
0.06315023478
0.06315116787
0.06315403583
0.06316160708
0.06314985537
0.06314985537
0.06314985538
0.06314985539
0.06314985545
0.06314985566
0.06314985649
0.06314985955
0.06314987068
0.06314990958
0.06315003909
0.06315044156
0.06315157621
0.06315435412
0.06315988602
0.06314985537
0.06314985537
0.06314985537
0.06314985538
0.06314985543
0.06314985558
0.06314985614
0.06314985811
0.06314986485
0.06314988691
0.06314995528
0.06315015271
0.06315067162
0.063151875
0.06315424476
0.06314985537
0.06314985537
0.06314985537
0.06314985538
0.06314985541
0.06314985552
0.06314985591
0.06314985721
0.06314986148
0.06314987482
0.06314991428
0.06315002303
0.06315029721
0.06315091496
0.06314985537
0.06314985537
0.06314985537
0.06314985538
0.06314985542
0.06314985557
0.06314985611
0.06314985803
0.0631498646
0.06314988627
0.06314995398
0.06315015123
0.06315067407
0.06315189414
0.06314985537
0.06314985537
0.06314985538
0.06314985539
0.06314985545
0.06314985566
0.06314985649
0.06314985955
0.06314987068
0.06314990958
0.06315003909
0.06315044156
0.06315157622
0.06315435414
0.06314985537
0.06314985537
0.06314985538
0.06314985539
0.06314985547
0.06314985576
0.06314985689
0.06314986129
0.06314987801
0.06314993958
0.06315015693
0.06315087772
0.06315305322
0.0631587181
0.06314985537
0.06314985537
0.06314985538
0.0631498554
0.06314985548
0.0631498558
0.06314985708
0.06314986217
0.06314988194
0.06314995701
0.06315023251
0.06315119193
0.06315426681
0.06316282712
0.06314985537
0.06314985537
0.06314985538
0.06314985539
0.06314985547
0.06314985576
0.06314985689
0.06314986129
0.06314987801
0.06314993958
0.06315015693
0.06315087772
0.06315305322
0.06315871809
0.06314985537
0.06314985537
0.06314985538
0.06314985539
0.06314985545
0.06314985566
0.06314985649
0.06314985955
0.06314987068
0.06314990958
0.06315003909
0.06315044156
0.06315157622
0.06315435414
0.06314985537
0.06314985537
0.06314985537
0.06314985538
0.06314985542
0.06314985557
0.06314985611
0.06314985803
0.0631498646
0.06314988627
0.06314995398
0.06315015123
0.06315067408
0.06315189416
0.06314985537
0.06314985537
0.06314985537
0.06314985538
0.06314985541
0.06314985552
0.06314985591
0.06314985721
0.06314986148
0.06314987482
0.06314991428
0.06315002303
0.06315029721
0.06315091496
0.06315212851
0.06314985537
0.06314985537
0.06314985537
0.06314985538
0.0631498554
0.06314985549
0.06314985577
0.06314985671
0.06314985966
0.06314986851
0.06314989362
0.06314996015
0.06315012229
0.06315047977
0.06314985537
0.06314985537
0.06314985537
0.06314985538
0.06314985541
0.06314985552
0.06314985591
0.06314985721
0.06314986148
0.06314987482
0.06314991428
0.06315002303
0.06315029721
0.06315091496
0.06314985537
0.06314985537
0.06314985537
0.06314985538
0.06314985543
0.06314985558
0.06314985614
0.06314985811
0.06314986485
0.06314988691
0.06314995528
0.06315015271
0.06315067163
0.06315187502
0.06314985537
0.06314985537
0.06314985537
0.06314985539
0.06314985544
0.06314985564
0.06314985638
0.06314985909
0.06314986864
0.06314990114
0.06315000619
0.06315032314
0.0631511928
0.06315327941
0.06314985537
0.06314985537
0.06314985538
0.06314985539
0.06314985545
0.06314985567
0.06314985649
0.06314985955
0.06314987052
0.06314990858
0.0631500346
0.06315042593
0.06315153502
0.06315428028
0.06314985537
0.06314985537
0.06314985537
0.06314985539
0.06314985544
0.06314985564
0.06314985638
0.06314985909
0.06314986864
0.06314990114
0.06315000619
0.06315032314
0.0631511928
0.06315327941
0.06314985537
0.06314985537
0.06314985537
0.06314985538
0.06314985543
0.06314985558
0.06314985614
0.06314985811
0.06314986485
0.06314988691
0.06314995528
0.06315015271
0.06315067163
0.06315187503
0.06314985537
0.06314985537
0.06314985537
0.06314985538
0.06314985541
0.06314985552
0.06314985591
0.06314985721
0.06314986148
0.06314987482
0.06314991428
0.06315002303
0.06315029721
0.06315091496
0.06314985537
0.06314985537
0.06314985537
0.06314985538
0.0631498554
0.06314985549
0.06314985577
0.06314985671
0.06314985966
0.06314986851
0.06314989362
0.06314996015
0.06315012229
0.06315047978
)
;

boundaryField
{
    top
    {
        type            zeroGradient;
    }
    bottom
    {
        type            zeroGradient;
    }
    side-walls
    {
        type            zeroGradient;
    }
    inlet
    {
        type            zeroGradient;
    }
    outlet
    {
        type            zeroGradient;
    }
    procBoundary0to1
    {
        type            processor;
        value           nonuniform List<scalar> 
97
(
0.0631524025
0.06315212851
0.06315417779
0.06315809428
0.06316382341
0.06316790619
0.06316382332
0.06315809422
0.06315417774
0.06315240246
0.06315212851
0.06315212851
0.06315817239
0.06315988603
0.06316820803
0.06318601141
0.0632027737
0.06318601128
0.06316820789
0.06315817226
0.06315417774
0.06315424477
0.06315988603
0.06315988603
0.06319779799
0.06321889503
0.06326348767
0.06334934449
0.06326348692
0.06319779737
0.06316820786
0.06315809421
0.0631574179
0.0631702786
0.06321889503
0.06321889503
0.06348830567
0.06385098421
0.06392857578
0.0634883028
0.06326348694
0.06318601122
0.06316382332
0.06315979393
0.06318110267
0.06328492739
0.06385098421
0.06385098421
0.06582105637
0.06385098397
0.06392857623
0.06338536812
0.06334934423
0.06320277346
0.06316790607
0.06315741786
0.06317027843
0.06321889396
0.0633853677
0.06385098397
0.06338536812
0.06338536812
0.06326348766
0.06317712257
0.06318601137
0.06316382334
0.06315424472
0.06315988588
0.06317712227
0.06321889387
0.06328492644
0.06321889379
0.06317712257
0.06317712257
0.06316820805
0.06315429877
0.06315809428
0.06315212846
0.06315429868
0.06315988586
0.0631702784
0.06318110244
0.06317027838
0.0631598859
0.06315429877
0.06315429877
0.0631541778
0.06315118203
0.063151182
0.06315212846
0.06315424473
0.06315741787
0.06315979388
0.06315741787
0.06315424474
0.06315212848
0.06315118203
)
;
    }
}


// ************************************************************************* //
