/*--------------------------------*- C++ -*----------------------------------*\
| =========                 |                                                 |
| \\      /  F ield         | OpenFOAM: The Open Source CFD Toolbox           |
|  \\    /   O peration     | Version:  4.x                                   |
|   \\  /    A nd           | Web:      www.OpenFOAM.org                      |
|    \\/     M anipulation  |                                                 |
\*---------------------------------------------------------------------------*/
FoamFile
{
    version     2.0;
    format      ascii;
    class       volScalarField;
    location    "7000";
    object      H2;
}
// * * * * * * * * * * * * * * * * * * * * * * * * * * * * * * * * * * * * * //

dimensions      [0 0 0 0 0 0 0];

internalField   nonuniform List<scalar> 
1175
(
0.002172513343
0.002172513343
0.002172513343
0.002172513343
0.002172513342
0.002172513341
0.002172513334
0.002172513313
0.002172513248
0.002172513052
0.002172512494
0.002172511016
0.002172507416
0.002172499477
0.002172483882
0.002172513343
0.002172513343
0.002172513343
0.002172513343
0.002172513342
0.00217251334
0.002172513331
0.002172513302
0.002172513208
0.002172512911
0.002172512035
0.00217250962
0.00217250353
0.00217248981
0.002172462857
0.002172513343
0.002172513343
0.002172513343
0.002172513343
0.002172513342
0.002172513338
0.002172513326
0.002172513282
0.002172513133
0.002172512643
0.002172511124
0.002172506739
0.002172495213
0.002172468482
0.002172415842
0.002172513343
0.002172513343
0.002172513343
0.002172513343
0.002172513342
0.002172513337
0.002172513321
0.002172513261
0.002172513048
0.002172512327
0.002172509993
0.002172502953
0.002172483634
0.00217243728
0.002172345341
0.002172513343
0.002172513343
0.002172513343
0.002172513343
0.002172513341
0.002172513337
0.002172513318
0.00217251325
0.002172513007
0.002172512161
0.002172509362
0.002172500669
0.002172476031
0.002172415041
0.002172292544
0.002172513343
0.002172513343
0.002172513343
0.002172513343
0.002172513342
0.002172513337
0.002172513321
0.002172513261
0.002172513048
0.002172512327
0.002172509993
0.002172502953
0.002172483635
0.002172437281
0.002172345342
0.002172513343
0.002172513343
0.002172513343
0.002172513343
0.002172513342
0.002172513338
0.002172513326
0.002172513282
0.002172513133
0.002172512643
0.002172511124
0.002172506739
0.002172495213
0.002172468483
0.002172415843
0.002172513343
0.002172513343
0.002172513343
0.002172513343
0.002172513342
0.00217251334
0.002172513331
0.002172513302
0.002172513208
0.002172512911
0.002172512035
0.00217250962
0.00217250353
0.00217248981
0.002172462858
0.002172513343
0.002172513343
0.002172513343
0.002172513343
0.002172513342
0.002172513341
0.002172513334
0.002172513313
0.002172513248
0.002172513052
0.002172512494
0.002172511016
0.002172507416
0.002172499477
0.002172483883
0.002172513343
0.002172513343
0.002172513343
0.002172513343
0.002172513342
0.00217251334
0.002172513331
0.002172513302
0.002172513208
0.002172512911
0.002172512035
0.00217250962
0.00217250353
0.00217248981
0.002172513343
0.002172513343
0.002172513343
0.002172513343
0.002172513342
0.002172513339
0.002172513327
0.002172513284
0.002172513138
0.002172512657
0.002172511153
0.002172506772
0.002172495158
0.002172468056
0.00217241464
0.002172513343
0.002172513343
0.002172513343
0.002172513343
0.002172513341
0.002172513337
0.002172513318
0.00217251325
0.002172513003
0.002172512139
0.002172509262
0.002172500322
0.002172475115
0.0021724134
0.0021722905
0.002172513343
0.002172513343
0.002172513343
0.002172513343
0.002172513341
0.002172513335
0.002172513309
0.002172513212
0.00217251284
0.002172511473
0.002172506644
0.002172490631
0.002172442297
0.002172316431
0.002172059564
0.002172513343
0.002172513343
0.002172513343
0.002172513343
0.002172513341
0.002172513334
0.002172513305
0.002172513192
0.002172512753
0.002172511085
0.002172504965
0.002172483649
0.002172415329
0.002172225116
0.002171819008
0.002172513343
0.002172513343
0.002172513343
0.002172513343
0.002172513341
0.002172513335
0.002172513309
0.002172513212
0.00217251284
0.002172511473
0.002172506644
0.002172490631
0.002172442297
0.002172316432
0.002172059566
0.002172513343
0.002172513343
0.002172513343
0.002172513343
0.002172513341
0.002172513337
0.002172513318
0.00217251325
0.002172513003
0.002172512139
0.002172509262
0.002172500322
0.002172475115
0.002172413401
0.002172290502
0.002172513343
0.002172513343
0.002172513343
0.002172513343
0.002172513342
0.002172513339
0.002172513327
0.002172513284
0.002172513138
0.002172512657
0.002172511153
0.002172506772
0.002172495158
0.002172468057
0.002172414643
0.002172513343
0.002172513343
0.002172513343
0.002172513343
0.002172513342
0.00217251334
0.002172513331
0.002172513302
0.002172513208
0.002172512911
0.002172512035
0.00217250962
0.00217250353
0.00217248981
0.002172462858
0.002172513343
0.002172513343
0.002172513343
0.002172513343
0.002172513342
0.002172513338
0.002172513326
0.002172513282
0.002172513133
0.002172512643
0.002172511124
0.002172506739
0.002172495213
0.002172468481
0.002172513343
0.002172513343
0.002172513343
0.002172513343
0.002172513341
0.002172513337
0.002172513318
0.00217251325
0.002172513003
0.002172512139
0.002172509262
0.002172500322
0.002172475115
0.002172413398
0.002172513343
0.002172513343
0.002172513343
0.002172513343
0.002172513341
0.002172513333
0.002172513304
0.002172513188
0.002172512737
0.002172511039
0.002172504915
0.002172484184
0.002172420463
0.002172252234
0.002171907476
0.002172513343
0.002172513343
0.002172513343
0.002172513342
0.00217251334
0.00217251333
0.002172513288
0.002172513112
0.002172512389
0.002172509479
0.002172498125
0.002172456061
0.002172313033
0.002171894439
0.002170979145
0.002172513343
0.002172513343
0.002172513343
0.002172513342
0.00217251334
0.002172513328
0.002172513279
0.002172513071
0.002172512184
0.002172508452
0.002172493018
0.002172431248
0.00217219887
0.002171426754
0.002169511462
0.002172513343
0.002172513343
0.002172513343
0.002172513342
0.00217251334
0.00217251333
0.002172513288
0.002172513112
0.002172512389
0.002172509479
0.002172498126
0.002172456062
0.002172313034
0.002171894444
0.00217097916
0.002172513343
0.002172513343
0.002172513343
0.002172513343
0.002172513341
0.002172513333
0.002172513304
0.002172513188
0.002172512737
0.002172511039
0.002172504915
0.002172484185
0.002172420464
0.002172252239
0.002171907489
0.002172513343
0.002172513343
0.002172513343
0.002172513343
0.002172513341
0.002172513337
0.002172513318
0.00217251325
0.002172513003
0.002172512139
0.002172509262
0.002172500322
0.002172475115
0.002172413401
0.002172290503
0.002172513343
0.002172513343
0.002172513343
0.002172513343
0.002172513342
0.002172513338
0.002172513326
0.002172513282
0.002172513133
0.002172512643
0.002172511124
0.002172506739
0.002172495213
0.002172468482
0.002172415843
0.002172513343
0.002172513343
0.002172513343
0.002172513343
0.002172513342
0.002172513337
0.002172513321
0.002172513261
0.002172513048
0.002172512327
0.002172509993
0.002172502953
0.002172483634
0.002172437279
0.002172513343
0.002172513343
0.002172513343
0.002172513343
0.002172513341
0.002172513335
0.002172513309
0.002172513212
0.00217251284
0.002172511473
0.002172506644
0.002172490631
0.002172442296
0.002172316427
0.002172513343
0.002172513343
0.002172513343
0.002172513342
0.00217251334
0.00217251333
0.002172513288
0.002172513112
0.002172512389
0.002172509479
0.002172498125
0.002172456061
0.002172313031
0.002171894427
0.002172513343
0.002172513343
0.002172513343
0.002172513342
0.002172513339
0.002172513325
0.002172513261
0.002172512983
0.002172511755
0.002172506365
0.00217248306
0.002172385377
0.00217200083
0.002170670022
0.00216727897
0.002172513343
0.002172513343
0.002172513343
0.002172513342
0.002172513338
0.002172513322
0.002172513248
0.002172512908
0.002172511341
0.002172504023
0.002172469539
0.002172306829
0.002171552097
0.002168272904
0.002156929053
0.002172513343
0.002172513343
0.002172513343
0.002172513342
0.002172513339
0.002172513325
0.002172513261
0.002172512983
0.002172511755
0.002172506365
0.00217248306
0.002172385378
0.002172000834
0.002170670045
0.002167279065
0.002172513343
0.002172513343
0.002172513343
0.002172513342
0.00217251334
0.00217251333
0.002172513288
0.002172513112
0.002172512389
0.002172509479
0.002172498125
0.002172456061
0.002172313034
0.002171894443
0.002170979158
0.002172513343
0.002172513343
0.002172513343
0.002172513343
0.002172513341
0.002172513335
0.002172513309
0.002172513212
0.00217251284
0.002172511473
0.002172506644
0.002172490631
0.002172442297
0.002172316431
0.002172059567
0.002172513343
0.002172513343
0.002172513343
0.002172513343
0.002172513342
0.002172513337
0.002172513321
0.002172513261
0.002172513048
0.002172512327
0.002172509993
0.002172502953
0.002172483634
0.002172437281
0.002172345342
0.002172513343
0.002172513343
0.002172513343
0.002172513343
0.002172513341
0.002172513337
0.002172513318
0.00217251325
0.002172513007
0.002172512161
0.002172509362
0.002172500669
0.00217247603
0.002172415039
0.002172513343
0.002172513343
0.002172513343
0.002172513343
0.002172513341
0.002172513334
0.002172513305
0.002172513192
0.002172512753
0.002172511085
0.002172504965
0.002172483649
0.002172415327
0.002172225109
0.002172513343
0.002172513343
0.002172513343
0.002172513342
0.00217251334
0.002172513328
0.002172513279
0.002172513071
0.002172512184
0.002172508452
0.002172493018
0.002172431247
0.002172198863
0.002171426726
0.002172513343
0.002172513343
0.002172513343
0.002172513342
0.002172513338
0.002172513322
0.002172513248
0.002172512908
0.002172511341
0.002172504022
0.002172469538
0.002172306827
0.00217155208
0.002168272795
0.002172513343
0.002172513343
0.002172513343
0.002172513342
0.002172513338
0.002172513319
0.00217251323
0.002172512809
0.002172510746
0.00217250027
0.002172444558
0.002172130836
0.002170241753
0.002157998226
0.00207217111
0.002172513343
0.002172513343
0.002172513343
0.002172513342
0.002172513338
0.002172513322
0.002172513248
0.002172512908
0.002172511341
0.002172504023
0.002172469539
0.002172306828
0.002171552092
0.002168272887
0.002156929018
0.002172513343
0.002172513343
0.002172513343
0.002172513342
0.00217251334
0.002172513328
0.002172513279
0.002172513071
0.002172512184
0.002172508452
0.002172493018
0.002172431248
0.002172198869
0.002171426753
0.002169511462
0.002172513343
0.002172513343
0.002172513343
0.002172513343
0.002172513341
0.002172513334
0.002172513305
0.002172513192
0.002172512753
0.002172511085
0.002172504965
0.002172483649
0.002172415329
0.002172225116
0.00217181901
0.002172513343
0.002172513343
0.002172513343
0.002172513343
0.002172513341
0.002172513337
0.002172513318
0.00217251325
0.002172513007
0.002172512161
0.002172509362
0.002172500669
0.002172476031
0.002172415041
0.002172292545
0.002172513343
0.002172513343
0.002172513343
0.002172513343
0.002172513342
0.002172513337
0.002172513321
0.002172513261
0.002172513048
0.002172512327
0.002172509993
0.002172502953
0.002172483634
0.002172437279
0.002172513343
0.002172513343
0.002172513343
0.002172513343
0.002172513341
0.002172513335
0.002172513309
0.002172513212
0.00217251284
0.002172511473
0.002172506644
0.002172490631
0.002172442296
0.002172316427
0.002172513343
0.002172513343
0.002172513343
0.002172513342
0.00217251334
0.00217251333
0.002172513288
0.002172513112
0.002172512389
0.002172509479
0.002172498125
0.002172456061
0.00217231303
0.002171894429
0.002172513343
0.002172513343
0.002172513343
0.002172513342
0.002172513339
0.002172513325
0.002172513261
0.002172512983
0.002172511755
0.002172506365
0.002172483059
0.002172385376
0.002172000825
0.002170670004
0.002172513343
0.002172513343
0.002172513343
0.002172513342
0.002172513338
0.002172513322
0.002172513248
0.002172512908
0.002172511341
0.002172504022
0.002172469538
0.002172306826
0.002171552079
0.002168272791
0.002172513343
0.002172513343
0.002172513343
0.002172513342
0.002172513339
0.002172513325
0.002172513261
0.002172512983
0.002172511755
0.002172506365
0.002172483059
0.002172385377
0.002172000827
0.002170670007
0.002172513343
0.002172513343
0.002172513343
0.002172513342
0.00217251334
0.00217251333
0.002172513288
0.002172513112
0.002172512389
0.002172509479
0.002172498125
0.002172456061
0.002172313032
0.002171894434
0.002170979131
0.002172513343
0.002172513343
0.002172513343
0.002172513343
0.002172513341
0.002172513335
0.002172513309
0.002172513212
0.00217251284
0.002172511473
0.002172506644
0.002172490631
0.002172442297
0.00217231643
0.002172059563
0.002172513343
0.002172513343
0.002172513343
0.002172513343
0.002172513342
0.002172513337
0.002172513321
0.002172513261
0.002172513048
0.002172512327
0.002172509993
0.002172502953
0.002172483634
0.00217243728
0.002172345341
0.002172513343
0.002172513343
0.002172513343
0.002172513343
0.002172513342
0.002172513338
0.002172513326
0.002172513282
0.002172513133
0.002172512643
0.002172511124
0.002172506739
0.002172495213
0.002172468481
0.002172513343
0.002172513343
0.002172513343
0.002172513343
0.002172513341
0.002172513337
0.002172513318
0.00217251325
0.002172513003
0.002172512139
0.002172509262
0.002172500322
0.002172475114
0.002172413398
0.002172513343
0.002172513343
0.002172513343
0.002172513343
0.002172513341
0.002172513333
0.002172513304
0.002172513188
0.002172512737
0.002172511039
0.002172504915
0.002172484184
0.002172420462
0.002172252232
0.002172513343
0.002172513343
0.002172513343
0.002172513342
0.00217251334
0.00217251333
0.002172513288
0.002172513112
0.002172512389
0.002172509479
0.002172498125
0.00217245606
0.00217231303
0.002171894429
0.002172513343
0.002172513343
0.002172513343
0.002172513342
0.00217251334
0.002172513328
0.002172513279
0.002172513071
0.002172512184
0.002172508452
0.002172493018
0.002172431247
0.002172198865
0.002171426733
0.002172513343
0.002172513343
0.002172513343
0.002172513342
0.00217251334
0.00217251333
0.002172513288
0.002172513112
0.002172512389
0.002172509479
0.002172498125
0.002172456061
0.00217231303
0.00217189443
0.002172513343
0.002172513343
0.002172513343
0.002172513343
0.002172513341
0.002172513333
0.002172513304
0.002172513188
0.002172512737
0.002172511039
0.002172504915
0.002172484184
0.002172420462
0.002172252232
0.002172513343
0.002172513343
0.002172513343
0.002172513343
0.002172513341
0.002172513337
0.002172513318
0.00217251325
0.002172513003
0.002172512139
0.002172509262
0.002172500322
0.002172475115
0.002172413399
0.002172290498
0.002172513343
0.002172513343
0.002172513343
0.002172513343
0.002172513342
0.002172513338
0.002172513326
0.002172513282
0.002172513133
0.002172512643
0.002172511124
0.002172506739
0.002172495213
0.002172468482
0.002172415842
0.002172513343
0.002172513343
0.002172513343
0.002172513343
0.002172513342
0.00217251334
0.002172513331
0.002172513302
0.002172513207
0.002172512911
0.002172512035
0.00217250962
0.00217250353
0.00217248981
0.002172513343
0.002172513343
0.002172513343
0.002172513343
0.002172513342
0.002172513339
0.002172513327
0.002172513284
0.002172513138
0.002172512657
0.002172511153
0.002172506772
0.002172495158
0.002172468056
0.002172513343
0.002172513343
0.002172513343
0.002172513343
0.002172513341
0.002172513337
0.002172513318
0.00217251325
0.002172513003
0.002172512139
0.002172509262
0.002172500322
0.002172475114
0.002172413398
0.002172513343
0.002172513343
0.002172513343
0.002172513343
0.002172513341
0.002172513335
0.002172513309
0.002172513212
0.00217251284
0.002172511473
0.002172506644
0.002172490631
0.002172442296
0.002172316427
0.002172513343
0.002172513343
0.002172513343
0.002172513343
0.002172513341
0.002172513334
0.002172513305
0.002172513192
0.002172512753
0.002172511085
0.002172504965
0.002172483649
0.002172415327
0.00217222511
0.002172513343
0.002172513343
0.002172513343
0.002172513343
0.002172513341
0.002172513335
0.002172513309
0.002172513212
0.00217251284
0.002172511473
0.002172506644
0.002172490631
0.002172442296
0.002172316427
0.002172513343
0.002172513343
0.002172513343
0.002172513343
0.002172513341
0.002172513337
0.002172513318
0.00217251325
0.002172513003
0.002172512139
0.002172509262
0.002172500322
0.002172475115
0.002172413398
0.002172513343
0.002172513343
0.002172513343
0.002172513343
0.002172513342
0.002172513339
0.002172513327
0.002172513284
0.002172513138
0.002172512657
0.002172511153
0.002172506772
0.002172495158
0.002172468056
0.002172513343
0.002172513343
0.002172513343
0.002172513343
0.002172513342
0.00217251334
0.002172513331
0.002172513302
0.002172513207
0.002172512911
0.002172512035
0.00217250962
0.00217250353
0.00217248981
0.002172462857
0.002172513343
0.002172513343
0.002172513343
0.002172513343
0.002172513342
0.002172513341
0.002172513334
0.002172513313
0.002172513248
0.002172513052
0.002172512494
0.002172511016
0.002172507416
0.002172499477
0.002172513343
0.002172513343
0.002172513343
0.002172513343
0.002172513342
0.00217251334
0.002172513331
0.002172513302
0.002172513207
0.002172512911
0.002172512035
0.00217250962
0.00217250353
0.00217248981
0.002172513343
0.002172513343
0.002172513343
0.002172513343
0.002172513342
0.002172513338
0.002172513326
0.002172513282
0.002172513133
0.002172512643
0.002172511124
0.002172506739
0.002172495213
0.002172468481
0.002172513343
0.002172513343
0.002172513343
0.002172513343
0.002172513342
0.002172513337
0.002172513321
0.002172513261
0.002172513048
0.002172512327
0.002172509993
0.002172502953
0.002172483634
0.002172437279
0.002172513343
0.002172513343
0.002172513343
0.002172513343
0.002172513341
0.002172513337
0.002172513318
0.00217251325
0.002172513007
0.002172512161
0.002172509362
0.002172500669
0.00217247603
0.002172415039
0.002172513343
0.002172513343
0.002172513343
0.002172513343
0.002172513342
0.002172513337
0.002172513321
0.002172513261
0.002172513048
0.002172512327
0.002172509993
0.002172502953
0.002172483634
0.002172437279
0.002172513343
0.002172513343
0.002172513343
0.002172513343
0.002172513342
0.002172513338
0.002172513326
0.002172513282
0.002172513133
0.002172512643
0.002172511124
0.002172506739
0.002172495213
0.002172468481
0.002172513343
0.002172513343
0.002172513343
0.002172513343
0.002172513342
0.00217251334
0.002172513331
0.002172513302
0.002172513207
0.002172512911
0.002172512035
0.00217250962
0.00217250353
0.00217248981
0.002172513343
0.002172513343
0.002172513343
0.002172513343
0.002172513342
0.002172513341
0.002172513334
0.002172513313
0.002172513248
0.002172513052
0.002172512494
0.002172511016
0.002172507416
0.002172499477
)
;

boundaryField
{
    top
    {
        type            zeroGradient;
    }
    bottom
    {
        type            zeroGradient;
    }
    side-walls
    {
        type            zeroGradient;
    }
    inlet
    {
        type            zeroGradient;
    }
    outlet
    {
        type            zeroGradient;
    }
    procBoundary0to1
    {
        type            processor;
        value           nonuniform List<scalar> 
97
(
0.002172456779
0.002172462857
0.002172417343
0.002172330335
0.002172203046
0.002172112325
0.002172203048
0.002172330337
0.002172417344
0.00217245678
0.002172462857
0.002172462857
0.002172328597
0.002172290498
0.00217210562
0.002171710013
0.002171337495
0.002171710015
0.002172105623
0.0021723286
0.002172417344
0.002172415842
0.002172290498
0.002172290498
0.002171448104
0.002170979124
0.002169988258
0.002168080013
0.002169988273
0.002171448116
0.002172105623
0.002172330337
0.00217234534
0.00217205956
0.002170979124
0.002170979124
0.002164991585
0.002156928926
0.002155205372
0.002164991641
0.002169988272
0.002171710016
0.002172203048
0.002172292542
0.002171819002
0.002169511432
0.002156928926
0.002156928926
0.002113137043
0.00215692893
0.00215520536
0.002167279025
0.002168080018
0.0021713375
0.002172112327
0.002172345341
0.002172059563
0.002170979145
0.002167279035
0.00215692893
0.002167279025
0.002167279025
0.002169988258
0.002171907477
0.002171710014
0.002172203048
0.002172415843
0.002172290501
0.002171907483
0.002170979147
0.002169511452
0.002170979148
0.002171907477
0.002171907477
0.00217210562
0.00217241464
0.002172330335
0.002172462858
0.002172414642
0.002172290501
0.002172059564
0.002171819007
0.002172059564
0.0021722905
0.00217241464
0.00217241464
0.002172417343
0.002172483882
0.002172483882
0.002172462858
0.002172415843
0.002172345341
0.002172292543
0.002172345341
0.002172415842
0.002172462857
0.002172483882
)
;
    }
}


// ************************************************************************* //
