/*--------------------------------*- C++ -*----------------------------------*\
| =========                 |                                                 |
| \\      /  F ield         | OpenFOAM: The Open Source CFD Toolbox           |
|  \\    /   O peration     | Version:  4.x                                   |
|   \\  /    A nd           | Web:      www.OpenFOAM.org                      |
|    \\/     M anipulation  |                                                 |
\*---------------------------------------------------------------------------*/
FoamFile
{
    version     2.0;
    format      ascii;
    class       volScalarField;
    location    "7000";
    object      H2O;
}
// * * * * * * * * * * * * * * * * * * * * * * * * * * * * * * * * * * * * * //

dimensions      [0 0 0 0 0 0 0];

internalField   nonuniform List<scalar> 
1175
(
9.999027383e-07
9.999028536e-07
9.999030848e-07
9.999043099e-07
9.999088969e-07
9.999248464e-07
9.999784413e-07
1.000153985e-06
1.000706607e-06
1.002365974e-06
1.007076175e-06
1.019556246e-06
1.049971528e-06
1.117038353e-06
1.248802533e-06
9.999028782e-07
9.999029386e-07
9.999032565e-07
9.999048892e-07
9.999106106e-07
9.999313533e-07
1.000003475e-06
1.000248232e-06
1.001048494e-06
1.003550804e-06
1.010951575e-06
1.031352107e-06
1.082787976e-06
1.198687235e-06
1.426391531e-06
9.999028459e-07
9.999029867e-07
9.999034887e-07
9.999055815e-07
9.999132966e-07
9.999423772e-07
1.000047351e-06
1.000417525e-06
1.001681354e-06
1.005818093e-06
1.018643455e-06
1.05567979e-06
1.153031816e-06
1.378817146e-06
1.823491327e-06
9.999028466e-07
9.999030059e-07
9.999036875e-07
9.999060884e-07
9.999160201e-07
9.999535519e-07
1.00009286e-06
1.000599947e-06
1.002392371e-06
1.008488502e-06
1.028193124e-06
1.087653281e-06
1.250812705e-06
1.642323708e-06
2.418929419e-06
9.999029236e-07
9.999031362e-07
9.999037193e-07
9.999064056e-07
9.999171771e-07
9.999584408e-07
1.000113514e-06
1.000686117e-06
1.002743636e-06
1.009882909e-06
1.033523513e-06
1.106937907e-06
1.315021857e-06
1.83012465e-06
2.864802935e-06
9.999028173e-07
9.999029773e-07
9.999036419e-07
9.999061885e-07
9.999160489e-07
9.999534845e-07
1.000092928e-06
1.000599976e-06
1.002392414e-06
1.008488537e-06
1.028193039e-06
1.087652463e-06
1.250809601e-06
1.64231469e-06
2.418907869e-06
9.999027847e-07
9.999028572e-07
9.999033717e-07
9.999055472e-07
9.999132831e-07
9.999422616e-07
1.000047215e-06
1.000417551e-06
1.001681268e-06
1.00581813e-06
1.018643319e-06
1.055679022e-06
1.153028822e-06
1.378807076e-06
1.823466771e-06
9.999028067e-07
9.99902687e-07
9.999032626e-07
9.999048135e-07
9.999106345e-07
9.999312862e-07
1.000003566e-06
1.000248196e-06
1.001048521e-06
1.003550909e-06
1.010951524e-06
1.031351207e-06
1.082784791e-06
1.198676843e-06
1.426367179e-06
9.999026513e-07
9.999027562e-07
9.999031021e-07
9.999043927e-07
9.999089765e-07
9.999248421e-07
9.999785501e-07
1.000154058e-06
1.000706531e-06
1.002365982e-06
1.007076062e-06
1.019555395e-06
1.04996857e-06
1.117028789e-06
1.248778362e-06
9.999028409e-07
9.999028852e-07
9.999033218e-07
9.999048624e-07
9.999106026e-07
9.999312597e-07
1.000003463e-06
1.000248237e-06
1.001048462e-06
1.003550967e-06
1.010951907e-06
1.031353177e-06
1.08279241e-06
1.198704844e-06
9.999029589e-07
9.999029532e-07
9.999033978e-07
9.999054761e-07
9.999129346e-07
9.999408124e-07
1.000042131e-06
1.000401174e-06
1.001633927e-06
1.005697572e-06
1.01840004e-06
1.055405403e-06
1.153500585e-06
1.382434447e-06
1.833694916e-06
9.999029476e-07
9.999030258e-07
9.999037451e-07
9.999064558e-07
9.999169413e-07
9.999574348e-07
1.000111894e-06
1.000687389e-06
1.00277388e-06
1.010071799e-06
1.03436668e-06
1.10987442e-06
1.322766906e-06
1.844027237e-06
2.882164573e-06
9.999031128e-07
9.999032568e-07
9.999040045e-07
9.999072765e-07
9.999209325e-07
9.99975008e-07
1.000187959e-06
1.001013928e-06
1.004148551e-06
1.015698331e-06
1.056474029e-06
1.191707421e-06
1.599901698e-06
2.662905237e-06
4.832461927e-06
9.999030764e-07
9.999031314e-07
9.999040284e-07
9.999077081e-07
9.99922606e-07
9.999829959e-07
1.000224229e-06
1.001177765e-06
1.004885708e-06
1.018970041e-06
1.070656069e-06
1.250663938e-06
1.827619836e-06
3.433967501e-06
6.863792579e-06
9.999029684e-07
9.999031363e-07
9.999038656e-07
9.999072517e-07
9.999207414e-07
9.999749557e-07
1.000188021e-06
1.001013983e-06
1.004148654e-06
1.01569848e-06
1.05647416e-06
1.191706488e-06
1.599895842e-06
2.662879329e-06
4.83238732e-06
9.999028172e-07
9.999028552e-07
9.999036347e-07
9.999064329e-07
9.99916921e-07
9.999574496e-07
1.00011196e-06
1.000687307e-06
1.002773926e-06
1.010071752e-06
1.034366638e-06
1.109872908e-06
1.322758167e-06
1.843993059e-06
2.882072423e-06
9.999028389e-07
9.99902955e-07
9.999034737e-07
9.999054827e-07
9.999129022e-07
9.99940744e-07
1.000042148e-06
1.000401306e-06
1.001634007e-06
1.005697548e-06
1.018399552e-06
1.055403279e-06
1.153491614e-06
1.3824024e-06
1.833605636e-06
9.999028466e-07
9.999028236e-07
9.999031607e-07
9.999047162e-07
9.999106614e-07
9.999313182e-07
1.000003457e-06
1.00024826e-06
1.001048508e-06
1.003550945e-06
1.010951618e-06
1.031351472e-06
1.082785464e-06
1.198678072e-06
1.426368655e-06
9.99903007e-07
9.999029791e-07
9.999035601e-07
9.999055677e-07
9.999134425e-07
9.999423593e-07
1.000047377e-06
1.000417539e-06
1.001681401e-06
1.005818423e-06
1.018644522e-06
1.055683788e-06
1.153045712e-06
1.378862987e-06
9.999029485e-07
9.999031056e-07
9.999037048e-07
9.999064361e-07
9.999169641e-07
9.999575514e-07
1.00011206e-06
1.000687371e-06
1.002773967e-06
1.010072042e-06
1.034367806e-06
1.109878847e-06
1.32278449e-06
1.844102165e-06
9.999030156e-07
9.999031807e-07
9.999041115e-07
9.999077438e-07
9.999230928e-07
9.999850001e-07
1.000233494e-06
1.001215989e-06
1.005024561e-06
1.019363095e-06
1.071082938e-06
1.246157387e-06
1.784314019e-06
3.205155311e-06
6.117260616e-06
9.999030775e-07
9.999032601e-07
9.999043538e-07
9.99909118e-07
9.999294404e-07
1.000014979e-06
1.000372317e-06
1.001857827e-06
1.007959337e-06
1.03253446e-06
1.128413879e-06
1.483636326e-06
2.691484063e-06
6.226512919e-06
1.395672411e-05
9.999031366e-07
9.999032556e-07
9.999044238e-07
9.999096939e-07
9.99932428e-07
1.000029116e-06
1.00044214e-06
1.002204277e-06
1.00969046e-06
1.041203734e-06
1.171536553e-06
1.693149924e-06
3.655429247e-06
1.017542104e-05
2.634941965e-05
9.999031197e-07
9.999033777e-07
9.999044465e-07
9.999091361e-07
9.9992945e-07
1.000014742e-06
1.000372256e-06
1.001857792e-06
1.00795932e-06
1.032534386e-06
1.128413085e-06
1.483630228e-06
2.691449907e-06
6.226358553e-06
1.395622733e-05
9.999030132e-07
9.999031311e-07
9.999039428e-07
9.999076966e-07
9.999229865e-07
9.999849383e-07
1.000233363e-06
1.001215846e-06
1.005024381e-06
1.019362944e-06
1.071081663e-06
1.246150355e-06
1.784277635e-06
3.204996936e-06
6.116744248e-06
9.999029795e-07
9.999030005e-07
9.9990372e-07
9.999064399e-07
9.999169536e-07
9.999575605e-07
1.00011202e-06
1.00068742e-06
1.002773987e-06
1.010071942e-06
1.034366821e-06
1.109873642e-06
1.322760053e-06
1.84399602e-06
2.882072375e-06
9.999027337e-07
9.999028858e-07
9.999034494e-07
9.999055547e-07
9.999132614e-07
9.999423751e-07
1.000047272e-06
1.00041751e-06
1.00168137e-06
1.005818235e-06
1.018643723e-06
1.055680217e-06
1.15303127e-06
1.378811027e-06
1.823470479e-06
9.999028677e-07
9.999030497e-07
9.999036209e-07
9.999062107e-07
9.999160085e-07
9.999532898e-07
1.000092755e-06
1.000599984e-06
1.002392563e-06
1.008489041e-06
1.028195447e-06
1.087661363e-06
1.250840851e-06
1.642412699e-06
9.999028741e-07
9.999032628e-07
9.999038884e-07
9.999072557e-07
9.999208922e-07
9.99974988e-07
1.000188068e-06
1.001013975e-06
1.004148786e-06
1.015699173e-06
1.056477691e-06
1.191722055e-06
1.599959877e-06
2.663121208e-06
9.999031726e-07
9.999033787e-07
9.999045196e-07
9.999093425e-07
9.999294946e-07
1.00001492e-06
1.000372334e-06
1.001857852e-06
1.007959504e-06
1.03253541e-06
1.128418507e-06
1.483658293e-06
2.691589853e-06
6.227031817e-06
9.999032489e-07
9.999034892e-07
9.999049404e-07
9.999111472e-07
9.999386983e-07
1.000059813e-06
1.000592509e-06
1.002943585e-06
1.013315832e-06
1.058828379e-06
1.255637651e-06
2.080517695e-06
5.327847398e-06
1.656608971e-05
4.520417947e-05
9.999032409e-07
9.999035024e-07
9.999050425e-07
9.999119628e-07
9.999431178e-07
1.000081993e-06
1.000709457e-06
1.003574743e-06
1.016807433e-06
1.078610821e-06
1.369800609e-06
2.743731931e-06
9.116624194e-06
3.680546259e-05
0.0001325910298
9.999032283e-07
9.999035243e-07
9.999048257e-07
9.999110501e-07
9.999387351e-07
1.000059763e-06
1.000592481e-06
1.00294356e-06
1.013315725e-06
1.058828087e-06
1.255635064e-06
2.080497817e-06
5.327712431e-06
1.656529897e-05
4.520063229e-05
9.999031542e-07
9.999034185e-07
9.999044465e-07
9.999091353e-07
9.999294531e-07
1.00001475e-06
1.000372203e-06
1.001857813e-06
1.007959484e-06
1.032535007e-06
1.128415483e-06
1.483638578e-06
2.691474377e-06
6.226411473e-06
1.395626703e-05
9.999030614e-07
9.999031491e-07
9.999039866e-07
9.999073927e-07
9.999209064e-07
9.999750313e-07
1.000188094e-06
1.001013954e-06
1.00414878e-06
1.015698834e-06
1.05647559e-06
1.191711085e-06
1.599907425e-06
2.662900087e-06
4.832399572e-06
9.999028937e-07
9.999030856e-07
9.999036526e-07
9.999062522e-07
9.999160748e-07
9.999534027e-07
1.000092811e-06
1.000600062e-06
1.002392582e-06
1.008488849e-06
1.028194116e-06
1.087655592e-06
1.250816813e-06
1.642326585e-06
2.41891855e-06
9.99903023e-07
9.999031715e-07
9.999038145e-07
9.999064735e-07
9.999172367e-07
9.999584481e-07
1.000113683e-06
1.000686387e-06
1.002744072e-06
1.009883817e-06
1.03352691e-06
1.106950191e-06
1.315063669e-06
1.830253617e-06
9.999030446e-07
9.999032727e-07
9.999041164e-07
9.999077668e-07
9.99922654e-07
9.999829863e-07
1.000224314e-06
1.001178006e-06
1.00488614e-06
1.018971386e-06
1.070662189e-06
1.250689729e-06
1.82772345e-06
3.434343221e-06
9.99903091e-07
9.999033306e-07
9.99904576e-07
9.999098825e-07
9.999324076e-07
1.000029071e-06
1.000442133e-06
1.002204483e-06
1.009691146e-06
1.041206304e-06
1.171548957e-06
1.69321102e-06
3.655727081e-06
1.01767901e-05
9.999032262e-07
9.999035971e-07
9.999050684e-07
9.999120625e-07
9.999431038e-07
1.000081861e-06
1.000709495e-06
1.003574732e-06
1.016807837e-06
1.078613668e-06
1.369816888e-06
2.743830513e-06
9.117254444e-06
3.680972037e-05
9.99903291e-07
9.999035387e-07
9.99905378e-07
9.999131616e-07
9.999481779e-07
1.000108831e-06
1.000856675e-06
1.004415449e-06
1.02183758e-06
1.110295611e-06
1.580736861e-06
4.229770557e-06
2.018050469e-05
0.0001235579171
0.0008482201094
9.999032611e-07
9.999035655e-07
9.999052501e-07
9.999121386e-07
9.999431032e-07
1.000081954e-06
1.000709448e-06
1.003574785e-06
1.016807796e-06
1.078613059e-06
1.369811228e-06
2.743781524e-06
9.116844478e-06
3.68062673e-05
0.0001325918883
9.999031889e-07
9.999034011e-07
9.999045409e-07
9.999097562e-07
9.999324769e-07
1.000029159e-06
1.000442244e-06
1.002204481e-06
1.009690828e-06
1.041205284e-06
1.171542934e-06
1.693174418e-06
3.655513162e-06
1.017564031e-05
2.634957492e-05
9.999030658e-07
9.999032267e-07
9.999041417e-07
9.99907825e-07
9.999227156e-07
9.999830095e-07
1.000224366e-06
1.001178011e-06
1.004886023e-06
1.018970992e-06
1.070659057e-06
1.250673415e-06
1.827645838e-06
3.434019361e-06
6.863817445e-06
9.999029737e-07
9.999030707e-07
9.999037766e-07
9.999065506e-07
9.999171975e-07
9.999583893e-07
1.000113571e-06
1.000686204e-06
1.002743856e-06
1.009883392e-06
1.033525052e-06
1.106942166e-06
1.315031749e-06
1.830141145e-06
2.864810577e-06
9.999028886e-07
9.99903011e-07
9.999037685e-07
9.999062621e-07
9.999161008e-07
9.999535132e-07
1.000092912e-06
1.000600133e-06
1.002392751e-06
1.008489508e-06
1.028196344e-06
1.087663648e-06
1.250845278e-06
1.642416881e-06
9.999030523e-07
9.999032824e-07
9.999040503e-07
9.999073465e-07
9.999209069e-07
9.999750278e-07
1.000187986e-06
1.001014002e-06
1.004149055e-06
1.015699789e-06
1.056479778e-06
1.191728638e-06
1.599976091e-06
2.663138186e-06
9.999031223e-07
9.999032841e-07
9.999043905e-07
9.999092411e-07
9.999295632e-07
1.000014874e-06
1.000372316e-06
1.001857841e-06
1.007959897e-06
1.032536994e-06
1.128424651e-06
1.483681383e-06
2.691663054e-06
6.227158031e-06
9.999031459e-07
9.999035353e-07
9.999050214e-07
9.999112148e-07
9.999387246e-07
1.000059783e-06
1.000592543e-06
1.002943656e-06
1.013316339e-06
1.05883142e-06
1.255652141e-06
2.080586798e-06
5.328166293e-06
1.656744839e-05
9.999033309e-07
9.999035644e-07
9.999051061e-07
9.999119773e-07
9.999430863e-07
1.000082035e-06
1.000709558e-06
1.003574764e-06
1.016808197e-06
1.078615478e-06
1.369825573e-06
2.743871102e-06
9.117431226e-06
3.681030758e-05
9.999031869e-07
9.999034833e-07
9.99904902e-07
9.999112489e-07
9.99938887e-07
1.000059706e-06
1.000592543e-06
1.002943712e-06
1.013316334e-06
1.058830923e-06
1.25564908e-06
2.080567872e-06
5.328064527e-06
1.656705708e-05
9.999031437e-07
9.999033972e-07
9.999043911e-07
9.999092744e-07
9.999295109e-07
1.000014905e-06
1.000372207e-06
1.001857824e-06
1.007959774e-06
1.032536494e-06
1.128421448e-06
1.483663928e-06
2.691577232e-06
6.22678622e-06
1.395747786e-05
9.999029183e-07
9.999031422e-07
9.999039875e-07
9.99907314e-07
9.999208557e-07
9.999749653e-07
1.000188139e-06
1.001013979e-06
1.004149038e-06
1.015699405e-06
1.056477611e-06
1.191718569e-06
1.599933053e-06
2.662977384e-06
4.832577496e-06
9.999030124e-07
9.999030541e-07
9.999037452e-07
9.999063095e-07
9.999161188e-07
9.999534525e-07
1.000092832e-06
1.000600077e-06
1.002392616e-06
1.00848906e-06
1.028194951e-06
1.087657956e-06
1.250823833e-06
1.642344769e-06
2.418952959e-06
9.999028319e-07
9.999029841e-07
9.999035021e-07
9.999055623e-07
9.999133515e-07
9.999424079e-07
1.000047312e-06
1.000417626e-06
1.001681611e-06
1.005818755e-06
1.0186456e-06
1.055686423e-06
1.15305112e-06
1.378867575e-06
9.999029378e-07
9.999030632e-07
9.999036995e-07
9.999063729e-07
9.999168743e-07
9.999574827e-07
1.000112044e-06
1.00068744e-06
1.002774279e-06
1.010072867e-06
1.034370439e-06
1.109886581e-06
1.322803269e-06
1.844125155e-06
9.999030523e-07
9.99903287e-07
9.99904225e-07
9.99907848e-07
9.999230486e-07
9.999849796e-07
1.000233457e-06
1.001216025e-06
1.005025026e-06
1.01936499e-06
1.071089375e-06
1.246179962e-06
1.78438444e-06
3.205340611e-06
9.999031731e-07
9.999033438e-07
9.999044644e-07
9.999092807e-07
9.999294955e-07
1.00001498e-06
1.000372314e-06
1.001857917e-06
1.007960045e-06
1.032537495e-06
1.128426467e-06
1.483687095e-06
2.691676713e-06
6.227167458e-06
9.999032458e-07
9.999033726e-07
9.999046092e-07
9.999099087e-07
9.999324123e-07
1.000029185e-06
1.000442375e-06
1.0022046e-06
1.009691327e-06
1.041207309e-06
1.171553036e-06
1.69322542e-06
3.65576553e-06
1.017680014e-05
9.999030849e-07
9.999032982e-07
9.999044092e-07
9.999091483e-07
9.999294538e-07
1.000014837e-06
1.000372313e-06
1.001857962e-06
1.007960083e-06
1.03253727e-06
1.128425282e-06
1.483681393e-06
2.69165193e-06
6.227087313e-06
9.999031681e-07
9.999032798e-07
9.999041098e-07
9.999078771e-07
9.999230728e-07
9.999851027e-07
1.000233465e-06
1.00121611e-06
1.005024946e-06
1.019364613e-06
1.071087871e-06
1.24617358e-06
1.784362385e-06
3.205299072e-06
9.999030995e-07
9.999032287e-07
9.999038582e-07
9.999064492e-07
9.999169193e-07
9.999575021e-07
1.000112047e-06
1.000687542e-06
1.002774322e-06
1.010072713e-06
1.03436936e-06
1.10988216e-06
1.322787365e-06
1.84407508e-06
2.882274642e-06
9.999030114e-07
9.99903128e-07
9.999036131e-07
9.999056684e-07
9.999134588e-07
9.999423335e-07
1.000047309e-06
1.000417671e-06
1.001681528e-06
1.00581867e-06
1.01864491e-06
1.055683547e-06
1.153041062e-06
1.378835461e-06
1.823517809e-06
9.99902788e-07
9.999028723e-07
9.999032965e-07
9.999048068e-07
9.99910594e-07
9.999313323e-07
1.000003557e-06
1.000248428e-06
1.001048779e-06
1.003551357e-06
1.010952849e-06
1.031355508e-06
1.082796927e-06
1.198708436e-06
9.999027641e-07
9.999029474e-07
9.999034774e-07
9.99905349e-07
9.99912906e-07
9.999408598e-07
1.000042206e-06
1.000401302e-06
1.001634154e-06
1.005698271e-06
1.018401792e-06
1.055410571e-06
1.153513608e-06
1.382462126e-06
9.999029006e-07
9.99903007e-07
9.999037113e-07
9.999063015e-07
9.999168986e-07
9.999575986e-07
1.000112215e-06
1.000687593e-06
1.002774302e-06
1.010073129e-06
1.034370605e-06
1.109887285e-06
1.322804556e-06
1.844125294e-06
9.999030791e-07
9.999031601e-07
9.999040184e-07
9.99907306e-07
9.999208659e-07
9.999749751e-07
1.000188083e-06
1.001014107e-06
1.004149314e-06
1.015700268e-06
1.056481164e-06
1.19173231e-06
1.599983346e-06
2.663142595e-06
9.999031654e-07
9.999032946e-07
9.99904093e-07
9.999078602e-07
9.999227674e-07
9.999830746e-07
1.000224275e-06
1.001178059e-06
1.004886474e-06
1.018972208e-06
1.070664699e-06
1.250696848e-06
1.827737783e-06
3.434343983e-06
9.999030513e-07
9.999032953e-07
9.999041257e-07
9.999074376e-07
9.999209992e-07
9.999750322e-07
1.000188149e-06
1.001014107e-06
1.004149232e-06
1.015700094e-06
1.056480705e-06
1.191730438e-06
1.599976552e-06
2.663122461e-06
9.999030373e-07
9.999031489e-07
9.999039048e-07
9.999064917e-07
9.999169922e-07
9.999576067e-07
1.000112108e-06
1.000687567e-06
1.002774334e-06
1.010072918e-06
1.03437018e-06
1.109885297e-06
1.32279857e-06
1.844114008e-06
9.999030738e-07
9.999031252e-07
9.999036027e-07
9.999056002e-07
9.999130161e-07
9.999408951e-07
1.000042166e-06
1.000401351e-06
1.001634159e-06
1.005698292e-06
1.018401481e-06
1.055409274e-06
1.153510084e-06
1.382458933e-06
9.999030843e-07
9.999030307e-07
9.999034117e-07
9.999049696e-07
9.999107028e-07
9.999313714e-07
1.000003625e-06
1.000248376e-06
1.001048672e-06
1.003551278e-06
1.01095257e-06
1.031354412e-06
1.082793591e-06
1.198699058e-06
1.426415689e-06
9.999027472e-07
9.999027328e-07
9.999030642e-07
9.999043771e-07
9.99908994e-07
9.999248728e-07
9.999786339e-07
1.000154266e-06
1.000706822e-06
1.002366487e-06
1.007077113e-06
1.019558188e-06
1.049975922e-06
1.117047147e-06
9.999027904e-07
9.999029276e-07
9.999031794e-07
9.999047756e-07
9.999105896e-07
9.999312737e-07
1.00000351e-06
1.000248267e-06
1.001048713e-06
1.003551407e-06
1.010952999e-06
1.031355706e-06
1.082797266e-06
1.198708703e-06
9.999029984e-07
9.999030201e-07
9.999035345e-07
9.999055418e-07
9.99913424e-07
9.999424361e-07
1.000047406e-06
1.000417607e-06
1.001681573e-06
1.005818954e-06
1.018645968e-06
1.05568733e-06
1.153052683e-06
1.37886903e-06
9.999029926e-07
9.999031107e-07
9.999037208e-07
9.999062525e-07
9.999161234e-07
9.999533817e-07
1.000092854e-06
1.000600249e-06
1.00239287e-06
1.008489652e-06
1.028197109e-06
1.087666007e-06
1.250849852e-06
1.642421307e-06
9.999030383e-07
9.999031634e-07
9.999038526e-07
9.999065162e-07
9.999172004e-07
9.999582998e-07
1.00011362e-06
1.000686358e-06
1.002744105e-06
1.009884286e-06
1.033528226e-06
1.106953639e-06
1.315069777e-06
1.83025579e-06
9.999029569e-07
9.999030849e-07
9.999036824e-07
9.999062783e-07
9.999161727e-07
9.999535796e-07
1.000092963e-06
1.000600233e-06
1.002392851e-06
1.008489748e-06
1.028197104e-06
1.087665545e-06
1.250848148e-06
1.642415834e-06
9.999030048e-07
9.999030589e-07
9.999035939e-07
9.999056275e-07
9.999133679e-07
9.999424835e-07
1.000047395e-06
1.000417631e-06
1.001681557e-06
1.005818939e-06
1.018645852e-06
1.055686882e-06
1.153051178e-06
1.378865574e-06
9.999029512e-07
9.999030531e-07
9.999034332e-07
9.999049556e-07
9.999106972e-07
9.999314035e-07
1.000003625e-06
1.000248402e-06
1.001048714e-06
1.003551417e-06
1.010952816e-06
1.03135526e-06
1.082795999e-06
1.198707423e-06
9.999029248e-07
9.999030355e-07
9.99903384e-07
9.999046539e-07
9.999091023e-07
9.999249502e-07
9.999786257e-07
1.000154265e-06
1.000706822e-06
1.002366455e-06
1.007077001e-06
1.019557771e-06
1.049974997e-06
1.117047124e-06
)
;

boundaryField
{
    top
    {
        type            zeroGradient;
    }
    bottom
    {
        type            zeroGradient;
    }
    side-walls
    {
        type            zeroGradient;
    }
    inlet
    {
        type            zeroGradient;
    }
    outlet
    {
        type            zeroGradient;
    }
    procBoundary0to1
    {
        type            processor;
        value           nonuniform List<scalar> 
97
(
1.477760407e-06
1.426413701e-06
1.810879387e-06
2.545794393e-06
3.620888491e-06
4.38707048e-06
3.620860369e-06
2.545764355e-06
1.810853146e-06
1.477742385e-06
1.426413701e-06
1.426413701e-06
2.560490932e-06
2.882276925e-06
4.443805332e-06
7.784953916e-06
1.093084831e-05
7.784879074e-06
4.443722317e-06
2.56043502e-06
1.81085586e-06
1.823523757e-06
2.882276925e-06
2.882276925e-06
9.997102066e-06
1.395771488e-05
2.232590574e-05
3.844022416e-05
2.232551867e-05
9.996818165e-06
4.44372027e-06
2.545769968e-06
2.418989272e-06
4.832673253e-06
1.395771488e-05
1.395771488e-05
6.452280405e-05
0.0001326045437
0.0001471609555
6.452141603e-05
2.232555734e-05
7.784891221e-06
3.620875483e-06
2.86489949e-06
6.864164552e-06
2.635146689e-05
0.0001326045437
0.0001326045437
0.0005023970945
0.0001326042175
0.0001471611205
4.520412816e-05
3.844030171e-05
1.093086164e-05
4.387077245e-06
2.418982093e-06
4.832604961e-06
1.395706493e-05
4.520369198e-05
0.0001326042175
4.520412816e-05
4.520412816e-05
2.232591605e-05
6.117268991e-06
7.785010871e-06
3.620907882e-06
1.823508967e-06
2.882174528e-06
6.11705251e-06
1.39570639e-05
2.635129721e-05
1.395702853e-05
6.117268991e-06
6.117268991e-06
4.443809557e-06
1.833697159e-06
2.545812189e-06
1.42638846e-06
1.83364852e-06
2.882173574e-06
4.832607003e-06
6.86413455e-06
4.832583064e-06
2.882189785e-06
1.833697159e-06
1.833697159e-06
1.810882541e-06
1.248803671e-06
1.248789798e-06
1.426388858e-06
1.82351129e-06
2.41898815e-06
2.864896567e-06
2.418980213e-06
1.823511216e-06
1.426395616e-06
1.248803671e-06
)
;
    }
}


// ************************************************************************* //
