/*--------------------------------*- C++ -*----------------------------------*\
| =========                 |                                                 |
| \\      /  F ield         | OpenFOAM: The Open Source CFD Toolbox           |
|  \\    /   O peration     | Version:  4.x                                   |
|   \\  /    A nd           | Web:      www.OpenFOAM.org                      |
|    \\/     M anipulation  |                                                 |
\*---------------------------------------------------------------------------*/
FoamFile
{
    version     2.0;
    format      ascii;
    class       volScalarField;
    location    "7000";
    object      molarConc;
}
// * * * * * * * * * * * * * * * * * * * * * * * * * * * * * * * * * * * * * //

dimensions      [0 -3 0 0 1 0 0];

internalField   nonuniform List<scalar> 
1175
(
9.963276493
9.96327567
9.963274683
9.963274726
9.963275291
9.963275675
9.963274993
9.963274685
9.963274103
9.963274336
9.96327408
9.963273488
9.96327396
9.963274403
9.963273583
9.963260655
9.963261668
9.963261055
9.963262076
9.963261974
9.96326255
9.963262607
9.963262181
9.963260276
9.963260178
9.963260564
9.963262188
9.963260228
9.963258839
9.963258474
9.963282762
9.963283166
9.963283385
9.963283881
9.963284078
9.963283737
9.963283126
9.963281964
9.96328213
9.963281576
9.963282601
9.963280144
9.96328041
9.963279782
9.963279405
9.96323904
9.963239087
9.963239746
9.963238794
9.963241188
9.963241988
9.963241688
9.96324254
9.96324238
9.963242954
9.963242565
9.963242756
9.963241886
9.96324099
9.963236746
9.963255087
9.963254744
9.963255116
9.963254024
9.963255213
9.963253708
9.963252847
9.963253423
9.963253116
9.963253128
9.963252124
9.963250954
9.963250238
9.963247244
9.963244944
9.963324736
9.963325796
9.963324454
9.963325276
9.963325487
9.96332604
9.963326015
9.963326071
9.963325361
9.963326489
9.963325589
9.963324488
9.963322612
9.963321287
9.96331819
9.963294004
9.963294283
9.963294213
9.963294698
9.963293178
9.963293684
9.963294262
9.963293467
9.963293633
9.963293819
9.963293849
9.963293894
9.963293833
9.963292444
9.963290977
9.963264949
9.963263327
9.963263054
9.963263824
9.963264922
9.963264358
9.9632649
9.963264713
9.963265906
9.963266312
9.963266032
9.963265938
9.963265898
9.963263432
9.963262262
9.963272083
9.963272899
9.96327371
9.963274323
9.963273622
9.96327347
9.963273306
9.963272698
9.963272261
9.963271664
9.963271539
9.963272455
9.963273364
9.963273909
9.963273003
9.963272702
9.963272898
9.963272269
9.963271817
9.963271095
9.963271675
9.963271777
9.963272275
9.963272528
9.963271849
9.963272029
9.963272112
9.963272527
9.963272555
9.963247257
9.96324819
9.963246742
9.963247374
9.963246884
9.963246085
9.963245475
9.963245549
9.963245625
9.963246186
9.963245534
9.963246442
9.96324558
9.963245887
9.963243673
9.963258516
9.963257667
9.963257018
9.963258137
9.96325784
9.963257803
9.963256524
9.963257154
9.963255615
9.963255632
9.963256026
9.963254827
9.963255347
9.963253268
9.963249366
9.963290085
9.963289969
9.963289389
9.963288909
9.963288142
9.963287695
9.963287484
9.963288627
9.963288861
9.963288039
9.963288434
9.963288903
9.963287703
9.963283629
9.963274587
9.963250963
9.963250317
9.963250337
9.963250447
9.963249487
9.963249776
9.963248279
9.963247255
9.963246897
9.963248716
9.963249432
9.963248658
9.963246712
9.963240409
9.963226902
9.963255872
9.963256786
9.963255824
9.963257613
9.963257567
9.96325847
9.96325936
9.963259861
9.963259197
9.963259471
9.963260828
9.963260408
9.963260379
9.963256164
9.96324728
9.963217254
9.963217079
9.963217994
9.963218316
9.963219341
9.963220428
9.963219408
9.963220251
9.963221282
9.963221879
9.96322217
9.963222129
9.963221566
9.963220455
9.963215862
9.963301958
9.96330222
9.963302209
9.963302416
9.96330117
9.963300337
9.963299095
9.963300119
9.963299644
9.963299039
9.963297633
9.963298915
9.963298978
9.963297847
9.963297052
9.963246505
9.96324538
9.96324511
9.963244608
9.96324539
9.963245553
9.963245358
9.963246354
9.963245426
9.963245786
9.963245532
9.963245446
9.96324508
9.96324418
9.963243783
9.963260732
9.96326026
9.963259243
9.963259449
9.963259937
9.963259267
9.963260428
9.963259501
9.963259718
9.963259608
9.963260482
9.963260559
9.963259221
9.96325687
9.963308192
9.963308718
9.963309046
9.963309837
9.963310079
9.963309172
9.963308797
9.963308163
9.963307507
9.963308141
9.96330805
9.9633076
9.963307086
9.963306119
9.963289293
9.963287969
9.963289272
9.963288806
9.963289911
9.963288477
9.963291719
9.96329188
9.963292272
9.963292699
9.963291389
9.963290575
9.963287593
9.96328362
9.963272387
9.963303065
9.963303607
9.963303055
9.963302765
9.963303126
9.96330482
9.963304866
9.963305482
9.963304513
9.963303899
9.963304231
9.963302876
9.963299543
9.963286141
9.9632583
9.963224001
9.963223741
9.963223457
9.963223557
9.963224408
9.96322529
9.963226175
9.963224161
9.963224755
9.963223978
9.9632239
9.963222084
9.96321563
9.963191466
9.963133212
9.963323489
9.963323217
9.963323069
9.963323194
9.963321671
9.9633224
9.963321517
9.963322328
9.963322202
9.963320221
9.963319334
9.963316706
9.963313532
9.963300081
9.963273007
9.963268527
9.963268396
9.963267718
9.963267211
9.963266357
9.963265762
9.963265139
9.96326565
9.9632663
9.963265855
9.963264018
9.963264546
9.963264488
9.963259589
9.963247971
9.963251376
9.963252073
9.963251049
9.963253149
9.963252947
9.963251963
9.963252511
9.963251831
9.96325289
9.963253361
9.963252128
9.963252668
9.963252612
9.963250621
9.963246361
9.963288771
9.963288281
9.963289943
9.963290212
9.963288821
9.963289014
9.96328863
9.963288682
9.963288884
9.96328906
9.963289388
9.963289327
9.963289135
9.963290101
9.963288684
9.963303241
9.963304287
9.963304106
9.9633033
9.963303411
9.963302031
9.963301695
9.963303088
9.96330314
9.963303649
9.96330381
9.963304049
9.963302551
9.963300303
9.963285876
9.963286446
9.963286219
9.963287578
9.963288579
9.963288474
9.96328882
9.963289007
9.96328969
9.963290203
9.963291255
9.963289736
9.963289194
9.963286284
9.963329092
9.963329397
9.963329089
9.963328911
9.963327779
9.963328356
9.963328025
9.963326912
9.963327235
9.963327889
9.963327557
9.963325234
9.963319164
9.963307298
9.963278
9.963277865
9.963278136
9.963277282
9.963276748
9.963276186
9.963276161
9.963276601
9.96327795
9.963277231
9.963276559
9.963273591
9.963262255
9.963221777
9.963117424
9.963283379
9.963282834
9.963282808
9.963283254
9.963284725
9.963285022
9.963285079
9.963287101
9.963285517
9.963284002
9.963284285
9.963280398
9.963257519
9.963157425
9.962829672
9.963263587
9.963263131
9.963263224
9.963262672
9.963264229
9.963264671
9.963264863
9.963264548
9.963264122
9.963265834
9.963265419
9.963264123
9.963251885
9.963211615
9.963106414
9.963289626
9.963290199
9.963289459
9.963288883
9.963289099
9.963287992
9.963289399
9.963290539
9.963289839
9.963289888
9.963290038
9.963287917
9.963283467
9.963271259
9.963242422
9.963266036
9.963264455
9.963265352
9.963265856
9.963265303
9.963266138
9.963266325
9.963266378
9.963265451
9.963263184
9.96326386
9.963263698
9.963262556
9.963259624
9.963252297
9.963262406
9.963263007
9.963262204
9.963262363
9.96326083
9.963260509
9.963260399
9.963261861
9.963260049
9.963260943
9.963260663
9.963260566
9.963260498
9.963258772
9.963257028
9.963276391
9.963277027
9.963277211
9.963276109
9.963276099
9.963276478
9.963276421
9.963276811
9.96327702
9.96327648
9.96327546
9.963275072
9.963275036
9.963272597
9.963286771
9.963286421
9.963286291
9.963286428
9.963286144
9.963285067
9.963285168
9.963285067
9.963285626
9.963285551
9.963285985
9.963285863
9.963285145
9.963279131
9.963215987
9.96321517
9.963216091
9.963216174
9.963216465
9.963216582
9.963217208
9.96321629
9.963216108
9.963214965
9.963213718
9.963212627
9.963206682
9.963183561
9.963266458
9.963266933
9.963267714
9.963268604
9.963269628
9.963268409
9.963268191
9.963268462
9.963267583
9.963266916
9.963265334
9.963260368
9.963237003
9.963138108
9.963248829
9.963248534
9.963250731
9.963251584
9.963250585
9.96324972
9.963249359
9.963248607
9.963249543
9.963250167
9.963247794
9.963237384
9.963178179
9.962802877
9.997896956
9.963261554
9.96326261
9.963261608
9.963262454
9.963262479
9.963261357
9.963260595
9.963261038
9.963260486
9.963259702
9.963257905
9.963253458
9.963229078
9.963128157
9.962800419
9.9632829
9.963282561
9.963283555
9.963282541
9.963283872
9.963284306
9.963283976
9.96328307
9.963283833
9.963284085
9.963283416
9.963280743
9.963273431
9.963249188
9.96318987
9.96329443
9.963294231
9.963294784
9.963295148
9.963294693
9.963294532
9.963296316
9.963296567
9.963296863
9.963297769
9.963297727
9.963297596
9.963295318
9.963290377
9.96327748
9.963294278
9.96329423
9.963293886
9.96329486
9.963293816
9.96329426
9.963293661
9.963293757
9.963292503
9.963292444
9.963293063
9.96329275
9.963292563
9.96328975
9.963285561
9.963304045
9.963303892
9.963305555
9.963306371
9.963305603
9.963305386
9.963305261
9.963305227
9.963305393
9.963305903
9.963306802
9.963306069
9.963304388
9.963303008
9.963299506
9.963300487
9.963300713
9.963299681
9.96330027
9.963300112
9.963300978
9.963302546
9.96330182
9.963301336
9.963300987
9.963299844
9.963299814
9.963295515
9.9633163
9.963315357
9.963313893
9.96331313
9.96331381
9.963312911
9.963313173
9.963312632
9.963312193
9.963312469
9.963311052
9.963309421
9.96330445
9.963290039
9.963292362
9.963292339
9.963293857
9.96329348
9.963292798
9.963294092
9.963294901
9.963294132
9.963295322
9.963297123
9.963297334
9.963294437
9.96328249
9.963241902
9.963261746
9.963261035
9.963260991
9.963261381
9.963260465
9.963261382
9.963261928
9.963262673
9.963262425
9.96326343
9.963261713
9.963257331
9.963234307
9.963132535
9.963301921
9.963301437
9.963302198
9.96330209
9.963303306
9.963302178
9.963302877
9.963302569
9.963302496
9.963303275
9.963304434
9.963300951
9.963288594
9.963247958
9.963286042
9.963285074
9.96328433
9.963283424
9.963283178
9.963283334
9.963282887
9.963283589
9.963283383
9.963284055
9.96328329
9.963283494
9.963278625
9.963266796
9.963238571
9.963300918
9.963301757
9.963302374
9.963304141
9.963304108
9.963303977
9.963303663
9.963303922
9.963302735
9.963302443
9.963301426
9.963300453
9.963298358
9.963294691
9.963288237
9.963290925
9.963290722
9.963290253
9.963291178
9.963291384
9.963291389
9.963291553
9.963293198
9.963293711
9.963293372
9.963293683
9.963293707
9.963291864
9.963289247
9.963286657
9.963293242
9.963294416
9.963294256
9.963293382
9.963295051
9.963295873
9.963294651
9.96329616
9.963295596
9.963294937
9.963295372
9.963295366
9.963293926
9.963292863
9.963252623
9.963252146
9.963252796
9.963252131
9.963252598
9.963252861
9.96325248
9.963251912
9.963252621
9.96325284
9.963253656
9.963252503
9.963250996
9.963249628
9.963232277
9.963232099
9.963232054
9.963231713
9.96323126
9.963230082
9.963229882
9.963230557
9.963229821
9.963232097
9.963230622
9.963229616
9.963227642
9.963223329
9.963271843
9.963271015
9.963270599
9.963270977
9.963270701
9.963270804
9.963270542
9.963271759
9.963272657
9.963272149
9.963270063
9.96326815
9.963263079
9.963251818
9.963328932
9.963328311
9.963327987
9.963327863
9.963326579
9.963326433
9.963327694
9.963326373
9.963326947
9.963325066
9.9633251
9.963323
9.963315837
9.963291237
9.963266525
9.96326719
9.963267076
9.963267833
9.963267245
9.963267487
9.963267045
9.963267977
9.963267039
9.963266344
9.963265363
9.963264216
9.963259808
9.963247162
9.963263621
9.963264518
9.963263119
9.963261802
9.963262108
9.963261162
9.963261036
9.963260902
9.963260972
9.96326034
9.963260746
9.963260617
9.963259406
9.963254133
9.963250245
9.963249634
9.963249357
9.963248408
9.963248094
9.963248428
9.963249634
9.963250203
9.963250375
9.963250044
9.96325002
9.963248421
9.963247534
9.963246221
9.963242744
9.963278445
9.963277658
9.96327896
9.963278167
9.963278055
9.96327732
9.963277769
9.963277735
9.963276533
9.963276862
9.963275843
9.963274578
9.963274527
9.963273204
9.963270765
9.963247669
9.963247167
9.963247267
9.963247078
9.963247008
9.963247749
9.963248458
9.963248725
9.963249582
9.963249525
9.963249871
9.963250837
9.963251973
9.963250727
9.963299304
9.963300202
9.963299976
9.963300843
9.963301318
9.963301375
9.963301946
9.963301892
9.963301642
9.963300838
9.963300183
9.963300735
9.963301207
9.963300096
9.963273653
9.963273635
9.963273028
9.963273638
9.963272955
9.96327469
9.963274536
9.963273638
9.963273073
9.963272392
9.963271377
9.963270919
9.963271356
9.963268724
9.963282864
9.963282857
9.96328217
9.96328289
9.96328335
9.963283767
9.963283879
9.963283814
9.963284533
9.963283851
9.963283941
9.963283207
9.963281931
9.963276612
9.963253748
9.963253614
9.9632547
9.963254114
9.963255381
9.963254001
9.963253795
9.963252203
9.963252322
9.963251457
9.963250504
9.963250428
9.963247636
9.963240567
9.96327678
9.963276302
9.963276075
9.963275189
9.963274567
9.963273662
9.963275642
9.963277294
9.963278909
9.963279336
9.963279492
9.9632786
9.96327759
9.96327545
9.963275701
9.963276301
9.963278188
9.963278189
9.963278026
9.963277281
9.963277184
9.963276839
9.963275927
9.963275507
9.963274782
9.963274828
9.963274342
9.963270993
9.963261477
9.963260136
9.963258894
9.963258348
9.96325816
9.963257784
9.963257898
9.963256733
9.963255845
9.963255096
9.963255084
9.963254427
9.963254266
9.963251636
9.963251022
9.963249781
9.963250681
9.963250046
9.963249409
9.963249304
9.96324963
9.963249483
9.963248771
9.963249981
9.963249536
9.963249269
9.96324969
9.963248841
9.96324798
9.963291895
9.96329173
9.963292327
9.963292379
9.963292604
9.963292159
9.9632922
9.96329239
9.963292107
9.963292472
9.963292235
9.963291702
9.963291365
9.963291475
9.963277257
9.963277041
9.96327745
9.963276909
9.963276283
9.963277472
9.963277036
9.963277804
9.963277333
9.963277586
9.963277023
9.963278413
9.963278856
9.963277499
9.963288484
9.963288574
9.96328878
9.963288302
9.96328868
9.963290035
9.963289308
9.96328983
9.963288018
9.96328926
9.963289466
9.963289327
9.963288575
9.963287879
9.963258476
9.963258084
9.963258392
9.963258577
9.963258196
9.963257105
9.963257786
9.963258388
9.963257838
9.963257574
9.963257382
9.963256954
9.963255305
9.963253991
9.963278008
9.963278423
9.963278633
9.963279209
9.963277996
9.963277167
9.963277817
9.963278597
9.963279446
9.963278407
9.963277094
9.963277263
9.963276967
9.963275605
9.963227069
9.963227619
9.963227938
9.963229214
9.963229561
9.963230099
9.963229647
9.963229476
9.963229044
9.963229509
9.963229016
9.96322895
9.963229092
9.963226442
9.963248407
9.963246482
9.963247776
9.963247228
9.963247451
9.963247841
9.963247176
9.963247199
9.963247459
9.963248516
9.963249037
9.9632482
9.963248516
9.963247189
9.963312049
9.963313582
9.963312494
9.963312048
9.963310779
9.963310818
9.963310258
9.963309981
9.963310574
9.963311688
9.963313189
9.963313364
9.963313404
9.963313183
9.963279606
9.963280746
9.963280456
9.963280732
9.963280483
9.963280555
9.9632802
9.963279955
9.963280327
9.963280942
9.963279144
9.963278459
9.963278929
9.963279029
)
;

boundaryField
{
    top
    {
        type            calculated;
        value           nonuniform List<scalar> 
134
(
9.963272083
9.963246505
9.963288771
9.963262406
9.963294278
9.963290925
9.963278445
9.963251022
9.963279606
9.963272899
9.96324538
9.963288281
9.963263007
9.96329423
9.963290722
9.963277658
9.963249781
9.963280746
9.96327371
9.96324511
9.963289943
9.963262204
9.963293886
9.963290253
9.96327896
9.963250681
9.963280456
9.963274323
9.963244608
9.963290212
9.963262363
9.96329486
9.963291178
9.963278167
9.963250046
9.963280732
9.963273622
9.96324539
9.963288821
9.96326083
9.963293816
9.963291384
9.963278055
9.963249409
9.963280483
9.96327347
9.963245553
9.963289014
9.963260509
9.96329426
9.963291389
9.96327732
9.963249304
9.963280555
9.963273306
9.963245358
9.96328863
9.963260399
9.963293661
9.963291553
9.963277769
9.96324963
9.9632802
9.963272698
9.963246354
9.963288682
9.963261861
9.963293757
9.963293198
9.963277735
9.963249483
9.963279955
9.963272261
9.963245426
9.963288884
9.963260049
9.963292503
9.963293711
9.963276533
9.963248771
9.963280327
9.963271664
9.963245786
9.96328906
9.963260943
9.963292444
9.963293372
9.963276862
9.963249981
9.963280942
9.963271539
9.963245532
9.963289388
9.963260663
9.963293063
9.963293683
9.963275843
9.963249536
9.963279144
9.963272455
9.963245446
9.963289327
9.963260566
9.96329275
9.963293707
9.963274578
9.963249269
9.963278459
9.963273364
9.96324508
9.963289135
9.963260498
9.963292563
9.963291864
9.963274527
9.96324969
9.963278929
9.963273909
9.96324418
9.963290101
9.963258772
9.96328975
9.963289247
9.963273204
9.963248841
9.963279029
9.963273003
9.963243783
9.963288684
9.963257028
9.963285561
9.963286657
9.963270765
9.96324798
)
;
    }
    bottom
    {
        type            calculated;
        value           nonuniform List<scalar> 
127
(
9.963276493
9.963272702
9.963260732
9.963303241
9.963276391
9.963304045
9.963293242
9.963247669
9.963291895
9.96327567
9.963272898
9.96326026
9.963304287
9.963277027
9.963303892
9.963294416
9.963247167
9.96329173
9.963274683
9.963272269
9.963259243
9.963304106
9.963277211
9.963305555
9.963294256
9.963247267
9.963292327
9.963274726
9.963271817
9.963259449
9.9633033
9.963276109
9.963306371
9.963293382
9.963247078
9.963292379
9.963275291
9.963271095
9.963259937
9.963303411
9.963276099
9.963305603
9.963295051
9.963247008
9.963292604
9.963275675
9.963271675
9.963259267
9.963302031
9.963276478
9.963305386
9.963295873
9.963247749
9.963292159
9.963274993
9.963271777
9.963260428
9.963301695
9.963276421
9.963305261
9.963294651
9.963248458
9.9632922
9.963274685
9.963272275
9.963259501
9.963303088
9.963276811
9.963305227
9.96329616
9.963248725
9.96329239
9.963274103
9.963272528
9.963259718
9.96330314
9.96327702
9.963305393
9.963295596
9.963249582
9.963292107
9.963274336
9.963271849
9.963259608
9.963303649
9.96327648
9.963305903
9.963294937
9.963249525
9.963292472
9.96327408
9.963272029
9.963260482
9.96330381
9.96327546
9.963306802
9.963295372
9.963249871
9.963292235
9.963273488
9.963272112
9.963260559
9.963304049
9.963275072
9.963306069
9.963295366
9.963250837
9.963291702
9.96327396
9.963272527
9.963259221
9.963302551
9.963275036
9.963304388
9.963293926
9.963251973
9.963291365
9.963274403
9.963272555
9.96325687
9.963300303
9.963272597
9.963303008
9.963292863
9.963250727
9.963291475
9.963273583
)
;
    }
    side-walls
    {
        type            calculated;
        value           nonuniform List<scalar> 
261
(
9.963276493
9.963260655
9.963282762
9.96323904
9.963255087
9.963324736
9.963294004
9.963264949
9.963272083
9.96327567
9.963261668
9.963283166
9.963239087
9.963254744
9.963325796
9.963294283
9.963263327
9.963272899
9.963274683
9.963261055
9.963283385
9.963239746
9.963255116
9.963324454
9.963294213
9.963263054
9.96327371
9.963274726
9.963262076
9.963283881
9.963238794
9.963254024
9.963325276
9.963294698
9.963263824
9.963274323
9.963275291
9.963261974
9.963284078
9.963241188
9.963255213
9.963325487
9.963293178
9.963264922
9.963273622
9.963275675
9.96326255
9.963283737
9.963241988
9.963253708
9.96332604
9.963293684
9.963264358
9.96327347
9.963274993
9.963262607
9.963283126
9.963241688
9.963252847
9.963326015
9.963294262
9.9632649
9.963273306
9.963274685
9.963262181
9.963281964
9.96324254
9.963253423
9.963326071
9.963293467
9.963264713
9.963272698
9.963274103
9.963260276
9.96328213
9.96324238
9.963253116
9.963325361
9.963293633
9.963265906
9.963272261
9.963274336
9.963260178
9.963281576
9.963242954
9.963253128
9.963326489
9.963293819
9.963266312
9.963271664
9.96327408
9.963260564
9.963282601
9.963242565
9.963252124
9.963325589
9.963293849
9.963266032
9.963271539
9.963273488
9.963262188
9.963280144
9.963242756
9.963250954
9.963324488
9.963293894
9.963265938
9.963272455
9.96327396
9.963260228
9.96328041
9.963241886
9.963250238
9.963322612
9.963293833
9.963265898
9.963273364
9.963274403
9.963258839
9.963279782
9.96324099
9.963247244
9.963321287
9.963292444
9.963263432
9.963273909
9.963273583
9.963258474
9.963279405
9.963236746
9.963244944
9.96331819
9.963290977
9.963262262
9.963273003
9.963291895
9.963277257
9.963288484
9.963258476
9.963278008
9.963227069
9.963248407
9.963312049
9.963279606
9.96329173
9.963277041
9.963288574
9.963258084
9.963278423
9.963227619
9.963246482
9.963313582
9.963280746
9.963292327
9.96327745
9.96328878
9.963258392
9.963278633
9.963227938
9.963247776
9.963312494
9.963280456
9.963292379
9.963276909
9.963288302
9.963258577
9.963279209
9.963229214
9.963247228
9.963312048
9.963280732
9.963292604
9.963276283
9.96328868
9.963258196
9.963277996
9.963229561
9.963247451
9.963310779
9.963280483
9.963292159
9.963277472
9.963290035
9.963257105
9.963277167
9.963230099
9.963247841
9.963310818
9.963280555
9.9632922
9.963277036
9.963289308
9.963257786
9.963277817
9.963229647
9.963247176
9.963310258
9.9632802
9.96329239
9.963277804
9.96328983
9.963258388
9.963278597
9.963229476
9.963247199
9.963309981
9.963279955
9.963292107
9.963277333
9.963288018
9.963257838
9.963279446
9.963229044
9.963247459
9.963310574
9.963280327
9.963292472
9.963277586
9.96328926
9.963257574
9.963278407
9.963229509
9.963248516
9.963311688
9.963280942
9.963292235
9.963277023
9.963289466
9.963257382
9.963277094
9.963229016
9.963249037
9.963313189
9.963279144
9.963291702
9.963278413
9.963289327
9.963256954
9.963277263
9.96322895
9.9632482
9.963313364
9.963278459
9.963291365
9.963278856
9.963288575
9.963255305
9.963276967
9.963229092
9.963248516
9.963313404
9.963278929
9.963291475
9.963277499
9.963287879
9.963253991
9.963275605
9.963226442
9.963247189
9.963313183
9.963279029
)
;
    }
    inlet
    {
        type            calculated;
        value           nonuniform List<scalar> 
81
(
9.963276493
9.963260655
9.963282762
9.96323904
9.963255087
9.963324736
9.963294004
9.963264949
9.963272083
9.963272702
9.963247257
9.963258516
9.963290085
9.963250963
9.963255872
9.963217254
9.963301958
9.963246505
9.963260732
9.963308192
9.963289293
9.963303065
9.963224001
9.963323489
9.963268527
9.963251376
9.963288771
9.963303241
9.963285876
9.963329092
9.963278
9.963283379
9.963263587
9.963289626
9.963266036
9.963262406
9.963276391
9.963286771
9.963215987
9.963266458
9.963248829
9.963261554
9.9632829
9.96329443
9.963294278
9.963304045
9.963299506
9.9633163
9.963292362
9.963261746
9.963301921
9.963286042
9.963300918
9.963290925
9.963293242
9.963252623
9.963232277
9.963271843
9.963328932
9.963266525
9.963263621
9.963250245
9.963278445
9.963247669
9.963299304
9.963273653
9.963282864
9.963253748
9.96327678
9.963275701
9.963261477
9.963251022
9.963291895
9.963277257
9.963288484
9.963258476
9.963278008
9.963227069
9.963248407
9.963312049
9.963279606
)
;
    }
    outlet
    {
        type            calculated;
        value           nonuniform 0();
    }
    procBoundary0to1
    {
        type            processor;
        value           nonuniform List<scalar> 
97
(
9.963273062
9.963272451
9.963257318
9.963278324
9.963232228
9.96324034
9.96331267
9.963288892
9.963260886
9.963271625
9.963272451
9.963272451
9.963240985
9.963303749
9.963243009
9.963264249
9.963211859
9.963237521
9.963210563
9.963293806
9.963243042
9.963254798
9.963303749
9.963303749
9.963259012
9.963280117
9.963228631
9.963088888
9.963241696
9.963234316
9.963240142
9.963285782
9.963296995
9.963278266
9.963280117
9.963280117
9.963046026
9.962810837
9.962776841
9.963036531
9.963212181
9.963241197
9.963252688
9.963268788
9.96326852
9.96312439
9.962810837
9.962810837
9.999143296
9.962806942
9.962748554
9.96314364
9.963144509
9.963264057
9.963280759
9.963299519
9.963287392
9.963263081
9.963137266
9.962806942
9.96314364
9.96314364
9.963208711
9.963243837
9.96327639
9.963283605
9.963292325
9.963245642
9.963212254
9.963225289
9.963232922
9.963218977
9.963243837
9.963243837
9.963236881
9.963249469
9.96326718
9.963251452
9.963298455
9.963265681
9.963269065
9.963227483
9.963268042
9.963266561
9.963249469
9.963249469
9.963245864
9.96327915
9.96329113
9.963276575
9.963284876
9.963250408
9.963271017
9.963223992
9.963246349
9.963312522
9.96327915
)
;
    }
}


// ************************************************************************* //
