/*--------------------------------*- C++ -*----------------------------------*\
| =========                 |                                                 |
| \\      /  F ield         | OpenFOAM: The Open Source CFD Toolbox           |
|  \\    /   O peration     | Version:  4.x                                   |
|   \\  /    A nd           | Web:      www.OpenFOAM.org                      |
|    \\/     M anipulation  |                                                 |
\*---------------------------------------------------------------------------*/
FoamFile
{
    version     2.0;
    format      ascii;
    class       surfaceScalarField;
    location    "7000";
    object      phi;
}
// * * * * * * * * * * * * * * * * * * * * * * * * * * * * * * * * * * * * * //

dimensions      [1 0 -1 0 0 0 0];

internalField   nonuniform List<scalar> 
3175
(
9.428247055e-06
9.950663829e-14
2.562031632e-13
9.42824715e-06
6.613634582e-13
-2.897075295e-13
9.42824647e-06
8.068033834e-13
3.32517055e-13
9.428244018e-06
2.819078302e-13
1.099852842e-12
9.428247125e-06
-5.158705316e-13
2.003792941e-12
9.428247134e-06
4.523849377e-13
1.99901018e-14
9.428248293e-06
-5.557692636e-13
-1.062451532e-12
9.428253329e-06
2.28936233e-13
-5.834600181e-13
9.428257536e-06
-1.490443104e-12
-2.470506529e-12
9.428268575e-06
-1.621236687e-12
-2.551735868e-12
9.428282712e-06
-5.977350606e-12
-6.024426865e-12
9.428299882e-06
-9.921069723e-12
-8.327908237e-12
9.428331944e-06
-1.584796276e-11
-1.436833618e-11
9.428363238e-06
-1.580083852e-11
-1.394112401e-11
-3.408096847e-11
9.428231743e-06
8.133151e-13
5.679969052e-13
9.428233309e-06
-2.375079631e-13
5.2442463e-13
9.428233289e-06
-9.36481095e-13
-1.141803594e-12
9.42823079e-06
-1.027001937e-12
-1.037484359e-13
9.428233855e-06
-8.720004065e-13
1.174658127e-12
9.428233373e-06
-1.685769212e-12
4.60060241e-13
9.428236337e-06
-7.606471462e-14
-1.689456218e-12
9.428238141e-06
-4.227238588e-13
-1.057024805e-12
9.428242358e-06
-3.713486885e-12
-2.685706264e-12
9.428250942e-06
-5.261365618e-12
-3.039765838e-12
9.42826341e-06
-1.072294441e-11
-5.640229517e-12
9.428284151e-06
-1.568784541e-11
-1.028925839e-11
9.428315437e-06
-2.716359904e-11
-1.788009554e-11
9.428345689e-06
-2.780224017e-11
-1.837972736e-11
-6.493571175e-11
-5.160456153e-11
9.428252527e-06
2.535243185e-13
-5.582167022e-13
9.428252527e-06
1.527211081e-13
-6.437394014e-13
9.428253121e-06
3.157250927e-13
-1.322148792e-13
9.428251946e-06
-1.931881426e-12
1.299901995e-12
9.428254045e-06
-1.810506261e-12
2.162141072e-12
9.428254379e-06
-1.113675675e-12
-3.178542192e-13
9.428252838e-06
-3.601233282e-13
-2.926146197e-12
9.428252346e-06
-2.926976354e-12
-4.68677444e-12
9.428259054e-06
-3.533759748e-12
-2.773393718e-12
9.428264456e-06
-5.76034879e-12
-6.585540129e-12
9.428272114e-06
-8.086356827e-12
-8.711276839e-12
9.428288152e-06
-1.684534794e-11
-1.967090869e-11
9.428319475e-06
-2.65037161e-11
-3.106551439e-11
9.428354047e-06
-3.007008554e-11
-3.601010166e-11
-7.959919233e-11
-1.109725875e-10
9.428210707e-06
-1.602151285e-12
-7.503054501e-13
9.42821157e-06
-1.260798154e-12
1.890476832e-13
9.428209792e-06
-8.33048814e-13
-8.206340524e-13
9.428211227e-06
-8.363653117e-13
-2.126340563e-14
9.428213878e-06
-5.871304353e-14
1.094480051e-12
9.428214639e-06
-3.26324223e-13
-1.572828073e-12
9.428212482e-06
-2.544464831e-12
-3.637435552e-12
9.428217159e-06
-3.508453293e-12
-2.503601087e-12
9.428218995e-06
-2.555390182e-12
-4.365876385e-12
9.428223939e-06
-3.517021184e-12
-7.347035843e-12
9.42823035e-06
-6.285156135e-12
-9.530687209e-12
9.428250198e-06
-1.351607119e-11
-2.158574952e-11
9.428276352e-06
-2.413561094e-11
-3.078774142e-11
9.42831942e-06
-3.451209965e-11
-4.017472784e-11
-7.423620115e-11
-1.626822643e-10
9.428225746e-06
-3.115686424e-14
2.828888323e-13
9.428224526e-06
-3.361802374e-13
-8.517205601e-13
9.428224148e-06
-9.598800826e-13
-5.164010907e-13
9.428225243e-06
-3.781722364e-13
-2.700370767e-13
9.428224957e-06
2.389420336e-13
-5.576225307e-13
9.42822326e-06
-1.514516316e-12
-2.117090541e-12
9.428222619e-06
-4.940397887e-13
-2.385764373e-12
9.428225645e-06
1.248088724e-12
-3.435240532e-12
9.428224022e-06
3.190714994e-12
-4.967357802e-12
9.428224183e-06
5.206774138e-12
-1.056174471e-11
9.428221883e-06
9.17080481e-12
-1.404100573e-11
9.428233652e-06
1.583242195e-11
-3.996079354e-11
9.428239592e-06
2.460610873e-11
-6.072131176e-11
9.428294339e-06
3.543173187e-11
-1.193255507e-10
7.496777768e-11
-4.101675606e-10
9.428293822e-06
-1.538821619e-12
5.921593474e-13
9.428291425e-06
-3.09334995e-12
-1.41309184e-13
9.428290568e-06
-1.983162649e-12
-1.024462266e-12
9.428292946e-06
-3.503706865e-13
2.463165716e-13
9.428291707e-06
3.270598551e-13
-8.054789411e-13
9.428293662e-06
5.788286065e-13
-1.421402673e-12
9.428293281e-06
1.25055993e-13
-1.589054967e-12
9.428296769e-06
3.535043712e-12
-7.512806295e-13
9.428297556e-06
4.030361123e-12
-2.589375608e-12
9.42830151e-06
7.265093317e-12
-6.796967224e-12
9.428308377e-06
9.319818659e-12
-9.535232607e-12
9.428326365e-06
1.614079559e-11
-2.119445272e-11
9.428352247e-06
2.79924512e-11
-2.755534655e-11
9.428395428e-06
3.067744598e-11
-3.808035544e-11
7.853655546e-11
-1.616619051e-10
9.428263125e-06
1.150115095e-12
4.988145723e-13
9.428264486e-06
5.231013903e-13
1.575349922e-12
9.428263972e-06
9.365905894e-14
4.914369371e-13
9.428263317e-06
2.333218306e-13
1.608925237e-12
9.428263324e-06
2.120984747e-12
1.357172781e-12
9.42826341e-06
2.556493189e-12
-1.699482969e-13
9.428268205e-06
3.657034351e-12
-1.030915163e-12
9.428265582e-06
2.586842407e-12
-4.77126511e-12
9.428271988e-06
4.661560672e-12
-3.316063669e-12
9.428273983e-06
6.64518057e-12
-7.418917126e-12
9.428281941e-06
1.128658506e-11
-7.992814599e-12
9.428299289e-06
1.759842649e-11
-1.856119101e-11
9.428328362e-06
2.771957266e-11
-3.078736619e-11
9.428364077e-06
2.867841631e-11
-3.439265133e-11
6.643667952e-11
-1.092079838e-10
9.42823312e-06
-4.290031617e-13
-8.534949089e-13
9.42823537e-06
3.117034626e-13
1.771033458e-12
9.428234866e-06
-5.252472958e-13
1.490669726e-12
9.428237453e-06
-8.959036759e-13
-3.921830979e-13
9.428235804e-06
-4.961662515e-13
-3.878157095e-13
9.428236869e-06
-8.108617996e-13
-2.268379228e-12
9.428238348e-06
3.21381851e-13
-2.214747066e-12
9.428243356e-06
1.594333275e-12
-1.917143657e-12
9.428248615e-06
2.866273937e-12
-2.834816238e-12
9.42825611e-06
5.170183863e-12
-5.788148291e-12
9.428265488e-06
6.907224507e-12
-7.935565202e-12
9.428284522e-06
7.55975802e-12
-1.26896127e-11
9.428316312e-06
1.33698164e-11
-2.118467411e-11
9.428347457e-06
1.419108668e-11
-1.957419374e-11
3.323041518e-11
-5.119786754e-11
9.428241245e-06
-5.190726663e-14
9.428241867e-06
1.031964533e-13
9.428244423e-06
-7.571954516e-13
9.428245758e-06
4.326848171e-14
9.428245172e-06
5.487891416e-13
9.428246049e-06
-1.318050813e-12
9.428247909e-06
-1.134995681e-12
9.42825145e-06
-2.465685782e-12
9.428257979e-06
-3.149760104e-12
9.428264857e-06
-3.657043449e-12
9.428274161e-06
-6.701801496e-12
9.428295577e-06
-7.877421736e-12
9.428330879e-06
-1.602078711e-11
9.428361352e-06
-1.631089684e-11
-3.314714018e-11
9.42824309e-06
3.078275172e-13
1.670494321e-12
9.428245773e-06
2.268420538e-12
1.261194423e-12
9.428241906e-06
-1.671970008e-13
-3.369093283e-13
9.428241105e-06
4.502939494e-14
2.669602318e-13
9.428241816e-06
-4.884445723e-13
1.532406738e-13
9.428243493e-06
7.732696104e-13
2.369232132e-13
9.42824538e-06
-6.822722315e-13
6.448299435e-13
9.428249896e-06
-6.843380249e-13
-3.090509726e-13
9.428254925e-06
-2.901726301e-12
-2.757542023e-12
9.428260901e-06
-4.578848574e-12
-5.294884445e-12
9.428275908e-06
-6.305059612e-12
-8.462417765e-12
9.428293876e-06
-1.178395103e-11
-1.671914901e-11
9.428326692e-06
-1.870746997e-11
-2.587640398e-11
-1.950372857e-11
-2.743452419e-11
9.428220159e-06
-8.014033172e-14
1.754887294e-13
9.42821898e-06
-7.526009555e-13
7.360579453e-13
9.428219409e-06
-1.183089281e-13
-3.90861814e-14
9.428217664e-06
-7.436398398e-14
-4.845576721e-13
9.428219458e-06
5.964455417e-13
-1.521865732e-12
9.428216804e-06
-1.051439423e-12
-9.685081094e-13
9.428218377e-06
-2.190628222e-12
4.509336584e-13
9.428221925e-06
-3.370668296e-12
-1.685607371e-12
9.42822744e-06
-3.206243682e-12
-3.327355557e-12
9.428233783e-06
-6.746346484e-12
-7.463708786e-12
9.428243749e-06
-1.234122485e-11
-1.151616958e-11
9.428265232e-06
-2.137068772e-11
-2.051842708e-11
9.428294634e-06
-3.556490861e-11
-3.377069374e-11
9.428332297e-06
-3.728589309e-11
-3.625054149e-11
-1.03533676e-10
9.428229429e-06
4.983126134e-14
8.548877919e-14
9.42822912e-06
5.066637521e-13
1.884794408e-13
9.428228145e-06
-1.056027312e-12
-1.311662208e-14
9.428227958e-06
-1.711544027e-12
-4.266154813e-13
9.428228205e-06
-2.144288556e-12
-2.449245068e-12
9.428227169e-06
-2.335363115e-12
-1.159908967e-12
9.428228725e-06
-7.999198139e-13
-6.486354313e-13
9.428230217e-06
-1.190857817e-12
-1.806633166e-12
9.428230977e-06
-5.027104978e-12
-5.53231555e-12
9.42823415e-06
-8.296357823e-12
-1.245318802e-11
9.428240629e-06
-1.138668534e-11
-1.545067289e-11
9.428257396e-06
-2.102817039e-11
-3.387994335e-11
9.428283369e-06
-3.354147902e-11
-5.204764668e-11
9.428329586e-06
-4.349295542e-11
-7.558070682e-11
-1.47681394e-10
-2.465650106e-10
9.428257973e-06
-5.509384215e-13
3.935408254e-13
9.428257187e-06
-3.594023904e-13
5.646288359e-13
9.428258093e-06
-2.267866966e-13
-4.821331742e-13
9.428257086e-06
-1.08008695e-12
-1.208855272e-12
9.428255527e-06
-8.919182177e-13
-1.845797625e-12
9.428255798e-06
-5.331373158e-13
-1.501739784e-12
9.42825718e-06
-8.841743126e-13
-2.101103816e-12
9.428256444e-06
-2.973987511e-12
-5.817467965e-12
9.428259615e-06
-2.608575469e-12
-6.279078796e-12
9.428262594e-06
-5.316372113e-12
-1.272692891e-11
9.428268727e-06
-8.299598015e-12
-1.302211519e-11
9.428290983e-06
-2.128233608e-11
-4.211067273e-11
9.428313212e-06
-3.48961533e-11
-4.233943594e-11
9.42838119e-06
-5.844656862e-11
-9.591429185e-11
-1.45113534e-10
-3.783754962e-10
9.428221865e-06
2.170163526e-13
7.882811296e-13
9.428221732e-06
-3.915528681e-13
6.567748104e-13
9.428220517e-06
-1.124649447e-12
-5.357460117e-13
9.428218297e-06
9.059743461e-14
-1.196460805e-12
9.428220033e-06
-5.558488797e-13
-1.046037403e-12
9.428219303e-06
-1.116654217e-12
-1.516576642e-12
9.428217271e-06
-4.684268117e-13
-2.599214891e-12
9.428214475e-06
3.462930747e-12
-5.393838786e-12
9.428214526e-06
4.325170501e-12
-8.015023762e-12
9.428212121e-06
7.258553209e-12
-2.015030204e-11
9.428201088e-06
9.713397516e-12
-2.491408824e-11
9.428206283e-06
2.203610708e-11
-8.483114517e-11
9.42818206e-06
3.713767689e-11
-1.091374687e-10
9.428287876e-06
5.968790096e-11
-3.457734017e-10
1.444927222e-10
-1.149045998e-09
9.428226961e-06
-1.017538349e-12
1.171511822e-13
9.428226202e-06
-1.724161739e-12
1.011776708e-12
9.428228151e-06
-1.627322193e-13
4.687249256e-13
9.428226873e-06
2.558080635e-13
-1.55973918e-12
9.428228937e-06
1.611117949e-12
-3.230741742e-13
9.42822943e-06
1.808355074e-12
6.206371052e-13
9.428231999e-06
1.359657311e-12
-6.900969881e-13
9.428229963e-06
3.81669915e-13
-5.021120708e-12
9.428230159e-06
2.918574202e-12
-6.029188011e-12
9.428232676e-06
5.96977022e-12
-1.444915796e-11
9.428240809e-06
1.19902235e-11
-1.484903426e-11
9.428264163e-06
2.084789912e-11
-4.310201345e-11
9.428284095e-06
3.272252925e-11
-4.465546666e-11
9.428354269e-06
4.312618669e-11
-9.632975889e-11
1.466676162e-10
-3.771518076e-10
9.428190068e-06
-8.398320858e-13
-1.828216658e-13
9.428191384e-06
5.595241898e-13
3.53120864e-13
9.428191945e-06
-6.254119735e-14
-7.769276451e-13
9.428191031e-06
-9.34498047e-13
-1.819281003e-12
9.428191867e-06
3.074668516e-13
-1.717208026e-12
9.42819214e-06
7.046276371e-13
-9.488215275e-13
9.428194593e-06
1.896565102e-12
-1.691619843e-12
9.428196815e-06
3.677451188e-12
-2.875269098e-12
9.428197297e-06
5.003600858e-12
-5.293087489e-12
9.428204403e-06
8.725047538e-12
-1.069679525e-11
9.428205169e-06
1.177348393e-11
-1.697558757e-11
9.428224659e-06
2.139430612e-11
-3.551616539e-11
9.42824823e-06
3.363723671e-11
-5.424287076e-11
9.428295566e-06
3.573218912e-11
-7.74302788e-11
1.041611749e-10
-2.462466844e-10
9.428270313e-06
-9.963581349e-14
-1.169534938e-13
9.428270313e-06
-4.494716946e-14
1.333102301e-13
9.428269733e-06
-1.472498804e-12
-1.046120953e-12
9.428271778e-06
-3.673566503e-13
-3.881626287e-13
9.428269875e-06
2.014071981e-13
-1.010697394e-12
9.428270881e-06
1.004332058e-12
-7.76527574e-13
9.428269375e-06
1.738354003e-13
-3.421445345e-12
9.428272458e-06
8.381427978e-13
-4.481163968e-12
9.428276479e-06
2.804516385e-12
-5.90366082e-12
9.428284863e-06
5.778308306e-12
-8.25799741e-12
9.428291867e-06
7.094465201e-12
-1.3250223e-11
9.428311896e-06
1.153570701e-11
-2.211629087e-11
9.428343152e-06
1.912144516e-11
-3.472856614e-11
9.428380946e-06
1.808246151e-11
-3.68148347e-11
5.166548554e-11
-1.05553546e-10
9.42821766e-06
-1.285534662e-12
9.428217288e-06
5.002019621e-15
9.428216832e-06
6.186856465e-13
9.428218443e-06
1.506657606e-12
9.428215899e-06
-3.057196599e-13
9.428218398e-06
-7.521182034e-13
9.428221098e-06
-2.234155851e-12
9.428225909e-06
-2.091814913e-12
9.428228925e-06
-4.591574522e-12
9.428236056e-06
-7.899870519e-12
9.428245983e-06
-1.209512339e-11
9.428265649e-06
-1.740871521e-11
9.428298267e-06
-2.759707504e-11
9.42833156e-06
-2.924197363e-11
-6.682751878e-11
9.428231194e-06
-4.159360347e-13
9.177087499e-13
9.428230293e-06
5.290478793e-13
4.794770341e-13
9.428229609e-06
4.263743131e-14
-5.172928647e-13
9.42822988e-06
-3.231480949e-13
3.139738997e-13
9.428229542e-06
-1.147883105e-12
-6.498472218e-13
9.428231868e-06
4.613877494e-13
-5.309857684e-13
9.428232019e-06
-4.851773657e-13
-1.257281931e-12
9.428234389e-06
-2.258446578e-12
-3.010327682e-12
9.428238038e-06
-3.235565964e-12
-4.312310086e-12
9.428243772e-06
-7.582826731e-12
-6.615209292e-12
9.428251631e-06
-9.805042732e-12
-9.675462087e-12
9.428268187e-06
-1.7972882e-11
-1.584306815e-11
9.428296607e-06
-3.119901461e-11
-2.722502007e-11
-3.592115088e-11
-3.006991212e-11
9.428276897e-06
-5.559130295e-13
-4.194417864e-13
9.428276006e-06
-1.497650745e-12
1.599356725e-12
9.428278207e-06
6.148278352e-14
2.169232231e-12
9.428275308e-06
-6.296372743e-13
7.325261444e-15
9.428278873e-06
-1.073089742e-12
3.264002228e-13
9.428277556e-06
-2.002532757e-12
-2.157176741e-12
9.42827542e-06
-4.016241873e-12
-2.890307183e-12
9.428277664e-06
-3.691929917e-12
-2.219364167e-12
9.428279205e-06
-5.29294297e-12
-3.671045707e-12
9.428283997e-06
-1.095433217e-11
-7.776052565e-12
9.428288555e-06
-1.487292263e-11
-1.071943904e-11
9.428305742e-06
-3.367241234e-11
-2.125214929e-11
9.42832925e-06
-5.435791436e-11
-3.337682519e-11
-7.69390241e-11
-4.347023777e-11
9.428258658e-06
3.731782666e-14
-3.213639447e-13
9.42825843e-06
-3.580751481e-13
6.242095888e-13
9.428257343e-06
-1.361193066e-12
5.138558288e-13
9.428256661e-06
-2.310730342e-12
-8.011706853e-13
9.428258993e-06
-1.77748093e-12
-7.205454336e-13
9.428255927e-06
-2.122874823e-12
-1.985626356e-12
9.428258825e-06
-2.731527623e-12
-2.150178836e-12
9.42825669e-06
-4.912726647e-12
-2.409261103e-12
9.428257367e-06
-5.484803492e-12
-4.81541675e-12
9.428257527e-06
-9.831301418e-12
-1.012145177e-11
9.428252195e-06
-1.284862019e-11
-1.243588646e-11
9.428260625e-06
-3.868124516e-11
-3.699185807e-11
9.428263365e-06
-5.335217405e-11
-5.198195447e-11
9.428338083e-06
-1.137556213e-10
-1.124258912e-10
-4.130964829e-10
9.428272012e-06
1.805593976e-13
-3.144455033e-13
9.428271604e-06
1.964761706e-13
1.340485758e-13
9.428271414e-06
-5.813961052e-13
4.36142996e-13
9.428270244e-06
-9.700972901e-13
1.935487358e-13
9.428272166e-06
-1.327797941e-12
1.273010634e-13
9.42826983e-06
-1.903363315e-12
-1.63939138e-12
9.428268396e-06
-1.202691199e-12
-1.973282987e-12
9.428267925e-06
-2.413321403e-12
-2.077437931e-12
9.428267204e-06
-4.185356936e-12
-2.943095022e-12
9.428265176e-06
-9.730123377e-12
-1.334659017e-11
9.428260414e-06
-1.5666622e-11
-9.755225893e-12
9.428275144e-06
-4.244963669e-11
-5.074815055e-11
9.428272244e-06
-7.032246144e-11
-2.319384782e-11
9.428409279e-06
-1.612900975e-10
-1.835290297e-10
-4.329570519e-10
-7.591691053e-10
9.42819721e-06
-1.364060986e-12
2.195037082e-14
9.42819562e-06
-6.151786397e-13
6.529243619e-13
9.428196224e-06
-6.747917903e-13
1.498984567e-12
9.428195992e-06
-2.718454461e-13
2.829724506e-13
9.428197058e-06
4.090517421e-13
-5.871746003e-13
9.428195927e-06
8.348489402e-13
-1.695291308e-12
9.428191092e-06
8.009031107e-13
-2.848852837e-12
9.428187412e-06
2.03521783e-12
-5.045058761e-12
9.428181124e-06
4.032581963e-12
-5.178088651e-12
9.428164526e-06
1.030270724e-11
-2.15588357e-11
9.428130956e-06
1.531902252e-11
-2.17376728e-11
9.428090327e-06
4.080704487e-11
-1.252853717e-10
9.427956624e-06
7.015190254e-11
-1.162805479e-10
9.428164825e-06
1.630260416e-10
-8.735083665e-10
4.343896526e-10
-3.081359537e-09
9.428291069e-06
-9.642160062e-13
-1.263987099e-12
9.428288443e-06
-1.967308304e-12
5.859549887e-13
9.428289073e-06
-9.804092255e-13
1.229230607e-12
9.428288966e-06
-4.427275668e-13
-1.441607491e-14
9.428290785e-06
-3.103337125e-13
5.801925332e-13
9.428288816e-06
4.955260581e-13
-1.297788199e-12
9.428284889e-06
9.698436225e-13
-1.339470298e-12
9.428284761e-06
4.563080302e-12
-3.867631546e-12
9.428283431e-06
5.014259014e-12
-4.306585107e-12
9.428276745e-06
1.089287809e-11
-1.400399818e-11
9.428273643e-06
1.449212874e-11
-1.022758459e-11
9.428288795e-06
3.699239739e-11
-5.112136925e-11
9.428287359e-06
5.264356424e-11
-2.347158604e-11
9.42842234e-06
1.118484493e-10
-1.857493119e-10
4.13991529e-10
-7.603333752e-10
9.428237909e-06
-1.122955126e-12
8.413259376e-13
9.428238173e-06
-1.082596358e-13
1.643393499e-12
9.428238417e-06
3.564176361e-13
2.374645939e-12
9.428238559e-06
2.262387101e-13
1.335864516e-12
9.428237857e-06
1.436693826e-12
4.984289412e-13
9.428234045e-06
1.349774985e-12
-1.206439245e-12
9.428235604e-06
9.20733465e-13
-2.467108161e-12
9.428235428e-06
1.944266202e-12
-3.45132875e-12
9.428234895e-06
4.973952185e-12
-3.802671587e-12
9.428232991e-06
1.096673698e-11
-1.100277653e-11
9.428226627e-06
1.564141917e-11
-1.409356456e-11
9.428238002e-06
3.482532959e-11
-3.695399024e-11
9.428240513e-06
5.283075913e-11
-5.285921092e-11
9.428314673e-06
7.545913702e-11
-1.123297021e-10
2.456138667e-10
-4.142492417e-10
9.428222927e-06
-1.062335594e-12
1.340614038e-12
9.428222625e-06
-5.302474156e-13
1.127091591e-12
9.428222796e-06
6.409331541e-14
4.416279684e-13
9.428223887e-06
5.203685076e-13
9.257168646e-13
9.42822322e-06
7.159746796e-13
2.193110504e-13
9.42822234e-06
5.836416692e-13
-1.349920181e-12
9.428224126e-06
8.73684648e-13
-1.125053163e-12
9.428226516e-06
3.456658962e-12
-2.253095501e-12
9.428228914e-06
4.174125042e-12
-3.984304291e-12
9.428232096e-06
6.345520447e-12
-7.967619348e-12
9.428235199e-06
8.01235957e-12
-1.125220879e-11
9.428255641e-06
1.828613272e-11
-2.058301138e-11
9.428278147e-06
2.98840285e-11
-3.263640685e-11
9.428325013e-06
3.457667944e-11
-4.444995342e-11
1.108083607e-10
-1.47022368e-10
9.428259385e-06
7.190519948e-13
9.428259387e-06
6.699533229e-14
9.428259364e-06
-5.966216925e-13
9.428259965e-06
-6.468335284e-13
9.428257863e-06
-1.007728008e-13
9.42825723e-06
1.037678992e-13
9.428260327e-06
-1.562703114e-13
9.428263355e-06
-1.148072706e-12
9.42826605e-06
-3.296045813e-12
9.4282708e-06
-6.097298601e-12
9.428277878e-06
-9.163663851e-12
9.428295383e-06
-1.626708497e-11
9.428325849e-06
-2.575732202e-11
9.428362024e-06
-2.8981337e-11
-7.897403575e-11
9.428271428e-06
-1.416905137e-12
-8.640499546e-13
9.428271302e-06
5.912506935e-14
-3.065571719e-13
9.428273169e-06
1.306867484e-12
5.215297782e-13
9.428269902e-06
-2.356892594e-14
-9.201645814e-13
9.428273296e-06
5.635173275e-13
6.326234574e-13
9.428272646e-06
-4.387752462e-13
5.536167029e-13
9.42827155e-06
-2.065569175e-12
-1.625739831e-12
9.428275302e-06
-1.16965724e-12
-1.261784427e-12
9.428276561e-06
-3.289028302e-12
-9.034475258e-13
9.428282311e-06
-7.749031827e-12
-4.45636728e-12
9.428288719e-06
-1.019067366e-11
-8.218830584e-12
9.428309094e-06
-2.069141661e-11
-1.304675548e-11
9.428332729e-06
-2.850972132e-11
-2.642288914e-11
-3.941133781e-11
-3.53452551e-11
9.428257213e-06
-4.614064358e-13
-1.429715913e-12
9.428256025e-06
-1.820544717e-12
-9.518061576e-13
9.428254421e-06
-1.551668562e-12
-5.070327116e-13
9.42825584e-06
-2.078097374e-12
2.573659358e-13
9.428257476e-06
-2.725098423e-12
2.60103273e-13
9.428257152e-06
-1.476251831e-12
4.733411869e-13
9.428257588e-06
-2.531063156e-12
-1.321283261e-12
9.428258778e-06
-3.766625792e-12
-2.909438322e-12
9.42825941e-06
-5.989790537e-12
-2.485504036e-12
9.42826483e-06
-1.240924324e-11
-5.358689005e-12
9.428270464e-06
-1.223683198e-11
-8.36171168e-12
9.428291551e-06
-4.027306356e-11
-2.038089228e-11
9.428311357e-06
-4.453127099e-11
-3.815684947e-11
-9.628111529e-11
-5.966905262e-11
9.428296086e-06
-1.394679232e-13
-1.996448824e-12
9.428296642e-06
-2.817551271e-13
-2.214903599e-13
9.42829305e-06
-1.050557264e-12
-8.973281519e-14
9.428293169e-06
7.8525502e-14
7.706179956e-13
9.428295584e-06
2.44666773e-13
9.179319205e-13
9.428293123e-06
-2.207922499e-12
3.493346262e-13
9.428292365e-06
-1.886628746e-12
-1.611028559e-12
9.42828742e-06
-5.63982399e-12
-4.884687495e-12
9.428287458e-06
-4.364456278e-12
-4.890271467e-12
9.428287579e-06
-1.328526064e-11
-7.825888088e-12
9.428282807e-06
-9.800237541e-12
-1.456895271e-11
9.428293994e-06
-5.230437213e-11
-4.165810036e-11
9.428290962e-06
-2.396059696e-11
-7.025592915e-11
-1.842366438e-10
-1.610703119e-10
9.428248899e-06
5.92975578e-13
-1.403812383e-12
9.42824671e-06
1.013595677e-12
-8.166308006e-13
9.428245718e-06
-4.894184514e-13
-8.77866528e-14
9.428244657e-06
-1.230448791e-12
-7.283207864e-14
9.42824447e-06
-1.870768363e-12
1.244008533e-12
9.428242919e-06
-1.495871791e-12
2.629129721e-13
9.428242443e-06
-1.608307857e-12
-1.851349017e-12
9.428239609e-06
-4.629640233e-12
-4.207479446e-12
9.428237968e-06
-4.743315926e-12
-5.52335132e-12
9.428237639e-06
-1.297269641e-11
-1.258469783e-11
9.428251965e-06
-1.958259341e-11
-1.669378831e-11
9.42828454e-06
-6.778584942e-11
-6.665003893e-11
9.428397548e-06
-8.308289722e-11
-8.325735769e-11
9.428649501e-06
-3.094499746e-10
-3.09948024e-10
-7.681956915e-10
9.42825457e-06
-2.247002046e-12
-9.079817421e-13
9.428250759e-06
-5.972027674e-13
-4.494883209e-13
9.428251047e-06
-6.939385068e-13
-5.130509122e-13
9.428251455e-06
-3.916809155e-13
1.033276545e-12
9.428251654e-06
1.230414892e-12
2.275133778e-12
9.428249821e-06
1.181166175e-12
5.126016865e-13
9.428246253e-06
1.784574825e-12
-7.524347618e-13
9.428241686e-06
3.219326556e-12
-3.22156741e-12
9.428231285e-06
4.328840815e-12
-6.107526992e-12
9.428203023e-06
1.283025668e-11
-2.094441825e-11
9.428181809e-06
1.823563993e-11
-3.228195067e-11
9.428086289e-06
6.733757217e-11
-1.624438524e-10
9.428085383e-06
8.185497768e-11
-2.802924865e-10
9.428448752e-06
3.087953576e-10
-1.858738359e-09
7.694103638e-10
-5.485977033e-09
9.428235557e-06
1.69080939e-12
-3.502813752e-13
9.428233778e-06
-6.856610491e-14
-6.373486803e-13
9.428231847e-06
-1.899052217e-13
3.430867406e-13
9.428234329e-06
4.131736916e-13
2.402562617e-12
9.428233517e-06
2.911195005e-13
-2.439145684e-13
9.428232577e-06
-1.614708864e-13
-4.927228586e-13
9.428230159e-06
-6.032209976e-13
-2.450389754e-12
9.428228697e-06
4.069890359e-12
-2.755020736e-12
9.428228234e-06
5.264987339e-12
-4.296496776e-12
9.428224261e-06
1.334236633e-11
-1.441539194e-11
9.428242427e-06
1.048265676e-11
-1.723877068e-11
9.428273839e-06
5.172101242e-11
-6.667602136e-11
9.428389196e-06
2.376560492e-11
-8.231395532e-11
9.42864032e-06
1.842728057e-10
-3.094859018e-10
7.591391465e-10
-7.688928758e-10
9.428259175e-06
-1.31969454e-12
-1.425558642e-12
9.428257994e-06
-1.198277019e-12
-2.053427422e-12
9.428257617e-06
-8.847486303e-13
-1.735480799e-12
9.428257904e-06
6.290202154e-13
-1.810643827e-13
9.428256249e-06
1.242804169e-12
6.696804246e-13
9.428256838e-06
7.728599515e-13
1.302045191e-13
9.428256686e-06
1.474586057e-12
-1.612986578e-13
9.428256273e-06
3.436709797e-12
-1.368813677e-12
9.428253006e-06
3.473428877e-12
-3.899602323e-12
9.428249791e-06
1.23981324e-11
-9.065752931e-12
9.428247426e-06
1.436875145e-11
-1.382429896e-11
9.428257904e-06
4.178141838e-11
-4.196771194e-11
9.428258959e-06
4.458972284e-11
-7.060625747e-11
9.428393368e-06
9.339174e-11
-1.611037945e-10
3.762284622e-10
-4.33645264e-10
9.428235406e-06
-1.182271233e-12
-1.269305948e-12
9.428234083e-06
-8.534561517e-13
-1.047705398e-12
9.428236162e-06
-1.189621868e-12
3.355436186e-13
9.428234778e-06
-6.849102933e-15
-8.471041049e-13
9.42823384e-06
1.167480497e-12
2.712550227e-13
9.428235524e-06
1.147739851e-12
3.620187366e-13
9.428235795e-06
1.876417646e-12
5.300860568e-13
9.428237154e-06
3.451460298e-12
-9.147594898e-13
9.428236408e-06
5.719413521e-12
-1.198885079e-12
9.428240491e-06
8.379279063e-12
-5.364487563e-12
9.428244308e-06
8.096305539e-12
-8.296955656e-12
9.428265753e-06
2.011949412e-11
-2.057929975e-11
9.428284619e-06
2.846229495e-11
-3.794601461e-11
9.428360346e-06
4.044477699e-11
-5.772562211e-11
1.623431293e-10
-1.454855155e-10
9.428233725e-06
-1.068395562e-12
9.428233966e-06
1.329605037e-13
9.428234248e-06
1.4385716e-12
9.428232868e-06
4.515430279e-13
9.428230361e-06
-2.624738099e-13
9.428232411e-06
-8.076102665e-13
9.428234211e-06
-2.357282929e-12
9.428234667e-06
-2.055371443e-12
9.428235598e-06
-2.785155117e-12
9.428239942e-06
-5.138137576e-12
9.428248326e-06
-6.54781268e-12
9.428267395e-06
-1.299313993e-11
9.428292431e-06
-2.341744195e-11
9.428337675e-06
-3.324157722e-11
-7.36822724e-11
9.42824606e-06
-2.027673039e-12
-3.147139906e-13
9.428244956e-06
-1.441204209e-13
5.893873116e-13
9.428245189e-06
1.458904157e-12
1.808243136e-12
9.42824626e-06
5.108002257e-13
1.67514024e-12
9.428246877e-06
1.239117589e-13
5.183917846e-13
9.428244614e-06
-1.447207681e-13
-1.941289197e-13
9.428244691e-06
-1.896076335e-12
8.230200604e-13
9.428246281e-06
-2.485450166e-12
-4.863433156e-14
9.428242672e-06
-4.886264858e-12
-1.935031298e-13
9.428246428e-06
-1.010319354e-11
3.393118569e-12
9.428245827e-06
-1.239469821e-11
7.238870172e-12
9.428255287e-06
-3.750222554e-11
1.342097114e-11
9.428264763e-06
-5.947899822e-11
2.5543999e-11
-1.200421877e-10
3.469792562e-11
9.428257608e-06
-1.634750444e-13
2.444423996e-12
9.428255641e-06
-8.18619772e-13
-2.439347959e-13
9.428252993e-06
-1.670983885e-12
-1.065207335e-12
9.428253991e-06
-8.18558906e-13
-3.249965862e-13
9.428255082e-06
-1.575799056e-12
-3.953320518e-13
9.42825201e-06
-1.959148036e-12
4.473065288e-13
9.428251153e-06
-3.253609208e-12
-2.502152621e-13
9.428251667e-06
-6.358143097e-12
2.950913973e-13
9.428247324e-06
-8.838906407e-12
2.157525181e-12
9.42824768e-06
-1.86167913e-11
5.520302319e-12
9.428239136e-06
-2.270983232e-11
9.846019416e-12
9.428239926e-06
-8.437819016e-11
2.073650397e-11
9.428217133e-06
-1.084599706e-10
3.675199875e-11
-3.452784842e-10
6.041031585e-11
9.42819103e-06
1.830990454e-13
1.41889586e-12
9.428189806e-06
-1.190855862e-12
6.549308865e-14
9.42818795e-06
-2.172155397e-12
-8.097748295e-13
9.428187388e-06
-1.698335476e-12
1.171866883e-12
9.42818893e-06
-1.18559129e-12
1.013152138e-12
9.428185438e-06
-1.13120398e-12
2.792552666e-13
9.42818363e-06
-1.467314088e-12
2.209980862e-12
9.428179169e-06
-6.322311491e-12
2.954003635e-12
9.428171885e-06
-6.477622398e-12
4.636503043e-12
9.428154649e-06
-2.227956283e-11
8.572519424e-12
9.42812257e-06
-2.114965094e-11
1.485458069e-11
9.428081998e-06
-1.262707923e-10
4.161628992e-11
9.427946426e-06
-1.175001794e-10
7.01955338e-11
-8.742614142e-10
1.620088062e-10
9.428236374e-06
8.584215184e-13
5.137714141e-13
9.428236031e-06
7.005559081e-13
5.485434512e-13
9.428237467e-06
-2.777868694e-13
2.118227538e-12
9.428236527e-06
-1.393648473e-13
2.612490729e-12
9.42823738e-06
-3.633461222e-13
2.820286176e-12
9.428233971e-06
-1.149116167e-12
1.078925287e-12
9.428230525e-06
-8.510388899e-13
1.082101673e-12
9.428224953e-06
-3.462064203e-12
3.077117361e-12
9.428215813e-06
-5.599760514e-12
4.638635448e-12
9.428188205e-06
-2.184903196e-11
1.258329068e-11
9.428161056e-06
-3.395057967e-11
1.670538155e-11
9.428065928e-06
-1.636686248e-10
6.700349488e-11
9.428065922e-06
-2.811228051e-10
8.195764208e-11
-1.859190634e-09
3.103206809e-10
9.42822133e-06
-1.395422535e-12
-3.603580557e-13
9.428219569e-06
-1.378796351e-12
-1.16815554e-13
9.428220735e-06
5.875627574e-13
1.238407984e-12
9.42821931e-06
5.015207519e-13
5.348914127e-13
9.428216917e-06
-1.296111016e-12
2.040785933e-12
9.428214098e-06
-6.764369329e-13
1.132950376e-12
9.428207247e-06
4.934083745e-13
1.546601662e-12
9.42819523e-06
3.637568705e-12
2.670229638e-12
9.428171728e-06
5.949617348e-12
4.830887443e-12
9.428089494e-06
2.055482194e-11
2.039055863e-11
9.427953682e-06
3.284646027e-11
3.347424218e-11
9.42729703e-06
1.627030949e-10
1.63344192e-10
9.426173307e-06
2.804532647e-10
2.809028571e-10
9.418743908e-06
1.8580172e-09
1.858555288e-09
5.485545038e-09
9.428233492e-06
-6.484073813e-14
3.611693576e-13
9.428232142e-06
-3.134389e-13
8.946513449e-13
9.428231096e-06
-1.665299835e-12
1.086073363e-13
9.428229292e-06
-1.516014864e-12
-9.173510463e-13
9.428231304e-06
1.117592727e-12
1.900431942e-12
9.428228477e-06
6.563984356e-13
1.868993474e-12
9.428223562e-06
1.50173096e-12
1.184409122e-12
9.428218139e-06
5.798351503e-12
2.008554713e-12
9.428208052e-06
7.113579227e-12
4.003491852e-12
9.428180686e-06
2.284907274e-11
1.303785118e-11
9.428156724e-06
2.167515629e-11
1.858385275e-11
9.428057736e-06
1.258530097e-10
6.760303212e-11
9.428057714e-06
1.159658234e-10
8.213672639e-11
9.428421575e-06
8.748500441e-10
3.100735233e-10
3.081995546e-09
9.428252317e-06
-7.113195609e-13
3.886126381e-13
9.428252669e-06
-3.066589986e-13
1.865483434e-12
9.42825312e-06
5.180134799e-13
7.831515076e-13
9.428253844e-06
6.562701415e-13
2.254465126e-12
9.428250816e-06
5.359474392e-13
1.358778553e-12
9.428250463e-06
1.671817489e-12
1.204340547e-12
9.428246699e-06
1.455832964e-12
1.421368636e-13
9.428242489e-06
5.157916278e-12
2.672462309e-12
9.428236413e-06
7.181402425e-12
3.806354501e-12
9.428219679e-06
1.89696781e-11
8.78395979e-12
9.428186549e-06
2.464386795e-11
1.537289927e-11