/*--------------------------------*- C++ -*----------------------------------*\
| =========                 |                                                 |
| \\      /  F ield         | OpenFOAM: The Open Source CFD Toolbox           |
|  \\    /   O peration     | Version:  4.x                                   |
|   \\  /    A nd           | Web:      www.OpenFOAM.org                      |
|    \\/     M anipulation  |                                                 |
\*---------------------------------------------------------------------------*/
FoamFile
{
    version     2.0;
    format      ascii;
    class       volScalarField;
    location    "7000";
    object      rhoeps;
}
// * * * * * * * * * * * * * * * * * * * * * * * * * * * * * * * * * * * * * //

dimensions      [1 -3 0 0 0 0 0];

internalField   nonuniform List<scalar> 
1175
(
0.2777046888
0.2777046997
0.2777046715
0.2777046631
0.2777046744
0.2777046947
0.2777046656
0.2777046511
0.2777046702
0.2777046359
0.2777046273
0.2777046571
0.2777046862
0.277704735
0.2777048191
0.2777043044
0.2777043057
0.2777042824
0.2777043036
0.2777043015
0.2777043269
0.2777043074
0.2777042978
0.277704276
0.2777042446
0.2777042577
0.2777043209
0.2777043055
0.2777043761
0.2777045612
0.2777048963
0.2777049128
0.2777049078
0.2777049231
0.2777048967
0.2777049185
0.2777049152
0.2777048936
0.2777048878
0.2777048687
0.2777048984
0.27770491
0.2777049532
0.277705109
0.2777054365
0.2777036558
0.2777036653
0.2777037013
0.2777036695
0.2777037143
0.2777037721
0.2777037678
0.2777037388
0.2777037374
0.2777037694
0.2777037809
0.2777038398
0.2777039671
0.2777042294
0.2777047486
0.277704109
0.2777041354
0.2777041149
0.2777040904
0.2777040951
0.2777041014
0.2777040679
0.2777040634
0.277704053
0.2777040813
0.2777040745
0.2777040899
0.2777042421
0.2777045545
0.2777053222
0.2777060522
0.2777060591
0.2777060678
0.2777060731
0.2777060899
0.2777061029
0.2777061297
0.2777060849
0.2777060886
0.2777061267
0.2777061206
0.2777061272
0.2777062019
0.2777064888
0.2777070249
0.2777052044
0.2777052039
0.2777052018
0.2777052214
0.2777051885
0.2777051985
0.2777051951
0.2777052093
0.277705174
0.2777051944
0.2777052087
0.2777052294
0.2777053124
0.2777054634
0.2777057978
0.2777043969
0.2777043307
0.2777043727
0.2777043679
0.2777043956
0.2777043879
0.2777044139
0.2777043763
0.2777044059
0.2777044307
0.2777044561
0.2777044498
0.2777044848
0.2777045218
0.2777046847
0.2777045847
0.2777046123
0.277704626
0.2777046412
0.2777046402
0.2777046332
0.2777046432
0.2777046156
0.2777045916
0.2777045766
0.2777045746
0.2777045964
0.2777046584
0.2777047275
0.277704805
0.2777046135
0.2777046039
0.2777046074
0.2777045868
0.2777045752
0.2777045689
0.277704571
0.2777045815
0.2777045893
0.2777046049
0.2777046028
0.2777046187
0.2777046619
0.2777047703
0.2777039218
0.2777038993
0.2777038883
0.277703912
0.2777038889
0.2777038697
0.277703864
0.2777038602
0.2777038556
0.2777038413
0.2777038901
0.2777038975
0.2777039786
0.2777041701
0.2777044593
0.2777041915
0.277704175
0.2777041896
0.277704208
0.2777042045
0.2777041543
0.2777041432
0.2777041614
0.2777041365
0.2777041452
0.2777041449
0.2777041681
0.2777043699
0.2777047504
0.2777054566
0.2777051075
0.2777051004
0.2777050787
0.2777050525
0.2777050607
0.2777050326
0.2777050088
0.2777050507
0.2777050451
0.2777050708
0.2777050777
0.2777051946
0.2777054697
0.2777062522
0.2777077574
0.2777039962
0.2777039624
0.2777039839
0.2777040009
0.277703966
0.2777039639
0.2777039344
0.2777038979
0.2777039082
0.2777039671
0.2777040149
0.2777041607
0.2777045561
0.2777056743
0.2777080756
0.2777041354
0.2777041581
0.2777041478
0.2777041717
0.2777041546
0.2777041993
0.277704225
0.2777042601
0.2777042384
0.2777042669
0.2777043191
0.2777044099
0.2777047443
0.277705484
0.2777069945
0.2777030716
0.2777030391
0.2777030785
0.277703127
0.2777031331
0.2777031186
0.2777031199
0.2777031203
0.2777031679
0.2777031687
0.2777032355
0.2777032925
0.2777034498
0.2777038171
0.277704539
0.277705428
0.2777054425
0.2777054424
0.2777054394
0.2777053998
0.2777053677
0.2777053671
0.2777053876
0.2777053598
0.2777053239
0.2777053476
0.2777053802
0.2777054562
0.2777056278
0.2777059347
0.2777038923
0.2777038498
0.2777038203
0.2777038091
0.2777038639
0.2777038657
0.277703845
0.2777038637
0.2777038535
0.2777038669
0.2777038681
0.2777038509
0.2777039101
0.2777039758
0.2777041493
0.2777042826
0.2777042379
0.2777042362
0.277704222
0.2777042472
0.2777042421
0.2777042708
0.2777042472
0.2777042412
0.2777042594
0.2777042792
0.2777043312
0.2777043699
0.2777044639
0.2777056048
0.2777056179
0.2777056192
0.2777056489
0.2777056539
0.2777056335
0.2777056304
0.2777055923
0.2777055893
0.2777055905
0.2777056218
0.2777056813
0.2777058324
0.2777062191
0.2777050618
0.2777050504
0.2777050773
0.2777050541
0.2777050929
0.277705083
0.2777051469
0.2777051536
0.2777051624
0.2777051535
0.2777052155
0.2777053007
0.2777056428
0.2777066738
0.2777087121
0.2777054384
0.2777054427
0.2777054435
0.2777054389
0.2777054588
0.2777055182
0.2777055
0.2777055118
0.2777055015
0.2777055132
0.2777055802
0.2777058336
0.2777067209
0.2777091836
0.2777145992
0.2777032472
0.2777032199
0.2777032147
0.2777032097
0.2777032648
0.2777032892
0.2777032866
0.2777032577
0.2777032646
0.2777032906
0.277703377
0.2777037472
0.2777051414
0.277709678
0.2777210688
0.2777060262
0.2777060383
0.2777060348
0.2777060068
0.2777059807
0.2777059475
0.2777059732
0.2777059918
0.2777059769
0.2777059638
0.2777060363
0.2777062438
0.2777071195
0.2777095747
0.2777150197
0.2777044988
0.2777044795
0.2777044435
0.2777044427
0.2777044293
0.2777044142
0.2777044051
0.2777044007
0.2777043812
0.2777044015
0.2777044089
0.2777045426
0.2777049803
0.2777060117
0.2777080237
0.2777040093
0.2777039835
0.2777040002
0.2777040364
0.277704047
0.2777040378
0.2777040384
0.2777040311
0.2777040509
0.277704069
0.2777040796
0.2777041136
0.2777042965
0.2777046843
0.2777053834
0.2777050234
0.2777050341
0.2777050639
0.2777050776
0.2777050336
0.2777050721
0.2777050607
0.277705051
0.2777050438
0.277705047
0.2777050632
0.2777051174
0.2777051949
0.277705367
0.2777057249
0.2777054428
0.2777054613
0.2777054565
0.2777054761
0.2777054629
0.2777054111
0.2777054309
0.2777054268
0.2777054408
0.2777054536
0.277705501
0.2777055342
0.2777056557
0.2777059005
0.2777049465
0.2777050272
0.2777049871
0.2777050001
0.2777050393
0.2777050441
0.2777050726
0.2777050823
0.2777050619
0.2777051001
0.2777051628
0.2777052502
0.2777055253
0.2777062947
0.2777061934
0.2777061864
0.2777061935
0.2777062062
0.277706154
0.277706169
0.2777061625
0.2777061479
0.2777061381
0.2777061614
0.2777062536
0.2777064804
0.2777073045
0.2777097818
0.2777047535
0.2777047472
0.2777047675
0.2777047287
0.2777047012
0.2777047162
0.2777046936
0.2777047002
0.2777047667
0.277704782
0.2777049348
0.2777054973
0.2777078017
0.2777156864
0.2777357509
0.2777048997
0.2777048928
0.2777048929
0.2777048948
0.2777049408
0.2777049373
0.2777049291
0.2777049855
0.2777049762
0.2777049973
0.2777051905
0.2777061999
0.2777106573
0.2777301552
0.2777979267
0.27770436
0.2777043605
0.2777043272
0.2777043174
0.2777043652
0.2777043949
0.2777043795
0.2777043764
0.2777044005
0.2777044534
0.2777046167
0.2777052121
0.2777075082
0.2777153773
0.2777354803
0.2777050831
0.2777051089
0.2777050874
0.277705047
0.2777050552
0.2777050233
0.2777050594
0.2777050952
0.2777050961
0.2777051034
0.2777051983
0.2777054229
0.2777062795
0.2777087816
0.2777141777
0.2777044323
0.2777043902
0.2777043958
0.2777044134
0.2777044091
0.2777044284
0.2777044237
0.2777044052
0.2777043919
0.2777043779
0.2777044021
0.2777045033
0.2777048044
0.2777055598
0.27770712
0.2777042979
0.2777043244
0.2777043011
0.277704316
0.2777043073
0.2777042657
0.2777042678
0.2777042779
0.2777042744
0.2777042856
0.2777042997
0.2777043575
0.2777044941
0.2777047224
0.2777052937
0.27770473
0.2777047192
0.2777047151
0.2777046934
0.2777047032
0.2777047231
0.2777047416
0.2777047572
0.277704747
0.2777047237
0.2777047287
0.2777047693
0.2777049073
0.277705275
0.2777049927
0.2777050076
0.2777049976
0.277704995
0.2777049826
0.2777049684
0.2777049578
0.2777049709
0.277704971
0.2777049747
0.2777050407
0.2777051907
0.277705623
0.2777067251
0.2777030142
0.2777030048
0.2777030311
0.2777030451
0.2777030242
0.2777030283
0.2777030299
0.2777030467
0.2777030538
0.2777030448
0.2777031113
0.2777034673
0.2777048998
0.2777095056
0.2777044393
0.2777044631
0.2777044447
0.2777044844
0.2777045188
0.2777044716
0.2777044888
0.2777044874
0.2777044788
0.2777045214
0.2777046959
0.277705688
0.2777101206
0.2777295757
0.2777039446
0.2777039279
0.277704002
0.2777040255
0.2777039962
0.2777039769
0.2777039603
0.2777039295
0.2777039794
0.2777040342
0.2777043837
0.2777062101
0.2777174036
0.2777899374
0.2780104186
0.277704283
0.2777043002
0.2777043318
0.2777043266
0.2777043178
0.277704288
0.2777042616
0.2777042828
0.2777042666
0.2777043195
0.2777045077
0.2777054851
0.2777099232
0.2777293327
0.277797126
0.2777048728
0.2777048843
0.2777048918
0.277704866
0.2777049089
0.2777049379
0.2777049516
0.2777049373
0.2777049066
0.2777049533
0.2777050527
0.2777053897
0.2777067467
0.2777113277
0.277722656
0.2777052223
0.2777052201
0.2777052371
0.277705245
0.2777052327
0.2777052141
0.2777052505
0.2777052791
0.2777052828
0.2777053489
0.2777053833
0.2777055353
0.2777059262
0.2777070744
0.2777094621
0.277705216
0.2777052033
0.2777052089
0.2777052249
0.2777051959
0.277705209
0.2777051988
0.2777051778
0.2777051653
0.2777051658
0.2777051926
0.2777052394
0.2777054049
0.2777057316
0.2777064402
0.2777054786
0.2777054804
0.2777055294
0.2777055384
0.2777055386
0.2777055306
0.2777055218
0.2777055017
0.2777055099
0.277705554
0.2777055854
0.2777056093
0.277705691
0.2777059551
0.2777053444
0.2777053846
0.277705392
0.2777053612
0.2777053695
0.2777053823
0.2777053729
0.2777054152
0.2777054383
0.2777054216
0.2777054488
0.2777055194
0.2777058166
0.2777065808
0.2777058069
0.2777057753
0.2777057495
0.2777057523
0.2777057666
0.2777057332
0.2777057354
0.2777057074
0.2777057138
0.277705746
0.2777058092
0.2777060357
0.2777068384
0.2777093333
0.2777051166
0.2777051681
0.2777052135
0.2777051907
0.2777051768
0.2777052047
0.277705213
0.2777051969
0.2777052348
0.2777053308
0.2777055008
0.277706082
0.2777083729
0.2777162519
0.2777043129
0.2777042866
0.2777042774
0.2777042591
0.2777042723
0.277704296
0.2777043012
0.2777043032
0.2777043294
0.2777044179
0.2777046044
0.2777055896
0.2777100287
0.2777294573
0.2777054062
0.2777054103
0.2777054245
0.2777054493
0.2777054785
0.2777054216
0.2777054267
0.2777054376
0.2777054647
0.2777055041
0.2777056874
0.2777062608
0.2777085298
0.2777164009
0.277704965
0.2777049601
0.2777049061
0.277704929
0.2777049083
0.2777049188
0.2777048829
0.2777049014
0.2777049121
0.2777049603
0.2777050134
0.2777052678
0.2777061307
0.2777086306
0.2777140589
0.2777053759
0.2777054101
0.2777054517
0.2777054626
0.2777054573
0.2777054627
0.2777054948
0.2777054541
0.2777054835
0.2777054567
0.2777054618
0.2777055461
0.2777058219
0.2777065589
0.2777080935
0.2777051326
0.277705114
0.27770512
0.2777051326
0.277705139
0.2777051294
0.2777051365
0.2777051586
0.2777051641
0.2777051753
0.2777052176
0.277705239
0.2777053524
0.2777055854
0.277706155
0.2777051756
0.277705197
0.2777051957
0.2777051944
0.2777052097
0.2777052474
0.277705227
0.2777052524
0.2777052527
0.2777052166
0.2777052483
0.2777052638
0.2777053272
0.27770549
0.2777040538
0.2777040388
0.2777040369
0.2777040477
0.2777040489
0.2777040398
0.2777040589
0.2777040229
0.2777040546
0.2777040562
0.277704102
0.2777041285
0.2777042584
0.277704625
0.2777034589
0.2777034757
0.277703499
0.2777034742
0.2777034353
0.2777034268
0.277703435
0.2777034401
0.2777034423
0.2777034673
0.2777034843
0.2777036167
0.2777039853
0.277705004
0.2777045558
0.2777045435
0.2777045482
0.2777045439
0.2777045267
0.2777045666
0.2777045502
0.2777045635
0.2777045995
0.2777046051
0.2777046491
0.2777048601
0.2777056986
0.2777082478
0.2777061708
0.2777061393
0.2777061385
0.2777061443
0.2777060993
0.2777061178
0.2777061609
0.2777061289
0.2777061057
0.2777061153
0.2777062074
0.2777065513
0.277707952
0.2777125142
0.2777044321
0.2777044338
0.2777044433
0.2777044353
0.2777044385
0.2777044465
0.2777044661
0.2777044793
0.2777044886
0.2777044562
0.2777045076
0.277704775
0.2777056181
0.2777081041
0.2777043591
0.2777043461
0.2777043159
0.2777043243
0.2777042942
0.2777043036
0.2777042773
0.2777042935
0.2777042793
0.2777042891
0.2777043315
0.2777044694
0.2777048703
0.2777058532
0.2777039761
0.2777039703
0.2777039563
0.2777039197
0.2777039162
0.2777039104
0.2777039512
0.277703971
0.2777040034
0.2777039899
0.2777039999
0.2777040285
0.2777041961
0.2777045513
0.2777052746
0.2777047575
0.2777047577
0.2777047639
0.2777047659
0.2777047556
0.2777047371
0.277704732
0.2777047527
0.2777047108
0.2777047148
0.277704708
0.2777047029
0.2777047939
0.2777049309
0.2777052108
0.277703904
0.2777039051
0.2777039057
0.2777038892
0.2777038936
0.2777039172
0.2777039338
0.2777039582
0.2777039759
0.2777039747
0.2777039762
0.2777040202
0.2777040686
0.2777041392
0.2777053407
0.2777053711
0.2777053912
0.2777053784
0.2777054043
0.2777054184
0.2777054342
0.2777054317
0.2777054026
0.2777053942
0.2777054028
0.2777054409
0.2777055232
0.2777057121
0.277704619
0.2777046156
0.2777046187
0.2777046026
0.2777046275
0.2777046524
0.2777046902
0.2777046401
0.2777046165
0.2777046383
0.2777045744
0.2777046323
0.2777048153
0.2777051842
0.2777048979
0.277704874
0.2777048921
0.2777048835
0.2777048931
0.2777048903
0.2777049012
0.2777049257
0.2777049646
0.2777049376
0.2777049735
0.2777050543
0.2777053271
0.2777060775
0.2777040782
0.2777040775
0.277704068
0.2777041045
0.2777041193
0.2777040988
0.2777040474
0.2777040391
0.2777040527
0.2777040119
0.2777040311
0.2777041538
0.2777045489
0.2777056559
0.2777046888
0.2777047076
0.2777047131
0.2777046881
0.2777046778
0.2777046466
0.2777046867
0.2777047123
0.2777047668
0.2777047608
0.2777048293
0.2777049076
0.2777052123
0.2777060256
0.2777046823
0.2777046952
0.2777047513
0.2777047402
0.2777047421
0.2777047326
0.2777047228
0.2777047002
0.2777047007
0.2777046891
0.277704689
0.2777047409
0.2777049219
0.2777052428
0.2777042815
0.2777042481
0.2777042385
0.277704244
0.2777042134
0.2777041969
0.2777041668
0.2777041713
0.277704113
0.2777041155
0.2777041001
0.2777041172
0.2777041854
0.2777043017
0.2777040163
0.2777039721
0.2777039731
0.277703977
0.2777039652
0.2777039507
0.2777039693
0.277703949
0.2777039462
0.2777039636
0.2777039659
0.2777039838
0.277704036
0.2777041246
0.2777042575
0.2777051516
0.2777051229
0.2777051218
0.2777051395
0.2777051551
0.2777051433
0.2777051559
0.277705161
0.2777051517
0.2777051525
0.2777051445
0.2777051489
0.2777051749
0.2777052353
0.277704723
0.2777047439
0.2777047152
0.2777047132
0.2777047172
0.2777047207
0.277704723
0.2777047184
0.2777047525
0.2777047637
0.2777047657
0.2777047822
0.2777048259
0.2777049036
0.2777050719
0.2777050474
0.2777050579
0.2777050391
0.277705057
0.2777050847
0.2777050828
0.2777050625
0.2777050371
0.2777050535
0.2777050664
0.2777051054
0.2777051696
0.2777053237
0.2777042031
0.2777041992
0.2777042051
0.2777042107
0.2777042184
0.2777041676
0.2777041848
0.2777042143
0.2777041941
0.2777041757
0.2777041837
0.2777042397
0.2777043333
0.2777046023
0.2777047678
0.2777047679
0.2777047793
0.277704762
0.2777047411
0.2777047166
0.2777047632
0.2777047795
0.2777047751
0.277704784
0.2777047743
0.27770483
0.2777049703
0.2777053622
0.2777033249
0.2777033341
0.2777033396
0.2777033806
0.2777034141
0.2777034208
0.2777034147
0.277703405
0.2777033842
0.2777033964
0.2777034041
0.277703449
0.2777035823
0.2777038288
0.2777039353
0.2777039061
0.2777039118
0.2777039018
0.2777038851
0.2777039273
0.2777039109
0.2777039028
0.2777038874
0.2777039209
0.2777039374
0.277703991
0.2777040759
0.2777042228
0.2777057168
0.2777057327
0.277705721
0.2777057028
0.2777056784
0.2777056772
0.2777056674
0.2777056653
0.2777056718
0.2777057058
0.2777057189
0.2777057698
0.2777057803
0.2777058838
0.2777047946
0.2777048171
0.2777048348
0.277704842
0.277704824
0.2777048216
0.2777048152
0.2777048315
0.2777048265
0.2777048159
0.2777047966
0.2777047941
0.2777048037
0.2777048562
)
;

boundaryField
{
    top
    {
        type            calculated;
        value           nonuniform List<scalar> 
134
(
0.2777045847
0.2777038923
0.2777050234
0.2777042979
0.277705216
0.2777051326
0.2777047575
0.2777040163
0.2777047946
0.2777046123
0.2777038498
0.2777050341
0.2777043244
0.2777052033
0.277705114
0.2777047577
0.2777039721
0.2777048171
0.277704626
0.2777038203
0.2777050639
0.2777043011
0.2777052089
0.27770512
0.2777047639
0.2777039731
0.2777048348
0.2777046412
0.2777038091
0.2777050776
0.277704316
0.2777052249
0.2777051326
0.2777047659
0.277703977
0.277704842
0.2777046402
0.2777038639
0.2777050336
0.2777043073
0.2777051959
0.277705139
0.2777047556
0.2777039652
0.277704824
0.2777046332
0.2777038657
0.2777050721
0.2777042657
0.277705209
0.2777051294
0.2777047371
0.2777039507
0.2777048216
0.2777046432
0.277703845
0.2777050607
0.2777042678
0.2777051988
0.2777051365
0.277704732
0.2777039693
0.2777048152
0.2777046156
0.2777038637
0.277705051
0.2777042779
0.2777051778
0.2777051586
0.2777047527
0.277703949
0.2777048315
0.2777045916
0.2777038535
0.2777050438
0.2777042744
0.2777051653
0.2777051641
0.2777047108
0.2777039462
0.2777048265
0.2777045766
0.2777038669
0.277705047
0.2777042856
0.2777051658
0.2777051753
0.2777047148
0.2777039636
0.2777048159
0.2777045746
0.2777038681
0.2777050632
0.2777042997
0.2777051926
0.2777052176
0.277704708
0.2777039659
0.2777047966
0.2777045964
0.2777038509
0.2777051174
0.2777043575
0.2777052394
0.277705239
0.2777047029
0.2777039838
0.2777047941
0.2777046584
0.2777039101
0.2777051949
0.2777044941
0.2777054049
0.2777053524
0.2777047939
0.277704036
0.2777048037
0.2777047275
0.2777039758
0.277705367
0.2777047224
0.2777057316
0.2777055854
0.2777049309
0.2777041246
0.2777048562
0.277704805
0.2777041493
0.2777057249
0.2777052937
0.2777064402
0.277706155
0.2777052108
0.2777042575
)
;
    }
    bottom
    {
        type            calculated;
        value           nonuniform List<scalar> 
127
(
0.2777046888
0.2777046135
0.2777042826
0.2777054428
0.27770473
0.2777054786
0.2777051756
0.277703904
0.2777051516
0.2777046997
0.2777046039
0.2777042379
0.2777054613
0.2777047192
0.2777054804
0.277705197
0.2777039051
0.2777051229
0.2777046715
0.2777046074
0.2777042362
0.2777054565
0.2777047151
0.2777055294
0.2777051957
0.2777039057
0.2777051218
0.2777046631
0.2777045868
0.277704222
0.2777054761
0.2777046934
0.2777055384
0.2777051944
0.2777038892
0.2777051395
0.2777046744
0.2777045752
0.2777042472
0.2777054629
0.2777047032
0.2777055386
0.2777052097
0.2777038936
0.2777051551
0.2777046947
0.2777045689
0.2777042421
0.2777054111
0.2777047231
0.2777055306
0.2777052474
0.2777039172
0.2777051433
0.2777046656
0.277704571
0.2777042708
0.2777054309
0.2777047416
0.2777055218
0.277705227
0.2777039338
0.2777051559
0.2777046511
0.2777045815
0.2777042472
0.2777054268
0.2777047572
0.2777055017
0.2777052524
0.2777039582
0.277705161
0.2777046702
0.2777045893
0.2777042412
0.2777054408
0.277704747
0.2777055099
0.2777052527
0.2777039759
0.2777051517
0.2777046359
0.2777046049
0.2777042594
0.2777054536
0.2777047237
0.277705554
0.2777052166
0.2777039747
0.2777051525
0.2777046273
0.2777046028
0.2777042792
0.277705501
0.2777047287
0.2777055854
0.2777052483
0.2777039762
0.2777051445
0.2777046571
0.2777046187
0.2777043312
0.2777055342
0.2777047693
0.2777056093
0.2777052638
0.2777040202
0.2777051489
0.2777046862
0.2777046619
0.2777043699
0.2777056557
0.2777049073
0.277705691
0.2777053272
0.2777040686
0.2777051749
0.277704735
0.2777047703
0.2777044639
0.2777059005
0.277705275
0.2777059551
0.27770549
0.2777041392
0.2777052353
0.2777048191
)
;
    }
    side-walls
    {
        type            calculated;
        value           nonuniform List<scalar> 
261
(
0.2777046888
0.2777043044
0.2777048963
0.2777036558
0.277704109
0.2777060522
0.2777052044
0.2777043969
0.2777045847
0.2777046997
0.2777043057
0.2777049128
0.2777036653
0.2777041354
0.2777060591
0.2777052039
0.2777043307
0.2777046123
0.2777046715
0.2777042824
0.2777049078
0.2777037013
0.2777041149
0.2777060678
0.2777052018
0.2777043727
0.277704626
0.2777046631
0.2777043036
0.2777049231
0.2777036695
0.2777040904
0.2777060731
0.2777052214
0.2777043679
0.2777046412
0.2777046744
0.2777043015
0.2777048967
0.2777037143
0.2777040951
0.2777060899
0.2777051885
0.2777043956
0.2777046402
0.2777046947
0.2777043269
0.2777049185
0.2777037721
0.2777041014
0.2777061029
0.2777051985
0.2777043879
0.2777046332
0.2777046656
0.2777043074
0.2777049152
0.2777037678
0.2777040679
0.2777061297
0.2777051951
0.2777044139
0.2777046432
0.2777046511
0.2777042978
0.2777048936
0.2777037388
0.2777040634
0.2777060849
0.2777052093
0.2777043763
0.2777046156
0.2777046702
0.277704276
0.2777048878
0.2777037374
0.277704053
0.2777060886
0.277705174
0.2777044059
0.2777045916
0.2777046359
0.2777042446
0.2777048687
0.2777037694
0.2777040813
0.2777061267
0.2777051944
0.2777044307
0.2777045766
0.2777046273
0.2777042577
0.2777048984
0.2777037809
0.2777040745
0.2777061206
0.2777052087
0.2777044561
0.2777045746
0.2777046571
0.2777043209
0.27770491
0.2777038398
0.2777040899
0.2777061272
0.2777052294
0.2777044498
0.2777045964
0.2777046862
0.2777043055
0.2777049532
0.2777039671
0.2777042421
0.2777062019
0.2777053124
0.2777044848
0.2777046584
0.277704735
0.2777043761
0.277705109
0.2777042294
0.2777045545
0.2777064888
0.2777054634
0.2777045218
0.2777047275
0.2777048191
0.2777045612
0.2777054365
0.2777047486
0.2777053222
0.2777070249
0.2777057978
0.2777046847
0.277704805
0.2777051516
0.277704723
0.2777050719
0.2777042031
0.2777047678
0.2777033249
0.2777039353
0.2777057168
0.2777047946
0.2777051229
0.2777047439
0.2777050474
0.2777041992
0.2777047679
0.2777033341
0.2777039061
0.2777057327
0.2777048171
0.2777051218
0.2777047152
0.2777050579
0.2777042051
0.2777047793
0.2777033396
0.2777039118
0.277705721
0.2777048348
0.2777051395
0.2777047132
0.2777050391
0.2777042107
0.277704762
0.2777033806
0.2777039018
0.2777057028
0.277704842
0.2777051551
0.2777047172
0.277705057
0.2777042184
0.2777047411
0.2777034141
0.2777038851
0.2777056784
0.277704824
0.2777051433
0.2777047207
0.2777050847
0.2777041676
0.2777047166
0.2777034208
0.2777039273
0.2777056772
0.2777048216
0.2777051559
0.277704723
0.2777050828
0.2777041848
0.2777047632
0.2777034147
0.2777039109
0.2777056674
0.2777048152
0.277705161
0.2777047184
0.2777050625
0.2777042143
0.2777047795
0.277703405
0.2777039028
0.2777056653
0.2777048315
0.2777051517
0.2777047525
0.2777050371
0.2777041941
0.2777047751
0.2777033842
0.2777038874
0.2777056718
0.2777048265
0.2777051525
0.2777047637
0.2777050535
0.2777041757
0.277704784
0.2777033964
0.2777039209
0.2777057058
0.2777048159
0.2777051445
0.2777047657
0.2777050664
0.2777041837
0.2777047743
0.2777034041
0.2777039374
0.2777057189
0.2777047966
0.2777051489
0.2777047822
0.2777051054
0.2777042397
0.27770483
0.277703449
0.277703991
0.2777057698
0.2777047941
0.2777051749
0.2777048259
0.2777051696
0.2777043333
0.2777049703
0.2777035823
0.2777040759
0.2777057803
0.2777048037
0.2777052353
0.2777049036
0.2777053237
0.2777046023
0.2777053622
0.2777038288
0.2777042228
0.2777058838
0.2777048562
)
;
    }
    inlet
    {
        type            calculated;
        value           nonuniform List<scalar> 
81
(
0.2777046888
0.2777043044
0.2777048963
0.2777036558
0.277704109
0.2777060522
0.2777052044
0.2777043969
0.2777045847
0.2777046135
0.2777039218
0.2777041915
0.2777051075
0.2777039962
0.2777041354
0.2777030716
0.277705428
0.2777038923
0.2777042826
0.2777056048
0.2777050618
0.2777054384
0.2777032472
0.2777060262
0.2777044988
0.2777040093
0.2777050234
0.2777054428
0.2777049465
0.2777061934
0.2777047535
0.2777048997
0.27770436
0.2777050831
0.2777044323
0.2777042979
0.27770473
0.2777049927
0.2777030142
0.2777044393
0.2777039446
0.277704283
0.2777048728
0.2777052223
0.277705216
0.2777054786
0.2777053444
0.2777058069
0.2777051166
0.2777043129
0.2777054062
0.277704965
0.2777053759
0.2777051326
0.2777051756
0.2777040538
0.2777034589
0.2777045558
0.2777061708
0.2777044321
0.2777043591
0.2777039761
0.2777047575
0.277703904
0.2777053407
0.277704619
0.2777048979
0.2777040782
0.2777046888
0.2777046823
0.2777042815
0.2777040163
0.2777051516
0.277704723
0.2777050719
0.2777042031
0.2777047678
0.2777033249
0.2777039353
0.2777057168
0.2777047946
)
;
    }
    outlet
    {
        type            calculated;
        value           nonuniform 0();
    }
    procBoundary0to1
    {
        type            processor;
        value           nonuniform List<scalar> 
97
(
0.2777049924
0.277704951
0.2777048153
0.2777060194
0.2777056062
0.2777063979
0.2777078376
0.277706276
0.2777049296
0.2777049683
0.277704951
0.277704951
0.2777049671
0.2777069356
0.2777065782
0.2777098269
0.2777109101
0.277709057
0.277705658
0.2777064629
0.2777044186
0.2777047655
0.2777069356
0.2777069356
0.2777114519
0.2777152231
0.2777205035
0.2777295498
0.2777208927
0.2777107428
0.2777064642
0.2777062157
0.2777064336
0.2777078367
0.2777152231
0.2777152231
0.277749304
0.2777974165
0.2778081621
0.2777490716
0.277720052
0.2777091763
0.2777061673
0.2777060104
0.2777091965
0.2777208509
0.2777974165
0.2777974165
0.2791088918
0.277797289
0.2778073876
0.2777365066
0.2777310928
0.2777123354
0.277707548
0.2777065109
0.2777081004
0.2777147329
0.2777363206
0.277797289
0.2777365066
0.2777365066
0.2777199523
0.2777078974
0.2777101743
0.2777070399
0.2777058
0.2777053801
0.2777070214
0.2777136534
0.2777238277
0.2777134918
0.2777078974
0.2777078974
0.2777063692
0.2777046259
0.2777057185
0.2777043575
0.2777059832
0.2777059189
0.2777075881
0.2777080491
0.2777075572
0.2777059694
0.2777046259
0.2777046259
0.2777045155
0.2777049756
0.2777053111
0.2777050802
0.2777056216
0.2777051331
0.2777060658
0.2777043907
0.2777045505
0.2777060407
0.2777049756
)
;
    }
}


// ************************************************************************* //
