/*--------------------------------*- C++ -*----------------------------------*\
| =========                 |                                                 |
| \\      /  F ield         | OpenFOAM: The Open Source CFD Toolbox           |
|  \\    /   O peration     | Version:  4.x                                   |
|   \\  /    A nd           | Web:      www.OpenFOAM.org                      |
|    \\/     M anipulation  |                                                 |
\*---------------------------------------------------------------------------*/
FoamFile
{
    version     2.0;
    format      ascii;
    class       volScalarField;
    location    "7000";
    object      T;
}
// * * * * * * * * * * * * * * * * * * * * * * * * * * * * * * * * * * * * * //

dimensions      [0 0 0 1 0 0 0];

internalField   nonuniform List<scalar> 
1175
(
1223.150486
1223.150438
1223.150562
1223.150599
1223.150549
1223.15046
1223.150588
1223.150653
1223.150571
1223.150728
1223.150782
1223.150695
1223.150674
1223.150697
1223.150792
1223.152179
1223.152173
1223.152276
1223.152182
1223.152192
1223.15208
1223.152166
1223.152209
1223.152308
1223.152455
1223.152424
1223.152218
1223.152468
1223.152566
1223.152556
1223.149572
1223.149499
1223.149521
1223.149454
1223.14957
1223.149474
1223.14949
1223.149586
1223.149616
1223.149714
1223.149629
1223.149709
1223.149863
1223.149976
1223.150106
1223.155036
1223.154994
1223.154835
1223.154975
1223.154778
1223.154524
1223.154543
1223.154673
1223.154685
1223.154566
1223.154585
1223.154536
1223.154552
1223.154782
1223.155241
1223.15304
1223.152923
1223.153014
1223.153121
1223.153101
1223.153074
1223.153221
1223.153243
1223.153297
1223.153197
1223.153311
1223.153502
1223.153568
1223.154014
1223.154292
1223.144481
1223.144451
1223.144412
1223.144389
1223.144315
1223.144258
1223.14414
1223.14434
1223.144329
1223.144183
1223.14428
1223.144461
1223.144709
1223.14483
1223.145216
1223.148215
1223.148217
1223.148226
1223.14814
1223.148285
1223.148241
1223.148257
1223.148195
1223.148355
1223.14828
1223.148263
1223.148302
1223.148281
1223.148415
1223.148514
1223.151771
1223.152063
1223.151878
1223.1519
1223.151778
1223.151811
1223.151697
1223.151864
1223.151736
1223.151636
1223.15155
1223.15165
1223.151678
1223.151925
1223.152012
1223.150944
1223.150823
1223.150762
1223.150695
1223.1507
1223.150731
1223.150687
1223.150809
1223.150917
1223.150989
1223.151015
1223.150963
1223.150797
1223.15073
1223.150855
1223.150817
1223.15086
1223.150844
1223.150935
1223.150987
1223.151014
1223.151005
1223.15096
1223.150928
1223.150868
1223.150904
1223.150906
1223.150897
1223.15083
1223.153864
1223.153963
1223.154012
1223.153907
1223.154009
1223.154094
1223.154119
1223.154137
1223.154162
1223.154239
1223.154069
1223.154168
1223.154157
1223.154123
1223.154446
1223.152677
1223.152749
1223.152685
1223.152604
1223.152619
1223.15284
1223.15289
1223.152812
1223.152929
1223.152916
1223.153004
1223.153168
1223.153032
1223.1532
1223.153761
1223.148642
1223.148673
1223.148769
1223.148884
1223.148848
1223.148972
1223.149078
1223.148896
1223.148932
1223.148859
1223.148973
1223.148937
1223.149169
1223.149482
1223.150525
1223.153536
1223.153685
1223.153591
1223.153516
1223.15367
1223.153679
1223.15381
1223.153974
1223.153942
1223.153732
1223.153705
1223.153699
1223.153998
1223.154755
1223.156308
1223.152923
1223.152823
1223.152869
1223.152764
1223.152839
1223.152642
1223.15253
1223.152378
1223.152485
1223.1524
1223.152314
1223.152393
1223.152364
1223.152866
1223.153885
1223.157609
1223.157752
1223.157579
1223.157365
1223.157338
1223.157402
1223.157397
1223.157397
1223.157195
1223.157217
1223.157009
1223.157025
1223.157085
1223.157311
1223.157803
1223.14723
1223.147166
1223.147167
1223.14718
1223.147355
1223.147496
1223.147499
1223.14741
1223.147537
1223.147709
1223.14765
1223.147637
1223.147649
1223.147703
1223.147947
1223.153994
1223.154181
1223.154311
1223.154361
1223.154119
1223.154112
1223.154203
1223.154121
1223.154169
1223.154119
1223.15414
1223.154288
1223.154209
1223.15433
1223.15437
1223.152275
1223.152472
1223.152479
1223.152542
1223.152431
1223.152453
1223.152327
1223.152433
1223.152464
1223.152398
1223.152356
1223.152258
1223.152432
1223.152817
1223.146452
1223.146394
1223.146388
1223.146257
1223.146235
1223.146325
1223.14634
1223.146509
1223.14653
1223.14655
1223.146498
1223.146504
1223.146591
1223.146731
1223.148843
1223.148893
1223.148775
1223.148877
1223.148706
1223.14875
1223.148469
1223.148443
1223.148418
1223.148508
1223.148418
1223.148662
1223.149059
1223.149543
1223.150863
1223.147184
1223.147165
1223.147162
1223.147182
1223.147094
1223.146833
1223.146915
1223.146868
1223.146935
1223.14697
1223.147014
1223.147155
1223.147519
1223.149175
1223.15266
1223.156835
1223.156956
1223.156979
1223.157001
1223.156758
1223.156651
1223.156664
1223.156797
1223.156793
1223.15679
1223.156871
1223.157085
1223.157886
1223.160965
1223.168001
1223.144596
1223.144542
1223.144558
1223.144681
1223.144796
1223.144943
1223.144831
1223.144754
1223.144841
1223.144986
1223.145005
1223.145348
1223.145763
1223.147452
1223.150808
1223.151323
1223.151408
1223.151566
1223.15157
1223.151629
1223.151696
1223.151737
1223.151759
1223.151859
1223.15182
1223.15197
1223.152001
1223.151976
1223.152459
1223.153894
1223.153479
1223.153592
1223.153519
1223.153359
1223.153313
1223.153353
1223.153352
1223.153386
1223.153306
1223.153252
1223.153291
1223.153409
1223.153356
1223.153492
1223.154083
1223.149012
1223.148965
1223.148834
1223.148774
1223.148967
1223.148798
1223.148848
1223.148893
1223.148929
1223.148929
1223.148903
1223.148795
1223.148798
1223.148839
1223.148835
1223.147165
1223.147083
1223.147105
1223.147018
1223.147076
1223.147305
1223.147218
1223.147238
1223.147182
1223.147148
1223.147009
1223.147073
1223.147115
1223.147421
1223.149351
1223.148995
1223.149172
1223.149115
1223.148942
1223.148921
1223.148797
1223.148757
1223.148858
1223.14873
1223.148598
1223.148692
1223.148924
1223.149295
1223.143859
1223.14389
1223.143859
1223.143802
1223.144033
1223.143967
1223.143997
1223.144066
1223.144131
1223.144115
1223.144049
1223.144306
1223.144949
1223.14654
1223.150201
1223.150229
1223.150139
1223.15031
1223.150431
1223.150366
1223.150467
1223.150446
1223.15019
1223.150284
1223.150307
1223.150747
1223.152083
1223.157103
1223.170017
1223.149557
1223.149588
1223.149587
1223.149579
1223.149376
1223.149392
1223.14943
1223.149192
1223.14928
1223.149406
1223.149584
1223.149999
1223.152908
1223.164973
1223.205387
1223.151934
1223.151932
1223.152079
1223.152122
1223.151912
1223.151781
1223.151851
1223.151873
1223.151803
1223.151731
1223.151708
1223.152003
1223.153376
1223.158464
1223.171208
1223.148749
1223.148636
1223.148731
1223.148908
1223.148872
1223.149013
1223.148855
1223.148703
1223.14872
1223.148775
1223.148696
1223.148964
1223.149463
1223.150945
1223.154516
1223.151616
1223.151801
1223.151776
1223.151699
1223.151718
1223.151633
1223.151655
1223.151739
1223.151809
1223.151911
1223.151949
1223.151981
1223.152099
1223.152532
1223.153332
1223.152208
1223.152091
1223.152194
1223.152128
1223.152167
1223.15235
1223.152341
1223.152298
1223.15232
1223.152292
1223.1523
1223.152256
1223.152231
1223.15261
1223.152841
1223.150304
1223.150352
1223.15037
1223.150466
1223.150423
1223.150335
1223.150254
1223.150188
1223.15024
1223.150368
1223.150429
1223.15051
1223.150638
1223.150841
1223.149148
1223.149082
1223.149126
1223.149137
1223.149192
1223.149255
1223.149302
1223.149248
1223.149261
1223.149294
1223.149186
1223.149162
1223.149299
1223.150126
1223.157862
1223.157903
1223.157787
1223.157726
1223.157818
1223.1578
1223.157795
1223.157727
1223.157722
1223.157873
1223.158041
1223.158318
1223.15895
1223.161725
1223.151585
1223.15148
1223.151561
1223.151386
1223.151235
1223.151443
1223.15137
1223.151386
1223.151471
1223.151502
1223.151763
1223.152254
1223.155272
1223.167526
1223.153764
1223.153837
1223.153511
1223.153407
1223.153537
1223.153622
1223.153698
1223.153846
1223.153688
1223.15376
1223.153884
1223.15521
1223.162328
1223.208618
1218.91544
1223.152273
1223.152198
1223.152058
1223.152081
1223.15212
1223.152252
1223.15237
1223.152287
1223.152405
1223.152391
1223.152592
1223.153147
1223.156141
1223.168595
1223.208913
1223.149675
1223.149625
1223.149592
1223.149706
1223.149516
1223.149389
1223.14933
1223.149399
1223.149561
1223.149467
1223.14949
1223.149851
1223.150815
1223.153699
1223.16101
1223.148136
1223.148146
1223.148071
1223.148036
1223.14809
1223.148173
1223.148013
1223.14789
1223.147887
1223.147646
1223.147678
1223.147645
1223.147964
1223.148588
1223.150201
1223.148164
1223.14822
1223.148195
1223.148125
1223.148252
1223.148195
1223.148241
1223.148335
1223.148397
1223.14842
1223.148386
1223.14844
1223.148447
1223.148829
1223.149368
1223.147007
1223.146999
1223.146784
1223.146744
1223.146743
1223.146779
1223.146818
1223.146908
1223.146878
1223.146706
1223.146637
1223.146742
1223.146959
1223.147181
1223.147598
1223.147421
1223.147389
1223.147524
1223.147488
1223.147432
1223.147474
1223.14729
1223.1472
1223.147314
1223.147339
1223.147506
1223.147641
1223.148035
1223.145561
1223.1457
1223.145814
1223.145802
1223.145739
1223.145886
1223.145878
1223.146006
1223.146
1223.145945
1223.146006
1223.146265
1223.147001
1223.148515
1223.148602
1223.148375
1223.148175
1223.148275
1223.148337
1223.148214
1223.148179
1223.148259
1223.148129
1223.147867
1223.147814
1223.148172
1223.149567
1223.154612
1223.152142
1223.152257
1223.152298
1223.152379
1223.152321
1223.152217
1223.152196
1223.152197
1223.152129
1223.151958
1223.152166
1223.152687
1223.155676
1223.168047
1223.147326
1223.147308
1223.147246
1223.147136
1223.147008
1223.147259
1223.147238
1223.147199
1223.147116
1223.147103
1223.146992
1223.147384
1223.148876
1223.153956
1223.149269
1223.149291
1223.149529
1223.149428
1223.149519
1223.149473
1223.149633
1223.149556
1223.149531
1223.149406
1223.149511
1223.149647
1223.150119
1223.15161
1223.15504
1223.14746
1223.147309
1223.147126
1223.147078
1223.147101
1223.147078
1223.146937
1223.147119
1223.147001
1223.14716
1223.147282
1223.147389
1223.147617
1223.148131
1223.149045
1223.148531
1223.148613
1223.148587
1223.148531
1223.148503
1223.148546
1223.148515
1223.148419
1223.148401
1223.148374
1223.148257
1223.148373
1223.148451
1223.148809
1223.149047
1223.148342
1223.148248
1223.148254
1223.148259
1223.148192
1223.148026
1223.148116
1223.148006
1223.148009
1223.148182
1223.148088
1223.148151
1223.148216
1223.148297
1223.153283
1223.153349
1223.153357
1223.15331
1223.153305
1223.153345
1223.153261
1223.153422
1223.15329
1223.153308
1223.153193
1223.153343
1223.153523
1223.153753
1223.155903
1223.155829
1223.155726
1223.155836
1223.156007
1223.156045
1223.156009
1223.155991
1223.155994
1223.155935
1223.156043
1223.156079
1223.156359
1223.156897
1223.151072
1223.151126
1223.151105
1223.151124
1223.1512
1223.151024
1223.151098
1223.151045
1223.150908
1223.15097
1223.151116
1223.151442
1223.152022
1223.153296
1223.143958
1223.144097
1223.144101
1223.144075
1223.144273
1223.144192
1223.144004
1223.144151
1223.14428
1223.144349
1223.144405
1223.144735
1223.145506
1223.148473
1223.151617
1223.151609
1223.151567
1223.151603
1223.151588
1223.151554
1223.151468
1223.151415
1223.151396
1223.151626
1223.151739
1223.151817
1223.152376
1223.153929
1223.151938
1223.151995
1223.152129
1223.152092
1223.152224
1223.152183
1223.1523
1223.152232
1223.152308
1223.152315
1223.152311
1223.152323
1223.152461
1223.153157
1223.153625
1223.153651
1223.153712
1223.153873
1223.153889
1223.153914
1223.153735
1223.15365
1223.153515
1223.1536
1223.153642
1223.153783
1223.153798
1223.154077
1223.154563
1223.150184
1223.150183
1223.150155
1223.150146
1223.150192
1223.150273
1223.150296
1223.150206
1223.150395
1223.150393
1223.150468
1223.150621
1223.150565
1223.15076
1223.1511
1223.153943
1223.153938
1223.153935
1223.154008
1223.153989
1223.153885
1223.153812
1223.153705
1223.15363
1223.153644
1223.153664
1223.153542
1223.153511
1223.15361
1223.147615
1223.147481
1223.147392
1223.147449
1223.147335
1223.147273
1223.147203
1223.147216
1223.147348
1223.1474
1223.147407
1223.14737
1223.147354
1223.147332
1223.150793
1223.150808
1223.150795
1223.150866
1223.150756
1223.150647
1223.15048
1223.150703
1223.150814
1223.150744
1223.151112
1223.151124
1223.151071
1223.15129
1223.149565
1223.14967
1223.149591
1223.149628
1223.149586
1223.149599
1223.149552
1223.149447
1223.149286
1223.149446
1223.149432
1223.149555
1223.149797
1223.150251
1223.153175
1223.153178
1223.15322
1223.15306
1223.152995
1223.153085
1223.153312
1223.153352
1223.153305
1223.153535
1223.153633
1223.153729
1223.15403
1223.154836
1223.150486
1223.150403
1223.150379
1223.150489
1223.150534
1223.150672
1223.150496
1223.150386
1223.150157
1223.150225
1223.150067
1223.150201
1223.150303
1223.15048
1223.150515
1223.150458
1223.150211
1223.15026
1223.150251
1223.150293
1223.150337
1223.150439
1223.150444
1223.150521
1223.150607
1223.150646
1223.150601
1223.151031
1223.15228
1223.152427
1223.152469
1223.152445
1223.15258
1223.152653
1223.152785
1223.152767
1223.153028
1223.153032
1223.153145
1223.1532
1223.153247
1223.153544
1223.153448
1223.153643
1223.153638
1223.153621
1223.153673
1223.153737
1223.153655
1223.153746
1223.153761
1223.153693
1223.153709
1223.153702
1223.153654
1223.153674
1223.153894
1223.148447
1223.148574
1223.148579
1223.148501
1223.148432
1223.148484
1223.148429
1223.148407
1223.14845
1223.148452
1223.148504
1223.148529
1223.148522
1223.148493
1223.150336
1223.150243
1223.15037
1223.150379
1223.150361
1223.150345
1223.150336
1223.150357
1223.150209
1223.150169
1223.150186
1223.150186
1223.150175
1223.150243
1223.148798
1223.148907
1223.14886
1223.148943
1223.148864
1223.148742
1223.148751
1223.148842
1223.148958
1223.148901
1223.148889
1223.148849
1223.14891
1223.14903
1223.152625
1223.152643
1223.152616
1223.152592
1223.152558
1223.152782
1223.152706
1223.152578
1223.152674
1223.152776
1223.152811
1223.152774
1223.152939
1223.153139
1223.150138
1223.150138
1223.150088
1223.150163
1223.150256
1223.150364
1223.150159
1223.150089
1223.150116
1223.150102
1223.150228
1223.150243
1223.150361
1223.150457
1223.156493
1223.156453
1223.156428
1223.156248
1223.156101
1223.156071
1223.156098
1223.156143
1223.156241
1223.156209
1223.156244
1223.156257
1223.156247
1223.156546
1223.153805
1223.153934
1223.153908
1223.153952
1223.154026
1223.15384
1223.153913
1223.15395
1223.154022
1223.153889
1223.153862
1223.153757
1223.153727
1223.153879
1223.145958
1223.145888
1223.14594
1223.14602
1223.146127
1223.146132
1223.146176
1223.146186
1223.14616
1223.146019
1223.145988
1223.145836
1223.145972
1223.145926
1223.15002
1223.149921
1223.149843
1223.149811
1223.14989
1223.149901
1223.149929
1223.149858
1223.149882
1223.149935
1223.150037
1223.150092
1223.150157
1223.150163
)
;

boundaryField
{
    top
    {
        type            zeroGradient;
    }
    bottom
    {
        type            zeroGradient;
    }
    side-walls
    {
        type            zeroGradient;
    }
    inlet
    {
        type            zeroGradient;
    }
    outlet
    {
        type            zeroGradient;
    }
    procBoundary0to1
    {
        type            processor;
        value           nonuniform List<scalar> 
97
(
1223.150839
1223.150839
1223.152797
1223.150093
1223.155715
1223.154938
1223.145887
1223.148962
1223.152293
1223.150945
1223.150839
1223.150839
1223.15478
1223.147247
1223.154344
1223.151851
1223.158207
1223.155243
1223.158397
1223.148191
1223.154545
1223.153061
1223.147247
1223.147247
1223.152518
1223.149912
1223.156254
1223.173407
1223.154539
1223.15564
1223.154846
1223.149228
1223.14782
1223.150176
1223.149912
1223.149912
1223.178661
1223.207628
1223.21183
1223.179683
1223.158242
1223.154717
1223.153244
1223.151261
1223.151371
1223.16896
1223.207628
1223.207628
1218.763578
1223.20819
1223.21524
1223.166687
1223.166612
1223.151929
1223.149872
1223.147479
1223.149014
1223.152071
1223.167506
1223.20819
1223.166687
1223.166687
1223.158682
1223.154451
1223.150321
1223.1494
1223.148505
1223.154098
1223.158309
1223.156825
1223.155849
1223.157537
1223.154451
1223.154451
1223.155265
1223.153712
1223.151418
1223.153454
1223.147734
1223.151725
1223.151271
1223.156425
1223.151407
1223.151502
1223.153712
1223.153712
1223.154118
1223.150103
1223.148625
1223.15027
1223.14929
1223.153548
1223.151017
1223.156818
1223.154008
1223.14604
1223.150103
)
;
    }
}


// ************************************************************************* //
