/*--------------------------------*- C++ -*----------------------------------*\
| =========                 |                                                 |
| \\      /  F ield         | OpenFOAM: The Open Source CFD Toolbox           |
|  \\    /   O peration     | Version:  4.x                                   |
|   \\  /    A nd           | Web:      www.OpenFOAM.org                      |
|    \\/     M anipulation  |                                                 |
\*---------------------------------------------------------------------------*/
FoamFile
{
    version     2.0;
    format      ascii;
    class       volVectorField;
    location    "7000";
    object      U;
}
// * * * * * * * * * * * * * * * * * * * * * * * * * * * * * * * * * * * * * //

dimensions      [0 1 -1 0 0 0 0];

internalField   nonuniform List<vector> 
1175
(
(0.01100000058 2.50303464e-10 2.474990023e-10)
(0.01100000165 1.453225373e-09 -2.088427707e-11)
(0.01100000163 1.391250893e-09 8.296228979e-10)
(0.01100000035 -1.026676345e-09 3.04780567e-09)
(0.01100000181 -3.162102391e-10 2.39123416e-09)
(0.01100000018 1.01578815e-09 1.738923874e-10)
(0.01100000449 7.674465383e-10 -5.633268427e-11)
(0.0110000063 6.647776713e-10 -5.064511638e-10)
(0.01100001159 -4.694208327e-10 -2.681641326e-09)
(0.01100002027 3.266109747e-10 -4.075845005e-09)
(0.01100003792 -3.952220667e-09 -4.410562491e-09)
(0.0110000492 -7.626182332e-09 -5.240868976e-09)
(0.01100008387 -1.036730468e-08 -9.239334063e-09)
(0.01100010792 -9.733851744e-09 -8.466805131e-09)
(0.01100016851 -1.911827912e-08 -1.554963338e-08)
(0.01100000037 8.354216286e-10 5.180194675e-10)
(0.01099999988 2.30833852e-11 -2.129025295e-09)
(0.01100000157 -4.948175344e-10 -3.709470326e-10)
(0.01099999867 -1.490606278e-09 -1.038341929e-10)
(0.01100000227 -1.157936431e-09 6.852589904e-10)
(0.01099999894 -1.202950241e-09 -2.173042773e-10)
(0.01100000186 -1.397204936e-09 -4.636435357e-10)
(0.01100000436 -8.441441984e-10 -4.478725519e-10)
(0.01100000932 -3.447261424e-09 -2.51251413e-09)
(0.01100001584 -4.947667595e-09 -3.347722896e-09)
(0.0110000306 -1.234954415e-08 -4.356092706e-09)
(0.01100004065 -1.591765904e-08 -7.680306229e-09)
(0.01100008086 -3.029622664e-08 -1.134930287e-08)
(0.01100010072 -3.100689637e-08 -1.043753842e-08)
(0.01100016416 -7.007503504e-08 -2.478909847e-08)
(0.01100000006 2.928182505e-10 -1.131755951e-09)
(0.01099999992 1.307164374e-10 -1.776645688e-09)
(0.01099999938 -5.172026351e-10 -4.168611037e-11)
(0.0109999984 -1.637054362e-09 3.641289175e-09)
(0.01100000035 -1.776579601e-09 2.783979958e-09)
(0.01099999921 -5.472670733e-10 -1.968477305e-09)
(0.01100000194 -3.238084198e-10 -7.441454149e-10)
(0.01100000203 -2.136344258e-09 -5.275032681e-09)
(0.01100000419 -5.110645716e-09 -3.935767654e-09)
(0.01100000827 -7.489627042e-09 -4.625867144e-09)
(0.01100002069 -1.224551603e-08 -7.26679948e-09)
(0.01100002473 -2.112072912e-08 -1.431480525e-08)
(0.01100006523 -3.208423534e-08 -1.744688371e-08)
(0.0110000686 -3.411385438e-08 -1.90460717e-08)
(0.01100016083 -8.352052964e-08 -5.702442907e-08)
(0.01100000079 -2.641810943e-10 -1.3634101e-09)
(0.01099999976 1.001102321e-09 1.350417711e-09)
(0.01099999896 1.68777796e-10 -8.7802397e-10)
(0.0109999983 -3.393229282e-10 -1.817376789e-09)
(0.01100000166 -1.035317296e-09 5.520474859e-10)
(0.01099999931 -7.135204534e-10 -1.434864114e-09)
(0.01099999958 -1.718473097e-09 -3.009233703e-09)
(0.01099999953 -5.199431234e-09 -2.396113822e-09)
(0.01100000564 -5.27626055e-09 -1.889884699e-09)
(0.01100000594 -7.142649449e-09 -4.187577969e-09)
(0.01100001592 -1.144016457e-08 -6.925984202e-09)
(0.01100001931 -2.52663457e-08 -1.276462079e-08)
(0.01100005945 -4.51522001e-08 -1.801983963e-08)
(0.01100004649 -5.697803397e-08 -1.523669502e-08)
(0.01100016951 -1.402033216e-07 -7.473891924e-08)
(0.0110000007 -2.004754811e-09 -1.237404594e-09)
(0.01099999873 -2.825946835e-09 -1.832752978e-09)
(0.01099999994 -1.865957273e-09 -9.652435851e-10)
(0.01099999888 -2.31055568e-09 2.189678901e-10)
(0.01099999932 -1.000607458e-09 -8.633252447e-10)
(0.01099999927 -1.797777736e-09 -3.67187441e-09)
(0.01099999702 -1.79320516e-09 -1.857375639e-09)
(0.01100000136 -7.282609831e-10 -4.288775053e-09)
(0.01100000135 1.151204476e-09 -3.809052089e-09)
(0.01099999667 1.551876416e-09 -7.823468292e-09)
(0.01100000207 1.191142278e-09 -1.048669839e-08)
(0.01099999179 1.64892541e-09 -2.465523783e-08)
(0.0110000255 1.203978421e-09 -3.558030517e-08)
(0.01099997353 5.371781288e-10 -5.7324447e-08)
(0.01100017609 1.331662014e-09 -1.941993649e-07)
(0.01099999973 -5.823388628e-10 1.138606903e-09)
(0.01100000018 -8.497690324e-10 5.255032195e-10)
(0.01099999987 -8.98150085e-10 -8.286364094e-10)
(0.01099999875 -3.306872697e-10 -2.344416524e-10)
(0.01099999909 1.794777239e-09 -1.689038512e-10)
(0.01100000021 -2.722928737e-10 -1.494505009e-09)
(0.01099999953 -9.431001545e-10 -2.300961277e-10)
(0.01100000139 2.716567589e-09 -3.551260361e-10)
(0.01100000714 4.370778614e-09 -1.127278646e-09)
(0.01100000251 7.68781223e-09 -4.285197554e-09)
(0.01100001529 1.436892905e-08 -6.158002884e-09)
(0.01100001799 2.565731151e-08 -1.234215075e-08)
(0.01100006055 4.46721401e-08 -1.49622325e-08)
(0.01100004706 5.859872533e-08 -1.466120053e-08)
(0.01100016749 1.386233592e-07 -7.462983219e-08)
(0.01099999943 -3.881566841e-10 4.001644617e-10)
(0.01099999999 -1.367461207e-09 4.368739011e-10)
(0.01100000204 -1.011421476e-09 5.197857513e-10)
(0.0109999981 7.876099735e-10 8.570420691e-10)
(0.01100000188 1.10900964e-09 1.133470686e-10)
(0.01099999924 1.722984626e-09 -5.999872864e-10)
(0.01100000466 2.591564212e-09 -1.40475594e-09)
(0.01100000311 4.612776008e-09 -2.963198629e-09)
(0.01100000696 7.423761532e-09 -6.858244065e-10)
(0.01100001018 1.012968224e-08 -4.449153068e-09)
(0.01100001815 1.410144526e-08 -4.971865873e-09)
(0.01100002284 2.199222646e-08 -1.055663133e-08)
(0.01100006145 3.36249663e-08 -1.864566669e-08)
(0.01100006691 3.381954544e-08 -1.661473508e-08)
(0.01100015941 8.491081024e-08 -5.606714864e-08)
(0.01099999771 9.912146418e-10 -1.676438617e-09)
(0.0110000014 -1.546671047e-10 2.568143363e-09)
(0.01100000036 -6.42615886e-10 7.883287501e-10)
(0.01100000133 -2.028466763e-10 -1.086398161e-09)
(0.01100000104 5.922538431e-10 -8.666140764e-10)
(0.01100000137 2.014161616e-09 -1.199414032e-09)
(0.0110000026 2.764107879e-09 -2.038938254e-09)
(0.01100000442 3.954619229e-09 -1.519815386e-09)
(0.01100001291 5.008367889e-09 -2.129008921e-09)
(0.01100001577 8.413624858e-09 -4.61490934e-09)
(0.01100002687 1.359966331e-08 -5.864444054e-09)
(0.01100003812 1.830416572e-08 -8.272946379e-09)
(0.01100007505 2.8813802e-08 -1.304656943e-08)
(0.01100009772 3.08269853e-08 -9.936689719e-09)
(0.01100016134 6.863663921e-08 -2.642630665e-08)
(0.0109999994 -9.377236849e-10 -1.183313214e-10)
(0.01099999982 -2.038382392e-10 -2.387584059e-09)
(0.01099999895 -6.737910563e-10 -3.259159712e-09)
(0.01100000189 -7.215661268e-10 1.5856279e-09)
(0.011000001 -5.148200298e-10 3.023193604e-09)
(0.01100000262 -6.413349205e-10 -6.151304729e-10)
(0.01100000339 3.067012463e-10 1.907946286e-10)
(0.0110000076 2.224378202e-10 -9.141379799e-10)
(0.0110000147 2.175263852e-09 -3.090994141e-09)
(0.01100002178 2.069446579e-09 4.436478007e-10)
(0.01100003155 3.320987991e-09 -4.16846679e-09)
(0.01100004344 3.089145811e-09 -3.414183934e-09)
(0.01100008177 8.29483296e-09 -1.096869521e-08)
(0.01100010872 8.144633145e-09 -9.733091757e-09)
(0.01100016352 1.936932802e-08 -1.747083979e-08)
(0.01099999991 7.64431826e-11 9.385990798e-10)
(0.01100000242 2.794721692e-09 1.183573075e-09)
(0.01100000122 3.907051226e-10 -1.774885789e-10)
(0.01099999906 -1.599155872e-10 4.859468282e-10)
(0.01099999994 -6.915255455e-10 9.332675508e-10)
(0.01100000111 1.212415541e-09 -1.237920556e-10)
(0.01100000309 4.089043715e-10 -1.466732236e-09)
(0.01100000484 1.129387616e-10 -1.527750298e-09)
(0.01100001254 -1.955369385e-09 -2.761034421e-09)
(0.01100001553 -3.070513663e-09 -4.975468433e-09)
(0.01100003073 -3.555855498e-09 -1.086945816e-08)
(0.01100004372 -8.237116262e-09 -1.695198962e-08)
(0.01100007902 -1.089980441e-08 -2.903678658e-08)
(0.01100009821 -9.08349917e-09 -2.989240349e-08)
(0.01099999978 -4.446636486e-10 2.880207471e-10)
(0.01100000122 2.204414164e-10 9.549276583e-10)
(0.01100000195 -4.05403814e-10 -9.466556955e-10)
(0.01099999981 4.681017585e-10 3.914354195e-11)
(0.01100000011 -5.326451316e-10 -2.160201983e-10)
(0.0110000005 -8.184595032e-10 3.528970325e-11)
(0.01099999997 -2.314191983e-09 -5.604417728e-10)
(0.01100000356 -3.372133841e-09 -3.536361832e-09)
(0.0110000087 -4.581750525e-09 -3.483203928e-09)
(0.01100001224 -8.600624862e-09 -6.759185533e-09)
(0.01100002493 -1.358134563e-08 -1.205925778e-08)
(0.01100003337 -2.203195906e-08 -2.038674065e-08)
(0.0110000763 -3.877817872e-08 -3.646408518e-08)
(0.01100007893 -4.278542194e-08 -3.997676153e-08)
(0.01100016908 -1.074868781e-07 -1.103249722e-07)
(0.01100000283 7.5526985e-10 -2.67279584e-10)
(0.01100000113 1.727759367e-10 3.585989086e-10)
(0.01099999962 -1.752519821e-09 -2.896791892e-10)
(0.01099999927 -1.585182038e-09 3.656566448e-10)
(0.01099999854 -9.736324572e-10 -3.518373044e-11)
(0.01099999861 -1.607714887e-09 -1.768728006e-10)
(0.01100000088 -2.036386772e-09 -2.766055687e-09)
(0.01100000055 -3.214245287e-09 -3.801155583e-09)
(0.01100000502 -5.942395273e-09 -5.29451425e-09)
(0.01100000464 -9.238216656e-09 -1.300526047e-08)
(0.01100001216 -1.506960459e-08 -1.75670694e-08)
(0.01100001442 -2.65517544e-08 -3.737342239e-08)
(0.01100005269 -3.947238395e-08 -6.103242792e-08)
(0.01100003113 -4.019632616e-08 -7.991191049e-08)
(0.011000164 -1.34481336e-07 -2.353787705e-07)
(0.01100000016 -1.189196764e-10 -2.136736106e-10)
(0.01099999724 -4.265959236e-11 2.631042547e-10)
(0.01099999909 -6.85149423e-10 -7.743588897e-10)
(0.01099999934 -2.077359161e-09 -5.153505528e-10)
(0.01099999931 -1.285037581e-09 -2.837545453e-10)
(0.01099999797 -2.269552611e-09 -2.507052927e-09)
(0.0110000004 -1.108137259e-09 -3.228028573e-09)
(0.01099999827 -4.329214117e-09 -5.739969378e-09)
(0.01100000061 -5.308113656e-09 -7.494394931e-09)
(0.01100000228 -1.020588729e-08 -1.401698518e-08)
(0.01100000704 -1.646951138e-08 -1.675137856e-08)
(0.01100000884 -3.650237056e-08 -4.412693743e-08)
(0.01100005087 -6.271221643e-08 -6.266958091e-08)
(0.01099999747 -9.562855903e-08 -9.877693547e-08)
(0.01100016922 -2.813067015e-07 -3.578584218e-07)
(0.01100000059 -9.477486524e-10 4.925527537e-10)
(0.01099999949 -1.579791267e-09 8.241517691e-10)
(0.01100000097 -6.049286365e-10 -1.336637457e-10)
(0.01099999744 -2.58359466e-12 -1.091083294e-09)
(0.01099999792 -1.46302519e-09 -5.342246623e-10)
(0.01099999892 -7.190239199e-10 -2.578503181e-09)
(0.01099999754 -1.829527698e-09 -3.926653693e-09)
(0.01099999718 1.643509953e-09 -5.265238211e-09)
(0.01099999452 1.980490485e-09 -7.096407289e-09)
(0.01099999274 1.231543332e-09 -1.990880791e-08)
(0.01099998428 1.576176169e-09 -2.80222667e-08)
(0.01099996259 8.861371572e-10 -8.018563297e-08)
(0.01099997413 2.094055187e-09 -1.264579239e-07)
(0.01099983325 3.565263798e-11 -2.772455426e-07)
(0.01100018701 2.291012175e-10 -9.008429189e-07)
(0.01099999994 -1.595277391e-10 4.211437089e-11)
(0.01099999858 -1.232373255e-10 4.553798826e-10)
(0.01100000034 -4.4698705e-10 -4.03886105e-10)
(0.01099999771 4.38656918e-10 -2.879393121e-10)
(0.01100000087 2.789322062e-10 -1.849837867e-09)
(0.01100000038 4.088391208e-10 -1.332517726e-09)
(0.01099999977 1.282560838e-09 -1.682071168e-09)
(0.01099999938 2.47664217e-09 -4.002539867e-09)
(0.01100000144 4.813342643e-09 -6.488404462e-09)
(0.01099999887 1.063468533e-08 -1.368046886e-08)
(0.01100000504 1.644253508e-08 -1.825243771e-08)
(0.01100000857 3.620132219e-08 -4.409510183e-08)
(0.01100004688 6.288804544e-08 -6.236651271e-08)
(0.01099999639 9.783256106e-08 -9.719163803e-08)
(0.01100016635 2.804330538e-07 -3.556195936e-07)
(0.01099999955 -1.448308839e-09 2.324860969e-10)
(0.01100000035 -5.698054877e-10 1.953631782e-09)
(0.01100000051 3.913583974e-11 -8.321794919e-10)
(0.01100000003 -7.282408369e-10 -4.391353872e-10)
(0.01099999808 1.479526554e-09 -3.263952691e-10)
(0.01100000084 1.843949108e-09 -1.370010068e-09)
(0.01100000076 2.125105766e-09 -2.318710235e-09)
(0.01100000342 3.038801852e-09 -6.115758343e-09)
(0.0110000026 4.57181262e-09 -6.485410729e-09)
(0.01100000577 8.677020334e-09 -1.219623771e-08)
(0.01100001176 1.619127938e-08 -1.785239219e-08)
(0.01100000954 2.640118161e-08 -3.679271884e-08)
(0.01100005126 3.652265105e-08 -6.21515145e-08)
(0.01100002554 3.821320195e-08 -8.002911547e-08)
(0.01100016209 1.339551248e-07 -2.345979726e-07)
(0.01099999998 -2.827755355e-11 -1.592622451e-10)
(0.01099999933 -9.830161865e-11 1.311445418e-10)
(0.01099999877 -1.335594246e-09 5.489763158e-11)
(0.01099999895 -1.195831755e-09 -1.036227788e-09)
(0.01100000137 4.307872502e-10 8.997583952e-11)
(0.01100000198 1.270762517e-09 -1.801960288e-09)
(0.01100000176 2.419171902e-09 -3.107447523e-09)
(0.01100000267 2.758710516e-09 -3.089708432e-09)
(0.01100000618 6.619793303e-09 -6.837171161e-09)
(0.01100001427 9.771094088e-09 -9.487334167e-09)
(0.01100002411 1.289815663e-08 -1.361977606e-08)
(0.0110000313 2.317239847e-08 -2.365248901e-08)
(0.01100007091 3.866333416e-08 -3.996063432e-08)
(0.0110000803 4.057080829e-08 -4.191329993e-08)
(0.01100016588 1.075152327e-07 -1.088076156e-07)
(0.01099999936 -2.214362188e-10 -1.176183278e-11)
(0.01100000007 -1.43474308e-11 3.667919135e-10)
(0.01100000121 1.335738887e-10 9.707730432e-10)
(0.01100000081 4.841554009e-10 2.444349192e-10)
(0.01100000042 7.39905636e-11 -8.705524024e-10)
(0.01099999925 5.109782019e-10 -1.367296459e-09)
(0.01100000392 -6.484577011e-10 -1.89567915e-09)
(0.01100000654 6.769332219e-10 -4.888954762e-09)
(0.01100001174 1.535076227e-09 -4.621897106e-09)
(0.01100001717 4.306494995e-09 -7.315648901e-09)
(0.01100002701 4.687068275e-09 -1.300051081e-08)
(0.01100004006 6.460732057e-09 -1.934312973e-08)
(0.01100007606 1.226102001e-08 -3.089117133e-08)
(0.01100009763 9.293600286e-09 -3.285386021e-08)
(0.01100016454 2.702930759e-08 -7.013121632e-08)
(0.01099999918 9.824143025e-11 8.948588622e-10)
(0.01100000158 -2.20484322e-11 1.000660894e-09)
(0.01099999872 3.2950416e-10 -8.622249793e-10)
(0.01099999899 -1.862759952e-09 1.831252601e-10)
(0.01099999977 -1.348108136e-09 -5.492068322e-10)
(0.01100000052 3.147901757e-09 -4.221324914e-10)
(0.01099999946 -9.768853796e-10 4.127540189e-10)
(0.01100000272 -3.178641757e-10 -2.30756434e-09)
(0.01100000761 -1.197850789e-09 -6.071125394e-09)
(0.01100000977 -4.859507842e-09 -8.685560894e-09)
(0.01100001961 -5.272705944e-09 -1.186995185e-08)
(0.0110000243 -8.786228937e-09 -2.247581088e-08)
(0.01100006314 -1.969342635e-08 -3.334147863e-08)
(0.0110000672 -1.655135838e-08 -3.316707606e-08)
(0.01099999827 -9.700520208e-13 3.491326292e-10)
(0.01099999935 4.172730539e-10 2.542217347e-09)
(0.01100000125 1.816957375e-10 1.570385445e-09)
(0.01099999808 3.038077426e-10 -3.228643316e-10)
(0.01099999785 -2.055145576e-09 -1.79025641e-10)
(0.01100000169 -1.242479927e-09 -3.184307086e-09)
(0.01099999831 -2.518517778e-09 -1.937553201e-09)
(0.01099999925 -4.202660844e-09 -2.245945016e-09)
(0.01100000276 -5.771585526e-09 -6.413738718e-09)
(0.01100000536 -1.260093523e-08 -1.080707684e-08)
(0.01100001234 -1.754816004e-08 -1.431479958e-08)
(0.01100001223 -3.542232493e-08 -2.513014513e-08)
(0.01100004992 -6.307938865e-08 -3.884723726e-08)
(0.01100002787 -8.050356325e-08 -3.968821576e-08)
(0.01100000085 -1.392290321e-09 1.674089902e-10)
(0.01100000091 -1.682334359e-09 -9.523001909e-11)
(0.01099999822 -9.583084647e-10 4.779470689e-11)
(0.01099999771 -2.603534169e-09 -2.156556689e-09)
(0.01099999923 -1.146972457e-09 -2.057081851e-09)
(0.01099999901 -3.358357684e-09 -2.521147952e-09)
(0.01099999644 -5.78046339e-09 -2.069728021e-09)
(0.0109999968 -6.911657832e-09 -2.284474263e-09)
(0.01099999308 -7.284861919e-09 -7.431187095e-09)
(0.01099999597 -1.329566382e-08 -1.436849394e-08)
(0.01099999326 -1.702970465e-08 -1.711015024e-08)
(0.01099997706 -4.201662623e-08 -3.965513942e-08)
(0.01100000266 -5.645781579e-08 -5.541241113e-08)
(0.01099990574 -9.074491709e-08 -8.814170772e-08)
(0.01100014177 -3.344017008e-07 -3.40457403e-07)
(0.01100000047 3.46104585e-10 6.027432139e-11)
(0.01100000121 -3.548066317e-10 -1.967223598e-10)
(0.0109999986 -1.104465501e-09 -4.339891155e-10)
(0.01099999864 -2.351705658e-09 -1.374635127e-09)
(0.01100000004 -1.750114559e-09 -2.062857459e-09)
(0.01099999728 -2.474790321e-09 -2.396401399e-09)
(0.01099999384 -2.71783549e-09 -2.96857461e-09)
(0.0109999946 -4.773854149e-09 -5.002926812e-09)
(0.01099999263 -6.974131199e-09 -5.754138152e-09)
(0.01099999343 -1.527588977e-08 -1.653120891e-08)
(0.01099998133 -2.366285366e-08 -1.153550879e-08)
(0.01099997784 -7.044653897e-08 -4.866717469e-08)
(0.01099996427 -1.111039995e-07 -1.652824931e-08)
(0.01099983259 -2.587041664e-07 -8.982691653e-08)
(0.01100005562 -8.177070397e-07 -4.73553176e-07)
(0.01099999995 1.0642371e-10 8.548321817e-10)
(0.01099999956 8.472323007e-10 4.038761225e-10)
(0.01099999922 -2.005066092e-09 6.523527895e-10)
(0.01099999906 -5.922890856e-10 -7.678498336e-10)
(0.01099999949 -2.289632355e-10 -9.477078907e-10)
(0.01099999724 -9.468048418e-10 -1.222444229e-09)
(0.01099999489 -2.964141869e-10 -3.727397318e-09)
(0.01099999283 7.418387966e-11 -8.974872157e-09)
(0.01099998173 1.127133083e-10 -9.363233146e-09)
(0.01099997831 -7.14259228e-10 -2.72687772e-08)
(0.0109999344 5.064575113e-11 -2.590870641e-08)
(0.01099989403 -1.522845702e-09 -1.160103402e-07)
(0.01099974578 -4.377270738e-11 -1.035112159e-07)
(0.01099936117 6.44590835e-10 -5.085687169e-07)
(0.01099988986 -4.216858988e-10 -1.724178792e-06)
(0.01100000051 -1.757138655e-09 -5.740891406e-10)
(0.01099999839 -1.040296129e-09 7.3166835e-10)
(0.01099999816 -4.078353957e-10 9.515993446e-10)
(0.0109999987 1.199827997e-10 -1.341736177e-09)
(0.01099999919 -8.162648137e-10 1.761815008e-09)
(0.01100000143 7.597148447e-10 -9.491676046e-10)
(0.0109999962 2.303673093e-09 -1.814230088e-09)
(0.01099999467 3.677859092e-09 -6.093230198e-09)
(0.01099999252 5.947780476e-09 -7.064546989e-09)
(0.01099999292 1.679068968e-08 -1.869564085e-08)
(0.01099997771 2.403908227e-08 -1.377716011e-08)
(0.01099997733 6.88626928e-08 -5.055658035e-08)
(0.01099996566 1.107639345e-07 -1.858983859e-08)
(0.01099983325 2.59998587e-07 -9.245357725e-08)
(0.01100005474 8.207909278e-07 -4.740740874e-07)
(0.01100000016 -8.567640659e-10 6.463616894e-10)
(0.01099999799 -2.12353924e-09 3.747742358e-10)
(0.01100000074 2.301073255e-10 7.463987256e-10)
(0.01100000079 -8.985875105e-11 -9.103247105e-10)
(0.01100000138 2.526933082e-09 -1.48893595e-09)
(0.01100000049 2.039937721e-09 -1.007993007e-09)
(0.01099999713 1.684735124e-09 -3.060659139e-09)
(0.01099999997 4.339248542e-09 -4.30058206e-09)
(0.01099999741 7.34092884e-09 -6.571470083e-09)
(0.01099999632 1.444145721e-08 -1.512546426e-08)
(0.01099999364 1.900580066e-08 -2.001973152e-08)
(0.01099997716 4.164723232e-08 -4.350081138e-08)
(0.01100000189 5.616162018e-08 -5.781969538e-08)
(0.01099990522 8.736794517e-08 -8.924132188e-08)
(0.01100014328 3.379103725e-07 -3.395112954e-07)
(0.01099999913 -2.154989004e-09 6.917350403e-10)
(0.01100000079 -9.196585935e-12 9.246605706e-10)
(0.01100000091 -4.765480952e-10 1.153647891e-10)
(0.011 4.478610118e-10 7.850877704e-10)
(0.01099999949 8.64787111e-10 -1.4833345e-09)
(0.01099999764 8.302717961e-10 -2.005627586e-09)
(0.01099999884 2.180605968e-09 -2.979141985e-09)
(0.01100000193 4.161756996e-09 -4.513098111e-09)
(0.01100000459 6.264821679e-09 -5.983173421e-09)
(0.01100000553 1.169534374e-08 -9.651612269e-09)
(0.01100001211 1.614953017e-08 -1.554254692e-08)
(0.01100001062 3.712378977e-08 -2.54510611e-08)
(0.01100005356 6.089731997e-08 -3.847307211e-08)
(0.01100002641 7.872882237e-08 -3.988764956e-08)
(0.01100016364 2.350302259e-07 -1.355249325e-07)
(0.01100000195 -7.155826294e-10 -9.306906786e-10)
(0.0110000014 -1.80025958e-10 -3.542539915e-10)
(0.01099999983 -5.02532728e-10 -9.505575566e-10)
(0.01100000039 -4.924072163e-10 -2.781627276e-10)
(0.0110000027 5.252919533e-10 -1.0353765e-09)
(0.01099999798 -2.982151622e-10 -7.130390527e-10)
(0.0110000012 9.07948479e-12 -1.619597994e-09)
(0.0110000032 2.026775826e-09 -1.688730668e-09)
(0.01100000888 2.861585295e-09 -5.746071401e-09)
(0.01100000913 4.94357025e-09 -1.075778034e-08)
(0.01100002004 4.862254438e-09 -1.405694647e-08)
(0.01100002259 1.108014684e-08 -2.008718875e-08)
(0.01100006162 1.804002593e-08 -3.332476612e-08)
(0.01100006628 1.630560471e-08 -3.340049124e-08)
(0.01100016011 5.717040574e-08 -8.45912515e-08)
(0.01100000024 -7.39066354e-10 1.916382998e-10)
(0.0109999982 -9.170701339e-10 5.594301016e-10)
(0.01100000111 4.609480206e-10 5.101369261e-10)
(0.0109999994 1.26769042e-09 -3.406104401e-10)
(0.01099999873 3.690262236e-10 -6.888196615e-10)
(0.01100000424 1.340017284e-10 2.310579306e-10)
(0.01100000005 -1.476666384e-09 -2.619437719e-09)
(0.01100000167 8.429980833e-10 -2.208610712e-09)
(0.01100000501 -2.564310844e-09 -3.987585991e-09)
(0.0110000068 -5.330523869e-09 -7.893862961e-09)
(0.01100001758 -5.998414741e-09 -1.351896239e-08)
(0.01100001856 -1.192331902e-08 -2.348328863e-08)
(0.01100005991 -1.337432828e-08 -4.531187755e-08)
(0.011000047 -1.548272757e-08 -5.678441731e-08)
(0.01100000174 -7.514630862e-10 -1.714487803e-09)
(0.01100000154 -8.098346555e-10 8.391465792e-10)
(0.01099999802 3.396413206e-10 7.507984928e-10)
(0.01099999826 -1.31308038e-09 1.322146769e-10)
(0.01099999873 -1.222452872e-09 -1.426447574e-10)
(0.0109999999 -1.233685103e-09 -6.643918465e-10)
(0.01099999956 -2.365135624e-09 -2.817856422e-09)
(0.0109999991 -3.969787895e-09 -3.525354382e-09)
(0.01099999846 -6.60953566e-09 -4.344562155e-09)
(0.0110000021 -1.368618627e-08 -9.612383579e-09)
(0.01100000812 -1.685824277e-08 -1.55519458e-08)
(0.01100000845 -4.25314049e-08 -3.641477362e-08)
(0.01100004671 -6.312237127e-08 -6.313349574e-08)
(0.0109999991 -9.796625903e-08 -9.794089512e-08)
(0.01099999936 -9.163975467e-10 -9.728266521e-10)
(0.01100000196 -2.195175938e-09 1.241635468e-09)
(0.01099999761 -1.531069915e-09 8.220376983e-10)
(0.01099999582 -1.197713977e-09 3.576274562e-10)
(0.01099999933 -1.770176282e-09 -4.704797324e-10)
(0.01099999849 -3.187863501e-09 -8.976034939e-10)
(0.01099999636 -2.838632434e-09 -2.179448357e-09)
(0.01099999521 -6.401021129e-09 -5.824148304e-09)
(0.01099998903 -5.913953516e-09 -6.707869948e-09)
(0.01099999417 -1.606576559e-08 -1.606992541e-08)
(0.01099998155 -1.173991644e-08 -2.254794213e-08)
(0.01099997612 -4.814551299e-08 -7.106227478e-08)
(0.01099996481 -1.887124303e-08 -1.100638091e-07)
(0.01099983069 -9.155669308e-08 -2.572525599e-07)
(0.01099999985 -2.587293843e-10 -5.342289972e-10)
(0.01100000072 5.583302554e-10 3.236735599e-10)
(0.01099999884 -6.838729118e-10 1.109057069e-09)
(0.01099999811 -4.668843643e-10 5.109966567e-10)
(0.01099999723 -6.177409357e-10 1.033187049e-09)
(0.01099999769 -2.858432355e-09 -5.726168511e-10)
(0.0109999949 -1.889733668e-09 -2.907679848e-09)
(0.01099999603 -7.106777037e-09 -5.484209002e-09)
(0.01099998498 -7.094892641e-09 -7.320576134e-09)
(0.0109999949 -2.137128983e-08 -2.219930612e-08)
(0.01099996784 -2.608048823e-08 -2.317099367e-08)
(0.01100002297 -1.123460707e-07 -1.092729565e-07)
(0.01099989794 -1.100940654e-07 -1.107244538e-07)
(0.01099993628 -5.161051473e-07 -5.172013745e-07)
(0.01099926347 -1.666072452e-06 -1.666553188e-06)
(0.0110000022 -2.204220714e-10 -7.998157243e-10)
(0.01100000097 8.422879116e-10 -1.162035215e-10)
(0.01099999668 -1.47343965e-09 4.0703966e-10)
(0.01099999931 -1.989906068e-09 3.373330936e-10)
(0.01099999645 -1.373437704e-09 4.067949979e-10)
(0.01099999544 4.581148204e-10 -7.469714148e-10)
(0.01099999362 -1.001387203e-09 -1.133154762e-09)
(0.01099998921 -1.589838487e-09 -4.3910849e-09)
(0.01099997281 -2.52157465e-11 -1.003470553e-08)
(0.01099997473 -4.661907771e-10 -3.513969358e-08)
(0.01099988251 -2.989149096e-10 -4.502057782e-08)
(0.01099991444 -8.40774477e-10 -2.55575643e-07)
(0.01099935132 -7.23873151e-10 -3.466470346e-07)
(0.01099918116 -5.283796948e-10 -2.458425802e-06)
(0.01099670397 1.19498448e-09 -8.12811302e-06)
(0.011000001 -5.381617817e-10 -8.258199789e-10)
(0.01100000025 -9.903087694e-10 5.278748215e-10)
(0.01099999881 -5.673862925e-11 3.624248546e-10)
(0.01100000075 2.865603738e-10 2.027307264e-09)
(0.01099999899 1.038033994e-09 -7.25729467e-10)
(0.01099999758 2.227641928e-10 -2.330015965e-10)
(0.01099999514 1.124148623e-09 -2.89154705e-09)
(0.01099999436 6.239169661e-09 -5.461444715e-09)
(0.01099998764 8.385982462e-09 -6.729971132e-09)
(0.01099999593 2.173769423e-08 -2.312588473e-08)
(0.01099996591 2.486026681e-08 -2.376559222e-08)
(0.01100002141 1.108338147e-07 -1.103893724e-07)
(0.01099989856 1.088824988e-07 -1.089410134e-07)
(0.01099993673 5.168705354e-07 -5.172331993e-07)
(0.01099926473 1.666936707e-06 -1.666671902e-06)
(0.01099999999 2.16908457e-10 -3.057502033e-10)
(0.01099999926 -1.973646648e-09 -9.317004364e-11)
(0.01099999768 -1.140905766e-09 1.367912831e-09)
(0.01099999983 5.399494178e-10 6.301904992e-10)
(0.01099999874 8.313010926e-10 1.389400561e-09)
(0.01099999907 9.302825294e-10 -6.669308814e-10)
(0.01099999739 1.201188591e-09 -8.431263725e-10)
(0.01099999678 4.891734799e-09 -2.069914737e-09)
(0.01099999358 4.809443354e-09 -4.820418854e-09)
(0.01099999221 1.698228066e-08 -1.524245201e-08)
(0.01099998016 1.239110061e-08 -2.202631674e-08)
(0.01099997664 4.933571871e-08 -6.826177216e-08)
(0.01099996468 1.95943148e-08 -1.103683367e-07)
(0.01099983204 8.974309258e-08 -2.579833526e-07)
(0.01100005486 4.719575199e-07 -8.186986594e-07)
(0.01099999995 -1.756436738e-09 7.463527038e-11)
(0.01099999834 -4.025120964e-10 1.691115895e-09)
(0.01100000067 -6.584822527e-10 7.824588917e-10)
(0.01099999953 8.275282039e-10 -2.273738831e-11)
(0.01099999801 1.35278438e-09 -2.464484343e-10)
(0.01099999702 1.21571458e-09 -2.379122914e-10)
(0.01099999816 1.563801936e-09 -9.802558218e-10)
(0.01100000041 4.65225233e-09 -3.204175574e-09)
(0.01100000031 7.315014725e-09 -3.584520859e-09)
(0.01100000266 1.4090646e-08 -1.083002411e-08)
(0.01100000848 1.792213819e-08 -1.638127328e-08)
(0.01100000819 4.263337707e-08 -3.57657796e-08)
(0.01100004613 6.212802344e-08 -6.372277468e-08)
(0.01099999759 9.616713314e-08 -9.698722526e-08)
(0.01100016854 3.56354139e-07 -2.808915004e-07)
(0.01100000085 -1.414724083e-09 4.533936723e-10)
(0.01100000002 -1.332131582e-09 5.221627868e-10)
(0.01100000163 -9.879761789e-10 1.539372148e-09)
(0.01100000139 4.903522867e-10 7.411322685e-10)
(0.01099999899 1.377898194e-09 7.828162478e-10)
(0.01099999971 1.256481305e-09 -1.306321515e-09)
(0.01100000188 1.803947016e-09 -2.191200815e-09)
(0.01100000239 2.453954619e-09 -2.719011701e-09)
(0.01100000349 3.195846222e-09 -3.654387421e-09)
(0.01100000533 5.365970148e-09 -7.356784755e-09)
(0.0110000152 4.230735696e-09 -1.174272607e-08)
(0.01100001925 1.286287975e-08 -2.46552176e-08)
(0.01100005728 1.538975264e-08 -4.223622821e-08)
(0.01100004692 1.64531017e-08 -5.554856829e-08)
(0.0110001694 7.425417583e-08 -1.38346759e-07)
(0.01099999886 3.664000092e-11 -3.811213532e-10)
(0.0109999989 -4.953424262e-10 -3.833568963e-10)
(0.01099999868 9.412526577e-10 1.741335949e-09)
(0.01099999951 9.931027121e-10 -6.305165492e-10)
(0.01100000028 9.537487901e-10 1.329953524e-09)
(0.01099999937 1.120907537e-09 1.156448455e-09)
(0.01099999889 -2.095600786e-09 7.529130491e-11)
(0.01099999798 -1.048833646e-09 -5.630837246e-10)
(0.01099999666 -3.846648686e-09 -3.607772637e-10)
(0.01099999835 -6.728688167e-09 -6.048399973e-10)
(0.01100000287 -6.944039209e-09 1.49425607e-10)
(0.01099999023 -1.959292116e-08 1.237567878e-09)
(0.01100002589 -3.422948275e-08 -5.587888531e-10)
(0.01099997108 -5.520105416e-08 -7.998325581e-10)
(0.01100000083 -1.907448768e-09 4.10679635e-10)
(0.01100000237 5.384784267e-10 -1.154200074e-09)
(0.01099999714 2.403804008e-10 -8.8183881e-10)
(0.01099999789 -1.172444216e-10 -4.1789296e-10)
(0.0109999987 -8.38522186e-10 -1.361730207e-10)
(0.01099999863 -1.678943092e-09 7.10993008e-10)
(0.01099999684 -3.587159199e-09 -1.215311492e-09)
(0.01099999659 -4.971333961e-09 -1.999700195e-09)
(0.01099999314 -8.716943517e-09 -7.45033661e-10)
(0.01099999291 -1.911888003e-08 -1.89711713e-10)
(0.01099998512 -2.577265613e-08 2.939272647e-10)
(0.01099996459 -7.967179224e-08 5.693532332e-10)
(0.01099997349 -1.250989882e-07 -4.709128148e-10)
(0.01099983174 -2.768003483e-07 1.981596802e-09)
(0.01100000033 1.606951393e-10 -6.116497499e-10)
(0.01100000348 -1.032420599e-09 6.465381813e-11)
(0.01099999948 -3.8012839e-09 -1.046938133e-09)
(0.01099999763 -1.725271421e-09 2.086431825e-09)
(0.01099999802 -1.762120998e-09 1.004314276e-09)
(0.01099999653 -1.882472081e-09 -5.063012405e-10)
(0.01099999447 -3.009505708e-09 4.21236432e-10)
(0.0109999935 -9.197121152e-09 -1.023222672e-09)
(0.01099998073 -1.011121353e-08 -5.715063931e-10)
(0.01099997792 -2.556400013e-08 1.433190992e-09)
(0.01099993387 -2.554027339e-08 1.290893162e-10)
(0.01099989481 -1.163194874e-07 6.588223454e-10)
(0.01099974614 -1.033808137e-07 -9.170178788e-10)
(0.01099935681 -5.089126195e-07 1.093027888e-09)
(0.01099999874 6.123296018e-10 -3.905322194e-10)
(0.01099999738 -3.944407743e-10 1.180787594e-10)
(0.01099999867 1.240297636e-10 7.413461688e-10)
(0.01099999889 -9.734682743e-10 1.167875917e-09)
(0.01099999675 1.39438912e-10 2.597304505e-09)
(0.01099999803 -7.436174512e-10 1.953239047e-09)
(0.01099999154 -1.598684986e-09 -1.745444067e-10)
(0.01099999101 -6.230265161e-09 1.250663619e-10)
(0.01099997234 -8.915563281e-09 5.249267928e-10)
(0.0109999763 -3.730214515e-08 4.035469867e-10)
(0.0109998835 -4.619480808e-08 -1.44932139e-11)
(0.01099991256 -2.573187661e-07 7.941403572e-10)
(0.0109993507 -3.484861152e-07 -1.127212147e-10)
(0.01099918033 -2.457903517e-06 4.592867816e-10)
(0.01100000015 -7.403336794e-10 -8.475678955e-10)
(0.0110000006 7.979707636e-11 3.383968382e-10)
(0.01099999726 3.194800132e-10 5.865525081e-10)
(0.01099999783 6.241846297e-10 6.945890839e-10)