/*--------------------------------*- C++ -*----------------------------------*\
| =========                 |                                                 |
| \\      /  F ield         | OpenFOAM: The Open Source CFD Toolbox           |
|  \\    /   O peration     | Version:  4.x                                   |
|   \\  /    A nd           | Web:      www.OpenFOAM.org                      |
|    \\/     M anipulation  |                                                 |
\*---------------------------------------------------------------------------*/
FoamFile
{
    version     2.0;
    format      ascii;
    class       volScalarField;
    location    "7000";
    object      X_CO2;
}
// * * * * * * * * * * * * * * * * * * * * * * * * * * * * * * * * * * * * * //

dimensions      [0 0 0 0 0 0 0];

internalField   nonuniform List<scalar> 
1175
(
0.03999466451
0.03999466451
0.03999466451
0.03999466451
0.03999466453
0.03999466458
0.03999466477
0.03999466538
0.03999466731
0.03999467311
0.03999468956
0.03999473315
0.03999483937
0.03999507357
0.03999553364
0.03999466451
0.03999466451
0.03999466451
0.03999466451
0.03999466453
0.03999466461
0.03999466486
0.03999466571
0.03999466851
0.03999467725
0.0399947031
0.03999477435
0.03999495397
0.03999535867
0.03999615369
0.03999466451
0.03999466451
0.03999466451
0.03999466452
0.03999466454
0.03999466464
0.03999466501
0.0399946663
0.03999467072
0.03999468517
0.03999472996
0.0399948593
0.03999519925
0.03999598762
0.03999754012
0.03999466451
0.03999466451
0.03999466451
0.03999466452
0.03999466455
0.03999466468
0.03999466517
0.03999466694
0.0399946732
0.03999469449
0.03999476331
0.03999497095
0.03999554068
0.03999690767
0.03999961895
0.03999466451
0.03999466451
0.03999466451
0.03999466452
0.03999466456
0.0399946647
0.03999466524
0.03999466724
0.03999467443
0.03999469936
0.03999478192
0.03999503829
0.03999576488
0.03999756336
0.04000117557
0.03999466451
0.03999466451
0.03999466451
0.03999466452
0.03999466455
0.03999466468
0.03999466517
0.03999466694
0.0399946732
0.03999469449
0.03999476331
0.03999497095
0.03999554067
0.03999690765
0.03999961891
0.03999466451
0.03999466451
0.03999466451
0.03999466452
0.03999466454
0.03999466464
0.03999466501
0.0399946663
0.03999467072
0.03999468517
0.03999472996
0.0399948593
0.03999519925
0.03999598761
0.03999754009
0.03999466451
0.03999466451
0.03999466451
0.03999466451
0.03999466453
0.03999466461
0.03999466486
0.03999466571
0.03999466851
0.03999467725
0.0399947031
0.03999477434
0.03999495396
0.03999535866
0.03999615367
0.03999466451
0.03999466451
0.03999466451
0.03999466451
0.03999466453
0.03999466458
0.03999466477
0.03999466538
0.03999466731
0.03999467311
0.03999468956
0.03999473315
0.03999483937
0.03999507356
0.03999553362
0.03999466451
0.03999466451
0.03999466451
0.03999466451
0.03999466453
0.03999466461
0.03999466486
0.03999466571
0.03999466851
0.03999467725
0.0399947031
0.03999477435
0.03999495397
0.03999535868
0.03999466451
0.03999466451
0.03999466451
0.03999466452
0.03999466454
0.03999466464
0.03999466499
0.03999466625
0.03999467055
0.03999468475
0.03999472911
0.03999485833
0.03999520086
0.03999600016
0.03999757552
0.03999466451
0.03999466451
0.03999466451
0.03999466452
0.03999466456
0.0399946647
0.03999466524
0.03999466725
0.03999467453
0.03999470002
0.03999478486
0.03999504853
0.03999579187
0.03999761176
0.04000123586
0.03999466451
0.03999466451
0.03999466451
0.03999466452
0.03999466457
0.03999466476
0.0399946655
0.03999466839
0.03999467934
0.03999471967
0.03999486206
0.03999533427
0.03999675949
0.04000047069
0.04000804444
0.03999466451
0.03999466451
0.03999466451
0.03999466452
0.03999466458
0.03999466479
0.03999466563
0.03999466896
0.03999468191
0.0399947311
0.03999491158
0.03999554012
0.03999755454
0.04000316263
0.04001513582
0.03999466451
0.03999466451
0.03999466451
0.03999466452
0.03999466457
0.03999466476
0.0399946655
0.03999466839
0.03999467934
0.03999471967
0.03999486206
0.03999533427
0.03999675948
0.04000047067
0.04000804437
0.03999466451
0.03999466451
0.03999466451
0.03999466452
0.03999466456
0.0399946647
0.03999466524
0.03999466725
0.03999467453
0.03999470002
0.03999478486
0.03999504853
0.03999579186
0.03999761173
0.04000123579
0.03999466451
0.03999466451
0.03999466451
0.03999466452
0.03999466454
0.03999466464
0.03999466499
0.03999466625
0.03999467055
0.03999468475
0.03999472911
0.03999485833
0.03999520085
0.03999600014
0.03999757544
0.03999466451
0.03999466451
0.03999466451
0.03999466451
0.03999466453
0.03999466461
0.03999466486
0.03999466571
0.03999466851
0.03999467725
0.0399947031
0.03999477434
0.03999495396
0.03999535866
0.03999615367
0.03999466451
0.03999466451
0.03999466451
0.03999466452
0.03999466454
0.03999466464
0.03999466501
0.0399946663
0.03999467072
0.03999468517
0.03999472996
0.0399948593
0.03999519926
0.03999598764
0.03999466451
0.03999466451
0.03999466451
0.03999466452
0.03999466456
0.0399946647
0.03999466524
0.03999466725
0.03999467453
0.03999470002
0.03999478487
0.03999504853
0.03999579188
0.0399976118
0.03999466451
0.03999466451
0.03999466451
0.03999466452
0.03999466458
0.03999466479
0.03999466566
0.03999466909
0.03999468239
0.03999473247
0.03999491307
0.03999552436
0.03999740324
0.0400023634
0.04001252844
0.03999466451
0.03999466451
0.03999466451
0.03999466453
0.0399946646
0.0399946649
0.03999466615
0.03999467133
0.03999469264
0.03999477846
0.03999511325
0.03999635351
0.04000057042
0.04001291128
0.04003989577
0.03999466451
0.03999466451
0.03999466451
0.03999466453
0.03999466461
0.03999466495
0.03999466639
0.03999467254
0.03999469869
0.03999480873
0.03999526382
0.039997085
0.04000393577
0.04002669746
0.04008316057
0.03999466451
0.03999466451
0.03999466451
0.03999466453
0.0399946646
0.0399946649
0.03999466615
0.03999467133
0.03999469264
0.03999477846
0.03999511325
0.0399963535
0.04000057037
0.04001291111
0.04003989529
0.03999466451
0.03999466451
0.03999466451
0.03999466452
0.03999466458
0.03999466479
0.03999466566
0.03999466909
0.03999468239
0.03999473247
0.03999491307
0.03999552435
0.0399974032
0.04000236326
0.04001252802
0.03999466451
0.03999466451
0.03999466451
0.03999466452
0.03999466456
0.0399946647
0.03999466524
0.03999466725
0.03999467453
0.03999470002
0.03999478486
0.03999504853
0.03999579186
0.03999761173
0.04000123578
0.03999466451
0.03999466451
0.03999466451
0.03999466452
0.03999466454
0.03999466464
0.03999466501
0.0399946663
0.03999467072
0.03999468517
0.03999472996
0.0399948593
0.03999519925
0.03999598761
0.03999754009
0.03999466451
0.03999466451
0.03999466451
0.03999466452
0.03999466455
0.03999466468
0.03999466517
0.03999466694
0.0399946732
0.03999469449
0.03999476331
0.03999497095
0.03999554069
0.0399969077
0.03999466451
0.03999466451
0.03999466451
0.03999466452
0.03999466457
0.03999466476
0.0399946655
0.03999466839
0.03999467934
0.03999471967
0.03999486206
0.03999533428
0.03999675952
0.04000047082
0.03999466451
0.03999466451
0.03999466451
0.03999466453
0.0399946646
0.0399946649
0.03999466615
0.03999467133
0.03999469264
0.03999477846
0.03999511325
0.03999635352
0.04000057049
0.04001291163
0.03999466451
0.03999466451
0.03999466451
0.03999466454
0.03999466463
0.03999466505
0.03999466692
0.03999467513
0.03999471135
0.03999487027
0.03999555743
0.03999843732
0.04000977389
0.04004900545
0.04014897881
0.03999466451
0.03999466451
0.03999466451
0.03999466454
0.03999466465
0.03999466513
0.03999466732
0.03999467733
0.03999472354
0.03999493934
0.03999595602
0.04000075275
0.04002300104
0.04011966832
0.04045417137
0.03999466451
0.03999466451
0.03999466451
0.03999466454
0.03999466463
0.03999466505
0.03999466692
0.03999467513
0.03999471135
0.03999487027
0.03999555743
0.0399984373
0.04000977375
0.04004900472
0.04014897586
0.03999466451
0.03999466451
0.03999466451
0.03999466453
0.0399946646
0.0399946649
0.03999466615
0.03999467133
0.03999469264
0.03999477846
0.03999511325
0.03999635351
0.04000057039
0.04001291115
0.04003989534
0.03999466451
0.03999466451
0.03999466451
0.03999466452
0.03999466457
0.03999466476
0.0399946655
0.03999466839
0.03999467934
0.03999471967
0.03999486206
0.03999533427
0.03999675948
0.04000047067
0.04000804436
0.03999466451
0.03999466451
0.03999466451
0.03999466452
0.03999466455
0.03999466468
0.03999466517
0.03999466694
0.0399946732
0.03999469449
0.03999476331
0.03999497095
0.03999554068
0.03999690765
0.03999961892
0.03999466451
0.03999466451
0.03999466451
0.03999466452
0.03999466456
0.0399946647
0.03999466524
0.03999466724
0.03999467443
0.03999469936
0.03999478193
0.0399950383
0.03999576489
0.03999756341
0.03999466451
0.03999466451
0.03999466451
0.03999466452
0.03999466458
0.03999466479
0.03999466563
0.03999466896
0.03999468191
0.0399947311
0.03999491159
0.03999554013
0.0399975546
0.04000316282
0.03999466451
0.03999466451
0.03999466451
0.03999466453
0.03999466461
0.03999466495
0.03999466639
0.03999467255
0.03999469869
0.03999480873
0.03999526382
0.03999708505
0.04000393597
0.0400266983
0.03999466451
0.03999466451
0.03999466451
0.03999466454
0.03999466465
0.03999466513
0.03999466732
0.03999467733
0.03999472354
0.03999493934
0.03999595604
0.04000075283
0.04002300154
0.04011967161
0.03999466451
0.03999466451
0.03999466452
0.03999466454
0.03999466466
0.03999466523
0.03999466784
0.03999468027
0.0399947411
0.03999504996
0.0399966924
0.04000594036
0.04006162481
0.04042262224
0.04295911415
0.03999466451
0.03999466451
0.03999466451
0.03999466454
0.03999466465
0.03999466513
0.03999466732
0.03999467733
0.03999472354
0.03999493934
0.03999595603
0.04000075277
0.04002300116
0.04011966877
0.04045417239
0.03999466451
0.03999466451
0.03999466451
0.03999466453
0.03999466461
0.03999466495
0.03999466639
0.03999467254
0.03999469869
0.03999480873
0.03999526381
0.039997085
0.04000393577
0.04002669748
0.04008316056
0.03999466451
0.03999466451
0.03999466451
0.03999466452
0.03999466458
0.03999466479
0.03999466563
0.03999466896
0.03999468191
0.0399947311
0.03999491158
0.03999554012
0.03999755453
0.04000316261
0.04001513576
0.03999466451
0.03999466451
0.03999466451
0.03999466452
0.03999466456
0.0399946647
0.03999466524
0.03999466724
0.03999467443
0.03999469936
0.03999478192
0.03999503829
0.03999576487
0.03999756335
0.04000117553
0.03999466451
0.03999466451
0.03999466451
0.03999466452
0.03999466455
0.03999466468
0.03999466517
0.03999466694
0.0399946732
0.03999469449
0.03999476331
0.03999497096
0.03999554069
0.0399969077
0.03999466451
0.03999466451
0.03999466451
0.03999466452
0.03999466457
0.03999466476
0.0399946655
0.03999466839
0.03999467934
0.03999471967
0.03999486206
0.03999533428
0.03999675952
0.04000047079
0.03999466451
0.03999466451
0.03999466451
0.03999466453
0.0399946646
0.0399946649
0.03999466615
0.03999467133
0.03999469264
0.03999477846
0.03999511325
0.03999635353
0.0400005705
0.04001291155
0.03999466451
0.03999466451
0.03999466451
0.03999466454
0.03999466463
0.03999466505
0.03999466692
0.03999467513
0.03999471135
0.03999487027
0.03999555744
0.03999843735
0.04000977403
0.04004900592
0.03999466451
0.03999466451
0.03999466451
0.03999466454
0.03999466465
0.03999466513
0.03999466732
0.03999467733
0.03999472354
0.03999493934
0.03999595604
0.04000075283
0.04002300157
0.04011967166
0.03999466451
0.03999466451
0.03999466451
0.03999466454
0.03999466463
0.03999466505
0.03999466692
0.03999467513
0.03999471135
0.03999487027
0.03999555744
0.03999843733
0.04000977397
0.04004900584
0.03999466451
0.03999466451
0.03999466451
0.03999466453
0.0399946646
0.0399946649
0.03999466615
0.03999467133
0.03999469264
0.03999477846
0.03999511325
0.03999635352
0.04000057046
0.04001291141
0.04003989616
0.03999466451
0.03999466451
0.03999466451
0.03999466452
0.03999466457
0.03999466476
0.0399946655
0.03999466839
0.03999467934
0.03999471967
0.03999486206
0.03999533427
0.0399967595
0.04000047072
0.04000804448
0.03999466451
0.03999466451
0.03999466451
0.03999466452
0.03999466455
0.03999466468
0.03999466517
0.03999466694
0.0399946732
0.03999469449
0.03999476331
0.03999497095
0.03999554068
0.03999690766
0.03999961894
0.03999466451
0.03999466451
0.03999466451
0.03999466452
0.03999466454
0.03999466464
0.03999466501
0.0399946663
0.03999467072
0.03999468517
0.03999472996
0.0399948593
0.03999519926
0.03999598764
0.03999466451
0.03999466451
0.03999466451
0.03999466452
0.03999466456
0.0399946647
0.03999466524
0.03999466725
0.03999467454
0.03999470002
0.03999478487
0.03999504854
0.03999579189
0.0399976118
0.03999466451
0.03999466451
0.03999466451
0.03999466452
0.03999466458
0.03999466479
0.03999466566
0.03999466909
0.03999468239
0.03999473247
0.03999491307
0.03999552437
0.03999740327
0.04000236346
0.03999466451
0.03999466451
0.03999466451
0.03999466453
0.0399946646
0.0399946649
0.03999466615
0.03999467133
0.03999469264
0.03999477846
0.03999511326
0.03999635354
0.04000057051
0.04001291155
0.03999466451
0.03999466451
0.03999466451
0.03999466453
0.03999466461
0.03999466495
0.03999466639
0.03999467254
0.03999469869
0.03999480873
0.03999526382
0.03999708503
0.04000393591
0.04002669806
0.03999466451
0.03999466451
0.03999466451
0.03999466453
0.0399946646
0.0399946649
0.03999466615
0.03999467133
0.03999469264
0.03999477846
0.03999511325
0.03999635353
0.0400005705
0.04001291153
0.03999466451
0.03999466451
0.03999466451
0.03999466452
0.03999466458
0.03999466479
0.03999466566
0.03999466909
0.03999468239
0.03999473247
0.03999491307
0.03999552437
0.03999740326
0.04000236348
0.03999466451
0.03999466451
0.03999466451
0.03999466452
0.03999466456
0.0399946647
0.03999466524
0.03999466725
0.03999467454
0.03999470002
0.03999478487
0.03999504853
0.03999579188
0.03999761179
0.04000123594
0.03999466451
0.03999466451
0.03999466451
0.03999466452
0.03999466454
0.03999466464
0.03999466501
0.0399946663
0.03999467072
0.03999468517
0.03999472996
0.0399948593
0.03999519926
0.03999598763
0.03999754013
0.03999466451
0.03999466451
0.03999466451
0.03999466451
0.03999466453
0.03999466461
0.03999466486
0.03999466571
0.03999466851
0.03999467725
0.0399947031
0.03999477435
0.03999495397
0.03999535867
0.03999466451
0.03999466451
0.03999466451
0.03999466452
0.03999466454
0.03999466464
0.03999466499
0.03999466625
0.03999467055
0.03999468475
0.03999472911
0.03999485834
0.03999520086
0.03999600017
0.03999466451
0.03999466451
0.03999466451
0.03999466452
0.03999466456
0.0399946647
0.03999466524
0.03999466725
0.03999467454
0.03999470002
0.03999478487
0.03999504854
0.03999579189
0.0399976118
0.03999466451
0.03999466451
0.03999466451
0.03999466452
0.03999466457
0.03999466476
0.0399946655
0.03999466839
0.03999467934
0.03999471967
0.03999486207
0.03999533428
0.03999675953
0.04000047079
0.03999466451
0.03999466451
0.03999466451
0.03999466452
0.03999466458
0.03999466479
0.03999466563
0.03999466896
0.03999468191
0.0399947311
0.03999491159
0.03999554013
0.03999755459
0.04000316278
0.03999466451
0.03999466451
0.03999466451
0.03999466452
0.03999466457
0.03999466476
0.0399946655
0.03999466839
0.03999467934
0.03999471967
0.03999486207
0.03999533428
0.03999675952
0.04000047079
0.03999466451
0.03999466451
0.03999466451
0.03999466452
0.03999466456
0.0399946647
0.03999466524
0.03999466725
0.03999467454
0.03999470002
0.03999478487
0.03999504854
0.03999579189
0.0399976118
0.03999466451
0.03999466451
0.03999466451
0.03999466452
0.03999466454
0.03999466464
0.03999466499
0.03999466625
0.03999467055
0.03999468475
0.03999472911
0.03999485834
0.03999520086
0.03999600018
0.03999466451
0.03999466451
0.03999466451
0.03999466451
0.03999466453
0.03999466461
0.03999466486
0.03999466571
0.03999466851
0.03999467725
0.0399947031
0.03999477435
0.03999495397
0.03999535867
0.03999615371
0.03999466451
0.03999466451
0.03999466451
0.03999466451
0.03999466453
0.03999466458
0.03999466477
0.03999466538
0.03999466731
0.03999467311
0.03999468956
0.03999473315
0.03999483937
0.03999507357
0.03999466451
0.03999466451
0.03999466451
0.03999466451
0.03999466453
0.03999466461
0.03999466486
0.03999466571
0.03999466851
0.03999467725
0.0399947031
0.03999477435
0.03999495397
0.03999535867
0.03999466451
0.03999466451
0.03999466451
0.03999466452
0.03999466454
0.03999466464
0.03999466501
0.0399946663
0.03999467072
0.03999468517
0.03999472996
0.0399948593
0.03999519926
0.03999598764
0.03999466451
0.03999466451
0.03999466451
0.03999466452
0.03999466455
0.03999466468
0.03999466517
0.03999466694
0.0399946732
0.03999469449
0.03999476331
0.03999497096
0.0399955407
0.0399969077
0.03999466451
0.03999466451
0.03999466451
0.03999466452
0.03999466456
0.0399946647
0.03999466524
0.03999466724
0.03999467443
0.03999469936
0.03999478193
0.0399950383
0.0399957649
0.03999756341
0.03999466451
0.03999466451
0.03999466451
0.03999466452
0.03999466455
0.03999466468
0.03999466517
0.03999466694
0.0399946732
0.03999469449
0.03999476331
0.03999497096
0.0399955407
0.03999690771
0.03999466451
0.03999466451
0.03999466451
0.03999466452
0.03999466454
0.03999466464
0.03999466501
0.0399946663
0.03999467072
0.03999468517
0.03999472996
0.0399948593
0.03999519926
0.03999598765
0.03999466451
0.03999466451
0.03999466451
0.03999466451
0.03999466453
0.03999466461
0.03999466486
0.03999466571
0.03999466851
0.03999467725
0.0399947031
0.03999477435
0.03999495397
0.03999535868
0.03999466451
0.03999466451
0.03999466451
0.03999466451
0.03999466453
0.03999466458
0.03999466477
0.03999466538
0.03999466731
0.03999467311
0.03999468956
0.03999473315
0.03999483937
0.03999507357
)
;

boundaryField
{
    top
    {
        type            calculated;
        value           nonuniform List<scalar> 
134
(
0.03999466451
0.03999466451
0.03999466451
0.03999466451
0.03999466451
0.03999466451
0.03999466451
0.03999466451
0.03999466451
0.03999466451
0.03999466451
0.03999466451
0.03999466451
0.03999466451
0.03999466451
0.03999466451
0.03999466451
0.03999466451
0.03999466451
0.03999466451
0.03999466451
0.03999466451
0.03999466451
0.03999466451
0.03999466451
0.03999466451
0.03999466451
0.03999466451
0.03999466451
0.03999466452
0.03999466452
0.03999466452
0.03999466452
0.03999466452
0.03999466451
0.03999466451
0.03999466453
0.03999466453
0.03999466454
0.03999466455
0.03999466456
0.03999466455
0.03999466454
0.03999466453
0.03999466453
0.03999466458
0.03999466461
0.03999466464
0.03999466468
0.0399946647
0.03999466468
0.03999466464
0.03999466461
0.03999466458
0.03999466477
0.03999466486
0.03999466501
0.03999466517
0.03999466524
0.03999466517
0.03999466501
0.03999466486
0.03999466477
0.03999466538
0.03999466571
0.0399946663
0.03999466694
0.03999466724
0.03999466694
0.0399946663
0.03999466571
0.03999466538
0.03999466731
0.03999466851
0.03999467072
0.0399946732
0.03999467443
0.0399946732
0.03999467072
0.03999466851
0.03999466731
0.03999467311
0.03999467725
0.03999468517
0.03999469449
0.03999469936
0.03999469449
0.03999468517
0.03999467725
0.03999467311
0.03999468956
0.0399947031
0.03999472996
0.03999476331
0.03999478192
0.03999476331
0.03999472996
0.0399947031
0.03999468956
0.03999473315
0.03999477434
0.0399948593
0.03999497095
0.03999503829
0.03999497095
0.0399948593
0.03999477435
0.03999473315
0.03999483937
0.03999495396
0.03999519925
0.03999554068
0.03999576487
0.03999554068
0.03999519926
0.03999495397
0.03999483937
0.03999507356
0.03999535866
0.03999598761
0.03999690765
0.03999756335
0.03999690766
0.03999598763
0.03999535867
0.03999507357
0.03999553362
0.03999615367
0.03999754009
0.03999961892
0.04000117553
0.03999961894
0.03999754013
0.03999615371
)
;
    }
    bottom
    {
        type            calculated;
        value           nonuniform List<scalar> 
127
(
0.03999466451
0.03999466451
0.03999466451
0.03999466451
0.03999466451
0.03999466451
0.03999466451
0.03999466451
0.03999466451
0.03999466451
0.03999466451
0.03999466451
0.03999466451
0.03999466451
0.03999466451
0.03999466451
0.03999466451
0.03999466451
0.03999466451
0.03999466451
0.03999466451
0.03999466451
0.03999466451
0.03999466451
0.03999466451
0.03999466451
0.03999466451
0.03999466451
0.03999466451
0.03999466452
0.03999466452
0.03999466452
0.03999466452
0.03999466452
0.03999466451
0.03999466451
0.03999466453
0.03999466453
0.03999466454
0.03999466455
0.03999466456
0.03999466455
0.03999466454
0.03999466453
0.03999466453
0.03999466458
0.03999466461
0.03999466464
0.03999466468
0.0399946647
0.03999466468
0.03999466464
0.03999466461
0.03999466458
0.03999466477
0.03999466486
0.03999466501
0.03999466517
0.03999466524
0.03999466517
0.03999466501
0.03999466486
0.03999466477
0.03999466538
0.03999466571
0.0399946663
0.03999466694
0.03999466724
0.03999466694
0.0399946663
0.03999466571
0.03999466538
0.03999466731
0.03999466851
0.03999467072
0.0399946732
0.03999467443
0.0399946732
0.03999467072
0.03999466851
0.03999466731
0.03999467311
0.03999467725
0.03999468517
0.03999469449
0.03999469936
0.03999469449
0.03999468517
0.03999467725
0.03999467311
0.03999468956
0.0399947031
0.03999472996
0.03999476331
0.03999478193
0.03999476331
0.03999472996
0.0399947031
0.03999468956
0.03999473315
0.03999477435
0.0399948593
0.03999497095
0.0399950383
0.03999497096
0.0399948593
0.03999477435
0.03999473315
0.03999483937
0.03999495397
0.03999519926
0.03999554069
0.03999576489
0.03999554069
0.03999519926
0.03999495397
0.03999483937
0.03999507357
0.03999535868
0.03999598764
0.0399969077
0.03999756341
0.0399969077
0.03999598764
0.03999535867
0.03999507357
0.03999553364
)
;
    }
    side-walls
    {
        type            calculated;
        value           nonuniform List<scalar> 
261
(
0.03999466451
0.03999466451
0.03999466451
0.03999466451
0.03999466451
0.03999466451
0.03999466451
0.03999466451
0.03999466451
0.03999466451
0.03999466451
0.03999466451
0.03999466451
0.03999466451
0.03999466451
0.03999466451
0.03999466451
0.03999466451
0.03999466451
0.03999466451
0.03999466451
0.03999466451
0.03999466451
0.03999466451
0.03999466451
0.03999466451
0.03999466451
0.03999466451
0.03999466451
0.03999466452
0.03999466452
0.03999466452
0.03999466452
0.03999466452
0.03999466451
0.03999466451
0.03999466453
0.03999466453
0.03999466454
0.03999466455
0.03999466456
0.03999466455
0.03999466454
0.03999466453
0.03999466453
0.03999466458
0.03999466461
0.03999466464
0.03999466468
0.0399946647
0.03999466468
0.03999466464
0.03999466461
0.03999466458
0.03999466477
0.03999466486
0.03999466501
0.03999466517
0.03999466524
0.03999466517
0.03999466501
0.03999466486
0.03999466477
0.03999466538
0.03999466571
0.0399946663
0.03999466694
0.03999466724
0.03999466694
0.0399946663
0.03999466571
0.03999466538
0.03999466731
0.03999466851
0.03999467072
0.0399946732
0.03999467443
0.0399946732
0.03999467072
0.03999466851
0.03999466731
0.03999467311
0.03999467725
0.03999468517
0.03999469449
0.03999469936
0.03999469449
0.03999468517
0.03999467725
0.03999467311
0.03999468956
0.0399947031
0.03999472996
0.03999476331
0.03999478192
0.03999476331
0.03999472996
0.0399947031
0.03999468956
0.03999473315
0.03999477435
0.0399948593
0.03999497095
0.03999503829
0.03999497095
0.0399948593
0.03999477434
0.03999473315
0.03999483937
0.03999495397
0.03999519925
0.03999554068
0.03999576488
0.03999554067
0.03999519925
0.03999495396
0.03999483937
0.03999507357
0.03999535867
0.03999598762
0.03999690767
0.03999756336
0.03999690765
0.03999598761
0.03999535866
0.03999507356
0.03999553364
0.03999615369
0.03999754012
0.03999961895
0.04000117557
0.03999961891
0.03999754009
0.03999615367
0.03999553362
0.03999466451
0.03999466451
0.03999466451
0.03999466451
0.03999466451
0.03999466451
0.03999466451
0.03999466451
0.03999466451
0.03999466451
0.03999466451
0.03999466451
0.03999466451
0.03999466451
0.03999466451
0.03999466451
0.03999466451
0.03999466451
0.03999466451
0.03999466451
0.03999466451
0.03999466451
0.03999466451
0.03999466451
0.03999466451
0.03999466451
0.03999466451
0.03999466451
0.03999466451
0.03999466452
0.03999466452
0.03999466452
0.03999466452
0.03999466452
0.03999466451
0.03999466451
0.03999466453
0.03999466453
0.03999466454
0.03999466455
0.03999466456
0.03999466455
0.03999466454
0.03999466453
0.03999466453
0.03999466458
0.03999466461
0.03999466464
0.03999466468
0.0399946647
0.03999466468
0.03999466464
0.03999466461
0.03999466458
0.03999466477
0.03999466486
0.03999466501
0.03999466517
0.03999466524
0.03999466517
0.03999466501
0.03999466486
0.03999466477
0.03999466538
0.03999466571
0.0399946663
0.03999466694
0.03999466724
0.03999466694
0.0399946663
0.03999466571
0.03999466538
0.03999466731
0.03999466851
0.03999467072
0.0399946732
0.03999467443
0.0399946732
0.03999467072
0.03999466851
0.03999466731
0.03999467311
0.03999467725
0.03999468517
0.03999469449
0.03999469936
0.03999469449
0.03999468517
0.03999467725
0.03999467311
0.03999468956
0.0399947031
0.03999472996
0.03999476331
0.03999478193
0.03999476331
0.03999472996
0.0399947031
0.03999468956
0.03999473315
0.03999477435
0.0399948593
0.03999497096
0.0399950383
0.03999497096
0.0399948593
0.03999477435
0.03999473315
0.03999483937
0.03999495397
0.03999519926
0.0399955407
0.0399957649
0.0399955407
0.03999519926
0.03999495397
0.03999483937
0.03999507357
0.03999535867
0.03999598764
0.0399969077
0.03999756341
0.03999690771
0.03999598765
0.03999535868
0.03999507357
)
;
    }
    inlet
    {
        type            calculated;
        value           nonuniform List<scalar> 
81
(
0.03999466451
0.03999466451
0.03999466451
0.03999466451
0.03999466451
0.03999466451
0.03999466451
0.03999466451
0.03999466451
0.03999466451
0.03999466451
0.03999466451
0.03999466451
0.03999466451
0.03999466451
0.03999466451
0.03999466451
0.03999466451
0.03999466451
0.03999466451
0.03999466451
0.03999466451
0.03999466451
0.03999466451
0.03999466451
0.03999466451
0.03999466451
0.03999466451
0.03999466451
0.03999466451
0.03999466451
0.03999466451
0.03999466451
0.03999466451
0.03999466451
0.03999466451
0.03999466451
0.03999466451
0.03999466451
0.03999466451
0.03999466451
0.03999466451
0.03999466451
0.03999466451
0.03999466451
0.03999466451
0.03999466451
0.03999466451
0.03999466451
0.03999466451
0.03999466451
0.03999466451
0.03999466451
0.03999466451
0.03999466451
0.03999466451
0.03999466451
0.03999466451
0.03999466451
0.03999466451
0.03999466451
0.03999466451
0.03999466451
0.03999466451
0.03999466451
0.03999466451
0.03999466451
0.03999466451
0.03999466451
0.03999466451
0.03999466451
0.03999466451
0.03999466451
0.03999466451
0.03999466451
0.03999466451
0.03999466451
0.03999466451
0.03999466451
0.03999466451
0.03999466451
)
;
    }
    outlet
    {
        type            calculated;
        value           nonuniform 0();
    }
    procBoundary0to1
    {
        type            processor;
        value           nonuniform List<scalar> 
97
(
0.03999633321
0.03999615371
0.03999749626
0.04000006209
0.04000381547
0.04000649028
0.04000381541
0.04000006205
0.03999749622
0.03999633318
0.03999615371
0.03999615371
0.04000011326
0.04000123594
0.04000668803
0.04001835195
0.04002933404
0.04001835187
0.04000668794
0.04000011317
0.03999749622
0.03999754014
0.04000123594
0.04000123594
0.04002607409
0.0400398964
0.04006911342
0.04012537082
0.04006911293
0.04002607368
0.04000668791
0.04000006204
0.03999961897
0.04000804458
0.0400398964
0.0400398964
0.0402164357
0.040454174
0.04050504752
0.04021643384
0.04006911294
0.04001835184
0.04000381541
0.0400011756
0.04001513599
0.04008316137
0.040454174
0.040454174
0.04174720617
0.04045417381
0.0405050478
0.04014897684
0.04012537065
0.04002933388
0.0400064902
0.03999961895
0.04000804446
0.04003989571
0.04014897658
0.04045417381
0.04014897684
0.04014897684
0.04006911341
0.0400125284
0.04001835193
0.04000381542
0.03999754011
0.04000123584
0.0400125282
0.04003989565
0.04008316073
0.0400398956
0.0400125284
0.0400125284
0.04000668804
0.03999757552
0.04000006209
0.03999615368
0.03999757546
0.04000123583
0.04000804445
0.04001513585
0.04000804443
0.04000123585
0.03999757552
0.03999757552
0.03999749626
0.03999553364
0.03999553362
0.03999615367
0.03999754011
0.03999961895
0.04000117557
0.03999961896
0.03999754012
0.03999615369
0.03999553364
)
;
    }
}


// ************************************************************************* //
