/*--------------------------------*- C++ -*----------------------------------*\
| =========                 |                                                 |
| \\      /  F ield         | OpenFOAM: The Open Source CFD Toolbox           |
|  \\    /   O peration     | Version:  4.x                                   |
|   \\  /    A nd           | Web:      www.OpenFOAM.org                      |
|    \\/     M anipulation  |                                                 |
\*---------------------------------------------------------------------------*/
FoamFile
{
    version     2.0;
    format      ascii;
    class       volScalarField;
    location    "7000";
    object      X_H2O;
}
// * * * * * * * * * * * * * * * * * * * * * * * * * * * * * * * * * * * * * //

dimensions      [0 0 0 0 0 0 0];

internalField   nonuniform List<scalar> 
1175
(
1.547050845e-06
1.547050909e-06
1.547051161e-06
1.547053156e-06
1.547060309e-06
1.547084914e-06
1.54716787e-06
1.547439605e-06
1.548294561e-06
1.550862423e-06
1.558151018e-06
1.577462711e-06
1.624527592e-06
1.728307307e-06
1.932200372e-06
1.547050853e-06
1.547051006e-06
1.547051494e-06
1.54705403e-06
1.547062924e-06
1.547094968e-06
1.547206684e-06
1.547585427e-06
1.548823714e-06
1.552695775e-06
1.56414777e-06
1.595715811e-06
1.675307968e-06
1.854651416e-06
2.207003333e-06
1.547050831e-06
1.547051085e-06
1.54705189e-06
1.547055002e-06
1.547067137e-06
1.547112101e-06
1.547274394e-06
1.547847255e-06
1.549802951e-06
1.556204168e-06
1.576050269e-06
1.633360421e-06
1.784003815e-06
2.133386022e-06
2.821480704e-06
1.54705089e-06
1.547051086e-06
1.547052091e-06
1.547055964e-06
1.54707135e-06
1.547129401e-06
1.547344808e-06
1.548129596e-06
1.550903289e-06
1.560336409e-06
1.590827519e-06
1.682836619e-06
1.935310696e-06
2.541139246e-06
3.742871941e-06
1.547051033e-06
1.547051237e-06
1.547052217e-06
1.547056475e-06
1.547073104e-06
1.547136829e-06
1.547376864e-06
1.548262946e-06
1.551446823e-06
1.562494175e-06
1.599075727e-06
1.712677614e-06
2.034668534e-06
2.831745121e-06
4.432826319e-06
1.547050812e-06
1.54705101e-06
1.547052038e-06
1.547056085e-06
1.547071311e-06
1.547129288e-06
1.547344906e-06
1.548129654e-06
1.550903262e-06
1.560336419e-06
1.59082724e-06
1.682835187e-06
1.935305971e-06
2.541125416e-06
3.742838549e-06
1.54705081e-06
1.547050978e-06
1.54705187e-06
1.54705501e-06
1.547067026e-06
1.547111953e-06
1.547274263e-06
1.547847242e-06
1.549802908e-06
1.556204182e-06
1.576050004e-06
1.633359374e-06
1.783999232e-06
2.13337059e-06
2.82144267e-06
1.547050763e-06
1.547050671e-06
1.547051485e-06
1.547053961e-06
1.547062875e-06
1.547094811e-06
1.547206671e-06
1.54758532e-06
1.548823741e-06
1.552696012e-06
1.564147655e-06
1.595714346e-06
1.675302865e-06
1.85463532e-06
2.206965541e-06
1.547050567e-06
1.547050779e-06
1.547051379e-06
1.547053359e-06
1.547060298e-06
1.547084845e-06
1.547168052e-06
1.547439617e-06
1.548294574e-06
1.55086238e-06
1.558150736e-06
1.577461452e-06
1.624523006e-06
1.728292505e-06
1.932162959e-06
1.547050837e-06
1.547050939e-06
1.547051596e-06
1.547053894e-06
1.547062825e-06
1.547094822e-06
1.547206618e-06
1.547585372e-06
1.548823721e-06
1.552695884e-06
1.564148347e-06
1.595717352e-06
1.675314867e-06
1.854678721e-06
1.547051088e-06
1.547051135e-06
1.547051833e-06
1.547054955e-06
1.547066422e-06
1.547109563e-06
1.547266499e-06
1.547821945e-06
1.549729622e-06
1.556017803e-06
1.575673484e-06
1.632935925e-06
1.784729205e-06
2.138983623e-06
2.837269958e-06
1.547051079e-06
1.547051296e-06
1.547052192e-06
1.54705648e-06
1.547072631e-06
1.547135259e-06
1.547374444e-06
1.548264853e-06
1.551493467e-06
1.562786336e-06
1.600380484e-06
1.71722181e-06
2.046653639e-06
2.853258125e-06
4.459691988e-06
1.547051282e-06
1.547051484e-06
1.547052587e-06
1.547057756e-06
1.547078905e-06
1.547162585e-06
1.547492087e-06
1.548770095e-06
1.553620795e-06
1.571492901e-06
1.63458954e-06
1.843850847e-06
2.475495192e-06
4.120404831e-06
7.477645249e-06
1.547051201e-06
1.547051421e-06
1.547052782e-06
1.547058404e-06
1.547081484e-06
1.54717486e-06
1.547548156e-06
1.549023667e-06
1.554761366e-06
1.576555538e-06
1.656534887e-06
1.935080527e-06
2.827868917e-06
5.313565911e-06
1.062102903e-05
1.547051096e-06
1.547051329e-06
1.547052487e-06
1.547057723e-06
1.54707869e-06
1.547162614e-06
1.547492345e-06
1.548770244e-06
1.553620885e-06
1.571493066e-06
1.634589728e-06
1.843849368e-06
2.475485683e-06
4.12036466e-06
7.477530093e-06
1.547050843e-06
1.547050968e-06
1.547052124e-06
1.547056365e-06
1.54707259e-06
1.54713541e-06
1.547374467e-06
1.548264925e-06
1.551493636e-06
1.562786464e-06
1.600380347e-06
1.717219413e-06
2.046640034e-06
2.853205297e-06
4.459549286e-06
1.547050841e-06
1.547051038e-06
1.547051785e-06
1.547054958e-06
1.547066523e-06
1.547109636e-06
1.547266398e-06
1.547822123e-06
1.549729626e-06
1.556017599e-06
1.575672687e-06
1.632932747e-06
1.784715438e-06
2.138933943e-06
2.837131794e-06
1.547050832e-06
1.547050832e-06
1.547051456e-06
1.547053836e-06
1.547062891e-06
1.54709497e-06
1.54720653e-06
1.54758538e-06
1.54882371e-06
1.552695988e-06
1.56414786e-06
1.595714798e-06
1.675304169e-06
1.85463724e-06
2.206967879e-06
1.547051155e-06
1.547051206e-06
1.547051884e-06
1.547055172e-06
1.547067239e-06
1.547111965e-06
1.547274471e-06
1.547847321e-06
1.549803067e-06
1.556204672e-06
1.576051848e-06
1.633366678e-06
1.784025248e-06
2.133457137e-06
1.54705109e-06
1.547051344e-06
1.547052311e-06
1.547056468e-06
1.547072802e-06
1.54713549e-06
1.547374601e-06
1.548264886e-06
1.551493682e-06
1.562786759e-06
1.600382178e-06
1.717228584e-06
2.046680724e-06
2.853374045e-06
1.547051131e-06
1.547051422e-06
1.547052857e-06
1.547058451e-06
1.547082178e-06
1.547177865e-06
1.547562563e-06
1.549082772e-06
1.554976283e-06
1.577163882e-06
1.65719542e-06
1.928107168e-06
2.760857055e-06
4.959495997e-06
9.465803711e-06
1.547051286e-06
1.547051567e-06
1.547053239e-06
1.547060496e-06
1.547092079e-06
1.547224404e-06
1.547777385e-06
1.55007598e-06
1.559517503e-06
1.597545238e-06
1.745909663e-06
2.295584532e-06
4.164628198e-06
9.634866311e-06
2.159727974e-05
1.547051314e-06
1.547051553e-06
1.547053429e-06
1.547061522e-06
1.547096614e-06
1.547246355e-06
1.547885355e-06
1.550612124e-06
1.562196368e-06
1.610960106e-06
1.812638286e-06
2.619788477e-06
5.656262125e-06
1.574568769e-05
4.07759522e-05
1.547051244e-06
1.547051729e-06
1.54705331e-06
1.547060751e-06
1.547091981e-06
1.547224094e-06
1.547777151e-06
1.550075986e-06
1.559517597e-06
1.597545131e-06
1.745908446e-06
2.295574876e-06
4.164575523e-06
9.634627184e-06
2.159651184e-05
1.547051116e-06
1.547051409e-06
1.547052626e-06
1.547058378e-06
1.547082181e-06
1.547177902e-06
1.547562284e-06
1.549082573e-06
1.554975987e-06
1.577163711e-06
1.657193535e-06
1.928096375e-06
2.760800785e-06
4.959250606e-06
9.465005318e-06
1.547051111e-06
1.547051252e-06
1.547052226e-06
1.547056569e-06
1.547072808e-06
1.54713555e-06
1.547374586e-06
1.548264989e-06
1.551493712e-06
1.562786575e-06
1.600380686e-06
1.717220638e-06
2.046642922e-06
2.853209927e-06
4.459549402e-06
1.547050821e-06
1.547050957e-06
1.547051882e-06
1.547054953e-06
1.547066967e-06
1.547111989e-06
1.547274386e-06
1.547847258e-06
1.549803013e-06
1.556204509e-06
1.576050646e-06
1.633361192e-06
1.784002971e-06
2.133376802e-06
2.821448406e-06
1.547050906e-06
1.547051246e-06
1.547052166e-06
1.54705607e-06
1.547071274e-06
1.547128882e-06
1.547344691e-06
1.548129643e-06
1.550903528e-06
1.560337296e-06
1.590830927e-06
1.682849254e-06
1.935354341e-06
2.541276937e-06
1.547050918e-06
1.547051355e-06
1.547052438e-06
1.5470576e-06
1.547078745e-06
1.547162423e-06
1.547492253e-06
1.548770168e-06
1.553621094e-06
1.571494338e-06
1.634595299e-06
1.843873471e-06
2.475585015e-06
4.120739418e-06
1.547051376e-06
1.54705169e-06
1.547053431e-06
1.547060921e-06
1.547092113e-06
1.547224378e-06
1.547777414e-06
1.550075967e-06
1.55951784e-06
1.597546712e-06
1.745916785e-06
2.295618404e-06
4.164791697e-06
9.63566875e-06
1.547051529e-06
1.547051853e-06
1.547054128e-06
1.547063753e-06
1.547106417e-06
1.547293753e-06
1.548118073e-06
1.551756092e-06
1.567806216e-06
1.638232558e-06
1.942776961e-06
3.219206945e-06
8.244225773e-06
2.563535977e-05
6.995781219e-05
1.547051473e-06
1.547051803e-06
1.54705416e-06
1.547065086e-06
1.547113248e-06
1.547328127e-06
1.548299069e-06
1.552732861e-06
1.573209066e-06
1.668844088e-06
2.119434088e-06
4.245477802e-06
1.410721649e-05
5.695855889e-05
0.0002052496343
1.547051493e-06
1.54705188e-06
1.547053918e-06
1.547063655e-06
1.547106397e-06
1.547293721e-06
1.548118033e-06
1.551756134e-06
1.567806025e-06
1.638232083e-06
1.942773105e-06
3.219176407e-06
8.244016817e-06
2.563413783e-05
6.995231443e-05
1.547051237e-06
1.547051645e-06
1.547053372e-06
1.547060598e-06
1.547092062e-06
1.54722408e-06
1.547777269e-06
1.550076019e-06
1.559517801e-06
1.597546084e-06
1.745912347e-06
2.295587995e-06
4.164613127e-06
9.634708854e-06
2.159657247e-05
1.547051288e-06
1.547051307e-06
1.547052659e-06
1.547057769e-06
1.547078926e-06
1.547162671e-06
1.547492286e-06
1.548770283e-06
1.553621187e-06
1.571493756e-06
1.634592039e-06
1.843856454e-06
2.475503744e-06
4.120397143e-06
7.477549637e-06
1.547050969e-06
1.547051251e-06
1.547052143e-06
1.547056245e-06
1.547071285e-06
1.547129078e-06
1.547344814e-06
1.548129816e-06
1.550903479e-06
1.56033689e-06
1.590828927e-06
1.682840149e-06
1.935317107e-06
2.54114376e-06
3.742854993e-06
1.54705115e-06
1.547051332e-06
1.547052488e-06
1.54705646e-06
1.547073104e-06
1.547136914e-06
1.547377107e-06
1.5482633e-06
1.551447315e-06
1.562495518e-06
1.599081005e-06
1.712696814e-06
2.034733504e-06
2.831944758e-06
1.547051266e-06
1.547051532e-06
1.547052751e-06
1.54705846e-06
1.547081576e-06
1.547174856e-06
1.547548259e-06
1.549024127e-06
1.554761909e-06
1.576557713e-06
1.656544308e-06
1.935120446e-06
2.828029322e-06
5.314147931e-06
1.547051293e-06
1.54705163e-06
1.54705358e-06
1.547061711e-06
1.547096673e-06
1.547246234e-06
1.54788541e-06
1.550612461e-06
1.562197392e-06
1.610964045e-06
1.812657384e-06
2.619883034e-06
5.656722856e-06
1.574780706e-05
1.547051573e-06
1.547051914e-06
1.547054298e-06
1.547065208e-06
1.547113197e-06
1.547328013e-06
1.548299122e-06
1.552732857e-06
1.573209805e-06
1.668848514e-06
2.119459012e-06
4.245630133e-06
1.410819146e-05
5.696515077e-05
1.547051561e-06
1.547051983e-06
1.547054924e-06
1.547066814e-06
1.547121047e-06
1.547369637e-06
1.54852689e-06
1.554033754e-06
1.580992866e-06
1.717873488e-06
2.445838755e-06
6.545016877e-06
3.122888901e-05
0.0001912613951
0.00131576143
1.547051651e-06
1.547052084e-06
1.54705444e-06
1.547065182e-06
1.5471132e-06
1.547328029e-06
1.548299045e-06
1.552732752e-06
1.573209709e-06
1.668847693e-06
2.119450263e-06
4.245554325e-06
1.410755773e-05
5.695980056e-05
0.0002052509404
1.547051392e-06
1.547051766e-06
1.547053639e-06
1.547061725e-06
1.547096715e-06
1.54724642e-06
1.547885524e-06
1.55061239e-06
1.562196982e-06
1.610962612e-06
1.812648066e-06
2.619826228e-06
5.656392991e-06
1.574602827e-05
4.077619278e-05
1.547051249e-06
1.547051429e-06
1.547052876e-06
1.547058563e-06
1.547081584e-06
1.547174882e-06
1.54754843e-06
1.549024032e-06
1.554761927e-06
1.576556952e-06
1.656539485e-06
1.935095097e-06
2.827909198e-06
5.313646704e-06
1.062106875e-05
1.547051166e-06
1.547051295e-06
1.54705231e-06
1.54705672e-06
1.547073048e-06
1.547136955e-06
1.547376987e-06
1.548263073e-06
1.551447032e-06
1.562494887e-06
1.599078276e-06
1.712684318e-06
2.034683971e-06
2.831770576e-06
4.432838326e-06
1.547050936e-06
1.547051154e-06
1.547052354e-06
1.547056212e-06
1.547071353e-06
1.547129319e-06
1.54734494e-06
1.548129931e-06
1.550903871e-06
1.560337896e-06
1.590832495e-06
1.682852599e-06
1.935361308e-06
2.541283578e-06
1.547051226e-06
1.547051583e-06
1.547052813e-06
1.547057805e-06
1.547078834e-06
1.547162612e-06
1.547492219e-06
1.548770344e-06
1.553621499e-06
1.571495192e-06
1.634598454e-06
1.843883453e-06
2.475610133e-06
4.12076557e-06
1.547051336e-06
1.547051644e-06
1.547053269e-06
1.547060728e-06
1.547092123e-06
1.547224224e-06
1.547777351e-06
1.550076105e-06
1.559518394e-06
1.597549218e-06
1.745926325e-06
2.295654066e-06
4.164905251e-06
9.635863309e-06
1.547051449e-06
1.547051962e-06
1.547054213e-06
1.547063763e-06
1.547106351e-06
1.547293752e-06
1.548118221e-06
1.551756353e-06
1.567807121e-06
1.638237389e-06
1.942799462e-06
3.219314029e-06
8.244719658e-06
2.563746311e-05
1.547051655e-06
1.547051997e-06
1.547054376e-06
1.547065093e-06
1.547113102e-06
1.547328186e-06
1.548299149e-06
1.552732995e-06
1.573210378e-06
1.668851361e-06
2.119472381e-06
4.245692667e-06
1.410846577e-05
5.696605679e-05
1.547051507e-06
1.547052009e-06
1.547054039e-06
1.54706379e-06
1.547106503e-06
1.547293664e-06
1.548118146e-06
1.551756373e-06
1.567806973e-06
1.638236591e-06
1.942794653e-06
3.219284582e-06
8.244562204e-06
2.563685943e-05
1.547051428e-06
1.547051748e-06
1.547053357e-06
1.547060787e-06
1.547092014e-06
1.547224186e-06
1.547777076e-06
1.550075975e-06
1.559518223e-06
1.59754837e-06
1.745921418e-06
2.295627312e-06
4.164772867e-06
9.635290289e-06
2.159844752e-05
1.547050995e-06
1.547051371e-06
1.547052766e-06
1.547057834e-06
1.547078781e-06
1.547162597e-06
1.547492354e-06
1.548770342e-06
1.55362147e-06
1.57149462e-06
1.634595031e-06
1.843867882e-06
2.4755433e-06
4.120516653e-06
7.477825477e-06
1.547051054e-06
1.547051218e-06
1.547052141e-06
1.547056174e-06
1.5470714e-06
1.547129237e-06
1.547344834e-06
1.548129894e-06
1.550903574e-06
1.560337388e-06
1.590830359e-06
1.682843869e-06
1.935328059e-06
2.541171866e-06
3.742908214e-06
1.547050919e-06
1.547051157e-06
1.54705191e-06
1.547054969e-06
1.547067286e-06
1.547112049e-06
1.547274374e-06
1.547847508e-06
1.549803365e-06
1.556205261e-06
1.576053652e-06
1.633370849e-06
1.784033761e-06
2.133464131e-06
1.547051068e-06
1.547051206e-06
1.547052212e-06
1.547056365e-06
1.547072603e-06
1.547135466e-06
1.547374662e-06
1.548265015e-06
1.551494167e-06
1.562788091e-06
1.600386353e-06
1.717240559e-06
2.046709805e-06
2.853409744e-06
1.547051204e-06
1.547051474e-06
1.547052953e-06
1.547058634e-06
1.547082197e-06
1.547178032e-06
1.547562435e-06
1.549082941e-06
1.554976866e-06
1.577166682e-06
1.657205434e-06
1.928142075e-06
2.760965939e-06
4.959782761e-06
1.547051499e-06
1.547051801e-06
1.547053466e-06
1.547060809e-06
1.547092152e-06
1.547224319e-06
1.547777312e-06
1.550076181e-06
1.559518769e-06
1.597550081e-06
1.745929199e-06
2.295662957e-06
4.164926363e-06
9.635879283e-06
1.547051547e-06
1.547051801e-06
1.547053632e-06
1.547061917e-06
1.54709672e-06
1.547246434e-06
1.54788586e-06
1.550612585e-06
1.562197676e-06
1.61096566e-06
1.812663727e-06
2.619905546e-06
5.656782882e-06
1.574782408e-05
1.547051263e-06
1.547051644e-06
1.547053292e-06
1.547060629e-06
1.547092109e-06
1.547224282e-06
1.547777403e-06
1.5500763e-06
1.559518628e-06
1.597549649e-06
1.745927433e-06
2.295654114e-06
4.164887707e-06
9.635754866e-06
1.547051367e-06
1.547051632e-06
1.547052767e-06
1.547058713e-06
1.547082279e-06
1.547178091e-06
1.547562491e-06
1.549083041e-06
1.554976896e-06
1.577166077e-06
1.657203086e-06
1.928132211e-06
2.760931681e-06
4.959718457e-06
1.547051258e-06
1.547051535e-06
1.547052424e-06
1.54705644e-06
1.547072781e-06
1.547135563e-06
1.547374663e-06
1.54826517e-06
1.551494186e-06
1.56278784e-06
1.600384601e-06
1.717233544e-06
2.046684894e-06
2.853332113e-06
4.459862326e-06
1.547051147e-06
1.5470512e-06
1.547052099e-06
1.547055191e-06
1.547067258e-06
1.547112072e-06
1.54727441e-06
1.547847537e-06
1.549803277e-06
1.556205107e-06
1.576052389e-06
1.633366395e-06
1.784018098e-06
2.133414497e-06
2.821521506e-06
1.547050793e-06
1.547050928e-06
1.547051576e-06
1.547053888e-06
1.547062853e-06
1.547094896e-06
1.547206722e-06
1.54758553e-06
1.548824077e-06
1.552696597e-06
1.56414973e-06
1.595720958e-06
1.675321893e-06
1.854684269e-06
1.547050731e-06
1.547050958e-06
1.54705183e-06
1.547054778e-06
1.547066567e-06
1.547109661e-06
1.547266552e-06
1.547822241e-06
1.549729893e-06
1.556018652e-06
1.575676161e-06
1.632943894e-06
1.784749386e-06
2.139026394e-06
1.547050983e-06
1.547051141e-06
1.54705212e-06
1.547056281e-06
1.547072618e-06
1.547135652e-06
1.547374841e-06
1.548265079e-06
1.55149422e-06
1.562788379e-06
1.60038658e-06
1.717241719e-06
2.046711777e-06
2.853409931e-06
1.547051217e-06
1.547051383e-06
1.54705264e-06
1.547057684e-06
1.547078876e-06
1.547162554e-06
1.547492214e-06
1.548770455e-06
1.553621763e-06
1.571495963e-06
1.634600636e-06
1.843889277e-06
2.475621335e-06
4.120771946e-06
1.547051456e-06
1.547051606e-06
1.547052895e-06
1.54705862e-06
1.547081784e-06
1.547174982e-06
1.547548383e-06
1.549024135e-06
1.554762548e-06
1.57655903e-06
1.656548484e-06
1.93513176e-06
2.82805172e-06
5.314149359e-06
1.547051241e-06
1.547051533e-06
1.547052865e-06
1.547057875e-06
1.547078968e-06
1.547162587e-06
1.547492449e-06
1.548770417e-06
1.553621696e-06
1.571495699e-06
1.634599931e-06
1.843886378e-06
2.475610854e-06
4.120741292e-06
1.547051119e-06
1.547051385e-06
1.547052466e-06
1.54705654e-06
1.547072798e-06
1.54713576e-06
1.547374783e-06
1.548265308e-06
1.551494235e-06
1.56278816e-06
1.600385844e-06
1.717238579e-06
2.046702474e-06
2.853392268e-06
1.547051312e-06
1.547051307e-06
1.547052026e-06
1.547055061e-06
1.547066595e-06
1.547109625e-06
1.547266524e-06
1.547822337e-06
1.54973005e-06
1.556018811e-06
1.575675874e-06
1.632941995e-06
1.784743998e-06
2.139021617e-06
1.547051278e-06
1.547051241e-06
1.547051789e-06
1.54705418e-06
1.547063069e-06
1.547095017e-06
1.547206869e-06
1.54758558e-06
1.548824025e-06
1.552696623e-06
1.564149319e-06
1.595719328e-06
1.675316628e-06
1.854669773e-06
2.20704074e-06
1.547050684e-06
1.547050813e-06
1.54705129e-06
1.547053355e-06
1.547060416e-06
1.547085053e-06
1.547168133e-06
1.547439934e-06
1.548294994e-06
1.55086311e-06
1.558152489e-06
1.577465749e-06
1.624534278e-06
1.728320845e-06
1.547050816e-06
1.547050968e-06
1.547051497e-06
1.547053826e-06
1.547062884e-06
1.547094955e-06
1.547206635e-06
1.54758557e-06
1.548823972e-06
1.552696621e-06
1.56414992e-06
1.595721311e-06
1.675322406e-06
1.854684631e-06
1.54705105e-06
1.547051095e-06
1.547051969e-06
1.547055e-06
1.547067233e-06
1.547112171e-06
1.547274533e-06
1.547847479e-06
1.549803407e-06
1.556205644e-06
1.576054239e-06
1.633372186e-06
1.78403622e-06
2.133466426e-06
1.547051192e-06
1.547051308e-06
1.547052318e-06
1.547056153e-06
1.547071458e-06
1.547129111e-06
1.547344943e-06
1.548130074e-06
1.550903969e-06
1.560338254e-06
1.590833718e-06
1.682856332e-06
1.935368342e-06
2.541290339e-06
1.547051145e-06
1.547051384e-06
1.547052438e-06
1.547056627e-06
1.547073107e-06
1.547136695e-06
1.547376989e-06
1.548263329e-06
1.55144755e-06
1.562496129e-06
1.59908304e-06
1.71270216e-06
2.034743054e-06
2.831947946e-06
1.547051006e-06
1.547051225e-06
1.547052216e-06
1.547056224e-06
1.547071475e-06
1.547129374e-06
1.547345035e-06
1.548130001e-06
1.550904022e-06
1.560338341e-06
1.590833597e-06
1.682855529e-06
1.935365797e-06
2.541281877e-06
1.547051146e-06
1.54705121e-06
1.547052068e-06
1.547055082e-06
1.547067256e-06
1.547112164e-06
1.547274542e-06
1.547847572e-06
1.549803383e-06
1.556205553e-06
1.576053996e-06
1.633371539e-06
1.784033919e-06
2.133461061e-06
1.547051055e-06
1.547051281e-06
1.547051796e-06
1.547054153e-06
1.547062928e-06
1.547095024e-06
1.547206725e-06
1.547585516e-06
1.548823926e-06
1.552696736e-06
1.564149827e-06
1.595720518e-06
1.675320382e-06
1.854682704e-06
1.547050974e-06
1.547051158e-06
1.54705172e-06
1.547053598e-06
1.547060563e-06
1.547085128e-06
1.547168165e-06
1.547439985e-06
1.548295029e-06
1.550863124e-06
1.558152146e-06
1.577465043e-06
1.624532942e-06
1.728320912e-06
)
;

boundaryField
{
    top
    {
        type            calculated;
        value           nonuniform List<scalar> 
134
(
1.547050567e-06
1.547050832e-06
1.547050821e-06
1.547050969e-06
1.547051166e-06
1.547051054e-06
1.547051147e-06
1.547051278e-06
1.547050974e-06
1.547050779e-06
1.547050832e-06
1.547050957e-06
1.547051251e-06
1.547051295e-06
1.547051218e-06
1.5470512e-06
1.547051241e-06
1.547051158e-06
1.547051379e-06
1.547051456e-06
1.547051882e-06
1.547052143e-06
1.54705231e-06
1.547052141e-06
1.547052099e-06
1.547051789e-06
1.54705172e-06
1.547053359e-06
1.547053836e-06
1.547054953e-06
1.547056245e-06
1.54705672e-06
1.547056174e-06
1.547055191e-06
1.54705418e-06
1.547053598e-06
1.547060298e-06
1.547062891e-06
1.547066967e-06
1.547071285e-06
1.547073048e-06
1.5470714e-06
1.547067258e-06
1.547063069e-06
1.547060563e-06
1.547084845e-06
1.54709497e-06
1.547111989e-06
1.547129078e-06
1.547136955e-06
1.547129237e-06
1.547112072e-06
1.547095017e-06
1.547085128e-06
1.547168052e-06
1.54720653e-06
1.547274386e-06
1.547344814e-06
1.547376987e-06
1.547344834e-06
1.54727441e-06
1.547206869e-06
1.547168165e-06
1.547439617e-06
1.54758538e-06
1.547847258e-06
1.548129816e-06
1.548263073e-06
1.548129894e-06
1.547847537e-06
1.54758558e-06
1.547439985e-06
1.548294574e-06
1.54882371e-06
1.549803013e-06
1.550903479e-06
1.551447032e-06
1.550903574e-06
1.549803277e-06
1.548824025e-06
1.548295029e-06
1.55086238e-06
1.552695988e-06
1.556204509e-06
1.56033689e-06
1.562494887e-06
1.560337388e-06
1.556205107e-06
1.552696623e-06
1.550863124e-06
1.558150736e-06
1.56414786e-06
1.576050646e-06
1.590828927e-06
1.599078276e-06
1.590830359e-06
1.576052389e-06
1.564149319e-06
1.558152146e-06
1.577461452e-06
1.595714798e-06
1.633361192e-06
1.682840149e-06
1.712684318e-06
1.682843869e-06
1.633366395e-06
1.595719328e-06
1.577465043e-06
1.624523006e-06
1.675304169e-06
1.784002971e-06
1.935317107e-06
2.034683971e-06
1.935328059e-06
1.784018098e-06
1.675316628e-06
1.624532942e-06
1.728292505e-06
1.85463724e-06
2.133376802e-06
2.54114376e-06
2.831770576e-06
2.541171866e-06
2.133414497e-06
1.854669773e-06
1.728320912e-06
1.932162959e-06
2.206967879e-06
2.821448406e-06
3.742854993e-06
4.432838326e-06
3.742908214e-06
2.821521506e-06
2.20704074e-06
)
;
    }
    bottom
    {
        type            calculated;
        value           nonuniform List<scalar> 
127
(
1.547050845e-06
1.547050837e-06
1.547051155e-06
1.547050906e-06
1.54705115e-06
1.547050936e-06
1.547050919e-06
1.547050793e-06
1.547050684e-06
1.547050909e-06
1.547050939e-06
1.547051206e-06
1.547051246e-06
1.547051332e-06
1.547051154e-06
1.547051157e-06
1.547050928e-06
1.547050813e-06
1.547051161e-06
1.547051596e-06
1.547051884e-06
1.547052166e-06
1.547052488e-06
1.547052354e-06
1.54705191e-06
1.547051576e-06
1.54705129e-06
1.547053156e-06
1.547053894e-06
1.547055172e-06
1.54705607e-06
1.54705646e-06
1.547056212e-06
1.547054969e-06
1.547053888e-06
1.547053355e-06
1.547060309e-06
1.547062825e-06
1.547067239e-06
1.547071274e-06
1.547073104e-06
1.547071353e-06
1.547067286e-06
1.547062853e-06
1.547060416e-06
1.547084914e-06
1.547094822e-06
1.547111965e-06
1.547128882e-06
1.547136914e-06
1.547129319e-06
1.547112049e-06
1.547094896e-06
1.547085053e-06
1.54716787e-06
1.547206618e-06
1.547274471e-06
1.547344691e-06
1.547377107e-06
1.54734494e-06
1.547274374e-06
1.547206722e-06
1.547168133e-06
1.547439605e-06
1.547585372e-06
1.547847321e-06
1.548129643e-06
1.5482633e-06
1.548129931e-06
1.547847508e-06
1.54758553e-06
1.547439934e-06
1.548294561e-06
1.548823721e-06
1.549803067e-06
1.550903528e-06
1.551447315e-06
1.550903871e-06
1.549803365e-06
1.548824077e-06
1.548294994e-06
1.550862423e-06
1.552695884e-06
1.556204672e-06
1.560337296e-06
1.562495518e-06
1.560337896e-06
1.556205261e-06
1.552696597e-06
1.55086311e-06
1.558151018e-06
1.564148347e-06
1.576051848e-06
1.590830927e-06
1.599081005e-06
1.590832495e-06
1.576053652e-06
1.56414973e-06
1.558152489e-06
1.577462711e-06
1.595717352e-06
1.633366678e-06
1.682849254e-06
1.712696814e-06
1.682852599e-06
1.633370849e-06
1.595720958e-06
1.577465749e-06
1.624527592e-06
1.675314867e-06
1.784025248e-06
1.935354341e-06
2.034733504e-06
1.935361308e-06
1.784033761e-06
1.675321893e-06
1.624534278e-06
1.728307307e-06
1.854678721e-06
2.133457137e-06
2.541276937e-06
2.831944758e-06
2.541283578e-06
2.133464131e-06
1.854684269e-06
1.728320845e-06
1.932200372e-06
)
;
    }
    side-walls
    {
        type            calculated;
        value           nonuniform List<scalar> 
261
(
1.547050845e-06
1.547050853e-06
1.547050831e-06
1.54705089e-06
1.547051033e-06
1.547050812e-06
1.54705081e-06
1.547050763e-06
1.547050567e-06
1.547050909e-06
1.547051006e-06
1.547051085e-06
1.547051086e-06
1.547051237e-06
1.54705101e-06
1.547050978e-06
1.547050671e-06
1.547050779e-06
1.547051161e-06
1.547051494e-06
1.54705189e-06
1.547052091e-06
1.547052217e-06
1.547052038e-06
1.54705187e-06
1.547051485e-06
1.547051379e-06
1.547053156e-06
1.54705403e-06
1.547055002e-06
1.547055964e-06
1.547056475e-06
1.547056085e-06
1.54705501e-06
1.547053961e-06
1.547053359e-06
1.547060309e-06
1.547062924e-06
1.547067137e-06
1.54707135e-06
1.547073104e-06
1.547071311e-06
1.547067026e-06
1.547062875e-06
1.547060298e-06
1.547084914e-06
1.547094968e-06
1.547112101e-06
1.547129401e-06
1.547136829e-06
1.547129288e-06
1.547111953e-06
1.547094811e-06
1.547084845e-06
1.54716787e-06
1.547206684e-06
1.547274394e-06
1.547344808e-06
1.547376864e-06
1.547344906e-06
1.547274263e-06
1.547206671e-06
1.547168052e-06
1.547439605e-06
1.547585427e-06
1.547847255e-06
1.548129596e-06
1.548262946e-06
1.548129654e-06
1.547847242e-06
1.54758532e-06
1.547439617e-06
1.548294561e-06
1.548823714e-06
1.549802951e-06
1.550903289e-06
1.551446823e-06
1.550903262e-06
1.549802908e-06
1.548823741e-06
1.548294574e-06
1.550862423e-06
1.552695775e-06
1.556204168e-06
1.560336409e-06
1.562494175e-06
1.560336419e-06
1.556204182e-06
1.552696012e-06
1.55086238e-06
1.558151018e-06
1.56414777e-06
1.576050269e-06
1.590827519e-06
1.599075727e-06
1.59082724e-06
1.576050004e-06
1.564147655e-06
1.558150736e-06
1.577462711e-06
1.595715811e-06
1.633360421e-06
1.682836619e-06
1.712677614e-06
1.682835187e-06
1.633359374e-06
1.595714346e-06
1.577461452e-06
1.624527592e-06
1.675307968e-06
1.784003815e-06
1.935310696e-06
2.034668534e-06
1.935305971e-06
1.783999232e-06
1.675302865e-06
1.624523006e-06
1.728307307e-06
1.854651416e-06
2.133386022e-06
2.541139246e-06
2.831745121e-06
2.541125416e-06
2.13337059e-06
1.85463532e-06
1.728292505e-06
1.932200372e-06
2.207003333e-06
2.821480704e-06
3.742871941e-06
4.432826319e-06
3.742838549e-06
2.82144267e-06
2.206965541e-06
1.932162959e-06
1.547050684e-06
1.547050816e-06
1.54705105e-06
1.547051192e-06
1.547051145e-06
1.547051006e-06
1.547051146e-06
1.547051055e-06
1.547050974e-06
1.547050813e-06
1.547050968e-06
1.547051095e-06
1.547051308e-06
1.547051384e-06
1.547051225e-06
1.54705121e-06
1.547051281e-06
1.547051158e-06
1.54705129e-06
1.547051497e-06
1.547051969e-06
1.547052318e-06
1.547052438e-06
1.547052216e-06
1.547052068e-06
1.547051796e-06
1.54705172e-06
1.547053355e-06
1.547053826e-06
1.547055e-06
1.547056153e-06
1.547056627e-06
1.547056224e-06
1.547055082e-06
1.547054153e-06
1.547053598e-06
1.547060416e-06
1.547062884e-06
1.547067233e-06
1.547071458e-06
1.547073107e-06
1.547071475e-06
1.547067256e-06
1.547062928e-06
1.547060563e-06
1.547085053e-06
1.547094955e-06
1.547112171e-06
1.547129111e-06
1.547136695e-06
1.547129374e-06
1.547112164e-06
1.547095024e-06
1.547085128e-06
1.547168133e-06
1.547206635e-06
1.547274533e-06
1.547344943e-06
1.547376989e-06
1.547345035e-06
1.547274542e-06
1.547206725e-06
1.547168165e-06
1.547439934e-06
1.54758557e-06
1.547847479e-06
1.548130074e-06
1.548263329e-06
1.548130001e-06
1.547847572e-06
1.547585516e-06
1.547439985e-06
1.548294994e-06
1.548823972e-06
1.549803407e-06
1.550903969e-06
1.55144755e-06
1.550904022e-06
1.549803383e-06
1.548823926e-06
1.548295029e-06
1.55086311e-06
1.552696621e-06
1.556205644e-06
1.560338254e-06
1.562496129e-06
1.560338341e-06
1.556205553e-06
1.552696736e-06
1.550863124e-06
1.558152489e-06
1.56414992e-06
1.576054239e-06
1.590833718e-06
1.59908304e-06
1.590833597e-06
1.576053996e-06
1.564149827e-06
1.558152146e-06
1.577465749e-06
1.595721311e-06
1.633372186e-06
1.682856332e-06
1.71270216e-06
1.682855529e-06
1.633371539e-06
1.595720518e-06
1.577465043e-06
1.624534278e-06
1.675322406e-06
1.78403622e-06
1.935368342e-06
2.034743054e-06
1.935365797e-06
1.784033919e-06
1.675320382e-06
1.624532942e-06
1.728320845e-06
1.854684631e-06
2.133466426e-06
2.541290339e-06
2.831947946e-06
2.541281877e-06
2.133461061e-06
1.854682704e-06
1.728320912e-06
)
;
    }
    inlet
    {
        type            calculated;
        value           nonuniform List<scalar> 
81
(
1.547050845e-06
1.547050853e-06
1.547050831e-06
1.54705089e-06
1.547051033e-06
1.547050812e-06
1.54705081e-06
1.547050763e-06
1.547050567e-06
1.547050837e-06
1.547051088e-06
1.547051079e-06
1.547051282e-06
1.547051201e-06
1.547051096e-06
1.547050843e-06
1.547050841e-06
1.547050832e-06
1.547051155e-06
1.54705109e-06
1.547051131e-06
1.547051286e-06
1.547051314e-06
1.547051244e-06
1.547051116e-06
1.547051111e-06
1.547050821e-06
1.547050906e-06
1.547050918e-06
1.547051376e-06
1.547051529e-06
1.547051473e-06
1.547051493e-06
1.547051237e-06
1.547051288e-06
1.547050969e-06
1.54705115e-06
1.547051266e-06
1.547051293e-06
1.547051573e-06
1.547051561e-06
1.547051651e-06
1.547051392e-06
1.547051249e-06
1.547051166e-06
1.547050936e-06
1.547051226e-06
1.547051336e-06
1.547051449e-06
1.547051655e-06
1.547051507e-06
1.547051428e-06
1.547050995e-06
1.547051054e-06
1.547050919e-06
1.547051068e-06
1.547051204e-06
1.547051499e-06
1.547051547e-06
1.547051263e-06
1.547051367e-06
1.547051258e-06
1.547051147e-06
1.547050793e-06
1.547050731e-06
1.547050983e-06
1.547051217e-06
1.547051456e-06
1.547051241e-06
1.547051119e-06
1.547051312e-06
1.547051278e-06
1.547050684e-06
1.547050816e-06
1.54705105e-06
1.547051192e-06
1.547051145e-06
1.547051006e-06
1.547051146e-06
1.547051055e-06
1.547050974e-06
)
;
    }
    outlet
    {
        type            calculated;
        value           nonuniform 0();
    }
    procBoundary0to1
    {
        type            processor;
        value           nonuniform List<scalar> 
97
(
2.286492097e-06
2.207037504e-06
2.801964775e-06
3.939185266e-06
5.602813326e-06
6.788430216e-06
5.602769683e-06
3.939138672e-06
2.801924113e-06
2.286464058e-06