/*--------------------------------*- C++ -*----------------------------------*\
| =========                 |                                                 |
| \\      /  F ield         | OpenFOAM: The Open Source CFD Toolbox           |
|  \\    /   O peration     | Version:  4.x                                   |
|   \\  /    A nd           | Web:      www.OpenFOAM.org                      |
|    \\/     M anipulation  |                                                 |
\*---------------------------------------------------------------------------*/
FoamFile
{
    version     2.0;
    format      ascii;
    class       volScalarField;
    location    "9000";
    object      CO;
}
// * * * * * * * * * * * * * * * * * * * * * * * * * * * * * * * * * * * * * //

dimensions      [0 0 0 0 0 0 0];

internalField   nonuniform List<scalar> 
1175
(
0.3719638838
0.3719638837
0.3719638838
0.3719638836
0.3719638835
0.3719638836
0.3719638834
0.3719638825
0.3719638801
0.3719638733
0.3719638533
0.3719638001
0.3719636697
0.371963381
0.3719628126
0.3719638834
0.3719638835
0.3719638836
0.3719638836
0.3719638836
0.3719638837
0.3719638835
0.3719638824
0.371963879
0.3719638683
0.3719638367
0.3719637493
0.3719635277
0.3719630269
0.37196204
0.3719638838
0.3719638839
0.3719638838
0.3719638837
0.3719638837
0.3719638836
0.3719638832
0.3719638816
0.3719638765
0.3719638585
0.3719638036
0.3719636443
0.3719632232
0.3719622437
0.3719603084
0.3719638838
0.3719638838
0.3719638838
0.3719638837
0.3719638839
0.3719638838
0.3719638832
0.3719638809
0.3719638734
0.3719638472
0.3719637623
0.3719635056
0.3719627981
0.3719610944
0.3719577034
0.3719638841
0.3719638841
0.3719638842
0.3719638841
0.3719638841
0.3719638836
0.3719638828
0.3719638803
0.3719638715
0.3719638409
0.3719637391
0.3719634214
0.3719625178
0.3719602717
0.3719557447
0.3719638841
0.3719638841
0.3719638842
0.371963884
0.3719638839
0.3719638833
0.3719638828
0.3719638806
0.371963873
0.3719638469
0.3719637621
0.3719635055
0.3719627981
0.3719610942
0.3719577033
0.3719638839
0.3719638836
0.3719638838
0.371963884
0.3719638837
0.3719638836
0.3719638828
0.3719638814
0.3719638759
0.3719638583
0.3719638036
0.3719636443
0.3719632235
0.371962244
0.3719603086
0.3719638838
0.3719638839
0.3719638838
0.3719638841
0.3719638837
0.3719638837
0.3719638833
0.3719638821
0.3719638788
0.3719638681
0.3719638363
0.3719637489
0.3719635276
0.3719630268
0.3719620401
0.3719638838
0.3719638838
0.3719638839
0.3719638839
0.3719638839
0.3719638835
0.3719638833
0.3719638826
0.37196388
0.3719638731
0.3719638532
0.3719638
0.3719636695
0.3719633809
0.3719628125
0.3719638838
0.3719638838
0.3719638838
0.371963884
0.3719638839
0.3719638837
0.3719638834
0.3719638823
0.3719638792
0.3719638685
0.3719638367
0.3719637492
0.3719635278
0.371963027
0.3719638835
0.3719638837
0.3719638836
0.3719638837
0.3719638838
0.3719638835
0.3719638833
0.3719638818
0.3719638767
0.3719638589
0.3719638045
0.3719636451
0.3719632208
0.3719622269
0.3719602619
0.3719638838
0.3719638837
0.3719638837
0.3719638839
0.3719638839
0.3719638836
0.3719638831
0.3719638806
0.3719638717
0.3719638403
0.3719637356
0.371963409
0.371962484
0.3719602112
0.3719556702
0.3719638839
0.3719638839
0.3719638837
0.3719638837
0.3719638836
0.3719638833
0.3719638829
0.3719638791
0.3719638658
0.3719638162
0.3719636398
0.3719630529
0.3719612733
0.3719566223
0.3719470974
0.3719638838
0.3719638843
0.371963884
0.3719638839
0.3719638838
0.3719638836
0.3719638824
0.3719638781
0.3719638625
0.3719638017
0.371963578
0.371962795
0.3719602746
0.3719532293
0.3719381319
0.3719638839
0.3719638838
0.3719638839
0.371963884
0.3719638838
0.3719638835
0.3719638825
0.371963879
0.3719638656
0.3719638158
0.3719636394
0.3719630524
0.3719612732
0.3719566223
0.3719470975
0.3719638841
0.3719638841
0.3719638837
0.3719638838
0.371963884
0.3719638834
0.3719638828
0.3719638804
0.3719638714
0.3719638403
0.3719637352
0.3719634086
0.3719624838
0.3719602111
0.3719556704
0.3719638839
0.371963884
0.3719638839
0.3719638837
0.3719638837
0.3719638835
0.3719638832
0.3719638814
0.3719638764
0.3719638592
0.3719638046
0.371963645
0.3719632205
0.3719622267
0.371960262
0.3719638837
0.3719638837
0.3719638838
0.3719638836
0.3719638838
0.3719638836
0.3719638835
0.3719638822
0.3719638789
0.3719638685
0.3719638367
0.3719637491
0.3719635276
0.371963027
0.37196204
0.3719638836
0.3719638836
0.3719638839
0.3719638837
0.3719638838
0.3719638837
0.3719638832
0.3719638819
0.3719638765
0.3719638586
0.3719638037
0.3719636442
0.3719632234
0.3719622439
0.3719638837
0.3719638838
0.371963884
0.3719638841
0.3719638839
0.3719638836
0.3719638827
0.3719638803
0.3719638715
0.37196384
0.3719637357
0.371963409
0.3719624841
0.3719602112
0.3719638837
0.3719638839
0.3719638838
0.3719638838
0.3719638838
0.3719638837
0.3719638824
0.3719638786
0.3719638623
0.3719638004
0.3719635763
0.3719628156
0.3719604677
0.3719542459
0.3719414505
0.3719638839
0.371963884
0.3719638837
0.3719638838
0.3719638839
0.3719638835
0.3719638819
0.3719638753
0.3719638491
0.3719637431
0.3719633266
0.3719617779
0.3719564894
0.3719409519
0.3719068556
0.3719638835
0.3719638836
0.3719638842
0.3719638842
0.3719638842
0.3719638833
0.3719638815
0.3719638739
0.3719638418
0.3719637051
0.3719631381
0.3719608583
0.3719522441
0.371923505
0.3718519525
0.3719638835
0.3719638836
0.3719638838
0.371963884
0.3719638838
0.3719638832
0.3719638819
0.3719638755
0.3719638493
0.3719637426
0.3719633267
0.3719617777
0.3719564894
0.3719409522
0.3719068571
0.3719638838
0.3719638836
0.3719638836
0.3719638836
0.3719638836
0.3719638834
0.3719638822
0.3719638782
0.3719638619
0.3719638001
0.3719635763
0.3719628154
0.3719604675
0.3719542461
0.3719414514
0.3719638836
0.3719638836
0.3719638837
0.3719638836
0.3719638836
0.3719638835
0.3719638829
0.3719638806
0.3719638715
0.3719638404
0.3719637357
0.3719634088
0.3719624841
0.3719602116
0.3719556705
0.3719638838
0.3719638837
0.3719638837
0.3719638839
0.3719638838
0.3719638837
0.3719638831
0.3719638817
0.3719638762
0.3719638587
0.3719638035
0.371963644
0.3719632235
0.3719622438
0.3719603084
0.371963884
0.3719638838
0.3719638838
0.371963884
0.3719638839
0.3719638837
0.3719638829
0.3719638809
0.3719638733
0.3719638471
0.3719637624
0.3719635057
0.3719627981
0.371961094
0.3719638841
0.3719638839
0.371963884
0.3719638839
0.3719638837
0.3719638836
0.3719638824
0.371963879
0.3719638657
0.3719638158
0.3719636397
0.3719630526
0.3719612731
0.3719566219
0.3719638838
0.3719638837
0.3719638837
0.3719638839
0.3719638838
0.3719638833
0.3719638818
0.3719638757
0.3719638494
0.3719637431
0.3719633267
0.3719617778
0.3719564892
0.3719409507
0.3719638839
0.3719638839
0.3719638838
0.3719638838
0.3719638836
0.371963883
0.3719638809
0.3719638707
0.3719638259
0.3719636286
0.3719627712
0.3719591608
0.3719448887
0.3718953026
0.3717684892
0.3719638839
0.371963884
0.371963884
0.3719638839
0.3719638837
0.3719638832
0.3719638804
0.371963868
0.3719638109
0.3719635423
0.3719622704
0.3719562404
0.3719281448
0.3718055734
0.3713800244
0.3719638838
0.3719638837
0.3719638838
0.3719638839
0.3719638838
0.3719638833
0.3719638809
0.3719638708
0.3719638262
0.3719636284
0.3719627711
0.3719591608
0.3719448889
0.3718953052
0.3717684991
0.3719638836
0.3719638836
0.371963884
0.3719638839
0.3719638838
0.3719638836
0.3719638821
0.3719638759
0.3719638495
0.371963743
0.3719633268
0.3719617779
0.3719564894
0.3719409524
0.3719068568
0.3719638837
0.3719638835
0.3719638837
0.3719638836
0.3719638836
0.3719638837
0.3719638829
0.3719638793
0.371963866
0.3719638164
0.3719636398
0.3719630526
0.3719612734
0.3719566224
0.3719470978
0.3719638838
0.3719638837
0.3719638836
0.3719638839
0.3719638839
0.3719638838
0.3719638832
0.3719638809
0.3719638734
0.3719638471
0.3719637623
0.3719635055
0.3719627982
0.3719610942
0.3719577032
0.3719638838
0.371963884
0.3719638841
0.3719638838
0.3719638839
0.3719638836
0.3719638829
0.3719638806
0.3719638716
0.371963841
0.371963739
0.3719634217
0.3719625178
0.3719602713
0.3719638842
0.371963884
0.3719638838
0.3719638838
0.3719638838
0.3719638835
0.3719638824
0.3719638785
0.3719638628
0.3719638018
0.371963578
0.3719627948
0.3719602744
0.3719532281
0.3719638841
0.3719638841
0.3719638842
0.3719638839
0.3719638835
0.3719638832
0.3719638816
0.3719638743
0.371963842
0.3719637053
0.3719631382
0.3719608582
0.3719522436
0.3719235018
0.3719638837
0.3719638838
0.3719638839
0.371963884
0.3719638837
0.3719638831
0.3719638803
0.3719638681
0.3719638108
0.3719635424
0.3719622702
0.3719562403
0.3719281435
0.3718055636
0.3719638838
0.3719638839
0.3719638839
0.3719638837
0.3719638838
0.3719638829
0.3719638798
0.3719638644
0.371963789
0.3719634036
0.3719613427
0.3719496773
0.3718791042
0.3714197862
0.3681889809
0.3719638839
0.3719638838
0.3719638838
0.3719638839
0.3719638838
0.3719638833
0.3719638806
0.3719638682
0.3719638109
0.3719635422
0.3719622705
0.3719562403
0.3719281447
0.3718055726
0.3713800247
0.3719638835
0.3719638837
0.3719638839
0.3719638838
0.3719638837
0.3719638838
0.3719638818
0.3719638742
0.3719638418
0.3719637053
0.3719631384
0.3719608583
0.3719522443
0.3719235046
0.3718519522
0.3719638835
0.3719638837
0.3719638838
0.3719638837
0.3719638837
0.3719638836
0.3719638826
0.3719638785
0.3719638626
0.3719638018
0.3719635779
0.3719627951
0.3719602748
0.371953229
0.3719381322
0.3719638838
0.3719638837
0.3719638837
0.3719638841
0.3719638839
0.3719638838
0.3719638832
0.3719638806
0.3719638719
0.3719638412
0.3719637395
0.3719634219
0.3719625179
0.3719602718
0.3719557446
0.3719638839
0.3719638839
0.371963884
0.3719638838
0.3719638837
0.3719638836
0.3719638831
0.371963881
0.3719638729
0.3719638472
0.3719637623
0.3719635056
0.3719627982
0.3719610939
0.3719638841
0.3719638841
0.3719638839
0.3719638836
0.371963884
0.3719638837
0.3719638825
0.3719638794
0.3719638658
0.3719638162
0.3719636399
0.3719630527
0.3719612734
0.3719566219
0.3719638841
0.371963884
0.3719638842
0.371963884
0.3719638836
0.3719638832
0.3719638817
0.3719638755
0.3719638491
0.3719637432
0.3719633267
0.3719617779
0.371956489
0.3719409504
0.3719638836
0.371963884
0.3719638841
0.3719638839
0.3719638838
0.3719638832
0.3719638809
0.3719638707
0.3719638259
0.3719636287
0.3719627713
0.3719591608
0.3719448881
0.3718953
0.3719638839
0.3719638839
0.3719638839
0.3719638838
0.3719638838
0.3719638834
0.3719638805
0.3719638682
0.3719638109
0.3719635424
0.3719622706
0.3719562404
0.3719281434
0.3718055626
0.3719638837
0.3719638839
0.3719638841
0.3719638839
0.3719638839
0.3719638832
0.3719638811
0.3719638707
0.3719638261
0.3719636285
0.3719627709
0.3719591609
0.3719448882
0.3718953004
0.3719638838
0.3719638839
0.371963884
0.371963884
0.3719638839
0.3719638834
0.3719638822
0.3719638755
0.3719638492
0.3719637429
0.3719633266
0.3719617778
0.3719564893
0.3719409518
0.3719068542
0.3719638836
0.3719638835
0.3719638836
0.3719638836
0.3719638838
0.3719638834
0.3719638825
0.3719638791
0.3719638659
0.371963816
0.3719636395
0.3719630526
0.3719612735
0.3719566222
0.3719470972
0.3719638836
0.3719638835
0.3719638836
0.3719638837
0.3719638839
0.3719638837
0.3719638832
0.3719638812
0.3719638734
0.3719638471
0.3719637623
0.3719635056
0.3719627981
0.371961094
0.3719577032
0.3719638839
0.371963884
0.3719638839
0.3719638837
0.3719638837
0.3719638838
0.3719638831
0.3719638815
0.3719638759
0.3719638584
0.3719638036
0.3719636438
0.3719632231
0.3719622435
0.3719638842
0.371963884
0.3719638839
0.3719638838
0.3719638838
0.3719638836
0.371963883
0.3719638805
0.3719638717
0.3719638406
0.3719637356
0.3719634091
0.3719624842
0.3719602113
0.3719638842
0.3719638841
0.3719638841
0.3719638838
0.3719638839
0.3719638836
0.3719638824
0.3719638782
0.371963862
0.3719638002
0.3719635764
0.3719628155
0.3719604674
0.3719542451
0.371963884
0.371963884
0.371963884
0.3719638839
0.3719638838
0.3719638835
0.3719638818
0.3719638759
0.3719638493
0.3719637432
0.371963327
0.3719617779
0.3719564892
0.3719409507
0.3719638841
0.371963884
0.371963884
0.3719638839
0.3719638839
0.3719638833
0.3719638818
0.3719638743
0.3719638418
0.3719637055
0.3719631383
0.3719608583
0.3719522435
0.3719235016
0.3719638841
0.3719638841
0.371963884
0.371963884
0.3719638839
0.3719638835
0.3719638817
0.3719638756
0.3719638491
0.3719637432
0.3719633269
0.3719617779
0.3719564891
0.3719409506
0.3719638842
0.3719638839
0.371963884
0.3719638838
0.3719638839
0.3719638836
0.3719638827
0.3719638784
0.3719638621
0.3719638004
0.3719635768
0.371962816
0.3719604679
0.3719542457
0.3719638836
0.3719638836
0.3719638838
0.3719638837
0.3719638839
0.3719638835
0.3719638831
0.3719638808
0.371963872
0.3719638407
0.3719637358
0.3719634091
0.3719624843
0.3719602115
0.3719556703
0.3719638835
0.3719638836
0.3719638837
0.3719638838
0.3719638841
0.3719638838
0.3719638833
0.3719638815
0.3719638762
0.3719638587
0.3719638037
0.3719636442
0.3719632235
0.3719622441
0.3719603088
0.3719638841
0.3719638842
0.3719638842
0.371963884
0.3719638839
0.3719638839
0.3719638835
0.3719638825
0.3719638791
0.3719638683
0.3719638369
0.3719637494
0.371963528
0.371963027
0.371963884
0.3719638838
0.371963884
0.3719638841
0.371963884
0.3719638838
0.3719638832
0.3719638817
0.3719638766
0.3719638592
0.3719638048
0.3719636453
0.371963221
0.3719622272
0.3719638839
0.3719638837
0.3719638839
0.371963884
0.3719638842
0.3719638838
0.3719638832
0.3719638809
0.3719638719
0.3719638405
0.3719637358
0.3719634091
0.3719624842
0.3719602115
0.3719638839
0.3719638841
0.3719638842
0.371963884
0.3719638841
0.3719638838
0.3719638829
0.3719638792
0.3719638656
0.371963816
0.3719636397
0.3719630528
0.3719612733
0.3719566221
0.371963884
0.3719638841
0.3719638842
0.371963884
0.3719638838
0.3719638835
0.3719638824
0.3719638786
0.3719638627
0.371963802
0.3719635781
0.3719627951
0.3719602745
0.3719532284
0.3719638838
0.3719638839
0.3719638837
0.3719638839
0.3719638837
0.3719638836
0.3719638827
0.3719638793
0.3719638657
0.371963816
0.3719636399
0.3719630528
0.3719612734
0.3719566222
0.3719638839
0.3719638838
0.3719638842
0.3719638839
0.3719638837
0.3719638837
0.371963883
0.3719638805
0.3719638717
0.3719638403
0.3719637359
0.3719634091
0.3719624844
0.3719602116
0.3719638839
0.3719638841
0.3719638837
0.3719638837
0.3719638838
0.3719638839
0.3719638833
0.3719638818
0.3719638767
0.3719638595
0.3719638048
0.3719636453
0.3719632209
0.371962227
0.3719638838
0.3719638839
0.3719638836
0.3719638838
0.3719638839
0.3719638834
0.3719638836
0.3719638827
0.3719638792
0.3719638686
0.3719638368
0.3719637492
0.3719635278
0.3719630272
0.3719620402
0.371963884
0.3719638841
0.3719638841
0.3719638842
0.3719638841
0.3719638841
0.3719638837
0.3719638829
0.3719638808
0.3719638736
0.3719638534
0.3719638
0.3719636695
0.3719633809
0.3719638839
0.3719638839
0.371963884
0.3719638839
0.3719638842
0.3719638841
0.3719638836
0.3719638825
0.3719638791
0.3719638688
0.3719638368
0.3719637494
0.3719635277
0.3719630271
0.3719638839
0.3719638839
0.3719638839
0.3719638842
0.3719638842
0.3719638842
0.3719638833
0.3719638819
0.3719638764
0.3719638585
0.3719638035
0.3719636442
0.3719632232
0.3719622438
0.371963884
0.3719638842
0.3719638841
0.3719638841
0.3719638841
0.3719638841
0.3719638834
0.371963881
0.3719638733
0.3719638472
0.3719637624
0.3719635058
0.3719627982
0.3719610943
0.3719638839
0.3719638841
0.3719638839
0.3719638838
0.3719638838
0.3719638836
0.371963883
0.3719638806
0.3719638719
0.3719638412
0.3719637396
0.3719634218
0.3719625179
0.3719602717
0.3719638841
0.371963884
0.3719638839
0.371963884
0.3719638839
0.3719638836
0.3719638832
0.3719638811
0.3719638735
0.3719638474
0.3719637626
0.3719635057
0.3719627982
0.3719610944
0.3719638838
0.3719638839
0.371963884
0.371963884
0.3719638838
0.3719638837
0.3719638836
0.3719638817
0.3719638763
0.3719638587
0.3719638038
0.3719636441
0.3719632235
0.3719622441
0.3719638838
0.371963884
0.3719638838
0.3719638838
0.3719638838
0.3719638839
0.3719638835
0.3719638824
0.3719638791
0.3719638685
0.3719638369
0.3719637495
0.371963528
0.3719630273
0.3719638839
0.3719638838
0.3719638838
0.3719638839
0.3719638839
0.371963884
0.3719638839
0.371963883
0.3719638806
0.3719638735
0.3719638535
0.3719638
0.3719636698
0.3719633812
)
;

boundaryField
{
    top
    {
        type            zeroGradient;
    }
    bottom
    {
        type            zeroGradient;
    }
    side-walls
    {
        type            zeroGradient;
    }
    inlet
    {
        type            zeroGradient;
    }
    outlet
    {
        type            zeroGradient;
    }
    procBoundary0to1
    {
        type            processor;
        value           nonuniform List<scalar> 
97
(
0.3719618216
0.3719620401
0.371960369
0.371957156
0.37195244
0.3719490663
0.3719524402
0.3719571558
0.3719603688
0.3719618215
0.3719620401
0.3719620401
0.3719570877
0.3719556701
0.3719488187
0.3719340955
0.3719201758
0.3719340958
0.3719488192
0.3719570876
0.3719603691
0.3719603087
0.3719556701
0.3719556701
0.3719243462
0.3719068533
0.3718698062
0.3717982301
0.3718698076
0.3719243469
0.3719488195
0.3719571564
0.3719577031
0.3719470967
0.3719068533
0.3719068533
0.3716824984
0.3713799963
0.3713141972
0.3716825032
0.3718698072
0.3719340958
0.37195244
0.3719557443
0.3719381312
0.3718519482
0.3713799963
0.3713799963
0.3697267769
0.3713799975
0.3713141988
0.3717684909
0.3717982301
0.3719201763
0.3719490664
0.3719577031
0.371947097
0.371906855
0.3717684921
0.3713799975
0.3717684909
0.3717684909
0.3718698065
0.3719414503
0.3719340959
0.3719524402
0.3719603085
0.3719556703
0.3719414506
0.3719068552
0.3718519483
0.3719068553
0.3719414503
0.3719414503
0.3719488192
0.3719602622
0.3719571564
0.3719620401
0.3719602625
0.3719556705
0.3719470973
0.3719381315
0.3719470973
0.3719556706
0.3719602622
0.3719602622
0.3719603693
0.3719628126
0.3719628127
0.3719620402
0.3719603087
0.3719577032
0.3719557446
0.3719577031
0.3719603087
0.3719620404
0.3719628126
)
;
    }
}


// ************************************************************************* //
