/*--------------------------------*- C++ -*----------------------------------*\
| =========                 |                                                 |
| \\      /  F ield         | OpenFOAM: The Open Source CFD Toolbox           |
|  \\    /   O peration     | Version:  4.x                                   |
|   \\  /    A nd           | Web:      www.OpenFOAM.org                      |
|    \\/     M anipulation  |                                                 |
\*---------------------------------------------------------------------------*/
FoamFile
{
    version     2.0;
    format      ascii;
    class       volScalarField;
    location    "9000";
    object      CO2;
}
// * * * * * * * * * * * * * * * * * * * * * * * * * * * * * * * * * * * * * //

dimensions      [0 0 0 0 0 0 0];

internalField   nonuniform List<scalar> 
1175
(
0.006506720046
0.006506720246
0.006506720045
0.006506720699
0.006506720922
0.006506720459
0.006506720714
0.006506722066
0.006506725297
0.006506733795
0.006506759645
0.006506828276
0.006506996792
0.006507370444
0.006508105275
0.006506721099
0.0065067209
0.006506720585
0.006506720567
0.00650672053
0.006506720179
0.006506720423
0.006506721676
0.006506726144
0.00650674004
0.006506781007
0.006506893846
0.006507180699
0.006507828248
0.006509104557
0.006506720127
0.006506719888
0.006506720122
0.006506720406
0.006506720236
0.006506720323
0.006506720894
0.006506722935
0.006506729146
0.006506752894
0.006506823679
0.006507029582
0.006507574206
0.006508840972
0.006511343676
0.006506720039
0.006506720109
0.006506720002
0.006506720214
0.006506719684
0.006506719715
0.006506720631
0.006506723699
0.006506733224
0.006506767284
0.006506877232
0.006507209053
0.006508123752
0.006510326444
0.00651471161
0.006506719143
0.006506719206
0.006506719107
0.006506719301
0.006506719207
0.006506720213
0.006506721481
0.006506724763
0.006506736132
0.006506775685
0.006506907467
0.006507318259
0.006508486473
0.00651139053
0.006517244491
0.006506719313
0.006506719377
0.006506718986
0.006506719477
0.006506719649
0.006506721233
0.006506721707
0.00650672457
0.006506734324
0.00650676802
0.006506877734
0.006507209207
0.006508123823
0.006510327046
0.006514711874
0.006506719912
0.006506720476
0.006506720004
0.006506719488
0.006506720168
0.006506720275
0.006506721914
0.006506723587
0.006506730769
0.006506753365
0.006506823762
0.006507029482
0.006507573653
0.00650884027
0.006511343208
0.006506720186
0.006506719913
0.006506719942
0.006506719358
0.006506720164
0.006506720166
0.006506720784
0.006506722526
0.006506726632
0.006506740679
0.006506781952
0.006506895013
0.006507180924
0.006507828433
0.006509104438
0.006506720009
0.00650672004
0.006506719819
0.006506719832
0.006506719681
0.006506720685
0.006506720857
0.006506721856
0.006506725481
0.006506734394
0.006506759754
0.006506828441
0.006506997349
0.006507370654
0.006508105541
0.006506720172
0.006506720073
0.006506720017
0.006506719542
0.006506719696
0.00650672028
0.006506720587
0.006506722136
0.006506725603
0.00650673958
0.006506780908
0.00650689419
0.006507180395
0.006507828056
0.006506720781
0.006506720248
0.006506720508
0.006506720355
0.006506719976
0.006506720549
0.006506720512
0.006506722527
0.006506728988
0.006506752495
0.006506822621
0.006507028799
0.00650757753
0.006508862979
0.006511404037
0.006506720065
0.006506720285
0.006506720387
0.006506719715
0.006506719773
0.006506720231
0.006506720699
0.006506723916
0.006506735571
0.006506776218
0.006506911638
0.006507333769
0.00650853023
0.006511469332
0.006517341216
0.00650671968
0.006506719906
0.006506720388
0.006506720291
0.006506720483
0.006506720896
0.006506720833
0.006506726238
0.006506743197
0.006506807243
0.006507035467
0.006507794151
0.006510095559
0.006516109386
0.006528425643
0.00650672004
0.006506718723
0.006506719484
0.006506719909
0.006506719964
0.006506720129
0.006506722045
0.006506727718
0.006506747489
0.006506826246
0.006507115576
0.006508127814
0.006511386774
0.006520495797
0.006540017718
0.006506719749
0.006506719988
0.006506719881
0.00650671948
0.006506720032
0.006506720466
0.006506721961
0.00650672635
0.006506743764
0.006506808252
0.006507036467
0.006507795418
0.006510095924
0.00651610947
0.00652842567
0.006506719343
0.006506719204
0.006506720329
0.006506720149
0.006506719512
0.006506720826
0.006506721499
0.006506724537
0.006506736276
0.006506776325
0.006506912634
0.006507334775
0.006508530757
0.006511469494
0.006517341003
0.006506719747
0.006506719594
0.006506719797
0.006506720228
0.006506720364
0.006506720752
0.006506720982
0.006506723527
0.006506729676
0.00650675179
0.006506822359
0.006507028975
0.006507578289
0.00650886348
0.006511403734
0.006506720355
0.0065067203
0.006506720034
0.006506720497
0.006506720065
0.00650672045
0.006506720387
0.006506722237
0.006506726488
0.006506739575
0.006506780844
0.006506894302
0.006507180743
0.006507828156
0.006509104547
0.006506720713
0.006506720536
0.006506719886
0.006506720294
0.006506719911
0.006506720233
0.006506720728
0.006506722053
0.006506729166
0.006506752688
0.00650682337
0.006507029589
0.006507573835
0.006508840429
0.00650672031
0.006506719978
0.006506719489
0.006506719162
0.006506719725
0.006506720174
0.006506721878
0.006506724736
0.006506736048
0.006506777068
0.006506911496
0.006507333834
0.006508529946
0.006511469188
0.006506720224
0.006506719767
0.006506720014
0.006506720092
0.006506719995
0.006506719996
0.006506721967
0.006506726294
0.006506747321
0.006506827589
0.00650711771
0.006508101047
0.006511137031
0.006519182017
0.006535727644
0.006506719799
0.006506719551
0.006506720199
0.006506719914
0.006506719667
0.006506720115
0.006506722426
0.006506731302
0.006506765063
0.006506901803
0.006507440689
0.006509442797
0.006516280792
0.00653637052
0.006580457531
0.006506720784
0.006506720491
0.00650671897
0.006506719021
0.0065067189
0.00650672072
0.006506723013
0.006506732965
0.006506774227
0.006506951457
0.006507684501
0.006510632136
0.006521769753
0.006558926915
0.006651440565
0.006506720915
0.006506720584
0.00650672004
0.006506719487
0.006506720017
0.006506720932
0.006506722391
0.006506730681
0.006506764528
0.006506903183
0.006507440538
0.006509443489
0.006516280869
0.006536370019
0.006580454665
0.006506719955
0.006506720719
0.006506720692
0.006506720477
0.006506720399
0.006506720649
0.006506722549
0.006506727231
0.006506748369
0.006506828401
0.006507117805
0.0065081018
0.006511137752
0.00651918181
0.006535725759
0.006506720525
0.006506720623
0.006506720411
0.006506720678
0.006506720553
0.006506720687
0.006506721243
0.006506724041
0.006506736144
0.006506776033
0.006506911357
0.006507334317
0.006508529956
0.006511468191
0.006517340713
0.006506719989
0.006506720217
0.00650672026
0.006506719839
0.006506720027
0.006506720191
0.00650672114
0.006506722684
0.006506729931
0.006506752411
0.006506824049
0.006507030223
0.006507573623
0.006508840708
0.006511343685
0.006506719459
0.006506720044
0.006506719954
0.006506719577
0.006506719761
0.006506720029
0.006506721329
0.006506723681
0.00650673361
0.006506767623
0.006506876902
0.006507208739
0.006508123813
0.006510327546
0.00650671928
0.006506719774
0.006506719644
0.006506719816
0.006506720176
0.006506720284
0.006506722246
0.006506726381
0.006506743377
0.006506808118
0.006507035732
0.006507794909
0.006510096108
0.006516110413
0.006506720081
0.006506720244
0.006506720222
0.00650671986
0.006506719985
0.006506720628
0.006506722685
0.006506730248
0.006506764355
0.006506901732
0.006507440364
0.006509443115
0.006516281169
0.006536373078
0.006506719683
0.006506719831
0.00650672009
0.006506720101
0.006506720479
0.006506721165
0.00650672377
0.006506737169
0.006506794957
0.006507050042
0.006508158616
0.006512826796
0.006531279582
0.006595391974
0.006759360258
0.00650671977
0.006506719591
0.006506719646
0.006506719697
0.00650672014
0.006506720626
0.006506724453
0.006506740532
0.006506814203
0.006507161508
0.006508805978
0.00651660219
0.006552926959
0.006711397067
0.007261581788
0.006506719977
0.006506720264
0.006506719991
0.006506719774
0.00650671993
0.006506720558
0.006506723849
0.006506736796
0.006506794397
0.006507050543
0.00650815886
0.006512826883
0.006531279278
0.006595386532
0.006759339291
0.006506720704
0.006506720556
0.006506719607
0.006506719724
0.006506719931
0.006506719906
0.006506721833
0.00650672959
0.006506763887
0.006506902211
0.006507440112
0.006509442888
0.006516280702
0.006536369325
0.006580455276
0.006506720411
0.006506720785
0.006506720259
0.00650672057
0.006506720404
0.006506720047
0.006506720754
0.006506725536
0.006506742592
0.006506806634
0.006507035358
0.006507794947
0.006510095287
0.00651610925
0.006528424885
0.006506720145
0.006506720401
0.006506720493
0.006506719719
0.006506719819
0.006506719665
0.006506720628
0.006506723765
0.006506733257
0.006506767432
0.006506877114
0.006507209173
0.006508123539
0.006510327036
0.006514712316
0.006506719949
0.006506719416
0.006506719165
0.006506719993
0.006506719766
0.006506720414
0.006506721142
0.006506724158
0.006506736024
0.006506775461
0.006506907619
0.006507317654
0.006508486205
0.006511391676
0.006506719033
0.006506719645
0.006506720096
0.006506720101
0.006506719859
0.006506720541
0.006506721901
0.006506726654
0.006506746884
0.006506826196
0.006507115457
0.006508128323
0.006511387282
0.006520498645
0.006506719391
0.006506719394
0.006506719104
0.006506719862
0.006506720758
0.006506720969
0.006506722832
0.006506732002
0.006506773714
0.006506950908
0.006507684214
0.006510632467
0.006521770759
0.006558934121
0.006506720441
0.006506720159
0.006506719784
0.00650671955
0.006506720174
0.006506720927
0.006506724631
0.006506740393
0.00650681446
0.006507161287
0.006508806452
0.006516602308
0.006552929987
0.006711419414
0.006506719978
0.006506719771
0.006506719853
0.006506720337
0.006506719847
0.006506721346
0.006506725118
0.006506745063
0.006506842576
0.006507340837
0.006510005463
0.006525087925
0.006616329723
0.007210159516
0.01138706857
0.006506719767
0.006506720107
0.006506720161
0.006506719852
0.006506719902
0.006506720435
0.006506723879
0.006506740011
0.006506814102
0.006507161904
0.006508805858
0.006516602672
0.00655292771
0.006711400183
0.007261583342
0.006506720748
0.00650672035
0.006506719743
0.006506720108
0.006506720077
0.006506719257
0.006506722266
0.006506732108
0.006506774217
0.006506950748
0.006507683709
0.006510632054
0.006521769314
0.006558927789
0.006651441297
0.006506720924
0.006506720358
0.006506720178
0.006506720356
0.006506720165
0.006506720158
0.006506721481
0.006506726637
0.006506747246
0.006506826045
0.006507115618
0.006508127784
0.006511386119
0.006520496672
0.006540016903
0.006506720177
0.006506720231
0.006506720309
0.006506719342
0.006506719637
0.006506719648
0.006506720556
0.006506723977
0.006506735211
0.006506774963
0.006506906446
0.006507317085
0.00650848597
0.006511390423
0.006517244719
0.006506719904
0.006506719887
0.006506719528
0.006506720175
0.006506720368
0.006506720304
0.006506720873
0.006506723598
0.006506734457
0.006506767345
0.006506877252
0.006507208908
0.006508123597
0.006510327832
0.006506719403
0.006506719337
0.006506719896
0.006506720579
0.006506719358
0.006506719956
0.006506721979
0.006506725427
0.006506743087
0.006506807253
0.006507035139
0.006507794627
0.006510095193
0.006516110429
0.006506719349
0.006506719584
0.006506718956
0.006506719512
0.006506720398
0.006506721004
0.006506722982
0.006506730694
0.006506765004
0.006506901665
0.006507440333
0.00650944271
0.006516281736
0.006536374055
0.00650672073
0.006506719636
0.00650671925
0.006506719839
0.006506719795
0.006506720762
0.006506723713
0.006506737
0.006506795059
0.006507049824
0.006508158146
0.006512826641
0.006531280935
0.006595398649
0.006506719876
0.00650671991
0.006506719807
0.006506720055
0.006506719733
0.006506719972
0.006506724227
0.006506739974
0.006506814133
0.006507161197
0.006508805513
0.00651660224
0.006552930401
0.006711421996
0.00650672023
0.006506719866
0.006506719149
0.006506719645
0.006506719627
0.006506720756
0.006506723227
0.006506737049
0.006506794678
0.006507050281
0.006508159168
0.006512826572
0.006531280835
0.006595397485
0.006506719946
0.006506719885
0.006506719518
0.006506719629
0.00650671963
0.00650672042
0.006506721475
0.006506730667
0.00650676492
0.006506902322
0.006507440774
0.006509442956
0.006516280819
0.006536370597
0.006580460889
0.006506720726
0.006506720773
0.006506720705
0.006506720456
0.006506719944
0.006506720764
0.006506721991
0.006506726132
0.006506742964
0.00650680777
0.006507036184
0.006507794827
0.006510095178
0.006516109655
0.006528426218
0.006506720717
0.006506720773
0.006506720645
0.006506720201
0.006506719807
0.006506720135
0.006506720457
0.006506722998
0.006506733324
0.006506767413
0.006506877315
0.006507208912
0.006508123815
0.00651032761
0.006514712265
0.006506719845
0.006506719511
0.006506719769
0.00650672042
0.006506720359
0.006506719863
0.006506721007
0.006506723123
0.006506730863
0.006506753098
0.006506823636
0.006507030694
0.006507574495
0.006508841326
0.006506719065
0.006506719593
0.006506719871
0.006506719941
0.006506719948
0.006506720368
0.006506721073
0.006506724172
0.006506735422
0.006506775586
0.006506911784
0.006507333461
0.006508529494
0.006511468874
0.006506719045
0.006506719326
0.006506719399
0.006506719929
0.006506719582
0.006506720259
0.006506721925
0.006506727292
0.006506747997
0.006506828128
0.006507117517
0.00650810153
0.006511137778
0.006519183987
0.006506719601
0.006506719659
0.006506719516
0.006506719776
0.006506719921
0.006506720164
0.006506722533
0.006506729556
0.006506764428
0.006506901521
0.006507439542
0.006509442801
0.006516281155
0.006536373312
0.006506719152
0.006506719665
0.006506719603
0.006506719892
0.006506719527
0.006506720621
0.006506722327
0.006506731875
0.006506774326
0.006506950291
0.006507683963
0.006510632112
0.006521771128
0.006558934875
0.006506719208
0.006506719308
0.006506719415
0.006506719404
0.006506719734
0.006506720338
0.006506722899
0.006506730463
0.006506765142
0.006506901505
0.006507439843
0.006509442651
0.006516281292
0.006536373419
0.006506719053
0.006506719689
0.006506719644
0.006506720082
0.006506719745
0.006506720158
0.006506720985
0.006506726848
0.006506747742
0.006506827491
0.006507116341
0.006508100226
0.006511136569
0.006519182293
0.006506720599
0.006506720556
0.006506720188
0.006506720255
0.006506719737
0.006506720568
0.006506720849
0.006506723414
0.00650673484
0.006506775122
0.006506911082
0.006507333433
0.006508529445
0.006511468473
0.006517340904
0.006506720751
0.006506720614
0.00650672046
0.006506719985
0.006506719157
0.006506719752
0.006506720495
0.006506723116
0.006506729954
0.006506752344
0.006506823391
0.00650702965
0.006507573662
0.00650883991
0.006511342671
0.006506719268
0.006506718981
0.006506719037
0.00650671942
0.006506719786
0.006506719637
0.006506720247
0.006506721507
0.006506725902
0.006506740245
0.006506780372
0.006506893452
0.006507179845
0.006507827887
0.006506719419
0.006506719999
0.00650671951
0.006506719287
0.006506719609
0.006506719859
0.006506721
0.006506722774
0.006506729231
0.006506751735
0.006506821822
0.006507028127
0.006507576874
0.006508862183
0.006506719698
0.006506720466
0.00650671971
0.00650671949
0.006506718976
0.006506719686
0.006506720548
0.006506723346
0.00650673504
0.006506775779
0.006506911189
0.00650733356
0.006508529709
0.006511468541
0.006506719919
0.006506719403
0.006506719066
0.006506719418
0.006506719301
0.006506719687
0.006506720731
0.006506725747
0.006506743608
0.006506807582
0.006507035587
0.006507794396
0.006510095504
0.006516109722
0.006506719606
0.006506719337
0.006506719008
0.006506719621
0.006506719889
0.006506720462
0.006506721918
0.0065067265
0.006506747152
0.006506825608
0.006507115094
0.00650812769
0.006511386877
0.006520497994
0.006506720079
0.006506719812
0.00650672025
0.006506719866
0.006506720129
0.006506720262
0.006506721273
0.006506725511
0.006506743415
0.006506807679
0.006507035108
0.006507794274
0.006510095233
0.006516109564
0.006506719939
0.006506719993
0.006506719099
0.00650671976
0.006506720369
0.006506719964
0.006506720912
0.006506724248
0.006506735636
0.006506776169
0.006506910908
0.006507333609
0.006508529196
0.006511468058
0.006506719812
0.006506719254
0.006506720222
0.006506720396
0.006506719999
0.006506719552
0.006506720486
0.006506722568
0.00650672888
0.006506750875
0.006506821936
0.006507028203
0.006507577075
0.006508862563
0.006506719985
0.006506719836
0.006506720607
0.006506720058
0.006506719658
0.00650672087
0.006506720047
0.006506720992
0.006506725709
0.00650673931
0.00650678079
0.006506894031
0.006507180296
0.00650782736
0.006509103991
0.006506719424
0.006506719337
0.006506719256
0.006506719101
0.006506719304
0.006506719117
0.006506720025
0.00650672103
0.00650672355
0.006506733017
0.006506759215
0.006506828433
0.006506997226
0.006507370521
0.006506719781
0.006506719797
0.006506719408
0.006506719743
0.006506719001
0.006506719058
0.006506719971
0.006506721663
0.006506725942
0.00650673887
0.006506780696
0.006506893444
0.006507180621
0.006507827734
0.006506719865
0.006506719888
0.006506719832
0.006506719033
0.006506718983
0.006506718787
0.006506720478
0.00650672218
0.006506729518
0.006506752824
0.006506823943
0.006507029753
0.00650757435
0.006508840759
0.006506719543
0.006506719136
0.0065067193
0.00650671928
0.00650671918
0.006506718882
0.006506720161
0.006506723591
0.00650673345
0.006506767378
0.006506876855
0.006507208549
0.006508123663
0.00651032667
0.00650671978
0.006506719299
0.006506719707
0.00650672015
0.006506719915
0.006506720161
0.006506720904
0.006506724058
0.006506735051
0.006506774964
0.006506906159
0.006507317392
0.006508485993
0.006511390596
0.006506719215
0.006506719466
0.006506719858
0.006506719562
0.006506719687
0.006506720223
0.006506720467
0.006506723095
0.006506733098
0.006506766764
0.006506876528
0.006507208808
0.006508123567
0.006510326517
0.006506720017
0.00650671984
0.006506719636
0.006506719495
0.006506720031
0.006506720011
0.006506719842
0.006506722641
0.006506729644
0.006506752361
0.00650682329
0.006507029959
0.00650757353
0.006508839765
0.006506720183
0.006506719528
0.006506720021
0.006506720084
0.006506720149
0.006506719605
0.006506720307
0.006506721771
0.006506726065
0.0065067397
0.006506780378
0.006506893205
0.00650717978
0.006507827318
0.006506719871
0.006506720203
0.006506719969
0.006506719754
0.006506719763
0.006506719356
0.0065067195
0.006506720639
0.006506723887
0.006506733096
0.006506759043
0.006506828352
0.006506996543
0.006507369786
)
;

boundaryField
{
    top
    {
        type            zeroGradient;
    }
    bottom
    {
        type            zeroGradient;
    }
    side-walls
    {
        type            zeroGradient;
    }
    inlet
    {
        type            zeroGradient;
    }
    outlet
    {
        type            zeroGradient;
    }
    procBoundary0to1
    {
        type            processor;
        value           nonuniform List<scalar> 
97
(
0.006509387056
0.006509104239
0.006511265326
0.006515420181
0.006521518265
0.006525880609
0.006521517816
0.006515420662
0.006511266137
0.006509387216
0.006509104239
0.006509104239
0.006515508394
0.006517341595
0.00652620135
0.006545238527
0.006563236917
0.00654523793
0.006526200151
0.006515508936
0.006511265275
0.006511342993
0.006517341595
0.006517341595
0.006557844793
0.006580462716
0.00662836499
0.006720908323
0.006628362352
0.006557843714
0.006526199419
0.006515419299
0.006514712223
0.006528427327
0.006580462716
0.006580462716
0.006870549075
0.007261654231
0.007346734052
0.006870540037
0.006628363073
0.006545237826
0.006521518398
0.006517245538
0.006540019193
0.006651450896
0.007261654231
0.007261654231
0.009399132482
0.007261651615
0.007346731858
0.006759359092
0.006720908801
0.006563235394
0.006525880194
0.00651471252
0.006528426691
0.006580459363
0.006759356607
0.007261651615
0.006759359092
0.006759359092
0.006628364518
0.006535728229
0.006545237504
0.006521517773
0.006511343576
0.006517341133
0.006535727739
0.006580459077
0.006651451134
0.006580458721
0.006535728229
0.006535728229
0.006526200041
0.006511403138
0.006515419232
0.006509104392
0.006511402382
0.00651734071
0.006528425976
0.006540018441
0.006528425908
0.006517340201
0.006511403138
0.006511403138
0.006511264699
0.006508105156
0.006508105026
0.006509104137
0.006511342917
0.006514712295
0.006517244659
0.006514712517
0.006511342961
0.006509103499
0.006508105156
)
;
    }
}


// ************************************************************************* //
