/*--------------------------------*- C++ -*----------------------------------*\
| =========                 |                                                 |
| \\      /  F ield         | OpenFOAM: The Open Source CFD Toolbox           |
|  \\    /   O peration     | Version:  4.x                                   |
|   \\  /    A nd           | Web:      www.OpenFOAM.org                      |
|    \\/     M anipulation  |                                                 |
\*---------------------------------------------------------------------------*/
FoamFile
{
    version     2.0;
    format      ascii;
    class       volScalarField;
    location    "9000";
    object      Cpv;
}
// * * * * * * * * * * * * * * * * * * * * * * * * * * * * * * * * * * * * * //

dimensions      [0 2 -2 -1 0 0 0];

internalField   nonuniform List<scalar> 
1175
(
1210.519117
1210.51913
1210.519107
1210.519084
1210.51908
1210.519096
1210.519105
1210.519082
1210.519088
1210.519082
1210.519082
1210.519091
1210.519102
1210.519101
1210.519146
1210.518222
1210.518229
1210.518221
1210.51825
1210.518237
1210.518244
1210.518257
1210.518268
1210.518271
1210.518285
1210.518285
1210.518314
1210.51829
1210.518352
1210.518435
1210.518718
1210.518715
1210.518719
1210.518695
1210.518701
1210.518691
1210.5187
1210.518707
1210.518718
1210.51872
1210.51872
1210.518733
1210.518776
1210.518869
1210.519032
1210.518851
1210.518849
1210.518872
1210.518868
1210.51887
1210.518876
1210.518865
1210.518847
1210.518868
1210.518848
1210.518836
1210.518846
1210.518914
1210.519074
1210.519347
1210.519222
1210.519228
1210.51921
1210.5192
1210.519207
1210.519195
1210.519193
1210.519203
1210.519219
1210.519219
1210.519226
1210.519257
1210.519341
1210.519534
1210.519875
1210.519089
1210.519088
1210.519094
1210.519092
1210.51907
1210.51906
1210.519077
1210.51908
1210.519078
1210.519099
1210.51913
1210.519185
1210.519216
1210.519362
1210.519653
1210.518709
1210.518709
1210.518717
1210.518718
1210.518702
1210.518681
1210.518677
1210.518683
1210.518669
1210.518681
1210.518686
1210.518715
1210.518776
1210.518869
1210.518996
1210.519155
1210.519161
1210.51916
1210.519141
1210.519157
1210.519153
1210.519162
1210.51917
1210.519171
1210.519183
1210.519191
1210.519192
1210.519202
1210.519245
1210.51933
1210.519239
1210.519241
1210.519255
1210.519252
1210.519249
1210.51924
1210.519239
1210.519233
1210.519224
1210.519215
1210.519234
1210.519235
1210.51924
1210.519261
1210.519295
1210.518458
1210.518439
1210.518458
1210.51843
1210.518434
1210.518427
1210.518443
1210.518438
1210.518442
1210.518458
1210.518445
1210.518441
1210.518485
1210.518525
1210.519571
1210.519592
1210.519572
1210.519575
1210.519578
1210.519587
1210.519599
1210.519601
1210.519613
1210.519571
1210.51958
1210.519609
1210.51964
1210.519718
1210.519877
1210.519932
1210.519932
1210.519936
1210.519935
1210.519931
1210.519943
1210.519962
1210.519958
1210.519955
1210.519949
1210.519966
1210.519998
1210.520063
1210.520242
1210.52062
1210.518873
1210.518883
1210.518864
1210.518887
1210.518896
1210.518906
1210.518925
1210.518916
1210.518908
1210.518909
1210.518936
1210.518993
1210.519114
1210.519479
1210.520286
1210.519249
1210.519256
1210.51925
1210.519261
1210.519246
1210.519236
1210.519251
1210.519247
1210.519267
1210.519252
1210.519276
1210.519317
1210.519532
1210.520101
1210.521312
1210.51836
1210.518352
1210.518358
1210.51834
1210.518331
1210.518332
1210.518315
1210.518339
1210.51834
1210.518325
1210.518323
1210.518366
1210.518529
1210.518912
1210.519699
1210.519784
1210.519795
1210.519767
1210.519797
1210.519789
1210.519779
1210.519775
1210.519778
1210.519743
1210.519746
1210.519754
1210.519775
1210.519839
1210.52002
1210.52041
1210.518087
1210.518066
1210.518075
1210.518078
1210.518049
1210.518056
1210.518059
1210.51804
1210.518056
1210.518064
1210.518064
1210.518063
1210.518087
1210.518159
1210.518321
1210.519935
1210.519933
1210.519945
1210.519928
1210.519956
1210.519959
1210.519932
1210.519943
1210.519944
1210.519966
1210.519962
1210.519974
1210.519998
1210.520028
1210.520131
1210.518963
1210.518961
1210.518963
1210.518971
1210.518979
1210.518968
1210.518984
1210.518999
1210.519003
1210.519
1210.519025
1210.519041
1210.519107
1210.519202
1210.518026
1210.518031
1210.518061
1210.518047
1210.518019
1210.518026
1210.517993
1210.517995
1210.518
1210.518001
1210.518014
1210.518044
1210.518106
1210.518282
1210.518459
1210.518482
1210.518476
1210.518472
1210.518494
1210.518483
1210.51848
1210.518525
1210.518524
1210.518518
1210.518511
1210.518594
1210.518763
1210.519288
1210.520352
1210.518991
1210.518983
1210.518973
1210.51898
1210.518973
1210.518956
1210.518955
1210.518956
1210.518951
1210.518958
1210.519007
1210.519144
1210.519571
1210.520867
1210.523676
1210.518024
1210.518021
1210.518049
1210.518066
1210.518065
1210.518047
1210.518002
1210.518013
1210.518032
1210.518031
1210.518093
1210.518284
1210.518943
1210.521288
1210.527154
1210.518572
1210.518589
1210.518601
1210.518604
1210.518586
1210.518589
1210.51858
1210.518603
1210.518631
1210.518606
1210.518614
1210.518747
1210.519164
1210.520438
1210.52324
1210.519098
1210.519078
1210.519089
1210.519076
1210.519075
1210.519088
1210.519065
1210.519069
1210.519073
1210.519115
1210.519124
1210.519157
1210.519353
1210.519871
1210.520911
1210.519922
1210.519907
1210.519897
1210.519902
1210.5199
1210.519905
1210.519897
1210.519904
1210.519899
1210.519905
1210.519898
1210.519904
1210.519988
1210.520198
1210.52057
1210.518019
1210.518024
1210.518037
1210.518037
1210.518027
1210.518015
1210.518026
1210.518036
1210.518035
1210.518022
1210.518016
1210.518047
1210.51808
1210.518164
1210.518346
1210.519401
1210.519386
1210.519392
1210.519404
1210.519412
1210.519414
1210.519426
1210.519407
1210.519404
1210.519412
1210.519406
1210.519423
1210.519453
1210.5196
1210.519787
1210.519775
1210.519757
1210.519761
1210.519756
1210.519753
1210.519752
1210.51973
1210.519736
1210.51973
1210.519765
1210.519805
1210.519928
1210.520309
1210.51865
1210.518645
1210.518673
1210.518682
1210.518675
1210.518659
1210.518694
1210.518686
1210.518683
1210.518703
1210.518711
1210.518841
1210.519283
1210.520548
1210.519115
1210.519119
1210.519121
1210.519108
1210.51912
1210.519116
1210.519119
1210.519123
1210.519135
1210.519125
1210.519213
1210.519489
1210.520651
1210.52469
1210.535059
1210.520156
1210.520146
1210.520132
1210.520128
1210.520115
1210.520107
1210.520128
1210.52013
1210.520138
1210.520169
1210.520261
1210.520751
1210.523051
1210.533095
1210.567784
1210.518327
1210.518342
1210.518379
1210.518373
1210.518374
1210.51837
1210.518357
1210.518343
1210.518325
1210.518307
1210.51837
1210.518664
1210.519837
1210.523946
1210.534366
1210.519239
1210.519242
1210.51926
1210.519248
1210.519284
1210.519286
1210.51929
1210.51929
1210.519275
1210.519259
1210.519292
1210.519423
1210.519846
1210.521138
1210.523916
1210.517699
1210.517701
1210.517716
1210.51771
1210.517734
1210.517743
1210.517752
1210.517778
1210.517767
1210.517802
1210.517809
1210.517854
1210.518007
1210.518421
1210.519203
1210.518635
1210.518636
1210.518639
1210.518648
1210.518639
1210.518639
1210.518625
1210.518618
1210.518603
1210.518599
1210.518609
1210.518638
1210.518694
1210.518841
1210.519112
1210.519093
1210.519099
1210.519117
1210.519091
1210.519092
1210.519072
1210.519071
1210.519071
1210.519066
1210.519043
1210.519055
1210.519088
1210.519153
1210.519347
1210.518556
1210.518553
1210.518546
1210.518529
1210.518533
1210.518516
1210.518527
1210.518524
1210.518526
1210.518528
1210.518566
1210.518621
1210.518802
1210.519407
1210.518797
1210.518794
1210.518821
1210.518813
1210.518787
1210.5188
1210.518805
1210.51883
1210.518829
1210.518829
1210.518886
1210.519084
1210.519772
1210.522145
1210.519454
1210.519475
1210.519449
1210.519463
1210.519478
1210.519477
1210.519472
1210.519452
1210.519472
1210.519513
1210.519624
1210.520114
1210.522399
1210.532475
1210.518761
1210.51878
1210.518789
1210.51878
1210.518787
1210.518783
1210.51879
1210.518786
1210.518794
1210.518838
1210.519017
1210.519982
1210.525759
1210.563425
1210.328839
1210.519037
1210.519029
1210.519036
1210.519028
1210.519046
1210.519026
1210.519037
1210.51901
1210.519001
1210.519011
1210.519113
1210.519585
1210.521883
1210.531934
1210.566592
1210.519215
1210.519228
1210.519225
1210.519201
1210.519218
1210.519243
1210.519223
1210.519199
1210.51922
1210.51924
1210.519304
1210.519479
1210.520198
1210.522564
1210.528404
1210.519309
1210.519341
1210.519351
1210.519338
1210.519352
1210.519353
1210.519364
1210.51938
1210.519377
1210.519364
1210.51937
1210.519434
1210.519626
1210.52019
1210.521447
1210.520036
1210.520044
1210.520049
1210.520059
1210.520065
1210.520053
1210.520043
1210.520046
1210.520034
1210.520026
1210.520038
1210.520071
1210.520116
1210.520301
1210.520666
1210.519203
1210.519201
1210.519182
1210.519181
1210.519166
1210.519162
1210.51919
1210.51918
1210.519158
1210.519166
1210.519184
1210.5192
1210.519281
1210.519406
1210.519004
1210.519013
1210.519008
1210.519005
1210.519003
1210.519003
1210.518994
1210.519015
1210.519033
1210.519008
1210.519044
1210.519079
1210.519196
1210.519552
1210.519485
1210.519468
1210.51946
1210.519479
1210.51946
1210.519471
1210.519504
1210.519497
1210.519465
1210.519493
1210.519522
1210.519654
1210.520085
1210.521375
1210.518021
1210.518019
1210.518031
1210.518012
1210.518006
1210.518021
1210.518001
1210.517996
1210.518013
1210.518022
1210.51809
1210.518393
1210.519583
1210.523666
1210.519648
1210.519637
1210.519629
1210.519625
1210.519639
1210.519647
1210.519626
1210.519619
1210.519608
1210.519648
1210.519748
1210.520238
1210.522534
1210.532576
1210.519063
1210.519071
1210.519083
1210.519077
1210.519067
1210.519043
1210.519051
1210.519037
1210.519048
1210.519084
1210.519159
1210.51945
1210.52061
1210.524681
1210.51832
1210.518313
1210.518324
1210.518342
1210.518347
1210.518338
1210.51837
1210.518339
1210.518348
1210.518331
1210.518379
1210.518496
1210.518945
1210.520209
1210.522999
1210.519162
1210.519157
1210.519166
1210.519182
1210.519187
1210.51919
1210.51918
1210.519193
1210.519197
1210.519224
1210.519241
1210.519318
1210.519463
1210.519833
1210.52065
1210.519274
1210.519272
1210.519282
1210.519272
1210.519305
1210.519319
1210.519332
1210.519349
1210.519355
1210.519356
1210.519364
1210.519366
1210.519419
1210.519567
1210.519832
1210.519019
1210.519037
1210.519054
1210.51903
1210.519036
1210.519033
1210.519025
1210.519031
1210.519044
1210.519045
1210.519044
1210.519081
1210.519109
1210.519192
1210.519682
1210.519662
1210.519658
1210.519659
1210.519681
1210.519664
1210.519641
1210.519639
1210.519625
1210.51965
1210.519658
1210.519668
1210.519752
1210.51993
1210.518968
1210.518941
1210.518924
1210.518902
1210.518902
1210.51892
1210.518909
1210.518913
1210.518903
1210.518933
1210.518958
1210.519016
1210.519236
1210.519716
1210.519091
1210.519094
1210.519089
1210.51911
1210.519099
1210.519107
1210.519114
1210.519136
1210.519145
1210.519128
1210.519167
1210.51928
1210.519712
1210.520988
1210.518604
1210.518598
1210.518577
1210.518574
1210.518564
1210.518567
1210.518591
1210.518591
1210.518566
1210.518585
1210.518625
1210.518805
1210.519486
1210.521837
1210.519259
1210.519269
1210.519254
1210.519266
1210.519279
1210.519248
1210.519224
1210.519236
1210.519254
1210.51925
1210.519277
1210.519399
1210.519838
1210.5211
1210.519345
1210.519333
1210.519337
1210.519342
1210.519341
1210.519353
1210.519355
1210.519362
1210.519386
1210.519424
1210.519437
1210.519495
1210.519674
1210.520195
1210.518447
1210.518459
1210.518474
1210.518447
1210.518451
1210.518459
1210.518439
1210.518466
1210.518467
1210.51846
1210.518474
1210.518488
1210.51854
1210.518709
1210.519093
1210.51824
1210.518245
1210.518241
1210.518259
1210.518283
1210.518287
1210.518278
1210.518285
1210.518298
1210.518311
1210.518321
1210.51836
1210.518407
1210.518494
1210.518648
1210.518736
1210.518752
1210.518753
1210.518782
1210.518763
1210.518761
1210.518744
1210.51875
1210.518757
1210.51874
1210.51877
1210.51878
1210.518798
1210.518842
1210.518475
1210.518492
1210.518507
1210.518497
1210.518488
1210.518486
1210.518447
1210.518449
1210.51845
1210.518456
1210.518477
1210.518487
1210.518518
1210.51861
1210.51899
1210.518987
1210.518975
1210.518973
1210.51898
1210.518988
1210.518969
1210.51899
1210.518986
1210.51897
1210.518977
1210.519012
1210.519096
1210.519273
1210.518849
1210.51885
1210.518887
1210.518873
1210.518859
1210.518866
1210.518868
1210.518851
1210.518837
1210.51887
1210.518868
1210.518903
1210.519031
1210.519408
1210.519067
1210.519071
1210.51907
1210.519051
1210.519047
1210.519024
1210.519017
1210.519019
1210.519038
1210.519053
1210.519078
1210.51912
1210.519346
1210.519918
1210.518277
1210.518291
1210.518292
1210.518288
1210.518288
1210.518311
1210.51835
1210.51834
1210.518323
1210.518311
1210.518332
1210.518372
1210.518524
1210.51889
1210.51892
1210.5189
1210.518912
1210.518898
1210.518889
1210.518892
1210.518876
1210.518877
1210.518873
1210.518886
1210.518925
1210.518972
1210.519031
1210.519222
1210.518474
1210.518457
1210.518444
1210.518444
1210.518458
1210.518489
1210.518485
1210.518468
1210.518467
1210.518468
1210.518457
1210.518467
1210.518489
1210.518574
1210.519269
1210.519286
1210.519282
1210.519291
1210.5193
1210.519275
1210.519308
1210.519321
1210.519292
1210.519294
1210.519295
1210.519284
1210.519323
1210.519375
1210.519445
1210.519089
1210.519083
1210.519089
1210.519091
1210.519082
1210.519085
1210.51908
1210.519065
1210.519063
1210.519048
1210.519054
1210.519043
1210.51905
1210.519063
1210.518733
1210.518737
1210.518727
1210.518717
1210.518729
1210.518736
1210.518735
1210.518746
1210.518761
1210.518771
1210.518745
1210.518748
1210.518771
1210.518811
1210.519204
1210.519221
1210.519249
1210.519235
1210.519254
1210.519253
1210.519265
1210.519284
1210.519271
1210.519265
1210.519264
1210.519284
1210.519321
1210.519409
1210.517551
1210.517564
1210.517557
1210.517556
1210.517575
1210.517584
1210.517565
1210.517537
1210.517541
1210.517547
1210.517563
1210.517607
1210.517652
1210.517785
1210.518516
1210.518524
1210.518513
1210.518526
1210.5185
1210.518526
1210.518492
1210.518517
1210.518517
1210.518513
1210.518508
1210.518519
1210.518586
1210.518787
1210.518882
1210.518843
1210.518851
1210.518856
1210.518845
1210.51884
1210.518858
1210.518859
1210.518877
1210.518876
1210.518885
1210.518911
1210.518983
1210.519114
1210.518955
1210.518973
1210.51897
1210.518976
1210.518965
1210.518974
1210.518967
1210.518968
1210.518973
1210.518963
1210.518963
1210.518966
1210.519016
1210.519079
1210.518722
1210.518737
1210.518767
1210.518747
1210.518743
1210.518725
1210.518722
1210.518719
1210.518714
1210.51873
1210.518763
1210.518796
1210.518806
1210.518854
1210.518594
1210.518606
1210.518598
1210.518611
1210.518609
1210.518616
1210.51861
1210.518627
1210.51863
1210.518617
1210.518602
1210.518618
1210.518636
1210.518659
)
;

boundaryField
{
    top
    {
        type            calculated;
        value           nonuniform List<scalar> 
134
(
1210.519239
1210.519935
1210.518019
1210.518635
1210.520036
1210.519274
1210.51824
1210.519269
1210.518594
1210.519241
1210.519933
1210.518024
1210.518636
1210.520044
1210.519272
1210.518245
1210.519286
1210.518606
1210.519255
1210.519945
1210.518037
1210.518639
1210.520049
1210.519282
1210.518241
1210.519282
1210.518598
1210.519252
1210.519928
1210.518037
1210.518648
1210.520059
1210.519272
1210.518259
1210.519291
1210.518611
1210.519249
1210.519956
1210.518027
1210.518639
1210.520065
1210.519305
1210.518283
1210.5193
1210.518609
1210.51924
1210.519959
1210.518015
1210.518639
1210.520053
1210.519319
1210.518287
1210.519275
1210.518616
1210.519239
1210.519932
1210.518026
1210.518625
1210.520043
1210.519332
1210.518278
1210.519308
1210.51861
1210.519233
1210.519943
1210.518036
1210.518618
1210.520046
1210.519349
1210.518285
1210.519321
1210.518627
1210.519224
1210.519944
1210.518035
1210.518603
1210.520034
1210.519355
1210.518298
1210.519292
1210.51863
1210.519215
1210.519966
1210.518022
1210.518599
1210.520026
1210.519356
1210.518311
1210.519294
1210.518617
1210.519234
1210.519962
1210.518016
1210.518609
1210.520038
1210.519364
1210.518321
1210.519295
1210.518602
1210.519235
1210.519974
1210.518047
1210.518638
1210.520071
1210.519366
1210.51836
1210.519284
1210.518618
1210.51924
1210.519998
1210.51808
1210.518694
1210.520116
1210.519419
1210.518407
1210.519323
1210.518636
1210.519261
1210.520028
1210.518164
1210.518841
1210.520301
1210.519567
1210.518494
1210.519375
1210.518659
1210.519295
1210.520131
1210.518346
1210.519112
1210.520666
1210.519832
1210.518648
1210.519445
)
;
    }
    bottom
    {
        type            calculated;
        value           nonuniform List<scalar> 
127
(
1210.519117
1210.518458
1210.518963
1210.519401
1210.519093
1210.519203
1210.519019
1210.518736
1210.519089
1210.51913
1210.518439
1210.518961
1210.519386
1210.519099
1210.519201
1210.519037
1210.518752
1210.519083
1210.519107
1210.518458
1210.518963
1210.519392
1210.519117
1210.519182
1210.519054
1210.518753
1210.519089
1210.519084
1210.51843
1210.518971
1210.519404
1210.519091
1210.519181
1210.51903
1210.518782
1210.519091
1210.51908
1210.518434
1210.518979
1210.519412
1210.519092
1210.519166
1210.519036
1210.518763
1210.519082
1210.519096
1210.518427
1210.518968
1210.519414
1210.519072
1210.519162
1210.519033
1210.518761
1210.519085
1210.519105
1210.518443
1210.518984
1210.519426
1210.519071
1210.51919
1210.519025
1210.518744
1210.51908
1210.519082
1210.518438
1210.518999
1210.519407
1210.519071
1210.51918
1210.519031
1210.51875
1210.519065
1210.519088
1210.518442
1210.519003
1210.519404
1210.519066
1210.519158
1210.519044
1210.518757
1210.519063
1210.519082
1210.518458
1210.519
1210.519412
1210.519043
1210.519166
1210.519045
1210.51874
1210.519048
1210.519082
1210.518445
1210.519025
1210.519406
1210.519055
1210.519184
1210.519044
1210.51877
1210.519054
1210.519091
1210.518441
1210.519041
1210.519423
1210.519088
1210.5192
1210.519081
1210.51878
1210.519043
1210.519102
1210.518485
1210.519107
1210.519453
1210.519153
1210.519281
1210.519109
1210.518798
1210.51905
1210.519101
1210.518525
1210.519202
1210.5196
1210.519347
1210.519406
1210.519192
1210.518842
1210.519063
1210.519146
)
;
    }
    side-walls
    {
        type            calculated;
        value           nonuniform List<scalar> 
261
(
1210.519117
1210.518222
1210.518718
1210.518851
1210.519222
1210.519089
1210.518709
1210.519155
1210.519239
1210.51913
1210.518229
1210.518715
1210.518849
1210.519228
1210.519088
1210.518709
1210.519161
1210.519241
1210.519107
1210.518221
1210.518719
1210.518872
1210.51921
1210.519094
1210.518717
1210.51916
1210.519255
1210.519084
1210.51825
1210.518695
1210.518868
1210.5192
1210.519092
1210.518718
1210.519141
1210.519252
1210.51908
1210.518237
1210.518701
1210.51887
1210.519207
1210.51907
1210.518702
1210.519157
1210.519249
1210.519096
1210.518244
1210.518691
1210.518876
1210.519195
1210.51906
1210.518681
1210.519153
1210.51924
1210.519105
1210.518257
1210.5187
1210.518865
1210.519193
1210.519077
1210.518677
1210.519162
1210.519239
1210.519082
1210.518268
1210.518707
1210.518847
1210.519203
1210.51908
1210.518683
1210.51917
1210.519233
1210.519088
1210.518271
1210.518718
1210.518868
1210.519219
1210.519078
1210.518669
1210.519171
1210.519224
1210.519082
1210.518285
1210.51872
1210.518848
1210.519219
1210.519099
1210.518681
1210.519183
1210.519215
1210.519082
1210.518285
1210.51872
1210.518836
1210.519226
1210.51913
1210.518686
1210.519191
1210.519234
1210.519091
1210.518314
1210.518733
1210.518846
1210.519257
1210.519185
1210.518715
1210.519192
1210.519235
1210.519102
1210.51829
1210.518776
1210.518914
1210.519341
1210.519216
1210.518776
1210.519202
1210.51924
1210.519101
1210.518352
1210.518869
1210.519074
1210.519534
1210.519362
1210.518869
1210.519245
1210.519261
1210.519146
1210.518435
1210.519032
1210.519347
1210.519875
1210.519653
1210.518996
1210.51933
1210.519295
1210.519089
1210.518733
1210.519204
1210.517551
1210.518516
1210.518882
1210.518955
1210.518722
1210.518594
1210.519083
1210.518737
1210.519221
1210.517564
1210.518524
1210.518843
1210.518973
1210.518737
1210.518606
1210.519089
1210.518727
1210.519249
1210.517557
1210.518513
1210.518851
1210.51897
1210.518767
1210.518598
1210.519091
1210.518717
1210.519235
1210.517556
1210.518526
1210.518856
1210.518976
1210.518747
1210.518611
1210.519082
1210.518729
1210.519254
1210.517575
1210.5185
1210.518845
1210.518965
1210.518743
1210.518609
1210.519085
1210.518736
1210.519253
1210.517584
1210.518526
1210.51884
1210.518974
1210.518725
1210.518616
1210.51908
1210.518735
1210.519265
1210.517565
1210.518492
1210.518858
1210.518967
1210.518722
1210.51861
1210.519065
1210.518746
1210.519284
1210.517537
1210.518517
1210.518859
1210.518968
1210.518719
1210.518627
1210.519063
1210.518761
1210.519271
1210.517541
1210.518517
1210.518877
1210.518973
1210.518714
1210.51863
1210.519048
1210.518771
1210.519265
1210.517547
1210.518513
1210.518876
1210.518963
1210.51873
1210.518617
1210.519054
1210.518745
1210.519264
1210.517563
1210.518508
1210.518885
1210.518963
1210.518763
1210.518602
1210.519043
1210.518748
1210.519284
1210.517607
1210.518519
1210.518911
1210.518966
1210.518796
1210.518618
1210.51905
1210.518771
1210.519321
1210.517652
1210.518586
1210.518983
1210.519016
1210.518806
1210.518636
1210.519063
1210.518811
1210.519409
1210.517785
1210.518787
1210.519114
1210.519079
1210.518854
1210.518659
)
;
    }
    inlet
    {
        type            calculated;
        value           nonuniform List<scalar> 
81
(
1210.519117
1210.518222
1210.518718
1210.518851
1210.519222
1210.519089
1210.518709
1210.519155
1210.519239
1210.518458
1210.519571
1210.519932
1210.518873
1210.519249
1210.51836
1210.519784
1210.518087
1210.519935
1210.518963
1210.518026
1210.518459
1210.518991
1210.518024
1210.518572
1210.519098
1210.519922
1210.518019
1210.519401
1210.519787
1210.51865
1210.519115
1210.520156
1210.518327
1210.519239
1210.517699
1210.518635
1210.519093
1210.518556
1210.518797
1210.519454
1210.518761
1210.519037
1210.519215
1210.519309
1210.520036
1210.519203
1210.519004
1210.519485
1210.518021
1210.519648
1210.519063
1210.51832
1210.519162
1210.519274
1210.519019
1210.519682
1210.518968
1210.519091
1210.518604
1210.519259
1210.519345
1210.518447
1210.51824
1210.518736
1210.518475
1210.51899
1210.518849
1210.519067
1210.518277
1210.51892
1210.518474
1210.519269
1210.519089
1210.518733
1210.519204
1210.517551
1210.518516
1210.518882
1210.518955
1210.518722
1210.518594
)
;
    }
    outlet
    {
        type            calculated;
        value           nonuniform 0();
    }
    procBoundary0to1
    {
        type            processor;
        value           nonuniform List<scalar> 
97
(
1210.519229
1210.518606
1210.518569
1210.519289
1210.519783
1210.520422
1210.520053
1210.519241
1210.519462
1210.519395
1210.518606
1210.518606
1210.520164
1210.518634
1210.521187
1210.521325
1210.522778
1210.520793
1210.520983
1210.518622
1210.520253
1210.519369
1210.518634
1210.518634
1210.521761
1210.523359
1210.526712
1210.531561
1210.526308
1210.522301
1210.521164
1210.518615
1210.519872
1210.521103
1210.523359
1210.523359
1210.54211
1210.56715
1210.573191
1210.541415
1210.526955
1210.520253
1210.519516
1210.51972
1210.520643
1210.528017
1210.56715
1210.56715
1210.203347
1210.567256
1210.572005
1210.535065
1210.532827
1210.522892
1210.521204
1210.519668
1210.520325
1210.52417
1210.534057
1210.567256
1210.535065
1210.535065
1210.526031
1210.521277
1210.521706
1210.520284
1210.519352
1210.520279
1210.520769
1210.523755
1210.527722
1210.523923
1210.521277
1210.521277
1210.519647
1210.518753
1210.518907
1210.518936
1210.518765
1210.519649
1210.520195
1210.521131
1210.519645
1210.519565
1210.518753
1210.518753
1210.519565
1210.518727
1210.519113
1210.518868
1210.51957
1210.518064
1210.519155
1210.51939
1210.519227
1210.51891
1210.518727
)
;
    }
}


// ************************************************************************* //
