/*--------------------------------*- C++ -*----------------------------------*\
| =========                 |                                                 |
| \\      /  F ield         | OpenFOAM: The Open Source CFD Toolbox           |
|  \\    /   O peration     | Version:  4.x                                   |
|   \\  /    A nd           | Web:      www.OpenFOAM.org                      |
|    \\/     M anipulation  |                                                 |
\*---------------------------------------------------------------------------*/
FoamFile
{
    version     2.0;
    format      ascii;
    class       volScalarField;
    location    "9000";
    object      molarConc;
}
// * * * * * * * * * * * * * * * * * * * * * * * * * * * * * * * * * * * * * //

dimensions      [0 -3 0 0 1 0 0];

internalField   nonuniform List<scalar> 
1175
(
9.963267813
9.963267099
9.963268323
9.9632696
9.963269796
9.963268948
9.963268473
9.963269693
9.96326938
9.963269738
9.96326986
9.963269575
9.963269591
9.963270929
9.96327103
9.963316828
9.963316428
9.963316855
9.963315288
9.963316011
9.963315609
9.963314886
9.963314323
9.963314129
9.963313417
9.963313595
9.963312361
9.963314707
9.963313549
9.963313431
9.96328967
9.963289817
9.96328957
9.963290931
9.963290565
9.963291137
9.963290634
9.963290261
9.963289678
9.963289645
9.963289901
9.963289926
9.963289455
9.963288746
9.963288461
9.96328235
9.963282472
9.963281188
9.963281436
9.963281304
9.96328099
9.96328158
9.963282611
9.963281467
9.963282666
9.963283726
9.963284341
9.963283766
9.963282668
9.963282894
9.963262015
9.963261736
9.963262723
9.963263266
9.963262869
9.963263522
9.963263618
9.963263123
9.963262264
9.963262383
9.96326246
9.96326218
9.963261629
9.963261152
9.963262807
9.963269308
9.963269358
9.963269065
9.96326918
9.963270387
9.963270916
9.963270014
9.963269849
9.963269978
9.963268968
9.963267653
9.96326578
9.963267249
9.963266889
9.963266155
9.963290153
9.963290114
9.963289695
9.963289618
9.963290537
9.963291679
9.963291881
9.963291583
9.963292368
9.963291781
9.963291775
9.963290872
9.963289415
9.963288729
9.963290448
9.963265735
9.963265356
9.963265445
9.963266485
9.963265588
9.963265848
9.963265316
9.963264896
9.963264863
9.963264261
9.963263939
9.96326428
9.963264723
9.963264624
9.963264381
9.963261103
9.963261016
9.963260249
9.963260411
9.96326058
9.963261081
9.96326109
9.963261447
9.963261926
9.963262469
9.963261512
9.963261699
9.963262022
9.963262145
9.963262832
9.963303882
9.96330495
9.963303862
9.963305408
9.963305177
9.963305589
9.963304705
9.963305006
9.963304802
9.963303956
9.963304788
9.963305439
9.963304014
9.963304073
9.963242943
9.963241757
9.963242885
9.963242684
9.963242532
9.963242044
9.963241392
9.963241313
9.963240675
9.963243026
9.963242781
9.963241919
9.96324211
9.963242283
9.963242435
9.96322317
9.963223179
9.963222939
9.963222999
9.963223197
9.963222572
9.963221505
9.963221726
9.963221951
9.963222424
9.963221979
9.963221671
9.963222233
9.96322265
9.963222339
9.963281133
9.963280583
9.963281644
9.963280375
9.963279884
9.963279338
9.963278325
9.963278803
9.963279299
9.9632795
9.963278807
9.963278335
9.963279681
9.963280557
9.963279085
9.963260543
9.963260177
9.963260517
9.963259927
9.963260752
9.96326129
9.96326045
9.963260682
9.963259664
9.963260748
9.96326048
9.963261744
9.963261262
9.963261689
9.963263062
9.963309249
9.96330968
9.963309382
9.963310343
9.96331084
9.963310808
9.963311729
9.963310426
9.963310438
9.96331148
9.963312371
9.963312633
9.96331172
9.963311595
9.963311205
9.963231277
9.963230634
9.963232178
9.963230535
9.963230981
9.963231549
9.96323178
9.9632316
9.963233551
9.963233513
9.963233587
9.9632339
9.963234516
9.963234801
9.963233834
9.96332419
9.963325378
9.963324838
9.963324713
9.963326289
9.963325927
9.963325756
9.963326798
9.963325949
9.963325592
9.963325809
9.963326618
9.963327186
9.963327677
9.963327637
9.963222974
9.963223113
9.963222464
9.96322339
9.96322182
9.963221676
9.963223167
9.963222535
9.96322253
9.963221365
9.9632217
9.963221449
9.963221117
9.963221753
9.963220547
9.963276218
9.963276321
9.963276222
9.963275781
9.963275374
9.963275934
9.963275051
9.963274264
9.963274059
9.96327429
9.963273206
9.963273042
9.963271324
9.963270505
9.963327566
9.963327246
9.963325647
9.963326399
9.963327937
9.963327561
9.963329367
9.963329272
9.963329025
9.963329138
9.963328872
9.963328663
9.963329451
9.963330023
9.963303852
9.963302579
9.963302917
9.963303096
9.963301934
9.963302498
9.963302703
9.963300252
9.963300386
9.963300983
9.963302352
9.963301252
9.963302488
9.963301681
9.963300806
9.963274701
9.963275147
9.963275658
9.963275314
9.963275697
9.963276629
9.963276672
9.963276644
9.963277017
9.963277108
9.963276302
9.96327578
9.96327611
9.963274784
9.963273866
9.963327637
9.963327805
9.963326311
9.963325377
9.963325401
9.96332639
9.963328854
9.963328301
9.963327417
9.963328089
9.963327202
9.963326971
9.963329505
9.96333001
9.963329645
9.963297631
9.963296708
9.963296051
9.963295868
9.963296883
9.96329672
9.963297187
9.963295976
9.963294567
9.963296403
9.963297855
9.963297516
9.963298372
9.963298282
9.963297737
9.963268821
9.963269903
9.963269334
9.963270016
9.9632701
9.963269376
9.963270658
9.963270421
9.963270298
9.963268268
9.963268767
9.963270406
9.963270192
9.963269738
9.963270151
9.96322372
9.963224507
9.963225059
9.963224776
9.963224931
9.96322465
9.963225091
9.963224731
9.963225006
9.963224826
9.96322569
9.963226845
9.963226351
9.963225082
9.963225036
9.963327931
9.963327673
9.963326955
9.963326944
9.963327508
9.96332815
9.963327525
9.963326982
9.963327063
9.963327904
9.963328458
9.963327493
9.963327561
9.963327365
9.963326044
9.963252216
9.963253058
9.963252751
9.963252085
9.963251622
9.963251517
9.96325089
9.963251933
9.963252148
9.963251797
9.963252534
9.963252726
9.963254243
9.963253829
9.963231115
9.963231765
9.963232739
9.963232505
9.963232769
9.963232942
9.963233015
9.963234255
9.963233947
9.963234551
9.963233383
9.963233836
9.963235083
9.963235084
9.963293383
9.963293641
9.963292138
9.963291627
9.963291988
9.963292887
9.963290955
9.963291459
9.963291727
9.963291108
9.963292524
9.963292343
9.963291896
9.963292301
9.963267888
9.963267668
9.963267567
9.963268261
9.963267634
9.963267825
9.96326769
9.963267544
9.963267068
9.963268483
9.963267542
9.963268625
9.963268944
9.963270129
9.963271052
9.963210903
9.963211451
9.963212195
9.963212421
9.963213139
9.963213547
9.963212436
9.963212388
9.963212206
9.963211695
9.963212388
9.963212576
9.963212611
9.963212206
9.963220811
9.963311072
9.963310255
9.963308224
9.963308562
9.963308472
9.96330868
9.963309405
9.963310249
9.963311414
9.963313318
9.963313703
9.963313783
9.963313548
9.963310872
9.963308906
9.963261112
9.963260972
9.963259963
9.96326061
9.963258629
9.963258534
9.963258316
9.963258331
9.963259315
9.963260653
9.963260722
9.963260478
9.963261015
9.963259938
9.96326072
9.963345467
9.963345337
9.963344536
9.96334485
9.963343559
9.963343035
9.963342534
9.963341147
9.963341788
9.963340132
9.963340549
9.96334072
9.963340286
9.963338457
9.963338365
9.963294172
9.963294146
9.963293957
9.963293481
9.963293966
9.963293972
9.963294741
9.963295147
9.963296012
9.963296343
9.963296144
9.963295698
9.963295838
9.963295432
9.963295784
9.963269108
9.963268752
9.963267793
9.963269237
9.963269183
9.963270267
9.963270318
9.963270334
9.96327066
9.963272024
9.963271831
9.963271475
9.963271927
9.963271385
9.9632985
9.963298669
9.963299073
9.963300017
9.963299789
9.963300714
9.963300111
9.963300292
9.963300267
9.963300394
9.963299326
9.963299822
9.963301262
9.963299696
9.963285298
9.963285504
9.963284008
9.963284429
9.963285876
9.963285183
9.96328488
9.963283571
9.963283751
9.963284391
9.963283805
9.963283188
9.963284111
9.963283058
9.963249319
9.963248177
9.963249603
9.963248854
9.963247995
9.963248082
9.963248358
9.963249523
9.9632487
9.963247662
9.963247234
9.963247478
9.963248311
9.963246268
9.963287284
9.963286265
9.963285732
9.963286259
9.963285892
9.96328608
9.963285727
9.963286035
9.963285886
9.963285238
9.963284685
9.963284152
9.96328423
9.963281164
9.990616595
9.963272182
9.963272621
9.963272203
9.96327265
9.963271684
9.963272777
9.963272175
9.963273749
9.963274498
9.963275116
9.963275233
9.963276446
9.96327659
9.963275804
9.963286135
9.963262453
9.963261733
9.96326189
9.963263205
9.963262266
9.963260896
9.96326201
9.963263364
9.963262328
9.963261836
9.963260908
9.963261553
9.963260772
9.963260084
9.963261149
9.963257268
9.963255539
9.96325499
9.963255679
9.963254904
9.963254889
9.96325425
9.963253407
9.963253648
9.963254639
9.963255293
9.963255314
9.963256087
9.963256828
9.963255675
9.963217481
9.963217001
9.963216772
9.963216207
9.963215859
9.963216509
9.963217067
9.963216917
9.963217597
9.963218185
9.96321798
9.963217601
9.963219226
9.963219166
9.963219457
9.96326306
9.963263184
9.96326423
9.963264311
9.963265099
9.963265333
9.963263795
9.963264341
9.963265574
9.963265263
9.963264691
9.963264958
9.963263702
9.963264488
9.963273994
9.963273493
9.96327377
9.963273902
9.963274037
9.963274043
9.963274523
9.963273402
9.963272479
9.96327407
9.963272867
9.963273584
9.963275187
9.963276543
9.963247633
9.963248588
9.963249021
9.963247979
9.963249022
9.963248382
9.963246611
9.963247036
9.963248879
9.963247822
9.963248136
9.963247812
9.963247966
9.963246974
9.9633278
9.963327951
9.96332727
9.96332829
9.963328659
9.963327818
9.96332893
9.963329274
9.963328497
9.963328887
9.963329055
9.963328634
9.963327456
9.963326242
9.963238707
9.963239298
9.963239755
9.963239944
9.963239229
9.963238772
9.963239933
9.963240388
9.96324122
9.963240248
9.963240445
9.963240704
9.963240969
9.96324075
9.963270757
9.963270306
9.963269632
9.963269989
9.963270555
9.963271826
9.96327141
9.963272246
9.963271814
9.963270734
9.963270507
9.963270757
9.963271218
9.963270663
9.963311448
9.963311802
9.96331125
9.963310244
9.963309979
9.963310438
9.963308697
9.963310462
9.963310086
9.963311464
9.963310738
9.963311266
9.963310393
9.963310831
9.963310974
9.963265302
9.963265616
9.963265104
9.963264207
9.963263935
9.963263822
9.963264339
9.963263629
9.963263473
9.963262228
9.96326209
9.963260485
9.963260565
9.96326114
9.963259128
9.963259207
9.963259281
9.963258759
9.963259278
9.963257495
9.963256738
9.963256017
9.963255071
9.963254784
9.963254864
9.963254828
9.963255829
9.963256116
9.963255664
9.963256354
9.963273151
9.963272187
9.96327124
9.963272569
9.963272226
9.963272417
9.96327281
9.963272523
9.963271825
9.963271863
9.963272162
9.96327086
9.963271182
9.963271057
9.963236838
9.963237967
9.963238187
9.963238087
9.963236916
9.963237831
9.963239118
9.963239234
9.963240028
9.963238793
9.96323884
9.96323972
9.963239318
9.963239738
9.963275969
9.963277404
9.96327837
9.963279591
9.963279551
9.963278589
9.963279173
9.963278969
9.963279598
9.963278243
9.963277869
9.963278116
9.963276591
9.963278235
9.963269238
9.963269044
9.963269313
9.96326818
9.963268751
9.963268357
9.963267949
9.963266783
9.963266426
9.963267808
9.963267574
9.963268289
9.963268358
9.963268185
9.963295912
9.963296217
9.96329738
9.963297507
9.963298081
9.963297909
9.963296611
9.96329663
9.963298146
9.963297707
9.963298078
9.963298451
9.963299794
9.963299972
9.96326001
9.963259469
9.963260304
9.96325961
9.963258925
9.96326063
9.963261949
9.963261327
9.963260437
9.96326114
9.963261528
9.963261804
9.963261459
9.963262049
9.963255282
9.963255936
9.96325573
9.963255494
9.963255531
9.963254862
9.963254768
9.963254392
9.963253181
9.963251337
9.963251627
9.963251867
9.963252615
9.963251983
9.963304485
9.963303823
9.963303006
9.963304464
9.963304242
9.963303824
9.963304928
9.963303448
9.963303436
9.963303953
9.963303659
9.963304392
9.96330569
9.963306585
9.963305962
9.963315806
9.96331556
9.963315782
9.963314793
9.963313445
9.963313274
9.963313733
9.963313386
9.963312699
9.96331206
9.96331173
9.963310332
9.963309661
9.963309249
9.963309512
9.963288669
9.963287789
9.963287737
9.963286154
9.963287201
9.9632873
9.963288219
9.963287891
9.963287532
9.963288528
9.963287005
9.963286853
9.963286841
9.963286715
9.963302939
9.963302037
9.963301208
9.963301774
9.963302239
9.963302341
9.963304515
9.963304385
9.963304351
9.963304127
9.963303201
9.963303392
9.963303598
9.963302974
9.963274734
9.963274895
9.963275557
9.963275678
9.963275312
9.963274865
9.963275881
9.963274734
9.963275033
9.963276036
9.963276132
9.963275645
9.963275246
9.963275744
9.963282447
9.963282401
9.96328041
9.963281135
9.963281912
9.963281516
9.963281424
9.96328236
9.963283185
9.963281647
9.963282538
9.963283243
9.963284188
9.96328444
9.96327051
9.963270286
9.96327038
9.9632714
9.963271651
9.963272904
9.96327328
9.963273158
9.963272192
9.963271648
9.963271309
9.963272512
9.963271448
9.963271742
9.963313802
9.963313009
9.963313003
9.963313219
9.963313208
9.963311947
9.963309812
9.963310394
9.963311378
9.963312224
9.963311871
9.963312326
9.963311954
9.96331277
9.96327856
9.963279687
9.963278993
9.963279782
9.963280294
9.963280102
9.963281021
9.96328096
9.963281201
9.963280617
9.963278987
9.96327788
9.963278788
9.96327849
9.963303021
9.963303922
9.963304628
9.963304677
9.963303903
9.963302158
9.963302423
9.963303342
9.963303441
9.963303422
9.963304319
9.963304463
9.963305176
9.963304938
9.963259458
9.963258512
9.963258752
9.963258257
9.96325777
9.963259141
9.963257324
9.963256618
9.963258242
9.963258166
9.963258264
9.963259236
9.963258105
9.963257528
9.963258087
9.963269307
9.963269667
9.963269301
9.963269229
9.963269702
9.963269566
9.963269826
9.96327065
9.963270743
9.963271617
9.963271378
9.963272247
9.963272426
9.963272998
9.96328885
9.963288585
9.963289147
9.963289717
9.963289059
9.96328866
9.963288694
9.963288124
9.963287293
9.963286817
9.963288362
9.963288629
9.96328836
9.963288389
9.963263039
9.963262101
9.963260586
9.963261351
9.963260265
9.96326034
9.963259708
9.96325868
9.963259397
9.963259786
9.963260092
9.963259694
9.963259584
9.963259164
9.963353559
9.963352831
9.963353217
9.963353294
9.963352237
9.963351732
9.963352807
9.963354337
9.963354161
9.963353937
9.963353472
9.963352209
9.963352873
9.963353236
9.963300687
9.963300286
9.963300856
9.963300174
9.96330161
9.963300183
9.96330202
9.963300659
9.963300699
9.963301079
9.96330178
9.963302592
9.963303021
9.96330205
9.963280662
9.963282812
9.963282354
9.963282082
9.963282709
9.963282952
9.963281972
9.96328191
9.963280983
9.963281174
9.963281055
9.963280774
9.963279986
9.963280484
9.96327668
9.963275661
9.963275844
9.963275539
9.96327613
9.963275646
9.963275998
9.96327596
9.96327571
9.963276334
9.963276589
9.963277113
9.963276276
9.963277231
9.963289406
9.963288626
9.963286971
9.963288073
9.963288286
9.963289277
9.963289406
9.963289589
9.963289882
9.963289036
9.96328737
9.963285961
9.963286446
9.963286042
9.96329645
9.963295799
9.963296201
9.963295522
9.963295627
9.963295257
9.963295582
9.96329465
9.963294469
9.963295227
9.963296134
9.963295497
9.963295101
9.963295146
)
;

boundaryField
{
    top
    {
        type            calculated;
        value           nonuniform List<scalar> 
134
(
9.963261103
9.963222974
9.963327931
9.963294172
9.963217481
9.963259207
9.963315806
9.963259458
9.96329645
9.963261016
9.963223113
9.963327673
9.963294146
9.963217001
9.963259281
9.96331556
9.963258512
9.963295799
9.963260249
9.963222464
9.963326955
9.963293957
9.963216772
9.963258759
9.963315782
9.963258752
9.963296201
9.963260411
9.96322339
9.963326944
9.963293481
9.963216207
9.963259278
9.963314793
9.963258257
9.963295522
9.96326058
9.96322182
9.963327508
9.963293966
9.963215859
9.963257495
9.963313445
9.96325777
9.963295627
9.963261081
9.963221676
9.96332815
9.963293972
9.963216509
9.963256738
9.963313274
9.963259141
9.963295257
9.96326109
9.963223167
9.963327525
9.963294741
9.963217067
9.963256017
9.963313733
9.963257324
9.963295582
9.963261447
9.963222535
9.963326982
9.963295147
9.963216917
9.963255071
9.963313386
9.963256618
9.96329465
9.963261926
9.96322253
9.963327063
9.963296012
9.963217597
9.963254784
9.963312699
9.963258242
9.963294469
9.963262469
9.963221365
9.963327904
9.963296343
9.963218185
9.963254864
9.96331206
9.963258166
9.963295227
9.963261512
9.9632217
9.963328458
9.963296144
9.96321798
9.963254828
9.96331173
9.963258264
9.963296134
9.963261699
9.963221449
9.963327493
9.963295698
9.963217601
9.963255829
9.963310332
9.963259236
9.963295497
9.963262022
9.963221117
9.963327561
9.963295838
9.963219226
9.963256116
9.963309661
9.963258105
9.963295101
9.963262145
9.963221753
9.963327365
9.963295432
9.963219166
9.963255664
9.963309249
9.963257528
9.963295146
9.963262832
9.963220547
9.963326044
9.963295784
9.963219457
9.963256354
9.963309512
9.963258087
)
;
    }
    bottom
    {
        type            calculated;
        value           nonuniform List<scalar> 
127
(
9.963267813
9.963303882
9.963276218
9.963252216
9.963269108
9.96326306
9.963273151
9.963288669
9.963269307
9.963267099
9.96330495
9.963276321
9.963253058
9.963268752
9.963263184
9.963272187
9.963287789
9.963269667
9.963268323
9.963303862
9.963276222
9.963252751
9.963267793
9.96326423
9.96327124
9.963287737
9.963269301
9.9632696
9.963305408
9.963275781
9.963252085
9.963269237
9.963264311
9.963272569
9.963286154
9.963269229
9.963269796
9.963305177
9.963275374
9.963251622
9.963269183
9.963265099
9.963272226
9.963287201
9.963269702
9.963268948
9.963305589
9.963275934
9.963251517
9.963270267
9.963265333
9.963272417
9.9632873
9.963269566
9.963268473
9.963304705
9.963275051
9.96325089
9.963270318
9.963263795
9.96327281
9.963288219
9.963269826
9.963269693
9.963305006
9.963274264
9.963251933
9.963270334
9.963264341
9.963272523
9.963287891
9.96327065
9.96326938
9.963304802
9.963274059
9.963252148
9.96327066
9.963265574
9.963271825
9.963287532
9.963270743
9.963269738
9.963303956
9.96327429
9.963251797
9.963272024
9.963265263
9.963271863
9.963288528
9.963271617
9.96326986
9.963304788
9.963273206
9.963252534
9.963271831
9.963264691
9.963272162
9.963287005
9.963271378
9.963269575
9.963305439
9.963273042
9.963252726
9.963271475
9.963264958
9.96327086
9.963286853
9.963272247
9.963269591
9.963304014
9.963271324
9.963254243
9.963271927
9.963263702
9.963271182
9.963286841
9.963272426
9.963270929
9.963304073
9.963270505
9.963253829
9.963271385
9.963264488
9.963271057
9.963286715
9.963272998
9.96327103
)
;
    }
    side-walls
    {
        type            calculated;
        value           nonuniform List<scalar> 
261
(
9.963267813
9.963316828
9.96328967
9.96328235
9.963262015
9.963269308
9.963290153
9.963265735
9.963261103
9.963267099
9.963316428
9.963289817
9.963282472
9.963261736
9.963269358
9.963290114
9.963265356
9.963261016
9.963268323
9.963316855
9.96328957
9.963281188
9.963262723
9.963269065
9.963289695
9.963265445
9.963260249
9.9632696
9.963315288
9.963290931
9.963281436
9.963263266
9.96326918
9.963289618
9.963266485
9.963260411
9.963269796
9.963316011
9.963290565
9.963281304
9.963262869
9.963270387
9.963290537
9.963265588
9.96326058
9.963268948
9.963315609
9.963291137
9.96328099
9.963263522
9.963270916
9.963291679
9.963265848
9.963261081
9.963268473
9.963314886
9.963290634
9.96328158
9.963263618
9.963270014
9.963291881
9.963265316
9.96326109
9.963269693
9.963314323
9.963290261
9.963282611
9.963263123
9.963269849
9.963291583
9.963264896
9.963261447
9.96326938
9.963314129
9.963289678
9.963281467
9.963262264
9.963269978
9.963292368
9.963264863
9.963261926
9.963269738
9.963313417
9.963289645
9.963282666
9.963262383
9.963268968
9.963291781
9.963264261
9.963262469
9.96326986
9.963313595
9.963289901
9.963283726
9.96326246
9.963267653
9.963291775
9.963263939
9.963261512
9.963269575
9.963312361
9.963289926
9.963284341
9.96326218
9.96326578
9.963290872
9.96326428
9.963261699
9.963269591
9.963314707
9.963289455
9.963283766
9.963261629
9.963267249
9.963289415
9.963264723
9.963262022
9.963270929
9.963313549
9.963288746
9.963282668
9.963261152
9.963266889
9.963288729
9.963264624
9.963262145
9.96327103
9.963313431
9.963288461
9.963282894
9.963262807
9.963266155
9.963290448
9.963264381
9.963262832
9.963269307
9.96328885
9.963263039
9.963353559
9.963300687
9.963280662
9.96327668
9.963289406
9.96329645
9.963269667
9.963288585
9.963262101
9.963352831
9.963300286
9.963282812
9.963275661
9.963288626
9.963295799
9.963269301
9.963289147
9.963260586
9.963353217
9.963300856
9.963282354
9.963275844
9.963286971
9.963296201
9.963269229
9.963289717
9.963261351
9.963353294
9.963300174
9.963282082
9.963275539
9.963288073
9.963295522
9.963269702
9.963289059
9.963260265
9.963352237
9.96330161
9.963282709
9.96327613
9.963288286
9.963295627
9.963269566
9.96328866
9.96326034
9.963351732
9.963300183
9.963282952
9.963275646
9.963289277
9.963295257
9.963269826
9.963288694
9.963259708
9.963352807
9.96330202
9.963281972
9.963275998
9.963289406
9.963295582
9.96327065
9.963288124
9.96325868
9.963354337
9.963300659
9.96328191
9.96327596
9.963289589
9.96329465
9.963270743
9.963287293
9.963259397
9.963354161
9.963300699
9.963280983
9.96327571
9.963289882
9.963294469
9.963271617
9.963286817
9.963259786
9.963353937
9.963301079
9.963281174
9.963276334
9.963289036
9.963295227
9.963271378
9.963288362
9.963260092
9.963353472
9.96330178
9.963281055
9.963276589
9.96328737
9.963296134
9.963272247
9.963288629
9.963259694
9.963352209
9.963302592
9.963280774
9.963277113
9.963285961
9.963295497
9.963272426
9.96328836
9.963259584
9.963352873
9.963303021
9.963279986
9.963276276
9.963286446
9.963295101
9.963272998
9.963288389
9.963259164
9.963353236
9.96330205
9.963280484
9.963277231
9.963286042
9.963295146
)
;
    }
    inlet
    {
        type            calculated;
        value           nonuniform List<scalar> 
81
(
9.963267813
9.963316828
9.96328967
9.96328235
9.963262015
9.963269308
9.963290153
9.963265735
9.963261103
9.963303882
9.963242943
9.96322317
9.963281133
9.963260543
9.963309249
9.963231277
9.96332419
9.963222974
9.963276218
9.963327566
9.963303852
9.963274701
9.963327637
9.963297631
9.963268821
9.96322372
9.963327931
9.963252216
9.963231115
9.963293383
9.963267888
9.963210903
9.963311072
9.963261112
9.963345467
9.963294172
9.963269108
9.9632985
9.963285298
9.963249319
9.963287284
9.963272182
9.963262453
9.963257268
9.963217481
9.96326306
9.963273994
9.963247633
9.9633278
9.963238707
9.963270757
9.963311448
9.963265302
9.963259207
9.963273151
9.963236838
9.963275969
9.963269238
9.963295912
9.96326001
9.963255282
9.963304485
9.963315806
9.963288669
9.963302939
9.963274734
9.963282447
9.96327051
9.963313802
9.96327856
9.963303021
9.963259458
9.963269307
9.96328885
9.963263039
9.963353559
9.963300687
9.963280662
9.96327668
9.963289406
9.96329645
)
;
    }
    outlet
    {
        type            calculated;
        value           nonuniform 0();
    }
    procBoundary0to1
    {
        type            processor;
        value           nonuniform List<scalar> 
97
(
9.963270928
9.963304028
9.963313573
9.963288572
9.96328266
9.963262767
9.963267843
9.96329119
9.963264684
9.96326183
9.963304028
9.963304028
9.963240944
9.963331082
9.963221982
9.963280478
9.963263319
9.963309634
9.963233166
9.9633254
9.963221347
9.963270029
9.963331082
9.963331082
9.963300323
9.963291242
9.96327378
9.963329232
9.963295905
9.963270754
9.963223261
9.963325478
9.963254174
9.963234326
9.963291242
9.963291242
9.963270537
9.963255818
9.963220128
9.963308569
9.963260465
9.963339197
9.963297256
9.963271301
9.963299736
9.963282421
9.963255818
9.963255818
9.990607152
9.963250026
9.963285013
9.963270697
9.963259918
9.96325707
9.963219962
9.963265324
9.963276927
9.963246841
9.963325894
9.963250026
9.963270697
9.963270697
9.963311106
9.963250131
9.963259608
9.963255218
9.963270965
9.963241007
9.963277949
9.963269589
9.963298566
9.96326037
9.963250131
9.963250131
9.963306338
9.963303967
9.963309498
9.963285996
9.963303296
9.963275521
9.963284073
9.963273016
9.963314166
9.9632801
9.963303967
9.963303967
9.963259044
9.963293983
9.963272803
9.963289702
9.96325904
9.963353192
9.963302236
9.963280544
9.963277829
9.963287383
9.963293983
)
;
    }
}


// ************************************************************************* //
