/*--------------------------------*- C++ -*----------------------------------*\
| =========                 |                                                 |
| \\      /  F ield         | OpenFOAM: The Open Source CFD Toolbox           |
|  \\    /   O peration     | Version:  4.x                                   |
|   \\  /    A nd           | Web:      www.OpenFOAM.org                      |
|    \\/     M anipulation  |                                                 |
\*---------------------------------------------------------------------------*/
FoamFile
{
    version     2.0;
    format      ascii;
    class       volScalarField;
    location    "9000";
    object      N2;
}
// * * * * * * * * * * * * * * * * * * * * * * * * * * * * * * * * * * * * * //

dimensions      [0 0 0 0 0 0 0];

internalField   nonuniform List<scalar> 
1175
(
0.6215293961
0.621529396
0.6215293961
0.6215293957
0.6215293956
0.6215293959
0.6215293959
0.6215293954
0.6215293946
0.6215293929
0.6215293871
0.6215293717
0.6215293335
0.6215292486
0.6215290821
0.6215293955
0.6215293956
0.6215293958
0.6215293958
0.6215293959
0.6215293961
0.6215293961
0.6215293959
0.6215293948
0.6215293916
0.6215293823
0.6215293569
0.6215292916
0.6215291448
0.6215288554
0.6215293961
0.6215293962
0.6215293961
0.6215293959
0.621529396
0.6215293961
0.6215293959
0.6215293955
0.6215293943
0.6215293886
0.6215293727
0.6215293262
0.6215292025
0.6215289153
0.6215283479
0.6215293961
0.6215293961
0.6215293962
0.621529396
0.6215293964
0.6215293965
0.6215293962
0.6215293954
0.6215293934
0.6215293855
0.6215293605
0.6215292854
0.6215290781
0.6215285791
0.621527585
0.6215293967
0.6215293967
0.6215293967
0.6215293966
0.6215293967
0.6215293962
0.6215293957
0.6215293949
0.6215293923
0.6215293834
0.6215293535
0.6215292603
0.6215289958
0.6215283377
0.6215270108
0.6215293966
0.6215293966
0.6215293968
0.6215293965
0.6215293964
0.6215293955
0.6215293955
0.6215293948
0.6215293927
0.6215293851
0.6215293601
0.6215292853
0.6215290781
0.6215285787
0.6215275848
0.6215293962
0.6215293959
0.6215293962
0.6215293965
0.6215293961
0.6215293961
0.6215293953
0.6215293951
0.6215293933
0.6215293883
0.6215293726
0.6215293262
0.6215292029
0.6215289158
0.6215283482
0.6215293961
0.6215293962
0.6215293962
0.6215293966
0.6215293961
0.6215293961
0.6215293959
0.6215293953
0.6215293945
0.6215293912
0.6215293817
0.6215293561
0.6215292915
0.6215291447
0.6215288555
0.6215293962
0.6215293961
0.6215293963
0.6215293963
0.6215293964
0.6215293958
0.6215293958
0.6215293956
0.6215293945
0.6215293925
0.621529387
0.6215293716
0.6215293332
0.6215292484
0.621529082
0.6215293961
0.6215293961
0.6215293962
0.6215293965
0.6215293964
0.6215293961
0.621529396
0.6215293956
0.6215293952
0.6215293919
0.6215293824
0.6215293566
0.6215292918
0.621529145
0.6215293957
0.621529396
0.6215293959
0.621529396
0.6215293962
0.6215293959
0.6215293962
0.6215293957
0.6215293943
0.6215293886
0.6215293728
0.6215293261
0.6215292017
0.6215289102
0.6215283341
0.6215293961
0.621529396
0.6215293959
0.6215293964
0.6215293963
0.6215293961
0.6215293962
0.6215293954
0.6215293927
0.6215293835
0.6215293528
0.6215292572
0.6215289858
0.6215283195
0.6215269886
0.6215293964
0.6215293962
0.6215293959
0.621529396
0.6215293959
0.6215293958
0.6215293963
0.6215293947
0.621529391
0.6215293766
0.6215293247
0.621529153
0.6215286311
0.6215272683
0.6215244769
0.6215293961
0.621529397
0.6215293965
0.6215293962
0.6215293962
0.6215293963
0.6215293956
0.6215293941
0.62152939
0.621529372
0.6215293065
0.6215290771
0.6215283386
0.6215262749
0.6215218504
0.6215293963
0.6215293962
0.6215293962
0.6215293965
0.6215293962
0.621529396
0.6215293956
0.6215293946
0.6215293907
0.621529376
0.6215293241
0.6215291522
0.6215286309
0.6215272682
0.6215244768
0.6215293966
0.6215293967
0.621529396
0.6215293961
0.6215293965
0.6215293958
0.6215293957
0.6215293951
0.6215293923
0.6215293834
0.6215293521
0.6215292566
0.6215289855
0.6215283194
0.6215269886
0.6215293963
0.6215293964
0.6215293963
0.621529396
0.621529396
0.6215293958
0.6215293959
0.6215293951
0.6215293939
0.621529389
0.621529373
0.621529326
0.6215292012
0.6215289098
0.6215283342
0.621529396
0.621529396
0.6215293962
0.6215293959
0.6215293961
0.621529396
0.6215293961
0.6215293955
0.6215293946
0.6215293919
0.6215293824
0.6215293566
0.6215292916
0.6215291449
0.6215288554
0.6215293957
0.6215293958
0.6215293962
0.621529396
0.6215293963
0.6215293961
0.621529396
0.621529396
0.6215293943
0.6215293887
0.6215293729
0.6215293262
0.6215292028
0.6215289157
0.621529396
0.6215293962
0.6215293965
0.6215293967
0.6215293964
0.6215293962
0.6215293955
0.6215293949
0.6215293924
0.6215293829
0.6215293528
0.6215292572
0.621528986
0.6215283196
0.621529396
0.6215293963
0.6215293962
0.6215293961
0.6215293962
0.6215293964
0.6215293957
0.6215293951
0.6215293904
0.621529372
0.621529306
0.6215290833
0.6215283952
0.6215265721
0.6215228219
0.6215293963
0.6215293965
0.6215293961
0.6215293962
0.6215293964
0.6215293963
0.6215293957
0.6215293934
0.6215293858
0.6215293551
0.6215292327
0.6215287793
0.6215272298
0.6215226776
0.6215126868
0.6215293957
0.6215293959
0.6215293968
0.6215293968
0.6215293969
0.621529396
0.6215293955
0.6215293931
0.621529384
0.6215293435
0.6215291774
0.6215285096
0.6215259861
0.6215175681
0.6214966069
0.6215293956
0.6215293958
0.6215293962
0.6215293965
0.6215293962
0.6215293958
0.6215293957
0.6215293938
0.6215293862
0.6215293542
0.6215292328
0.6215287789
0.6215272298
0.6215226778
0.6215126883
0.6215293962
0.6215293957
0.6215293957
0.6215293959
0.621529396
0.6215293959
0.6215293953
0.6215293945
0.6215293897
0.6215293715
0.6215293059
0.6215290828
0.6215283948
0.6215265721
0.6215228228
0.6215293958
0.6215293958
0.6215293959
0.6215293958
0.6215293959
0.6215293959
0.6215293959
0.6215293954
0.6215293924
0.6215293836
0.6215293529
0.6215292569
0.621528986
0.6215283202
0.6215269888
0.6215293962
0.621529396
0.621529396
0.6215293963
0.6215293962
0.6215293961
0.6215293958
0.6215293956
0.6215293939
0.6215293889
0.6215293725
0.6215293258
0.6215292029
0.6215289155
0.6215283479
0.6215293965
0.6215293961
0.6215293962
0.6215293964
0.6215293964
0.6215293963
0.6215293958
0.6215293954
0.6215293931
0.6215293853
0.6215293607
0.6215292856
0.6215290781
0.6215285785
0.6215293966
0.6215293963
0.6215293964
0.6215293963
0.6215293961
0.6215293962
0.6215293954
0.6215293946
0.6215293909
0.621529376
0.6215293246
0.6215291525
0.6215286308
0.6215272677
0.6215293961
0.621529396
0.621529396
0.6215293963
0.6215293962
0.621529396
0.6215293955
0.6215293941
0.6215293863
0.6215293551
0.6215292329
0.6215287791
0.6215272296
0.6215226762
0.6215293964
0.6215293963
0.6215293961
0.6215293961
0.621529396
0.6215293958
0.6215293953
0.6215293922
0.6215293791
0.6215293213
0.6215290702
0.6215280124
0.6215238317
0.6215093054
0.6214721505
0.6215293963
0.6215293964
0.6215293964
0.6215293964
0.6215293962
0.6215293962
0.6215293952
0.6215293915
0.6215293749
0.6215292962
0.6215289236
0.6215271574
0.6215189282
0.6214830295
0.6213583938
0.6215293962
0.621529396
0.6215293962
0.6215293963
0.6215293963
0.6215293962
0.6215293953
0.6215293924
0.6215293794
0.621529321
0.6215290701
0.6215280123
0.6215238318
0.6215093083
0.6214721616
0.6215293957
0.6215293958
0.6215293964
0.6215293964
0.6215293963
0.6215293965
0.6215293961
0.6215293945
0.6215293866
0.6215293548
0.6215292331
0.6215287792
0.6215272299
0.6215226783
0.6215126879
0.6215293959
0.6215293957
0.621529396
0.6215293958
0.621529396
0.6215293963
0.6215293963
0.6215293951
0.6215293914
0.621529377
0.6215293248
0.6215291525
0.6215286313
0.6215272683
0.6215244773
0.6215293961
0.6215293959
0.6215293959
0.6215293964
0.6215293963
0.6215293965
0.6215293962
0.6215293953
0.6215293933
0.6215293854
0.6215293605
0.6215292853
0.6215290782
0.6215285787
0.6215275845
0.6215293962
0.6215293965
0.6215293967
0.6215293962
0.6215293963
0.621529396
0.6215293959
0.6215293953
0.6215293924
0.6215293835
0.6215293534
0.6215292607
0.6215289959
0.6215283371
0.6215293968
0.6215293964
0.6215293961
0.6215293961
0.6215293963
0.621529396
0.6215293957
0.6215293948
0.6215293904
0.6215293721
0.6215293065
0.6215290768
0.6215283383
0.6215262732
0.6215293966
0.6215293966
0.6215293967
0.6215293963
0.6215293958
0.6215293958
0.6215293956
0.6215293937
0.6215293843
0.6215293438
0.6215291776
0.6215285094
0.6215259856
0.6215175641
0.6215293959
0.6215293961
0.6215293963
0.6215293965
0.6215293962
0.621529396
0.6215293951
0.6215293915
0.6215293747
0.6215292963
0.6215289233
0.6215271573
0.6215189265
0.621483017
0.6215293962
0.6215293963
0.6215293963
0.621529396
0.6215293964
0.6215293958
0.6215293951
0.6215293905
0.6215293684
0.6215292556
0.6215286519
0.6215252348
0.6215045661
0.6213700543
0.6204239505
0.6215293963
0.6215293961
0.6215293961
0.6215293963
0.6215293963
0.6215293963
0.6215293955
0.6215293918
0.621529375
0.6215292959
0.6215289237
0.6215271571
0.6215189276
0.6214830272
0.621358392
0.6215293957
0.621529396
0.6215293963
0.6215293961
0.6215293962
0.6215293969
0.6215293959
0.6215293937
0.621529384
0.6215293439
0.6215291779
0.6215285096
0.6215259864
0.6215175676
0.6214966065
0.6215293956
0.6215293959
0.6215293961
0.621529396
0.6215293961
0.6215293962
0.6215293959
0.6215293948
0.6215293901
0.6215293721
0.6215293064
0.6215290772
0.621528339
0.6215262744
0.6215218509
0.6215293961
0.621529396
0.621529396
0.6215293966
0.6215293964
0.6215293965
0.6215293963
0.6215293954
0.6215293929
0.6215293838
0.6215293541
0.621529261
0.6215289961
0.6215283378
0.6215270107
0.6215293962
0.6215293962
0.6215293965
0.6215293961
0.621529396
0.6215293961
0.621529396
0.6215293954
0.6215293926
0.6215293855
0.6215293605
0.6215292855
0.6215290782
0.6215285783
0.6215293965
0.6215293966
0.6215293962
0.6215293958
0.6215293966
0.6215293964
0.6215293956
0.6215293952
0.6215293911
0.6215293766
0.621529325
0.6215291527
0.6215286314
0.6215272677
0.6215293966
0.6215293964
0.6215293968
0.6215293965
0.621529396
0.6215293958
0.6215293953
0.6215293938
0.6215293859
0.6215293552
0.6215292329
0.6215287794
0.6215272293
0.6215226756
0.6215293957
0.6215293964
0.6215293966
0.6215293963
0.6215293964
0.621529396
0.6215293954
0.6215293923
0.621529379
0.6215293215
0.6215290705
0.6215280125
0.6215238309
0.6215093014
0.6215293963
0.6215293962
0.6215293963
0.6215293962
0.6215293964
0.6215293966
0.6215293953
0.6215293918
0.6215293749
0.6215292964
0.6215289239
0.6215271574
0.6215189262
0.6214830154
0.621529396
0.6215293963
0.6215293967
0.6215293964
0.6215293965
0.621529396
0.6215293957
0.6215293922
0.6215293793
0.6215293212
0.6215290699
0.6215280126
0.621523831
0.6215093021
0.6215293962
0.6215293962
0.6215293965
0.6215293964
0.6215293965
0.6215293962
0.6215293963
0.6215293938
0.6215293859
0.6215293548
0.6215292327
0.6215287792
0.6215272298
0.6215226776
0.6215126849
0.6215293957
0.6215293957
0.6215293957
0.6215293959
0.6215293962
0.6215293959
0.6215293955
0.6215293948
0.6215293912
0.6215293763
0.6215293243
0.6215291525
0.6215286314
0.6215272681
0.6215244766
0.6215293957
0.6215293957
0.6215293958
0.6215293961
0.6215293963
0.6215293962
0.6215293963
0.6215293958
0.6215293933
0.6215293854
0.6215293604
0.6215292855
0.6215290781
0.6215285784
0.6215275846
0.6215293963
0.6215293965
0.6215293963
0.6215293959
0.621529396
0.6215293963
0.6215293959
0.6215293953
0.6215293933
0.6215293885
0.6215293727
0.6215293255
0.6215292024
0.6215289151
0.6215293968
0.6215293964
0.6215293963
0.6215293962
0.6215293962
0.6215293961
0.621529396
0.6215293953
0.6215293928
0.6215293839
0.6215293527
0.6215292574
0.6215289863
0.6215283198
0.6215293968
0.6215293966
0.6215293966
0.6215293962
0.6215293965
0.6215293962
0.6215293957
0.6215293945
0.62152939
0.6215293717
0.6215293061
0.621529083
0.6215283948
0.6215265709
0.6215293964
0.6215293964
0.6215293965
0.6215293963
0.6215293963
0.6215293963
0.6215293956
0.6215293945
0.6215293862
0.6215293553
0.6215292334
0.6215287793
0.6215272297
0.621522676
0.6215293967
0.6215293964
0.6215293964
0.6215293963
0.6215293965
0.6215293961
0.6215293959
0.6215293938
0.6215293839
0.6215293442
0.6215291778
0.6215285096
0.6215259854
0.6215175636
0.6215293967
0.6215293966
0.6215293965
0.6215293966
0.6215293964
0.6215293962
0.6215293954
0.6215293939
0.6215293858
0.6215293553
0.6215292332
0.6215287794
0.6215272296
0.6215226759
0.6215293968
0.6215293964
0.6215293964
0.6215293961
0.6215293964
0.6215293963
0.6215293963
0.6215293948
0.6215293901
0.6215293721
0.6215293069
0.6215290838
0.6215283955
0.621526572
0.6215293958
0.6215293958
0.6215293961
0.621529396
0.6215293964
0.6215293959
0.6215293961
0.6215293958
0.6215293932
0.6215293842
0.6215293531
0.6215292574
0.6215289863
0.62152832
0.6215269888
0.6215293957
0.6215293958
0.6215293959
0.6215293962
0.6215293967
0.6215293964
0.6215293962
0.6215293953
0.6215293938
0.6215293889
0.6215293729
0.6215293261
0.6215292029
0.621528916
0.6215283485
0.6215293966
0.6215293968
0.6215293968
0.6215293965
0.6215293963
0.6215293965
0.6215293962
0.621529396
0.621529395
0.6215293915
0.6215293827
0.6215293571
0.6215292922
0.6215291451
0.6215293965
0.6215293962
0.6215293965
0.6215293966
0.6215293964
0.6215293963
0.6215293958
0.6215293955
0.6215293942
0.6215293891
0.6215293733
0.6215293265
0.6215292021
0.6215289107
0.6215293964
0.6215293959
0.6215293964
0.6215293965
0.6215293968
0.6215293965
0.6215293963
0.6215293958
0.6215293931
0.6215293837
0.621529353
0.6215292574
0.6215289861
0.62152832
0.6215293962
0.6215293965
0.6215293968
0.6215293965
0.6215293966
0.6215293965
0.6215293963
0.621529395
0.6215293908
0.6215293764
0.6215293247
0.6215291528
0.6215286312
0.6215272681
0.6215293964
0.6215293966
0.6215293968
0.6215293964
0.6215293963
0.6215293961
0.6215293957
0.6215293949
0.6215293902
0.6215293724
0.6215293068
0.6215290772
0.6215283386
0.6215262736
0.6215293961
0.6215293963
0.621529396
0.6215293963
0.6215293961
0.6215293962
0.621529396
0.6215293952
0.6215293909
0.6215293763
0.621529325
0.6215291529
0.6215286313
0.6215272682
0.6215293962
0.6215293962
0.6215293967
0.6215293963
0.621529396
0.6215293963
0.6215293961
0.6215293952
0.6215293927
0.6215293835
0.6215293532
0.6215292573
0.6215289865
0.6215283203
0.6215293963
0.6215293966
0.621529396
0.6215293959
0.6215293962
0.6215293965
0.6215293962
0.6215293957
0.6215293944
0.6215293896
0.6215293733
0.6215293265
0.621529202
0.6215289104
0.6215293962
0.6215293963
0.6215293958
0.6215293961
0.6215293964
0.6215293957
0.6215293964
0.6215293963
0.6215293951
0.6215293921
0.6215293824
0.6215293567
0.6215292919
0.6215291454
0.6215288558
0.6215293965
0.6215293966
0.6215293966
0.6215293967
0.6215293966
0.6215293968
0.6215293963
0.6215293961
0.6215293957
0.6215293934
0.6215293874
0.6215293716
0.6215293332
0.6215292485
0.6215293963
0.6215293963
0.6215293965
0.6215293963
0.6215293968
0.6215293968
0.6215293964
0.6215293959
0.621529395
0.6215293924
0.6215293825
0.6215293571
0.6215292917
0.6215291452
0.6215293963
0.6215293962
0.6215293963
0.6215293968
0.6215293968
0.621529397
0.6215293962
0.6215293959
0.6215293941
0.6215293886
0.6215293725
0.6215293261
0.6215292025
0.6215289155
0.6215293965
0.6215293967
0.6215293966
0.6215293966
0.6215293967
0.621529397
0.6215293965
0.6215293954
0.6215293932
0.6215293855
0.6215293607
0.6215292857
0.6215290782
0.621528579
0.6215293963
0.6215293966
0.6215293964
0.6215293961
0.6215293963
0.6215293962
0.6215293961
0.6215293953
0.621529393
0.6215293838
0.6215293543
0.6215292608
0.6215289961
0.6215283377
0.6215293967
0.6215293965
0.6215293963
0.6215293965
0.6215293964
0.6215293961
0.6215293963
0.6215293958
0.6215293934
0.6215293859
0.6215293609
0.6215292855
0.6215290782
0.6215285791
0.6215293962
0.6215293963
0.6215293964
0.6215293965
0.6215293962
0.6215293963
0.6215293966
0.6215293956
0.621529394
0.6215293889
0.6215293729
0.6215293259
0.621529203
0.6215289161
0.6215293961
0.6215293965
0.6215293962
0.6215293961
0.6215293961
0.6215293965
0.6215293962
0.6215293958
0.6215293949
0.6215293918
0.6215293827
0.6215293573
0.6215292922
0.6215291454
0.6215293963
0.621529396
0.6215293962
0.6215293963
0.6215293963
0.6215293966
0.6215293966
0.6215293963
0.6215293955
0.6215293934
0.6215293875
0.6215293716
0.6215293337
0.621529249
)
;

boundaryField
{
    top
    {
        type            zeroGradient;
    }
    bottom
    {
        type            zeroGradient;
    }
    side-walls
    {
        type            zeroGradient;
    }
    inlet
    {
        type            zeroGradient;
    }
    outlet
    {
        type            zeroGradient;
    }
    procBoundary0to1
    {
        type            processor;
        value           nonuniform List<scalar> 
97
(
0.6215287914
0.6215288556
0.6215283656
0.6215274238
0.6215260417
0.6215250531
0.621526042
0.6215274235
0.6215283651
0.6215287913
0.6215288556
0.6215288556
0.6215274039
0.6215269884
0.62152498
0.621520666
0.6215165873
0.6215206663
0.6215249806
0.6215274035
0.6215283657
0.6215283484
0.6215269884
0.6215269884
0.621517809
0.6215126839
0.6215018288
0.6214808616
0.6215018301
0.6215178094
0.6215249811
0.6215274243
0.6215275846
0.621524476
0.6215126839
0.6215126839
0.6214469525
0.6213583495
0.6213390688
0.6214469567
0.6215018297
0.6215206663
0.6215260416
0.6215270102
0.6215218496
0.6214966009
0.6213583495
0.6213583495
0.6208740906
0.6213583509
0.6213390693
0.62147215
0.6214808611
0.6215165883
0.6215250534
0.6215275844
0.6215244763
0.6215126856
0.6214721513
0.6213583509
0.62147215
0.62147215
0.621501829
0.6215228215
0.6215206666
0.621526042
0.621528348
0.6215269886
0.6215228217
0.6215126857
0.6214966006
0.621512686
0.6215228215
0.6215228215
0.6215249808
0.6215283347
0.6215274244
0.6215288555
0.6215283351
0.6215269888
0.6215244767
0.62152185
0.6215244768
0.6215269892
0.6215283347
0.6215283347
0.621528366
0.6215290822
0.6215290823
0.6215288557
0.6215283484
0.6215275845
0.6215270107
0.6215275844
0.6215283483
0.6215288561
0.6215290822
)
;
    }
}


// ************************************************************************* //
