/*--------------------------------*- C++ -*----------------------------------*\
| =========                 |                                                 |
| \\      /  F ield         | OpenFOAM: The Open Source CFD Toolbox           |
|  \\    /   O peration     | Version:  4.x                                   |
|   \\  /    A nd           | Web:      www.OpenFOAM.org                      |
|    \\/     M anipulation  |                                                 |
\*---------------------------------------------------------------------------*/
FoamFile
{
    version     2.0;
    format      ascii;
    class       surfaceScalarField;
    location    "9000";
    object      phi;
}
// * * * * * * * * * * * * * * * * * * * * * * * * * * * * * * * * * * * * * //

dimensions      [1 0 -1 0 0 0 0];

internalField   nonuniform List<scalar> 
3175
(
9.497820353e-06
-1.723941135e-12
-2.232779544e-13
9.497820762e-06
-8.272546961e-13
-1.304717929e-12
9.497822313e-06
-8.54490771e-14
-7.007107703e-14
9.497823843e-06
7.624297075e-14
-7.39685676e-14
9.49782355e-06
-3.173920724e-13
6.272408141e-13
9.497824528e-06
-1.133435658e-13
-1.187463381e-12
9.497828466e-06
-6.072071898e-13
-1.467943385e-12
9.497827725e-06
-3.013942912e-12
-2.213658095e-12
9.497831468e-06
-2.783023024e-12
-4.725739612e-12
9.497839871e-06
-3.621151026e-12
-6.478585492e-12
9.497845238e-06
-4.859885105e-12
-6.643818701e-12
9.497860766e-06
-7.044729928e-12
-6.572134707e-12
9.49788271e-06
-1.134279626e-11
-9.553338277e-12
9.49790313e-06
-1.012165204e-11
-9.140155734e-12
-2.133389568e-11
9.497867517e-06
-1.473092311e-12
4.253928884e-13
9.497867294e-06
-8.772101417e-13
-5.654103714e-13
9.497867111e-06
-8.099608689e-13
8.83539762e-14
9.497867296e-06
-4.061323286e-13
8.003234839e-13
9.497867567e-06
-1.473493103e-12
-5.9703538e-13
9.497868504e-06
-2.492730693e-12
-3.367487031e-13
9.497869868e-06
-2.243551523e-12
-9.482079159e-13
9.49787193e-06
-2.852915917e-12
-1.781815493e-12
9.497874623e-06
-4.450100274e-12
-2.983653191e-12
9.497879226e-06
-4.97967437e-12
-2.97685881e-12
9.497886683e-06
-6.862469435e-12
-3.947480922e-12
9.497900245e-06
-1.26332069e-11
-8.624346903e-12
9.497924048e-06
-1.762926356e-11
-1.131426706e-11
9.497942988e-06
-1.892040885e-11
-1.146297097e-11
-4.271352028e-11
-3.225949964e-11
9.497844241e-06
6.236249564e-13
3.436489857e-14
9.497842733e-06
5.375704463e-13
2.554001112e-13
9.497843738e-06
6.207787685e-13
-2.186260328e-13
9.4978425e-06
-1.150676215e-13
-3.787376386e-13
9.497842228e-06
-1.334778188e-12
-3.577353489e-13
9.497846059e-06
-1.452524924e-12
-1.250431829e-12
9.497846941e-06
-1.992554177e-12
-1.696277015e-12
9.497845913e-06
-1.759800621e-12
-2.571222088e-12
9.497849157e-06
-2.577516924e-12
-3.251591171e-12
9.49785238e-06
-6.479772859e-12
-5.67170197e-12
9.49785616e-06
-7.937752573e-12
-7.541139931e-12
9.497872271e-06
-1.240658114e-11
-1.367545765e-11
9.497889042e-06
-1.875124507e-11
-1.979078916e-11
9.497913157e-06
-2.063662023e-11
-2.558866304e-11
-5.209741614e-11
-7.498723611e-11
9.497835182e-06
8.213181176e-13
3.396491646e-13
9.497834667e-06
1.100326473e-12
1.484555601e-13
9.497834202e-06
-3.596171291e-14
3.754631428e-14
9.497833919e-06
-6.496668571e-13
-6.369241944e-13
9.497835069e-06
1.977136387e-13
1.849770414e-12
9.497835948e-06
3.410434507e-13
1.185798654e-13
9.497839247e-06
1.731428967e-12
-1.809002127e-13
9.497836032e-06
-4.659968363e-13
-1.948449142e-12
9.497840424e-06
-4.342208021e-13
-2.087122202e-12
9.497844312e-06
-1.654608516e-12
-6.17660399e-12
9.497850389e-06
-4.181668767e-12
-6.625480839e-12
9.49786619e-06
-9.822711733e-12
-1.648154385e-11
9.497884643e-06
-1.752490044e-11
-1.657262011e-11
9.497916075e-06
-2.662137976e-11
-2.47871359e-11
-5.261453717e-11
-1.055817445e-10
9.497815819e-06
5.41631884e-13
6.307854603e-13
9.497815338e-06
8.462821125e-13
-3.299357312e-13
9.497817897e-06
6.743245361e-13
7.874302341e-13
9.497817783e-06
1.377154134e-12
4.919936327e-13
9.497816943e-06
7.689979342e-13
1.238415619e-12
9.497817854e-06
1.060493483e-12
-1.964454993e-13
9.497819017e-06
2.246650643e-12
-1.692354591e-12
9.497815381e-06
2.981548445e-12
-2.764093052e-12
9.49781567e-06
4.097026582e-12
-2.719750522e-12
9.49781718e-06
4.873111582e-12
-1.013827196e-11
9.497814251e-06
6.780964615e-12
-1.234778265e-11
9.497822217e-06
1.348156396e-11
-3.615818241e-11
9.497828748e-06
2.005623676e-11
-4.231975421e-11
9.497879206e-06
2.800380802e-11
-1.070672554e-10
5.261335175e-11
-2.931169848e-10
9.497822998e-06
-3.539307334e-14
-9.671432711e-13
9.497821813e-06
-4.119186329e-13
-4.991116829e-13
9.497824011e-06
-1.27078241e-13
1.468387252e-12
9.497824442e-06
-3.164883563e-13
2.543453859e-13
9.497823702e-06
7.412306407e-13
1.301467048e-12
9.497824606e-06
2.07724578e-12
-3.018101358e-13
9.497824288e-06
2.165592775e-12
-9.876342603e-13
9.497826285e-06
2.341946793e-12
-2.055174715e-12
9.497825787e-06
3.673695065e-12
-2.819185283e-12
9.497829639e-06
6.272019669e-12
-5.922053754e-12
9.497833286e-06
6.931421956e-12
-6.339607526e-12
9.49784783e-06
1.10738664e-11
-1.768218103e-11
9.497866861e-06
1.860391106e-11
-1.578370588e-11
9.49789879e-06
2.087505011e-11
-2.661948005e-11
5.338836859e-11
-1.038360169e-10
9.4978417e-06
-7.514221646e-13
-8.947639383e-13
9.497841253e-06
-1.101048588e-12
-6.966763833e-13
9.497843885e-06
3.615913384e-13
1.073764867e-12
9.497843842e-06
1.191549309e-13
5.355342451e-13
9.497843775e-06
6.687137262e-13
-2.98749003e-13
9.497845973e-06
1.383580142e-12
3.040235152e-13
9.497846235e-06
1.967640324e-12
-1.558737942e-12
9.497847434e-06
3.084473567e-12
-2.311049553e-12
9.497848055e-06
5.382063934e-12
-2.678817174e-12
9.497852167e-06
7.260503887e-12
-6.93399491e-12
9.497857866e-06
8.703879641e-12
-5.437852572e-12
9.49787216e-06
1.443256457e-11
-1.368271682e-11
9.497889349e-06
1.953099487e-11
-1.994741116e-11
9.497914249e-06
1.930910736e-11
-2.488957686e-11
4.355520446e-11
-7.368377171e-11
9.497817571e-06
-2.760371056e-14
4.934986256e-13
9.497818624e-06
-1.038900635e-13
1.214449209e-13
9.497821154e-06
-8.320064269e-13
-2.175760041e-13
9.497820208e-06
3.157860262e-13
-2.402900769e-13
9.497821265e-06
2.719542705e-13
-1.273132168e-12
9.497822744e-06
2.506755346e-13
-5.874905164e-14
9.49782322e-06
1.41611005e-12
-1.199667213e-12
9.497826167e-06
1.406095503e-12
-2.195645073e-12
9.497825664e-06
2.350382202e-12
-3.509396158e-12
9.497829666e-06
3.881099595e-12
-5.975120491e-12
9.49783833e-06
4.639011155e-12
-5.365860391e-12
9.497851846e-06
5.643930014e-12
-9.533281527e-12
9.497874075e-06
8.458943121e-12
-1.22068243e-11
9.497895147e-06
8.476334576e-12
-1.024287673e-11
2.016588949e-11
-3.23138082e-11
9.49781375e-06
9.6706192e-13
9.497813174e-06
5.821942639e-13
9.497817163e-06
2.525078052e-13
9.4978154e-06
-6.481138059e-13
9.497818584e-06
2.923005262e-13
9.497819212e-06
-1.038505999e-13
9.497819427e-06
-1.997593888e-12
9.497822491e-06
-2.939674885e-12
9.497823936e-06
-4.551732361e-12
9.497829982e-06
-6.01380078e-12
9.497838683e-06
-6.760539536e-12
9.497852815e-06
-7.410918589e-12
9.497874301e-06
-1.074183169e-11
9.497892161e-06
-1.017405232e-11
-2.029367239e-11
9.497855854e-06
-7.5644136e-13
4.639443108e-13
9.497855755e-06
1.369141685e-13
4.74289155e-13
9.497854729e-06
9.24028345e-13
8.688036438e-13
9.497859871e-06
1.944821641e-12
9.334164883e-13
9.497857199e-06
-1.139747148e-12
-1.008272241e-12
9.497858417e-06
-3.292867249e-13
1.392893837e-13
9.497861781e-06
-1.067423071e-12
-1.3439149e-12
9.497862697e-06
-1.62722471e-12
-2.07827574e-12
9.497866138e-06
-1.844733686e-12
-2.724178456e-12
9.497871047e-06
-2.644915936e-12
-5.653985656e-12
9.497878812e-06
-3.102986677e-12
-9.38009295e-12
9.49789284e-06
-8.28668119e-12
-1.482547354e-11
9.497913966e-06
-1.282928514e-11
-1.979072872e-11
-1.142942472e-11
-1.815531292e-11
9.497796565e-06
-1.601753896e-12
8.396023117e-14
9.497798173e-06
-5.335513809e-13
-5.908142997e-13
9.497796983e-06
-1.719148852e-12
4.45994451e-14
9.497797457e-06
-1.434682212e-12
-3.22244519e-13
9.497798159e-06
-1.40489852e-12
-9.833821793e-13
9.497797449e-06
-1.653194773e-12
-1.329170276e-12
9.497800001e-06
-2.551642201e-12
-5.781792465e-13
9.497800342e-06
-2.738171165e-12
-2.349769049e-12
9.497804583e-06
-4.215744623e-12
-3.105505422e-12
9.497809874e-06
-7.667736147e-12
-8.23801526e-12
9.497814803e-06
-9.996700836e-12
-1.088112976e-11
9.497832713e-06
-1.498439308e-11
-1.636755097e-11
9.497851657e-06
-2.2139723e-11
-2.156173088e-11
9.497878031e-06
-2.43645359e-11
-2.423465176e-11
-6.635850978e-11
9.497779454e-06
6.968377555e-13
1.067091842e-13
9.497778787e-06
5.927585794e-13
3.543440664e-13
9.497779136e-06
2.014039506e-13
-9.678461329e-14
9.49777909e-06
1.563908046e-12
5.759233592e-13
9.497779214e-06
1.787636091e-12
-5.220244714e-13
9.497778882e-06
5.557066127e-13
-2.640022881e-12
9.497781322e-06
-5.184677224e-14
-3.518295046e-13
9.497780082e-06
-1.434816106e-12
-2.396941024e-12
9.497781862e-06
-2.54061639e-12
-3.965580628e-12
9.497783872e-06
-7.960567934e-12
-1.091787305e-11
9.497788731e-06
-8.259713716e-12
-1.200658443e-11
9.497802401e-06
-1.74972976e-11
-2.811673703e-11
9.497817913e-06
-2.282167268e-11
-3.571212306e-11
9.497858192e-06
-3.013174903e-11
-5.818150236e-11
-9.755181596e-11
-1.692438976e-10
9.497834647e-06
1.248065111e-12
2.876650365e-13
9.497833017e-06
1.226335274e-12
4.027553732e-13
9.497833739e-06
5.327728741e-13
1.386263462e-12
9.497834073e-06
-6.951214191e-14
1.318200499e-13
9.497831142e-06
-1.484738732e-14
-8.059493956e-13
9.497831921e-06
-7.006422016e-13
-1.747538027e-12
9.497833337e-06
-2.452318372e-13
-1.334285766e-12
9.497832985e-06
-8.66002161e-13
-2.310964732e-12
9.497833636e-06
-9.074923525e-13
-3.922918624e-12
9.497837968e-06
-4.84155975e-12
-1.202847855e-11
9.497843073e-06
-7.036498495e-12
-9.725129405e-12
9.497862437e-06
-1.872312597e-11
-3.38239625e-11
9.497881609e-06
-2.719845207e-11
-2.275952961e-11
9.497938508e-06
-5.062502936e-11
-6.770176652e-11
-1.019406986e-10
-2.445013125e-10
9.497814794e-06
-1.263840023e-12
3.882796384e-13
9.49781448e-06
-5.896005147e-13
5.292860723e-13
9.497813741e-06
1.699278626e-12
1.505636544e-12
9.497815678e-06
1.643834224e-12
3.142366604e-13
9.497814405e-06
7.134316438e-13
-9.466513022e-13
9.497813975e-06
2.437459735e-13
-8.203086911e-13
9.497813784e-06
1.119010934e-12
-1.249676284e-12
9.497811192e-06
1.969919513e-12
-4.489564404e-12
9.497808283e-06
3.017094499e-12
-7.610381431e-12
9.497807896e-06
6.263497201e-12
-1.806128002e-11
9.497800784e-06
9.495892554e-12
-1.920109164e-11
9.497807529e-06
1.941435905e-11
-7.859770379e-11
9.497788979e-06
2.892364027e-11
-8.090064069e-11
9.497907441e-06
4.991519879e-11
-3.23437362e-10
1.010576945e-10
-8.181759391e-10
9.497861479e-06
3.360619003e-13
1.174668622e-12
9.497862272e-06
-5.559710912e-13
1.398231972e-12
9.497862181e-06
-6.594557825e-13
1.367053209e-12
9.497861877e-06
1.530631712e-13
-7.507907782e-13
9.497861084e-06
3.339978241e-14
-8.521606671e-14
9.49786289e-06
2.613843406e-12
4.839629176e-13
9.497862918e-06
2.365346582e-12
-3.710717396e-13
9.497862885e-06
3.13067391e-12
-2.967800679e-12
9.497862672e-06
4.118299959e-12
-4.578993463e-12
9.497867535e-06
6.227987182e-12
-1.078128427e-11
9.4978726e-06
8.642061374e-12
-1.125363038e-11
9.497893562e-06
1.733759809e-11
-3.476595649e-11
9.497906519e-06
2.174600993e-11
-2.38526726e-11
9.497969075e-06
3.14237273e-11
-6.617933864e-11
9.855260748e-11
-2.443677584e-10
9.497787114e-06
3.312546135e-13
6.207609393e-13
9.497788408e-06
-6.969705177e-13
9.863266545e-13
9.497787437e-06
-8.000573246e-13
4.656467905e-13
9.497786571e-06
-9.306125366e-13
-7.207267371e-13
9.497787445e-06
-2.86245076e-13
-1.08662789e-13
9.497787416e-06
1.34090261e-12
-6.942283454e-13
9.49778853e-06
1.590457736e-12
-1.397542649e-12
9.497790906e-06
2.361060509e-12
-4.339274973e-12
9.497788425e-06
3.749785469e-12
-6.777036023e-12
9.497796539e-06
7.556995793e-12
-9.539650575e-12
9.497797016e-06
8.153578795e-12
-1.394287091e-11
9.497812512e-06
1.573534869e-11
-2.904300692e-11
9.497828122e-06
2.338210734e-11
-3.78748402e-11
9.497868303e-06
2.547005813e-11
-5.870145614e-11
6.76797275e-11
-1.693970895e-10
9.497874023e-06
7.13533489e-14
-2.220086844e-14
9.497876256e-06
1.559696656e-12
1.045240819e-12
9.497877636e-06
5.678780877e-13
1.403533069e-13
9.497876074e-06
1.443101395e-14
-5.480128588e-13
9.49787884e-06
9.459145995e-13
-8.400302222e-13
9.497878257e-06
7.818896811e-13
-1.57309677e-12
9.497879346e-06
1.18668445e-13
-1.262004341e-12
9.497881582e-06
7.708139696e-13
-4.663732541e-12
9.497880886e-06
1.107328652e-12
-6.077386653e-12
9.497889899e-06
3.294194467e-12
-8.089146478e-12
9.497896053e-06
3.528292064e-12
-1.069420856e-11
9.497912183e-06
7.193539934e-12
-1.75674679e-11
9.497932175e-06
1.02172011e-11
-2.435564671e-11
9.497955527e-06
8.851085783e-12
-2.556462663e-11
3.200025953e-11
-6.685788196e-11
9.497777328e-06
-1.659320907e-13
9.497777424e-06
9.983114425e-14
9.497779691e-06
1.388485232e-14
9.497779324e-06
8.296807977e-13
9.49778027e-06
3.112981552e-13
9.497779433e-06
-1.978015477e-12
9.497782898e-06
-9.743951711e-13
9.497784425e-06
-2.699658016e-12
9.497785544e-06
-4.440091211e-12
9.49779176e-06
-6.188817608e-12
9.497799007e-06
-6.881152753e-12
9.497813641e-06
-1.278218218e-11
9.497833987e-06
-2.007471331e-11
9.497854838e-06
-1.845046475e-11
-4.084985624e-11
9.497827326e-06
-1.595226833e-12
-1.942552843e-12
9.497829038e-06
-9.380825574e-13
-1.122869426e-13
9.497828267e-06
1.731745917e-13
-8.933167121e-13
9.49782915e-06
-3.339852655e-13
-8.097160973e-13
9.497828363e-06
-1.477252149e-12
-9.162314745e-13
9.497829035e-06
4.217414485e-14
-2.894338028e-13
9.497832325e-06
1.899239196e-13
-1.833200696e-12
9.497831771e-06
-1.139154102e-12
-3.132827431e-12
9.497832796e-06
-1.207094322e-12
-3.455989963e-12
9.497835921e-06
-4.865415208e-12
-6.033170036e-12
9.497841315e-06
-5.833719287e-12
-6.444310786e-12
9.497856435e-06
-1.229572285e-11
-1.143040364e-11
9.497873206e-06
-1.907136004e-11
-1.806170557e-11
-2.527613886e-11
-2.004752881e-11
9.49787617e-06
-1.976617574e-12
-7.768956296e-13
9.497878961e-06
-3.900117429e-13
-1.332678594e-13
9.497878085e-06
-1.74936376e-12
-6.993390734e-13
9.497877165e-06
-1.154069858e-12
-1.263822774e-12
9.497879493e-06
-1.036561122e-12
5.769956737e-13
9.497879479e-06
-2.713982885e-12
-1.266294195e-12
9.497880838e-06
-2.722576593e-12
-1.315467303e-12
9.497881384e-06
-3.022250103e-12
-2.415298408e-12
9.497880879e-06
-5.07435516e-12
-2.771872371e-12
9.497884977e-06
-1.079295416e-11
-6.934119673e-12
9.497889284e-06
-1.137044451e-11
-6.38845024e-12
9.497906973e-06
-2.637806805e-11
-1.627506396e-11
9.497920654e-06
-3.695778119e-11
-2.134923404e-11
-5.90041587e-11
-3.049833218e-11
9.497855604e-06
6.48185769e-13
6.031079101e-13
9.497854831e-06
8.17244902e-13
5.094767628e-13
9.497855791e-06
1.051040461e-12
1.171891312e-12
9.497852868e-06
2.462288908e-13
-9.815652091e-13
9.497854511e-06
1.876972399e-12
1.510472337e-13
9.497855211e-06
5.168942093e-13
1.183276256e-12
9.497855323e-06
-5.765954449e-13
-5.000773246e-13
9.497851195e-06
-2.221973854e-12
-3.411796815e-12
9.497850364e-06
-3.445166419e-12
-3.596844668e-12
9.497851752e-06
-1.033193574e-11
-9.655713991e-12
9.497848279e-06
-1.034084042e-11
-1.035031232e-11
9.497858477e-06
-3.276471781e-11
-3.421587278e-11
9.497857851e-06
-3.61441245e-11
-3.623695741e-11
9.497937444e-06
-9.614815473e-11
-9.591099949e-11
-2.903265371e-10
9.497827773e-06
1.065888139e-12
4.175655662e-13
9.49782822e-06
1.221197163e-12
2.264409425e-13
9.49782861e-06
4.649930521e-13
-1.050884668e-13
9.497828953e-06
-2.328869154e-13
-9.728604636e-14
9.497827914e-06
-3.320358233e-13
-2.470846194e-13
9.497829752e-06
8.267373894e-14
-1.042622699e-12
9.497829278e-06
-8.713429807e-13
-5.094532543e-13
9.497825146e-06
-3.144925152e-12
-3.567767297e-12
9.497823192e-06
-2.930997787e-12
-2.378878673e-12
9.497824664e-06
-6.635577754e-12
-1.041962274e-11
9.497824297e-06
-1.168908276e-11
-4.933139365e-12
9.49784056e-06
-3.978070034e-11
-4.530029085e-11
9.497842841e-06
-5.608039643e-11
-4.704537559e-12
9.497982883e-06
-1.497964337e-10
-1.545832545e-10
-3.127249219e-10
-5.149626443e-10
9.497877642e-06
-1.380292258e-13
5.408922943e-14
9.497878374e-06
7.526809098e-13
3.488806254e-13
9.497877541e-06
1.810909748e-12
-5.227974472e-13
9.497876225e-06
7.051060324e-13
-8.071414451e-13
9.497875619e-06
1.411455673e-12
-5.369814646e-13
9.497874912e-06
1.988952941e-12
-2.068257662e-12
9.497875993e-06
2.16686249e-12
-1.837943566e-12
9.497869791e-06
3.106545721e-12
-4.667712411e-12
9.497862573e-06
4.61065918e-12
-5.278466469e-12
9.49784828e-06
1.086514649e-11
-2.174557542e-11
9.497821854e-06
1.381025914e-11
-1.800798714e-11
9.497791447e-06
3.967120231e-11
-1.301210864e-10
9.497689471e-06
5.732948454e-11
-8.923073751e-11
9.497998648e-06
1.504027323e-10
-9.278762103e-10
3.129190014e-10
-2.261871961e-09
9.497849661e-06
-3.460800157e-13
-7.587076854e-13
9.497848491e-06
-1.11518117e-12
-5.061111315e-13
9.497846733e-06
-7.670750035e-13
-1.144613932e-12
9.497848237e-06
1.115268597e-12
-9.831021005e-13
9.497848562e-06
1.376160251e-12
-3.565744133e-13
9.497848338e-06
2.254586037e-12
-1.06593241e-12
9.497847548e-06
2.24823303e-12
-1.953926721e-12
9.497844582e-06
3.201140254e-12
-4.015569847e-12
9.497843406e-06
2.865283553e-12
-3.336574331e-12
9.497841589e-06
9.140485244e-12
-1.19255404e-11
9.497843952e-06
9.575354351e-12
-5.562289355e-12
9.497860573e-06
3.174948891e-11
-4.59204964e-11
9.497864188e-06
3.470287247e-11
-5.062947257e-12
9.498003503e-06
9.600771074e-11
-1.540393726e-10
2.916483566e-10
-5.126772906e-10
9.497823167e-06
-3.569959441e-13
-4.856188101e-13
9.49782266e-06
-1.02342205e-12
-8.06375443e-13
9.497822148e-06
-1.869841576e-12
-1.979520821e-12
9.497821828e-06
-1.195505521e-12
-3.232608625e-12
9.497822856e-06
-1.257698526e-12
-8.433382e-13
9.497823428e-06
1.173297864e-13
-1.9324845e-12
9.49782235e-06
1.77110681e-12
-3.745579619e-12
9.497822329e-06
2.070906355e-12
-4.892237478e-12
9.497821038e-06
3.616716302e-12
-3.639433906e-12
9.497817462e-06
8.38945068e-12
-8.872962568e-12
9.497815893e-06
1.069805387e-11
-8.548025962e-12
9.497827722e-06
2.777803596e-11
-3.307965697e-11
9.497827494e-06
3.618817099e-11
-3.583782358e-11
9.497906003e-06
5.895996664e-11
-9.607846374e-11
1.703530504e-10
-2.909722061e-10
9.497779075e-06
3.832460745e-13
-3.346774238e-13
9.497779414e-06
1.210415293e-12
3.369015585e-13
9.497780237e-06
1.101290145e-12
-1.070030218e-13
9.497780998e-06
1.253936342e-12
-7.952006409e-13
9.497780918e-06
1.303949161e-12
-1.019898636e-13
9.497781318e-06
1.68145267e-13
-1.191945561e-12
9.497780565e-06
8.357229534e-13
-3.163993736e-12
9.497783533e-06
2.801973886e-12
-2.224659983e-12
9.497783197e-06
3.648700869e-12
-3.677725363e-12
9.497787469e-06
3.785359626e-12
-6.240355659e-12
9.497792064e-06
7.092081259e-12
-7.38103614e-12
9.497806631e-06
1.388712001e-11
-1.566546459e-11
9.497822339e-06
1.948760227e-11
-2.103075224e-11
9.49786153e-06
2.484365751e-11
-2.911470254e-11
7.602132061e-11
-9.691506233e-11
9.497878719e-06
-1.371250511e-12
9.497876677e-06
-2.070725583e-13
9.497878712e-06
-2.239076753e-13
9.497879235e-06
-1.407630313e-12
9.497878806e-06
-2.387587479e-12
9.497880338e-06
-1.204482598e-12
9.497879347e-06
-1.7773715e-12
9.497881041e-06
-1.539464678e-12
9.497882002e-06
-4.080397374e-12
9.497888865e-06
-4.808285856e-12
9.497892462e-06
-8.045250591e-12
9.497907044e-06
-1.097675312e-11
9.497927828e-06
-1.723138873e-11
9.497953016e-06
-1.946254917e-11
-5.236144239e-11
9.497808436e-06
4.99857794e-13
4.515465962e-13
9.497805893e-06
-7.223483702e-13
-5.319741909e-13
9.497806463e-06
-6.647107649e-13
-3.483981403e-13
9.497806395e-06
1.23673518e-12
1.024812593e-12
9.497807335e-06
-2.460890772e-13
1.615902808e-12
9.497804188e-06
-9.435078025e-13
-1.003546115e-14
9.497808162e-06
5.186522066e-13
7.641008275e-13
9.497810189e-06
8.049428082e-14
-1.410224433e-14
9.49780999e-06
-1.297170123e-12
-1.139121573e-12
9.49781487e-06
-5.882956071e-12
-2.459825165e-12
9.497819529e-06
-5.328469215e-12
-5.602261734e-12
9.497838697e-06
-1.494949343e-11
-1.129683441e-11
9.497855884e-06
-1.445310668e-11
-2.003860438e-11
-2.470071522e-11
-2.852407236e-11
9.497786203e-06
-1.635510798e-13
-1.605072894e-13
9.497787431e-06
-1.070999569e-12
-5.405700071e-13
9.497787935e-06
-4.555485051e-13
6.328116172e-13
9.497788009e-06
-6.975156234e-13
-4.40329727e-13
9.497786868e-06
-4.542610613e-13
2.131459362e-13
9.497786434e-06
-8.904745767e-13
-4.477734055e-13
9.49778844e-06
-2.721530198e-12
-6.07502582e-13
9.497789949e-06
-3.806050743e-12
-2.286395296e-12
9.497790673e-06
-5.420625013e-12
-2.56607316e-12
9.497794668e-06
-1.225108373e-11
-5.458625896e-12
9.497798201e-06
-1.047064416e-11
-7.991408596e-12
9.49781979e-06
-3.377412256e-11
-1.835208472e-11
9.497834878e-06
-2.471421549e-11
-2.983835857e-11
-6.687729984e-11
-5.089917045e-11
9.497845742e-06
8.172395305e-14
4.377877998e-13
9.497844569e-06
-1.220271599e-13
-1.004894953e-12
9.497843017e-06
3.064762321e-14
-7.911014595e-13
9.497844435e-06
6.512607041e-13
-1.305032114e-14
9.497844271e-06
9.820891182e-13
2.195741576e-13
9.497842791e-06
-1.878122287e-12
-5.512617099e-13
9.497843743e-06
-6.626156429e-13
-9.897208296e-13
9.49784097e-06
-2.11234175e-12
-2.173981511e-12
9.497839097e-06
-2.858789629e-12
-3.716086971e-12
9.497839317e-06
-1.078728108e-11
-8.549225712e-12
9.497839895e-06
-4.218106088e-12
-1.261795731e-11
9.497856136e-06
-4.437982653e-11
-3.949766169e-11
9.49785916e-06
-3.627443252e-12
-5.618473154e-11
-1.556127078e-10
-1.476390455e-10
9.497821679e-06
1.123710625e-12
1.476675154e-12
9.497822093e-06
7.253001772e-13
1.614126793e-13
9.497821297e-06
1.579525804e-14
-1.053632999e-12
9.497820649e-06
-6.002610984e-13
-1.030740391e-12
9.497818371e-06
-7.697053945e-13
-7.567302618e-13
9.497819703e-06
-1.349754632e-12
-9.102647905e-13
9.497819078e-06
-1.733376559e-12
-1.640310028e-12
9.497815251e-06
-3.3699503e-12
-4.689241871e-12
9.497815327e-06
-4.104980595e-12
-4.234960143e-12
9.497816737e-06
-1.287445621e-11
-1.336614265e-11
9.497837703e-06
-1.635919261e-11
-1.598311476e-11
9.497878961e-06
-6.700589752e-11
-6.649289932e-11
9.498002119e-06
-6.509922272e-11
-6.552206554e-11
9.498241129e-06
-2.72235077e-10
-2.714585688e-10
-5.069729634e-10
9.497767539e-06
-5.132017268e-13
-1.507858314e-12
9.497767494e-06
8.624177826e-13
-1.489151881e-12
9.497768635e-06
9.85221109e-14
-1.900819094e-12
9.497768667e-06
-1.233050371e-13
-1.593463912e-12
9.497765972e-06
7.927328802e-13
-1.748132784e-12
9.497766926e-06
2.89153634e-12
3.482258942e-13
9.497763382e-06
1.415517928e-12
-2.927339942e-12
9.497755379e-06
2.764047209e-12
-5.288706899e-12
9.497747628e-06
4.615850369e-12
-6.200553778e-12
9.497724358e-06
1.452814039e-11
-2.269888993e-11
9.497707043e-06
1.689622499e-11
-3.458605979e-11
9.497629234e-06
6.653046853e-11
-1.807619687e-10
9.497695023e-06
6.462787545e-11
-2.852523251e-10
9.498351658e-06
2.724186101e-10
-2.123343231e-09
5.07557491e-10
-3.903165048e-09
9.497863675e-06
-3.628415067e-14
-1.380034859e-12
9.497860195e-06
-6.240655205e-13
-9.08023177e-13
9.4978599e-06
-1.353693569e-12
-1.257035115e-12
9.497861063e-06
-1.064065923e-13
-1.126611897e-12
9.497859338e-06
1.511027313e-12
-2.561018271e-13
9.497858921e-06
1.381101454e-12
-1.42120906e-12
9.497858317e-06
1.025488721e-12
-8.251375222e-13
9.497857291e-06
2.269425242e-12
-4.173132955e-12
9.497859618e-06
2.737061933e-12
-4.984315122e-12
9.497859252e-06
1.222828937e-11
-1.206333894e-11
9.497878048e-06
5.483648998e-12
-1.627987085e-11
9.497922598e-06
4.404132419e-11
-6.489199652e-11
9.498043166e-06
3.052048015e-12
-6.421044875e-11
9.498279841e-06
1.543370725e-10
-2.708330567e-10
5.128079665e-10
-5.055161345e-10
9.497813403e-06
-1.467781974e-13
-7.042436615e-13
9.497813287e-06
-2.244792253e-13
-7.048536929e-13
9.497814752e-06
6.207023439e-14
1.2362613e-12
9.497814789e-06
5.775253965e-13
1.913673286e-13
9.497813801e-06
-2.378144009e-13
-4.660755134e-13
9.497811096e-06
-3.524033164e-13
-2.076948101e-12
9.497811798e-06
1.864643032e-12
-2.22026574e-12
9.497812393e-06
4.949670323e-12
-3.085452249e-12
9.497812057e-06
4.116413977e-12
-3.699146918e-12
9.497808042e-06
9.979748924e-12
-8.930844292e-12
9.497807031e-06
8.637265404e-12
-1.25430734e-11
9.497825825e-06
3.520332946e-11
-3.753063348e-11
9.497830874e-06
2.419692101e-11
-5.457955765e-11
9.497968905e-06
6.815131357e-11
-1.491323301e-10
2.464618324e-10
-3.121595241e-10
9.49789461e-06
-2.184341743e-13
1.883144027e-13
9.497893854e-06
1.084805275e-12
-5.092550862e-13
9.497893674e-06
1.240232261e-12
3.511563914e-13
9.49789447e-06
1.140829042e-12
-5.061711633e-13
9.497893614e-06
-1.377062642e-13
-2.395168483e-13
9.497894636e-06
8.091970659e-13
-1.012271413e-12
9.497893419e-06
9.581326718e-13
-2.057406181e-12
9.497892473e-06
2.11871372e-12
-2.643203915e-12
9.497893707e-06
2.240583931e-12
-3.66801454e-12
9.497895634e-06
5.472846538e-12
-4.679695732e-12
9.497900729e-06
6.065453361e-12
-6.237480525e-12
9.497920504e-06
1.699948904e-11
-1.811528586e-11
9.497937556e-06
1.708142954e-11
-2.731502135e-11
9.497996342e-06
2.581570872e-11
-5.174321768e-11
1.059386253e-10
-1.012203451e-10
9.497847637e-06
6.229669136e-14
9.497845733e-06
4.529675895e-13
9.497845362e-06
1.147365731e-12
9.497846894e-06
-9.373986371e-13
9.497849084e-06
-1.474527673e-12
9.49784843e-06
-1.819256702e-12
9.497849007e-06
-2.431182663e-12
9.497849696e-06
-2.860401948e-12
9.497852453e-06
-2.354089145e-12
9.497855929e-06
-3.316530092e-12
9.497863555e-06
-5.020277509e-12
9.49787647e-06
-1.124553311e-11
9.497895657e-06
-1.921933908e-11
9.497928319e-06
-2.844227795e-11
-5.21909165e-11
9.497821555e-06
-4.784736865e-13
4.655286209e-13
9.497821503e-06
-8.622816242e-13
8.420355988e-13
9.497822539e-06
-2.700170813e-13
-4.965618584e-13
9.497823303e-06
-1.716409642e-12
-1.14151095e-12
9.497821857e-06
-2.238273417e-12
-1.241998191e-12
9.497822394e-06
-1.500919546e-12
7.227810466e-13
9.497824674e-06
-4.356227619e-13
2.730043006e-12
9.497823009e-06
-2.154561037e-12
1.372770265e-12
9.497823405e-06
-3.584087202e-12
3.063318521e-12
9.497825217e-06
-9.730788654e-12
3.605953406e-12
9.497824046e-06
-1.073350799e-11
5.381202968e-12
9.497834102e-06
-3.266764652e-11
1.098552538e-11
9.497837898e-06
-4.165048795e-11
1.927355189e-11
-1.048803587e-10
2.745498021e-11
9.497851091e-06
7.906051603e-13
5.233694593e-13
9.497852293e-06
-1.004448959e-12
1.340726608e-12
9.497849807e-06
-1.141877225e-12
4.329284052e-13
9.497851671e-06
-2.511422661e-13
6.535911763e-13
9.497850625e-06
-3.606540792e-13
1.294903154e-13
9.497852238e-06
-4.708786114e-13
3.780285144e-13
9.497850998e-06
-1.391578834e-12
1.346203101e-12
9.497851086e-06
-4.831049709e-12
2.248599609e-12
9.497847669e-06
-6.746220141e-12
3.182408419e-12
9.497845666e-06
-1.837385606e-11
6.385010093e-12
9.497837244e-06
-1.960154247e-11
8.587066998e-12
9.497843902e-06
-7.99569464e-11
1.758253912e-11
9.497825578e-06
-7.965242944e-11
2.715592148e-11
-3.217182513e-10
4.964116851e-11
9.497836655e-06
1.008148987e-12
-3.845017442e-13
9.497840578e-06
1.222000572e-12
3.79819042e-14
9.497838067e-06
-9.886864409e-13
2.56387921e-13
9.497836752e-06
7.411248865e-14
7.62467308e-14
9.497835602e-06
-1.482203502e-13
-8.556679267e-13
9.497835258e-06
-1.301653815e-12
5.657518438e-14
9.497834154e-06
-2.295088433e-12
9.395684866e-13
9.497827254e-06
-5.717322305e-12
2.631125176e-12
9.497820765e-06
-4.466800916e-12
3.464970074e-12
9.497808358e-06
-2.018714859e-11
9.259393494e-12
9.497781682e-06
-1.668299067e-11
1.291315882e-11
9.497750216e-06
-1.287049058e-10
3.87480857e-11
9.497648434e-06
-8.942846671e-11
5.569019474e-11
-9.285025655e-10
1.485130986e-10
9.497801218e-06
-8.867380594e-13
-4.249050826e-13
9.497800818e-06
-4.571921193e-14
3.497389662e-13
9.497805129e-06
6.80536863e-13
1.86319518e-12
9.497803789e-06
-8.654212032e-13
7.078579536e-13
9.497799695e-06
-5.462520147e-13
-7.342510035e-13
9.497798973e-06
-1.808957539e-13
5.327345624e-13
9.497795636e-06
-2.742092657e-12
7.918903125e-13
9.497790912e-06
-3.62084662e-12
1.617963186e-12
9.497781595e-06
-6.061639696e-12
2.491113193e-12
9.497757848e-06
-2.21542696e-11
1.233468794e-11
9.497739331e-06
-3.488225843e-11
1.511715394e-11
9.497662716e-06
-1.807692503e-10
6.652670767e-11
9.497731688e-06
-2.850195334e-10
6.488482084e-11
-2.124831086e-09
2.714477457e-10
9.497839213e-06
-1.136484634e-12
-6.777256578e-13
9.497837757e-06
1.519813616e-12
-6.653259124e-13
9.497838442e-06
1.943899487e-12
5.936066085e-13
9.497836939e-06
7.095875159e-13
9.199445106e-13
9.497835925e-06
1.076474023e-12
-4.908710764e-13
9.497832004e-06
6.876212926e-13
4.840526084e-13
9.497829153e-06
2.912635113e-12
1.042822574e-12
9.497814638e-06
4.357582841e-12
1.607004844e-12
9.497790294e-06
6.557823741e-12
3.720386222e-12
9.497703619e-06
2.467503675e-11
2.131016262e-11
9.49756797e-06
3.526762695e-11
3.403549661e-11
9.496837554e-06
1.826508413e-10
1.818202465e-10
9.495691743e-06
2.862918416e-10
2.85286156e-10
9.487192916e-06
2.124726836e-09
2.125427778e-09
3.905500922e-09
9.497828536e-06
6.730555299e-13
5.506252753e-13
9.497825123e-06
-3.445690586e-13
-7.113225353e-13
9.497824823e-06
9.090348452e-13
-1.564652966e-12
9.497826007e-06
-1.066390438e-13
7.238445613e-13
9.49782427e-06
4.946856008e-13
-1.287411297e-12
9.497823776e-06
8.375357494e-13
-1.649866286e-13
9.497819428e-06
1.331262359e-13
-1.623712096e-12
9.497815432e-06
3.986998948e-12
7.455747748e-13
9.497810052e-06
5.758277064e-12
1.931471744e-12
9.497782562e-06
2.134880682e-11
1.042666099e-11
9.497766375e-06
1.851836129e-11
1.620613944e-11
9.497690005e-06
1.298197806e-10
6.74020765e-11
9.497757685e-06
8.867687912e-11
6.503603976e-11
9.498414115e-06
9.271151466e-10
2.715462732e-10
2.260095519e-09
9.497815415e-06
8.166474067e-13
-1.110195947e-12
9.497816333e-06
-2.82549935e-13
-2.42427077e-12
9.497814103e-06
-1.985203456e-12
-1.804448899e-12
9.497816542e-06
-2.176767488e-13
-1.847608595e-13
9.497815188e-06
-1.011235447e-12
-6.581933812e-13
9.497814177e-06
8.069456877e-13
6.577060065e-14
9.497812588e-06
2.056537243e-12
7.257846473e-13
9.497809653e-06
6.389614152e-12
2.878525248e-12
9.497803402e-06
5.127696524e-12
3.919277637e-12
9.497785951e-06
1.656268946e-11
8.654849964e-12
9.497759658e-06
1.814026757e-11
1.268626807e-11