/*--------------------------------*- C++ -*----------------------------------*\
| =========                 |                                                 |
| \\      /  F ield         | OpenFOAM: The Open Source CFD Toolbox           |
|  \\    /   O peration     | Version:  4.x                                   |
|   \\  /    A nd           | Web:      www.OpenFOAM.org                      |
|    \\/     M anipulation  |                                                 |
\*---------------------------------------------------------------------------*/
FoamFile
{
    version     2.0;
    format      ascii;
    class       volScalarField;
    location    "9000";
    object      rho;
}
// * * * * * * * * * * * * * * * * * * * * * * * * * * * * * * * * * * * * * //

dimensions      [1 -3 0 0 0 0 0];

internalField   nonuniform List<scalar> 
1175
(
0.2797540025
0.2797540084
0.2797540033
0.2797540427
0.2797540643
0.2797540385
0.2797540345
0.2797540537
0.2797540729
0.2797540546
0.2797540596
0.2797540625
0.2797540754
0.279754155
0.2797542108
0.2797554046
0.2797553949
0.279755381
0.2797553606
0.2797553482
0.2797553262
0.279755311
0.2797553102
0.2797553006
0.279755295
0.2797552891
0.2797552831
0.279755353
0.2797554096
0.2797555328
0.2797546091
0.2797546053
0.2797546141
0.2797546395
0.2797546365
0.2797546479
0.2797546486
0.279754636
0.2797546071
0.2797546411
0.2797546315
0.2797546398
0.2797546982
0.2797548213
0.2797550784
0.2797544014
0.2797544067
0.2797543951
0.2797544045
0.2797543799
0.2797543754
0.2797543871
0.2797544075
0.2797543911
0.2797544186
0.2797544623
0.2797545013
0.2797545807
0.2797547653
0.2797552129
0.2797538361
0.2797538447
0.279753847
0.2797538579
0.2797538353
0.2797538692
0.2797538893
0.2797538806
0.2797538741
0.2797538766
0.2797538816
0.2797539324
0.279754027
0.2797543184
0.2797549429
0.2797540437
0.2797540434
0.2797540353
0.2797540505
0.2797540588
0.2797541157
0.2797540866
0.2797540775
0.2797540548
0.2797540381
0.2797540447
0.279754032
0.2797541202
0.2797543476
0.2797547816
0.279754623
0.2797546548
0.2797546286
0.2797546194
0.2797546587
0.279754657
0.2797547016
0.2797546951
0.2797547166
0.2797547104
0.2797546754
0.2797546605
0.2797546945
0.2797548085
0.2797551029
0.2797539457
0.2797539293
0.2797539401
0.2797539169
0.2797539384
0.2797539284
0.2797539263
0.2797539383
0.279753916
0.2797539155
0.2797539331
0.2797539535
0.2797539666
0.2797540313
0.2797541531
0.2797538062
0.2797538122
0.2797537999
0.279753796
0.2797537854
0.2797538286
0.2797538299
0.2797538292
0.2797538582
0.2797538605
0.2797538339
0.2797538318
0.2797538706
0.2797539225
0.2797539866
0.2797550254
0.279755034
0.2797550288
0.2797550225
0.2797550305
0.2797550659
0.2797550656
0.2797550788
0.2797550356
0.2797550289
0.2797550435
0.2797550637
0.2797550772
0.2797551309
0.2797533185
0.2797532922
0.2797533135
0.2797533068
0.2797532773
0.2797532891
0.2797532579
0.2797532626
0.2797532414
0.279753309
0.2797532998
0.2797533168
0.2797533726
0.2797535248
0.2797537714
0.2797527561
0.2797527639
0.2797527605
0.2797527213
0.2797527196
0.2797527178
0.2797526882
0.2797527018
0.2797527231
0.2797527365
0.279752748
0.279752773
0.2797529221
0.2797532422
0.2797538176
0.2797543542
0.2797543609
0.2797543798
0.2797543644
0.2797543639
0.2797543667
0.2797543004
0.2797543423
0.2797543272
0.2797543184
0.2797543406
0.2797543923
0.2797546846
0.2797553083
0.2797565418
0.2797538309
0.2797537619
0.2797537988
0.2797538044
0.2797538055
0.2797537938
0.2797538124
0.2797538281
0.2797537915
0.2797538178
0.2797538508
0.2797539682
0.2797543089
0.2797552185
0.2797572688
0.2797551725
0.2797551956
0.2797551894
0.2797551776
0.279755204
0.2797552006
0.2797552211
0.2797552037
0.279755203
0.2797552326
0.2797552925
0.279755368
0.2797555967
0.2797562053
0.2797574466
0.2797529476
0.2797529413
0.2797530003
0.2797529848
0.2797529525
0.279752999
0.2797529865
0.2797529819
0.2797530243
0.2797530275
0.2797530774
0.2797531269
0.2797532619
0.2797535727
0.2797541437
0.2797555817
0.2797555768
0.2797555846
0.2797556056
0.279755628
0.2797556441
0.279755623
0.2797556707
0.2797556418
0.2797556286
0.2797556412
0.2797556691
0.2797557676
0.27975591
0.2797561385
0.27975275
0.2797527559
0.2797527379
0.2797527597
0.2797527293
0.2797527299
0.2797527148
0.2797527324
0.2797527198
0.2797526834
0.2797527012
0.2797527205
0.2797527517
0.279752815
0.2797529491
0.2797542701
0.2797542607
0.2797542331
0.2797542462
0.2797542143
0.279754218
0.2797542042
0.2797541638
0.2797541619
0.279754184
0.2797541714
0.2797541727
0.2797542033
0.2797543024
0.2797556981
0.2797556812
0.2797556521
0.2797556436
0.279755678
0.2797556913
0.279755746
0.2797557404
0.2797557342
0.2797557634
0.2797557364
0.2797557767
0.2797559239
0.2797562469
0.2797550085
0.2797549775
0.279754982
0.2797549772
0.2797549784
0.2797549671
0.2797549994
0.2797549245
0.2797549095
0.2797549403
0.2797550056
0.2797550988
0.279755415
0.2797562117
0.2797578623
0.279754218
0.2797542144
0.279754233
0.2797542348
0.2797542307
0.2797542318
0.2797542553
0.2797542832
0.2797542772
0.2797542651
0.2797543321
0.2797545058
0.2797551943
0.2797572284
0.2797616982
0.2797557134
0.2797557045
0.2797556258
0.2797556213
0.2797555976
0.2797556648
0.279755682
0.2797556909
0.2797556797
0.2797557247
0.2797557912
0.2797560997
0.2797572817
0.2797610636
0.2797704968
0.2797548716
0.2797548437
0.2797548173
0.2797547859
0.2797548121
0.2797548403
0.2797548103
0.2797547982
0.2797547849
0.2797548677
0.2797549064
0.2797551302
0.2797558399
0.2797579053
0.2797623574
0.27975402
0.279754063
0.2797540693
0.27975407
0.2797540652
0.2797540574
0.2797540968
0.2797540749
0.2797540609
0.2797540541
0.2797540826
0.2797541985
0.2797545243
0.2797553297
0.2797570101
0.279752769
0.2797527816
0.2797527947
0.2797528102
0.2797528041
0.2797528129
0.2797528075
0.2797527923
0.2797528201
0.279752809
0.2797528279
0.279752894
0.2797530094
0.2797532783
0.2797538917
0.2797556914
0.2797556867
0.2797556826
0.279755661
0.2797556727
0.2797556789
0.2797557038
0.2797556757
0.279755688
0.2797556754
0.2797557117
0.2797557234
0.2797557372
0.2797558769
0.2797561316
0.2797535546
0.2797535826
0.2797535871
0.2797535553
0.2797535576
0.2797535422
0.2797535556
0.279753553
0.2797535615
0.2797535784
0.2797535846
0.2797536229
0.2797537368
0.2797539842
0.2797529607
0.2797529845
0.2797529925
0.2797530039
0.2797530139
0.2797530086
0.2797530524
0.2797530512
0.2797530488
0.2797530823
0.2797530931
0.2797531712
0.2797534288
0.2797540215
0.2797547237
0.2797547287
0.2797547117
0.2797546817
0.2797546717
0.2797546831
0.2797546777
0.2797546543
0.2797546702
0.2797546892
0.279754773
0.2797549732
0.2797556504
0.2797577064
0.2797539796
0.2797539877
0.2797540088
0.2797540212
0.2797540224
0.2797540254
0.2797539988
0.279754009
0.2797540074
0.2797540353
0.2797541435
0.2797546578
0.2797565409
0.2797630984
0.2797798356
0.2797524166
0.2797524211
0.2797524279
0.2797524283
0.2797524655
0.2797524562
0.2797524563
0.2797524538
0.279752441
0.2797524653
0.279752652
0.2797534463
0.279757164
0.2797733041
0.2798296406
0.2797552063
0.2797552108
0.2797551713
0.2797551609
0.2797551607
0.2797551526
0.2797551888
0.27975521
0.2797552354
0.2797553237
0.2797554292
0.2797559127
0.2797577796
0.2797642375
0.2797809146
0.2797538422
0.2797538317
0.2797537859
0.2797537791
0.2797537626
0.2797537387
0.2797537175
0.2797536969
0.2797537271
0.2797537959
0.2797538521
0.2797540593
0.2797547608
0.2797567887
0.2797613261
0.2797561746
0.2797561927
0.2797561613
0.2797561754
0.2797561446
0.2797561028
0.2797560688
0.2797560677
0.2797560501
0.2797560219
0.2797560659
0.2797561527
0.2797563766
0.2797569868
0.279758207
0.2797547234
0.2797547397
0.2797547593
0.2797547275
0.2797547456
0.2797547417
0.2797547552
0.2797547868
0.279754784
0.2797548189
0.2797548403
0.2797548651
0.2797549333
0.2797551567
0.2797556235
0.2797540542
0.2797540295
0.2797539976
0.2797540531
0.2797540442
0.2797540839
0.2797540839
0.2797540676
0.2797540917
0.2797540986
0.279754145
0.2797541642
0.2797542707
0.2797545867
0.2797548596
0.2797548877
0.2797549131
0.2797549149
0.2797548952
0.279754914
0.2797549151
0.2797549082
0.2797548981
0.279754936
0.2797549482
0.2797550698
0.2797553968
0.2797563225
0.2797544704
0.2797544718
0.2797544443
0.279754482
0.2797545209
0.279754486
0.2797544619
0.2797544229
0.2797544241
0.2797544859
0.2797545549
0.2797548623
0.279755982
0.2797597584
0.2797534923
0.2797534727
0.2797534632
0.2797534384
0.2797534506
0.2797534474
0.2797534606
0.2797534754
0.2797534838
0.2797534833
0.2797536623
0.2797544176
0.2797581451
0.2797742828
0.2797545393
0.2797545208
0.2797545214
0.2797545396
0.2797544879
0.2797545181
0.2797545065
0.2797545192
0.279754517
0.2797545618
0.2797548073
0.2797563658
0.279765655
0.279826111
0.2810216216
0.2797541194
0.2797541347
0.2797541443
0.2797541309
0.2797541326
0.2797541417
0.2797541336
0.2797541534
0.279754182
0.2797542658
0.2797544345
0.2797552649
0.279758974
0.2797751268
0.2798314947
0.279753882
0.2797538592
0.2797538431
0.2797538732
0.2797538635
0.2797537814
0.2797538315
0.2797538569
0.2797538709
0.2797538692
0.2797539158
0.2797542364
0.2797553568
0.2797591184
0.2797685698
0.2797537187
0.2797536759
0.2797536532
0.2797536453
0.2797536398
0.279753631
0.2797536221
0.2797536036
0.2797536101
0.2797536489
0.2797537072
0.2797538189
0.279754128
0.2797551064
0.2797570707
0.2797525792
0.2797525778
0.279752574
0.2797525337
0.2797525484
0.2797525552
0.2797525694
0.2797525908
0.2797525952
0.2797526104
0.2797526111
0.2797526572
0.2797528044
0.2797531077
0.2797537321
0.2797538869
0.2797538907
0.2797538837
0.279753904
0.2797539214
0.27975391
0.2797538947
0.2797539014
0.2797539552
0.2797539187
0.279753941
0.2797539513
0.2797540317
0.2797542882
0.279754174
0.2797541524
0.2797541774
0.2797542147
0.2797541593
0.2797541697
0.2797542099
0.2797541514
0.2797541588
0.2797541631
0.279754176
0.2797542919
0.2797545267
0.2797551869
0.2797534412
0.2797534692
0.2797534408
0.2797534449
0.279753485
0.279753486
0.2797534627
0.2797534408
0.2797534703
0.2797534647
0.279753541
0.2797537048
0.2797544217
0.2797564743
0.279755736
0.2797556913
0.2797556753
0.2797556963
0.2797556947
0.2797557078
0.2797557211
0.2797557412
0.2797557512
0.2797557547
0.2797558438
0.2797563317
0.2797581861
0.2797647062
0.2797531949
0.279753202
0.2797531955
0.2797532106
0.279753199
0.2797531732
0.2797532239
0.2797532352
0.279753254
0.279753268
0.2797534354
0.2797542328
0.2797579611
0.2797741032
0.2797541122
0.2797540863
0.2797540418
0.279754059
0.2797540766
0.2797541177
0.2797541081
0.279754141
0.2797541281
0.2797541556
0.2797542662
0.2797547194
0.2797565989
0.2797631558
0.2797552108
0.2797552159
0.2797551995
0.2797552009
0.2797551883
0.2797552018
0.2797551334
0.2797551885
0.279755206
0.279755242
0.2797553154
0.2797554939
0.2797561736
0.279758204
0.2797627252
0.2797539405
0.2797539579
0.279753957
0.2797539227
0.2797538801
0.279753904
0.2797539239
0.2797538948
0.279753863
0.2797538803
0.2797539065
0.2797539432
0.2797541476
0.27975477
0.2797560027
0.2797537593
0.2797537695
0.2797537586
0.2797537462
0.2797537173
0.2797537073
0.2797536616
0.279753626
0.2797536365
0.2797536509
0.2797536827
0.2797537138
0.2797538073
0.2797540466
0.2797544844
0.2797541582
0.279754136
0.2797541295
0.2797541544
0.27975415
0.2797541166
0.2797541431
0.2797541389
0.2797541658
0.2797541438
0.2797541138
0.2797541524
0.2797541853
0.2797543061
0.2797531293
0.279753166
0.279753198
0.2797531907
0.279753173
0.2797531954
0.2797531978
0.279753204
0.2797532028
0.2797531797
0.2797532345
0.2797532439
0.2797533812
0.2797537008
0.2797542365
0.2797542604
0.2797542731
0.2797543195
0.2797543023
0.2797543148
0.2797543377
0.2797543495
0.2797543151
0.2797543128
0.2797543238
0.2797544373
0.2797547472
0.2797555895
0.2797540389
0.2797540344
0.279754041
0.2797540328
0.2797540362
0.2797540187
0.2797540342
0.2797539553
0.2797539849
0.2797540117
0.2797540569
0.2797542851
0.279754976
0.2797570272
0.2797547828
0.2797548077
0.2797548252
0.2797548415
0.2797548373
0.2797548599
0.2797548114
0.2797548052
0.2797548578
0.279754858
0.2797549629
0.2797552821
0.2797564377
0.2797602382
0.2797537788
0.2797537796
0.2797537883
0.2797537795
0.2797537726
0.2797537954
0.2797538465
0.2797538222
0.2797538334
0.2797538165
0.27975388
0.2797540885
0.2797547996
0.2797568806
0.2797536226
0.2797536566
0.2797536533
0.2797536627
0.2797536437
0.2797536392
0.2797536157
0.2797536334
0.2797536016
0.2797535776
0.2797535757
0.2797536771
0.2797539937
0.2797548004
0.2797550336
0.2797550256
0.2797549979
0.2797550286
0.2797550106
0.2797550422
0.2797550203
0.2797549832
0.2797549991
0.2797549956
0.2797550347
0.279755087
0.2797552455
0.2797555607
0.2797561618
0.2797553548
0.2797553531
0.2797553492
0.2797553256
0.2797552768
0.2797552836
0.2797552876
0.2797553031
0.2797552849
0.2797552532
0.2797552435
0.2797552401
0.2797552747
0.2797553822
0.2797556359
0.2797545768
0.2797545629
0.2797545598
0.279754558
0.2797545655
0.2797545592
0.2797545754
0.2797545723
0.279754556
0.2797545842
0.2797545502
0.2797545453
0.2797545681
0.2797546379
0.2797549754
0.2797549909
0.2797549494
0.2797549463
0.2797549764
0.2797549803
0.2797550308
0.2797550461
0.2797550459
0.2797550439
0.2797550206
0.2797550485
0.2797551008
0.2797552401
0.2797542191
0.2797542532
0.2797542307
0.2797542252
0.2797541957
0.279754208
0.2797542106
0.2797541799
0.2797541993
0.2797542299
0.2797542536
0.2797542786
0.2797543961
0.2797546976
0.2797544
0.2797543922
0.2797543606
0.2797543732
0.2797543746
0.2797543891
0.279754385
0.279754419
0.279754449
0.2797544346
0.2797544788
0.2797545516
0.279754817
0.2797554099
0.2797540904
0.2797540777
0.2797540623
0.2797540983
0.2797541184
0.2797541451
0.2797541629
0.2797541389
0.279754137
0.2797541366
0.2797541673
0.2797542748
0.2797546098
0.2797555308
0.2797553113
0.2797552816
0.2797553028
0.279755275
0.2797552809
0.2797552442
0.2797552041
0.2797551811
0.2797552259
0.2797552461
0.2797552649
0.2797553481
0.2797555962
0.2797562181
0.2797543112
0.2797543365
0.2797542863
0.2797543169
0.2797543523
0.2797543401
0.2797543663
0.2797543753
0.2797543765
0.2797543764
0.279754346
0.2797543881
0.2797544967
0.2797547864
0.2797549996
0.2797549808
0.2797550353
0.2797550459
0.2797550122
0.2797549588
0.2797549854
0.2797550158
0.2797550029
0.2797549949
0.2797550395
0.2797550633
0.279755136
0.2797552875
0.279753773
0.2797537505
0.2797537662
0.2797537426
0.2797537171
0.2797537871
0.2797537192
0.2797536891
0.2797537113
0.2797537128
0.2797537517
0.279753774
0.2797537908
0.2797538273
0.2797539714
0.2797540458
0.2797540493
0.2797540509
0.2797540449
0.2797540588
0.2797540417
0.2797540666
0.2797540832
0.2797540773
0.2797541029
0.2797541221
0.2797541469
0.2797541667
0.2797542261
0.2797545987
0.2797545941
0.2797545834
0.2797546147
0.2797545818
0.279754582
0.2797545938
0.2797545896
0.2797545769
0.2797545365
0.2797545879
0.2797545826
0.2797546474
0.2797546926
0.2797538749
0.279753863
0.2797538472
0.279753813
0.2797537979
0.279753767
0.2797537981
0.2797537621
0.2797537675
0.2797537925
0.2797538043
0.2797538087
0.2797538789
0.2797539886
0.2797564171
0.2797563917
0.2797564044
0.2797563956
0.2797563812
0.2797563545
0.2797563801
0.2797564303
0.2797564276
0.2797564376
0.2797564317
0.2797564322
0.2797565265
0.2797567445
0.2797549263
0.2797549068
0.2797549244
0.279754937
0.2797549379
0.2797549403
0.2797549488
0.2797549399
0.279754929
0.2797549497
0.2797549465
0.279755036
0.2797551497
0.2797554319
0.2797543649
0.2797544038
0.2797544187
0.2797544048
0.2797544088
0.2797544221
0.2797544004
0.2797543861
0.279754377
0.2797543705
0.2797543876
0.2797544178
0.2797545035
0.2797546944
0.2797542515
0.2797542186
0.2797542107
0.279754208
0.2797542364
0.2797542331
0.2797541981
0.279754238
0.2797542377
0.2797542457
0.2797542487
0.2797542997
0.2797543341
0.279754454
0.2797546134
0.279754573
0.2797545851
0.2797545996
0.2797546011
0.2797545892
0.2797546184
0.2797546318
0.2797546257
0.279754612
0.2797545797
0.2797545527
0.2797545826
0.2797546381
0.2797547984
0.2797548116
0.2797548012
0.2797547898
0.279754794
0.2797547681
0.2797547628
0.2797547617
0.2797547688
0.279754782
0.2797547915
0.2797548146
0.2797547995
0.279754836
)
;

boundaryField
{
    top
    {
        type            calculated;
        value           nonuniform List<scalar> 
134
(
0.2797538062
0.27975275
0.2797556914
0.2797547234
0.2797525792
0.2797537593
0.2797553548
0.279753773
0.2797547984
0.2797538122
0.2797527559
0.2797556867
0.2797547397
0.2797525778
0.2797537695
0.2797553531
0.2797537505
0.2797548116
0.2797537999
0.2797527379
0.2797556826
0.2797547593
0.279752574
0.2797537586
0.2797553492
0.2797537662
0.2797548012
0.279753796
0.2797527597
0.279755661
0.2797547275
0.2797525337
0.2797537462
0.2797553256
0.2797537426
0.2797547898
0.2797537854
0.2797527293
0.2797556727
0.2797547456
0.2797525484
0.2797537173
0.2797552768
0.2797537171
0.279754794
0.2797538286
0.2797527299
0.2797556789
0.2797547417
0.2797525552
0.2797537073
0.2797552836
0.2797537871
0.2797547681
0.2797538299
0.2797527148
0.2797557038
0.2797547552
0.2797525694
0.2797536616
0.2797552876
0.2797537192
0.2797547628
0.2797538292
0.2797527324
0.2797556757
0.2797547868
0.2797525908
0.279753626
0.2797553031
0.2797536891
0.2797547617
0.2797538582
0.2797527198
0.279755688
0.279754784
0.2797525952
0.2797536365
0.2797552849
0.2797537113
0.2797547688
0.2797538605
0.2797526834
0.2797556754
0.2797548189
0.2797526104
0.2797536509
0.2797552532
0.2797537128
0.279754782
0.2797538339
0.2797527012
0.2797557117
0.2797548403
0.2797526111
0.2797536827
0.2797552435
0.2797537517
0.2797547915
0.2797538318
0.2797527205
0.2797557234
0.2797548651
0.2797526572
0.2797537138
0.2797552401
0.279753774
0.2797548146
0.2797538706
0.2797527517
0.2797557372
0.2797549333
0.2797528044
0.2797538073
0.2797552747
0.2797537908
0.2797547995
0.2797539225
0.279752815
0.2797558769
0.2797551567
0.2797531077
0.2797540466
0.2797553822
0.2797538273
0.279754836
0.2797539866
0.2797529491
0.2797561316
0.2797556235
0.2797537321
0.2797544844
0.2797556359
0.2797539714
)
;
    }
    bottom
    {
        type            calculated;
        value           nonuniform List<scalar> 
127
(
0.2797540025
0.2797550254
0.2797542701
0.2797535546
0.2797540542
0.2797538869
0.2797541582
0.2797545768
0.2797540458
0.2797540084
0.279755034
0.2797542607
0.2797535826
0.2797540295
0.2797538907
0.279754136
0.2797545629
0.2797540493
0.2797540033
0.2797550288
0.2797542331
0.2797535871
0.2797539976
0.2797538837
0.2797541295
0.2797545598
0.2797540509
0.2797540427
0.2797550225
0.2797542462
0.2797535553
0.2797540531
0.279753904
0.2797541544
0.279754558
0.2797540449
0.2797540643
0.2797550305
0.2797542143
0.2797535576
0.2797540442
0.2797539214
0.27975415
0.2797545655
0.2797540588
0.2797540385
0.2797550659
0.279754218
0.2797535422
0.2797540839
0.27975391
0.2797541166
0.2797545592
0.2797540417
0.2797540345
0.2797550656
0.2797542042
0.2797535556
0.2797540839
0.2797538947
0.2797541431
0.2797545754
0.2797540666
0.2797540537
0.2797550788
0.2797541638
0.279753553
0.2797540676
0.2797539014
0.2797541389
0.2797545723
0.2797540832
0.2797540729
0.2797550356
0.2797541619
0.2797535615
0.2797540917
0.2797539552
0.2797541658
0.279754556
0.2797540773
0.2797540546
0.2797550289
0.279754184
0.2797535784
0.2797540986
0.2797539187
0.2797541438
0.2797545842
0.2797541029
0.2797540596
0.2797550435
0.2797541714
0.2797535846
0.279754145
0.279753941
0.2797541138
0.2797545502
0.2797541221
0.2797540625
0.2797550637
0.2797541727
0.2797536229
0.2797541642
0.2797539513
0.2797541524
0.2797545453
0.2797541469
0.2797540754
0.2797550772
0.2797542033
0.2797537368
0.2797542707
0.2797540317
0.2797541853
0.2797545681
0.2797541667
0.279754155
0.2797551309
0.2797543024
0.2797539842
0.2797545867
0.2797542882
0.2797543061
0.2797546379
0.2797542261
0.2797542108
)
;
    }
    side-walls
    {
        type            calculated;
        value           nonuniform List<scalar> 
261
(
0.2797540025
0.2797554046
0.2797546091
0.2797544014
0.2797538361
0.2797540437
0.279754623
0.2797539457
0.2797538062
0.2797540084
0.2797553949
0.2797546053
0.2797544067
0.2797538447
0.2797540434
0.2797546548
0.2797539293
0.2797538122
0.2797540033
0.279755381
0.2797546141
0.2797543951
0.279753847
0.2797540353
0.2797546286
0.2797539401
0.2797537999
0.2797540427
0.2797553606
0.2797546395
0.2797544045
0.2797538579
0.2797540505
0.2797546194
0.2797539169
0.279753796
0.2797540643
0.2797553482
0.2797546365
0.2797543799
0.2797538353
0.2797540588
0.2797546587
0.2797539384
0.2797537854
0.2797540385
0.2797553262
0.2797546479
0.2797543754
0.2797538692
0.2797541157
0.279754657
0.2797539284
0.2797538286
0.2797540345
0.279755311
0.2797546486
0.2797543871
0.2797538893
0.2797540866
0.2797547016
0.2797539263
0.2797538299
0.2797540537
0.2797553102
0.279754636
0.2797544075
0.2797538806
0.2797540775
0.2797546951
0.2797539383
0.2797538292
0.2797540729
0.2797553006
0.2797546071
0.2797543911
0.2797538741
0.2797540548
0.2797547166
0.279753916
0.2797538582
0.2797540546
0.279755295
0.2797546411
0.2797544186
0.2797538766
0.2797540381
0.2797547104
0.2797539155
0.2797538605
0.2797540596
0.2797552891
0.2797546315
0.2797544623
0.2797538816
0.2797540447
0.2797546754
0.2797539331
0.2797538339
0.2797540625
0.2797552831
0.2797546398
0.2797545013
0.2797539324
0.279754032
0.2797546605
0.2797539535
0.2797538318
0.2797540754
0.279755353
0.2797546982
0.2797545807
0.279754027
0.2797541202
0.2797546945
0.2797539666
0.2797538706
0.279754155
0.2797554096
0.2797548213
0.2797547653
0.2797543184
0.2797543476
0.2797548085
0.2797540313
0.2797539225
0.2797542108
0.2797555328
0.2797550784
0.2797552129
0.2797549429
0.2797547816
0.2797551029
0.2797541531
0.2797539866
0.2797540458
0.2797545987
0.2797538749
0.2797564171
0.2797549263
0.2797543649
0.2797542515
0.2797546134
0.2797547984
0.2797540493
0.2797545941
0.279753863
0.2797563917
0.2797549068
0.2797544038
0.2797542186
0.279754573
0.2797548116
0.2797540509
0.2797545834
0.2797538472
0.2797564044
0.2797549244
0.2797544187
0.2797542107
0.2797545851
0.2797548012
0.2797540449
0.2797546147
0.279753813
0.2797563956
0.279754937
0.2797544048
0.279754208
0.2797545996
0.2797547898
0.2797540588
0.2797545818
0.2797537979
0.2797563812
0.2797549379
0.2797544088
0.2797542364
0.2797546011
0.279754794
0.2797540417
0.279754582
0.279753767
0.2797563545
0.2797549403
0.2797544221
0.2797542331
0.2797545892
0.2797547681
0.2797540666
0.2797545938
0.2797537981
0.2797563801
0.2797549488
0.2797544004
0.2797541981
0.2797546184
0.2797547628
0.2797540832
0.2797545896
0.2797537621
0.2797564303
0.2797549399
0.2797543861
0.279754238
0.2797546318
0.2797547617
0.2797540773
0.2797545769
0.2797537675
0.2797564276
0.279754929
0.279754377
0.2797542377
0.2797546257
0.2797547688
0.2797541029
0.2797545365
0.2797537925
0.2797564376
0.2797549497
0.2797543705
0.2797542457
0.279754612
0.279754782
0.2797541221
0.2797545879
0.2797538043
0.2797564317
0.2797549465
0.2797543876
0.2797542487
0.2797545797
0.2797547915
0.2797541469
0.2797545826
0.2797538087
0.2797564322
0.279755036
0.2797544178
0.2797542997
0.2797545527
0.2797548146
0.2797541667
0.2797546474
0.2797538789
0.2797565265
0.2797551497
0.2797545035
0.2797543341
0.2797545826
0.2797547995
0.2797542261
0.2797546926
0.2797539886
0.2797567445
0.2797554319
0.2797546944
0.279754454
0.2797546381
0.279754836
)
;
    }
    inlet
    {
        type            calculated;
        value           nonuniform List<scalar> 
81
(
0.2797540025
0.2797554046
0.2797546091
0.2797544014
0.2797538361
0.2797540437
0.279754623
0.2797539457
0.2797538062
0.2797550254
0.2797533185
0.2797527561
0.2797543542
0.2797538309
0.2797551725
0.2797529476
0.2797555817
0.27975275
0.2797542701
0.2797556981
0.2797550085
0.279754218
0.2797557134
0.2797548716
0.27975402
0.279752769
0.2797556914
0.2797535546
0.2797529607
0.2797547237
0.2797539796
0.2797524166
0.2797552063
0.2797538422
0.2797561746
0.2797547234
0.2797540542
0.2797548596
0.2797544704
0.2797534923
0.2797545393
0.2797541194
0.279753882
0.2797537187
0.2797525792
0.2797538869
0.279754174
0.2797534412
0.279755736
0.2797531949
0.2797541122
0.2797552108
0.2797539405
0.2797537593
0.2797541582
0.2797531293
0.2797542365
0.2797540389
0.2797547828
0.2797537788
0.2797536226
0.2797550336
0.2797553548
0.2797545768
0.2797549754
0.2797542191
0.2797544
0.2797540904
0.2797553113
0.2797543112
0.2797549996
0.279753773
0.2797540458
0.2797545987
0.2797538749
0.2797564171
0.2797549263
0.2797543649
0.2797542515
0.2797546134
0.2797547984
)
;
    }
    outlet
    {
        type            calculated;
        value           nonuniform 0();
    }
    procBoundary0to1
    {
        type            processor;
        value           nonuniform List<scalar> 
97
(
0.2797543744
0.2797552664
0.2797557381
0.2797554733
0.2797559338
0.2797558472
0.2797554993
0.2797555636
0.2797544002
0.2797541166
0.2797552664
0.2797552664
0.2797541764
0.2797568765
0.2797547232
0.2797582706
0.2797596678
0.2797591018
0.2797550142
0.279756549
0.2797531693
0.2797545327
0.2797568765
0.2797568765
0.279760152
0.2797621815
0.2797666015
0.279777523
0.2797672059
0.2797592963
0.2797547516
0.279756492
0.2797544431
0.2797552935
0.2797621815
0.2797621815
0.2797911726
0.279830667
0.2798383377
0.2797922638
0.2797662145
0.2797599328
0.279756331
0.2797551846
0.2797583045
0.2797691638
0.279830667
0.279830667
0.2808175748
0.2798304928
0.279840152
0.2797798256
0.2797756129
0.2797594601
0.2797545931
0.2797547336
0.2797564569
0.2797609393
0.2797814011
0.2798304928
0.2797798256
0.2797798256
0.2797676317
0.2797564833
0.2797576714
0.2797551499
0.2797545654
0.2797543314
0.2797572635
0.2797615515
0.2797696523
0.2797613153
0.2797564833
0.2797564833
0.2797570648
0.2797555099
0.2797560562
0.2797547732
0.2797554497
0.279755299
0.2797566683
0.279757511
0.279757518
0.27975541
0.2797555099
0.2797555099
0.2797541928
0.2797549029
0.2797542763
0.2797548457
0.2797542221
0.2797572322
0.2797560407
0.2797551914
0.2797547555
0.2797547698
0.2797549029
)
;
    }
}


// ************************************************************************* //
