/*--------------------------------*- C++ -*----------------------------------*\
| =========                 |                                                 |
| \\      /  F ield         | OpenFOAM: The Open Source CFD Toolbox           |
|  \\    /   O peration     | Version:  4.x                                   |
|   \\  /    A nd           | Web:      www.OpenFOAM.org                      |
|    \\/     M anipulation  |                                                 |
\*---------------------------------------------------------------------------*/
FoamFile
{
    version     2.0;
    format      ascii;
    class       volScalarField;
    location    "9000";
    object      T;
}
// * * * * * * * * * * * * * * * * * * * * * * * * * * * * * * * * * * * * * //

dimensions      [0 0 0 1 0 0 0];

internalField   nonuniform List<scalar> 
1175
(
1223.151458
1223.151433
1223.151455
1223.151283
1223.151189
1223.151301
1223.151319
1223.151235
1223.151153
1223.151237
1223.151226
1223.151244
1223.151263
1223.151082
1223.151165
1223.145328
1223.145371
1223.145431
1223.145521
1223.145575
1223.145671
1223.145737
1223.145741
1223.145786
1223.145816
1223.14586
1223.145937
1223.145759
1223.1458
1223.145831
1223.148806
1223.148823
1223.148784
1223.148673
1223.148687
1223.148637
1223.148634
1223.14869
1223.148819
1223.148681
1223.148754
1223.14881
1223.148797
1223.148824
1223.148815
1223.149714
1223.149691
1223.149742
1223.149701
1223.149808
1223.149828
1223.149777
1223.149689
1223.149765
1223.14966
1223.149518
1223.149495
1223.149556
1223.149731
1223.149728
1223.152186
1223.152148
1223.152138
1223.15209
1223.152189
1223.152041
1223.151954
1223.151993
1223.152027
1223.152034
1223.15207
1223.152032
1223.152138
1223.152159
1223.152038
1223.151278
1223.151279
1223.151314
1223.151248
1223.151212
1223.150964
1223.151092
1223.151133
1223.151236
1223.151324
1223.151344
1223.151547
1223.151569
1223.151557
1223.151614
1223.148745
1223.148606
1223.148721
1223.148761
1223.148589
1223.148597
1223.148403
1223.148432
1223.148341
1223.148378
1223.148563
1223.148719
1223.148813
1223.148879
1223.148708
1223.151707
1223.151778
1223.151731
1223.151832
1223.151739
1223.151782
1223.151792
1223.15174
1223.151839
1223.151848
1223.151789
1223.151751
1223.151821
1223.151827
1223.151863
1223.152316
1223.152291
1223.152344
1223.152361
1223.152407
1223.152219
1223.152213
1223.152217
1223.152092
1223.152086
1223.152213
1223.152253
1223.152159
1223.152098
1223.152145
1223.146986
1223.146948
1223.146971
1223.146998
1223.146963
1223.146809
1223.14681
1223.146753
1223.146944
1223.14698
1223.146934
1223.146896
1223.146965
1223.147019
1223.154449
1223.154564
1223.154471
1223.1545
1223.154629
1223.154578
1223.154714
1223.154694
1223.15479
1223.154505
1223.154576
1223.154594
1223.154594
1223.154502
1223.154557
1223.156908
1223.156874
1223.156889
1223.15706
1223.157067
1223.157075
1223.157205
1223.157147
1223.157059
1223.157019
1223.157029
1223.157107
1223.156989
1223.156899
1223.157001
1223.14992
1223.149891
1223.149809
1223.149876
1223.149878
1223.149866
1223.150156
1223.149975
1223.150049
1223.150116
1223.15012
1223.150233
1223.14998
1223.149934
1223.150031
1223.152208
1223.15251
1223.152348
1223.152324
1223.15232
1223.152371
1223.15229
1223.152224
1223.152393
1223.152313
1223.152298
1223.152236
1223.152199
1223.152282
1223.152019
1223.146343
1223.146242
1223.146269
1223.14632
1223.146205
1223.14622
1223.146131
1223.146209
1223.14622
1223.146119
1223.145959
1223.145967
1223.145993
1223.146012
1223.146075
1223.15607
1223.156098
1223.15584
1223.155908
1223.156049
1223.155846
1223.155901
1223.155923
1223.155742
1223.155746
1223.155589
1223.155561
1223.155504
1223.155454
1223.155575
1223.144554
1223.144575
1223.144541
1223.144449
1223.144352
1223.144281
1223.144373
1223.144166
1223.144295
1223.144363
1223.144339
1223.144309
1223.144124
1223.144074
1223.144207
1223.156935
1223.156909
1223.156987
1223.156892
1223.157025
1223.157023
1223.157089
1223.157013
1223.15707
1223.157235
1223.157175
1223.157141
1223.157132
1223.157144
1223.157127
1223.150289
1223.15033
1223.15045
1223.150393
1223.150532
1223.150516
1223.150577
1223.150754
1223.150766
1223.150679
1223.150766
1223.150852
1223.150961
1223.151092
1223.144045
1223.144119
1223.144245
1223.144283
1223.144133
1223.144075
1223.143836
1223.143862
1223.143894
1223.143785
1223.143963
1223.143975
1223.143864
1223.143762
1223.14706
1223.147195
1223.147176
1223.147197
1223.147192
1223.147241
1223.147101
1223.14743
1223.147505
1223.147406
1223.14725
1223.147281
1223.147251
1223.147354
1223.147512
1223.150516
1223.150532
1223.150451
1223.150443
1223.15046
1223.150456
1223.150354
1223.150236
1223.150277
1223.150391
1223.150339
1223.150471
1223.150509
1223.150571
1223.150679
1223.143978
1223.144017
1223.14436
1223.14438
1223.144484
1223.144191
1223.144116
1223.144082
1223.144149
1223.144032
1223.144068
1223.144033
1223.143829
1223.143857
1223.143852
1223.147659
1223.147781
1223.147896
1223.148033
1223.147919
1223.147796
1223.147928
1223.147984
1223.148057
1223.147757
1223.147827
1223.147742
1223.147686
1223.147611
1223.147796
1223.151382
1223.151194
1223.151167
1223.151163
1223.151184
1223.151219
1223.151047
1223.151145
1223.151216
1223.151281
1223.151286
1223.151217
1223.151146
1223.15121
1223.151237
1223.156852
1223.156797
1223.156739
1223.156671
1223.156698
1223.15666
1223.156684
1223.156751
1223.156635
1223.156702
1223.156679
1223.156579
1223.156607
1223.156741
1223.156677
1223.144074
1223.144095
1223.144113
1223.144207
1223.144156
1223.144129
1223.144021
1223.144144
1223.144093
1223.144159
1223.144032
1223.144073
1223.144254
1223.144208
1223.144211
1223.153416
1223.153294
1223.153275
1223.153413
1223.153403
1223.153471
1223.153413
1223.153425
1223.153392
1223.153334
1223.153355
1223.153336
1223.153246
1223.153146
1223.156013
1223.155909
1223.155874
1223.155824
1223.155781
1223.155804
1223.155613
1223.155621
1223.155639
1223.155521
1223.155575
1223.155572
1223.155472
1223.155561
1223.148305
1223.148283
1223.148358
1223.148488
1223.148532
1223.148483
1223.148508
1223.148613
1223.148559
1223.148537
1223.148411
1223.148428
1223.148515
1223.148482
1223.151558
1223.151523
1223.151431
1223.151377
1223.151371
1223.151359
1223.151476
1223.151438
1223.15147
1223.151462
1223.151483
1223.151315
1223.151307
1223.151214
1223.151131
1223.158392
1223.158372
1223.158343
1223.158341
1223.158178
1223.158219
1223.158221
1223.158239
1223.158328
1223.158376
1223.158293
1223.158295
1223.158232
1223.158305
1223.15731
1223.146195
1223.146175
1223.146348
1223.146393
1223.146394
1223.14643
1223.146273
1223.146186
1223.146101
1223.145829
1223.145862
1223.145828
1223.145891
1223.146232
1223.146404
1223.152159
1223.152205
1223.152405
1223.152435
1223.152507
1223.152612
1223.152705
1223.152799
1223.152682
1223.152443
1223.152437
1223.152423
1223.152404
1223.152492
1223.152305
1223.141962
1223.141883
1223.14202
1223.141958
1223.142093
1223.142275
1223.142424
1223.142431
1223.142516
1223.142668
1223.142577
1223.142536
1223.142583
1223.142596
1223.14275
1223.148307
1223.148235
1223.14815
1223.148288
1223.148209
1223.148226
1223.148168
1223.148031
1223.148047
1223.14791
1223.147865
1223.147905
1223.148014
1223.148019
1223.147933
1223.151232
1223.15134
1223.151479
1223.151237
1223.151276
1223.151103
1223.151103
1223.151175
1223.151075
1223.151063
1223.150919
1223.151018
1223.151073
1223.150987
1223.14771
1223.147588
1223.147477
1223.147469
1223.147555
1223.147473
1223.147469
1223.147501
1223.147554
1223.147424
1223.1475
1223.147419
1223.147443
1223.147457
1223.149412
1223.149406
1223.149526
1223.149362
1223.149192
1223.149345
1223.149451
1223.149625
1223.149639
1223.149448
1223.149473
1223.149443
1223.149512
1223.149566
1223.153689
1223.153775
1223.153816
1223.153924
1223.153871
1223.153886
1223.15383
1223.153772
1223.153768
1223.153925
1223.153876
1223.154048
1223.153943
1223.154037
1223.149111
1223.149192
1223.14919
1223.14911
1223.149336
1223.149204
1223.149257
1223.149211
1223.149264
1223.14929
1223.149404
1223.149312
1223.14937
1223.149811
1219.803515
1223.150947
1223.15088
1223.150839
1223.150897
1223.150889
1223.15085
1223.150887
1223.150807
1223.150715
1223.150504
1223.150499
1223.150344
1223.150318
1223.150338
1223.149207
1223.151986
1223.152085
1223.152155
1223.152024
1223.152066
1223.152425
1223.152207
1223.1521
1223.152058
1223.152144
1223.152267
1223.15218
1223.152245
1223.152362
1223.152278
1223.1527
1223.152886
1223.152986
1223.15302
1223.153044
1223.153082
1223.153122
1223.153205
1223.153186
1223.153052
1223.152926
1223.152888
1223.152989
1223.152772
1223.152885
1223.157681
1223.157687
1223.157704
1223.15788
1223.157816
1223.157786
1223.157724
1223.157632
1223.157618
1223.15757
1223.157625
1223.157606
1223.157484
1223.157452
1223.157332
1223.151964
1223.151947
1223.151977
1223.151889
1223.151813
1223.151863
1223.15193
1223.151902
1223.151672
1223.151846
1223.151797
1223.1519
1223.151956
1223.151817
1223.150708
1223.150803
1223.150693
1223.150531
1223.150772
1223.150727
1223.150552
1223.15081
1223.150785
1223.150795
1223.15084
1223.150672
1223.150671
1223.150466
1223.153912
1223.15379
1223.153914
1223.153896
1223.153721
1223.153717
1223.15382
1223.153919
1223.153805
1223.153891
1223.153797
1223.153973
1223.153887
1223.153869
1223.14388
1223.144074
1223.144144
1223.144052
1223.14406
1223.144003
1223.143946
1223.143864
1223.143846
1223.143944
1223.144049
1223.143997
1223.144115
1223.144188
1223.154989
1223.154958
1223.154987
1223.154921
1223.154971
1223.155084
1223.154864
1223.154822
1223.154773
1223.154866
1223.154867
1223.154856
1223.154748
1223.154823
1223.150979
1223.151092
1223.151286
1223.151211
1223.151134
1223.150955
1223.150998
1223.15086
1223.150942
1223.150936
1223.150947
1223.151046
1223.151054
1223.150966
1223.146175
1223.146153
1223.146225
1223.146219
1223.146273
1223.146215
1223.146515
1223.146278
1223.146216
1223.14612
1223.146039
1223.146151
1223.146228
1223.146305
1223.146191
1223.15173
1223.151654
1223.151657
1223.151807
1223.151993
1223.151889
1223.151803
1223.151932
1223.152078
1223.152032
1223.152019
1223.152197
1223.152328
1223.152288
1223.152388
1223.152522
1223.152477
1223.152525
1223.152579
1223.152705
1223.152749
1223.152949
1223.153106
1223.153065
1223.153017
1223.152927
1223.152939
1223.152937
1223.152874
1223.152914
1223.150778
1223.150874
1223.150903
1223.150794
1223.150814
1223.150959
1223.150844
1223.150863
1223.150749
1223.150855
1223.151018
1223.150941
1223.15104
1223.151076
1223.155276
1223.155115
1223.154976
1223.155008
1223.155085
1223.154987
1223.154977
1223.154952
1223.154961
1223.155081
1223.154902
1223.155048
1223.154981
1223.154894
1223.150435
1223.15033
1223.150275
1223.150072
1223.150147
1223.150093
1223.149994
1223.149945
1223.150104
1223.15015
1223.15023
1223.150173
1223.150171
1223.150075
1223.151299
1223.151319
1223.15129
1223.151326
1223.151311
1223.151388
1223.151321
1223.151669
1223.151555
1223.151499
1223.151541
1223.151436
1223.151464
1223.151451
1223.148046
1223.147937
1223.147861
1223.14779
1223.147808
1223.14771
1223.147922
1223.147954
1223.147743
1223.14782
1223.147689
1223.147607
1223.14752
1223.147469
1223.152436
1223.152433
1223.152394
1223.152433
1223.152463
1223.152364
1223.152142
1223.152251
1223.152218
1223.152352
1223.152315
1223.152296
1223.152235
1223.152092
1223.153119
1223.152971
1223.152985
1223.152944
1223.153027
1223.153047
1223.15315
1223.153075
1223.153224
1223.153364
1223.153501
1223.153496
1223.153465
1223.153525
1223.14695
1223.146985
1223.147106
1223.146972
1223.147051
1223.146913
1223.147009
1223.147172
1223.147108
1223.147141
1223.14703
1223.14699
1223.14683
1223.146762
1223.146752
1223.145546
1223.145553
1223.14557
1223.145674
1223.145887
1223.145857
1223.14584
1223.145773
1223.145856
1223.146004
1223.146079
1223.146185
1223.146277
1223.146371
1223.146377
1223.148947
1223.149008
1223.149021
1223.149029
1223.148996
1223.149024
1223.148954
1223.148967
1223.149041
1223.148924
1223.14909
1223.149163
1223.14919
1223.149174
1223.147204
1223.147137
1223.147318
1223.147331
1223.1472
1223.147183
1223.146963
1223.146897
1223.1469
1223.146919
1223.147052
1223.147022
1223.147038
1223.147002
1223.150511
1223.150362
1223.15046
1223.150484
1223.150613
1223.15056
1223.150549
1223.150684
1223.150604
1223.150489
1223.150446
1223.150525
1223.150544
1223.150536
1223.14972
1223.149754
1223.149892
1223.149837
1223.149831
1223.149768
1223.149786
1223.14964
1223.149516
1223.149608
1223.149516
1223.149536
1223.149402
1223.14949
1223.151074
1223.151129
1223.151197
1223.151039
1223.150952
1223.150835
1223.150758
1223.150865
1223.150882
1223.150919
1223.150914
1223.150895
1223.150883
1223.150918
1223.145736
1223.145866
1223.145773
1223.145894
1223.145869
1223.146029
1223.146205
1223.146307
1223.14612
1223.14606
1223.146079
1223.146054
1223.145995
1223.145956
1223.150109
1223.149998
1223.150217
1223.150083
1223.149929
1223.149982
1223.149868
1223.14983
1223.14983
1223.149848
1223.150042
1223.150046
1223.150104
1223.150147
1223.147099
1223.147181
1223.146943
1223.146896
1223.147044
1223.147277
1223.147161
1223.147029
1223.147088
1223.147133
1223.14697
1223.146958
1223.146885
1223.146795
1223.152462
1223.15256
1223.152492
1223.152595
1223.152706
1223.1524
1223.152697
1223.152829
1223.152734
1223.152733
1223.152582
1223.152535
1223.152589
1223.152718
1223.152657
1223.151269
1223.151253
1223.151246
1223.151273
1223.151212
1223.151286
1223.151178
1223.151106
1223.151133
1223.151025
1223.150953
1223.150875
1223.150864
1223.150771
1223.148851
1223.148872
1223.148918
1223.148782
1223.148925
1223.148924
1223.148873
1223.148892
1223.148949
1223.149132
1223.148926
1223.148999
1223.148844
1223.148935
1223.152016
1223.152068
1223.152137
1223.152286
1223.152352
1223.152487
1223.152352
1223.15251
1223.15249
1223.152391
1223.152371
1223.152444
1223.152379
1223.152464
1223.140901
1223.141012
1223.140956
1223.140995
1223.141058
1223.141174
1223.141063
1223.140845
1223.140861
1223.140833
1223.140907
1223.141053
1223.141048
1223.141077
1223.147419
1223.147504
1223.147427
1223.147373
1223.147368
1223.147358
1223.147321
1223.147362
1223.147414
1223.147342
1223.147414
1223.147206
1223.14723
1223.14729
1223.149873
1223.149703
1223.149638
1223.149699
1223.149682
1223.149624
1223.149719
1223.149783
1223.149827
1223.14987
1223.149844
1223.14986
1223.149894
1223.150041
1223.15037
1223.150513
1223.150548
1223.150559
1223.150436
1223.15045
1223.150603
1223.15043
1223.150434
1223.150409
1223.150428
1223.150297
1223.150389
1223.150429
1223.148787
1223.148964
1223.148911
1223.148848
1223.148841
1223.148893
1223.148766
1223.148708
1223.148736
1223.148802
1223.148962
1223.14913
1223.149127
1223.149173
1223.147978
1223.147921
1223.147966
1223.148016
1223.147998
1223.14811
1223.148134
1223.148139
1223.148109
1223.148056
1223.148026
1223.147956
1223.148097
1223.148104
)
;

boundaryField
{
    top
    {
        type            zeroGradient;
    }
    bottom
    {
        type            zeroGradient;
    }
    side-walls
    {
        type            zeroGradient;
    }
    inlet
    {
        type            zeroGradient;
    }
    outlet
    {
        type            zeroGradient;
    }
    procBoundary0to1
    {
        type            processor;
        value           nonuniform List<scalar> 
97
(
1223.151021
1223.146995
1223.145896
1223.148906
1223.14961
1223.151934
1223.15151
1223.148511
1223.151746
1223.152148
1223.146995
1223.146995
1223.154615
1223.143627
1223.156991
1223.149967
1223.15188
1223.146332
1223.155718
1223.144242
1223.157127
1223.151201
1223.143627
1223.143627
1223.14736
1223.148569
1223.150596
1223.1441
1223.147953
1223.151101
1223.156866
1223.144451
1223.153094
1223.15549
1223.148569
1223.148569
1223.151135
1223.152856
1223.157262
1223.14636
1223.152287
1223.142699
1223.147874
1223.150981
1223.147492
1223.149685
1223.152856
1223.152856
1219.804602
1223.153616
1223.14933
1223.151174
1223.152452
1223.152788
1223.157416
1223.151824
1223.150403
1223.153998
1223.144285
1223.153616
1223.151174
1223.151174
1223.146092
1223.153542
1223.152586
1223.153038
1223.151058
1223.154754
1223.15013
1223.151321
1223.147549
1223.152354
1223.153542
1223.153542
1223.146752
1223.146955
1223.146357
1223.149151
1223.147218
1223.150524
1223.149478
1223.150961
1223.145763
1223.150038
1223.146955
1223.146955
1223.152652
1223.148139
1223.150878
1223.148834
1223.152559
1223.1409
1223.147238
1223.149822
1223.150227
1223.149166
1223.148139
)
;
    }
}


// ************************************************************************* //
