/*--------------------------------*- C++ -*----------------------------------*\
| =========                 |                                                 |
| \\      /  F ield         | OpenFOAM: The Open Source CFD Toolbox           |
|  \\    /   O peration     | Version:  4.x                                   |
|   \\  /    A nd           | Web:      www.OpenFOAM.org                      |
|    \\/     M anipulation  |                                                 |
\*---------------------------------------------------------------------------*/
FoamFile
{
    version     2.0;
    format      ascii;
    class       volVectorField;
    location    "9000";
    object      U;
}
// * * * * * * * * * * * * * * * * * * * * * * * * * * * * * * * * * * * * * //

dimensions      [0 1 -1 0 0 0 0];

internalField   nonuniform List<vector> 
1175
(
(0.01100000014 -4.825378019e-11 -5.028680977e-10)
(0.01099999881 -7.085111555e-10 -1.17801682e-09)
(0.01100000052 -3.474219666e-10 -3.906890228e-10)
(0.01099999868 -9.602360483e-10 5.083480895e-10)
(0.01100000128 -1.116338094e-09 9.548174774e-10)
(0.01100000179 -1.855683545e-09 -1.306429385e-09)
(0.01100000576 -1.197203164e-09 -1.428817287e-09)
(0.01100000547 -2.39181031e-09 -1.18099079e-09)
(0.01100000743 -1.42875088e-09 -5.890968503e-09)
(0.01100001519 -8.470252217e-10 -7.812228929e-09)
(0.01100002222 -2.052661605e-09 -5.640858501e-09)
(0.01100002993 -3.373977985e-09 -4.606184821e-09)
(0.01100005829 -6.225069734e-09 -5.385837581e-09)
(0.01100007037 -3.823361324e-09 -3.680313612e-09)
(0.01100010893 -1.112654768e-08 -8.614017539e-09)
(0.01099999981 -3.053798324e-09 6.756011929e-10)
(0.01100000041 -9.793776736e-10 -1.651862967e-09)
(0.01099999937 -6.262963762e-10 -2.92651625e-10)
(0.01099999937 -1.112805494e-09 2.085456819e-10)
(0.01100000073 -9.828117298e-10 7.941107867e-10)
(0.01100000175 -8.671805617e-10 -2.610971844e-10)
(0.01100000508 -1.622974984e-09 -5.546024264e-10)
(0.01100000399 -2.487536212e-09 -1.589959005e-09)
(0.01100000857 -4.932791381e-09 -2.46961366e-09)
(0.01100001326 -5.529045793e-09 -3.042807483e-09)
(0.01100002076 -8.344524213e-09 -3.968411881e-09)
(0.0110000292 -1.37683741e-08 -6.021352247e-09)
(0.01100005638 -2.162433317e-08 -5.096345865e-09)
(0.01100006524 -2.229746552e-08 -3.902176958e-09)
(0.01100010847 -4.476764475e-08 -1.522208385e-08)
(0.01100000143 -8.440783626e-10 6.10104013e-11)
(0.01100000118 1.204212049e-10 4.032680354e-11)
(0.01100000026 1.066011515e-09 -8.427886064e-11)
(0.01100000111 2.944785451e-10 8.669897343e-10)
(0.01099999862 -1.167548293e-09 -7.458550159e-10)
(0.01100000142 -3.626850463e-09 -2.49711887e-09)
(0.01100000298 -3.574570903e-09 -9.477412181e-11)
(0.01100000325 -3.478848011e-09 -3.623102742e-09)
(0.01100000677 -4.238876369e-09 -4.052187222e-09)
(0.01100000711 -7.414955943e-09 -4.353632413e-09)
(0.01100001478 -1.022294541e-08 -6.944382876e-09)
(0.01100001889 -1.482269926e-08 -9.038347752e-09)
(0.01100004724 -2.091190491e-08 -9.482459994e-09)
(0.01100004429 -2.005690346e-08 -1.165433418e-08)
(0.01100011252 -5.187170539e-08 -3.620991064e-08)
(0.01099999999 9.647686916e-10 6.509015302e-10)
(0.01100000124 8.563398549e-11 1.431923961e-09)
(0.01100000102 4.784210398e-10 -8.672395693e-10)
(0.01099999826 -3.886703675e-10 -1.480877793e-09)
(0.01100000141 -6.377067783e-10 7.932005344e-10)
(0.01100000141 3.972913706e-10 -1.092646048e-10)
(0.01100000385 -9.985249652e-10 -6.343937631e-10)
(0.01100000281 -2.030715124e-09 -1.669705055e-09)
(0.01100000419 -1.981631252e-09 -2.453166117e-09)
(0.01100000736 -6.998422708e-09 -4.634858146e-09)
(0.01100001107 -1.008046029e-08 -5.027729294e-09)
(0.01100001688 -1.999277142e-08 -8.836322444e-09)
(0.01100004755 -3.156696973e-08 -8.855730797e-09)
(0.01100003611 -4.370864613e-08 -5.283458654e-09)
(0.01100012537 -9.731593972e-08 -4.301557044e-08)
(0.01100000054 2.442937003e-09 2.09863325e-11)
(0.01100000021 1.328416867e-09 -2.848664413e-10)
(0.01100000075 5.634754127e-10 2.978629099e-10)
(0.01100000117 8.430109308e-10 8.812096453e-10)
(0.01100000127 7.454276943e-10 2.252785047e-09)
(0.01100000105 1.006298968e-09 -2.655581389e-09)
(0.01100000138 3.598525861e-09 -1.674301126e-09)
(0.01099999995 1.8106453e-09 -3.917956391e-09)
(0.01099999977 3.25078522e-10 -2.913760123e-09)
(0.01099999913 2.49776091e-09 -7.99108755e-09)
(0.01100000049 2.878915349e-09 -8.990393661e-09)
(0.01099999295 3.474444366e-09 -2.191626576e-08)
(0.01100001774 2.119481136e-09 -2.291383545e-08)
(0.01099998142 1.257264636e-09 -4.725996279e-08)
(0.0110001437 2.078385449e-10 -1.324148315e-07)
(0.01100000024 -8.624275452e-10 5.943931649e-11)
(0.01099999978 5.849629974e-10 -5.714423931e-11)
(0.01100000175 -1.148554844e-09 4.638411818e-10)
(0.01099999968 1.283932976e-10 3.249520325e-10)
(0.01100000245 7.835903752e-10 7.837335567e-10)
(0.01099999909 2.187210586e-09 -8.95938313e-10)
(0.01100000168 2.161853547e-09 1.298284257e-10)
(0.01100000233 2.960245638e-09 -2.117212711e-09)
(0.01100000325 5.513385597e-09 -2.155777744e-09)
(0.01100000454 7.534257941e-09 -3.797277024e-09)
(0.01100001299 1.002109176e-08 -2.727971062e-09)
(0.01100001474 2.118634924e-08 -9.38657971e-09)
(0.01100004612 3.191814422e-08 -7.583284432e-09)
(0.01100003434 4.444143686e-08 -6.612771394e-09)
(0.01100012252 9.728163989e-08 -4.241716765e-08)
(0.01100000045 -6.564523804e-10 -5.828097691e-10)
(0.01099999808 -2.549050494e-09 -4.81908414e-10)
(0.0110000018 8.323952009e-10 5.754839451e-10)
(0.01100000122 2.34960104e-11 1.528903409e-10)
(0.01100000077 1.807708615e-09 -3.932877819e-10)
(0.01100000089 2.212422256e-09 1.039516385e-09)
(0.0110000032 2.457576501e-09 -3.518878909e-09)
(0.01100000253 4.360663537e-09 -2.40673394e-09)
(0.01100000447 6.999333147e-09 -1.314592541e-09)
(0.01100000503 9.564265941e-09 -5.384973721e-09)
(0.0110000145 1.004141012e-08 -3.310112186e-09)
(0.01100001907 1.370759459e-08 -8.350789434e-09)
(0.01100004488 2.33962348e-08 -1.215604817e-08)
(0.01100004744 2.066456092e-08 -9.707689305e-09)
(0.01100011184 5.341028676e-08 -3.497965081e-08)
(0.01099999917 -8.164344654e-11 4.284057965e-10)
(0.01100000095 1.842597703e-12 9.075606267e-11)
(0.01099999949 6.720609391e-11 -9.055489216e-10)
(0.01100000207 8.086432511e-11 -1.006345192e-09)
(0.01100000229 6.031758782e-10 -1.096293552e-09)
(0.01100000217 1.592806685e-09 8.268294948e-10)
(0.01100000695 1.861454232e-09 -1.633230471e-09)
(0.01100000431 1.605567045e-09 -1.989470863e-09)
(0.0110000091 4.490980697e-09 -2.721831658e-09)
(0.01100001032 6.599412965e-09 -4.193362361e-09)
(0.0110000194 8.773963023e-09 -4.71751754e-09)
(0.01100002648 1.502678676e-08 -6.359035873e-09)
(0.01100005317 2.00931531e-08 -7.943807688e-09)
(0.01100006519 2.133350631e-08 -3.537053822e-09)
(0.01100010799 4.474703422e-08 -1.597037887e-08)
(0.0109999996 1.296816569e-11 1.457792759e-09)
(0.01099999846 -2.603108681e-10 -9.657313334e-10)
(0.01100000196 -1.005789714e-09 -2.483701325e-09)
(0.0110000007 5.266305404e-10 2.942287349e-10)
(0.01100000479 7.341934922e-11 1.323408255e-09)
(0.01100000312 1.482791016e-10 9.5395654e-10)
(0.01100000567 1.291451845e-09 5.554637832e-10)
(0.01100000627 1.714510001e-09 -1.224939171e-09)
(0.01100000972 2.11766827e-09 -3.898721451e-09)
(0.01100001094 2.494057016e-09 -1.443864237e-09)
(0.01100002139 3.528568788e-09 -5.281948142e-09)
(0.01100003252 2.202827956e-09 -3.751897237e-09)
(0.01100005526 5.463384762e-09 -8.029794866e-09)
(0.01100006985 3.134927599e-09 -5.724180707e-09)
(0.0110001068 1.0504232e-08 -9.537110725e-09)
(0.01099999929 2.988551421e-10 2.359212928e-10)
(0.01100000028 9.571078141e-10 -5.663891715e-10)
(0.01099999814 9.624174207e-10 1.525868756e-09)
(0.01100000139 1.539482387e-09 4.389897141e-10)
(0.01100000322 -1.240688749e-09 -7.038176349e-10)
(0.01100000154 -1.228023307e-10 -7.085766172e-10)
(0.01100000422 -1.024930334e-09 -2.045122306e-09)
(0.01100000436 -1.938817489e-09 -3.956120522e-09)
(0.01100001043 -1.40654986e-09 -4.008285441e-09)
(0.01100001155 -1.027193467e-09 -7.387199273e-09)
(0.01100002253 -2.296205043e-09 -9.941772437e-09)
(0.01100002844 -4.356012377e-09 -1.45624166e-08)
(0.01100005733 -6.858136292e-09 -2.02603973e-08)
(0.01100006532 -3.789211087e-09 -2.111610467e-08)
(0.01099999904 -1.560616841e-09 8.327107173e-11)
(0.01100000118 5.14884683e-10 4.372718971e-10)
(0.01100000047 -9.12727857e-10 3.203855711e-10)
(0.0109999995 4.465120868e-10 -4.801549642e-10)
(0.01100000129 -1.389265407e-09 -1.148115934e-09)
(0.01100000091 -1.814263152e-09 -3.84615504e-10)
(0.01100000275 -2.762081055e-09 -6.866148739e-10)
(0.01100000407 -2.843214776e-09 -2.843019974e-09)
(0.01100000826 -4.108713271e-09 -3.629965413e-09)
(0.01100000885 -7.802303417e-09 -7.55180056e-09)
(0.01100001807 -9.743573313e-09 -9.966752852e-09)
(0.01100002485 -1.678848501e-08 -1.709458008e-08)
(0.01100005465 -2.598561989e-08 -2.530164659e-08)
(0.01100005415 -2.782102866e-08 -2.798360244e-08)
(0.01100011639 -6.948451916e-08 -7.026835258e-08)
(0.0110000025 -1.494105963e-09 2.44860071e-11)
(0.01099999994 -7.109430715e-10 5.950857194e-10)
(0.01100000049 -8.959953235e-10 -4.596427414e-10)
(0.01100000095 -6.217611098e-10 -6.778902288e-10)
(0.01100000128 1.567466517e-10 4.793222097e-11)
(0.01100000078 -9.617415475e-10 -1.553112632e-09)
(0.01100000423 -1.323431255e-09 -1.657046587e-09)
(0.01100000288 -2.632113389e-09 -2.595296971e-09)
(0.01100000291 -4.837061067e-09 -4.037456227e-09)
(0.0110000051 -9.52608746e-09 -1.04906914e-08)
(0.01100001012 -1.091070551e-08 -1.421032825e-08)
(0.01100001284 -1.781733201e-08 -2.868790305e-08)
(0.01100003897 -2.210212599e-08 -4.119542525e-08)
(0.0110000194 -2.168757528e-08 -6.035306892e-08)
(0.01100012362 -8.110679948e-08 -1.62796734e-07)
(0.01100000072 1.786299902e-09 1.941104324e-10)
(0.01100000059 -7.706782673e-11 -1.233027158e-10)
(0.01099999941 2.656978616e-10 7.550306914e-10)
(0.01100000131 1.324128127e-09 -1.235088312e-09)
(0.01099999909 4.85372488e-10 -1.75046707e-10)
(0.01100000013 -1.240726923e-10 -1.124791072e-09)
(0.01100000144 -1.068295264e-09 -1.139117156e-09)
(0.01100000162 -2.068941504e-09 -2.060006219e-09)
(0.01099999853 -3.540866024e-09 -4.268448853e-09)
(0.01100000532 -1.058792019e-08 -1.165763961e-08)
(0.01100000768 -1.221028087e-08 -1.105807715e-08)
(0.01100001422 -3.260568607e-08 -3.494528084e-08)
(0.01100004368 -4.609281363e-08 -3.78128557e-08)
(0.0110000064 -7.91959654e-08 -7.083210926e-08)
(0.01100013508 -1.963550405e-07 -2.390165405e-07)
(0.01099999905 6.985681553e-10 4.169792032e-10)
(0.01100000058 8.653362621e-10 -7.280675647e-10)
(0.01100000046 1.985533761e-09 1.32111943e-10)
(0.01100000099 5.600421802e-10 -5.488547695e-11)
(0.01099999929 1.329179323e-09 -6.872681864e-10)
(0.011000001 -8.989311714e-10 -3.015096169e-10)
(0.01099999955 1.178308745e-09 -2.536110508e-09)
(0.01099999791 6.345411887e-10 -3.898115297e-09)
(0.01099999364 1.797623996e-09 -7.041191351e-09)
(0.0109999961 1.936714302e-09 -1.849363273e-08)
(0.0109999843 1.492386943e-09 -2.23880411e-08)
(0.01099997896 4.233403396e-10 -7.179971365e-08)
(0.01099997865 7.443281589e-10 -9.246776126e-08)
(0.01099988858 -5.742037951e-10 -2.500250802e-07)
(0.01100018813 -6.940740358e-10 -6.471357604e-07)
(0.01100000099 -1.580136813e-09 9.65975419e-11)
(0.01100000105 -6.947054472e-11 8.589794373e-10)
(0.0109999995 6.994936391e-10 1.4546627e-09)
(0.01100000129 8.556774378e-10 -8.98710136e-11)
(0.01099999955 2.401461367e-10 9.251110819e-10)
(0.01100000012 2.225462177e-09 8.787221277e-10)
(0.01100000038 1.914556114e-09 -7.2193382e-10)
(0.01100000032 3.443926351e-09 -2.995843301e-09)
(0.01100000072 4.680484799e-09 -4.460348668e-09)
(0.01100000373 9.429621629e-09 -1.053844859e-08)
(0.01100000446 1.33903433e-08 -1.376440284e-08)
(0.01100001209 3.214163193e-08 -3.492717096e-08)
(0.0110000407 4.60165174e-08 -3.712246279e-08)
(0.01100000427 7.991513514e-08 -7.140083917e-08)
(0.01100013315 1.955457686e-07 -2.377258933e-07)
(0.01100000112 6.64673864e-10 -1.033718224e-09)
(0.01100000143 -1.313734567e-09 -1.335231145e-10)
(0.01100000075 -2.134539556e-09 5.668632388e-10)
(0.01100000114 -4.748742215e-10 -3.496096096e-10)
(0.01100000125 -1.082799743e-09 -5.420561668e-10)
(0.01099999993 2.529288985e-09 -4.75225569e-10)
(0.01100000029 3.147709858e-09 -1.298382263e-09)
(0.01100000337 3.728015322e-09 -3.342932739e-09)
(0.01100000075 5.874317047e-09 -6.262262122e-09)
(0.01100000424 8.842213741e-09 -9.939353274e-09)
(0.01100000919 9.550464167e-09 -1.299598883e-08)
(0.01100000993 1.880968843e-08 -2.920140574e-08)
(0.01100003732 2.269059199e-08 -4.283358127e-08)
(0.01100001891 2.33599674e-08 -5.941548973e-08)
(0.01100012261 8.399399134e-08 -1.628274948e-07)
(0.01099999944 3.605321413e-10 4.999054555e-10)
(0.01099999881 5.054807636e-10 2.113855622e-10)
(0.01100000236 5.553102717e-10 3.642392709e-10)
(0.01099999919 6.279519613e-10 6.006097494e-10)
(0.01100000227 5.762652876e-10 -7.476759985e-10)
(0.01100000097 1.321246882e-09 -1.898726963e-09)
(0.0110000048 1.529314325e-09 -1.159329394e-09)
(0.01100000252 1.940447202e-09 -4.001093495e-09)
(0.01100000459 4.174892095e-09 -5.200222723e-09)
(0.01100001081 7.284851463e-09 -8.539697115e-09)
(0.01100001893 8.266454636e-09 -1.008593834e-08)
(0.01100002467 1.63272871e-08 -1.881249346e-08)
(0.01100005426 2.601948613e-08 -2.633399413e-08)
(0.01100005284 2.622484004e-08 -2.850151704e-08)
(0.01100011241 6.967807719e-08 -6.94625762e-08)
(0.01100000023 6.382603541e-10 6.596169417e-10)
(0.01099999828 1.845821648e-09 -9.79930445e-10)
(0.01100000195 -2.738567321e-10 6.570972684e-10)
(0.01099999878 -5.920552681e-10 -5.832201048e-10)
(0.01100000369 1.584992149e-09 -5.96195556e-10)
(0.0110000017 1.549762899e-09 -2.343702612e-09)
(0.01100000471 -1.042005309e-09 -1.939100803e-09)
(0.01100000456 1.108620407e-09 -4.21685808e-09)
(0.01100000682 -9.654055846e-11 -5.361632955e-09)
(0.01100001281 1.836488263e-09 -8.045946132e-09)
(0.01100002098 2.7742796e-09 -9.487655912e-09)
(0.01100002982 3.818640935e-09 -1.525484107e-08)
(0.01100005556 5.029515315e-09 -2.15266832e-08)
(0.01100006516 2.76236191e-09 -2.05272116e-08)
(0.01100011013 1.518048404e-08 -4.300839077e-08)
(0.01099999851 -1.420849695e-09 -2.130408503e-10)
(0.01099999827 -1.574174917e-09 6.150078647e-10)
(0.01100000037 -5.316300762e-12 -3.036578497e-10)
(0.01099999896 -1.869562083e-09 7.518889957e-10)
(0.01100000008 -2.527603866e-09 -1.612573508e-09)
(0.01100000024 1.527575236e-09 -1.399697996e-09)
(0.01100000293 -1.380464817e-09 -2.429760246e-09)
(0.01100000525 4.769662236e-10 -3.092966702e-09)
(0.01100000598 9.75662812e-10 -4.647742172e-09)
(0.01100000676 -1.604274101e-09 -7.2344313e-09)
(0.01100001495 -2.014014186e-09 -9.040396941e-09)
(0.0110000193 -3.800697751e-09 -1.570455901e-08)
(0.01100004953 -9.889142921e-09 -2.180450111e-08)
(0.01100004526 -8.523648927e-09 -1.914276091e-08)
(0.01099999733 -8.069881898e-10 -1.005746123e-09)
(0.01100000073 -3.619728409e-10 -9.814046957e-10)
(0.01100000227 -6.816712317e-10 -1.135166285e-09)
(0.01100000082 -1.224083086e-09 -1.159388985e-10)
(0.01099999997 -9.555585852e-10 -1.670765804e-10)
(0.01100000163 -2.912837249e-10 -1.996469167e-09)
(0.01099999928 -1.541110789e-09 -1.163072455e-09)
(0.01100000262 -2.371773029e-09 -3.208577071e-09)
(0.01100000205 -3.965235853e-09 -4.096206333e-09)
(0.01100000282 -1.12204506e-08 -9.858305756e-09)
(0.0110000089 -1.341182611e-08 -9.493699649e-09)
(0.01100001202 -2.770186788e-08 -1.84838501e-08)
(0.01100004105 -4.352391137e-08 -2.175911279e-08)
(0.01100002024 -6.194488904e-08 -2.140723843e-08)
(0.01099999995 -1.22770865e-09 7.521694809e-10)
(0.01100000047 7.286470057e-10 2.864885628e-10)
(0.01100000104 -1.202211954e-09 1.144592551e-09)
(0.01100000002 -5.157523844e-10 9.793575084e-10)
(0.01099999798 4.338146433e-10 -4.209289868e-10)
(0.01100000238 -1.935362111e-09 -9.007797145e-10)
(0.01100000034 -2.76401687e-09 5.761034502e-10)
(0.01100000273 -2.884527189e-09 -3.779294616e-09)
(0.01099999677 -5.98523818e-09 -5.828511412e-09)
(0.010999998 -1.367738227e-08 -1.358667381e-08)
(0.01099999423 -1.107124484e-08 -1.237003462e-08)
(0.01099998691 -3.165014431e-08 -3.416754422e-08)
(0.01100000158 -3.381839889e-08 -3.510536226e-08)
(0.01099993569 -6.40756631e-08 -6.403266622e-08)
(0.01100013756 -2.19600258e-07 -2.24836588e-07)
(0.01100000039 5.776012145e-10 1.032744818e-09)
(0.01100000111 8.933323443e-10 -6.047965082e-12)
(0.01099999919 2.173812143e-10 2.25500632e-10)
(0.0110000009 -3.018872637e-12 2.26058292e-10)
(0.01099999902 4.305651809e-10 -9.043285197e-10)
(0.0109999994 -1.304112685e-09 -2.297160191e-09)
(0.01100000076 -9.332171929e-10 -1.460324988e-09)
(0.01099999798 -4.700619438e-09 -5.232043234e-09)
(0.01099999114 -5.568824308e-09 -4.5656259e-09)
(0.01099999673 -1.459899814e-08 -1.353690083e-08)
(0.01099998606 -1.949001867e-08 -6.554476624e-09)
(0.0109999923 -6.549937169e-08 -3.789157821e-08)
(0.01099998193 -8.449236658e-08 6.389341162e-09)
(0.01099989588 -2.369457326e-07 -4.257471901e-08)
(0.01100009344 -5.898039631e-07 -2.83073995e-07)
(0.01099999867 1.454022888e-09 2.389264737e-10)
(0.01099999868 1.528014359e-09 1.839247938e-09)
(0.01100000184 2.585333426e-09 9.397840786e-10)
(0.01100000062 3.493645545e-10 -7.059270406e-10)
(0.01100000072 8.004692924e-10 -5.36537058e-10)
(0.01099999809 3.155654512e-09 -1.73932848e-09)
(0.01099999525 4.112752432e-10 -1.909934012e-09)
(0.01099999633 2.70462191e-10 -7.065813245e-09)
(0.01099998278 1.670889555e-09 -8.087296287e-09)
(0.01099998251 3.541551025e-09 -2.407580579e-08)
(0.01099993767 1.207919974e-09 -1.941743971e-08)
(0.01099992406 -6.622084109e-10 -1.099625342e-07)
(0.01099977364 9.743743887e-11 -6.931039981e-08)
(0.01099954884 -3.81149926e-10 -4.585838871e-07)
(0.01100010701 -4.063101284e-10 -1.177377912e-06)
(0.01099999938 -9.761597794e-10 -5.682359887e-10)
(0.0110000003 -6.666707663e-11 -5.429234364e-11)
(0.01100000063 3.774092109e-10 4.038169174e-10)
(0.01099999859 9.936253443e-10 -1.778015674e-09)
(0.01100000202 1.374097038e-09 -1.137120505e-09)
(0.01099999814 2.101526462e-09 -1.011656953e-09)
(0.01099999719 3.025807894e-09 -2.669595786e-09)
(0.0109999992 4.578708275e-09 -5.3134665e-09)
(0.01099999515 5.788987659e-09 -5.389090508e-09)
(0.01099999439 1.546786876e-08 -1.494723331e-08)
(0.01099998368 1.967742966e-08 -7.445221895e-09)
(0.01099999267 6.541987834e-08 -4.004744535e-08)
(0.01099998052 8.514218334e-08 5.447789835e-09)
(0.01099989344 2.380845576e-07 -4.068636929e-08)
(0.01100009557 5.915092795e-07 -2.808424729e-07)
(0.01100000015 -1.949458807e-10 6.254708407e-10)
(0.01100000081 -1.576424505e-09 1.044795524e-09)
(0.0109999984 -1.874573944e-09 -7.45366471e-10)
(0.01099999858 6.496837712e-10 -2.574854382e-09)
(0.01100000078 -2.13082539e-10 -8.596537472e-10)
(0.01099999956 1.039300313e-09 -2.383312469e-09)
(0.01099999845 3.082067053e-09 -3.30993385e-09)
(0.01099999917 4.105521128e-09 -7.04151812e-09)
(0.01099999684 3.191027228e-09 -6.381762228e-09)
(0.01099999629 1.118130294e-08 -1.225176684e-08)
(0.01099999206 1.124211102e-08 -1.295047217e-08)
(0.01099998545 3.146654464e-08 -3.369584759e-08)
(0.01099999873 3.318253843e-08 -3.504255592e-08)
(0.01099993611 6.37184571e-08 -6.472135866e-08)
(0.01100013739 2.230342162e-07 -2.236448644e-07)
(0.01099999983 1.28046078e-10 -2.450454731e-10)
(0.01099999736 -5.585061411e-10 1.257707408e-09)
(0.01100000006 -8.235558495e-10 -1.505642179e-11)
(0.01099999964 1.813596988e-10 -1.55277657e-09)
(0.01100000171 6.837761011e-10 -2.108657917e-10)
(0.01100000052 3.839719212e-10 -1.603735138e-09)
(0.01100000061 2.250023422e-09 -2.906160698e-09)
(0.01100000314 2.383684282e-09 -4.722211487e-09)
(0.0110000012 4.675654671e-09 -6.628872437e-09)
(0.01100000533 8.353858486e-09 -9.631437317e-09)
(0.01100000871 1.156828084e-08 -1.209797567e-08)
(0.01100001125 2.869484878e-08 -1.841426046e-08)
(0.01100004104 4.224559884e-08 -2.418131161e-08)
(0.01100002315 5.993023577e-08 -2.131857557e-08)
(0.01100012381 1.654053837e-07 -8.051903254e-08)
(0.01100000041 8.254274325e-10 -7.729725164e-10)
(0.01100000044 1.320694531e-09 1.228288578e-09)
(0.01099999886 1.519871743e-09 3.167264857e-10)
(0.01100000246 -4.42247469e-10 5.767324897e-10)
(0.01100000135 1.044782099e-09 2.393041112e-10)
(0.01100000247 3.435815036e-11 -2.193232136e-09)
(0.01100000182 2.126515409e-11 -2.363652173e-09)
(0.01100000262 2.338149535e-09 -3.054729458e-09)
(0.01100000318 3.078500248e-09 -5.85579559e-09)
(0.01100000886 1.989505442e-09 -8.46141438e-09)
(0.01100001388 5.280712205e-09 -9.126341519e-09)
(0.01100001676 8.426587192e-09 -1.276766978e-08)
(0.01100004846 9.735048002e-09 -2.124478952e-08)
(0.0110000468 1.021008277e-08 -1.95267381e-08)
(0.01100011258 3.629057974e-08 -5.051010161e-08)
(0.01100000078 7.672365938e-10 -1.758183499e-09)
(0.01100000086 -1.944657676e-09 -8.943674442e-10)
(0.01099999979 -1.153290628e-09 -5.953740229e-10)
(0.01100000021 1.711229794e-09 4.356297281e-10)
(0.01100000065 3.250743915e-10 1.595815889e-09)
(0.01100000091 -4.308136873e-10 6.79617876e-10)
(0.01099999954 3.052452578e-10 -6.041288806e-11)
(0.01100000215 -5.155689642e-10 -2.246378915e-09)
(0.01100000585 -2.011749269e-09 -2.626965057e-09)
(0.01100000588 -3.734470005e-09 -7.391327497e-09)
(0.01100001099 -2.379476225e-09 -1.000233943e-08)
(0.01100001786 -7.048900564e-09 -1.894509602e-08)
(0.01100004805 -4.62957094e-09 -3.273726501e-08)
(0.01100003646 -6.347212743e-09 -4.428871126e-08)
(0.01099999969 1.768996773e-10 2.042801906e-10)
(0.01100000064 3.396119871e-10 -4.815109736e-10)
(0.01100000074 -5.004468198e-10 7.322745826e-10)
(0.01100000191 4.219410098e-11 -1.485723572e-09)
(0.0109999997 -1.12940942e-09 -6.601490777e-10)
(0.01099999904 -1.916546829e-09 -1.359555816e-09)
(0.01100000026 -1.675336382e-09 -1.183928479e-09)
(0.01099999892 -2.136704298e-09 -3.006053028e-09)
(0.01100000198 -3.478227185e-09 -3.725666423e-09)
(0.01100000323 -1.182752565e-08 -8.833312707e-09)
(0.01100000621 -1.180300943e-08 -1.236582266e-08)
(0.01100001288 -3.445036451e-08 -3.13666688e-08)
(0.01100004105 -3.828160765e-08 -4.657784632e-08)
(0.01100000562 -7.068505122e-08 -8.059404805e-08)
(0.01100000008 2.374723622e-10 9.493786544e-10)
(0.01100000107 -7.414168033e-10 -1.503278663e-10)
(0.01099999874 2.928310833e-10 4.339652494e-10)
(0.0109999997 2.795680817e-10 -9.53042861e-10)
(0.01099999983 9.249930195e-10 3.85480218e-10)
(0.01100000003 -1.430233973e-09 -1.663007376e-10)
(0.01099999871 -3.038447718e-09 -2.437101603e-09)
(0.01099999864 -4.143891008e-09 -3.78314725e-09)
(0.01099999363 -5.482280741e-09 -4.045795594e-09)
(0.01099999821 -1.392086593e-08 -1.393306285e-08)
(0.01099998515 -6.532984397e-09 -1.893488784e-08)
(0.01099999314 -3.733684136e-08 -6.525520244e-08)
(0.0109999812 6.005817881e-09 -8.343623478e-08)
(0.01099989553 -4.180218847e-08 -2.358838178e-07)
(0.01100000026 4.7702267e-10 2.071941068e-10)
(0.01100000202 -6.935386144e-10 5.694104078e-10)
(0.01099999947 -4.222036538e-10 -2.813294024e-10)
(0.01100000044 -2.019042032e-10 -4.680959758e-10)
(0.01099999789 -9.500076522e-10 2.896074047e-10)
(0.01099999801 -1.90535598e-09 -2.967788387e-10)
(0.01099999736 -1.078419617e-09 -1.34974944e-09)
(0.01099999773 -3.374126257e-09 -5.701311063e-09)
(0.01099998822 -5.024186945e-09 -4.746880239e-09)
(0.01100000076 -2.135083858e-08 -2.082012651e-08)
(0.01099997841 -1.866897037e-08 -1.929505479e-08)
(0.01100004175 -1.060914955e-07 -1.057697336e-07)
(0.01099995907 -7.838543251e-08 -7.867141565e-08)
(0.011000009 -4.766714985e-07 -4.748805209e-07)
(0.01099952536 -1.149075139e-06 -1.149065475e-06)
(0.01100000167 8.771999807e-10 -4.144557999e-10)
(0.01100000004 2.086779122e-09 -9.712804065e-10)
(0.01099999932 1.181627647e-09 -1.109093641e-09)
(0.01100000043 -3.657424656e-10 -1.302159481e-09)
(0.01099999835 1.664244201e-10 -1.725168697e-09)
(0.01099999926 8.100359986e-10 -1.863682211e-09)
(0.01099999382 -4.557138748e-11 -3.588433187e-09)
(0.01099999343 -4.845121861e-10 -7.324219922e-09)
(0.01099997358 4.682376828e-10 -8.95360124e-09)
(0.01099998231 1.971135949e-09 -3.681415515e-08)
(0.01099989144 -1.255233486e-09 -4.379634202e-08)
(0.01099995344 -2.395062336e-10 -2.773338465e-07)
(0.01099944841 -3.676412069e-10 -3.205459315e-07)
(0.01099949585 -1.512335208e-10 -2.76545121e-06)
(0.01099799632 3.053905643e-10 -5.940655836e-06)
(0.01100000125 -7.125258825e-10 -1.879844243e-10)
(0.01100000114 -1.467836193e-10 -7.349513769e-11)
(0.01099999973 -1.142129275e-09 -7.831484794e-10)
(0.01100000047 5.896958313e-11 -1.18234145e-09)
(0.01099999979 6.744479526e-10 4.556201717e-10)
(0.01099999938 2.372852505e-09 -1.640266673e-09)
(0.01099999685 1.098882244e-09 -1.060200338e-09)
(0.01099999829 2.835706754e-09 -6.322701143e-09)
(0.01099999079 6.078809883e-09 -6.820533551e-09)
(0.01100000088 2.142033383e-08 -2.089351509e-08)
(0.01099997444 2.076719088e-08 -2.089520549e-08)
(0.01100004096 1.05387233e-07 -1.049507091e-07)
(0.01099995972 7.794771832e-08 -7.841558324e-08)
(0.01100001014 4.762973333e-07 -4.746936135e-07)
(0.01099952722 1.149913927e-06 -1.149205864e-06)
(0.01099999934 -1.990138146e-10 7.391866974e-10)
(0.0109999986 -9.945885447e-10 3.431209539e-10)
(0.01100000034 -1.608859962e-09 3.459807367e-10)
(0.01100000121 -1.043823449e-09 -1.662213558e-09)
(0.01100000257 8.221030602e-10 -1.071213422e-10)
(0.01100000029 1.783308759e-09 -2.218896371e-09)
(0.01099999715 2.378175316e-09 -3.334721954e-09)
(0.0110000021 5.073121036e-09 -5.233143759e-09)
(0.01099999582 3.713562039e-09 -6.375769124e-09)
(0.01099999807 1.363106945e-08 -1.506887357e-08)
(0.01099998395 4.90926791e-09 -1.788159764e-08)
(0.01099999139 3.719861209e-08 -6.42373959e-08)
(0.01099998042 -6.588732435e-09 -8.271201428e-08)
(0.01099989852 4.239505918e-08 -2.356126844e-07)
(0.01100009237 2.830321804e-07 -5.905555555e-07)
(0.01100000055 -1.661545079e-10 3.259105963e-11)
(0.01099999832 6.417220582e-10 7.118358756e-10)
(0.01099999983 1.043151384e-09 -2.511545313e-10)
(0.01099999937 1.760510636e-09 -1.145722409e-09)
(0.01100000132 8.489646911e-10 -4.287537578e-11)
(0.0110000015 -1.916997376e-10 -1.876206279e-09)
(0.01100000178 2.260855478e-09 -3.217303136e-09)
(0.01100000285 4.772783406e-09 -3.795369945e-09)
(0.0110000015 4.264903962e-09 -6.223905569e-09)
(0.01100000558 1.119747561e-08 -8.876777768e-09)
(0.01100000616 1.267069235e-08 -1.130523807e-08)
(0.01100001133 3.660145893e-08 -2.99195072e-08)
(0.01100004529 4.004548433e-08 -4.500893889e-08)
(0.0110000066 7.192424655e-08 -7.909131708e-08)
(0.0110001341 2.397183556e-07 -1.94842976e-07)
(0.01100000021 -3.772855909e-10 -9.082691828e-10)
(0.01100000181 -2.055713257e-10 -6.121042121e-10)
(0.01099999814 1.850324711e-09 -8.737859862e-10)
(0.01100000074 8.856572092e-10 -1.623958453e-09)
(0.0110000024 -9.994830509e-10 -3.340389179e-09)
(0.011000002 1.279151518e-09 -1.358496792e-09)
(0.0110000033 1.228655497e-10 -1.674083027e-09)
(0.01100000202 1.424073119e-09 -1.714564013e-09)
(0.01100000367 1.501493712e-09 -4.658805734e-09)
(0.01100000597 3.741777893e-09 -5.379617878e-09)
(0.01100001193 3.742895289e-09 -9.181736832e-09)
(0.01100001697 9.394251219e-09 -2.075319627e-08)
(0.01100004821 7.683099217e-09 -3.217026312e-08)
(0.01100003634 6.352179509e-09 -4.377252886e-08)
(0.01100012094 4.392028663e-08 -9.745554255e-08)
(0.01099999941 4.966704158e-10 1.750218532e-09)
(0.01099999905 -1.956687714e-09 8.943198803e-10)
(0.01100000168 -6.932536248e-10 -2.714066256e-10)
(0.01100000068 -1.80767525e-09 7.905496755e-10)
(0.01099999981 -1.488536045e-09 -3.042709462e-11)
(0.01099999853 -6.097738231e-10 2.346960557e-10)
(0.01099999979 8.426004308e-10 1.385160628e-09)
(0.01100000139 -8.132676601e-12 -2.435272932e-10)
(0.01099999667 -1.378363329e-09 5.401344827e-10)
(0.01100000046 -5.919120012e-09 1.079431248e-09)
(0.01099999911 -5.181333127e-09 -3.493580212e-10)
(0.01099999524 -1.488086318e-08 -1.240760927e-09)
(0.01100001996 -2.196066189e-08 -8.935098864e-10)
(0.01099997866 -4.406866337e-08 -8.258492005e-10)
(0.01100000045 2.655708434e-10 5.277587982e-10)
(0.01100000188 3.503270008e-12 4.736116889e-10)
(0.01099999931 2.147804803e-11 8.420974034e-10)
(0.01099999885 -9.3350545e-10 5.958421083e-10)
(0.01099999862 -1.611707416e-09 2.646855174e-10)
(0.01099999987 -1.992991293e-09 -4.745892976e-10)
(0.01099999871 -2.118465499e-09 5.982628696e-10)
(0.01099999862 -4.412905275e-09 7.118154979e-10)
(0.01099999678 -7.127224186e-09 7.356180111e-10)
(0.01099999466 -1.821476198e-08 -2.217653064e-10)
(0.01099998657 -2.163928883e-08 -5.222226981e-10)
(0.01099997689 -7.278410143e-08 -9.832051361e-11)
(0.01099997759 -9.268124094e-08 -1.533316456e-09)
(0.01099988618 -2.483779918e-07 -9.898664653e-10)
(0.01099999946 1.081182528e-09 -1.703037238e-10)
(0.01100000005 6.860045181e-10 -8.701787717e-11)
(0.0110000033 -2.656729903e-09 -1.270779646e-09)
(0.01100000031 3.086905582e-10 -5.168644831e-12)
(0.010999997 -2.113044989e-10 1.607973772e-10)
(0.01099999706 -3.098664536e-10 1.318034153e-10)
(0.01099999637 -2.269378469e-09 6.949051727e-10)
(0.01099999624 -8.120741279e-09 -4.941257075e-10)
(0.01099998312 -6.777071232e-09 -1.599727059e-09)
(0.01099998297 -2.379538149e-08 -1.370865461e-10)
(0.0109999388 -1.910536515e-08 -3.211366602e-10)
(0.01099992495 -1.089659115e-07 -4.077264057e-10)
(0.01099977636 -6.59914836e-08 -1.42375676e-09)
(0.01099954851 -4.574978691e-07 1.250680328e-09)
(0.01099999714 -1.447196388e-11 8.93799706e-10)
(0.01099999834 -1.141428312e-10 7.579141191e-10)
(0.01100000058 4.026022089e-10 1.283489683e-10)
(0.011000001 -3.299275722e-10 -7.592975749e-10)
(0.01099999832 -1.574528458e-10 -1.761037078e-09)
(0.01099999869 -1.591533265e-09 -6.308827467e-10)
(0.01099999294 -3.029332368e-09 -2.628250433e-10)
(0.01099999258 -5.280899549e-09 -1.748474503e-09)
(0.01099997334 -8.244487993e-09 -1.778318453e-09)
(0.01099998308 -3.568569935e-08 -5.029751083e-10)
(0.01099989074 -4.328025468e-08 -8.248656665e-10)
(0.01099995192 -2.774807027e-07 3.037783548e-10)
(0.0109994507 -3.220933665e-07 -1.133633442e-09)
(0.010999499 -2.765620898e-06 -4.215999887e-10)
(0.01099999997 -1.571449587e-09 -1.585387218e-09)
(0.01099999905 9.261416205e-10 -1.190974747e-09)
(0.01100000042 2.010627701e-09 -9.45983637e-10)
(0.0109999992 -6.917872691e-10 1.174838056e-11)