/*--------------------------------*- C++ -*----------------------------------*\
| =========                 |                                                 |
| \\      /  F ield         | OpenFOAM: The Open Source CFD Toolbox           |
|  \\    /   O peration     | Version:  4.x                                   |
|   \\  /    A nd           | Web:      www.OpenFOAM.org                      |
|    \\/     M anipulation  |                                                 |
\*---------------------------------------------------------------------------*/
FoamFile
{
    version     2.0;
    format      ascii;
    class       volScalarField;
    location    "9000";
    object      X_CO2;
}
// * * * * * * * * * * * * * * * * * * * * * * * * * * * * * * * * * * * * * //

dimensions      [0 0 0 0 0 0 0];

internalField   nonuniform List<scalar> 
1175
(
0.004151310746
0.004151310817
0.004151311025
0.00415131169
0.004151311593
0.004151311341
0.004151311415
0.004151312168
0.00415131405
0.004151319942
0.00415133605
0.004151380039
0.004151487861
0.00415172689
0.004152196925
0.00415131147
0.00415131123
0.004151311289
0.004151310959
0.004151311065
0.004151311126
0.004151311235
0.00415131218
0.004151314686
0.004151323952
0.004151349899
0.004151422132
0.004151605794
0.004152019941
0.004152835974
0.004151311185
0.004151311064
0.004151310935
0.004151311153
0.004151311033
0.004151311198
0.004151311455
0.004151312757
0.004151316943
0.00415133162
0.004151377272
0.004151509072
0.004151856878
0.004152667271
0.004154268061
0.004151310891
0.004151311123
0.004151310886
0.004151310908
0.004151310973
0.004151310927
0.004151311195
0.004151313298
0.004151319636
0.00415134131
0.004151411537
0.004151623953
0.004152208622
0.004153617523
0.004156422449
0.00415131041
0.004151310334
0.004151310589
0.004151310813
0.004151310715
0.00415131113
0.004151311947
0.004151313859
0.004151321137
0.004151346423
0.004151430362
0.004151693278
0.004152440544
0.004154297967
0.004158042468
0.00415131049
0.004151310365
0.004151310511
0.004151310321
0.004151310823
0.004151311563
0.004151312027
0.004151313761
0.004151319955
0.004151341546
0.004151411722
0.004151623325
0.004152208739
0.004153617951
0.004156422393
0.004151310658
0.004151310942
0.004151310729
0.004151310807
0.004151311122
0.004151311422
0.004151311704
0.004151313009
0.004151317563
0.004151331832
0.004151377337
0.004151509054
0.004151856873
0.004152666834
0.004154268129
0.004151310949
0.004151310969
0.004151311015
0.004151310618
0.004151310819
0.004151310953
0.004151311396
0.004151312437
0.004151315057
0.00415132404
0.004151350208
0.004151422521
0.004151605645
0.004152019755
0.004152835971
0.004151310901
0.004151311052
0.004151310752
0.004151310708
0.004151310668
0.004151311139
0.004151311321
0.004151311886
0.004151314131
0.00415131995
0.004151336165
0.004151380383
0.004151488375
0.004151726931
0.004152197133
0.004151310877
0.004151311043
0.004151310898
0.004151311113
0.004151310682
0.004151311153
0.004151311219
0.004151311882
0.00415131458
0.004151323255
0.004151349653
0.004151422123
0.00415160543
0.004152019467
0.004151311103
0.004151311128
0.004151311218
0.0041513112
0.004151310887
0.004151311462
0.004151311373
0.004151312458
0.004151316376
0.004151331601
0.004151376396
0.004151508307
0.004151859174
0.004152681278
0.004154306519
0.004151311165
0.004151310701
0.004151311033
0.004151310803
0.004151311069
0.00415131119
0.004151311355
0.004151313495
0.004151320799
0.004151346693
0.004151433265
0.004151703507
0.004152468572
0.004154348336
0.004158104305
0.004151310845
0.004151310894
0.004151311189
0.004151310769
0.004151310891
0.004151311276
0.00415131154
0.004151314703
0.004151325636
0.004151366809
0.004151512746
0.004151997925
0.004153470121
0.00415731642
0.004165193779
0.004151310871
0.004151310099
0.004151310662
0.004151310945
0.004151310804
0.004151311193
0.004151312257
0.00415131571
0.004151328297
0.004151378854
0.00415156372
0.004152211428
0.004154295675
0.004160122338
0.004172608411
0.00415131105
0.004151311128
0.004151310581
0.004151310508
0.004151310986
0.004151311296
0.004151312273
0.004151314872
0.004151325979
0.004151367482
0.004151513566
0.004151998636
0.004153469798
0.004157316437
0.004165193729
0.004151310568
0.004151310606
0.004151311161
0.004151310585
0.004151310817
0.004151311674
0.004151311857
0.004151313694
0.004151321158
0.004151347032
0.004151433595
0.004151704288
0.00415246905
0.004154348449
0.004158104077
0.004151310803
0.004151311008
0.004151311187
0.004151311109
0.004151311216
0.00415131126
0.004151311444
0.00415131314
0.004151316861
0.004151331105
0.004151376426
0.004151508437
0.004151859753
0.004152681784
0.004154306893
0.004151310963
0.004151311161
0.004151310895
0.004151310985
0.00415131078
0.004151310958
0.004151311362
0.004151312599
0.004151315142
0.004151323488
0.004151349994
0.004151422303
0.004151605686
0.004152019603
0.004152835584
0.004151311135
0.004151311102
0.004151311006
0.004151311017
0.004151310793
0.004151310871
0.004151311021
0.004151312178
0.004151316878
0.004151331649
0.004151377208
0.004151509065
0.004151856853
0.00415266708
0.004151310792
0.004151310577
0.004151310363
0.004151310714
0.004151310815
0.004151310973
0.004151312066
0.004151313678
0.004151320998
0.004151347256
0.00415143365
0.004151703553
0.004152468497
0.004154348257
0.004151311218
0.004151311061
0.004151311208
0.004151310829
0.004151310541
0.00415131097
0.004151312208
0.004151314808
0.00415132825
0.004151379796
0.004151565061
0.00415219411
0.004154136
0.004159281573
0.004169864457
0.00415131044
0.004151310579
0.00415131048
0.00415131068
0.00415131054
0.004151311041
0.004151312558
0.004151317949
0.004151339565
0.004151427644
0.00415177168
0.004153052567
0.004157426104
0.004170275505
0.004198474027
0.004151311249
0.004151310952
0.004151310349
0.004151310317
0.004151310265
0.004151311262
0.004151313144
0.004151319106
0.004151345481
0.004151458579
0.004151927546
0.004153812776
0.004160936619
0.004184703173
0.004243878432
0.004151311209
0.004151310988
0.004151310625
0.004151310548
0.004151310984
0.004151311449
0.004151312598
0.004151317484
0.004151339232
0.004151427659
0.004151772047
0.004153052421
0.004157426139
0.004170275069
0.004198472518
0.004151310808
0.004151311105
0.004151311002
0.004151311017
0.004151311053
0.004151311126
0.004151312287
0.004151315588
0.004151329038
0.004151380142
0.004151565616
0.004152194911
0.004154136304
0.004159281515
0.004169863132
0.004151311152
0.004151311243
0.004151311278
0.00415131149
0.004151311192
0.004151311279
0.004151311578
0.004151313679
0.004151321197
0.004151346944
0.004151433823
0.004151703943
0.004152468841
0.004154347967
0.004158103737
0.00415131103
0.004151310846
0.004151311038
0.004151310694
0.004151310774
0.004151311122
0.004151311523
0.004151312601
0.004151317042
0.004151331727
0.004151377271
0.004151509139
0.004151857102
0.004152667439
0.00415426778
0.004151310646
0.004151310914
0.004151311123
0.004151310671
0.004151310839
0.004151310765
0.004151311778
0.004151313412
0.004151319586
0.004151341396
0.004151411154
0.004151623617
0.004152208948
0.004153618177
0.004151310535
0.004151310499
0.004151310921
0.004151311011
0.004151311025
0.004151311113
0.004151312087
0.004151314801
0.004151325665
0.004151367131
0.004151512888
0.004151998251
0.004153470106
0.004157316962
0.004151311083
0.004151311182
0.004151310897
0.004151310748
0.004151310891
0.004151311268
0.004151312609
0.004151317662
0.004151339438
0.004151427009
0.004151771481
0.004153052762
0.004157426599
0.004170277106
0.00415131086
0.004151310931
0.004151310966
0.004151310894
0.004151310868
0.004151311642
0.004151313145
0.004151321711
0.004151358747
0.004151521927
0.004152231006
0.004155216674
0.004167019265
0.004208027037
0.004312913229
0.00415131034
0.004151310771
0.004151310616
0.00415131067
0.004151311166
0.004151311513
0.004151313722
0.004151324038
0.004151371276
0.004151593313
0.004152645268
0.004157631554
0.004180865046
0.004282231241
0.004634250171
0.004151311122
0.004151310962
0.004151310508
0.004151310781
0.004151310962
0.004151311237
0.004151313166
0.004151321635
0.004151358797
0.004151522227
0.004152231225
0.004155216821
0.004167019273
0.004208023594
0.004312899715
0.004151311146
0.004151311121
0.004151310323
0.004151310753
0.004151310434
0.004151310742
0.004151312073
0.004151317304
0.004151339168
0.00415142704
0.004151771665
0.004153052678
0.004157426041
0.004170274644
0.004198472842
0.004151311295
0.004151311412
0.004151311008
0.004151311478
0.004151311159
0.004151311344
0.004151311524
0.004151314369
0.004151325444
0.004151366358
0.004151512582
0.004151998264
0.004153469836
0.004157316007
0.004165193332
0.004151311282
0.00415131115
0.004151311013
0.004151310655
0.004151310752
0.004151310693
0.004151311211
0.004151313125
0.004151319432
0.004151341135
0.004151411623
0.004151623414
0.004152208911
0.004153617936
0.004156422688
0.004151310891
0.004151310681
0.004151310316
0.004151310902
0.004151310792
0.004151311258
0.004151311564
0.004151313444
0.00415132113
0.004151346231
0.004151430845
0.004151693158
0.004152440689
0.004154299044
0.004151310331
0.004151310511
0.004151310717
0.00415131106
0.004151310722
0.004151311234
0.004151311932
0.004151315214
0.004151328256
0.004151378829
0.004151563615
0.004152211712
0.004154296296
0.004160123593
0.004151310529
0.004151310746
0.004151310528
0.004151311002
0.004151311559
0.004151311253
0.004151312891
0.004151318599
0.004151345672
0.004151458756
0.004151927692
0.004153813159
0.004160937497
0.00418470734
0.00415131112
0.004151311079
0.004151311315
0.004151311159
0.004151311051
0.004151311585
0.004151313843
0.00415132423
0.004151371294
0.004151593126
0.004152645052
0.004157631952
0.004180867077
0.004282245811
0.004151310844
0.004151310455
0.004151310834
0.004151311195
0.004151310801
0.004151311533
0.004151314296
0.004151326924
0.004151389022
0.004151708045
0.004153412279
0.004163058963
0.00422141956
0.004601342633
0.007278321862
0.004151310923
0.004151310855
0.004151311023
0.004151310708
0.00415131086
0.004151311079
0.004151313016
0.004151323777
0.004151371009
0.004151593263
0.00415264503
0.004157631735
0.004180865549
0.004282233073
0.004634251023
0.00415131139
0.004151310934
0.00415131069
0.00415131079
0.004151310739
0.004151310593
0.004151312462
0.004151318977
0.004151345521
0.004151458295
0.004151927265
0.004153812591
0.004160936529
0.004184703102
0.004243879011
0.004151311451
0.00415131116
0.004151311303
0.004151311125
0.004151310919
0.004151311158
0.004151311839
0.004151314965
0.004151328297
0.004151378462
0.004151563726
0.004152211293
0.004154295272
0.004160122581
0.004172607371
0.004151311157
0.00415131093
0.004151310712
0.004151310576
0.004151310781
0.004151310743
0.004151311281
0.004151313512
0.004151320665
0.004151346223
0.004151429929
0.004151692701
0.004152440576
0.004154298115
0.004158042286
0.00415131055
0.004151310564
0.004151310959
0.004151311117
0.004151311251
0.004151311271
0.004151311493
0.004151313306
0.004151319905
0.004151341336
0.004151411459
0.004151623401
0.004152208338
0.004153618459
0.004151310532
0.004151310528
0.004151310838
0.004151311027
0.004151310625
0.004151311064
0.004151311759
0.004151314299
0.004151325467
0.004151366703
0.004151512447
0.004151998436
0.004153469756
0.004157317277
0.004151310555
0.004151310741
0.004151310244
0.004151310589
0.004151311153
0.00415131142
0.00415131218
0.004151317426
0.004151339302
0.004151427492
0.004151771725
0.004153052576
0.004157426617
0.004170277496
0.004151311003
0.004151310579
0.004151310576
0.004151310631
0.004151310948
0.004151311116
0.004151313299
0.004151321657
0.00415135884
0.004151521892
0.004152230716
0.004155216523
0.004167019914
0.004208031072
0.004151310819
0.004151310895
0.004151310622
0.00415131099
0.00415131081
0.004151311099
0.00415131371
0.004151323946
0.004151371262
0.004151592989
0.004152644754
0.004157631608
0.00418086739
0.004282247469
0.004151310926
0.004151310545
0.004151310464
0.004151310409
0.004151310753
0.004151311293
0.004151313288
0.004151321845
0.004151358988
0.004151522077
0.004152231071
0.004155216454
0.004167019697
0.004208030455
0.004151310985
0.004151311019
0.004151310744
0.004151310553
0.004151310534
0.004151310999
0.004151311877
0.004151317616
0.004151339328
0.004151427457
0.00415177149
0.004153052743
0.004157426111
0.004170275881
0.004198476587
0.004151311114
0.004151311346
0.004151311282
0.004151311053
0.004151311012
0.004151311296
0.004151312303
0.004151314861
0.004151325562
0.004151366774
0.004151512773
0.004151998079
0.004153469545
0.00415731641
0.004165193994
0.004151311203
0.004151311558
0.004151311328
0.004151311098
0.004151310835
0.004151310987
0.004151310902
0.004151312791
0.004151319216
0.00415134105
0.004151411406
0.004151623703
0.004152208919
0.004153618064
0.004156422894
0.004151310765
0.004151310848
0.004151310469
0.004151310739
0.004151310832
0.004151310701
0.004151311736
0.004151312514
0.004151317569
0.004151331988
0.004151377302
0.004151509194
0.004151857264
0.004152667568
0.004151310149
0.004151310259
0.004151310928
0.00415131043
0.004151310218
0.004151310956
0.004151311696
0.004151313474
0.004151321074
0.004151346477
0.004151433191
0.004151703212
0.004152468277
0.004154348592
0.004151310306
0.004151310816
0.004151310733
0.004151311198
0.004151310697
0.004151310933
0.004151311931
0.004151315453
0.004151329041
0.004151380152
0.004151565411
0.004152194517
0.004154136309
0.004159282528
0.004151310802
0.004151310641
0.004151310827
0.004151310775
0.004151310885
0.004151310897
0.004151312363
0.004151317053
0.004151339116
0.004151427109
0.004151771306
0.004153052444
0.004157426329
0.004170277054
0.00415131056
0.004151310545
0.004151310928
0.004151310596
0.004151310753
0.004151311482
0.004151312516
0.004151318902
0.004151345766
0.004151458024
0.004151927219
0.004153813027
0.004160937738
0.004184707781
0.004151310573
0.004151310271
0.004151310427
0.004151310641
0.004151310163
0.004151311336
0.004151312782
0.004151318107
0.00415133925
0.004151427275
0.004151771065
0.004153052091
0.004157426283
0.004170277414
0.004151310559
0.00415131087
0.00415131072
0.004151311023
0.004151310854
0.004151310885
0.004151311682
0.004151315637
0.004151328788
0.00415137934
0.004151564328
0.004152193639
0.004154135622
0.004159281864
0.004151311273
0.00415131122
0.004151310883
0.004151311265
0.004151310925
0.004151311031
0.004151311447
0.004151313096
0.004151320724
0.004151346064
0.004151432756
0.004151703233
0.004152468601
0.00415434798
0.004158104129
0.004151311242
0.00415131115
0.004151311027
0.004151311005
0.004151310429
0.004151310778
0.00415131152
0.004151312749
0.004151317154
0.004151331507
0.004151376928
0.004151508813
0.004151856997
0.004152666808
0.004154267494
0.00415131046
0.004151310218
0.00415131032
0.004151310381
0.004151310892
0.004151310782
0.004151311165
0.004151312167
0.004151314675
0.004151323792
0.004151349732
0.004151421743
0.004151605085
0.004152019535
0.004151310637
0.004151310608
0.004151310715
0.004151310636
0.004151310667
0.004151310764
0.004151311491
0.004151312547
0.004151316838
0.004151331
0.004151375915
0.004151507892
0.004151858721
0.004152680483
0.004151310895
0.004151310879
0.004151310263
0.004151310338
0.00415131037
0.004151310778
0.004151311511
0.004151313187
0.004151320738
0.004151346739
0.004151433247
0.004151703284
0.00415246823
0.004154348245
0.004151310624
0.00415131081
0.004151310188
0.004151310415
0.004151310504
0.004151310762
0.004151311014
0.004151314467
0.004151325721
0.00415136659
0.004151512686
0.004151997815
0.004153469603
0.004157316494
0.004151310399
0.004151310606
0.004151310657
0.004151310923
0.004151310892
0.004151311161
0.004151311974
0.004151314985
0.004151328131
0.004151378217
0.004151563467
0.004152211152
0.004154295919
0.004160123361
0.00415131096
0.004151310754
0.004151311193
0.004151310569
0.00415131101
0.004151311193
0.004151311763
0.004151314581
0.004151325932
0.004151367039
0.004151512546
0.004151997998
0.004153469492
0.00415731639
0.004151310818
0.004151310972
0.004151310529
0.004151310657
0.004151311113
0.004151310746
0.00415131183
0.004151313586
0.004151320893
0.004151346486
0.004151433141
0.004151703063
0.004152468214
0.004154347619
0.004151310616
0.00415131072
0.004151311008
0.004151311312
0.004151310624
0.004151310376
0.004151311257
0.004151312331
0.004151316628
0.004151330822
0.004151376157
0.004151508113
0.004151858955
0.004152681175
0.004151310913
0.004151310931
0.004151311132
0.004151311117
0.004151310415
0.0041513114
0.004151310873
0.004151311784
0.004151314785
0.00415132326
0.004151349852
0.004151422085
0.004151605211
0.004152019045
0.004152835784
0.00415131065
0.004151310483
0.004151310291
0.004151310522
0.004151310577
0.004151310167
0.004151310707
0.004151311323
0.004151313217
0.004151319454
0.004151335958
0.004151380261
0.004151488107
0.004151726897
0.004151310668
0.004151310471
0.004151310581
0.004151310736
0.004151310032
0.004151310512
0.004151310848
0.004151311697
0.004151314527
0.004151322974
0.004151349576
0.004151421919
0.004151605288
0.004152019562
0.004151310756
0.00415131054
0.004151310489
0.004151310592
0.004151310075
0.004151310279
0.004151311322
0.004151312331
0.004151316867
0.004151331775
0.004151377158
0.004151508837
0.004151857174
0.004152667294
0.004151310446
0.0041513101
0.004151310441
0.004151310322
0.004151310492
0.004151310233
0.004151311039
0.004151313355
0.004151319515
0.004151341216
0.004151410928
0.004151623227
0.004152208451
0.004153617934
0.004151310451
0.004151310431
0.004151310701
0.004151310829
0.004151310896
0.00415131066
0.004151311523
0.00415131337
0.00415132057
0.004151345868
0.004151430167
0.004151693088
0.004152440627
0.004154298443
0.004151310423
0.004151311086
0.004151310974
0.004151310904
0.004151311127
0.004151310878
0.004151311393
0.004151312971
0.004151319048
0.0041513408
0.004151411059
0.004151623157
0.004152208326
0.004153617676
0.004151311265
0.004151310536
0.004151310589
0.004151310697
0.004151311017
0.004151311073
0.00415131109
0.004151312807
0.004151316832
0.004151331671
0.004151377011
0.004151509083
0.004151856685
0.004152666901
0.004151310949
0.004151310508
0.004151310551
0.004151311026
0.004151310552
0.004151310723
0.004151310916
0.004151312107
0.004151314941
0.004151323513
0.004151349297
0.004151421604
0.004151604805
0.004152019205
0.004151310827
0.004151310799
0.004151310939
0.004151310767
0.004151310662
0.004151310748
0.004151310873
0.004151311268
0.004151313005
0.004151319164
0.004151335974
0.004151380218
0.004151487629
0.00415172633
)
;

boundaryField
{
    top
    {
        type            calculated;
        value           nonuniform List<scalar> 
134
(
0.004151310901
0.004151310963
0.00415131103
0.004151311282
0.004151311157
0.004151311203
0.004151311242
0.004151310913
0.004151310827
0.004151311052
0.004151311161
0.004151310846
0.00415131115
0.00415131093
0.004151311558
0.00415131115
0.004151310931
0.004151310799
0.004151310752
0.004151310895
0.004151311038
0.004151311013
0.004151310712
0.004151311328
0.004151311027
0.004151311132
0.004151310939
0.004151310708
0.004151310985
0.004151310694
0.004151310655
0.004151310576
0.004151311098
0.004151311005
0.004151311117
0.004151310767
0.004151310668
0.00415131078
0.004151310774
0.004151310752
0.004151310781
0.004151310835
0.004151310429
0.004151310415
0.004151310662
0.004151311139
0.004151310958
0.004151311122
0.004151310693
0.004151310743
0.004151310987
0.004151310778
0.0041513114
0.004151310748
0.004151311321
0.004151311362
0.004151311523
0.004151311211
0.004151311281
0.004151310902
0.00415131152
0.004151310873
0.004151310873
0.004151311886
0.004151312599
0.004151312601
0.004151313125
0.004151313512
0.004151312791
0.004151312749
0.004151311784
0.004151311268
0.004151314131
0.004151315142
0.004151317042
0.004151319432
0.004151320665
0.004151319216
0.004151317154
0.004151314785
0.004151313005
0.00415131995
0.004151323488
0.004151331727
0.004151341135
0.004151346223
0.00415134105
0.004151331507
0.00415132326
0.004151319164
0.004151336165
0.004151349994
0.004151377271
0.004151411623
0.004151429929
0.004151411406
0.004151376928
0.004151349852
0.004151335974
0.004151380383
0.004151422303
0.004151509139
0.004151623414
0.004151692701
0.004151623703
0.004151508813
0.004151422085
0.004151380218
0.004151488375
0.004151605686
0.004151857102
0.004152208911
0.004152440576
0.004152208919
0.004151856997
0.004151605211
0.004151487629
0.004151726931
0.004152019603
0.004152667439
0.004153617936
0.004154298115
0.004153618064
0.004152666808
0.004152019045
0.00415172633
0.004152197133
0.004152835584
0.00415426778
0.004156422688
0.004158042286
0.004156422894
0.004154267494
0.004152835784
)
;
    }
    bottom
    {
        type            calculated;
        value           nonuniform List<scalar> 
127
(
0.004151310746
0.004151310877
0.004151311135
0.004151310646
0.004151310891
0.00415131055
0.004151310765
0.00415131046
0.00415131065
0.004151310817
0.004151311043
0.004151311102
0.004151310914
0.004151310681
0.004151310564
0.004151310848
0.004151310218
0.004151310483
0.004151311025
0.004151310898
0.004151311006
0.004151311123
0.004151310316
0.004151310959
0.004151310469
0.00415131032
0.004151310291
0.00415131169
0.004151311113
0.004151311017
0.004151310671
0.004151310902
0.004151311117
0.004151310739
0.004151310381
0.004151310522
0.004151311593
0.004151310682
0.004151310793
0.004151310839
0.004151310792
0.004151311251
0.004151310832
0.004151310892
0.004151310577
0.004151311341
0.004151311153
0.004151310871
0.004151310765
0.004151311258
0.004151311271
0.004151310701
0.004151310782
0.004151310167
0.004151311415
0.004151311219
0.004151311021
0.004151311778
0.004151311564
0.004151311493
0.004151311736
0.004151311165
0.004151310707
0.004151312168
0.004151311882
0.004151312178
0.004151313412
0.004151313444
0.004151313306
0.004151312514
0.004151312167
0.004151311323
0.00415131405
0.00415131458
0.004151316878
0.004151319586
0.00415132113
0.004151319905
0.004151317569
0.004151314675
0.004151313217
0.004151319942
0.004151323255
0.004151331649
0.004151341396
0.004151346231
0.004151341336
0.004151331988
0.004151323792
0.004151319454
0.00415133605
0.004151349653
0.004151377208
0.004151411154
0.004151430845
0.004151411459
0.004151377302
0.004151349732
0.004151335958
0.004151380039
0.004151422123
0.004151509065
0.004151623617
0.004151693158
0.004151623401
0.004151509194
0.004151421743
0.004151380261
0.004151487861
0.00415160543
0.004151856853
0.004152208948
0.004152440689
0.004152208338
0.004151857264
0.004151605085
0.004151488107
0.00415172689
0.004152019467
0.00415266708
0.004153618177
0.004154299044
0.004153618459
0.004152667568
0.004152019535
0.004151726897
0.004152196925
)
;
    }
    side-walls
    {
        type            calculated;
        value           nonuniform List<scalar> 
261
(
0.004151310746
0.00415131147
0.004151311185
0.004151310891
0.00415131041
0.00415131049
0.004151310658
0.004151310949
0.004151310901
0.004151310817
0.00415131123
0.004151311064
0.004151311123
0.004151310334
0.004151310365
0.004151310942
0.004151310969
0.004151311052
0.004151311025
0.004151311289
0.004151310935
0.004151310886
0.004151310589
0.004151310511
0.004151310729
0.004151311015
0.004151310752
0.00415131169
0.004151310959
0.004151311153
0.004151310908
0.004151310813
0.004151310321
0.004151310807
0.004151310618
0.004151310708
0.004151311593
0.004151311065
0.004151311033
0.004151310973
0.004151310715
0.004151310823
0.004151311122
0.004151310819
0.004151310668
0.004151311341
0.004151311126
0.004151311198
0.004151310927
0.00415131113
0.004151311563
0.004151311422
0.004151310953
0.004151311139
0.004151311415
0.004151311235
0.004151311455
0.004151311195
0.004151311947
0.004151312027
0.004151311704
0.004151311396
0.004151311321
0.004151312168
0.00415131218
0.004151312757
0.004151313298
0.004151313859
0.004151313761
0.004151313009
0.004151312437
0.004151311886
0.00415131405
0.004151314686
0.004151316943
0.004151319636
0.004151321137
0.004151319955
0.004151317563
0.004151315057
0.004151314131
0.004151319942
0.004151323952
0.00415133162
0.00415134131
0.004151346423
0.004151341546
0.004151331832
0.00415132404
0.00415131995
0.00415133605
0.004151349899
0.004151377272
0.004151411537
0.004151430362
0.004151411722
0.004151377337
0.004151350208
0.004151336165
0.004151380039
0.004151422132
0.004151509072
0.004151623953
0.004151693278
0.004151623325
0.004151509054
0.004151422521
0.004151380383
0.004151487861
0.004151605794
0.004151856878
0.004152208622
0.004152440544
0.004152208739
0.004151856873
0.004151605645
0.004151488375
0.00415172689
0.004152019941
0.004152667271
0.004153617523
0.004154297967
0.004153617951
0.004152666834
0.004152019755
0.004151726931
0.004152196925
0.004152835974
0.004154268061
0.004156422449
0.004158042468
0.004156422393
0.004154268129
0.004152835971
0.004152197133
0.00415131065
0.004151310668
0.004151310756
0.004151310446
0.004151310451
0.004151310423
0.004151311265
0.004151310949
0.004151310827
0.004151310483
0.004151310471
0.00415131054
0.0041513101
0.004151310431
0.004151311086
0.004151310536
0.004151310508
0.004151310799
0.004151310291
0.004151310581
0.004151310489
0.004151310441
0.004151310701
0.004151310974
0.004151310589
0.004151310551
0.004151310939
0.004151310522
0.004151310736
0.004151310592
0.004151310322
0.004151310829
0.004151310904
0.004151310697
0.004151311026
0.004151310767
0.004151310577
0.004151310032
0.004151310075
0.004151310492
0.004151310896
0.004151311127
0.004151311017
0.004151310552
0.004151310662
0.004151310167
0.004151310512
0.004151310279
0.004151310233
0.00415131066
0.004151310878
0.004151311073
0.004151310723
0.004151310748
0.004151310707
0.004151310848
0.004151311322
0.004151311039
0.004151311523
0.004151311393
0.00415131109
0.004151310916
0.004151310873
0.004151311323
0.004151311697
0.004151312331
0.004151313355
0.00415131337
0.004151312971
0.004151312807
0.004151312107
0.004151311268
0.004151313217
0.004151314527
0.004151316867
0.004151319515
0.00415132057
0.004151319048
0.004151316832
0.004151314941
0.004151313005
0.004151319454
0.004151322974
0.004151331775
0.004151341216
0.004151345868
0.0041513408
0.004151331671
0.004151323513
0.004151319164
0.004151335958
0.004151349576
0.004151377158
0.004151410928
0.004151430167
0.004151411059
0.004151377011
0.004151349297
0.004151335974
0.004151380261
0.004151421919
0.004151508837
0.004151623227
0.004151693088
0.004151623157
0.004151509083
0.004151421604
0.004151380218
0.004151488107
0.004151605288
0.004151857174
0.004152208451
0.004152440627
0.004152208326
0.004151856685
0.004151604805
0.004151487629
0.004151726897
0.004152019562
0.004152667294
0.004153617934
0.004154298443
0.004153617676
0.004152666901
0.004152019205
0.00415172633
)
;
    }
    inlet
    {
        type            calculated;
        value           nonuniform List<scalar> 
81
(
0.004151310746
0.00415131147
0.004151311185
0.004151310891
0.00415131041
0.00415131049
0.004151310658
0.004151310949
0.004151310901
0.004151310877
0.004151311103
0.004151311165
0.004151310845
0.004151310871
0.00415131105
0.004151310568
0.004151310803
0.004151310963
0.004151311135
0.004151310792
0.004151311218
0.00415131044
0.004151311249
0.004151311209
0.004151310808
0.004151311152
0.00415131103
0.004151310646
0.004151310535
0.004151311083
0.00415131086
0.00415131034
0.004151311122
0.004151311146
0.004151311295
0.004151311282
0.004151310891
0.004151310331
0.004151310529
0.00415131112
0.004151310844
0.004151310923
0.00415131139
0.004151311451
0.004151311157
0.00415131055
0.004151310532
0.004151310555
0.004151311003
0.004151310819
0.004151310926
0.004151310985
0.004151311114
0.004151311203
0.004151310765
0.004151310149
0.004151310306
0.004151310802
0.00415131056
0.004151310573
0.004151310559
0.004151311273
0.004151311242
0.00415131046
0.004151310637
0.004151310895
0.004151310624
0.004151310399
0.00415131096
0.004151310818
0.004151310616
0.004151310913
0.00415131065
0.004151310668
0.004151310756
0.004151310446
0.004151310451
0.004151310423
0.004151311265
0.004151310949
0.004151310827
)
;
    }
    outlet
    {
        type            calculated;
        value           nonuniform 0();
    }
    procBoundary0to1
    {
        type            processor;
        value           nonuniform List<scalar> 
97
(
0.004153016869
0.004152836051
0.004154218151
0.004156875148
0.004160775578
0.00416356595
0.004160775949
0.004156875523
0.004154218397
0.004153016755
0.004152836051
0.004152836051
0.004156932114
0.004158104254
0.004163770945
0.004175947443
0.004187459317
0.004175947039
0.004163770549
0.00415693182
0.004154218105
0.004154267767
0.004158104254
0.004158104254
0.004184010554
0.00419847751
0.004229117872
0.004288315648
0.004229116293
0.004184010241
0.004163769795
0.004156874977
0.004156422479
0.00416519477
0.00419847751
0.00419847751
0.004384045208
0.00463429627
0.00468874462
0.004384039222
0.00422911659
0.00417594684
0.004160775791
0.004158042807
0.004172608985
0.004243885073
0.00463429627
0.00463429627
0.006003237396
0.004634294669
0.004688743479
0.004312912697
0.004288315734
0.004187458638
0.004163565682
0.004156422949
0.00416519426
0.00419847543
0.00431291121
0.004634294669
0.004312912697
0.004312912697
0.004229117451
0.004169864584
0.004175947325
0.004160775406
0.004154268192
0.004158103935
0.004169864432
0.004198475238
0.004243884984
0.004198474887
0.004169864584
0.004169864584
0.004163770357
0.004154306112
0.00415687504
0.004152835616
0.004154305774
0.004158103611
0.004165194231
0.004172608617
0.004165194262
0.004158103406
0.004154306112
0.004154306112
0.004154217821
0.004152196785
0.004152196646
0.004152835987
0.004154267751
0.004156422728
0.00415804261
0.004156422775
0.004154267723
0.004152835318
0.004152196785
)
;
    }
}


// ************************************************************************* //
