/*--------------------------------*- C++ -*----------------------------------*\
| =========                 |                                                 |
| \\      /  F ield         | OpenFOAM: The Open Source CFD Toolbox           |
|  \\    /   O peration     | Version:  4.x                                   |
|   \\  /    A nd           | Web:      www.OpenFOAM.org                      |
|    \\/     M anipulation  |                                                 |
\*---------------------------------------------------------------------------*/
FoamFile
{
    version     2.0;
    format      ascii;
    class       volScalarField;
    location    "9000";
    object      X_CO;
}
// * * * * * * * * * * * * * * * * * * * * * * * * * * * * * * * * * * * * * //

dimensions      [0 0 0 0 0 0 0];

internalField   nonuniform List<scalar> 
1175
(
0.3728740611
0.3728740611
0.372874061
0.3728740608
0.3728740608
0.3728740609
0.3728740607
0.3728740601
0.3728740582
0.3728740523
0.3728740359
0.3728739919
0.3728738841
0.3728736454
0.3728731753
0.3728740609
0.372874061
0.3728740609
0.3728740611
0.372874061
0.3728740609
0.3728740607
0.3728740599
0.3728740572
0.3728740482
0.3728740221
0.3728739498
0.3728737665
0.3728733525
0.3728725366
0.372874061
0.372874061
0.3728740611
0.372874061
0.372874061
0.3728740609
0.3728740606
0.3728740593
0.3728740549
0.3728740403
0.3728739947
0.3728738629
0.372873515
0.372872705
0.3728711049
0.3728740611
0.372874061
0.3728740611
0.3728740611
0.372874061
0.372874061
0.3728740606
0.3728740587
0.3728740523
0.3728740307
0.3728739606
0.3728737482
0.3728731634
0.3728717547
0.3728689508
0.3728740613
0.3728740613
0.3728740612
0.3728740611
0.3728740611
0.3728740609
0.3728740602
0.3728740583
0.372874051
0.3728740257
0.3728739416
0.3728736789
0.3728729316
0.3728710745
0.3728673312
0.3728740612
0.3728740613
0.3728740612
0.3728740613
0.3728740611
0.3728740607
0.3728740603
0.3728740585
0.3728740522
0.3728740306
0.3728739605
0.3728737485
0.3728731634
0.3728717545
0.3728689508
0.3728740612
0.3728740611
0.3728740612
0.3728740611
0.372874061
0.3728740608
0.3728740605
0.3728740592
0.3728740547
0.3728740402
0.3728739947
0.3728738629
0.372873515
0.3728727052
0.3728711049
0.3728740611
0.3728740611
0.372874061
0.3728740612
0.3728740611
0.372874061
0.3728740607
0.3728740598
0.372874057
0.3728740482
0.372874022
0.3728739497
0.3728737666
0.3728733526
0.3728725367
0.3728740611
0.372874061
0.3728740611
0.3728740612
0.3728740612
0.372874061
0.3728740608
0.3728740602
0.3728740581
0.3728740523
0.3728740359
0.3728739917
0.3728738839
0.3728736453
0.3728731753
0.3728740611
0.372874061
0.3728740611
0.372874061
0.3728740612
0.3728740609
0.3728740608
0.37287406
0.3728740572
0.3728740484
0.3728740222
0.3728739498
0.3728737667
0.3728733527
0.372874061
0.372874061
0.372874061
0.372874061
0.3728740611
0.3728740608
0.3728740606
0.3728740594
0.3728740552
0.3728740406
0.3728739956
0.3728738637
0.3728735129
0.3728726912
0.3728710665
0.372874061
0.3728740612
0.372874061
0.3728740611
0.372874061
0.3728740609
0.3728740605
0.3728740584
0.3728740511
0.3728740252
0.3728739386
0.3728736684
0.3728729037
0.3728710245
0.3728672697
0.3728740611
0.3728740611
0.372874061
0.3728740611
0.3728740611
0.3728740608
0.3728740602
0.3728740572
0.3728740462
0.3728740051
0.3728738593
0.372873374
0.3728719025
0.3728680569
0.3728601812
0.3728740611
0.3728740614
0.3728740612
0.3728740611
0.3728740611
0.3728740608
0.3728740599
0.3728740565
0.3728740435
0.3728739932
0.3728738083
0.3728731608
0.3728710768
0.3728652511
0.3728527677
0.372874061
0.372874061
0.3728740612
0.3728740612
0.372874061
0.3728740608
0.37287406
0.3728740572
0.3728740461
0.3728740048
0.372873859
0.3728733737
0.3728719027
0.3728680569
0.3728601813
0.3728740612
0.3728740612
0.372874061
0.3728740612
0.3728740611
0.3728740607
0.3728740603
0.3728740583
0.3728740509
0.372874025
0.3728739385
0.3728736682
0.3728729035
0.3728710245
0.3728672699
0.3728740611
0.372874061
0.372874061
0.372874061
0.3728740609
0.3728740609
0.3728740606
0.3728740592
0.3728740551
0.3728740407
0.3728739956
0.3728738637
0.3728735127
0.372872691
0.3728710664
0.3728740611
0.372874061
0.3728740611
0.3728740611
0.3728740611
0.372874061
0.3728740607
0.3728740597
0.372874057
0.3728740484
0.3728740221
0.3728739498
0.3728737666
0.3728733526
0.3728725368
0.372874061
0.372874061
0.372874061
0.372874061
0.3728740611
0.372874061
0.3728740607
0.3728740595
0.3728740549
0.3728740403
0.3728739948
0.3728738629
0.372873515
0.3728727051
0.3728740611
0.3728740612
0.3728740613
0.3728740612
0.3728740611
0.3728740609
0.3728740602
0.3728740583
0.372874051
0.372874025
0.3728739385
0.3728736684
0.3728729037
0.3728710245
0.372874061
0.372874061
0.372874061
0.3728740611
0.3728740612
0.3728740609
0.3728740599
0.3728740567
0.3728740433
0.372873992
0.3728738069
0.3728731779
0.3728712365
0.3728660919
0.3728555119
0.3728740613
0.3728740612
0.3728740612
0.3728740612
0.3728740612
0.3728740608
0.3728740594
0.3728740541
0.3728740325
0.3728739446
0.3728736004
0.3728723197
0.3728679468
0.3728550994
0.3728269059
0.372874061
0.3728740611
0.3728740613
0.3728740613
0.3728740613
0.3728740607
0.3728740591
0.3728740529
0.3728740264
0.3728739135
0.3728734446
0.3728715596
0.3728644367
0.3728406725
0.3727815043
0.372874061
0.3728740611
0.3728740612
0.3728740612
0.372874061
0.3728740606
0.3728740594
0.3728740543
0.3728740326
0.3728739445
0.3728736003
0.3728723198
0.3728679469
0.3728550997
0.3728269069
0.3728740611
0.372874061
0.372874061
0.372874061
0.372874061
0.3728740608
0.3728740598
0.3728740564
0.372874043
0.3728739919
0.3728738067
0.3728731776
0.3728712364
0.372866092
0.3728555126
0.372874061
0.372874061
0.3728740609
0.3728740609
0.3728740609
0.3728740608
0.3728740604
0.3728740583
0.3728740509
0.3728740251
0.3728739384
0.3728736683
0.3728729036
0.3728710247
0.37286727
0.372874061
0.3728740611
0.372874061
0.3728740612
0.3728740611
0.3728740609
0.3728740605
0.3728740593
0.3728740549
0.3728740402
0.3728739947
0.3728738629
0.372873515
0.372872705
0.372871105
0.3728740612
0.3728740611
0.372874061
0.3728740612
0.3728740611
0.372874061
0.3728740603
0.3728740586
0.3728740524
0.3728740307
0.3728739607
0.3728737484
0.3728731633
0.3728717544
0.3728740612
0.3728740612
0.3728740611
0.372874061
0.372874061
0.3728740609
0.37287406
0.3728740572
0.3728740462
0.3728740049
0.3728738592
0.3728733738
0.3728719025
0.3728680566
0.372874061
0.372874061
0.3728740611
0.3728740611
0.372874061
0.3728740607
0.3728740594
0.3728740542
0.3728740325
0.3728739448
0.3728736005
0.3728723196
0.3728679466
0.3728550986
0.3728740611
0.3728740611
0.3728740611
0.3728740611
0.372874061
0.3728740605
0.3728740587
0.3728740503
0.3728740133
0.3728738501
0.3728731411
0.3728701558
0.3728583545
0.372817352
0.3727124826
0.3728740613
0.3728740611
0.3728740612
0.3728740612
0.3728740609
0.3728740605
0.3728740583
0.372874048
0.3728740007
0.3728737787
0.3728727269
0.372867741
0.3728445092
0.3727431491
0.3723911518
0.372874061
0.3728740611
0.3728740612
0.3728740611
0.372874061
0.3728740606
0.3728740587
0.3728740503
0.3728740133
0.37287385
0.372873141
0.3728701558
0.3728583547
0.3728173539
0.3727124897
0.372874061
0.372874061
0.3728740613
0.3728740611
0.3728740612
0.3728740609
0.3728740596
0.3728740544
0.3728740326
0.3728739448
0.3728736004
0.3728723197
0.3728679469
0.3728550998
0.3728269067
0.3728740609
0.3728740609
0.372874061
0.3728740609
0.372874061
0.3728740608
0.3728740602
0.3728740573
0.3728740463
0.3728740052
0.3728738593
0.3728733739
0.3728719026
0.372868057
0.3728601814
0.3728740609
0.372874061
0.372874061
0.3728740612
0.3728740611
0.3728740611
0.3728740606
0.3728740587
0.3728740524
0.3728740308
0.3728739606
0.3728737484
0.3728731633
0.3728717545
0.3728689507
0.3728740611
0.3728740612
0.3728740613
0.3728740611
0.3728740611
0.3728740608
0.3728740604
0.3728740584
0.372874051
0.3728740258
0.3728739414
0.372873679
0.3728729316
0.372871074
0.3728740613
0.3728740612
0.3728740612
0.372874061
0.3728740611
0.3728740608
0.37287406
0.3728740567
0.3728740436
0.3728739932
0.3728738083
0.3728731607
0.3728710766
0.3728652505
0.3728740612
0.3728740611
0.3728740612
0.372874061
0.3728740608
0.3728740607
0.3728740592
0.3728740531
0.3728740263
0.3728739134
0.3728734445
0.3728715594
0.3728644362
0.3728406705
0.372874061
0.372874061
0.3728740609
0.372874061
0.3728740609
0.3728740604
0.3728740582
0.3728740479
0.3728740007
0.3728737787
0.372872727
0.3728677408
0.3728445083
0.3727431421
0.3728740611
0.3728740613
0.3728740611
0.372874061
0.372874061
0.3728740604
0.3728740577
0.3728740451
0.3728739828
0.372873664
0.3728719599
0.3728623141
0.3728039565
0.3724240454
0.3697471208
0.3728740611
0.3728740611
0.372874061
0.3728740611
0.372874061
0.3728740606
0.3728740585
0.3728740481
0.3728740008
0.3728737787
0.372872727
0.3728677409
0.3728445091
0.3727431487
0.3723911524
0.3728740609
0.3728740611
0.3728740612
0.3728740611
0.3728740611
0.3728740609
0.3728740593
0.372874053
0.3728740264
0.3728739136
0.3728734447
0.3728715596
0.3728644367
0.3728406725
0.3727815041
0.3728740609
0.372874061
0.3728740609
0.372874061
0.372874061
0.3728740608
0.37287406
0.3728740568
0.3728740435
0.3728739934
0.3728738083
0.3728731608
0.372871077
0.372865251
0.3728527681
0.372874061
0.3728740611
0.3728740612
0.3728740612
0.3728740611
0.372874061
0.3728740605
0.3728740584
0.3728740512
0.3728740258
0.3728739418
0.3728736791
0.3728729316
0.3728710744
0.3728673313
0.3728740612
0.3728740612
0.3728740611
0.372874061
0.3728740609
0.3728740608
0.3728740605
0.3728740587
0.3728740522
0.3728740307
0.3728739606
0.3728737484
0.3728731635
0.3728717543
0.3728740612
0.3728740612
0.3728740611
0.372874061
0.3728740612
0.3728740609
0.3728740601
0.3728740574
0.3728740462
0.3728740051
0.3728738594
0.3728733738
0.3728719026
0.3728680565
0.3728740612
0.3728740611
0.3728740613
0.3728740612
0.3728740609
0.3728740606
0.3728740596
0.3728740543
0.3728740326
0.3728739446
0.3728736004
0.3728723197
0.3728679466
0.3728550985
0.372874061
0.3728740612
0.3728740612
0.3728740612
0.372874061
0.3728740607
0.3728740587
0.3728740503
0.3728740132
0.3728738501
0.3728731412
0.3728701559
0.3728583543
0.3728173504
0.3728740611
0.3728740611
0.3728740612
0.372874061
0.372874061
0.3728740606
0.3728740583
0.3728740481
0.3728740007
0.3728737788
0.3728727271
0.3728677409
0.3728445081
0.3727431415
0.3728740611
0.3728740612
0.3728740612
0.3728740613
0.3728740611
0.3728740606
0.3728740587
0.3728740502
0.3728740132
0.37287385
0.372873141
0.3728701559
0.3728583544
0.3728173506
0.3728740611
0.372874061
0.3728740611
0.3728740612
0.3728740612
0.3728740608
0.3728740597
0.3728740543
0.3728740326
0.3728739446
0.3728736005
0.3728723196
0.3728679468
0.3728550992
0.3728269048
0.372874061
0.3728740609
0.3728740609
0.372874061
0.372874061
0.3728740608
0.3728740599
0.3728740572
0.3728740462
0.3728740051
0.3728738593
0.3728733739
0.3728719027
0.3728680568
0.3728601811
0.372874061
0.3728740608
0.3728740609
0.372874061
0.3728740611
0.3728740609
0.3728740607
0.3728740589
0.3728740525
0.3728740308
0.3728739606
0.3728737483
0.3728731633
0.3728717544
0.3728689506
0.3728740611
0.3728740611
0.3728740612
0.3728740611
0.3728740611
0.3728740611
0.3728740605
0.3728740594
0.3728740547
0.3728740402
0.3728739947
0.3728738629
0.3728735149
0.3728727049
0.3728740614
0.3728740613
0.3728740611
0.3728740613
0.3728740613
0.3728740609
0.3728740603
0.3728740584
0.3728740509
0.3728740252
0.3728739386
0.3728736686
0.3728729038
0.3728710244
0.3728740613
0.3728740611
0.3728740611
0.372874061
0.3728740611
0.3728740609
0.37287406
0.3728740565
0.372874043
0.3728739919
0.3728738068
0.3728731777
0.3728712363
0.3728660915
0.3728740611
0.3728740612
0.3728740611
0.3728740611
0.372874061
0.3728740608
0.3728740595
0.3728740545
0.3728740326
0.3728739448
0.3728736006
0.3728723197
0.3728679467
0.3728550987
0.3728740612
0.3728740612
0.3728740611
0.3728740612
0.3728740611
0.3728740606
0.3728740593
0.372874053
0.3728740263
0.3728739137
0.3728734447
0.3728715594
0.3728644361
0.3728406703
0.3728740612
0.3728740613
0.3728740613
0.3728740612
0.3728740613
0.3728740607
0.3728740594
0.3728740541
0.3728740326
0.3728739447
0.3728736007
0.3728723199
0.3728679467
0.3728550985
0.3728740612
0.3728740611
0.3728740612
0.372874061
0.3728740611
0.3728740609
0.3728740601
0.3728740564
0.3728740431
0.3728739922
0.3728738072
0.3728731781
0.3728712366
0.3728660918
0.3728740609
0.372874061
0.3728740611
0.3728740609
0.372874061
0.3728740609
0.3728740604
0.3728740585
0.3728740511
0.3728740254
0.3728739388
0.3728736686
0.3728729037
0.3728710246
0.3728672698
0.372874061
0.372874061
0.372874061
0.372874061
0.3728740612
0.372874061
0.3728740605
0.3728740593
0.3728740548
0.3728740403
0.3728739949
0.372873863
0.372873515
0.3728727052
0.3728711051
0.3728740613
0.3728740613
0.3728740613
0.3728740613
0.3728740611
0.3728740611
0.3728740608
0.3728740599
0.3728740572
0.3728740482
0.3728740222
0.37287395
0.3728737668
0.3728733526
0.3728740612
0.3728740612
0.3728740612
0.3728740612
0.3728740612
0.3728740611
0.3728740606
0.3728740594
0.3728740551
0.3728740408
0.3728739958
0.3728738639
0.3728735131
0.3728726915
0.3728740611
0.3728740611
0.3728740613
0.3728740613
0.3728740613
0.372874061
0.3728740604
0.3728740585
0.3728740511
0.3728740251
0.3728739386
0.3728736685
0.3728729038
0.3728710245
0.3728740612
0.3728740611
0.3728740614
0.3728740613
0.3728740612
0.372874061
0.3728740604
0.3728740573
0.3728740462
0.3728740051
0.3728738593
0.372873374
0.3728719027
0.3728680568
0.3728740613
0.3728740612
0.3728740612
0.3728740611
0.372874061
0.3728740608
0.37287406
0.3728740568
0.3728740436
0.3728739935
0.3728738084
0.3728731609
0.3728710767
0.3728652506
0.3728740611
0.3728740611
0.372874061
0.3728740612
0.372874061
0.3728740608
0.3728740601
0.3728740573
0.3728740461
0.372874005
0.3728738593
0.3728733739
0.3728719027
0.3728680568
0.3728740611
0.3728740611
0.3728740612
0.3728740612
0.372874061
0.372874061
0.3728740603
0.3728740584
0.372874051
0.3728740252
0.3728739387
0.3728736686
0.3728729038
0.3728710248
0.3728740612
0.3728740612
0.372874061
0.3728740609
0.3728740612
0.3728740612
0.3728740607
0.3728740595
0.3728740551
0.3728740408
0.3728739957
0.3728738638
0.372873513
0.3728726912
0.3728740611
0.3728740611
0.372874061
0.372874061
0.3728740613
0.3728740608
0.3728740609
0.37287406
0.3728740571
0.3728740484
0.3728740221
0.3728739498
0.3728737667
0.3728733528
0.3728725367
0.3728740612
0.3728740612
0.3728740613
0.3728740612
0.3728740612
0.3728740613
0.372874061
0.3728740604
0.3728740585
0.3728740525
0.3728740359
0.3728739918
0.372873884
0.3728736453
0.3728740612
0.3728740612
0.3728740612
0.3728740611
0.3728740614
0.3728740612
0.3728740609
0.37287406
0.3728740572
0.3728740486
0.3728740222
0.3728739499
0.3728737667
0.3728733526
0.3728740611
0.3728740612
0.3728740612
0.3728740612
0.3728740614
0.3728740612
0.3728740606
0.3728740594
0.372874055
0.3728740402
0.3728739948
0.372873863
0.3728735149
0.372872705
0.3728740613
0.3728740614
0.3728740613
0.3728740613
0.3728740612
0.3728740612
0.3728740606
0.3728740586
0.3728740524
0.3728740308
0.3728739608
0.3728737485
0.3728731635
0.3728717545
0.3728740613
0.3728740613
0.3728740612
0.3728740611
0.3728740611
0.3728740611
0.3728740604
0.3728740584
0.3728740512
0.3728740259
0.3728739417
0.372873679
0.3728729316
0.3728710743
0.3728740613
0.372874061
0.3728740611
0.3728740611
0.372874061
0.372874061
0.3728740605
0.3728740588
0.3728740526
0.3728740309
0.3728739608
0.3728737485
0.3728731635
0.3728717546
0.372874061
0.3728740612
0.3728740612
0.3728740612
0.372874061
0.3728740609
0.3728740607
0.3728740593
0.372874055
0.3728740403
0.3728739948
0.3728738629
0.3728735151
0.3728727052
0.3728740611
0.3728740612
0.3728740612
0.372874061
0.3728740612
0.3728740611
0.3728740609
0.3728740599
0.3728740571
0.3728740484
0.3728740223
0.37287395
0.3728737669
0.3728733528
0.3728740611
0.3728740611
0.3728740611
0.3728740611
0.3728740612
0.3728740611
0.3728740609
0.3728740604
0.3728740585
0.3728740526
0.3728740359
0.3728739918
0.3728738841
0.3728736456
)
;

boundaryField
{
    top
    {
        type            calculated;
        value           nonuniform List<scalar> 
134
(
0.3728740611
0.3728740611
0.372874061
0.3728740609
0.372874061
0.372874061
0.372874061
0.3728740611
0.3728740611
0.372874061
0.372874061
0.3728740611
0.372874061
0.3728740611
0.3728740608
0.372874061
0.3728740611
0.3728740611
0.3728740611
0.3728740611
0.372874061
0.372874061
0.3728740612
0.3728740609
0.372874061
0.372874061
0.3728740611
0.3728740612
0.3728740611
0.3728740612
0.3728740612
0.3728740612
0.372874061
0.372874061
0.372874061
0.3728740611
0.3728740612
0.3728740611
0.3728740611
0.3728740611
0.3728740611
0.3728740611
0.3728740612
0.3728740613
0.3728740612
0.372874061
0.372874061
0.3728740609
0.3728740611
0.372874061
0.3728740609
0.372874061
0.3728740608
0.3728740611
0.3728740608
0.3728740607
0.3728740605
0.3728740606
0.3728740605
0.3728740607
0.3728740605
0.3728740609
0.3728740609
0.3728740602
0.3728740597
0.3728740593
0.3728740587
0.3728740584
0.3728740589
0.3728740593
0.37287406
0.3728740604
0.3728740581
0.372874057
0.3728740549
0.3728740524
0.3728740512
0.3728740525
0.3728740548
0.3728740571
0.3728740585
0.3728740523
0.3728740484
0.3728740402
0.3728740308
0.3728740258
0.3728740308
0.3728740403
0.3728740484
0.3728740526
0.3728740359
0.3728740221
0.3728739947
0.3728739606
0.3728739418
0.3728739606
0.3728739949
0.3728740221
0.3728740359
0.3728739917
0.3728739498
0.3728738629
0.3728737484
0.3728736791
0.3728737483
0.372873863
0.3728739498
0.3728739918
0.3728738839
0.3728737666
0.372873515
0.3728731633
0.3728729316
0.3728731633
0.372873515
0.3728737667
0.3728738841
0.3728736453
0.3728733526
0.372872705
0.3728717545
0.3728710744
0.3728717544
0.3728727052
0.3728733528
0.3728736456
0.3728731753
0.3728725368
0.372871105
0.3728689507
0.3728673313
0.3728689506
0.3728711051
0.3728725367
)
;
    }
    bottom
    {
        type            calculated;
        value           nonuniform List<scalar> 
127
(
0.3728740611
0.3728740611
0.372874061
0.3728740612
0.3728740611
0.3728740612
0.3728740611
0.3728740613
0.3728740612
0.3728740611
0.372874061
0.372874061
0.3728740611
0.3728740612
0.3728740612
0.3728740611
0.3728740613
0.3728740612
0.372874061
0.3728740611
0.372874061
0.372874061
0.3728740613
0.3728740611
0.3728740612
0.3728740613
0.3728740613
0.3728740608
0.372874061
0.372874061
0.3728740612
0.3728740611
0.372874061
0.3728740611
0.3728740613
0.3728740612
0.3728740608
0.3728740612
0.3728740611
0.3728740611
0.3728740611
0.3728740609
0.3728740611
0.3728740611
0.3728740612
0.3728740609
0.3728740609
0.372874061
0.372874061
0.3728740608
0.3728740608
0.3728740611
0.3728740611
0.3728740613
0.3728740607
0.3728740608
0.3728740607
0.3728740603
0.3728740604
0.3728740605
0.3728740605
0.3728740608
0.372874061
0.3728740601
0.37287406
0.3728740595
0.3728740586
0.3728740584
0.3728740587
0.3728740594
0.3728740599
0.3728740604
0.3728740582
0.3728740572
0.3728740549
0.3728740524
0.372874051
0.3728740522
0.3728740547
0.3728740572
0.3728740585
0.3728740523
0.3728740484
0.3728740403
0.3728740307
0.3728740258
0.3728740307
0.3728740402
0.3728740482
0.3728740525
0.3728740359
0.3728740222
0.3728739948
0.3728739607
0.3728739414
0.3728739606
0.3728739947
0.3728740222
0.3728740359
0.3728739919
0.3728739498
0.3728738629
0.3728737484
0.372873679
0.3728737484
0.3728738629
0.37287395
0.3728739918
0.3728738841
0.3728737667
0.372873515
0.3728731633
0.3728729316
0.3728731635
0.3728735149
0.3728737668
0.372873884
0.3728736454
0.3728733527
0.3728727051
0.3728717544
0.372871074
0.3728717543
0.3728727049
0.3728733526
0.3728736453
0.3728731753
)
;
    }
    side-walls
    {
        type            calculated;
        value           nonuniform List<scalar> 
261
(
0.3728740611
0.3728740609
0.372874061
0.3728740611
0.3728740613
0.3728740612
0.3728740612
0.3728740611
0.3728740611
0.3728740611
0.372874061
0.372874061
0.372874061
0.3728740613
0.3728740613
0.3728740611
0.3728740611
0.372874061
0.372874061
0.3728740609
0.3728740611
0.3728740611
0.3728740612
0.3728740612
0.3728740612
0.372874061
0.3728740611
0.3728740608
0.3728740611
0.372874061
0.3728740611
0.3728740611
0.3728740613
0.3728740611
0.3728740612
0.3728740612
0.3728740608
0.372874061
0.372874061
0.372874061
0.3728740611
0.3728740611
0.372874061
0.3728740611
0.3728740612
0.3728740609
0.3728740609
0.3728740609
0.372874061
0.3728740609
0.3728740607
0.3728740608
0.372874061
0.372874061
0.3728740607
0.3728740607
0.3728740606
0.3728740606
0.3728740602
0.3728740603
0.3728740605
0.3728740607
0.3728740608
0.3728740601
0.3728740599
0.3728740593
0.3728740587
0.3728740583
0.3728740585
0.3728740592
0.3728740598
0.3728740602
0.3728740582
0.3728740572
0.3728740549
0.3728740523
0.372874051
0.3728740522
0.3728740547
0.372874057
0.3728740581
0.3728740523
0.3728740482
0.3728740403
0.3728740307
0.3728740257
0.3728740306
0.3728740402
0.3728740482
0.3728740523
0.3728740359
0.3728740221
0.3728739947
0.3728739606
0.3728739416
0.3728739605
0.3728739947
0.372874022
0.3728740359
0.3728739919
0.3728739498
0.3728738629
0.3728737482
0.3728736789
0.3728737485
0.3728738629
0.3728739497
0.3728739917
0.3728738841
0.3728737665
0.372873515
0.3728731634
0.3728729316
0.3728731634
0.372873515
0.3728737666
0.3728738839
0.3728736454
0.3728733525
0.372872705
0.3728717547
0.3728710745
0.3728717545
0.3728727052
0.3728733526
0.3728736453
0.3728731753
0.3728725366
0.3728711049
0.3728689508
0.3728673312
0.3728689508
0.3728711049
0.3728725367
0.3728731753
0.3728740612
0.3728740612
0.3728740611
0.3728740613
0.3728740613
0.3728740613
0.372874061
0.3728740611
0.3728740611
0.3728740612
0.3728740612
0.3728740612
0.3728740614
0.3728740613
0.372874061
0.3728740612
0.3728740612
0.3728740611
0.3728740613
0.3728740612
0.3728740612
0.3728740613
0.3728740612
0.3728740611
0.3728740612
0.3728740612
0.3728740611
0.3728740612
0.3728740611
0.3728740612
0.3728740613
0.3728740611
0.3728740611
0.3728740612
0.372874061
0.3728740611
0.3728740612
0.3728740614
0.3728740614
0.3728740612
0.3728740611
0.372874061
0.372874061
0.3728740612
0.3728740612
0.3728740613
0.3728740612
0.3728740612
0.3728740612
0.3728740611
0.372874061
0.3728740609
0.3728740611
0.3728740611
0.372874061
0.3728740609
0.3728740606
0.3728740606
0.3728740604
0.3728740605
0.3728740607
0.3728740609
0.3728740609
0.3728740604
0.37287406
0.3728740594
0.3728740586
0.3728740584
0.3728740588
0.3728740593
0.3728740599
0.3728740604
0.3728740585
0.3728740572
0.372874055
0.3728740524
0.3728740512
0.3728740526
0.372874055
0.3728740571
0.3728740585
0.3728740525
0.3728740486
0.3728740402
0.3728740308
0.3728740259
0.3728740309
0.3728740403
0.3728740484
0.3728740526
0.3728740359
0.3728740222
0.3728739948
0.3728739608
0.3728739417
0.3728739608
0.3728739948
0.3728740223
0.3728740359
0.3728739918
0.3728739499
0.372873863
0.3728737485
0.372873679
0.3728737485
0.3728738629
0.37287395
0.3728739918
0.372873884
0.3728737667
0.3728735149
0.3728731635
0.3728729316
0.3728731635
0.3728735151
0.3728737669
0.3728738841
0.3728736453
0.3728733526
0.372872705
0.3728717545
0.3728710743
0.3728717546
0.3728727052
0.3728733528
0.3728736456
)
;
    }
    inlet
    {
        type            calculated;
        value           nonuniform List<scalar> 
81
(
0.3728740611
0.3728740609
0.372874061
0.3728740611
0.3728740613
0.3728740612
0.3728740612
0.3728740611
0.3728740611
0.3728740611
0.372874061
0.372874061
0.3728740611
0.3728740611
0.372874061
0.3728740612
0.3728740611
0.3728740611
0.372874061
0.3728740611
0.372874061
0.3728740613
0.372874061
0.372874061
0.3728740611
0.372874061
0.372874061
0.3728740612
0.3728740612
0.372874061
0.3728740611
0.3728740613
0.372874061
0.372874061
0.3728740609
0.3728740609
0.3728740611
0.3728740613
0.3728740612
0.372874061
0.3728740611
0.3728740611
0.3728740609
0.3728740609
0.372874061
0.3728740612
0.3728740612
0.3728740612
0.372874061
0.3728740611
0.3728740611
0.3728740611
0.372874061
0.372874061
0.3728740611
0.3728740614
0.3728740613
0.3728740611
0.3728740612
0.3728740612
0.3728740612
0.3728740609
0.372874061
0.3728740613
0.3728740612
0.3728740611
0.3728740612
0.3728740613
0.3728740611
0.3728740611
0.3728740612
0.3728740611
0.3728740612
0.3728740612
0.3728740611
0.3728740613
0.3728740613
0.3728740613
0.372874061
0.3728740611
0.3728740611
)
;
    }
    outlet
    {
        type            calculated;
        value           nonuniform 0();
    }
    procBoundary0to1
    {
        type            processor;
        value           nonuniform List<scalar> 
97
(
0.3728723559
0.3728725366
0.3728711549
0.3728684984
0.372864599
0.3728618093
0.3728645988
0.3728684983
0.3728711549
0.372872356
0.3728725366
0.3728725366
0.3728684418
0.3728672697
0.3728616047
0.3728494304
0.3728379205
0.3728494307
0.3728616049
0.3728684419
0.372871155
0.372871105
0.3728672697
0.3728672697
0.372841369
0.3728269043
0.3727962694
0.3727370785
0.3727962704
0.3728413694
0.3728616052
0.3728684985
0.3728689507
0.3728601807
0.3728269043
0.3728269043
0.372641365
0.3723911335
0.3723366958
0.3726413687
0.3727962703
0.3728494308
0.3728645989
0.3728673311
0.3728527674
0.3727815014
0.3723911335
0.3723911335
0.3710223234
0.3723911344
0.372336697
0.372712484
0.3727370786
0.3728379208
0.3728618094
0.3728689506
0.372860181
0.3728269054
0.3727124849
0.3723911344
0.372712484
0.372712484
0.3727962697
0.3728555118
0.3728494305
0.372864599
0.3728711048
0.3728672699
0.372855512
0.3728269056
0.3727815016
0.3728269057
0.3728555118
0.3728555118
0.3728616049
0.3728710666
0.3728684985
0.3728725368
0.3728710668
0.37286727
0.372860181
0.3728527676
0.372860181
0.3728672701
0.3728710666
0.3728710666
0.3728711551
0.3728731754
0.3728731755
0.3728725366
0.372871105
0.3728689507
0.3728673312
0.3728689506
0.372871105
0.3728725369
0.3728731754
)
;
    }
}


// ************************************************************************* //
