/*--------------------------------*- C++ -*----------------------------------*\
| =========                 |                                                 |
| \\      /  F ield         | OpenFOAM: The Open Source CFD Toolbox           |
|  \\    /   O peration     | Version:  4.x                                   |
|   \\  /    A nd           | Web:      www.OpenFOAM.org                      |
|    \\/     M anipulation  |                                                 |
\*---------------------------------------------------------------------------*/
FoamFile
{
    version     2.0;
    format      ascii;
    class       volScalarField;
    location    "7000";
    object      CO;
}
// * * * * * * * * * * * * * * * * * * * * * * * * * * * * * * * * * * * * * //

dimensions      [0 0 0 0 0 0 0];

internalField   nonuniform List<scalar> 
1175
(
0.3999999994
0.3999999994
0.3999999994
0.3999999994
0.3999999994
0.3999999993
0.399999999
0.3999999979
0.3999999947
0.3999999848
0.3999999567
0.399999882
0.3999996995
0.3999992961
0.399998502
0.3999999994
0.3999999994
0.3999999994
0.3999999994
0.3999999994
0.3999999993
0.3999999988
0.3999999974
0.3999999926
0.3999999777
0.3999999334
0.399999811
0.3999995015
0.3999988026
0.3999974265
0.3999999994
0.3999999994
0.3999999994
0.3999999994
0.3999999994
0.3999999992
0.3999999986
0.3999999964
0.3999999888
0.3999999641
0.3999998871
0.3999996643
0.3999990771
0.3999977119
0.3999950174
0.3999999994
0.3999999994
0.3999999994
0.3999999994
0.3999999994
0.3999999991
0.3999999983
0.3999999953
0.3999999846
0.399999948
0.3999998296
0.3999994712
0.3999984851
0.399996113
0.399991397
0.3999999994
0.3999999994
0.3999999994
0.3999999994
0.3999999994
0.3999999991
0.3999999982
0.3999999948
0.3999999825
0.3999999396
0.3999997974
0.3999993544
0.3999980954
0.3999949706
0.3999886792
0.3999999994
0.3999999994
0.3999999994
0.3999999994
0.3999999994
0.3999999991
0.3999999983
0.3999999953
0.3999999846
0.399999948
0.3999998296
0.3999994712
0.3999984851
0.399996113
0.3999913971
0.3999999994
0.3999999994
0.3999999994
0.3999999994
0.3999999994
0.3999999992
0.3999999986
0.3999999964
0.3999999888
0.3999999641
0.3999998871
0.3999996643
0.3999990771
0.399997712
0.3999950175
0.3999999994
0.3999999994
0.3999999994
0.3999999994
0.3999999994
0.3999999993
0.3999999988
0.3999999974
0.3999999926
0.3999999777
0.3999999334
0.399999811
0.3999995015
0.3999988026
0.3999974266
0.3999999994
0.3999999994
0.3999999994
0.3999999994
0.3999999994
0.3999999993
0.399999999
0.3999999979
0.3999999947
0.3999999848
0.3999999567
0.399999882
0.3999996995
0.3999992962
0.3999985021
0.3999999994
0.3999999994
0.3999999994
0.3999999994
0.3999999994
0.3999999993
0.3999999988
0.3999999974
0.3999999926
0.3999999777
0.3999999334
0.399999811
0.3999995015
0.3999988025
0.3999999994
0.3999999994
0.3999999994
0.3999999994
0.3999999994
0.3999999992
0.3999999986
0.3999999965
0.3999999891
0.3999999648
0.3999998886
0.3999996658
0.3999990739
0.3999976892
0.3999949536
0.3999999994
0.3999999994
0.3999999994
0.3999999994
0.3999999994
0.3999999991
0.3999999982
0.3999999948
0.3999999823
0.3999999385
0.3999997923
0.3999993366
0.3999980485
0.3999948866
0.3999885752
0.3999999994
0.3999999994
0.3999999994
0.3999999994
0.3999999993
0.399999999
0.3999999977
0.3999999928
0.399999974
0.3999999046
0.3999996587
0.3999988409
0.3999963656
0.3999899031
0.3999766817
0.3999999994
0.3999999994
0.3999999994
0.3999999994
0.3999999993
0.399999999
0.3999999975
0.3999999918
0.3999999696
0.3999998848
0.3999995728
0.3999984829
0.3999949794
0.3999851982
0.3999642609
0.3999999994
0.3999999994
0.3999999994
0.3999999994
0.3999999993
0.399999999
0.3999999977
0.3999999928
0.399999974
0.3999999046
0.3999996587
0.3999988409
0.3999963657
0.3999899033
0.3999766822
0.3999999994
0.3999999994
0.3999999994
0.3999999994
0.3999999994
0.3999999991
0.3999999982
0.3999999948
0.3999999823
0.3999999385
0.3999997923
0.3999993366
0.3999980485
0.3999948868
0.3999885757
0.3999999994
0.3999999994
0.3999999994
0.3999999994
0.3999999994
0.3999999992
0.3999999986
0.3999999965
0.3999999891
0.3999999648
0.3999998886
0.3999996658
0.399999074
0.3999976893
0.399994954
0.3999999994
0.3999999994
0.3999999994
0.3999999994
0.3999999994
0.3999999993
0.3999999988
0.3999999974
0.3999999926
0.3999999777
0.3999999334
0.399999811
0.3999995015
0.3999988026
0.3999974266
0.3999999994
0.3999999994
0.3999999994
0.3999999994
0.3999999994
0.3999999992
0.3999999986
0.3999999964
0.3999999888
0.3999999641
0.3999998871
0.3999996643
0.399999077
0.3999977117
0.3999999994
0.3999999994
0.3999999994
0.3999999994
0.3999999994
0.3999999991
0.3999999982
0.3999999948
0.3999999823
0.3999999385
0.3999997923
0.3999993366
0.3999980484
0.3999948863
0.3999999994
0.3999999994
0.3999999994
0.3999999994
0.3999999993
0.3999999989
0.3999999975
0.3999999916
0.3999999687
0.3999998825
0.3999995704
0.3999985109
0.3999952457
0.399986603
0.3999688471
0.3999999994
0.3999999994
0.3999999994
0.3999999994
0.3999999993
0.3999999988
0.3999999966
0.3999999877
0.3999999511
0.3999998029
0.3999992231
0.3999970688
0.3999897234
0.3999681698
0.3999209202
0.3999999994
0.3999999994
0.3999999994
0.3999999994
0.3999999993
0.3999999987
0.3999999962
0.3999999857
0.3999999406
0.3999997504
0.3999989612
0.3999957931
0.3999838401
0.3999440145
0.3998449591
0.3999999994
0.3999999994
0.3999999994
0.3999999994
0.3999999993
0.3999999988
0.3999999966
0.3999999877
0.3999999511
0.3999998029
0.3999992231
0.3999970688
0.3999897237
0.3999681707
0.3999209229
0.3999999994
0.3999999994
0.3999999994
0.3999999994
0.3999999993
0.3999999989
0.3999999975
0.3999999916
0.3999999687
0.3999998825
0.3999995704
0.399998511
0.3999952459
0.3999866038
0.3999688497
0.3999999994
0.3999999994
0.3999999994
0.3999999994
0.3999999994
0.3999999991
0.3999999982
0.3999999948
0.3999999823
0.3999999385
0.3999997923
0.3999993366
0.3999980485
0.3999948868
0.3999885757
0.3999999994
0.3999999994
0.3999999994
0.3999999994
0.3999999994
0.3999999992
0.3999999986
0.3999999964
0.3999999888
0.3999999641
0.3999998871
0.3999996643
0.3999990771
0.399997712
0.3999950175
0.3999999994
0.3999999994
0.3999999994
0.3999999994
0.3999999994
0.3999999991
0.3999999983
0.3999999953
0.3999999846
0.399999948
0.3999998296
0.3999994711
0.399998485
0.3999961126
0.3999999994
0.3999999994
0.3999999994
0.3999999994
0.3999999993
0.399999999
0.3999999977
0.3999999928
0.399999974
0.3999999046
0.3999996587
0.3999988408
0.3999963654
0.3999899022
0.3999999994
0.3999999994
0.3999999994
0.3999999994
0.3999999993
0.3999999988
0.3999999966
0.3999999877
0.3999999511
0.3999998029
0.3999992231
0.3999970687
0.399989723
0.3999681676
0.3999999994
0.3999999994
0.3999999994
0.3999999994
0.3999999992
0.3999999985
0.3999999953
0.3999999812
0.3999999187
0.3999996437
0.3999984508
0.3999934363
0.3999736405
0.3999049516
0.399729469
0.3999999994
0.3999999994
0.3999999994
0.3999999994
0.3999999992
0.3999999984
0.3999999946
0.3999999774
0.3999998976
0.3999995237
0.3999977559
0.399989389
0.3999504646
0.3997808816
0.399192709
0.3999999994
0.3999999994
0.3999999994
0.3999999994
0.3999999992
0.3999999985
0.3999999953
0.3999999812
0.3999999187
0.3999996437
0.3999984509
0.3999934365
0.3999736413
0.3999049557
0.3997294856
0.3999999994
0.3999999994
0.3999999994
0.3999999994
0.3999999993
0.3999999988
0.3999999966
0.3999999877
0.3999999511
0.3999998029
0.3999992231
0.3999970688
0.3999897236
0.3999681705
0.3999209227
0.3999999994
0.3999999994
0.3999999994
0.3999999994
0.3999999993
0.399999999
0.3999999977
0.3999999928
0.399999974
0.3999999046
0.3999996587
0.3999988409
0.3999963656
0.3999899032
0.3999766821
0.3999999994
0.3999999994
0.3999999994
0.3999999994
0.3999999994
0.3999999991
0.3999999983
0.3999999953
0.3999999846
0.399999948
0.3999998296
0.3999994712
0.3999984851
0.399996113
0.3999913971
0.3999999994
0.3999999994
0.3999999994
0.3999999994
0.3999999994
0.3999999991
0.3999999982
0.3999999948
0.3999999825
0.3999999396
0.3999997974
0.3999993544
0.3999980953
0.3999949701
0.3999999994
0.3999999994
0.3999999994
0.3999999994
0.3999999993
0.399999999
0.3999999975
0.3999999918
0.3999999696
0.3999998848
0.3999995728
0.3999984828
0.3999949789
0.3999851967
0.3999999994
0.3999999994
0.3999999994
0.3999999994
0.3999999993
0.3999999987
0.3999999962
0.3999999857
0.3999999406
0.3999997504
0.3999989612
0.3999957929
0.3999838389
0.3999440088
0.3999999994
0.3999999994
0.3999999994
0.3999999994
0.3999999992
0.3999999984
0.3999999946
0.3999999774
0.3999998976
0.3999995236
0.3999977559
0.3999893885
0.3999504618
0.399780863
0.3999999994
0.3999999994
0.3999999994
0.3999999994
0.3999999992
0.3999999982
0.3999999937
0.3999999723
0.3999998671
0.399999331
0.3999964697
0.3999803033
0.3998826579
0.3992480632
0.3947885649
0.3999999994
0.3999999994
0.3999999994
0.3999999994
0.3999999992
0.3999999984
0.3999999946
0.3999999774
0.3999998976
0.3999995236
0.3999977559
0.3999893888
0.3999504636
0.3997808782
0.3991927047
0.3999999994
0.3999999994
0.3999999994
0.3999999994
0.3999999993
0.3999999987
0.3999999962
0.3999999857
0.3999999406
0.3999997504
0.3999989612
0.399995793
0.3999838397
0.3999440136
0.3998449582
0.3999999994
0.3999999994
0.3999999994
0.3999999994
0.3999999993
0.399999999
0.3999999975
0.3999999918
0.3999999696
0.3999998848
0.3999995728
0.3999984828
0.3999949793
0.399985198
0.3999642609
0.3999999994
0.3999999994
0.3999999994
0.3999999994
0.3999999994
0.3999999991
0.3999999982
0.3999999948
0.3999999825
0.3999999396
0.3999997974
0.3999993544
0.3999980954
0.3999949706
0.3999886791
0.3999999994
0.3999999994
0.3999999994
0.3999999994
0.3999999994
0.3999999991
0.3999999983
0.3999999953
0.3999999846
0.399999948
0.3999998296
0.3999994711
0.3999984849
0.3999961126
0.3999999994
0.3999999994
0.3999999994
0.3999999994
0.3999999993
0.399999999
0.3999999977
0.3999999928
0.399999974
0.3999999046
0.3999996587
0.3999988408
0.3999963654
0.3999899022
0.3999999994
0.3999999994
0.3999999994
0.3999999994
0.3999999993
0.3999999988
0.3999999966
0.3999999877
0.3999999511
0.3999998029
0.3999992231
0.3999970686
0.3999897227
0.3999681672
0.3999999994
0.3999999994
0.3999999994
0.3999999994
0.3999999992
0.3999999985
0.3999999953
0.3999999812
0.3999999187
0.3999996437
0.3999984508
0.399993436
0.3999736392
0.399904946
0.3999999994
0.3999999994
0.3999999994
0.3999999994
0.3999999992
0.3999999984
0.3999999946
0.3999999774
0.3999998976
0.3999995236
0.3999977558
0.3999893883
0.3999504607
0.3997808594
0.3999999994
0.3999999994
0.3999999994
0.3999999994
0.3999999992
0.3999999985
0.3999999953
0.3999999812
0.3999999187
0.3999996437
0.3999984508
0.3999934361
0.3999736396
0.3999049476
0.3999999994
0.3999999994
0.3999999994
0.3999999994
0.3999999993
0.3999999988
0.3999999966
0.3999999877
0.3999999511
0.3999998029
0.3999992231
0.3999970687
0.3999897231
0.3999681687
0.3999209172
0.3999999994
0.3999999994
0.3999999994
0.3999999994
0.3999999993
0.399999999
0.3999999977
0.3999999928
0.399999974
0.3999999046
0.3999996587
0.3999988408
0.3999963655
0.3999899028
0.3999766812
0.3999999994
0.3999999994
0.3999999994
0.3999999994
0.3999999994
0.3999999991
0.3999999983
0.3999999953
0.3999999846
0.399999948
0.3999998296
0.3999994712
0.399998485
0.3999961129
0.3999913969
0.3999999994
0.3999999994
0.3999999994
0.3999999994
0.3999999994
0.3999999992
0.3999999986
0.3999999964
0.3999999888
0.3999999641
0.3999998871
0.3999996643
0.399999077
0.3999977117
0.3999999994
0.3999999994
0.3999999994
0.3999999994
0.3999999994
0.3999999991
0.3999999982
0.3999999948
0.3999999823
0.3999999385
0.3999997923
0.3999993366
0.3999980483
0.3999948863
0.3999999994
0.3999999994
0.3999999994
0.3999999994
0.3999999993
0.3999999989
0.3999999975
0.3999999916
0.3999999687
0.3999998825
0.3999995704
0.3999985109
0.3999952454
0.3999866023
0.3999999994
0.3999999994
0.3999999994
0.3999999994
0.3999999993
0.3999999988
0.3999999966
0.3999999877
0.3999999511
0.3999998029
0.399999223
0.3999970686
0.3999897226
0.3999681671
0.3999999994
0.3999999994
0.3999999994
0.3999999994
0.3999999993
0.3999999987
0.3999999962
0.3999999856
0.3999999406
0.3999997504
0.3999989611
0.3999957927
0.3999838385
0.3999440081
0.3999999994
0.3999999994
0.3999999994
0.3999999994
0.3999999993
0.3999999988
0.3999999966
0.3999999877
0.3999999511
0.3999998029
0.399999223
0.3999970686
0.3999897227
0.3999681674
0.3999999994
0.3999999994
0.3999999994
0.3999999994
0.3999999993
0.3999999989
0.3999999975
0.3999999916
0.3999999687
0.3999998825
0.3999995704
0.3999985109
0.3999952455
0.3999866025
0.3999999994
0.3999999994
0.3999999994
0.3999999994
0.3999999994
0.3999999991
0.3999999982
0.3999999948
0.3999999823
0.3999999385
0.3999997923
0.3999993366
0.3999980484
0.3999948865
0.3999885747
0.3999999994
0.3999999994
0.3999999994
0.3999999994
0.3999999994
0.3999999992
0.3999999986
0.3999999964
0.3999999888
0.3999999641
0.3999998871
0.3999996643
0.3999990771
0.3999977118
0.3999950173
0.3999999994
0.3999999994
0.3999999994
0.3999999994
0.3999999994
0.3999999993
0.3999999988
0.3999999974
0.3999999926
0.3999999777
0.3999999334
0.3999998109
0.3999995015
0.3999988025
0.3999999994
0.3999999994
0.3999999994
0.3999999994
0.3999999994
0.3999999992
0.3999999986
0.3999999965
0.3999999891
0.3999999648
0.3999998885
0.3999996658
0.3999990739
0.3999976891
0.3999999994
0.3999999994
0.3999999994
0.3999999994
0.3999999994
0.3999999991
0.3999999982
0.3999999948
0.3999999823
0.3999999385
0.3999997923
0.3999993366
0.3999980483
0.3999948862
0.3999999994
0.3999999994
0.3999999994
0.3999999994
0.3999999993
0.399999999
0.3999999977
0.3999999928
0.399999974
0.3999999046
0.3999996587
0.3999988408
0.3999963653
0.3999899021
0.3999999994
0.3999999994
0.3999999994
0.3999999994
0.3999999993
0.399999999
0.3999999975
0.3999999918
0.3999999696
0.3999998848
0.3999995728
0.3999984827
0.3999949788
0.3999851966
0.3999999994
0.3999999994
0.3999999994
0.3999999994
0.3999999993
0.399999999
0.3999999977
0.3999999928
0.399999974
0.3999999046
0.3999996587
0.3999988408
0.3999963653
0.3999899022
0.3999999994
0.3999999994
0.3999999994
0.3999999994
0.3999999994
0.3999999991
0.3999999982
0.3999999948
0.3999999823
0.3999999385
0.3999997923
0.3999993366
0.3999980483
0.3999948863
0.3999999994
0.3999999994
0.3999999994
0.3999999994
0.3999999994
0.3999999992
0.3999999986
0.3999999965
0.3999999891
0.3999999648
0.3999998885
0.3999996658
0.3999990739
0.3999976891
0.3999999994
0.3999999994
0.3999999994
0.3999999994
0.3999999994
0.3999999993
0.3999999988
0.3999999974
0.3999999926
0.3999999777
0.3999999334
0.3999998109
0.3999995015
0.3999988025
0.3999974264
0.3999999994
0.3999999994
0.3999999994
0.3999999994
0.3999999994
0.3999999993
0.399999999
0.3999999979
0.3999999947
0.3999999848
0.3999999567
0.3999998819
0.3999996994
0.3999992961
0.3999999994
0.3999999994
0.3999999994
0.3999999994
0.3999999994
0.3999999993
0.3999999988
0.3999999974
0.3999999926
0.3999999777
0.3999999334
0.3999998109
0.3999995015
0.3999988025
0.3999999994
0.3999999994
0.3999999994
0.3999999994
0.3999999994
0.3999999992
0.3999999986
0.3999999964
0.3999999888
0.3999999641
0.3999998871
0.3999996643
0.399999077
0.3999977117
0.3999999994
0.3999999994
0.3999999994
0.3999999994
0.3999999994
0.3999999991
0.3999999983
0.3999999953
0.3999999846
0.399999948
0.3999998296
0.3999994711
0.3999984849
0.3999961126
0.3999999994
0.3999999994
0.3999999994
0.3999999994
0.3999999994
0.3999999991
0.3999999982
0.3999999948
0.3999999825
0.3999999396
0.3999997974
0.3999993544
0.3999980952
0.3999949701
0.3999999994
0.3999999994
0.3999999994
0.3999999994
0.3999999994
0.3999999991
0.3999999983
0.3999999953
0.3999999846
0.399999948
0.3999998296
0.3999994711
0.3999984849
0.3999961126
0.3999999994
0.3999999994
0.3999999994
0.3999999994
0.3999999994
0.3999999992
0.3999999986
0.3999999964
0.3999999888
0.3999999641
0.3999998871
0.3999996643
0.399999077
0.3999977117
0.3999999994
0.3999999994
0.3999999994
0.3999999994
0.3999999994
0.3999999993
0.3999999988
0.3999999974
0.3999999926
0.3999999777
0.3999999334
0.3999998109
0.3999995015
0.3999988025
0.3999999994
0.3999999994
0.3999999994
0.3999999994
0.3999999994
0.3999999993
0.399999999
0.3999999979
0.3999999947
0.3999999848
0.3999999567
0.399999882
0.3999996994
0.3999992961
)
;

boundaryField
{
    top
    {
        type            zeroGradient;
    }
    bottom
    {
        type            zeroGradient;
    }
    side-walls
    {
        type            zeroGradient;
    }
    inlet
    {
        type            zeroGradient;
    }
    outlet
    {
        type            zeroGradient;
    }
    procBoundary0to1
    {
        type            processor;
        value           nonuniform List<scalar> 
97
(
0.3999971194
0.3999974264
0.3999950982
0.3999906317
0.3999840835
0.3999794053
0.3999840836
0.3999906318
0.3999950984
0.3999971195
0.3999974264
0.3999974264
0.3999905387
0.3999885746
0.3999790612
0.3999586505
0.3999393817
0.3999586511
0.3999790618
0.3999905391
0.3999950984
0.3999950172
0.3999885746
0.3999885746
0.3999451361
0.3999209162
0.3998696332
0.3997706852
0.3998696357
0.3999451378
0.3999790618
0.3999906319
0.3999913968
0.3999766809
0.3999209162
0.3999209162
0.3996106474
0.3991926564
0.3991021161
0.3996106551
0.3998696355
0.3999586511
0.3999840836
0.3999886788
0.3999642595
0.3998449509
0.3991926564
0.3991926564
0.396911772
0.3991926545
0.3991021152
0.3997294705
0.3997706847
0.3999393817
0.3999794053
0.3999913968
0.3999766812
0.3999209191
0.3997294722
0.3991926545
0.3997294705
0.3997294705
0.3998696334
0.3999688473
0.3999586503
0.3999840834
0.3999950173
0.3999885752
0.3999688482
0.3999209189
0.3998449502
0.3999209192
0.3999688473
0.3999688473
0.3999790612
0.3999949537
0.3999906316
0.3999974265
0.3999949538
0.3999885752
0.3999766811
0.3999642593
0.3999766813
0.3999885752
0.3999949537
0.3999949537
0.3999950983
0.399998502
0.3999985021
0.3999974265
0.3999950173
0.3999913967
0.3999886787
0.3999913968
0.3999950173
0.3999974265
0.399998502
)
;
    }
}


// ************************************************************************* //
