/*--------------------------------*- C++ -*----------------------------------*\
| =========                 |                                                 |
| \\      /  F ield         | OpenFOAM: The Open Source CFD Toolbox           |
|  \\    /   O peration     | Version:  4.x                                   |
|   \\  /    A nd           | Web:      www.OpenFOAM.org                      |
|    \\/     M anipulation  |                                                 |
\*---------------------------------------------------------------------------*/
FoamFile
{
    version     2.0;
    format      ascii;
    class       volScalarField;
    location    "7000";
    object      Cpv;
}
// * * * * * * * * * * * * * * * * * * * * * * * * * * * * * * * * * * * * * //

dimensions      [0 2 -2 -1 0 0 0];

internalField   nonuniform List<scalar> 
1175
(
1210.459864
1210.459883
1210.459879
1210.459855
1210.459848
1210.45985
1210.459843
1210.459863
1210.459848
1210.459866
1210.459868
1210.459858
1210.459886
1210.459892
1210.459973
1210.46053
1210.460533
1210.460526
1210.460507
1210.460499
1210.460503
1210.460518
1210.460513
1210.460525
1210.460511
1210.460517
1210.460539
1210.460544
1210.460608
1210.460724
1210.459708
1210.459722
1210.459723
1210.4597
1210.459694
1210.459694
1210.459675
1210.45967
1210.459675
1210.459692
1210.45968
1210.459703
1210.459748
1210.459845
1210.46006
1210.459309
1210.459336
1210.459331
1210.459324
1210.459335
1210.459354
1210.459361
1210.459363
1210.45937
1210.459369
1210.459369
1210.459387
1210.459473
1210.459661
1210.460032
1210.45931
1210.459314
1210.459303
1210.459333
1210.459297
1210.459286
1210.459298
1210.4593
1210.459316
1210.459309
1210.459328
1210.459373
1210.459483
1210.459757
1210.460256
1210.459732
1210.459742
1210.459748
1210.459755
1210.459751
1210.45976
1210.459743
1210.459745
1210.459745
1210.459743
1210.459747
1210.459792
1210.459865
1210.460056
1210.460466
1210.459995
1210.459998
1210.459989
1210.459987
1210.460009
1210.46
1210.459988
1210.460012
1210.459993
1210.460014
1210.460013
1210.460035
1210.460101
1210.460217
1210.46046
1210.459871
1210.459852
1210.459843
1210.459846
1210.459856
1210.459863
1210.459874
1210.459859
1210.45984
1210.459831
1210.459828
1210.459849
1210.459862
1210.459914
1210.46003
1210.459871
1210.459875
1210.459872
1210.459854
1210.459871
1210.459892
1210.459904
1210.459928
1210.459918
1210.459914
1210.459911
1210.459915
1210.459932
1210.459946
1210.460012
1210.459971
1210.459988
1210.459998
1210.460004
1210.459998
1210.459972
1210.459987
1210.459997
1210.459974
1210.45997
1210.459966
1210.459984
1210.460012
1210.460086
1210.458635
1210.458625
1210.45863
1210.458627
1210.45862
1210.458628
1210.458622
1210.458608
1210.458615
1210.45859
1210.458603
1210.458634
1210.458678
1210.458768
1210.459012
1210.458972
1210.458979
1210.45901
1210.459029
1210.459018
1210.459026
1210.459032
1210.459028
1210.459035
1210.45903
1210.459055
1210.459101
1210.459227
1210.45948
1210.459983
1210.460262
1210.460275
1210.460282
1210.460267
1210.460259
1210.460253
1210.460232
1210.460234
1210.460238
1210.460252
1210.460279
1210.460339
1210.460538
1210.461043
1210.462126
1210.460851
1210.460858
1210.460866
1210.460862
1210.460879
1210.460883
1210.460897
1210.460895
1210.460882
1210.460918
1210.460921
1210.461045
1210.461337
1210.462113
1210.463813
1210.460134
1210.460146
1210.460151
1210.460166
1210.460141
1210.460134
1210.460128
1210.460123
1210.460106
1210.460104
1210.460086
1210.460162
1210.460344
1210.46087
1210.461934
1210.459601
1210.459595
1210.459604
1210.459584
1210.459572
1210.459592
1210.45956
1210.459548
1210.459567
1210.459563
1210.459589
1210.459618
1210.45971
1210.459971
1210.460488
1210.460546
1210.46054
1210.460547
1210.460544
1210.460541
1210.460543
1210.460571
1210.460561
1210.460538
1210.460547
1210.46054
1210.460559
1210.460621
1210.460729
1210.46093
1210.459973
1210.459971
1210.459966
1210.459953
1210.459963
1210.459978
1210.459976
1210.459982
1210.459963
1210.459971
1210.459974
1210.459973
1210.460006
1210.460067
1210.46017
1210.459962
1210.459953
1210.459937
1210.459927
1210.459939
1210.459948
1210.459953
1210.459965
1210.459987
1210.459989
1210.459997
1210.460025
1210.460063
1210.460188
1210.460693
1210.460683
1210.460701
1210.460713
1210.460722
1210.460727
1210.460748
1210.460755
1210.460753
1210.460778
1210.460787
1210.460834
1210.460922
1210.461146
1210.459973
1210.459989
1210.459981
1210.460021
1210.460015
1210.460015
1210.460013
1210.460012
1210.460027
1210.460058
1210.46008
1210.460192
1210.460446
1210.461138
1210.462573
1210.460379
1210.46037
1210.460352
1210.460387
1210.460399
1210.460403
1210.460423
1210.460434
1210.460455
1210.460458
1210.460493
1210.460677
1210.461272
1210.463021
1210.466851
1210.460479
1210.460484
1210.460453
1210.460448
1210.460447
1210.460478
1210.460482
1210.460465
1210.460466
1210.460501
1210.460596
1210.460862
1210.461838
1210.465029
1210.473063
1210.459332
1210.459331
1210.459323
1210.4593
1210.459299
1210.459296
1210.459296
1210.459282
1210.459255
1210.459254
1210.459324
1210.459487
1210.460076
1210.461794
1210.465632
1210.459625
1210.459642
1210.459629
1210.459617
1210.459617
1210.459616
1210.459629
1210.459637
1210.459646
1210.459651
1210.459684
1210.459723
1210.459975
1210.460675
1210.462134
1210.459042
1210.459041
1210.459029
1210.459023
1210.459038
1210.459056
1210.459049
1210.459073
1210.459078
1210.45906
1210.459082
1210.459135
1210.459239
1210.459474
1210.460026
1210.459354
1210.459356
1210.459355
1210.459365
1210.459362
1210.459366
1210.45934
1210.45936
1210.459347
1210.459343
1210.459351
1210.459373
1210.459436
1210.459544
1210.459759
1210.459196
1210.459215
1210.459202
1210.459181
1210.459194
1210.4592
1210.459181
1210.45916
1210.459196
1210.459221
1210.459245
1210.459272
1210.45935
1210.459566
1210.459167
1210.459184
1210.459163
1210.45916
1210.459139
1210.459148
1210.459156
1210.459219
1210.459216
1210.459243
1210.459246
1210.459301
1210.459493
1210.460035
1210.459443
1210.459415
1210.459444
1210.459439
1210.459465
1210.459458
1210.459413
1210.459391
1210.459413
1210.459399
1210.459449
1210.459643
1210.460265
1210.461993
1210.460447
1210.460449
1210.460447
1210.460444
1210.460449
1210.460465
1210.460474
1210.460471
1210.460495
1210.46053
1210.460633
1210.461041
1210.462654
1210.468197
1210.482412
1210.4588
1210.458809
1210.458818
1210.458853
1210.458847
1210.458841
1210.458853
1210.45888
1210.458862
1210.458895
1210.459044
1210.459727
1210.46286
1210.476593
1210.52384
1210.459377
1210.459382
1210.459386
1210.459375
1210.459382
1210.459408
1210.459416
1210.459442
1210.459439
1210.459429
1210.459481
1210.459923
1210.461517
1210.467075
1210.481266
1210.459381
1210.459399
1210.459384
1210.459405
1210.459387
1210.459405
1210.459394
1210.459396
1210.459399
1210.45941
1210.459457
1210.459594
1210.460163
1210.461901
1210.465757
1210.460311
1210.460316
1210.460315
1210.460313
1210.460312
1210.460317
1210.460317
1210.460368
1210.460361
1210.460369
1210.460393
1210.460442
1210.460654
1210.46116
1210.462269
1210.459263
1210.459256
1210.459269
1210.459264
1210.459256
1210.459272
1210.459273
1210.459276
1210.459285
1210.459297
1210.4593
1210.45933
1210.459412
1210.459626
1210.459999
1210.459841
1210.459855
1210.459845
1210.45986
1210.459863
1210.459885
1210.459874
1210.459874
1210.459889
1210.459886
1210.459902
1210.459938
1210.460025
1210.460275
1210.459799
1210.459789
1210.459791
1210.459771
1210.45973
1210.459741
1210.459732
1210.459745
1210.459717
1210.459724
1210.459759
1210.459848
1210.460116
1210.460893
1210.46026
1210.46027
1210.460237
1210.460224
1210.460248
1210.460262
1210.460298
1210.460295
1210.460298
1210.460317
1210.46036
1210.460617
1210.461607
1210.464823
1210.459123
1210.459118
1210.459132
1210.459151
1210.459155
1210.459134
1210.459151
1210.459166
1210.459147
1210.459194
1210.459362
1210.460015
1210.46314
1210.476866
1210.459816
1210.459802
1210.459798
1210.459807
1210.459816
1210.459797
1210.459787
1210.459768
1210.459763
1210.459802
1210.460032
1210.461335
1210.469237
1210.520598
1210.202
1210.459379
1210.459382
1210.459356
1210.459349
1210.459358
1210.459357
1210.459382
1210.459379
1210.459388
1210.459444
1210.459564
1210.460248
1210.463414
1210.477132
1210.524374
1210.460168
1210.460138
1210.4601
1210.460092
1210.46009
1210.460105
1210.460087
1210.460068
1210.460077
1210.460087
1210.460148
1210.460433
1210.461386
1210.464589
1210.472595
1210.459676
1210.459682
1210.459675
1210.459677
1210.459678
1210.45968
1210.459692
1210.459717
1210.459681
1210.459677
1210.4597
1210.459759
1210.460024
1210.460815
1210.462513
1210.459745
1210.459707
1210.459696
1210.459693
1210.459686
1210.459687
1210.459701
1210.459699
1210.459691
1210.459708
1210.459727
1210.459765
1210.45986
1210.460131
1210.460633
1210.46094
1210.460936
1210.460964
1210.460953
1210.460946
1210.460934
1210.460963
1210.460974
1210.46096
1210.460938
1210.460949
1210.460967
1210.46102
1210.461227
1210.459588
1210.459586
1210.45955
1210.459556
1210.459578
1210.45961
1210.459594
1210.459588
1210.459587
1210.459603
1210.459617
1210.459686
1210.459885
1210.46041
1210.459536
1210.459557
1210.459564
1210.459555
1210.459566
1210.459532
1210.459532
1210.459535
1210.459552
1210.459557
1210.459617
1210.459805
1210.460404
1210.462143
1210.459712
1210.459704
1210.459695
1210.459684
1210.459679
1210.459691
1210.459686
1210.459658
1210.459675
1210.459685
1210.459761
1210.460169
1210.461766
1210.46733
1210.460797
1210.460814
1210.46082
1210.460795
1210.46081
1210.460817
1210.460813
1210.460802
1210.460802
1210.460825
1210.460962
1210.461644
1210.46479
1210.478523
1210.459138
1210.45913
1210.459148
1210.459169
1210.459148
1210.459135
1210.459143
1210.459146
1210.45915
1210.459194
1210.459264
1210.459686
1210.461296
1210.466892
1210.459853
1210.459853
1210.459876
1210.459852
1210.459852
1210.459864
1210.459881
1210.459856
1210.459846
1210.45986
1210.459912
1210.460075
1210.460672
1210.4624
1210.466216
1210.460766
1210.460756
1210.460745
1210.460756
1210.46075
1210.460734
1210.460728
1210.460733
1210.460733
1210.46074
1210.460775
1210.460855
1210.461059
1210.461578
1210.46263
1210.459729
1210.459722
1210.459722
1210.459742
1210.459728
1210.459739
1210.459737
1210.459733
1210.459739
1210.459729
1210.45972
1210.459747
1210.45982
1210.460022
1210.460402
1210.459723
1210.459732
1210.459721
1210.459722
1210.459731
1210.459733
1210.459706
1210.459696
1210.459741
1210.459716
1210.459723
1210.459772
1210.459836
1210.459958
1210.458949
1210.458952
1210.458977
1210.458993
1210.458979
1210.458989
1210.459002
1210.459009
1210.459013
1210.459006
1210.45902
1210.459037
1210.459143
1210.459396
1210.460176
1210.460159
1210.460137
1210.460136
1210.460133
1210.46015
1210.460156
1210.460153
1210.46015
1210.460143
1210.46017
1210.460241
1210.460509
1210.461199
1210.459882
1210.459896
1210.459923
1210.459918
1210.459928
1210.459893
1210.45988
1210.45987
1210.459875
1210.459908
1210.459936
1210.460105
1210.460688
1210.462435
1210.460409
1210.460424
1210.460419
1210.460464
1210.460493
1210.460497
1210.460481
1210.460489
1210.460496
1210.460512
1210.460562
1210.46082
1210.461764
1210.464996
1210.459703
1210.459704
1210.459685
1210.459704
1210.45971
1210.459693
1210.459704
1210.459699
1210.459692
1210.459681
1210.459749
1210.459898
1210.460499
1210.462258
1210.459576
1210.459585
1210.459594
1210.459565
1210.459576
1210.459535
1210.459542
1210.459502
1210.459494
1210.45948
1210.459498
1210.459595
1210.459859
1210.460591
1210.459879
1210.459891
1210.459878
1210.459877
1210.459887
1210.459902
1210.459913
1210.459902
1210.459898
1210.459917
1210.459922
1210.459942
1210.460052
1210.460313
1210.460799
1210.459263
1210.459262
1210.459261
1210.459277
1210.45928
1210.459293
1210.459279
1210.459289
1210.459295
1210.459303
1210.459311
1210.459322
1210.459374
1210.459502
1210.459722
1210.460018
1210.460027
1210.46002
1210.459993
1210.459996
1210.460002
1210.46001
1210.460003
1210.459996
1210.460006
1210.460026
1210.46003
1210.46005
1210.460108
1210.459591
1210.459594
1210.459571
1210.459559
1210.459555
1210.459531
1210.459535
1210.459512
1210.459504
1210.459521
1210.459495
1210.459503
1210.459541
1210.459641
1210.459513
1210.459507
1210.459489
1210.459482
1210.459473
1210.459446
1210.459453
1210.459439
1210.459425
1210.459434
1210.459447
1210.459484
1210.459571
1210.459858
1210.460227
1210.460243
1210.460232
1210.460226
1210.460231
1210.460244
1210.460257
1210.460247
1210.460234
1210.460237
1210.460254
1210.460317
1210.460505
1210.461036
1210.459797
1210.459812
1210.459806
1210.459829
1210.459828
1210.459846
1210.459849
1210.45986
1210.459887
1210.459887
1210.459911
1210.46
1210.460309
1210.461099
1210.460095
1210.460105
1210.46009
1210.460072
1210.460053
1210.460036
1210.460055
1210.460036
1210.460006
1210.460003
1210.460005
1210.460056
1210.460257
1210.460768
1210.458557
1210.458575
1210.458577
1210.458586
1210.458571
1210.458558
1210.458568
1210.458557
1210.458574
1210.458572
1210.458583
1210.458616
1210.458692
1210.458961
1210.458464
1210.458447
1210.458442
1210.458452
1210.458457
1210.458442
1210.458459
1210.458469
1210.458477
1210.458472
1210.458472
1210.458482
1210.458552
1210.458694
1210.459575
1210.45956
1210.459548
1210.459547
1210.459533
1210.45952
1210.459525
1210.459544
1210.459537
1210.459525
1210.459558
1210.459566
1210.459609
1210.459662
1210.459772
1210.459173
1210.459171
1210.459174
1210.459188
1210.459187
1210.459191
1210.459184
1210.459189
1210.459193
1210.459182
1210.459165
1210.459184
1210.459201
1210.459248
1210.460085
1210.460098
1210.460104
1210.460104
1210.460091
1210.460091
1210.460075
1210.460073
1210.460079
1210.46007
1210.460094
1210.460091
1210.460133
1210.460201
1210.459789
1210.459802
1210.459794
1210.45979
1210.459773
1210.459763
1210.459757
1210.459734
1210.459742
1210.459752
1210.45975
1210.459753
1210.459793
1210.459904
1210.459669
1210.459672
1210.459682
1210.45971
1210.459688
1210.459678
1210.459688
1210.45969
1210.45968
1210.459699
1210.459714
1210.459762
1210.459824
1210.460012
1210.459427
1210.459424
1210.459424
1210.459436
1210.459422
1210.459445
1210.45944
1210.459418
1210.459438
1210.459465
1210.45947
1210.459479
1210.459575
1210.459836
1210.459301
1210.459273
1210.459279
1210.459285
1210.459296
1210.459282
1210.45928
1210.459284
1210.459291
1210.459322
1210.459334
1210.459361
1210.459454
1210.459632
1210.459763
1210.459743
1210.45974
1210.459736
1210.45974
1210.459736
1210.45972
1210.459752
1210.459748
1210.45976
1210.459764
1210.459792
1210.459861
1210.459965
1210.460192
1210.460198
1210.460192
1210.460194
1210.460186
1210.460193
1210.46021
1210.460213
1210.460218
1210.460227
1210.460235
1210.46025
1210.460261
1210.460328
1210.459472
1210.459484
1210.459483
1210.459513
1210.459513
1210.459518
1210.459534
1210.459526
1210.45952
1210.459528
1210.459527
1210.459544
1210.45954
1210.459574
)
;

boundaryField
{
    top
    {
        type            calculated;
        value           nonuniform List<scalar> 
134
(
1210.459871
1210.459973
1210.459354
1210.459263
1210.459745
1210.459729
1210.459263
1210.459575
1210.459472
1210.459875
1210.459971
1210.459356
1210.459256
1210.459707
1210.459722
1210.459262
1210.45956
1210.459484
1210.459872
1210.459966
1210.459355
1210.459269
1210.459696
1210.459722
1210.459261
1210.459548
1210.459483
1210.459854
1210.459953
1210.459365
1210.459264
1210.459693
1210.459742
1210.459277
1210.459547
1210.459513
1210.459871
1210.459963
1210.459362
1210.459256
1210.459686
1210.459728
1210.45928
1210.459533
1210.459513
1210.459892
1210.459978
1210.459366
1210.459272
1210.459687
1210.459739
1210.459293
1210.45952
1210.459518
1210.459904
1210.459976
1210.45934
1210.459273
1210.459701
1210.459737
1210.459279
1210.459525
1210.459534
1210.459928
1210.459982
1210.45936
1210.459276
1210.459699
1210.459733
1210.459289
1210.459544
1210.459526
1210.459918
1210.459963
1210.459347
1210.459285
1210.459691
1210.459739
1210.459295
1210.459537
1210.45952
1210.459914
1210.459971
1210.459343
1210.459297
1210.459708
1210.459729
1210.459303
1210.459525
1210.459528
1210.459911
1210.459974
1210.459351
1210.4593
1210.459727
1210.45972
1210.459311
1210.459558
1210.459527
1210.459915
1210.459973
1210.459373
1210.45933
1210.459765
1210.459747
1210.459322
1210.459566
1210.459544
1210.459932
1210.460006
1210.459436
1210.459412
1210.45986
1210.45982
1210.459374
1210.459609
1210.45954
1210.459946
1210.460067
1210.459544
1210.459626
1210.460131
1210.460022
1210.459502
1210.459662
1210.459574
1210.460012
1210.46017
1210.459759
1210.459999
1210.460633
1210.460402
1210.459722
1210.459772
)
;
    }
    bottom
    {
        type            calculated;
        value           nonuniform List<scalar> 
127
(
1210.459864
1210.459971
1210.459962
1210.459196
1210.459841
1210.46094
1210.459723
1210.460018
1210.459173
1210.459883
1210.459988
1210.459953
1210.459215
1210.459855
1210.460936
1210.459732
1210.460027
1210.459171
1210.459879
1210.459998
1210.459937
1210.459202
1210.459845
1210.460964
1210.459721
1210.46002
1210.459174
1210.459855
1210.460004
1210.459927
1210.459181
1210.45986
1210.460953
1210.459722
1210.459993
1210.459188
1210.459848
1210.459998
1210.459939
1210.459194
1210.459863
1210.460946
1210.459731
1210.459996
1210.459187
1210.45985
1210.459972
1210.459948
1210.4592
1210.459885
1210.460934
1210.459733
1210.460002
1210.459191
1210.459843
1210.459987
1210.459953
1210.459181
1210.459874
1210.460963
1210.459706
1210.46001
1210.459184
1210.459863
1210.459997
1210.459965
1210.45916
1210.459874
1210.460974
1210.459696
1210.460003
1210.459189
1210.459848
1210.459974
1210.459987
1210.459196
1210.459889
1210.46096
1210.459741
1210.459996
1210.459193
1210.459866
1210.45997
1210.459989
1210.459221
1210.459886
1210.460938
1210.459716
1210.460006
1210.459182
1210.459868
1210.459966
1210.459997
1210.459245
1210.459902
1210.460949
1210.459723
1210.460026
1210.459165
1210.459858
1210.459984
1210.460025
1210.459272
1210.459938
1210.460967
1210.459772
1210.46003
1210.459184
1210.459886
1210.460012
1210.460063
1210.45935
1210.460025
1210.46102
1210.459836
1210.46005
1210.459201
1210.459892
1210.460086
1210.460188
1210.459566
1210.460275
1210.461227
1210.459958
1210.460108
1210.459248
1210.459973
)
;
    }
    side-walls
    {
        type            calculated;
        value           nonuniform List<scalar> 
261
(
1210.459864
1210.46053
1210.459708
1210.459309
1210.45931
1210.459732
1210.459995
1210.459871
1210.459871
1210.459883
1210.460533
1210.459722
1210.459336
1210.459314
1210.459742
1210.459998
1210.459852
1210.459875
1210.459879
1210.460526
1210.459723
1210.459331
1210.459303
1210.459748
1210.459989
1210.459843
1210.459872
1210.459855
1210.460507
1210.4597
1210.459324
1210.459333
1210.459755
1210.459987
1210.459846
1210.459854
1210.459848
1210.460499
1210.459694
1210.459335
1210.459297
1210.459751
1210.460009
1210.459856
1210.459871
1210.45985
1210.460503
1210.459694
1210.459354
1210.459286
1210.45976
1210.46
1210.459863
1210.459892
1210.459843
1210.460518
1210.459675
1210.459361
1210.459298
1210.459743
1210.459988
1210.459874
1210.459904
1210.459863
1210.460513
1210.45967
1210.459363
1210.4593
1210.459745
1210.460012
1210.459859
1210.459928
1210.459848
1210.460525
1210.459675
1210.45937
1210.459316
1210.459745
1210.459993
1210.45984
1210.459918
1210.459866
1210.460511
1210.459692
1210.459369
1210.459309
1210.459743
1210.460014
1210.459831
1210.459914
1210.459868
1210.460517
1210.45968
1210.459369
1210.459328
1210.459747
1210.460013
1210.459828
1210.459911
1210.459858
1210.460539
1210.459703
1210.459387
1210.459373
1210.459792
1210.460035
1210.459849
1210.459915
1210.459886
1210.460544
1210.459748
1210.459473
1210.459483
1210.459865
1210.460101
1210.459862
1210.459932
1210.459892
1210.460608
1210.459845
1210.459661
1210.459757
1210.460056
1210.460217
1210.459914
1210.459946
1210.459973
1210.460724
1210.46006
1210.460032
1210.460256
1210.460466
1210.46046
1210.46003
1210.460012
1210.459173
1210.460085
1210.459789
1210.459669
1210.459427
1210.459301
1210.459763
1210.460192
1210.459472
1210.459171
1210.460098
1210.459802
1210.459672
1210.459424
1210.459273
1210.459743
1210.460198
1210.459484
1210.459174
1210.460104
1210.459794
1210.459682
1210.459424
1210.459279
1210.45974
1210.460192
1210.459483
1210.459188
1210.460104
1210.45979
1210.45971
1210.459436
1210.459285
1210.459736
1210.460194
1210.459513
1210.459187
1210.460091
1210.459773
1210.459688
1210.459422
1210.459296
1210.45974
1210.460186
1210.459513
1210.459191
1210.460091
1210.459763
1210.459678
1210.459445
1210.459282
1210.459736
1210.460193
1210.459518
1210.459184
1210.460075
1210.459757
1210.459688
1210.45944
1210.45928
1210.45972
1210.46021
1210.459534
1210.459189
1210.460073
1210.459734
1210.45969
1210.459418
1210.459284
1210.459752
1210.460213
1210.459526
1210.459193
1210.460079
1210.459742
1210.45968
1210.459438
1210.459291
1210.459748
1210.460218
1210.45952
1210.459182
1210.46007
1210.459752
1210.459699
1210.459465
1210.459322
1210.45976
1210.460227
1210.459528
1210.459165
1210.460094
1210.45975
1210.459714
1210.45947
1210.459334
1210.459764
1210.460235
1210.459527
1210.459184
1210.460091
1210.459753
1210.459762
1210.459479
1210.459361
1210.459792
1210.46025
1210.459544
1210.459201
1210.460133
1210.459793
1210.459824
1210.459575
1210.459454
1210.459861
1210.460261
1210.45954
1210.459248
1210.460201
1210.459904
1210.460012
1210.459836
1210.459632
1210.459965
1210.460328
1210.459574
)
;
    }
    inlet
    {
        type            calculated;
        value           nonuniform List<scalar> 
81
(
1210.459864
1210.46053
1210.459708
1210.459309
1210.45931
1210.459732
1210.459995
1210.459871
1210.459871
1210.459971
1210.458635
1210.458972
1210.460262
1210.460851
1210.460134
1210.459601
1210.460546
1210.459973
1210.459962
1210.460693
1210.459973
1210.460379
1210.460479
1210.459332
1210.459625
1210.459042
1210.459354
1210.459196
1210.459167
1210.459443
1210.460447
1210.4588
1210.459377
1210.459381
1210.460311
1210.459263
1210.459841
1210.459799
1210.46026
1210.459123
1210.459816
1210.459379
1210.460168
1210.459676
1210.459745
1210.46094
1210.459588
1210.459536
1210.459712
1210.460797
1210.459138
1210.459853
1210.460766
1210.459729
1210.459723
1210.458949
1210.460176
1210.459882
1210.460409
1210.459703
1210.459576
1210.459879
1210.459263
1210.460018
1210.459591
1210.459513
1210.460227
1210.459797
1210.460095
1210.458557
1210.458464
1210.459575
1210.459173
1210.460085
1210.459789
1210.459669
1210.459427
1210.459301
1210.459763
1210.460192
1210.459472
)
;
    }
    outlet
    {
        type            calculated;
        value           nonuniform 0();
    }
    procBoundary0to1
    {
        type            processor;
        value           nonuniform List<scalar> 
97
(
1210.460085
1210.460206
1210.460898
1210.460418
1210.460613
1210.461004
1210.461069
1210.460811
1210.460204
1210.460092
1210.460206
1210.460206
1210.459371
1210.461646
1210.460759
1210.463588
1210.465801
1210.463376
1210.461269
1210.461269
1210.460336
1210.460389
1210.461646
1210.461646
1210.464518
1210.465818
1210.471034
1210.479062
1210.469788
1210.464057
1210.460812
1210.460143
1210.459945
1210.461107
1210.465818
1210.465818
1210.492018
1210.524101
1210.531173
1210.490892
1210.46988
1210.463705
1210.460588
1210.460819
1210.462596
1210.472835
1210.524101
1210.524101
1210.03088
1210.525748
1210.531699
1210.481092
1210.478612
1210.46449
1210.461378
1210.461571
1210.461481
1210.465963
1210.481518
1210.525748
1210.481092
1210.481092
1210.470356
1210.462023
1210.464081
1210.460967
1210.460192
1210.459944
1210.462623
1210.466252
1210.473023
1210.466084
1210.462023
1210.462023
1210.461558
1210.458904
1210.460077
1210.460188
1210.459873
1210.460361
1210.4621
1210.462817
1210.461832
1210.459487
1210.458904
1210.458904
1210.459945
1210.45965
1210.459295
1210.460309
1210.460124
1210.460363
1210.460362
1210.460008
1210.460156
1210.46044
1210.45965
)
;
    }
}


// ************************************************************************* //
