/*--------------------------------*- C++ -*----------------------------------*\
| =========                 |                                                 |
| \\      /  F ield         | OpenFOAM: The Open Source CFD Toolbox           |
|  \\    /   O peration     | Version:  4.x                                   |
|   \\  /    A nd           | Web:      www.OpenFOAM.org                      |
|    \\/     M anipulation  |                                                 |
\*---------------------------------------------------------------------------*/
FoamFile
{
    version     2.0;
    format      ascii;
    class       volScalarField;
    location    "7000";
    object      molarConc;
}
// * * * * * * * * * * * * * * * * * * * * * * * * * * * * * * * * * * * * * //

dimensions      [0 -3 0 0 1 0 0];

internalField   nonuniform List<scalar> 
1175
(
9.963272336
9.96327128
9.96327154
9.963272867
9.963273208
9.963273115
9.963273475
9.963272388
9.963273225
9.963272275
9.963272309
9.963273208
9.963272472
9.963273923
9.963273016
9.963235768
9.963235601
9.963235984
9.963237036
9.963237465
9.963237247
9.963236449
9.963236695
9.963236062
9.963236903
9.963236796
9.963236125
9.963237218
9.963236777
9.963236512
9.963280931
9.963280149
9.963280089
9.96328136
9.963281694
9.963281699
9.963282703
9.96328302
9.963282779
9.963281966
9.963282928
9.963282695
9.963282799
9.963283533
9.963283718
9.963302842
9.963301322
9.963301648
9.963302001
9.963301396
9.963300374
9.963299987
9.963299905
9.963299529
9.963299758
9.963300302
9.963300905
9.963300535
9.963300754
9.96330133
9.963302777
9.963302538
9.963303169
9.963301487
9.963303463
9.963304109
9.963303462
9.963303369
9.963302501
9.963303114
9.963302688
9.963302184
9.963301738
9.963300582
9.963301105
9.963279591
9.963279043
9.963278721
9.963278341
9.96327855
9.963278059
9.963278991
9.963278916
9.96327893
9.963279228
9.963279523
9.963278661
9.96327902
9.963279063
9.963277508
9.963265155
9.963264964
9.963265478
9.963265583
9.963264363
9.963264879
9.963265513
9.963264207
9.963265307
9.963264251
9.963264643
9.963264446
9.963263451
9.963263112
9.963261735
9.963271962
9.963272994
9.96327352
9.963273307
9.963272765
9.963272427
9.963271793
9.963272638
9.96327368
9.96327428
9.963274618
9.963273982
9.963274656
9.963274895
9.963274672
9.963271962
9.963271764
9.963271897
9.963272886
9.963271938
9.963270811
9.963270131
9.963268813
9.963269415
9.96326966
9.963269948
9.963270065
9.963269949
9.963270954
9.963270881
9.963266451
9.963265524
9.963264975
9.963264639
9.963264997
9.963266415
9.963265603
9.963265076
9.963266327
9.963266599
9.963267055
9.963266608
9.963266424
9.963265477
9.963339842
9.963340407
9.963340137
9.963340287
9.963340666
9.963340213
9.963340579
9.963341372
9.96334098
9.963342477
9.963342098
9.963341383
9.963341597
9.96334282
9.963341554
9.963321313
9.963320982
9.963319261
9.963318201
9.963318793
9.963318389
9.963318037
9.963318273
9.963317954
9.963318445
9.963317727
9.963317191
9.963315979
9.963316151
9.963316552
9.963250508
9.963249796
9.963249393
9.963250213
9.963250648
9.963250968
9.963252163
9.963252061
9.963251929
9.963251434
9.96325107
9.963251378
9.963251449
9.963252444
9.963251681
9.96321811
9.96321773
9.963217334
9.963217554
9.963216614
9.963216372
9.96321564
9.963215734
9.963216584
9.963214975
9.963216188
9.963214202
9.963213732
9.963214553
9.963214149
9.963257538
9.963256872
9.963256557
9.963255782
9.963257138
9.963257491
9.963257862
9.963258152
9.963259139
9.963259581
9.963261642
9.963261132
9.963262117
9.96326191
9.963262214
9.96328679
9.963287104
9.963286632
9.963287727
9.96328837
9.963287259
9.963289051
9.963289726
9.96328871
9.963289164
9.963288353
9.963288823
9.963289489
9.963289168
9.963288784
9.963234909
9.963235188
9.963234858
9.963234983
9.963235173
9.963235067
9.963233507
9.963234064
9.963235382
9.963234972
9.963235704
9.963235657
9.963234881
9.963235104
9.963236205
9.963266352
9.963266486
9.963266735
9.963267479
9.963266881
9.963266092
9.963266172
9.963265854
9.963266961
9.96326655
9.963266605
9.963267193
9.963266739
9.963266502
9.96326695
9.963266956
9.963267434
9.963268344
9.963268883
9.963268204
9.963267754
9.963267461
9.963266798
9.963265615
9.96326564
9.963265549
9.96326497
9.963265518
9.963264722
9.963226792
9.963227368
9.963226374
9.963225733
9.963225244
9.96322493
9.963223775
9.963223435
9.963223568
9.963222433
9.963222586
9.963221986
9.963222903
9.963224638
9.963266364
9.96326548
9.963265931
9.963263714
9.963264075
9.963264066
9.963264151
9.963264231
9.963263551
9.963262214
9.963262364
9.963260952
9.963261496
9.963261846
9.963261908
9.963244077
9.963244561
9.963245554
9.963243637
9.963242988
9.963242743
9.963241634
9.963241063
9.963240122
9.963240568
9.963241248
9.96324073
9.963240626
9.963240297
9.963239755
9.963238576
9.963238276
9.963240005
9.963240261
9.96324032
9.963238622
9.963238406
9.963239419
9.963239539
9.963238489
9.963236736
9.963236206
9.963235688
9.963237264
9.963235897
9.96330156
9.963301598
9.963302043
9.963303335
9.963303375
9.963303527
9.96330356
9.963304338
9.963306022
9.963306716
9.963305468
9.963306052
9.963306352
9.963307664
9.963306715
9.963285469
9.963284531
9.963285242
9.963285938
9.963285929
9.963285968
9.963285261
9.96328486
9.963284449
9.96328457
9.96328413
9.963286724
9.963287348
9.963287286
9.963286026
9.963317477
9.96331756
9.96331823
9.963318543
9.96331769
9.963316749
9.963317138
9.963315834
9.963315576
9.963316761
9.963316205
9.96331532
9.963315356
9.963316467
9.963314192
9.963300353
9.963300232
9.963300324
9.963299768
9.963299914
9.963299719
9.963301142
9.963300055
9.963300812
9.963301135
9.963301038
9.963300792
9.963299967
9.963300063
9.963300238
9.963309055
9.963308015
9.96330873
9.963309858
9.963309159
9.9633088
9.96330986
9.963311019
9.963309103
9.963307881
9.963307126
9.963307219
9.963307294
9.963305986
9.963310652
9.963309717
9.963310855
9.963310997
9.963312169
9.963311679
9.963311249
9.963307781
9.963308064
9.963306887
9.963307776
9.963308399
9.963308877
9.963307816
9.963295471
9.963297
9.963295414
9.963295701
9.963294281
9.963294634
9.963297154
9.963298384
9.963297339
9.963298769
9.963298609
9.963297497
9.963295955
9.963296785
9.963240332
9.963240218
9.963240328
9.963240483
9.963240237
9.96323934
9.963238856
9.963239065
9.963238029
9.963237348
9.963236978
9.963236834
9.963236159
9.96323677
9.963235286
9.96333077
9.963330316
9.963329819
9.963327887
9.963328181
9.963328566
9.963327918
9.963326472
9.963327806
9.963327684
9.963327362
9.963327011
9.963327762
9.963326514
9.963343189
9.963299071
9.963298826
9.96329862
9.963299213
9.963298819
9.96329737
9.963296947
9.963295629
9.963296065
9.963297844
9.963300249
9.963298246
9.963298582
9.963298335
9.963298088
9.963298871
9.963297875
9.963298698
9.963297543
9.963298556
9.963297566
9.963298149
9.963298081
9.963298127
9.963298164
9.963298128
9.963300217
9.963301577
9.963301813
9.96329987
9.963247805
9.963247532
9.963247554
9.963247695
9.963247756
9.96324746
9.963247451
9.963244697
9.963245184
9.963245056
9.963244807
9.963245719
9.963245091
9.963245977
9.963243822
9.963305369
9.963305728
9.963305022
9.96330531
9.963305749
9.963304863
9.963304802
9.963304648
9.963304219
9.963303705
9.963304072
9.96330402
9.963303874
9.963302677
9.96330314
9.963273602
9.963272858
9.963273368
9.963272587
9.963272425
9.963271191
9.96327179
9.9632718
9.963271027
9.963271396
9.963271169
9.963271153
9.963271937
9.963272083
9.96327592
9.963276461
9.963276376
9.963277443
9.963279701
9.963279078
9.96327962
9.963278904
9.963280565
9.963280554
9.963280022
9.963279975
9.963280787
9.963281581
9.963250604
9.963250022
9.963251835
9.963252596
9.963251275
9.963250464
9.963248531
9.963248737
9.963248746
9.963248572
9.963249722
9.963249668
9.963248398
9.96324864
9.963313035
9.963313295
9.963312561
9.963311523
9.963311281
9.963312434
9.963311541
9.963310791
9.963312177
9.963311281
9.963309861
9.963311163
9.963312408
9.963311616
9.963275002
9.963275754
9.963275974
9.963275503
9.963274957
9.963276006
9.963276624
9.963277744
9.963278469
9.963278701
9.963278765
9.963279007
9.963278592
9.963275384
10.00057285
9.963298993
9.963298835
9.96330024
9.963300656
9.963300126
9.963300214
9.963298851
9.963299058
9.963298924
9.963297525
9.963298793
9.96329837
9.963297308
9.963296922
9.963313915
9.963255621
9.963257315
9.963259407
9.963259808
9.96325992
9.963259098
9.963260121
9.963261174
9.963260927
9.963261194
9.963261358
9.963259798
9.963260518
9.963261463
9.963261592
9.963282689
9.963282326
9.963282725
9.963282594
9.963282544
9.963282429
9.963281774
9.963280461
9.963282533
9.963283114
9.963283224
9.963284849
9.963285855
9.963285855
9.96328554
9.963278889
9.963280981
9.96328155
9.963281741
9.963282145
9.963282092
9.963281301
9.963281426
9.963281902
9.963281194
9.963280779
9.963280649
9.963281028
9.963280016
9.963280369
9.963213244
9.963213477
9.963211939
9.963212538
9.96321294
9.963213554
9.963211967
9.963211389
9.963212211
9.963213602
9.963213515
9.963214084
9.963215559
9.963214773
9.96328749
9.963287618
9.963289583
9.963289245
9.963288035
9.963286284
9.963287184
9.963287536
9.96328769
9.963287094
9.96328745
9.963287251
9.963287305
9.963287176
9.963290372
9.96328921
9.963288831
9.963289327
9.963288723
9.963290558
9.963290606
9.963290453
9.963289697
9.9632901
9.963289385
9.963288611
9.963288328
9.963288561
9.963280712
9.963281125
9.96328163
9.963282215
9.963282493
9.963281868
9.963282133
9.963283722
9.963283082
9.963283756
9.963284904
9.963284746
9.963284963
9.963284383
9.963221078
9.963220157
9.963219838
9.963221236
9.963220403
9.963220032
9.963220237
9.963220926
9.963221297
9.963221692
9.963222008
9.963221699
9.963221794
9.963220689
9.963312209
9.963312688
9.963311659
9.963310502
9.963311689
9.963312402
9.963311969
9.963311875
9.963311935
9.963310746
9.963312153
9.963311282
9.963310728
9.963308466
9.963272957
9.963272961
9.963271662
9.963272982
9.963272993
9.963272356
9.963271417
9.963272825
9.963273571
9.963273439
9.963273169
9.963273768
9.963273588
9.963274438
9.963274702
9.963222784
9.963223356
9.96322395
9.963223363
9.963223703
9.963224553
9.963224913
9.963224621
9.963224724
9.963224677
9.963223795
9.963223033
9.963222866
9.963223043
9.96322399
9.963279736
9.963280125
9.963280134
9.963279033
9.963279811
9.96327921
9.963279309
9.963279543
9.963279287
9.963279983
9.963280983
9.963281113
9.963281501
9.963280937
9.96328101
9.963280072
9.963279602
9.963280203
9.963280123
9.963279657
9.963279539
9.96328101
9.963281574
9.963279145
9.963280637
9.963280575
9.9632789
9.963277985
9.963277337
9.963322625
9.963322419
9.963321049
9.963320163
9.963320969
9.963320396
9.963319674
9.963319311
9.963319189
9.963319716
9.963319623
9.963320686
9.963320594
9.963320777
9.963255228
9.963256146
9.963257349
9.963257407
9.963257588
9.963256612
9.963256292
9.963256507
9.963256791
9.963257536
9.963257429
9.96325826
9.963258037
9.963258511
9.963271343
9.963270594
9.963269079
9.963269372
9.963268832
9.963270763
9.963271476
9.963272048
9.963271965
9.963270801
9.963271847
9.963272101
9.96327272
9.963272529
9.963242406
9.963241602
9.963241874
9.963239397
9.963237788
9.963237588
9.963238474
9.963238105
9.963237878
9.963237861
9.963238624
9.963238514
9.963239771
9.963239155
9.963281195
9.963281107
9.963282187
9.963281131
9.963280782
9.963281722
9.963281144
9.963281485
9.963281984
9.963283281
9.963282083
9.963283493
9.963283099
9.963282227
9.963288163
9.963287697
9.963287201
9.963288795
9.963288139
9.963290406
9.963290023
9.963292284
9.963292818
9.963293934
9.963294339
9.963293711
9.963293748
9.963291913
9.96327152
9.96327086
9.96327159
9.963271657
9.963271094
9.963270263
9.963269652
9.963270289
9.96327057
9.963269725
9.963270103
9.963270984
9.963270674
9.96327042
9.963271742
9.963305383
9.963305409
9.963305457
9.963304596
9.963304416
9.963303733
9.963304484
9.963303937
9.963303664
9.963303312
9.963303222
9.963303627
9.963303329
9.963302388
9.963302256
9.963263898
9.963263402
9.9632638
9.963265238
9.963265073
9.963264779
9.963264324
9.963264719
9.96326511
9.963264624
9.963263716
9.963264045
9.963264352
9.963264248
9.963287342
9.963287169
9.963288412
9.96328908
9.963289295
9.963290612
9.963290404
9.963291675
9.963292177
9.963291334
9.963293109
9.963293645
9.963294207
9.963294852
9.963291625
9.963291933
9.963292961
9.963293305
9.963293837
9.963295332
9.963294933
9.963295707
9.963296553
9.96329624
9.963296186
9.963296188
9.963297102
9.963295413
9.963252394
9.963251546
9.963252126
9.963252465
9.963252209
9.963251501
9.963250756
9.963251355
9.963252127
9.963252255
9.963252417
9.963252584
9.963253302
9.963252813
9.963276005
9.963275175
9.963275514
9.963274285
9.963274318
9.963273339
9.963273159
9.963272594
9.963271235
9.963271569
9.963271644
9.963271603
9.963270195
9.963270248
9.963259636
9.96325912
9.963259946
9.963260898
9.963261987
9.963262893
9.963261844
9.963262922
9.963264685
9.963265125
9.963266096
9.963266919
9.963266923
9.963267536
9.963344144
9.963343123
9.963343016
9.963342518
9.963343352
9.963344068
9.963343532
9.963344163
9.963343274
9.963343591
9.96334362
9.96334381
9.963345409
9.963344645
9.963349216
9.963350191
9.963350429
9.963349888
9.96334962
9.963350444
9.963349542
9.963348984
9.963348574
9.963348964
9.963349313
9.963349722
9.963348525
9.963346887
9.963288218
9.963289064
9.96328968
9.963289774
9.963290514
9.963291263
9.963290962
9.963289949
9.963290337
9.963291056
9.963289453
9.963289534
9.96328858
9.963288773
9.963288809
9.963310325
9.963310398
9.963310225
9.963309492
9.963309516
9.963309327
9.963309689
9.963309454
9.963309227
9.963309881
9.963310948
9.963310234
9.96331012
9.963309303
9.963260202
9.963259486
9.963259176
9.963259176
9.963259878
9.963259905
9.96326075
9.963260868
9.96326055
9.963261116
9.963260005
9.963260701
9.963259797
9.963259128
9.963276442
9.963275745
9.963276183
9.963276412
9.963277324
9.96327789
9.963278243
9.963279502
9.96327912
9.963278652
9.963279115
9.963279909
9.963280323
9.963280302
9.963283041
9.963282891
9.963282367
9.963280813
9.963282002
9.963282576
9.963282028
9.963281927
9.963282497
9.96328165
9.963281349
9.963280295
9.963281274
9.96328149
9.963296321
9.963296487
9.963296539
9.963295852
9.963296619
9.963295352
9.963295664
9.963296878
9.963295838
9.96329453
9.9632949
9.963296378
9.963296673
9.963296214
9.963303283
9.963304784
9.963304454
9.963304134
9.96330353
9.963304287
9.963304414
9.963304237
9.963303875
9.963302335
9.963302201
9.963302312
9.963301566
9.96330233
9.96327788
9.963278985
9.963279153
9.963279403
9.96327913
9.963279396
9.963280237
9.963278491
9.963278755
9.963278237
9.963278346
9.963277804
9.963276617
9.963276939
9.963254348
9.963253991
9.963254318
9.963254229
9.96325467
9.963254257
9.963253341
9.963253211
9.96325294
9.963252479
9.963252235
9.963252004
9.963252774
9.963252184
9.963293868
9.96329321
9.963293266
9.963291609
9.963291628
9.963291356
9.963290461
9.963290912
9.963291245
9.96329086
9.963291024
9.963290419
9.96329147
9.963291389
)
;

boundaryField
{
    top
    {
        type            calculated;
        value           nonuniform List<scalar> 
134
(
9.963271962
9.963266352
9.963300353
9.963305369
9.963278889
9.963279736
9.963305383
9.963288218
9.963293868
9.963271764
9.963266486
9.963300232
9.963305728
9.963280981
9.963280125
9.963305409
9.963289064
9.96329321
9.963271897
9.963266735
9.963300324
9.963305022
9.96328155
9.963280134
9.963305457
9.96328968
9.963293266
9.963272886
9.963267479
9.963299768
9.96330531
9.963281741
9.963279033
9.963304596
9.963289774
9.963291609
9.963271938
9.963266881
9.963299914
9.963305749
9.963282145
9.963279811
9.963304416
9.963290514
9.963291628
9.963270811
9.963266092
9.963299719
9.963304863
9.963282092
9.96327921
9.963303733
9.963291263
9.963291356
9.963270131
9.963266172
9.963301142
9.963304802
9.963281301
9.963279309
9.963304484
9.963290962
9.963290461
9.963268813
9.963265854
9.963300055
9.963304648
9.963281426
9.963279543
9.963303937
9.963289949
9.963290912
9.963269415
9.963266961
9.963300812
9.963304219
9.963281902
9.963279287
9.963303664
9.963290337
9.963291245
9.96326966
9.96326655
9.963301135
9.963303705
9.963281194
9.963279983
9.963303312
9.963291056
9.96329086
9.963269948
9.963266605
9.963301038
9.963304072
9.963280779
9.963280983
9.963303222
9.963289453
9.963291024
9.963270065
9.963267193
9.963300792
9.96330402
9.963280649
9.963281113
9.963303627
9.963289534
9.963290419
9.963269949
9.963266739
9.963299967
9.963303874
9.963281028
9.963281501
9.963303329
9.96328858
9.96329147
9.963270954
9.963266502
9.963300063
9.963302677
9.963280016
9.963280937
9.963302388
9.963288773
9.963291389
9.963270881
9.96326695
9.963300238
9.96330314
9.963280369
9.96328101
9.963302256
9.963288809
)
;
    }
    bottom
    {
        type            calculated;
        value           nonuniform List<scalar> 
127
(
9.963272336
9.963266451
9.963266956
9.963309055
9.963273602
9.963213244
9.963280072
9.963263898
9.963310325
9.96327128
9.963265524
9.963267434
9.963308015
9.963272858
9.963213477
9.963279602
9.963263402
9.963310398
9.96327154
9.963264975
9.963268344
9.96330873
9.963273368
9.963211939
9.963280203
9.9632638
9.963310225
9.963272867
9.963264639
9.963268883
9.963309858
9.963272587
9.963212538
9.963280123
9.963265238
9.963309492
9.963273208
9.963264997
9.963268204
9.963309159
9.963272425
9.96321294
9.963279657
9.963265073
9.963309516
9.963273115
9.963266415
9.963267754
9.9633088
9.963271191
9.963213554
9.963279539
9.963264779
9.963309327
9.963273475
9.963265603
9.963267461
9.96330986
9.96327179
9.963211967
9.96328101
9.963264324
9.963309689
9.963272388
9.963265076
9.963266798
9.963311019
9.9632718
9.963211389
9.963281574
9.963264719
9.963309454
9.963273225
9.963266327
9.963265615
9.963309103
9.963271027
9.963212211
9.963279145
9.96326511
9.963309227
9.963272275
9.963266599
9.96326564
9.963307881
9.963271396
9.963213602
9.963280637
9.963264624
9.963309881
9.963272309
9.963267055
9.963265549
9.963307126
9.963271169
9.963213515
9.963280575
9.963263716
9.963310948
9.963273208
9.963266608
9.96326497
9.963307219
9.963271153
9.963214084
9.9632789
9.963264045
9.963310234
9.963272472
9.963266424
9.963265518
9.963307294
9.963271937
9.963215559
9.963277985
9.963264352
9.96331012
9.963273923
9.963265477
9.963264722
9.963305986
9.963272083
9.963214773
9.963277337
9.963264248
9.963309303
9.963273016
)
;
    }
    side-walls
    {
        type            calculated;
        value           nonuniform List<scalar> 
261
(
9.963272336
9.963235768
9.963280931
9.963302842
9.963302777
9.963279591
9.963265155
9.963271962
9.963271962
9.96327128
9.963235601
9.963280149
9.963301322
9.963302538
9.963279043
9.963264964
9.963272994
9.963271764
9.96327154
9.963235984
9.963280089
9.963301648
9.963303169
9.963278721
9.963265478
9.96327352
9.963271897
9.963272867
9.963237036
9.96328136
9.963302001
9.963301487
9.963278341
9.963265583
9.963273307
9.963272886
9.963273208
9.963237465
9.963281694
9.963301396
9.963303463
9.96327855
9.963264363
9.963272765
9.963271938
9.963273115
9.963237247
9.963281699
9.963300374
9.963304109
9.963278059
9.963264879
9.963272427
9.963270811
9.963273475
9.963236449
9.963282703
9.963299987
9.963303462
9.963278991
9.963265513
9.963271793
9.963270131
9.963272388
9.963236695
9.96328302
9.963299905
9.963303369
9.963278916
9.963264207
9.963272638
9.963268813
9.963273225
9.963236062
9.963282779
9.963299529
9.963302501
9.96327893
9.963265307
9.96327368
9.963269415
9.963272275
9.963236903
9.963281966
9.963299758
9.963303114
9.963279228
9.963264251
9.96327428
9.96326966
9.963272309
9.963236796
9.963282928
9.963300302
9.963302688
9.963279523
9.963264643
9.963274618
9.963269948
9.963273208
9.963236125
9.963282695
9.963300905
9.963302184
9.963278661
9.963264446
9.963273982
9.963270065
9.963272472
9.963237218
9.963282799
9.963300535
9.963301738
9.96327902
9.963263451
9.963274656
9.963269949
9.963273923
9.963236777
9.963283533
9.963300754
9.963300582
9.963279063
9.963263112
9.963274895
9.963270954
9.963273016
9.963236512
9.963283718
9.96330133
9.963301105
9.963277508
9.963261735
9.963274672
9.963270881
9.963310325
9.963260202
9.963276442
9.963283041
9.963296321
9.963303283
9.96327788
9.963254348
9.963293868
9.963310398
9.963259486
9.963275745
9.963282891
9.963296487
9.963304784
9.963278985
9.963253991
9.96329321
9.963310225
9.963259176
9.963276183
9.963282367
9.963296539
9.963304454
9.963279153
9.963254318
9.963293266
9.963309492
9.963259176
9.963276412
9.963280813
9.963295852
9.963304134
9.963279403
9.963254229
9.963291609
9.963309516
9.963259878
9.963277324
9.963282002
9.963296619
9.96330353
9.96327913
9.96325467
9.963291628
9.963309327
9.963259905
9.96327789
9.963282576
9.963295352
9.963304287
9.963279396
9.963254257
9.963291356
9.963309689
9.96326075
9.963278243
9.963282028
9.963295664
9.963304414
9.963280237
9.963253341
9.963290461
9.963309454
9.963260868
9.963279502
9.963281927
9.963296878
9.963304237
9.963278491
9.963253211
9.963290912
9.963309227
9.96326055
9.96327912
9.963282497
9.963295838
9.963303875
9.963278755
9.96325294
9.963291245
9.963309881
9.963261116
9.963278652
9.96328165
9.96329453
9.963302335
9.963278237
9.963252479
9.96329086
9.963310948
9.963260005
9.963279115
9.963281349
9.9632949
9.963302201
9.963278346
9.963252235
9.963291024
9.963310234
9.963260701
9.963279909
9.963280295
9.963296378
9.963302312
9.963277804
9.963252004
9.963290419
9.96331012
9.963259797
9.963280323
9.963281274
9.963296673
9.963301566
9.963276617
9.963252774
9.96329147
9.963309303
9.963259128
9.963280302
9.96328149
9.963296214
9.96330233
9.963276939
9.963252184
9.963291389
)
;
    }
    inlet
    {
        type            calculated;
        value           nonuniform List<scalar> 
81
(
9.963272336
9.963235768
9.963280931
9.963302842
9.963302777
9.963279591
9.963265155
9.963271962
9.963271962
9.963266451
9.963339842
9.963321313
9.963250508
9.96321811
9.963257538
9.96328679
9.963234909
9.963266352
9.963266956
9.963226792
9.963266364
9.963244077
9.963238576
9.96330156
9.963285469
9.963317477
9.963300353
9.963309055
9.963310652
9.963295471
9.963240332
9.96333077
9.963299071
9.963298871
9.963247805
9.963305369
9.963273602
9.96327592
9.963250604
9.963313035
9.963275002
9.963298993
9.963255621
9.963282689
9.963278889
9.963213244
9.96328749
9.963290372
9.963280712
9.963221078
9.963312209
9.963272957
9.963222784
9.963279736
9.963280072
9.963322625
9.963255228
9.963271343
9.963242406
9.963281195
9.963288163
9.96327152
9.963305383
9.963263898
9.963287342
9.963291625
9.963252394
9.963276005
9.963259636
9.963344144
9.963349216
9.963288218
9.963310325
9.963260202
9.963276442
9.963283041
9.963296321
9.963303283
9.96327788
9.963254348
9.963293868
)
;
    }
    outlet
    {
        type            calculated;
        value           nonuniform 0();
    }
    procBoundary0to1
    {
        type            processor;
        value           nonuniform List<scalar> 
97
(
9.963273021
9.963265017
9.963237312
9.963283517
9.963301885
9.963301217
9.963276853
9.963261946
9.963275441
9.963272599
9.963265017
9.963265017
9.96334144
9.963225226
9.9633162
9.963251471
9.963215465
9.963263114
9.963288154
9.963237192
9.963268168
9.963265643
9.963225226
9.963225226
9.963260396
9.963296534
9.963237789
9.963236303
9.963306253
9.963285716
9.963313296
9.963298652
9.963306103
9.963307615
9.963296534
9.963296534
9.963235374
9.963329352
9.96334299
9.963297165
9.963301159
9.963244997
9.963303258
9.963270166
9.963281039
9.963248452
9.963329352
9.963329352
10.00056968
9.963238895
9.963314128
9.963307814
9.963261
9.963287488
9.963280631
9.963216783
9.963287094
9.963288551
9.963284386
9.963238895
9.963307814
9.963307814
9.963275071
9.96329214
9.963224367
9.96328246
9.963276442
9.96331868
9.963259182
9.963272667
9.96323818
9.963281929
9.96329214
9.96329214
9.9632723
9.963347511
9.963302232
9.963265983
9.963294279
9.963295813
9.96325308
9.963268888
9.963267795
9.963343789
9.963347511
9.963347511
9.963289659
9.963290733
9.963310243
9.963259342
9.963280172
9.963283127
9.963295293
9.96330263
9.96327844
9.96325211
9.963290733
)
;
    }
}


// ************************************************************************* //
