/*--------------------------------*- C++ -*----------------------------------*\
| =========                 |                                                 |
| \\      /  F ield         | OpenFOAM: The Open Source CFD Toolbox           |
|  \\    /   O peration     | Version:  4.x                                   |
|   \\  /    A nd           | Web:      www.OpenFOAM.org                      |
|    \\/     M anipulation  |                                                 |
\*---------------------------------------------------------------------------*/
FoamFile
{
    version     2.0;
    format      ascii;
    class       volScalarField;
    location    "7000";
    object      N2;
}
// * * * * * * * * * * * * * * * * * * * * * * * * * * * * * * * * * * * * * //

dimensions      [0 0 0 0 0 0 0];

internalField   nonuniform List<scalar> 
1175
(
0.5999999994
0.5999999994
0.5999999994
0.5999999994
0.5999999994
0.5999999993
0.5999999993
0.599999999
0.5999999981
0.5999999953
0.5999999874
0.5999999666
0.5999999156
0.5999998029
0.5999995809
0.5999999994
0.5999999994
0.5999999994
0.5999999994
0.5999999994
0.5999999993
0.5999999992
0.5999999988
0.5999999975
0.5999999933
0.5999999809
0.5999999467
0.5999998603
0.599999665
0.5999992804
0.5999999994
0.5999999994
0.5999999994
0.5999999994
0.5999999994
0.5999999993
0.5999999991
0.5999999985
0.5999999964
0.5999999895
0.599999968
0.5999999058
0.5999997418
0.5999993605
0.5999986076
0.5999999994
0.5999999994
0.5999999994
0.5999999994
0.5999999994
0.5999999993
0.5999999991
0.5999999982
0.5999999952
0.599999985
0.599999952
0.5999998519
0.5999995765
0.599998914
0.5999975966
0.5999999994
0.5999999994
0.5999999994
0.5999999994
0.5999999994
0.5999999993
0.599999999
0.5999999981
0.5999999946
0.5999999827
0.599999943
0.5999998193
0.5999994677
0.5999985952
0.5999968378
0.5999999994
0.5999999994
0.5999999994
0.5999999994
0.5999999994
0.5999999993
0.5999999991
0.5999999982
0.5999999952
0.599999985
0.599999952
0.5999998519
0.5999995765
0.5999989141
0.5999975967
0.5999999994
0.5999999994
0.5999999994
0.5999999994
0.5999999994
0.5999999993
0.5999999991
0.5999999985
0.5999999964
0.5999999895
0.599999968
0.5999999058
0.5999997418
0.5999993605
0.5999986077
0.5999999994
0.5999999994
0.5999999994
0.5999999994
0.5999999994
0.5999999993
0.5999999992
0.5999999988
0.5999999975
0.5999999933
0.5999999809
0.5999999467
0.5999998603
0.5999996651
0.5999992805
0.5999999994
0.5999999994
0.5999999994
0.5999999994
0.5999999994
0.5999999993
0.5999999993
0.599999999
0.5999999981
0.5999999953
0.5999999874
0.5999999666
0.5999999156
0.5999998029
0.599999581
0.5999999994
0.5999999994
0.5999999994
0.5999999994
0.5999999994
0.5999999993
0.5999999992
0.5999999988
0.5999999975
0.5999999933
0.5999999809
0.5999999467
0.5999998603
0.5999996649
0.5999999994
0.5999999994
0.5999999994
0.5999999994
0.5999999994
0.5999999993
0.5999999992
0.5999999986
0.5999999965
0.5999999897
0.5999999684
0.5999999062
0.5999997409
0.599999354
0.5999985895
0.5999999994
0.5999999994
0.5999999994
0.5999999994
0.5999999994
0.5999999993
0.599999999
0.5999999981
0.5999999946
0.5999999824
0.5999999415
0.5999998143
0.5999994546
0.5999985715
0.5999968083
0.5999999994
0.5999999994
0.5999999994
0.5999999994
0.5999999994
0.5999999993
0.5999999989
0.5999999975
0.5999999923
0.5999999729
0.5999999042
0.5999996759
0.5999989848
0.5999971803
0.5999934877
0.5999999994
0.5999999994
0.5999999994
0.5999999994
0.5999999994
0.5999999993
0.5999999989
0.5999999973
0.599999991
0.5999999674
0.5999998803
0.599999576
0.5999985979
0.5999958673
0.599990021
0.5999999994
0.5999999994
0.5999999994
0.5999999994
0.5999999994
0.5999999993
0.5999999989
0.5999999975
0.5999999923
0.5999999729
0.5999999043
0.5999996759
0.5999989849
0.5999971805
0.5999934881
0.5999999994
0.5999999994
0.5999999994
0.5999999994
0.5999999994
0.5999999993
0.599999999
0.5999999981
0.5999999946
0.5999999824
0.5999999415
0.5999998143
0.5999994546
0.5999985717
0.5999968088
0.5999999994
0.5999999994
0.5999999994
0.5999999994
0.5999999994
0.5999999993
0.5999999992
0.5999999986
0.5999999965
0.5999999897
0.5999999684
0.5999999062
0.5999997409
0.5999993542
0.59999859
0.5999999994
0.5999999994
0.5999999994
0.5999999994
0.5999999994
0.5999999993
0.5999999992
0.5999999988
0.5999999975
0.5999999933
0.5999999809
0.5999999467
0.5999998603
0.5999996651
0.5999992805
0.5999999994
0.5999999994
0.5999999994
0.5999999994
0.5999999994
0.5999999993
0.5999999991
0.5999999985
0.5999999964
0.5999999895
0.599999968
0.5999999058
0.5999997417
0.5999993602
0.5999999994
0.5999999994
0.5999999994
0.5999999994
0.5999999994
0.5999999993
0.599999999
0.5999999981
0.5999999946
0.5999999824
0.5999999415
0.5999998143
0.5999994545
0.5999985711
0.5999999994
0.5999999994
0.5999999994
0.5999999994
0.5999999994
0.5999999992
0.5999999988
0.5999999972
0.5999999908
0.5999999667
0.5999998796
0.5999995838
0.599998672
0.5999962585
0.5999912986
0.5999999994
0.5999999994
0.5999999994
0.5999999994
0.5999999993
0.5999999992
0.5999999986
0.5999999961
0.5999999859
0.5999999445
0.5999997827
0.5999991813
0.5999971307
0.5999911135
0.59997792
0.5999999994
0.5999999994
0.5999999994
0.5999999994
0.5999999993
0.5999999992
0.5999999985
0.5999999955
0.599999983
0.5999999299
0.5999997096
0.5999988253
0.599995489
0.5999843731
0.5999567225
0.5999999994
0.5999999994
0.5999999994
0.5999999994
0.5999999993
0.5999999992
0.5999999986
0.5999999961
0.5999999859
0.5999999445
0.5999997827
0.5999991813
0.5999971309
0.5999911142
0.5999779225
0.5999999994
0.5999999994
0.5999999994
0.5999999994
0.5999999994
0.5999999992
0.5999999988
0.5999999972
0.5999999908
0.5999999667
0.5999998796
0.5999995838
0.5999986722
0.5999962593
0.5999913012
0.5999999994
0.5999999994
0.5999999994
0.5999999994
0.5999999994
0.5999999993
0.599999999
0.5999999981
0.5999999946
0.5999999824
0.5999999415
0.5999998143
0.5999994546
0.5999985717
0.5999968088
0.5999999994
0.5999999994
0.5999999994
0.5999999994
0.5999999994
0.5999999993
0.5999999991
0.5999999985
0.5999999964
0.5999999895
0.599999968
0.5999999058
0.5999997418
0.5999993605
0.5999986077
0.5999999994
0.5999999994
0.5999999994
0.5999999994
0.5999999994
0.5999999993
0.5999999991
0.5999999982
0.5999999952
0.599999985
0.5999999519
0.5999998518
0.5999995764
0.5999989136
0.5999999994
0.5999999994
0.5999999994
0.5999999994
0.5999999994
0.5999999993
0.5999999989
0.5999999975
0.5999999923
0.5999999729
0.5999999042
0.5999996759
0.5999989845
0.5999971793
0.5999999994
0.5999999994
0.5999999994
0.5999999994
0.5999999993
0.5999999992
0.5999999986
0.5999999961
0.5999999859
0.5999999445
0.5999997826
0.5999991811
0.5999971302
0.5999911109
0.5999999994
0.5999999994
0.5999999994
0.5999999994
0.5999999993
0.5999999991
0.5999999982
0.5999999943
0.5999999769
0.5999999001
0.5999995671
0.5999981674
0.5999926417
0.5999734676
0.5999244747
0.5999999994
0.5999999994
0.5999999994
0.5999999994
0.5999999993
0.5999999991
0.599999998
0.5999999932
0.599999971
0.5999998666
0.5999993732
0.599997038
0.5999861751
0.5999388506
0.5997747117
0.5999999994
0.5999999994
0.5999999994
0.5999999994
0.5999999993
0.5999999991
0.5999999982
0.5999999943
0.5999999769
0.5999999001
0.5999995671
0.5999981675
0.5999926423
0.5999734714
0.599924492
0.5999999994
0.5999999994
0.5999999994
0.5999999994
0.5999999993
0.5999999992
0.5999999986
0.5999999961
0.5999999859
0.5999999445
0.5999997826
0.5999991812
0.5999971308
0.599991114
0.5999779223
0.5999999994
0.5999999994
0.5999999994
0.5999999994
0.5999999994
0.5999999993
0.5999999989
0.5999999975
0.5999999923
0.5999999729
0.5999999042
0.5999996759
0.5999989848
0.5999971804
0.5999934881
0.5999999994
0.5999999994
0.5999999994
0.5999999994
0.5999999994
0.5999999993
0.5999999991
0.5999999982
0.5999999952
0.599999985
0.599999952
0.5999998519
0.5999995765
0.599998914
0.5999975966
0.5999999994
0.5999999994
0.5999999994
0.5999999994
0.5999999994
0.5999999993
0.599999999
0.5999999981
0.5999999946
0.5999999827
0.599999943
0.5999998192
0.5999994675
0.5999985945
0.5999999994
0.5999999994
0.5999999994
0.5999999994
0.5999999994
0.5999999993
0.5999999989
0.5999999973
0.599999991
0.5999999674
0.5999998802
0.5999995759
0.5999985974
0.5999958654
0.5999999994
0.5999999994
0.5999999994
0.5999999994
0.5999999993
0.5999999992
0.5999999985
0.5999999955
0.599999983
0.5999999299
0.5999997095
0.599998825
0.5999954876
0.5999843664
0.5999999994
0.5999999994
0.5999999994
0.5999999994
0.5999999993
0.5999999991
0.599999998
0.5999999932
0.599999971
0.5999998666
0.5999993731
0.5999970376
0.5999861721
0.5999388301
0.5999999994
0.5999999994
0.5999999994
0.5999999994
0.5999999993
0.599999999
0.5999999978
0.5999999918
0.5999999624
0.5999998128
0.5999990142
0.5999945026
0.5999672547
0.5997901839
0.5985459219
0.5999999994
0.5999999994
0.5999999994
0.5999999994
0.5999999993
0.5999999991
0.599999998
0.5999999932
0.599999971
0.5999998666
0.5999993731
0.5999970378
0.5999861741
0.5999388466
0.599774708
0.5999999994
0.5999999994
0.5999999994
0.5999999994
0.5999999993
0.5999999992
0.5999999985
0.5999999955
0.599999983
0.5999999299
0.5999997095
0.5999988251
0.5999954885
0.5999843719
0.5999567216
0.5999999994
0.5999999994
0.5999999994
0.5999999994
0.5999999994
0.5999999993
0.5999999989
0.5999999973
0.599999991
0.5999999674
0.5999998803
0.599999576
0.5999985978
0.599995867
0.5999900208
0.5999999994
0.5999999994
0.5999999994
0.5999999994
0.5999999994
0.5999999993
0.599999999
0.5999999981
0.5999999946
0.5999999827
0.599999943
0.5999998193
0.5999994677
0.5999985951
0.5999968377
0.5999999994
0.5999999994
0.5999999994
0.5999999994
0.5999999994
0.5999999993
0.5999999991
0.5999999982
0.5999999952
0.599999985
0.5999999519
0.5999998518
0.5999995763
0.5999989135
0.5999999994
0.5999999994
0.5999999994
0.5999999994
0.5999999994
0.5999999993
0.5999999989
0.5999999975
0.5999999923
0.5999999729
0.5999999042
0.5999996758
0.5999989845
0.5999971792
0.5999999994
0.5999999994
0.5999999994
0.5999999994
0.5999999993
0.5999999992
0.5999999986
0.5999999961
0.5999999859
0.5999999445
0.5999997826
0.599999181
0.5999971298
0.5999911102
0.5999999994
0.5999999994
0.5999999994
0.5999999994
0.5999999993
0.5999999991
0.5999999982
0.5999999943
0.5999999769
0.5999999001
0.599999567
0.599998167
0.59999264
0.5999734605
0.5999999994
0.5999999994
0.5999999994
0.5999999994
0.5999999993
0.5999999991
0.599999998
0.5999999932
0.599999971
0.5999998665
0.5999993731
0.5999970373
0.5999861711
0.5999388266
0.5999999994
0.5999999994
0.5999999994
0.5999999994
0.5999999993
0.5999999991
0.5999999982
0.5999999943
0.5999999769
0.5999999001
0.599999567
0.5999981671
0.5999926406
0.5999734626
0.5999999994
0.5999999994
0.5999999994
0.5999999994
0.5999999993
0.5999999992
0.5999999986
0.5999999961
0.5999999859
0.5999999445
0.5999997826
0.5999991811
0.5999971303
0.5999911121
0.5999779163
0.5999999994
0.5999999994
0.5999999994
0.5999999994
0.5999999994
0.5999999993
0.5999999989
0.5999999975
0.5999999923
0.5999999729
0.5999999042
0.5999996759
0.5999989847
0.59999718
0.5999934872
0.5999999994
0.5999999994
0.5999999994
0.5999999994
0.5999999994
0.5999999993
0.5999999991
0.5999999982
0.5999999952
0.599999985
0.5999999519
0.5999998519
0.5999995764
0.5999989139
0.5999975964
0.5999999994
0.5999999994
0.5999999994
0.5999999994
0.5999999994
0.5999999993
0.5999999991
0.5999999985
0.5999999964
0.5999999895
0.599999968
0.5999999058
0.5999997417
0.5999993602
0.5999999994
0.5999999994
0.5999999994
0.5999999994
0.5999999994
0.5999999993
0.599999999
0.5999999981
0.5999999946
0.5999999824
0.5999999415
0.5999998142
0.5999994544
0.599998571
0.5999999994
0.5999999994
0.5999999994
0.5999999994
0.5999999994
0.5999999992
0.5999999988
0.5999999972
0.5999999908
0.5999999667
0.5999998796
0.5999995837
0.5999986717
0.5999962576
0.5999999994
0.5999999994
0.5999999994
0.5999999994
0.5999999993
0.5999999992
0.5999999986
0.5999999961
0.5999999859
0.5999999445
0.5999997826
0.599999181
0.5999971297
0.5999911101
0.5999999994
0.5999999994
0.5999999994
0.5999999994
0.5999999993
0.5999999992
0.5999999985
0.5999999955
0.599999983
0.5999999298
0.5999997095
0.5999988249
0.5999954872
0.5999843659
0.5999999994
0.5999999994
0.5999999994
0.5999999994
0.5999999993
0.5999999992
0.5999999986
0.5999999961
0.5999999859
0.5999999445
0.5999997826
0.599999181
0.5999971299
0.5999911105
0.5999999994
0.5999999994
0.5999999994
0.5999999994
0.5999999994
0.5999999992
0.5999999988
0.5999999972
0.5999999908
0.5999999667
0.5999998796
0.5999995837
0.5999986718
0.5999962578
0.5999999994
0.5999999994
0.5999999994
0.5999999994
0.5999999994
0.5999999993
0.599999999
0.5999999981
0.5999999946
0.5999999824
0.5999999415
0.5999998143
0.5999994545
0.5999985713
0.5999968078
0.5999999994
0.5999999994
0.5999999994
0.5999999994
0.5999999994
0.5999999993
0.5999999991
0.5999999985
0.5999999964
0.5999999895
0.599999968
0.5999999058
0.5999997417
0.5999993604
0.5999986074
0.5999999994
0.5999999994
0.5999999994
0.5999999994
0.5999999994
0.5999999993
0.5999999992
0.5999999988
0.5999999975
0.5999999933
0.5999999809
0.5999999467
0.5999998602
0.5999996649
0.5999999994
0.5999999994
0.5999999994
0.5999999994
0.5999999994
0.5999999993
0.5999999992
0.5999999986
0.5999999965
0.5999999897
0.5999999684
0.5999999062
0.5999997408
0.5999993539
0.5999999994
0.5999999994
0.5999999994
0.5999999994
0.5999999994
0.5999999993
0.599999999
0.5999999981
0.5999999946
0.5999999824
0.5999999415
0.5999998142
0.5999994544
0.599998571
0.5999999994
0.5999999994
0.5999999994
0.5999999994
0.5999999994
0.5999999993
0.5999999989
0.5999999975
0.5999999923
0.5999999729
0.5999999042
0.5999996758
0.5999989844
0.5999971791
0.5999999994
0.5999999994
0.5999999994
0.5999999994
0.5999999994
0.5999999993
0.5999999989
0.5999999973
0.599999991
0.5999999674
0.5999998802
0.5999995758
0.5999985973
0.5999958653
0.5999999994
0.5999999994
0.5999999994
0.5999999994
0.5999999994
0.5999999993
0.5999999989
0.5999999975
0.5999999923
0.5999999729
0.5999999042
0.5999996758
0.5999989845
0.5999971792
0.5999999994
0.5999999994
0.5999999994
0.5999999994
0.5999999994
0.5999999993
0.599999999
0.5999999981
0.5999999946
0.5999999824
0.5999999415
0.5999998142
0.5999994544
0.5999985711
0.5999999994
0.5999999994
0.5999999994
0.5999999994
0.5999999994
0.5999999993
0.5999999992
0.5999999986
0.5999999965
0.5999999897
0.5999999684
0.5999999062
0.5999997408
0.5999993539
0.5999999994
0.5999999994
0.5999999994
0.5999999994
0.5999999994
0.5999999993
0.5999999992
0.5999999988
0.5999999975
0.5999999933
0.5999999809
0.5999999467
0.5999998603
0.599999665
0.5999992803
0.5999999994
0.5999999994
0.5999999994
0.5999999994
0.5999999994
0.5999999993
0.5999999993
0.599999999
0.5999999981
0.5999999953
0.5999999874
0.5999999666
0.5999999156
0.5999998028
0.5999999994
0.5999999994
0.5999999994
0.5999999994
0.5999999994
0.5999999993
0.5999999992
0.5999999988
0.5999999975
0.5999999933
0.5999999809
0.5999999467
0.5999998602
0.5999996649
0.5999999994
0.5999999994
0.5999999994
0.5999999994
0.5999999994
0.5999999993
0.5999999991
0.5999999985
0.5999999964
0.5999999895
0.599999968
0.5999999058
0.5999997417
0.5999993602
0.5999999994
0.5999999994
0.5999999994
0.5999999994
0.5999999994
0.5999999993
0.5999999991
0.5999999982
0.5999999952
0.599999985
0.5999999519
0.5999998518
0.5999995763
0.5999989135
0.5999999994
0.5999999994
0.5999999994
0.5999999994
0.5999999994
0.5999999993
0.599999999
0.5999999981
0.5999999946
0.5999999827
0.599999943
0.5999998192
0.5999994675
0.5999985945
0.5999999994
0.5999999994
0.5999999994
0.5999999994
0.5999999994
0.5999999993
0.5999999991
0.5999999982
0.5999999952
0.599999985
0.5999999519
0.5999998518
0.5999995763
0.5999989136
0.5999999994
0.5999999994
0.5999999994
0.5999999994
0.5999999994
0.5999999993
0.5999999991
0.5999999985
0.5999999964
0.5999999895
0.599999968
0.5999999058
0.5999997417
0.5999993602
0.5999999994
0.5999999994
0.5999999994
0.5999999994
0.5999999994
0.5999999993
0.5999999992
0.5999999988
0.5999999975
0.5999999933
0.5999999809
0.5999999467
0.5999998603
0.5999996649
0.5999999994
0.5999999994
0.5999999994
0.5999999994
0.5999999994
0.5999999993
0.5999999993
0.599999999
0.5999999981
0.5999999953
0.5999999874
0.5999999666
0.5999999156
0.5999998028
)
;

boundaryField
{
    top
    {
        type            zeroGradient;
    }
    bottom
    {
        type            zeroGradient;
    }
    side-walls
    {
        type            zeroGradient;
    }
    inlet
    {
        type            zeroGradient;
    }
    outlet
    {
        type            zeroGradient;
    }
    procBoundary0to1
    {
        type            processor;
        value           nonuniform List<scalar> 
97
(
0.5999991945
0.5999992803
0.5999986299
0.5999973823
0.5999955535
0.5999942473
0.5999955536
0.5999973824
0.59999863
0.5999991946
0.5999992803
0.5999992803
0.5999973562
0.5999968078
0.5999941507
0.5999884513
0.5999830721
0.5999884518
0.5999941511
0.5999973565
0.59999863
0.5999986074
0.5999968078
0.5999968078
0.5999846769
0.5999779152
0.5999635966
0.5999359768
0.5999635985
0.5999846782
0.5999941511
0.5999973824
0.5999975963
0.5999934867
0.5999779152
0.5999779152
0.599891295
0.5997746401
0.5997493581
0.5998913013
0.5999635983
0.5999884517
0.5999955535
0.5999968373
0.5999900191
0.5999567121
0.5997746401
0.5997746401
0.5991380276
0.5997746409
0.5997493576
0.5999244733
0.5999359762
0.5999830719
0.5999942471
0.5999975963
0.599993487
0.5999779182
0.5999244754
0.5997746409
0.5999244733
0.5999244733
0.5999635966
0.5999912986
0.599988451
0.5999955533
0.5999986075
0.5999968083
0.5999912996
0.599977918
0.5999567119
0.5999779182
0.5999912986
0.5999912986
0.5999941507
0.5999985895
0.5999973822
0.5999992804
0.5999985898
0.5999968083
0.599993487
0.599990019
0.5999934871
0.5999968082
0.5999985895
0.5999985895
0.5999986299
0.5999995809
0.5999995809
0.5999992804
0.5999986075
0.5999975963
0.5999968373
0.5999975963
0.5999986075
0.5999992804
0.5999995809
)
;
    }
}


// ************************************************************************* //
