/*--------------------------------*- C++ -*----------------------------------*\
| =========                 |                                                 |
| \\      /  F ield         | OpenFOAM: The Open Source CFD Toolbox           |
|  \\    /   O peration     | Version:  4.x                                   |
|   \\  /    A nd           | Web:      www.OpenFOAM.org                      |
|    \\/     M anipulation  |                                                 |
\*---------------------------------------------------------------------------*/
FoamFile
{
    version     2.0;
    format      ascii;
    class       volScalarField;
    location    "7000";
    object      rhoeps;
}
// * * * * * * * * * * * * * * * * * * * * * * * * * * * * * * * * * * * * * //

dimensions      [1 -3 0 0 0 0 0];

internalField   nonuniform List<scalar> 
1175
(
0.2790915782
0.2790915646
0.2790915458
0.2790916005
0.279091606
0.2790916026
0.2790916099
0.2790915865
0.2790916058
0.2790915934
0.2790916073
0.2790916147
0.2790916386
0.2790916905
0.2790918069
0.2790905561
0.279090543
0.2790905638
0.2790906055
0.2790906041
0.2790906024
0.2790905862
0.2790905832
0.2790905724
0.2790905873
0.2790906113
0.279090595
0.2790906256
0.2790907314
0.2790909061
0.2790918158
0.2790918173
0.2790918077
0.2790918088
0.2790918664
0.2790918392
0.2790918603
0.2790918976
0.2790918548
0.2790918884
0.279091886
0.2790919329
0.2790919994
0.2790921707
0.2790925388
0.2790924209
0.2790924034
0.2790923959
0.2790923996
0.2790923972
0.2790923791
0.2790923734
0.2790923499
0.2790923317
0.2790923564
0.2790924099
0.2790924643
0.2790925652
0.2790928827
0.2790935016
0.2790924442
0.2790924432
0.2790924473
0.2790924066
0.279092472
0.2790924824
0.2790924673
0.2790924558
0.2790924505
0.2790924623
0.2790924532
0.2790925033
0.2790926735
0.2790930191
0.2790938498
0.2790917778
0.279091764
0.2790917717
0.279091756
0.2790917772
0.2790917696
0.2790917497
0.2790917574
0.2790917632
0.2790917632
0.2790918045
0.2790918352
0.2790919677
0.2790922743
0.2790928663
0.2790914076
0.279091368
0.279091375
0.2790913684
0.2790913372
0.2790913677
0.2790913861
0.2790913793
0.2790913882
0.2790913459
0.2790913793
0.2790914154
0.2790914662
0.2790916019
0.2790919582
0.2790915652
0.2790915938
0.2790916071
0.2790916167
0.2790915962
0.2790915903
0.279091572
0.2790916025
0.2790916244
0.2790916604
0.2790916607
0.2790916605
0.2790917063
0.2790918102
0.2790919725
0.2790915803
0.2790915665
0.2790915734
0.2790915894
0.2790915705
0.2790915429
0.2790915312
0.2790914866
0.2790914904
0.2790915054
0.2790915203
0.2790915163
0.2790915256
0.2790916218
0.2790917324
0.2790914253
0.2790914003
0.2790913766
0.2790913429
0.2790913841
0.2790913893
0.2790913948
0.2790913995
0.2790914018
0.2790914382
0.2790914616
0.2790914596
0.2790914824
0.2790915539
0.2790934495
0.2790934804
0.2790934878
0.2790934871
0.2790935057
0.279093491
0.2790935
0.2790935186
0.279093516
0.2790935356
0.2790935519
0.2790935736
0.2790936348
0.2790938712
0.2790942143
0.2790929708
0.2790929168
0.2790928811
0.2790928518
0.2790929014
0.2790928714
0.2790928697
0.2790928713
0.2790928664
0.2790928711
0.2790928844
0.2790929157
0.2790930987
0.2790934749
0.279094288
0.2790909359
0.2790909303
0.279090936
0.2790909431
0.2790909592
0.2790909638
0.2790910093
0.2790910049
0.2790910018
0.279091006
0.2790910393
0.27909115
0.2790914775
0.2790923243
0.279094046
0.279090075
0.2790900331
0.2790900291
0.279090044
0.2790900298
0.2790900056
0.279089982
0.2790900017
0.2790900111
0.2790899968
0.2790900364
0.2790901316
0.2790905923
0.2790918958
0.2790945809
0.2790911687
0.2790911585
0.2790911411
0.2790911202
0.2790911225
0.2790911577
0.279091179
0.2790911892
0.279091223
0.2790912407
0.2790913224
0.2790914335
0.279091767
0.2790926001
0.2790943039
0.2790919808
0.2790920035
0.2790920055
0.2790920139
0.2790920126
0.2790920189
0.2790920344
0.2790920604
0.2790920294
0.2790920478
0.2790920531
0.2790920986
0.2790922944
0.2790927058
0.2790934997
0.2790905527
0.2790905752
0.2790905368
0.2790905363
0.2790905555
0.2790905149
0.2790904798
0.2790905144
0.2790905284
0.2790905301
0.27909056
0.2790906033
0.2790906672
0.2790908333
0.2790912101
0.2790914081
0.2790914345
0.2790914302
0.2790914331
0.2790914229
0.2790914096
0.2790914073
0.2790913964
0.2790914091
0.2790914097
0.2790914035
0.2790914632
0.2790914838
0.2790915857
0.2790917674
0.279091427
0.2790914619
0.2790914774
0.2790914902
0.2790914678
0.2790914387
0.2790914355
0.2790914364
0.2790913953
0.2790913991
0.2790914028
0.2790914091
0.2790914864
0.2790916626
0.2790902989
0.279090298
0.2790902751
0.279090249
0.279090264
0.2790902601
0.2790902354
0.2790902175
0.27909023
0.2790902299
0.2790902244
0.2790902789
0.2790904508
0.2790908918
0.2790913875
0.2790913819
0.2790914046
0.2790913591
0.2790913758
0.2790913834
0.2790913861
0.2790913737
0.2790913396
0.2790913041
0.2790913403
0.2790914602
0.2790918808
0.2790930452
0.2790953151
0.2790907829
0.2790908083
0.2790908109
0.2790907638
0.279090787
0.2790907631
0.2790907176
0.2790907009
0.2790906868
0.2790907068
0.2790908229
0.2790910582
0.2790919938
0.2790947976
0.2791009268
0.2790906443
0.2790906213
0.2790906736
0.279090687
0.2790906685
0.2790906672
0.2790906532
0.2790906534
0.2790906482
0.2790906672
0.2790907396
0.2790911215
0.2790926609
0.2790978565
0.2791107016
0.2790923969
0.2790923973
0.2790924106
0.279092453
0.2790924492
0.2790924627
0.2790924648
0.2790924861
0.2790925048
0.2790925561
0.2790926258
0.2790928897
0.2790938898
0.2790966827
0.2791028136
0.2790919476
0.2790919074
0.2790919531
0.2790919486
0.2790919747
0.2790919504
0.2790919358
0.2790919485
0.2790919537
0.2790919363
0.2790919667
0.2790921562
0.2790925993
0.2790937353
0.2790960128
0.2790928284
0.2790928501
0.2790928486
0.2790928736
0.2790928479
0.2790928173
0.2790928136
0.2790928127
0.2790927989
0.279092811
0.2790928408
0.2790928763
0.2790930273
0.2790934778
0.2790942589
0.2790923709
0.2790923533
0.2790923701
0.2790923617
0.2790923673
0.2790923683
0.2790923693
0.2790923611
0.2790923837
0.27909238
0.2790923977
0.2790924049
0.2790924884
0.2790926608
0.2790930033
0.2790926189
0.2790925975
0.2790926057
0.2790926219
0.2790926197
0.2790926082
0.2790926073
0.2790926561
0.279092621
0.2790925925
0.2790925722
0.2790926297
0.2790927641
0.2790930501
0.2790926364
0.2790926213
0.2790926596
0.2790926706
0.2790926879
0.2790926843
0.2790926792
0.2790925934
0.2790925807
0.2790925476
0.2790926221
0.2790927309
0.2790930957
0.2790938994
0.2790922386
0.2790922592
0.2790922288
0.2790922246
0.2790922131
0.2790922048
0.2790922719
0.2790922962
0.2790922975
0.279092343
0.2790924116
0.2790926419
0.2790935985
0.2790963725
0.279090691
0.2790906861
0.2790906896
0.2790906465
0.2790906664
0.2790906654
0.2790906844
0.2790906716
0.2790906398
0.2790906708
0.2790907951
0.2790914378
0.2790940012
0.2791029331
0.2791256874
0.2790931871
0.279093199
0.2790931673
0.2790931516
0.2790931327
0.2790931577
0.2790931339
0.2790930998
0.2790931357
0.2790931893
0.2790934119
0.2790944931
0.2790995462
0.279121554
0.279198395
0.2790923603
0.2790923453
0.2790923364
0.2790923472
0.2790923291
0.2790923138
0.2790922709
0.2790922405
0.2790922515
0.2790923384
0.279092549
0.2790931946
0.2790957182
0.2791046442
0.279127403
0.2790923138
0.2790922882
0.2790923415
0.279092318
0.2790923178
0.2790922949
0.2790923046
0.279092321
0.2790923303
0.2790923538
0.2790924087
0.2790927337
0.2790937073
0.279096521
0.2791026163
0.2790908974
0.2790908763
0.2790908805
0.2790908627
0.2790908945
0.2790908764
0.2790908703
0.2790908538
0.2790908435
0.2790908448
0.279090845
0.2790909874
0.2790912788
0.2790921278
0.2790938317
0.2790924972
0.2790925291
0.2790925215
0.279092533
0.2790925039
0.2790925018
0.2790924979
0.2790924918
0.2790924834
0.2790924492
0.2790924722
0.2790925241
0.2790926493
0.2790929495
0.2790935623
0.2790916448
0.2790915986
0.2790916156
0.2790916061
0.2790915811
0.2790915467
0.2790915672
0.2790915682
0.2790915823
0.2790915659
0.2790915677
0.2790916486
0.2790918068
0.2790922223
0.2790917004
0.2790917008
0.279091683
0.2790917337
0.2790917878
0.2790917575
0.2790917892
0.2790917581
0.2790918127
0.2790918194
0.2790918332
0.279091985
0.2790924635
0.2790937614
0.2790909817
0.2790909643
0.2790909796
0.2790910377
0.2790909791
0.2790909802
0.2790909134
0.2790909385
0.2790909502
0.2790909299
0.2790910609
0.2790914988
0.2790930307
0.2790981858
0.2790927252
0.2790927327
0.2790927157
0.2790926763
0.2790926793
0.279092702
0.2790926715
0.2790926614
0.2790927215
0.2790927185
0.2790929317
0.2790940477
0.2790991271
0.2791211444
0.2790916482
0.2790916393
0.2790916758
0.2790916935
0.2790916474
0.2790916998
0.2790916984
0.2790917243
0.2790917814
0.2790918407
0.279092225
0.2790943133
0.2791069592
0.2791892701
0.2794600093
0.2790923373
0.2790923366
0.27909236
0.279092375
0.2790923676
0.2790923574
0.2790923371
0.279092335
0.2790923494
0.2790923695
0.2790925965
0.2790936796
0.2790987194
0.2791207116
0.279197579
0.2790911092
0.2790911403
0.2790911854
0.2790912141
0.2790912374
0.2790912261
0.279091242
0.2790912958
0.2790912642
0.2790912989
0.2790914021
0.2790917923
0.279093335
0.2790985147
0.279111391
0.2790918583
0.2790918658
0.2790918575
0.2790918636
0.2790918789
0.2790918844
0.2790918495
0.2790918115
0.2790918596
0.2790919048
0.2790919748
0.2790921151
0.2790925999
0.2790938671
0.2790965877
0.2790917725
0.279091856
0.2790918333
0.27909187
0.279091869
0.2790918573
0.2790918365
0.2790918369
0.2790918389
0.2790918243
0.2790918382
0.2790918903
0.2790920762
0.2790924707
0.279093289
0.2790899319
0.2790899457
0.2790899386
0.2790899251
0.2790899216
0.2790899118
0.2790898965
0.2790898948
0.2790899162
0.2790899448
0.2790899706
0.2790900087
0.2790901887
0.2790904883
0.2790919949
0.2790919883
0.2790920681
0.2790920816
0.2790920145
0.2790920062
0.2790920164
0.2790919951
0.2790920225
0.2790920376
0.2790920352
0.2790921553
0.2790924695
0.2790933071
0.2790920696
0.2790920506
0.2790920612
0.279092062
0.2790920395
0.2790920829
0.2790921038
0.2790921237
0.2790920829
0.279092114
0.2790921657
0.2790924311
0.2790933691
0.2790961714
0.2790918117
0.2790918321
0.2790918422
0.2790918498
0.2790918641
0.2790918531
0.279091851
0.2790918911
0.2790919065
0.2790919493
0.2790921232
0.2790927905
0.2790953688
0.2791042902
0.279090124
0.279090115
0.2790901197
0.2790901489
0.2790901183
0.2790901096
0.2790901584
0.2790901658
0.2790901335
0.2790902275
0.2790904656
0.2790915385
0.2790965936
0.2791185798
0.2790927006
0.2790927068
0.2790926869
0.2790926617
0.2790926822
0.2790927216
0.2790926961
0.2790926935
0.2790926997
0.2790927086
0.2790928927
0.2790935098
0.2790960736
0.2791049545
0.2790916305
0.2790916011
0.2790915882
0.2790915863
0.2790915909
0.2790915865
0.2790915716
0.2790915619
0.279091615
0.279091647
0.2790916885
0.279091978
0.2790929683
0.2790957821
0.2791019143
0.2790902252
0.2790902072
0.2790902208
0.2790902389
0.2790902293
0.2790902366
0.2790902514
0.2790902638
0.2790902616
0.2790902434
0.2790902429
0.2790903603
0.2790906662
0.2790915423
0.2790932485
0.2790918067
0.2790917881
0.2790917724
0.2790917627
0.2790917962
0.2790917926
0.279091793
0.2790917565
0.2790917822
0.2790918001
0.279091858
0.2790919028
0.2790920315
0.2790923292
0.2790929316
0.279091796
0.2790917835
0.2790917896
0.2790918067
0.2790917809
0.2790917948
0.2790917991
0.2790918197
0.2790918033
0.2790918115
0.2790918263
0.2790918501
0.2790918669
0.279092027
0.2790929979
0.2790929594
0.2790929569
0.2790929549
0.2790929575
0.2790929199
0.2790929111
0.2790929044
0.2790929033
0.2790929077
0.2790929358
0.2790930082
0.2790931632
0.2790935922
0.2790911006
0.2790911277
0.2790911736
0.2790911505
0.2790911651
0.2790911483
0.2790911269
0.2790911441
0.2790911701
0.2790911704
0.2790912221
0.2790913592
0.2790918117
0.2790929272
0.2790915377
0.2790915496
0.2790915037
0.2790914682
0.2790914898
0.2790914745
0.2790915462
0.279091556
0.2790915491
0.2790915682
0.2790916454
0.2790919704
0.2790928822
0.279095724
0.2790907418
0.2790907411
0.2790907262
0.2790906749
0.2790906365
0.2790906221
0.2790906277
0.2790906282
0.279090645
0.2790906613
0.2790907585
0.2790911593
0.2790927481
0.2790979088
0.2790918461
0.2790918335
0.2790918269
0.2790918326
0.2790918075
0.2790918496
0.2790918415
0.2790918372
0.2790918727
0.27909188
0.279091968
0.27909227
0.279093246
0.2790959955
0.2790920388
0.2790920326
0.2790920141
0.2790920303
0.2790920157
0.2790920788
0.2790920871
0.2790921128
0.2790921564
0.2790922148
0.2790922643
0.2790923973
0.2790927835
0.2790938751
0.2790915611
0.2790915304
0.2790915587
0.2790915681
0.2790915292
0.2790915306
0.2790915364
0.279091497
0.2790915358
0.2790915075
0.2790915476
0.2790916032
0.2790917799
0.2790921984
0.2790930518
0.2790924911
0.279092508
0.2790925062
0.2790924796
0.2790924917
0.2790924631
0.2790924992
0.2790924668
0.2790924669
0.2790924317
0.2790924692
0.2790925236
0.2790925725
0.2790927291
0.2790930629
0.2790913452
0.2790913374
0.2790913282
0.2790913737
0.2790913673
0.2790913793
0.2790913705
0.2790913525
0.2790913756
0.279091383
0.2790913552
0.2790913601
0.2790914271
0.279091533
0.279092013
0.2790919953
0.2790920203
0.2790920252
0.2790920435
0.2790920939
0.2790921214
0.2790921378
0.2790921409
0.2790921018
0.2790921679
0.2790922208
0.279092318
0.2790925189
0.279092115
0.2790921363
0.2790921272
0.2790921552
0.279092181
0.2790922057
0.2790922248
0.2790922268
0.2790922645
0.2790922475
0.2790922769
0.2790923348
0.2790925085
0.279092887
0.279091043
0.2790910105
0.2790910334
0.2790910232
0.2790910086
0.2790909938
0.2790909797
0.2790909945
0.2790910058
0.2790910324
0.2790910613
0.2790911771
0.2790915168
0.2790923472
0.2790916596
0.2790916613
0.2790916794
0.2790916252
0.2790916516
0.2790916078
0.2790915841
0.2790915752
0.2790915686
0.2790915839
0.2790916484
0.2790917615
0.279092175
0.2790934397
0.2790912086
0.279091227
0.2790912227
0.2790912372
0.279091277
0.279091301
0.2790912884
0.279091333
0.2790913671
0.2790913913
0.2790914498
0.2790915489
0.2790918941
0.2790927605
0.2790936094
0.2790935544
0.2790935798
0.2790935581
0.2790935709
0.2790935691
0.279093569
0.2790935924
0.279093599
0.279093632
0.2790936287
0.2790936608
0.279093866
0.2790942856
0.2790937447
0.279093751
0.2790937879
0.2790937688
0.2790937735
0.2790937664
0.2790937631
0.2790937421
0.2790937331
0.2790937606
0.2790937995
0.2790938177
0.279093857
0.2790939451
0.2790920089
0.2790920207
0.2790920439
0.279092049
0.2790920903
0.2790921064
0.2790920894
0.2790920932
0.2790920986
0.2790920884
0.2790920782
0.2790920975
0.2790921281
0.2790922192
0.2790923885
0.2790926461
0.2790926403
0.2790926344
0.2790926286
0.279092615
0.2790926061
0.2790926266
0.2790926418
0.279092633
0.2790926204
0.2790926486
0.2790926597
0.2790926582
0.2790927014
0.2790912437
0.2790912166
0.279091217
0.279091229
0.2790912323
0.2790912498
0.2790912487
0.2790912502
0.2790912564
0.2790912822
0.2790912466
0.2790912592
0.2790912997
0.2790913628
0.2790916822
0.2790916901
0.2790917181
0.2790917135
0.2790917334
0.2790917308
0.2790917426
0.2790917683
0.2790917926
0.2790917723
0.2790917678
0.2790918299
0.2790919233
0.2790920825
0.2790918988
0.2790918581
0.2790918709
0.2790918195
0.2790918581
0.2790918704
0.2790918824
0.2790918646
0.2790918406
0.2790918594
0.2790918492
0.2790918931
0.2790920113
0.2790923298
0.2790922628
0.2790922511
0.2790922498
0.2790922547
0.2790922445
0.2790922417
0.2790922401
0.2790922608
0.2790922398
0.2790922319
0.2790922507
0.2790923295
0.2790924946
0.2790929164
0.279092449
0.2790924783
0.2790924923
0.2790924754
0.2790924857
0.2790924632
0.2790924746
0.279092481
0.2790924618
0.2790924532
0.2790924535
0.2790925164
0.2790925756
0.2790929287
0.2790917431
0.2790917714
0.2790917785
0.2790917839
0.2790917531
0.2790917917
0.2790917811
0.2790917537
0.2790917462
0.2790917349
0.2790917407
0.279091778
0.2790918293
0.2790920042
0.2790910761
0.2790910813
0.2790910737
0.2790910739
0.2790911004
0.2790910793
0.2790910508
0.2790910444
0.2790910354
0.2790910365
0.2790910282
0.2790910327
0.2790911004
0.2790911917
0.2790921988
0.2790921731
0.2790921497
0.2790921121
0.2790921168
0.2790921079
0.2790921104
0.2790921097
0.2790921058
0.2790921045
0.2790921143
0.2790920991
0.2790921376
0.2790921805
)
;

boundaryField
{
    top
    {
        type            calculated;
        value           nonuniform List<scalar> 
134
(
0.2790915803
0.2790914081
0.2790923709
0.2790924972
0.2790917725
0.2790918067
0.2790924911
0.2790920089
0.2790921988
0.2790915665
0.2790914345
0.2790923533
0.2790925291
0.279091856
0.2790917881
0.279092508
0.2790920207
0.2790921731
0.2790915734
0.2790914302
0.2790923701
0.2790925215
0.2790918333
0.2790917724
0.2790925062
0.2790920439
0.2790921497
0.2790915894
0.2790914331
0.2790923617
0.279092533
0.27909187
0.2790917627
0.2790924796
0.279092049
0.2790921121
0.2790915705
0.2790914229
0.2790923673
0.2790925039
0.279091869
0.2790917962
0.2790924917
0.2790920903
0.2790921168
0.2790915429
0.2790914096
0.2790923683
0.2790925018
0.2790918573
0.2790917926
0.2790924631
0.2790921064
0.2790921079
0.2790915312
0.2790914073
0.2790923693
0.2790924979
0.2790918365
0.279091793
0.2790924992
0.2790920894
0.2790921104
0.2790914866
0.2790913964
0.2790923611
0.2790924918
0.2790918369
0.2790917565
0.2790924668
0.2790920932
0.2790921097
0.2790914904
0.2790914091
0.2790923837
0.2790924834
0.2790918389
0.2790917822
0.2790924669
0.2790920986
0.2790921058
0.2790915054
0.2790914097
0.27909238
0.2790924492
0.2790918243
0.2790918001
0.2790924317
0.2790920884
0.2790921045
0.2790915203
0.2790914035
0.2790923977
0.2790924722
0.2790918382
0.279091858
0.2790924692
0.2790920782
0.2790921143
0.2790915163
0.2790914632
0.2790924049
0.2790925241
0.2790918903
0.2790919028
0.2790925236
0.2790920975
0.2790920991
0.2790915256
0.2790914838
0.2790924884
0.2790926493
0.2790920762
0.2790920315
0.2790925725
0.2790921281
0.2790921376
0.2790916218
0.2790915857
0.2790926608
0.2790929495
0.2790924707
0.2790923292
0.2790927291
0.2790922192
0.2790921805
0.2790917324
0.2790917674
0.2790930033
0.2790935623
0.279093289
0.2790929316
0.2790930629
0.2790923885
)
;
    }
    bottom
    {
        type            calculated;
        value           nonuniform List<scalar> 
127
(
0.2790915782
0.2790914253
0.279091427
0.2790926189
0.2790916448
0.2790899319
0.279091796
0.2790913452
0.2790926461
0.2790915646
0.2790914003
0.2790914619
0.2790925975
0.2790915986
0.2790899457
0.2790917835
0.2790913374
0.2790926403
0.2790915458
0.2790913766
0.2790914774
0.2790926057
0.2790916156
0.2790899386
0.2790917896
0.2790913282
0.2790926344
0.2790916005
0.2790913429
0.2790914902
0.2790926219
0.2790916061
0.2790899251
0.2790918067
0.2790913737
0.2790926286
0.279091606
0.2790913841
0.2790914678
0.2790926197
0.2790915811
0.2790899216
0.2790917809
0.2790913673
0.279092615
0.2790916026
0.2790913893
0.2790914387
0.2790926082
0.2790915467
0.2790899118
0.2790917948
0.2790913793
0.2790926061
0.2790916099
0.2790913948
0.2790914355
0.2790926073
0.2790915672
0.2790898965
0.2790917991
0.2790913705
0.2790926266
0.2790915865
0.2790913995
0.2790914364
0.2790926561
0.2790915682
0.2790898948
0.2790918197
0.2790913525
0.2790926418
0.2790916058
0.2790914018
0.2790913953
0.279092621
0.2790915823
0.2790899162
0.2790918033
0.2790913756
0.279092633
0.2790915934
0.2790914382
0.2790913991
0.2790925925
0.2790915659
0.2790899448
0.2790918115
0.279091383
0.2790926204
0.2790916073
0.2790914616
0.2790914028
0.2790925722
0.2790915677
0.2790899706
0.2790918263
0.2790913552
0.2790926486
0.2790916147
0.2790914596
0.2790914091
0.2790926297
0.2790916486
0.2790900087
0.2790918501
0.2790913601
0.2790926597
0.2790916386
0.2790914824
0.2790914864
0.2790927641
0.2790918068
0.2790901887
0.2790918669
0.2790914271
0.2790926582
0.2790916905
0.2790915539
0.2790916626
0.2790930501
0.2790922223
0.2790904883
0.279092027
0.279091533
0.2790927014
0.2790918069
)
;
    }
    side-walls
    {
        type            calculated;
        value           nonuniform List<scalar> 
261
(
0.2790915782
0.2790905561
0.2790918158
0.2790924209
0.2790924442
0.2790917778
0.2790914076
0.2790915652
0.2790915803
0.2790915646
0.279090543
0.2790918173
0.2790924034
0.2790924432
0.279091764
0.279091368
0.2790915938
0.2790915665
0.2790915458
0.2790905638
0.2790918077
0.2790923959
0.2790924473
0.2790917717
0.279091375
0.2790916071
0.2790915734
0.2790916005
0.2790906055
0.2790918088
0.2790923996
0.2790924066
0.279091756
0.2790913684
0.2790916167
0.2790915894
0.279091606
0.2790906041
0.2790918664
0.2790923972
0.279092472
0.2790917772
0.2790913372
0.2790915962
0.2790915705
0.2790916026
0.2790906024
0.2790918392
0.2790923791
0.2790924824
0.2790917696
0.2790913677
0.2790915903
0.2790915429
0.2790916099
0.2790905862
0.2790918603
0.2790923734
0.2790924673
0.2790917497
0.2790913861
0.279091572
0.2790915312
0.2790915865
0.2790905832
0.2790918976
0.2790923499
0.2790924558
0.2790917574
0.2790913793
0.2790916025
0.2790914866
0.2790916058
0.2790905724
0.2790918548
0.2790923317
0.2790924505
0.2790917632
0.2790913882
0.2790916244
0.2790914904
0.2790915934
0.2790905873
0.2790918884
0.2790923564
0.2790924623
0.2790917632
0.2790913459
0.2790916604
0.2790915054
0.2790916073
0.2790906113
0.279091886
0.2790924099
0.2790924532
0.2790918045
0.2790913793
0.2790916607
0.2790915203
0.2790916147
0.279090595
0.2790919329
0.2790924643
0.2790925033
0.2790918352
0.2790914154
0.2790916605
0.2790915163
0.2790916386
0.2790906256
0.2790919994
0.2790925652
0.2790926735
0.2790919677
0.2790914662
0.2790917063
0.2790915256
0.2790916905
0.2790907314
0.2790921707
0.2790928827
0.2790930191
0.2790922743
0.2790916019
0.2790918102
0.2790916218
0.2790918069
0.2790909061
0.2790925388
0.2790935016
0.2790938498
0.2790928663
0.2790919582
0.2790919725
0.2790917324
0.2790926461
0.2790912437
0.2790916822
0.2790918988
0.2790922628
0.279092449
0.2790917431
0.2790910761
0.2790921988
0.2790926403
0.2790912166
0.2790916901
0.2790918581
0.2790922511
0.2790924783
0.2790917714
0.2790910813
0.2790921731
0.2790926344
0.279091217
0.2790917181
0.2790918709
0.2790922498
0.2790924923
0.2790917785
0.2790910737
0.2790921497
0.2790926286
0.279091229
0.2790917135
0.2790918195
0.2790922547
0.2790924754
0.2790917839
0.2790910739
0.2790921121
0.279092615
0.2790912323
0.2790917334
0.2790918581
0.2790922445
0.2790924857
0.2790917531
0.2790911004
0.2790921168
0.2790926061
0.2790912498
0.2790917308
0.2790918704
0.2790922417
0.2790924632
0.2790917917
0.2790910793
0.2790921079
0.2790926266
0.2790912487
0.2790917426
0.2790918824
0.2790922401
0.2790924746
0.2790917811
0.2790910508
0.2790921104
0.2790926418
0.2790912502
0.2790917683
0.2790918646
0.2790922608
0.279092481
0.2790917537
0.2790910444
0.2790921097
0.279092633
0.2790912564
0.2790917926
0.2790918406
0.2790922398
0.2790924618
0.2790917462
0.2790910354
0.2790921058
0.2790926204
0.2790912822
0.2790917723
0.2790918594
0.2790922319
0.2790924532
0.2790917349
0.2790910365
0.2790921045
0.2790926486
0.2790912466
0.2790917678
0.2790918492
0.2790922507
0.2790924535
0.2790917407
0.2790910282
0.2790921143
0.2790926597
0.2790912592
0.2790918299
0.2790918931
0.2790923295
0.2790925164
0.279091778
0.2790910327
0.2790920991
0.2790926582
0.2790912997
0.2790919233
0.2790920113
0.2790924946
0.2790925756
0.2790918293
0.2790911004
0.2790921376
0.2790927014
0.2790913628
0.2790920825
0.2790923298
0.2790929164
0.2790929287
0.2790920042
0.2790911917
0.2790921805
)
;
    }
    inlet
    {
        type            calculated;
        value           nonuniform List<scalar> 
81
(
0.2790915782
0.2790905561
0.2790918158
0.2790924209
0.2790924442
0.2790917778
0.2790914076
0.2790915652
0.2790915803
0.2790914253
0.2790934495
0.2790929708
0.2790909359
0.279090075
0.2790911687
0.2790919808
0.2790905527
0.2790914081
0.279091427
0.2790902989
0.2790913875
0.2790907829
0.2790906443
0.2790923969
0.2790919476
0.2790928284
0.2790923709
0.2790926189
0.2790926364
0.2790922386
0.279090691
0.2790931871
0.2790923603
0.2790923138
0.2790908974
0.2790924972
0.2790916448
0.2790917004
0.2790909817
0.2790927252
0.2790916482
0.2790923373
0.2790911092
0.2790918583
0.2790917725
0.2790899319
0.2790919949
0.2790920696
0.2790918117
0.279090124
0.2790927006
0.2790916305
0.2790902252
0.2790918067
0.279091796
0.2790929979
0.2790911006
0.2790915377
0.2790907418
0.2790918461
0.2790920388
0.2790915611
0.2790924911
0.2790913452
0.279092013
0.279092115
0.279091043
0.2790916596
0.2790912086
0.2790936094
0.2790937447
0.2790920089
0.2790926461
0.2790912437
0.2790916822
0.2790918988
0.2790922628
0.279092449
0.2790917431
0.2790910761
0.2790921988
)
;
    }
    outlet
    {
        type            calculated;
        value           nonuniform 0();
    }
    procBoundary0to1
    {
        type            processor;
        value           nonuniform List<scalar> 
97
(
0.2790919685
0.2790917264
0.2790912463
0.279093111
0.2790944758
0.2790950744
0.2790937853
0.2790925019
0.279092292
0.2790919626
0.2790917264
0.2790917264
0.2790947209
0.2790917503
0.2790955434
0.2790963718
0.2790978151
0.2790967067
0.2790947371
0.2790918235
0.279092097
0.2790920241
0.2790917503
0.2790917503
0.2790983851
0.2791025305
0.2791075433
0.2791202888
0.2791094747
0.2790990889
0.2790954467
0.2790935652
0.279093636
0.2790956029
0.2791025305
0.2791025305
0.2791410901
0.279198
0.2792101407
0.2791428184
0.2791092874
0.2790961888
0.2790945049
0.2790929883
0.27909646
0.2791110381
0.279198
0.279198
0.2805391262
0.2791954619
0.2792093108
0.2791276618
0.2791210176
0.2790998362
0.2790944778
0.2790911478
0.2790950096
0.2791022818
0.2791270189
0.2791954619
0.2791276618
0.2791276618
0.2791086009
0.2790961934
0.2790956024
0.2790939222
0.2790923219
0.2790943946
0.279095218
0.2791018476
0.2791107588
0.2791021187
0.2790961934
0.2790961934
0.2790942933
0.2790943281
0.2790936227
0.2790917338
0.2790928596
0.279093721
0.2790940402
0.2790961277
0.2790944661
0.2790950832
0.2790943281
0.2790943281
0.2790927002
0.2790922945
0.2790928232
0.2790915625
0.279092422
0.2790929954
0.2790937077
0.2790935425
0.2790923919
0.2790913645
0.2790922945
)
;
    }
}


// ************************************************************************* //
