/*--------------------------------*- C++ -*----------------------------------*\
| =========                 |                                                 |
| \\      /  F ield         | OpenFOAM: The Open Source CFD Toolbox           |
|  \\    /   O peration     | Version:  4.x                                   |
|   \\  /    A nd           | Web:      www.OpenFOAM.org                      |
|    \\/     M anipulation  |                                                 |
\*---------------------------------------------------------------------------*/
FoamFile
{
    version     2.0;
    format      ascii;
    class       volScalarField;
    location    "7000";
    object      T;
}
// * * * * * * * * * * * * * * * * * * * * * * * * * * * * * * * * * * * * * //

dimensions      [0 0 0 1 0 0 0];

internalField   nonuniform List<scalar> 
1175
(
1223.150912
1223.150971
1223.151054
1223.150814
1223.150789
1223.150805
1223.150773
1223.150876
1223.150793
1223.150853
1223.150808
1223.150818
1223.150817
1223.150819
1223.150761
1223.155391
1223.155448
1223.155357
1223.155174
1223.15518
1223.155188
1223.155259
1223.155273
1223.155323
1223.155267
1223.155187
1223.155328
1223.155369
1223.155304
1223.155321
1223.14987
1223.149864
1223.149905
1223.149901
1223.149648
1223.149768
1223.149676
1223.149513
1223.149705
1223.149572
1223.149626
1223.149548
1223.14959
1223.149616
1223.149536
1223.147218
1223.147295
1223.147328
1223.147311
1223.147322
1223.147401
1223.147427
1223.147532
1223.147617
1223.14753
1223.147363
1223.147328
1223.147447
1223.147405
1223.147376
1223.147116
1223.147121
1223.147102
1223.147281
1223.146994
1223.146949
1223.147016
1223.147068
1223.147098
1223.147071
1223.147191
1223.147224
1223.147194
1223.147457
1223.147396
1223.150036
1223.150097
1223.150063
1223.150132
1223.150039
1223.150073
1223.150161
1223.150129
1223.150109
1223.15013
1223.150016
1223.150086
1223.150066
1223.150072
1223.15016
1223.151659
1223.151832
1223.151802
1223.151831
1223.151968
1223.151834
1223.151754
1223.151785
1223.15175
1223.151949
1223.151847
1223.151816
1223.151927
1223.152109
1223.15208
1223.150968
1223.150843
1223.150785
1223.150743
1223.150832
1223.150859
1223.150939
1223.150806
1223.150713
1223.150563
1223.150588
1223.150658
1223.150633
1223.150576
1223.150647
1223.150902
1223.150963
1223.150932
1223.150862
1223.150945
1223.151066
1223.151118
1223.151314
1223.151299
1223.151239
1223.151189
1223.151249
1223.151313
1223.15112
1223.151087
1223.151581
1223.151691
1223.151795
1223.151943
1223.151762
1223.151739
1223.151716
1223.151696
1223.151688
1223.151538
1223.15146
1223.151538
1223.151614
1223.151699
1223.14271
1223.142575
1223.142542
1223.142546
1223.142464
1223.142529
1223.142489
1223.142409
1223.142425
1223.142353
1223.142324
1223.142356
1223.142425
1223.142176
1223.142229
1223.144808
1223.145045
1223.145201
1223.14533
1223.145113
1223.145244
1223.145252
1223.145247
1223.145275
1223.14528
1223.145305
1223.145427
1223.145357
1223.145508
1223.145534
1223.153726
1223.153751
1223.153726
1223.153695
1223.153624
1223.153604
1223.153406
1223.153428
1223.153452
1223.153473
1223.153467
1223.153447
1223.15342
1223.153385
1223.153361
1223.1575
1223.157683
1223.1577
1223.157635
1223.157698
1223.157804
1223.157908
1223.157825
1223.157797
1223.157907
1223.157911
1223.158114
1223.158088
1223.157939
1223.158082
1223.152706
1223.152751
1223.152827
1223.152919
1223.152909
1223.152755
1223.152662
1223.15262
1223.152483
1223.152445
1223.152226
1223.152205
1223.152151
1223.152176
1223.15223
1223.149147
1223.149047
1223.149039
1223.149002
1223.149008
1223.14898
1223.148913
1223.148801
1223.148944
1223.148888
1223.148948
1223.149008
1223.148882
1223.148878
1223.148989
1223.155406
1223.155307
1223.155476
1223.155478
1223.155394
1223.155572
1223.155726
1223.155575
1223.155518
1223.155524
1223.155437
1223.155374
1223.155431
1223.15549
1223.155395
1223.151657
1223.151541
1223.15156
1223.151547
1223.151592
1223.151651
1223.151661
1223.151709
1223.151656
1223.151662
1223.151715
1223.151523
1223.151608
1223.151559
1223.151546
1223.151574
1223.151421
1223.151353
1223.151297
1223.151395
1223.151523
1223.151537
1223.151535
1223.151719
1223.151716
1223.151744
1223.151843
1223.151839
1223.151843
1223.156518
1223.156522
1223.156622
1223.156737
1223.156671
1223.156688
1223.156797
1223.156877
1223.15683
1223.156855
1223.156962
1223.156983
1223.156963
1223.156829
1223.151747
1223.151772
1223.151672
1223.151872
1223.151798
1223.151766
1223.151755
1223.151812
1223.151975
1223.152179
1223.152198
1223.152275
1223.152289
1223.152103
1223.152256
1223.154397
1223.154286
1223.154274
1223.154481
1223.154379
1223.154484
1223.154684
1223.154763
1223.154846
1223.154842
1223.154663
1223.154858
1223.154935
1223.154908
1223.154925
1223.155004
1223.155105
1223.154876
1223.154817
1223.154898
1223.154905
1223.154967
1223.154972
1223.155021
1223.155046
1223.155177
1223.155305
1223.155358
1223.155241
1223.155295
1223.147324
1223.147322
1223.147264
1223.147077
1223.147094
1223.147035
1223.147027
1223.146939
1223.146878
1223.146737
1223.146762
1223.146831
1223.146625
1223.146645
1223.146654
1223.149293
1223.149469
1223.149268
1223.149288
1223.149174
1223.149281
1223.149345
1223.149293
1223.149283
1223.149408
1223.149453
1223.149225
1223.14914
1223.149078
1223.149196
1223.145432
1223.145337
1223.145344
1223.145234
1223.145347
1223.145481
1223.145498
1223.145504
1223.145571
1223.145543
1223.145496
1223.145599
1223.14567
1223.145495
1223.145662
1223.147437
1223.147514
1223.147441
1223.147478
1223.147453
1223.147449
1223.147445
1223.147482
1223.147387
1223.147417
1223.147384
1223.147479
1223.147447
1223.147468
1223.1475
1223.14635
1223.146444
1223.146408
1223.146337
1223.146347
1223.146398
1223.146402
1223.14619
1223.14635
1223.146495
1223.146652
1223.146604
1223.146575
1223.146672
1223.146274
1223.14634
1223.146172
1223.146124
1223.146048
1223.146064
1223.146087
1223.146466
1223.146532
1223.146717
1223.14653
1223.146519
1223.146328
1223.146483
1223.148017
1223.147927
1223.14806
1223.148079
1223.148129
1223.148166
1223.147873
1223.147771
1223.147786
1223.147671
1223.1477
1223.147917
1223.147903
1223.148008
1223.1548
1223.154821
1223.154806
1223.154995
1223.154908
1223.154912
1223.154831
1223.154895
1223.15507
1223.15509
1223.155224
1223.15526
1223.155286
1223.155214
1223.155327
1223.14386
1223.143808
1223.143947
1223.144016
1223.144099
1223.14399
1223.144096
1223.144255
1223.144143
1223.144121
1223.144151
1223.144172
1223.144166
1223.144182
1223.142118
1223.147484
1223.14755
1223.147589
1223.147541
1223.147621
1223.147688
1223.147878
1223.148019
1223.148006
1223.147782
1223.147538
1223.14756
1223.14776
1223.147712
1223.147794
1223.147688
1223.1478
1223.147566
1223.147669
1223.14767
1223.147771
1223.147729
1223.147663
1223.147643
1223.147624
1223.147713
1223.147514
1223.147426
1223.147354
1223.147519
1223.153895
1223.153987
1223.153969
1223.154047
1223.153908
1223.153988
1223.154015
1223.15409
1223.154146
1223.154179
1223.154319
1223.15416
1223.154291
1223.154246
1223.154299
1223.146884
1223.146744
1223.146777
1223.146727
1223.146854
1223.146864
1223.146881
1223.14691
1223.146953
1223.147123
1223.14709
1223.147067
1223.147079
1223.147113
1223.14711
1223.15062
1223.150822
1223.150748
1223.150789
1223.150899
1223.15105
1223.15096
1223.150958
1223.150903
1223.150999
1223.151072
1223.15097
1223.150993
1223.15095
1223.150376
1223.150374
1223.150452
1223.15023
1223.149993
1223.150126
1223.149988
1223.150127
1223.149901
1223.14992
1223.150037
1223.149991
1223.149888
1223.149764
1223.153525
1223.153602
1223.153535
1223.15328
1223.153537
1223.153532
1223.153827
1223.153723
1223.153697
1223.153894
1223.153769
1223.153652
1223.153738
1223.153803
1223.145885
1223.145852
1223.145926
1223.146099
1223.146086
1223.145987
1223.146123
1223.146177
1223.145959
1223.146185
1223.146256
1223.146124
1223.146005
1223.145994
1223.150605
1223.150644
1223.150484
1223.150406
1223.150608
1223.150379
1223.150388
1223.150287
1223.150096
1223.150141
1223.150084
1223.150128
1223.150247
1223.150588
1218.589567
1223.147584
1223.147588
1223.147485
1223.147419
1223.147452
1223.147497
1223.147588
1223.147607
1223.14759
1223.147714
1223.147725
1223.147737
1223.147791
1223.147876
1223.145697
1223.152967
1223.15283
1223.152633
1223.152507
1223.152405
1223.152455
1223.152386
1223.152157
1223.152321
1223.152277
1223.152274
1223.152366
1223.152404
1223.152357
1223.152275
1223.149684
1223.149651
1223.149687
1223.149661
1223.149594
1223.14957
1223.149724
1223.149893
1223.149695
1223.149545
1223.149416
1223.149421
1223.149289
1223.149299
1223.149286
1223.15006
1223.149694
1223.149793
1223.149632
1223.149637
1223.149688
1223.14978
1223.14978
1223.149779
1223.149867
1223.149887
1223.14991
1223.149812
1223.149861
1223.149854
1223.158126
1223.158066
1223.158097
1223.158156
1223.158172
1223.158215
1223.158282
1223.158291
1223.158204
1223.158099
1223.158054
1223.15809
1223.157863
1223.157899
1223.149085
1223.149114
1223.148764
1223.148705
1223.148999
1223.149036
1223.148992
1223.149088
1223.148979
1223.148952
1223.149102
1223.149041
1223.149073
1223.149079
1223.148758
1223.148841
1223.148794
1223.148791
1223.14889
1223.1487
1223.148609
1223.148527
1223.148727
1223.148675
1223.148778
1223.148841
1223.148909
1223.14889
1223.149888
1223.149798
1223.149754
1223.149721
1223.149658
1223.149707
1223.149718
1223.14955
1223.149519
1223.149487
1223.149404
1223.149332
1223.149294
1223.149272
1223.157284
1223.157324
1223.157303
1223.157175
1223.15731
1223.157348
1223.157137
1223.157114
1223.157301
1223.157102
1223.157064
1223.157121
1223.157109
1223.157236
1223.145992
1223.145965
1223.146052
1223.146163
1223.146073
1223.145901
1223.146014
1223.146034
1223.146042
1223.14616
1223.146031
1223.146179
1223.146204
1223.146359
1223.150682
1223.150811
1223.150868
1223.150876
1223.150856
1223.150875
1223.150942
1223.15099
1223.150778
1223.150722
1223.150869
1223.150826
1223.150665
1223.150594
1223.1506
1223.156841
1223.15692
1223.156861
1223.156781
1223.156823
1223.156791
1223.156727
1223.156676
1223.156696
1223.156815
1223.156958
1223.156908
1223.156976
1223.156812
1223.156856
1223.14991
1223.149992
1223.15006
1223.150103
1223.149956
1223.149972
1223.149971
1223.150132
1223.150026
1223.149968
1223.149782
1223.149789
1223.149786
1223.149831
1223.149874
1223.149957
1223.150012
1223.149985
1223.14991
1223.150023
1223.149962
1223.149944
1223.149855
1223.149931
1223.149909
1223.149888
1223.149911
1223.150171
1223.150246
1223.144689
1223.144858
1223.144869
1223.144878
1223.144867
1223.145032
1223.14507
1223.145102
1223.145114
1223.145119
1223.145079
1223.145021
1223.145075
1223.144994
1223.153005
1223.152886
1223.152685
1223.152786
1223.152722
1223.152796
1223.15289
1223.152818
1223.152717
1223.152765
1223.152716
1223.152718
1223.152592
1223.152621
1223.151089
1223.151037
1223.151238
1223.151393
1223.151299
1223.151366
1223.151053
1223.151015
1223.151066
1223.151067
1223.151059
1223.15086
1223.151043
1223.15085
1223.154577
1223.15458
1223.154645
1223.15487
1223.155039
1223.155102
1223.155079
1223.155083
1223.155035
1223.155072
1223.155094
1223.15514
1223.154977
1223.155018
1223.149737
1223.149792
1223.149821
1223.149796
1223.149907
1223.149722
1223.149759
1223.149783
1223.149648
1223.1497
1223.149645
1223.149547
1223.149448
1223.14966
1223.148893
1223.14892
1223.149001
1223.14893
1223.148994
1223.148718
1223.148682
1223.148573
1223.148395
1223.148188
1223.148149
1223.148169
1223.148333
1223.148466
1223.150986
1223.151121
1223.150997
1223.150956
1223.151126
1223.15112
1223.151095
1223.15127
1223.151107
1223.151256
1223.151164
1223.151179
1223.151137
1223.151102
1223.150953
1223.14691
1223.146836
1223.146844
1223.146961
1223.146908
1223.147033
1223.146875
1223.147019
1223.147023
1223.147191
1223.14707
1223.146959
1223.147079
1223.147169
1223.147239
1223.151933
1223.151967
1223.152007
1223.151808
1223.151836
1223.151783
1223.151822
1223.151902
1223.151803
1223.151779
1223.151926
1223.151974
1223.151857
1223.15179
1223.149006
1223.149084
1223.148974
1223.148952
1223.148872
1223.148652
1223.148531
1223.148461
1223.148451
1223.148637
1223.14839
1223.148285
1223.148196
1223.148103
1223.148559
1223.148466
1223.148505
1223.148383
1223.148269
1223.148162
1223.148078
1223.148071
1223.147914
1223.148013
1223.147967
1223.147973
1223.147944
1223.148084
1223.153257
1223.153399
1223.153299
1223.153344
1223.153408
1223.153473
1223.153536
1223.153473
1223.153435
1223.153357
1223.153371
1223.153329
1223.153248
1223.153286
1223.150555
1223.150547
1223.150468
1223.150706
1223.15059
1223.150782
1223.150887
1223.150929
1223.150971
1223.150952
1223.150846
1223.150971
1223.151152
1223.151174
1223.152531
1223.152451
1223.15247
1223.152406
1223.152231
1223.152127
1223.152182
1223.15199
1223.151851
1223.151784
1223.151668
1223.151699
1223.151594
1223.151474
1223.142009
1223.142251
1223.142139
1223.142234
1223.142178
1223.142186
1223.142187
1223.142087
1223.142065
1223.141945
1223.142043
1223.142161
1223.141995
1223.141955
1223.141417
1223.141389
1223.141227
1223.141311
1223.14129
1223.141321
1223.141337
1223.141429
1223.141473
1223.141367
1223.141239
1223.141286
1223.141451
1223.141853
1223.149024
1223.148972
1223.148871
1223.148848
1223.148667
1223.148597
1223.148671
1223.148656
1223.148634
1223.148688
1223.148758
1223.148743
1223.148785
1223.148783
1223.148824
1223.146231
1223.146257
1223.146282
1223.146308
1223.146367
1223.146407
1223.146317
1223.146251
1223.146291
1223.146352
1223.146245
1223.146238
1223.146349
1223.146389
1223.152377
1223.152496
1223.152494
1223.152442
1223.152427
1223.152351
1223.152356
1223.15235
1223.152325
1223.152221
1223.152402
1223.152417
1223.152415
1223.152536
1223.150456
1223.150421
1223.150298
1223.150319
1223.150231
1223.150243
1223.150191
1223.15008
1223.149978
1223.150081
1223.150144
1223.149999
1223.149924
1223.150003
1223.149506
1223.149685
1223.149628
1223.149854
1223.149685
1223.149631
1223.149579
1223.149659
1223.14977
1223.149708
1223.14982
1223.149832
1223.149875
1223.149829
1223.147911
1223.147962
1223.147968
1223.147947
1223.147992
1223.148004
1223.148011
1223.147923
1223.148022
1223.148081
1223.148079
1223.147986
1223.147978
1223.147908
1223.147095
1223.146967
1223.146905
1223.146979
1223.146934
1223.147033
1223.146984
1223.146957
1223.147047
1223.147106
1223.147172
1223.1471
1223.147402
1223.147204
1223.150189
1223.150065
1223.150034
1223.15001
1223.150145
1223.149976
1223.150023
1223.150144
1223.150181
1223.150245
1223.150263
1223.150226
1223.150336
1223.150346
1223.153112
1223.153089
1223.153123
1223.153121
1223.153005
1223.153098
1223.153223
1223.153252
1223.153294
1223.153298
1223.15336
1223.153409
1223.153289
1223.153286
1223.148191
1223.148304
1223.148407
1223.148572
1223.148551
1223.14859
1223.148579
1223.148583
1223.148602
1223.148613
1223.148586
1223.148695
1223.14863
1223.148672
)
;

boundaryField
{
    top
    {
        type            zeroGradient;
    }
    bottom
    {
        type            zeroGradient;
    }
    side-walls
    {
        type            zeroGradient;
    }
    inlet
    {
        type            zeroGradient;
    }
    outlet
    {
        type            zeroGradient;
    }
    procBoundary0to1
    {
        type            processor;
        value           nonuniform List<scalar> 
97
(
1223.15084
1223.151726
1223.155154
1223.149523
1223.147267
1223.147305
1223.150293
1223.152193
1223.150571
1223.150865
1223.151726
1223.151726
1223.14252
1223.156657
1223.145445
1223.153426
1223.158061
1223.151957
1223.148979
1223.155219
1223.151426
1223.151792
1223.156657
1223.156657
1223.15229
1223.147901
1223.155106
1223.155539
1223.14664
1223.149205
1223.145868
1223.147533
1223.146787
1223.146538
1223.147901
1223.147901
1223.155435
1223.143904
1223.142242
1223.147856
1223.147461
1223.154227
1223.14714
1223.151172
1223.149848
1223.153829
1223.143904
1223.143904
1218.589629
1223.155024
1223.145878
1223.146675
1223.152345
1223.149204
1223.149919
1223.157692
1223.149138
1223.148988
1223.149491
1223.155024
1223.146675
1223.146675
1223.150471
1223.148407
1223.156798
1223.149693
1223.150487
1223.145068
1223.152681
1223.150891
1223.155053
1223.149703
1223.148407
1223.148407
1223.150924
1223.14173
1223.147281
1223.151693
1223.148166
1223.148019
1223.153387
1223.151304
1223.15152
1223.14205
1223.14173
1223.14173
1223.148783
1223.148624
1223.146307
1223.152444
1223.150048
1223.149595
1223.148019
1223.147197
1223.15018
1223.153312
1223.148624
)
;
    }
}


// ************************************************************************* //
