/*--------------------------------*- C++ -*----------------------------------*\
| =========                 |                                                 |
| \\      /  F ield         | OpenFOAM: The Open Source CFD Toolbox           |
|  \\    /   O peration     | Version:  4.x                                   |
|   \\  /    A nd           | Web:      www.OpenFOAM.org                      |
|    \\/     M anipulation  |                                                 |
\*---------------------------------------------------------------------------*/
FoamFile
{
    version     2.0;
    format      ascii;
    class       volVectorField;
    location    "7000";
    object      U;
}
// * * * * * * * * * * * * * * * * * * * * * * * * * * * * * * * * * * * * * //

dimensions      [0 1 -1 0 0 0 0];

internalField   nonuniform List<vector> 
1175
(
(0.01100000079 1.657475482e-10 -7.388283166e-10)
(0.01100000105 7.841955527e-10 1.138474706e-09)
(0.01100000333 -4.813642695e-10 -2.130996892e-11)
(0.01100000328 -3.377164223e-09 1.110445861e-09)
(0.01100000211 -1.443403117e-09 -8.571413329e-10)
(0.01100000238 -2.775089311e-10 -1.129292673e-09)
(0.01100000725 2.421863445e-10 -4.107866372e-10)
(0.01100000555 -2.47461597e-09 -8.501188512e-10)
(0.011000008 7.44495516e-10 -2.585355723e-09)
(0.01100001403 6.574185658e-10 -3.417902122e-09)
(0.01100002165 -2.329612089e-09 -3.223059815e-09)
(0.01100002842 -3.127149731e-09 -2.492319149e-09)
(0.01100005351 -7.541096817e-09 -7.751547132e-09)
(0.01100006753 -3.473700089e-09 -3.619845379e-09)
(0.01100011225 -1.656609604e-08 -1.283624651e-08)
(0.01100000016 -3.617402392e-10 -5.642585449e-10)
(0.01100000216 -4.76491283e-10 -9.909201059e-10)
(0.01100000121 -7.658802478e-10 7.228295688e-11)
(0.01100000406 -3.5478261e-10 -1.406177438e-09)
(0.01100000243 -8.282255358e-10 -9.63002974e-10)
(0.01100000179 -1.152679071e-09 -2.41163295e-09)
(0.01100000335 -3.375132025e-09 -7.344517728e-11)
(0.01100000308 -2.636922218e-09 -7.789925906e-10)
(0.01100000813 -2.45779689e-09 -7.018089923e-10)
(0.0110000114 -5.118355656e-09 -2.454050658e-09)
(0.01100001949 -8.800887284e-09 -2.96302393e-09)
(0.01100002425 -1.161981456e-08 -3.986033443e-09)
(0.01100005462 -2.411646392e-08 -7.142066722e-09)
(0.01100005979 -2.38837242e-08 -3.085428811e-09)
(0.01100011104 -5.803589358e-08 -1.97615665e-08)
(0.01099999938 1.223509196e-09 -8.148200744e-10)
(0.01099999945 6.331594686e-10 -8.344481972e-10)
(0.01100000079 2.801373355e-10 -2.915354241e-11)
(0.01100000356 -2.727419182e-09 1.343225823e-09)
(0.01100000289 -1.910699831e-09 -3.417007308e-10)
(0.01100000244 -1.703571907e-09 -2.61493975e-09)
(0.01100000277 -1.215403057e-09 1.846581438e-09)
(0.01100000141 -3.204487922e-09 -1.986260736e-09)
(0.01100000878 -3.052041783e-09 -2.7040277e-09)
(0.01100000625 -6.000265851e-09 -3.935084244e-09)
(0.01100001269 -1.00159613e-08 -6.014890164e-09)
(0.0110000126 -1.442667669e-08 -9.349423749e-09)
(0.0110000398 -2.322849325e-08 -1.108171831e-08)
(0.01100003263 -1.984802843e-08 -1.021110077e-08)
(0.01100010895 -6.974980055e-08 -5.031138882e-08)
(0.01100000087 -6.334136664e-14 -9.540167294e-10)
(0.01099999972 -1.30760255e-09 1.445417101e-09)
(0.01100000022 1.686324174e-10 2.231875084e-09)
(0.01100000329 1.519481063e-09 -1.014971456e-09)
(0.01100000221 -1.593733645e-09 -1.724177776e-09)
(0.01100000311 -1.056933663e-09 -3.033297675e-09)
(0.01100000027 -1.085708389e-09 -1.252381615e-09)
(0.01100000241 -9.134515596e-10 -4.531291511e-10)
(0.01100000498 -3.31445654e-09 -1.40603654e-09)
(0.01100000522 -6.743693872e-09 -1.011067714e-09)
(0.01100000982 -1.005064362e-08 -2.004144206e-09)
(0.01100000868 -1.877324828e-08 -4.979146086e-09)
(0.01100004279 -3.510477832e-08 -9.74239693e-09)
(0.01100001453 -4.23815306e-08 -5.833431498e-09)
(0.01100011272 -1.234769231e-07 -6.391410445e-08)
(0.01099999828 2.232042287e-10 -2.515431881e-09)
(0.01099999958 9.045859996e-10 -1.111026055e-09)
(0.01099999969 1.050634151e-09 -1.492930388e-09)
(0.01100000371 1.739880888e-09 1.472904394e-10)
(0.01099999857 1.44505149e-10 -1.016666347e-09)
(0.01100000114 -5.626812532e-10 -2.941609573e-09)
(0.01100000039 -1.806896266e-09 -8.194595469e-10)
(0.01100000124 -1.086630968e-09 -1.268528694e-09)
(0.01100000104 6.11357766e-10 -1.730399648e-09)
(0.01099999646 2.062358216e-11 -4.024828618e-09)
(0.01100000108 5.42623835e-10 -5.59144105e-09)
(0.01099998439 7.937212912e-10 -1.611108789e-08)
(0.0110000091 -5.08434307e-10 -2.380684143e-08)
(0.01099994333 1.154034816e-09 -4.096096608e-08)
(0.01100011895 -5.392884677e-11 -1.767838742e-07)
(0.01099999941 -6.028714772e-10 -3.313555168e-10)
(0.01100000231 -6.122681453e-10 4.847986197e-10)
(0.01100000169 1.691254103e-09 -3.599948895e-10)
(0.01100000206 3.07363091e-10 -7.381979518e-10)
(0.01100000242 3.171141227e-10 -3.295328075e-10)
(0.01099999781 1.814765722e-09 -3.224955339e-09)
(0.01100000406 1.594334313e-09 1.740188024e-09)
(0.01100000343 2.856050469e-09 -7.393304527e-11)
(0.01100000575 4.345525099e-09 -1.712562321e-09)
(0.0110000043 7.355855536e-09 -3.099365956e-09)
(0.01100001047 1.103791434e-08 -1.663287116e-09)
(0.01100000783 2.042427243e-08 -6.507160374e-09)
(0.01100003939 3.62119104e-08 -7.926564462e-09)
(0.01100001522 4.398167827e-08 -6.178923121e-09)
(0.01100011058 1.269132402e-07 -6.580044263e-08)
(0.01100000026 -4.289278502e-10 -8.157063148e-10)
(0.01100000064 -2.875359412e-10 -6.643357129e-10)
(0.01100000185 3.001334738e-10 1.225121109e-09)
(0.01099999988 1.60767497e-09 -6.838179738e-10)
(0.01100000258 3.326020554e-10 8.159907865e-10)
(0.01100000201 1.505682519e-09 4.987104784e-10)
(0.01100000437 3.057153136e-09 -1.229166158e-09)
(0.01100000342 2.885434107e-09 -2.360202893e-09)
(0.01100000418 4.089476584e-09 -7.667677667e-10)
(0.01100000701 6.642776302e-09 -3.361767976e-09)
(0.01100001238 9.618381109e-09 -3.586024579e-09)
(0.01100001003 1.484004117e-08 -7.218420962e-09)
(0.0110000396 2.441257051e-08 -1.294991771e-08)
(0.01100003296 2.175333731e-08 -1.019971049e-08)
(0.01100010696 7.130218221e-08 -5.031736384e-08)
(0.01100000154 -3.189119216e-10 9.718630657e-10)
(0.01100000015 -3.295882515e-11 2.730954827e-09)
(0.01100000004 -1.250947615e-10 8.492735521e-10)
(0.01100000036 -2.965902e-10 -1.203813395e-09)
(0.01100000457 1.71612443e-09 1.782524576e-09)
(0.01100000413 2.646857252e-09 -4.270783977e-10)
(0.01100000543 2.40139738e-09 -1.366067815e-09)
(0.0110000063 2.638435178e-09 -2.400351832e-09)
(0.01100000933 2.25473695e-09 -1.43042358e-09)
(0.01100000882 5.239512974e-09 -3.051481374e-09)
(0.01100001871 9.735119586e-09 -3.065136022e-09)
(0.01100002494 1.313612104e-08 -3.686695779e-09)
(0.01100005198 2.27969125e-08 -8.515925682e-09)
(0.01100006045 2.473632862e-08 -5.552148029e-09)
(0.01100011106 5.896355011e-08 -2.128414572e-08)
(0.01100000006 4.376987091e-10 8.288078762e-11)
(0.01100000093 1.448100857e-10 -8.658066482e-11)
(0.01100000044 6.240907033e-10 -2.455584584e-09)
(0.01100000026 1.291837301e-09 1.190206064e-09)
(0.01100000372 4.381439359e-10 2.624705151e-09)
(0.01100000425 -1.603812037e-10 1.476107451e-10)
(0.01100000537 4.505211398e-11 2.861648786e-10)
(0.011000008 1.346694845e-09 2.7152773e-11)
(0.01100001212 9.660747212e-10 -1.884233555e-09)
(0.01100001458 1.640630207e-09 2.327002643e-09)
(0.01100002248 3.843144045e-09 -1.662873474e-09)
(0.01100003053 3.304972639e-09 -1.694650894e-09)
(0.01100005895 6.759051013e-09 -7.881066925e-09)
(0.01100006831 5.723471273e-09 -5.486924319e-09)
(0.01100011429 1.595085249e-08 -1.474404613e-08)
(0.01100000033 1.398301286e-11 8.086140898e-10)
(0.01100000241 1.362540511e-09 2.783756583e-10)
(0.01100000055 -2.159303287e-10 1.120334911e-09)
(0.01100000345 -1.617868032e-09 9.154989562e-10)
(0.01100000139 7.962040874e-10 3.785063692e-10)
(0.01100000264 2.632882084e-10 -1.183218702e-09)
(0.01100000553 -1.526368646e-09 -1.105003832e-09)
(0.01100000467 -2.066053423e-09 -2.024845979e-09)
(0.01100000879 -1.854480831e-09 -1.561227637e-09)
(0.01100000988 -3.168708227e-09 -5.62350885e-09)
(0.01100001938 -5.503646227e-09 -8.206656855e-09)
(0.01100002458 -4.467059124e-09 -1.330797707e-08)
(0.01100005141 -8.770747103e-09 -2.360318553e-08)
(0.01100006105 -4.14872387e-09 -2.084212251e-08)
(0.01100000215 -6.664685545e-10 -1.055331516e-09)
(0.0109999987 -7.255241389e-10 -1.677437077e-10)
(0.01100000023 -1.117889695e-09 1.291541386e-10)
(0.01100000328 -1.006282747e-09 -5.639326097e-10)
(0.01100000303 -1.388434642e-09 -2.891210259e-10)
(0.01100000318 -1.61043326e-09 -1.054059843e-09)
(0.01100000169 -2.084550403e-09 -1.251323579e-09)
(0.01100000293 -3.034717884e-09 -1.79501768e-09)
(0.01100000633 -2.312297546e-09 -2.309118649e-09)
(0.01100000855 -5.598246378e-09 -5.284169814e-09)
(0.01100001763 -9.221891563e-09 -8.786770284e-09)
(0.01100001846 -1.429275624e-08 -1.47451939e-08)
(0.01100005176 -2.739552343e-08 -2.760294128e-08)
(0.01100004453 -2.808349907e-08 -2.754571312e-08)
(0.01100011144 -9.351207278e-08 -9.323886018e-08)
(0.01100000022 1.543731279e-09 -9.554597777e-10)
(0.01100000231 -2.027565416e-09 -7.382627011e-10)
(0.01100000249 -2.727489971e-10 -1.46401789e-10)
(0.01100000315 -3.453671874e-10 2.527965413e-09)
(0.01100000353 -1.96679864e-09 1.148130815e-09)
(0.01100000295 -1.056305922e-09 -2.10406888e-09)
(0.01100000127 -2.645783024e-09 -1.191146226e-09)
(0.01100000084 -1.543947726e-09 -2.738886117e-09)
(0.01100000436 -3.824085687e-09 -1.574445412e-09)
(0.01100000401 -5.641486743e-09 -7.752015122e-09)
(0.01100000845 -8.87762824e-09 -1.142620839e-08)
(0.01100000569 -1.604843765e-08 -2.297258706e-08)
(0.01100003305 -2.40943232e-08 -4.411619843e-08)
(0.01099999855 -1.957781192e-08 -5.577475564e-08)
(0.01100010704 -1.136183105e-07 -2.102405291e-07)
(0.01099999899 7.917335561e-10 1.723676159e-10)
(0.01100000154 -6.971104928e-11 -3.643709482e-10)
(0.01100000129 4.120561926e-10 -1.133291938e-09)
(0.0110000013 2.993877035e-10 6.760735958e-10)
(0.01100000206 -2.033543577e-09 1.049583408e-09)
(0.01100000429 -7.628283666e-10 -2.371677388e-09)
(0.01100000138 -1.200438229e-09 -2.799083878e-09)
(0.01100000191 -1.378112763e-09 -1.939223796e-09)
(0.0110000035 -3.722972072e-09 -2.074693218e-09)
(0.01100000355 -7.563587909e-09 -7.392409274e-09)
(0.01100000562 -1.207148136e-08 -6.855999277e-09)
(0.01100000423 -2.740100376e-08 -2.655862973e-08)
(0.01100003509 -4.768214349e-08 -3.941608844e-08)
(0.01099996841 -7.342535501e-08 -6.129000205e-08)
(0.01100010873 -2.551420836e-07 -3.202833465e-07)
(0.01099999888 1.215560141e-09 -2.171073051e-10)
(0.0110000001 1.238380367e-09 -3.427887537e-10)
(0.01100000122 8.302274317e-10 8.459770149e-10)
(0.01099999897 1.002585167e-09 2.461536014e-10)
(0.01100000107 -5.045854464e-11 -1.233494146e-11)
(0.01100000129 -1.383313829e-09 -1.005822419e-09)
(0.0110000024 -2.759943455e-10 -1.258002023e-09)
(0.0109999988 -6.315740478e-10 -2.965598813e-09)
(0.01099999611 4.934054075e-10 -3.652942656e-09)
(0.01099999531 5.646165682e-10 -1.088435185e-08)
(0.0109999885 2.384234911e-09 -1.466258865e-08)
(0.010999967 8.600382568e-10 -5.637717591e-08)
(0.01099997186 7.598771432e-10 -8.990260813e-08)
(0.01099980737 6.161350217e-10 -2.15871193e-07)
(0.01100011848 -1.136174797e-09 -8.390164687e-07)
(0.01099999927 -1.52955149e-10 9.385996313e-10)
(0.01100000053 -1.741818081e-10 -7.920527485e-10)
(0.01100000069 -4.641818968e-10 2.474751833e-10)
(0.0110000004 1.067855602e-09 -3.472307226e-10)
(0.01100000142 1.201370241e-09 -4.153427999e-10)
(0.01100000061 2.09299584e-09 -2.191305021e-09)
(0.01100000192 1.846089234e-09 -1.541785713e-09)
(0.01100000352 3.612770539e-09 -2.27102545e-09)
(0.01100000181 4.075407206e-09 -3.766724153e-09)
(0.0110000024 7.174383027e-09 -8.365220786e-09)
(0.01100000581 1.169629225e-08 -8.14967787e-09)
(0.01100000431 2.799886384e-08 -2.656303033e-08)
(0.01100003358 4.821363696e-08 -3.728070389e-08)
(0.01099996677 7.418851353e-08 -6.169248639e-08)
(0.01100010806 2.577505297e-07 -3.198233818e-07)
(0.01100000081 -4.572721703e-10 -2.418349468e-10)
(0.01100000044 2.503674662e-09 -2.500573007e-11)
(0.01100000055 1.786222165e-09 -1.022135002e-09)
(0.0110000007 1.307719227e-09 -1.170688197e-09)
(0.01100000215 3.007624216e-09 2.935108524e-10)
(0.01100000313 1.947283974e-09 -1.339244424e-09)
(0.01100000406 1.232165659e-09 -9.825917881e-10)
(0.01100000169 1.586028182e-09 -2.404090925e-09)
(0.01100000499 3.3511056e-09 -2.994806066e-09)
(0.01100000319 5.504970215e-09 -7.783337164e-09)
(0.01100000933 8.247332401e-09 -9.501868797e-09)
(0.01100000249 1.5745146e-08 -2.36196392e-08)
(0.01100003312 2.55576245e-08 -4.402391303e-08)
(0.01099999478 2.149258733e-08 -5.605217727e-08)
(0.01100010686 1.152648196e-07 -2.105520533e-07)
(0.01099999992 8.567403057e-11 5.769942771e-10)
(0.01099999904 5.009858783e-11 -6.653454978e-10)
(0.01100000022 2.132368876e-09 -8.260780101e-10)
(0.01100000236 1.089015823e-09 1.307160847e-10)
(0.0110000006 1.28105999e-09 -1.185584762e-11)
(0.01100000376 3.702497802e-09 -3.006589133e-09)
(0.01100000442 2.54434617e-09 -1.010336841e-09)
(0.01100000602 2.951613811e-09 -2.290126005e-09)
(0.01100000667 2.735546529e-09 -3.246248931e-09)
(0.01100001062 7.342342232e-09 -5.40132078e-09)
(0.01100001771 9.079083029e-09 -7.656302493e-09)
(0.01100001826 1.576856723e-08 -1.421536721e-08)
(0.01100004823 2.941381539e-08 -2.863429812e-08)
(0.01100004715 2.846688687e-08 -2.768792188e-08)
(0.01100011252 9.560482791e-08 -9.37262407e-08)
(0.01100000177 -1.190369153e-09 1.798924374e-10)
(0.01100000033 -7.824068489e-11 -1.997188836e-10)
(0.01100000139 6.498198359e-10 5.336369594e-10)
(0.01100000108 1.013918705e-09 6.727437455e-11)
(0.01100000218 2.516152997e-10 5.196982893e-10)
(0.01100000328 -4.568288293e-11 -9.510475172e-10)
(0.01100000613 1.374292481e-09 -8.595199649e-10)
(0.01100000798 2.416946354e-09 -1.534225494e-09)
(0.01100000916 1.702266755e-09 -2.147881891e-09)
(0.01100001162 2.398372711e-09 -5.283773509e-09)
(0.0110000216 4.585995701e-09 -9.049201243e-09)
(0.01100002442 5.44568641e-09 -1.37151226e-08)
(0.01100005398 7.811798221e-09 -2.264555599e-08)
(0.01100006013 7.218372746e-09 -2.399977957e-08)
(0.01100011167 2.223973673e-08 -5.843591746e-08)
(0.01100000195 -5.298422915e-10 1.043741377e-09)
(0.01100000097 -1.375913967e-09 6.236944232e-10)
(0.01099999954 -1.339817444e-09 -1.49491815e-09)
(0.01099999996 -2.250090524e-09 3.47685282e-10)
(0.01100000249 -1.088721467e-09 7.961582098e-10)
(0.01100000061 1.693517818e-09 2.333083e-09)
(0.01100000221 -1.126760167e-09 -2.42742933e-09)
(0.01100000231 1.34511887e-09 -3.715165967e-09)
(0.01100000712 1.525683206e-10 -3.161229375e-09)
(0.01100000691 -3.459812357e-09 -5.130652794e-09)
(0.01100001278 -2.245373484e-09 -1.163499722e-08)
(0.01100001165 -3.304209312e-09 -1.36316767e-08)
(0.01100004165 -1.289579643e-08 -2.415064516e-08)
(0.01100003051 -9.917236332e-09 -1.874260553e-08)
(0.010999999 -2.349420536e-10 2.60919202e-09)
(0.01100000107 -8.618060735e-10 -2.02210553e-09)
(0.01100000224 -5.29720457e-10 -4.443696617e-10)
(0.01100000261 -9.513080878e-10 1.869697564e-09)
(0.01100000075 -1.64885355e-09 4.50745562e-11)
(0.0110000015 -1.674081421e-09 -1.001519794e-09)
(0.01100000103 -9.250900875e-10 -1.046977416e-09)
(0.01100000156 -2.523105303e-09 -2.428011668e-09)
(0.01100000317 -3.956183758e-09 -3.320875673e-09)
(0.01100000293 -8.785821678e-09 -6.113612706e-09)
(0.0110000077 -1.11591168e-08 -8.222706323e-09)
(0.01100000286 -2.327378756e-08 -1.453447712e-08)
(0.01100003187 -4.505752104e-08 -2.49510151e-08)
(0.01099999424 -5.566971796e-08 -1.839717255e-08)
(0.01100000136 1.308262523e-09 1.354522326e-09)
(0.01100000171 8.754544574e-10 1.500624097e-09)
(0.01100000192 -6.379281918e-10 5.955214144e-10)
(0.01100000181 -7.987812492e-10 2.174397987e-09)
(0.01100000071 -9.22050526e-10 -9.819785913e-11)
(0.01099999879 -1.361449523e-10 -1.138394893e-09)
(0.01099999935 -2.267265389e-09 -9.255233614e-10)
(0.01099999802 -2.03610203e-09 -3.582261343e-09)
(0.01099999766 -3.968136481e-09 -3.292466969e-09)
(0.01099999684 -8.130935529e-09 -7.312730351e-09)
(0.01099999472 -6.148345491e-09 -6.999792292e-09)
(0.01099997801 -2.546915656e-08 -2.601578986e-08)
(0.01099999132 -3.351432749e-08 -3.348542829e-08)
(0.01099987899 -5.436596131e-08 -5.283604109e-08)
(0.01100008044 -2.975214551e-07 -3.022100707e-07)
(0.01099999987 -9.320259554e-11 1.165249326e-09)
(0.01099999984 -1.859911491e-10 2.620258727e-09)
(0.011 -5.728841942e-11 1.197477366e-09)
(0.01100000192 -5.819186094e-10 1.198900585e-09)
(0.01100000125 -8.73630584e-10 -3.079727888e-11)
(0.011 -1.284979333e-09 9.66037765e-10)
(0.01100000119 -1.264467446e-09 1.508951498e-09)
(0.01099999918 -2.534329931e-09 -2.028241354e-09)
(0.01099999599 -2.695192223e-09 1.207549319e-11)
(0.01100000008 -1.108116404e-08 -8.026355256e-09)
(0.01099998837 -1.365190221e-08 2.276115687e-09)
(0.01099998365 -5.420394375e-08 -2.576493617e-08)
(0.01099996764 -8.208117231e-08 1.765688192e-08)
(0.01099981502 -2.05492592e-07 -3.101091875e-08)
(0.01099998608 -7.638018474e-07 -4.130699174e-07)
(0.01099999999 9.746810073e-10 -1.672346389e-09)
(0.01100000273 -1.085446424e-09 -5.135774957e-10)
(0.01100000066 1.69247081e-10 -8.317749419e-10)
(0.01099999911 1.301071611e-09 -2.244353395e-10)
(0.01100000033 7.537128721e-10 -9.690123244e-10)
(0.0110000009 -9.578075422e-11 1.132573322e-09)
(0.01099999855 4.51223348e-10 -3.059045678e-10)
(0.01099999616 4.063839074e-10 -4.110959755e-09)
(0.01099998868 -1.81218739e-10 -3.199234046e-09)
(0.01099998623 5.540636674e-10 -1.571567955e-08)
(0.01099994808 2.519789808e-10 -7.084757253e-09)
(0.01099991481 9.059684147e-10 -7.90489798e-08)
(0.0109997748 3.011573866e-09 -4.072145763e-08)
(0.0109993587 9.688835598e-10 -3.835612313e-07)
(0.01099979316 1.971397015e-09 -1.602961424e-06)
(0.01099999993 -8.86623299e-10 1.462341519e-10)
(0.01100000024 -5.290181045e-10 1.736781619e-09)
(0.01100000016 1.044273739e-09 -1.171071601e-09)
(0.01099999838 -9.282178249e-11 -6.005060699e-10)
(0.01100000112 1.84120269e-10 1.007741085e-09)
(0.01100000178 3.010250158e-10 1.825773598e-09)
(0.01100000125 1.56527576e-09 1.014660624e-09)
(0.01100000004 3.603247797e-09 -8.341370216e-10)
(0.01099999615 4.916341328e-09 -1.34503722e-09)
(0.01099999801 1.048627043e-08 -9.614455734e-09)
(0.0109999884 1.476721686e-08 1.003198062e-10)
(0.01099998445 5.248632921e-08 -2.589365819e-08)
(0.01099996596 8.124009266e-08 1.639001324e-08)
(0.01099981345 2.072420309e-07 -3.112560874e-08)
(0.01099998443 7.645337871e-07 -4.151581557e-07)
(0.0109999991 -7.349818567e-10 4.876105648e-10)
(0.01100000363 -7.954290275e-10 -1.571848249e-10)
(0.01099999982 -5.528220664e-10 1.3236376e-10)
(0.0110000006 1.338959425e-09 6.876016887e-11)
(0.0110000009 1.099979044e-09 1.110311521e-09)
(0.01100000129 8.429011595e-10 -6.091210364e-10)
(0.01100000398 1.328739942e-09 -4.579841852e-10)
(0.01100000019 1.317000289e-09 -1.46839587e-09)
(0.01099999705 4.226378268e-09 -1.703392783e-09)
(0.01099999694 9.903605277e-09 -5.906361055e-09)
(0.01099999584 7.862933296e-09 -7.905770578e-09)
(0.01099997462 2.699606468e-08 -2.597084871e-08)
(0.01099999335 3.297651957e-08 -3.434052979e-08)
(0.01099987847 5.538257805e-08 -5.441859573e-08)
(0.01100008075 3.031945829e-07 -3.034537597e-07)
(0.01100000046 1.460269761e-11 -1.283144674e-11)
(0.011000001 1.042986226e-09 2.456031481e-10)
(0.01100000137 9.27674633e-10 -4.374575336e-10)
(0.01100000164 2.031401074e-09 6.181381064e-11)
(0.01099999907 8.695124618e-10 -1.40227351e-09)
(0.01100000341 1.892506501e-09 -1.321134503e-09)
(0.01100000459 1.485425623e-09 -1.434992248e-09)
(0.01100000481 5.162862913e-09 -5.453928966e-11)
(0.01100000417 5.462237479e-09 -1.967487036e-09)
(0.01100000453 9.292613956e-09 -6.585670433e-09)
(0.01100000938 1.105090374e-08 -8.830589853e-09)
(0.01100000209 2.471701332e-08 -1.667776507e-08)
(0.0110000357 4.593477201e-08 -2.630163042e-08)
(0.01099999333 5.553629432e-08 -2.206180658e-08)
(0.01100010786 2.11645622e-07 -1.151044243e-07)
(0.01100000053 5.88028575e-10 2.686461118e-10)
(0.0110000009 2.50954933e-10 -1.951999418e-10)
(0.01100000155 1.863010539e-09 4.16729663e-10)
(0.01100000263 1.379989027e-09 2.05044824e-09)
(0.01100000141 2.611898626e-10 -8.846888357e-10)
(0.01100000266 2.086017575e-09 -7.02629445e-10)
(0.01100000527 8.806971298e-10 3.184412408e-10)
(0.01100000541 5.5055201e-10 -1.233033927e-09)
(0.01100000491 1.451606126e-09 -2.416391783e-09)
(0.0110000062 2.06023186e-09 -5.361293158e-09)
(0.01100001308 4.673081028e-09 -7.475890643e-09)
(0.01100001226 5.39747154e-09 -1.342741277e-08)
(0.01100004323 1.359995756e-08 -2.471458985e-08)
(0.01100003149 1.095983177e-08 -2.197322964e-08)
(0.0110001066 4.732791387e-08 -7.277516272e-08)
(0.01099999907 -1.374057053e-10 1.561813093e-09)
(0.01100000305 -2.776391119e-09 -8.611596069e-10)
(0.01099999878 -6.831362095e-10 3.340736568e-10)
(0.01100000206 2.31462838e-09 1.04388603e-10)
(0.01100000045 9.844474978e-11 -3.643636525e-10)
(0.01099999966 -6.370848462e-10 -4.841240847e-10)
(0.01100000158 5.864701306e-10 -8.729130957e-10)
(0.01100000183 6.064593465e-10 -2.310174982e-09)
(0.01100000594 -1.409351598e-09 -1.974027847e-09)
(0.01100000375 -3.873105163e-09 -7.349601399e-09)
(0.01100001209 -1.962293314e-09 -1.05569596e-08)
(0.01100001058 -6.058679887e-09 -1.723387094e-08)
(0.01100004069 -5.187492995e-09 -3.328854093e-08)
(0.01100001299 -4.495191508e-09 -4.115621467e-08)
(0.01099999996 -2.312486101e-10 7.747049445e-10)
(0.01100000061 -7.016851843e-11 9.204529505e-10)
(0.01100000127 -1.064429855e-10 5.615322693e-10)
(0.0110000035 -1.376304407e-09 1.891287361e-09)
(0.01100000008 6.095962781e-11 -8.448855003e-10)
(0.01099999998 -2.808838499e-10 -4.115253797e-10)
(0.01099999884 -8.628403114e-10 -5.902930052e-10)
(0.01100000208 -3.289336407e-09 -3.774426847e-09)
(0.01100000369 -3.169359314e-09 -2.490090448e-09)
(0.01100000493 -9.040576268e-09 -6.26845537e-09)
(0.01100000641 -7.74830798e-09 -1.074090552e-08)
(0.01100000405 -2.720458733e-08 -2.749286153e-08)
(0.01100003404 -3.774617609e-08 -4.790192454e-08)
(0.01099996732 -6.344074722e-08 -7.167269407e-08)
(0.01100000007 8.738463746e-10 1.121324952e-09)
(0.01099999967 5.456291991e-11 -3.475729804e-10)
(0.01100000117 -4.184463864e-10 -1.137030131e-09)
(0.01100000152 -1.005605162e-09 -1.515423656e-09)
(0.01099999944 -1.869926776e-09 4.907237359e-11)
(0.01100000114 -1.705351703e-09 -4.199323015e-10)
(0.01099999878 -1.051944273e-09 -1.516785077e-09)
(0.01099999913 -2.923201e-09 -1.650792452e-09)
(0.01099999536 -1.945029559e-09 -4.347536612e-09)
(0.01099999907 -8.523297504e-09 -1.272527272e-08)
(0.01099998747 1.237087765e-09 -1.456448324e-08)
(0.01099998524 -2.515505219e-08 -5.310291386e-08)
(0.01099996692 1.580578666e-08 -8.070596202e-08)
(0.01099981495 -3.333676314e-08 -2.04583354e-07)
(0.0109999995 -1.144967435e-09 -2.14857286e-10)
(0.01100000069 4.679799868e-10 -1.816576333e-10)
(0.01099999961 -1.275374166e-09 1.01187092e-09)
(0.01100000148 -6.817013608e-10 -6.949269612e-10)
(0.01100000087 2.676469257e-10 5.707118336e-10)
(0.01100000042 2.43800825e-10 -2.313026684e-10)
(0.01099999732 -7.572600995e-10 -1.490676075e-09)
(0.01099999906 -1.481030524e-09 -3.749159958e-09)
(0.01099999567 -2.037618931e-09 -4.768124931e-09)
(0.01100000447 -1.418807274e-08 -1.440236325e-08)
(0.01099998399 -9.899748475e-09 -1.114359324e-08)
(0.01100004255 -7.973177788e-08 -8.023604873e-08)
(0.01099992396 -5.586370132e-08 -5.638217282e-08)
(0.01099992949 -4.029998965e-07 -4.031672268e-07)
(0.01099918177 -1.559461994e-06 -1.56014517e-06)
(0.01100000272 3.499689479e-11 1.188138672e-09)
(0.01100000099 -2.78154809e-10 5.119898031e-10)
(0.01100000096 -6.540259822e-10 1.09568127e-09)
(0.01100000199 1.312358973e-09 -1.559998348e-10)
(0.01100000179 -2.507302064e-10 2.625470205e-10)
(0.0109999988 9.507021055e-10 -4.454574482e-10)
(0.01099999937 5.47117246e-10 -5.808561224e-10)
(0.01099999826 1.443602104e-09 -2.994616116e-09)
(0.0109999841 7.24570103e-10 -5.035239232e-09)
(0.01099998949 5.144384202e-10 -2.663824281e-08)
(0.01099991458 -1.43203596e-11 -2.433932998e-08)
(0.01099996591 5.848376502e-10 -2.063788402e-07)
(0.01099943813 9.003081299e-10 -2.361546362e-07)
(0.01099921952 1.41919655e-09 -2.160625042e-06)
(0.01099656323 2.963675927e-11 -7.835983549e-06)
(0.01099999941 5.837495566e-11 4.290203709e-10)
(0.01099999928 1.050452041e-10 -4.294723468e-10)
(0.01099999797 2.897172556e-10 8.237943215e-10)
(0.01100000039 -6.202604508e-10 4.141162483e-10)
(0.01100000098 4.548606905e-11 1.014888424e-09)
(0.01099999974 4.114953158e-10 -7.578977723e-10)
(0.01100000037 2.392886227e-09 -1.037647199e-09)
(0.01100000196 4.627730771e-09 -3.769548111e-09)
(0.01099999618 4.007555291e-09 -2.718928794e-09)
(0.011000007 1.47067087e-08 -1.33721389e-08)
(0.01099998374 1.193894016e-08 -1.155447725e-08)
(0.01100004146 8.077106586e-08 -8.11149369e-08)
(0.0109999241 5.54964678e-08 -5.604151162e-08)
(0.01099992899 4.042914004e-07 -4.04835416e-07)
(0.01099918013 1.559988896e-06 -1.559127053e-06)
(0.01100000012 -7.578912035e-11 1.22029075e-10)
(0.01100000168 -2.126703053e-10 1.232390919e-09)
(0.01099999942 1.903938065e-10 4.31217325e-11)
(0.0110000004 9.60124782e-11 5.16809975e-12)
(0.0110000016 4.613168994e-10 4.167134594e-10)
(0.01100000285 6.02799682e-10 -7.745391097e-11)
(0.011000001 1.639197332e-09 -7.347559955e-10)
(0.01100000094 3.12791046e-09 -2.970220808e-09)
(0.01099999829 2.950561179e-09 -2.930666998e-09)
(0.01099999529 1.016670631e-08 -1.083732545e-08)
(0.01099999104 -4.671936051e-10 -1.499062313e-08)
(0.01099997995 2.627439462e-08 -5.236608248e-08)
(0.01099996741 -1.609776891e-08 -8.073591155e-08)
(0.0109998127 3.157646497e-08 -2.065101707e-07)
(0.01099998551 4.153375437e-07 -7.659220811e-07)
(0.01099999936 1.098251994e-09 1.136782826e-09)
(0.01100000143 6.502431292e-10 1.291913143e-09)
(0.01099999992 2.868968498e-09 3.794444742e-10)
(0.0110000014 1.540708002e-09 -1.486999107e-09)
(0.01100000158 -9.541025501e-11 -6.53266747e-10)
(0.01100000156 1.639408995e-10 -1.414473925e-09)
(0.01100000523 7.235751486e-10 4.999235147e-10)
(0.01100000388 2.451548346e-09 -2.670838189e-09)
(0.01100000099 2.577171786e-09 -2.206400119e-09)
(0.01100000198 7.545793674e-09 -6.521229538e-09)
(0.0110000082 9.475234052e-09 -9.371081834e-09)
(0.01100000218 2.777270097e-08 -2.699390034e-08)
(0.01100003468 3.926945518e-08 -4.647645357e-08)
(0.01099996789 6.142735134e-08 -7.445677038e-08)
(0.01100011102 3.195234759e-07 -2.582099665e-07)
(0.01100000115 -2.469330799e-10 1.17801813e-09)
(0.01100000042 7.480508276e-11 2.505839559e-09)
(0.01100000235 1.938958034e-09 -1.162943908e-09)
(0.01099999997 2.811245817e-09 -1.131157928e-09)
(0.01100000148 1.655739422e-10 -1.233682637e-09)
(0.01100000125 1.934321016e-09 -6.351030543e-10)
(0.01100000421 -9.47269578e-11 -4.281734724e-10)
(0.01100000409 9.289469712e-10 -2.098639965e-09)
(0.0110000041 1.065966383e-09 -2.400176279e-09)
(0.01100000666 2.424943844e-09 -4.942150021e-09)
(0.01100001465 8.807602642e-10 -1.004433109e-08)
(0.011000009 4.957228894e-09 -1.810757554e-08)
(0.01100004226 8.782149409e-09 -3.439837333e-08)
(0.01100001399 7.219951516e-09 -4.252972822e-08)
(0.01100011202 6.35758831e-08 -1.243617558e-07)
(0.01099999806 8.852197802e-10 -3.584950907e-10)
(0.01100000191 1.563247955e-10 -8.873044275e-10)
(0.0110000007 -1.194373957e-09 1.022645219e-09)
(0.01100000043 1.46341015e-09 6.433375483e-10)
(0.01100000153 2.38214366e-10 -2.448907738e-09)
(0.01100000097 5.52616355e-10 -2.429197224e-09)
(0.01100000193 -5.749130014e-10 3.960366131e-10)
(0.01100000112 -1.471648013e-09 2.238383237e-09)
(0.01099999939 -2.680564406e-09 -2.738905211e-09)
(0.01099999741 -4.261059777e-09 -2.057585517e-09)
(0.0110000017 -2.422893544e-09 -2.043641561e-10)
(0.01099998432 -1.307868475e-08 -1.720849534e-10)
(0.01100001169 -2.291596031e-08 -2.614310386e-10)
(0.01099994142 -3.888793998e-08 -9.346018188e-10)
(0.01099999968 -9.820295665e-10 -6.803030956e-10)
(0.01100000056 1.005620993e-09 -2.006037401e-10)
(0.01100000332 5.305496174e-10 1.421841197e-09)
(0.01100000183 -8.290858793e-10 1.559587859e-09)
(0.01099999667 -8.758405486e-10 2.206983532e-09)
(0.01100000045 -1.851305174e-10 3.529306915e-10)
(0.01099999897 -1.527490826e-09 -7.390281206e-10)
(0.01100000081 -2.614912134e-09 3.914058181e-10)
(0.01099999759 -4.898761049e-09 -1.429899538e-09)
(0.0109999943 -1.252289253e-08 -3.689638089e-10)
(0.01099998942 -1.349443348e-08 -1.318221193e-09)
(0.01099996727 -5.739887428e-08 7.483336771e-10)
(0.01099997255 -8.788982473e-08 5.284225779e-10)
(0.01099980826 -2.150131157e-07 -2.901522439e-10)
(0.0109999996 3.314063415e-10 7.363742122e-12)
(0.01100000136 7.20011291e-10 8.663340366e-10)
(0.01100000126 -9.483747653e-10 1.726630139e-09)
(0.01099999964 -1.432055135e-09 3.072394878e-09)
(0.01099999981 5.409068025e-10 8.196118564e-10)
(0.01099999881 -1.683791184e-09 -1.524122386e-11)
(0.01100000018 -1.401697962e-09 -7.663497621e-10)
(0.01099999638 -2.608683311e-09 9.115107736e-10)
(0.01099998753 -2.739324786e-09 3.333938508e-10)
(0.01099998711 -1.624916899e-08 -1.922795902e-10)
(0.01099995059 -7.289150874e-09 6.971954723e-10)
(0.01099991498 -7.744956869e-08 9.05943943e-10)
(0.01099977594 -4.074813389e-08 1.778003786e-09)
(0.01099935936 -3.847198048e-07 3.266879014e-09)
(0.01099999824 3.070341703e-10 -6.767233465e-10)
(0.0109999998 -6.12210527e-10 4.816617079e-10)
(0.01099999959 -1.525121242e-10 3.833861328e-10)
(0.01100000201 7.312648688e-11 3.318157748e-09)
(0.01100000066 -9.051847247e-10 2.893296648e-09)
(0.01099999767 1.086935125e-10 7.247731085e-10)
(0.01099999937 1.157809883e-09 -1.211065042e-09)
(0.01099999777 -3.654595709e-09 -1.698576511e-09)
(0.01099998084 -4.999205002e-09 2.940905097e-11)
(0.01099999314 -2.58643105e-08 -1.092028098e-09)
(0.01099991655 -2.396955821e-08 2.503208639e-10)
(0.01099996478 -2.05181174e-07 9.647947915e-10)
(0.01099943953 -2.366574588e-07 1.307180735e-09)
(0.01099921919 -2.160486922e-06 2.269220173e-09)
(0.01099999926 5.709131446e-11 1.424086835e-09)
(0.01099999996 -8.021962277e-10 8.610774613e-10)
(0.01100000109 -3.910321723e-10 9.517789137e-10)
(0.01100000095 -1.022093162e-09 2.007362136e-09)
(0.01100000053 -1.066736161e-09 1.117830509e-09)
(0.01099999902 6.49447245e-10 -7.485443779e-10)