/*--------------------------------*- C++ -*----------------------------------*\
| =========                 |                                                 |
| \\      /  F ield         | OpenFOAM: The Open Source CFD Toolbox           |
|  \\    /   O peration     | Version:  4.x                                   |
|   \\  /    A nd           | Web:      www.OpenFOAM.org                      |
|    \\/     M anipulation  |                                                 |
\*---------------------------------------------------------------------------*/
FoamFile
{
    version     2.0;
    format      ascii;
    class       volScalarField;
    location    "7000";
    object      X_CO2;
}
// * * * * * * * * * * * * * * * * * * * * * * * * * * * * * * * * * * * * * //

dimensions      [0 0 0 0 0 0 0];

internalField   nonuniform List<scalar> 
1175
(
7.501300349e-10
7.504504006e-10
7.520015189e-10
7.580085618e-10
7.797743843e-10
8.558864617e-10
1.114024955e-09
1.960938181e-09
4.633510644e-09
1.268226532e-08
3.558726139e-08
9.642909869e-08
2.45069774e-07
5.735853803e-07
1.220407504e-06
7.503605323e-10
7.507456395e-10
7.526277389e-10
7.600595221e-10
7.876656522e-10
8.870267857e-10
1.235086467e-09
2.418271854e-09
6.297737568e-09
1.84629392e-08
5.453940502e-08
1.542473892e-07
4.062756679e-07
9.755132671e-07
2.096345694e-06
7.507241031e-10
7.512138627e-10
7.536384134e-10
7.634383671e-10
8.009158872e-10
9.403717368e-10
1.447228734e-09
3.240857207e-09
9.381621528e-09
2.953940129e-08
9.220942164e-08
2.736726778e-07
7.518886777e-07
1.863700881e-06
4.058314603e-06
7.5105063e-10
7.516392543e-10
7.545824331e-10
7.666848084e-10
8.139695478e-10
9.943288857e-10
1.668399995e-09
4.129340953e-09
1.285245387e-08
4.260749964e-08
1.390635695e-07
4.30935133e-07
1.233968182e-06
3.165753245e-06
7.006581223e-06
7.51180922e-10
7.518107044e-10
7.549718223e-10
7.680559005e-10
8.196045408e-10
1.018194343e-09
1.769165194e-09
4.549302609e-09
1.456949005e-08
4.94429807e-08
1.652663772e-07
5.259880694e-07
1.551254951e-06
4.095959326e-06
9.219776553e-06
7.510485451e-10
7.516371672e-10
7.545804109e-10
7.666829012e-10
8.139680061e-10
9.943287846e-10
1.668403131e-09
4.129351194e-09
1.28524708e-08
4.260745163e-08
1.390630055e-07
4.309320063e-07
1.233955096e-06
3.165709306e-06
7.00646809e-06
7.507197388e-10
7.512095503e-10
7.536342948e-10
7.634347012e-10
8.009128858e-10
9.403708468e-10
1.447232436e-09
3.240868912e-09
9.381632907e-09
2.953928818e-08
9.220849869e-08
2.736679052e-07
7.518694423e-07
1.863638944e-06
4.058164928e-06
7.503537596e-10
7.507392631e-10
7.52621828e-10
7.60054279e-10
7.876613137e-10
8.870240076e-10
1.235085834e-09
2.418269488e-09
6.297698287e-09
1.846266685e-08
5.453801978e-08
1.542415344e-07
4.062544381e-07
9.754490316e-07
2.096196904e-06
7.501196505e-10
7.504421676e-10
7.519948628e-10
7.580032019e-10
7.797706214e-10
8.55884881e-10
1.114026226e-09
1.96093885e-09
4.633475573e-09
1.26820086e-08
3.558596868e-08
9.642371222e-08
2.45050388e-07
5.735253383e-07
1.22025939e-06
7.503606493e-10
7.507457421e-10
7.526277537e-10
7.600595851e-10
7.876661249e-10
8.870287819e-10
1.235094465e-09
2.418303858e-09
6.297864604e-09
1.846342975e-08
5.454126811e-08
1.542543515e-07
4.063017583e-07
9.756158729e-07
7.506210378e-10
7.510911884e-10
7.534178862e-10
7.628252443e-10
7.988365129e-10
9.33097105e-10
1.422590694e-09
3.162441327e-09
9.153676712e-09
2.896111709e-08
9.105080339e-08
2.724297988e-07
7.544878557e-07
1.882277199e-06
4.110361469e-06
7.510325027e-10
7.516416738e-10
7.547073243e-10
7.674538043e-10
8.179781518e-10
1.014080761e-09
1.762047061e-09
4.556807303e-09
1.472242131e-08
5.038455709e-08
1.694485149e-07
5.40524178e-07
1.589539863e-06
4.164479389e-06
9.304753641e-06
7.51403656e-10
7.521461132e-10
7.559303309e-10
7.719951919e-10
8.373537436e-10
1.098893777e-09
2.132031846e-09
6.15017906e-09
2.145022808e-08
7.799610278e-08
2.782239629e-07
9.441844391e-07
2.959853129e-06
8.222619159e-06
1.899003011e-05
7.515522658e-10
7.52350883e-10
7.564416074e-10
7.739499624e-10
8.459347332e-10
1.137726907e-09
2.30863126e-09
6.951703601e-09
2.506451839e-08
9.408442069e-08
3.481600162e-07
1.235696641e-06
4.088635221e-06
1.205360531e-05
2.9104162e-05
7.514015349e-10
7.521440479e-10
7.559283467e-10
7.719933227e-10
8.373519313e-10
1.098891976e-09
2.132027204e-09
6.150156043e-09
2.145009954e-08
7.799540805e-08
2.782205105e-07
9.441687729e-07
2.95978985e-06
8.222400283e-06
1.898945878e-05
7.510282599e-10
7.516376157e-10
7.547034743e-10
7.674503184e-10
8.179752081e-10
1.014079458e-09
1.7620482e-09
4.556803444e-09
1.472233959e-08
5.038395284e-08
1.694450604e-07
5.405075687e-07
1.589470798e-06
4.164239321e-06
9.304132606e-06
7.506147579e-10
7.510852538e-10
7.534124508e-10
7.62820566e-10
7.988329815e-10
9.330958637e-10
1.422593493e-09
3.162443744e-09
9.153620452e-09
2.896062431e-08
9.104799399e-08
2.724164805e-07
7.544331946e-07
1.882084839e-06
4.109828714e-06
7.503513994e-10
7.507385364e-10
7.526220329e-10
7.60055308e-10
7.876633053e-10
8.870279752e-10
1.235095488e-09
2.418296115e-09
6.297776514e-09
1.846288869e-08
5.45386051e-08
1.54242933e-07
4.062572025e-07
9.754531446e-07
2.096199681e-06
7.507242179e-10
7.512140524e-10
7.536387145e-10
7.634390598e-10
8.009178463e-10
9.403794101e-10
1.447259099e-09
3.240977204e-09
9.382092313e-09
2.9541202e-08
9.221613825e-08
2.736968573e-07
7.51972588e-07
1.863975989e-06
7.510325608e-10
7.516418527e-10
7.547075683e-10
7.674543855e-10
8.179799011e-10
1.01408778e-09
1.762075593e-09
4.556923799e-09
1.472289243e-08
5.038643471e-08
1.69455918e-07
5.405531559e-07
1.589653333e-06
4.164942157e-06
7.51521117e-10
7.523285548e-10
7.564761492e-10
7.742993047e-10
8.479040225e-10
1.147492333e-09
2.353223858e-09
7.137477805e-09
2.574165758e-08
9.599574129e-08
3.50146235e-07
1.212876608e-06
3.871911541e-06
1.091026147e-05
2.537115527e-05
7.51964416e-10
7.529649509e-10
7.581853822e-10
7.811822814e-10
8.79151509e-10
1.292829691e-09
3.030508494e-09
1.027731343e-08
4.013963577e-08
1.607924159e-07
6.329333972e-07
2.387201321e-06
8.368557666e-06
2.592027494e-05
6.439966573e-05
7.521428449e-10
7.532258107e-10
7.58912069e-10
7.842136689e-10
8.934198955e-10
1.362162042e-09
3.372028044e-09
1.197612764e-08
4.865111796e-08
2.035398237e-07
8.461618209e-07
3.425885209e-06
1.315897295e-05
4.558889256e-05
0.000126256599
7.519624173e-10
7.52962971e-10
7.581833829e-10
7.811803484e-10
8.791487839e-10
1.292823609e-09
3.03048547e-09
1.027720663e-08
4.013911306e-08
1.60789859e-07
6.329208719e-07
2.38714168e-06
8.368286043e-06
2.591918489e-05
6.439637711e-05
7.515171211e-10
7.523246597e-10
7.564723651e-10
7.742958558e-10
8.479007302e-10
1.147488399e-09
2.353212042e-09
7.137412398e-09
2.574127137e-08
9.599355334e-08
3.501346781e-07
1.212819808e-06
3.871653216e-06
1.090922719e-05
2.536792398e-05
7.510265694e-10
7.516361912e-10
7.547024217e-10
7.674498947e-10
8.179758606e-10
1.01408321e-09
1.76206327e-09
4.556859242e-09
1.472253687e-08
5.038460722e-08
1.694471058e-07
5.405131612e-07
1.589483047e-06
4.164258547e-06
9.304136154e-06
7.507156624e-10
7.512074782e-10
7.536334845e-10
7.63435174e-10
8.009153437e-10
9.40377968e-10
1.447254483e-09
3.240939476e-09
9.381857267e-09
2.953997124e-08
9.221039574e-08
2.736725692e-07
7.518788919e-07
1.863651897e-06
4.058166869e-06
7.510508683e-10
7.516394625e-10
7.545828607e-10
7.666857674e-10
8.139726244e-10
9.943412841e-10
1.668451027e-09
4.129551112e-09
1.285330646e-08
4.261087828e-08
1.390765712e-07
4.309830589e-07
1.234134208e-06
3.166275316e-06
7.514037735e-10
7.521462948e-10
7.559306549e-10
7.71995871e-10
8.373560634e-10
1.098903988e-09
2.132077163e-09
6.150383891e-09
2.145115529e-08
7.800024164e-08
2.782421693e-07
9.442621785e-07
2.960171244e-06
8.22382801e-06
7.519645692e-10
7.529651493e-10
7.581854796e-10
7.811827082e-10
8.791528342e-10
1.292836529e-09
3.030543563e-09
1.027749175e-08
4.014053735e-08
1.607970246e-07
6.329567495e-07
2.387319045e-06
8.369145027e-06
2.59232184e-05
7.524758537e-10
7.537308042e-10
7.603982102e-10
7.906077472e-10
9.239512341e-10
1.51144438e-09
4.106835842e-09
1.559909114e-08
6.646895811e-08
2.904056403e-07
1.261770121e-06
5.34502385e-06
2.146467194e-05
7.740050181e-05
0.0002203236106
7.526826083e-10
7.540474539e-10
7.613525542e-10
7.948421163e-10
9.449803689e-10
1.619829467e-09
4.679434702e-09
1.869881902e-08
8.367383377e-08
3.881763495e-07
1.82757799e-06
8.640478017e-06
4.033544562e-05
0.000178433736
0.0006575762521
7.524740686e-10
7.537289922e-10
7.603963951e-10
7.906059513e-10
9.239486533e-10
1.511438221e-09
4.106809763e-09
1.559895275e-08
6.646817693e-08
2.904010856e-07
1.261743258e-06
5.344864161e-06
2.14637404e-05
7.739549902e-05
0.0002203020841
7.519608196e-10
7.529613924e-10
7.581820608e-10
7.811795832e-10
8.791503716e-10
1.292834359e-09
3.030535437e-09
1.027742004e-08
4.013998908e-08
1.60793333e-07
6.329338909e-07
2.387186812e-06
8.368419795e-06
2.591947062e-05
6.43965648e-05
7.513982319e-10
7.521410554e-10
7.559259507e-10
7.719919622e-10
8.373535505e-10
1.098904136e-09
2.132079225e-09
6.150359953e-09
2.145086424e-08
7.799815625e-08
2.782296896e-07
9.441965207e-07
2.959859636e-06
8.222527205e-06
1.898953532e-05
7.510427468e-10
7.516335446e-10
7.545781584e-10
7.666825442e-10
8.139711403e-10
9.943420799e-10
1.668451395e-09
4.129520839e-09
1.285304598e-08
4.260930811e-08
1.390685516e-07
4.309468131e-07
1.233988139e-06
3.165762387e-06
7.0065019e-06
7.511811925e-10
7.518109531e-10
7.549723279e-10
7.680573628e-10
8.196093706e-10
1.018213801e-09
1.769245571e-09
4.549630909e-09
1.457081215e-08
4.944818472e-08
1.652862806e-07
5.260607234e-07
1.551502486e-06
4.096717724e-06
7.515524321e-10
7.523511224e-10
7.564420013e-10
7.73951102e-10
8.4593907e-10
1.137745798e-09
2.308716642e-09
6.952087956e-09
2.506625321e-08
9.409217202e-08
3.481940748e-07
1.235842218e-06
4.089223423e-06
1.205575714e-05
7.521430834e-10
7.532260744e-10
7.589124801e-10
7.842150264e-10
8.934251021e-10
1.362186461e-09
3.372144592e-09
1.197669589e-08
4.865391283e-08
2.03553698e-07
8.462313558e-07
3.426233036e-06
1.316067877e-05
4.559677966e-05
7.526827766e-10
7.540476328e-10
7.613528653e-10
7.948431452e-10
9.449850042e-10
1.619851657e-09
4.679544762e-09
1.869938356e-08
8.367682977e-08
3.881927624e-07
1.827672541e-06
8.641051649e-06
4.033911344e-05
0.0001784586032
7.52901375e-10
7.54388693e-10
7.624126285e-10
7.996675698e-10
9.695671652e-10
1.750655686e-09
5.400576927e-09
2.283418957e-08
1.08497636e-07
5.450366283e-07
2.874903449e-06
1.603846887e-05
9.554929449e-05
0.0006124560576
0.004253505882
7.526809592e-10
7.54045839e-10
7.61351198e-10
7.948416613e-10
9.44984107e-10
1.619852096e-09
4.679546762e-09
1.869935533e-08
8.367640615e-08
3.881887912e-07
1.827638251e-06
8.64076393e-06
4.033672109e-05
0.0001784384392
0.0006575813609
7.521395042e-10
7.532226542e-10
7.589092559e-10
7.842121353e-10
8.934232023e-10
1.362185706e-09
3.372141348e-09
1.197663161e-08
4.865330734e-08
2.035491799e-07
8.462006764e-07
3.42603659e-06
1.315949756e-05
4.559025889e-05
0.0001262577137
7.515473403e-10
7.523463316e-10
7.56437729e-10
7.739476301e-10
8.459367549e-10
1.13774532e-09
2.308713418e-09
6.952035248e-09
2.506580734e-08
9.40892512e-08
3.481771513e-07
1.235752458e-06
4.088790612e-06
1.205391744e-05
2.910433518e-05
7.511735578e-10
7.518055605e-10
7.549681496e-10
7.680546379e-10
8.196082668e-10
1.018214201e-09
1.769242229e-09
4.549581458e-09
1.457046075e-08
4.94461883e-08
1.652763096e-07
5.260158512e-07
1.551321038e-06
4.096075818e-06
9.219863285e-06
7.510489151e-10
7.516376545e-10
7.545810419e-10
7.666846363e-10
8.13974039e-10
9.943520425e-10
1.668496119e-09
4.129719499e-09
1.285390186e-08
4.261286177e-08
1.390826517e-07
4.309996045e-07
1.23417033e-06
3.166322028e-06
7.514018858e-10
7.521444655e-10
7.559290301e-10
7.719950311e-10
8.373580008e-10
1.098917545e-09
2.132137423e-09
6.15062898e-09
2.145210994e-08
7.800381609e-08
2.782546499e-07
9.443013275e-07
2.960267793e-06
8.223933384e-06
7.519627548e-10
7.529632791e-10
7.581839741e-10
7.811822401e-10
8.791567271e-10
1.292859288e-09
3.030648713e-09
1.027795635e-08
4.01425476e-08
1.608055564e-07
6.329916638e-07
2.387451801e-06
8.369569409e-06
2.592395629e-05
7.524742099e-10
7.53729198e-10
7.603968853e-10
7.906078206e-10
9.239571991e-10
1.511477759e-09
4.106998597e-09
1.559986845e-08
6.647268301e-08
2.904235702e-07
1.261856682e-06
5.345436721e-06
2.146657232e-05
7.740857198e-05
7.526811713e-10
7.540460528e-10
7.613515219e-10
7.948432472e-10
9.449907614e-10
1.619883279e-09
4.679696586e-09
1.870009163e-08
8.368013424e-08
3.882083741e-07
1.827745331e-06
8.641381599e-06
4.034050381e-05
0.0001784631883
7.524726158e-10
7.537276902e-10
7.60395321e-10
7.906063114e-10
9.239556912e-10
1.51147545e-09
4.106986992e-09
1.559979029e-08
6.64721604e-08
2.904202275e-07
1.261836082e-06
5.345317065e-06
2.146595203e-05
7.740621811e-05
7.519596423e-10
7.529602678e-10
7.581810661e-10
7.811797446e-10
8.791550202e-10
1.292859002e-09
3.030646324e-09
1.027790723e-08
4.014211896e-08
1.60802558e-07
6.329732823e-07
2.387350686e-06
8.369069398e-06
2.592178637e-05
6.440389907e-05
7.513971841e-10
7.521399947e-10
7.559250202e-10
7.719918118e-10
8.373563338e-10
1.098918402e-09
2.13214035e-09
6.150607916e-09
2.145184915e-08
7.800197972e-08
2.7824414e-07
9.442484606e-07
2.960033599e-06
8.223038227e-06
1.899069923e-05
7.510417237e-10
7.516324404e-10
7.545773215e-10
7.666821269e-10
8.139727565e-10
9.943510058e-10
1.668487853e-09
4.129658573e-09
1.285355149e-08
4.261109355e-08
1.390745814e-07
4.309659119e-07
1.234043239e-06
3.165899817e-06
7.006762347e-06
7.507201107e-10
7.512099596e-10
7.536349135e-10
7.634361967e-10
8.009180401e-10
9.403902076e-10
1.447307473e-09
3.241156962e-09
9.382709896e-09
2.954319145e-08
9.222199374e-08
2.737119038e-07
7.520017808e-07
1.863996539e-06
7.510287287e-10
7.516380335e-10
7.547041148e-10
7.674520166e-10
8.17981207e-10
1.014103247e-09
1.762145361e-09
4.557199791e-09
1.472392561e-08
5.039013639e-08
1.69468268e-07
5.405901042e-07
1.589740846e-06
4.165025998e-06
7.515174138e-10
7.523250876e-10
7.564731548e-10
7.742979319e-10
8.479088281e-10
1.14752262e-09
2.353359423e-09
7.138046327e-09
2.574396971e-08
9.600486054e-08
3.501806645e-07
1.21299835e-06
3.872297762e-06
1.091128794e-05
7.519611791e-10
7.529618718e-10
7.581827252e-10
7.81181686e-10
8.791592456e-10
1.292873741e-09
3.030711763e-09
1.02782154e-08
4.014358895e-08
1.608095257e-07
6.330059087e-07
2.387497514e-06
8.369686678e-06
2.592411582e-05
7.5213994e-10
7.532230771e-10
7.589098425e-10
7.84213776e-10
8.934302683e-10
1.362218214e-09
3.372290489e-09
1.197732336e-08
4.865656918e-08
2.035646728e-07
8.46274674e-07
3.426390033e-06
1.316115618e-05
4.559757256e-05
7.5195962e-10
7.529603529e-10
7.581812623e-10
7.81180316e-10
8.791577031e-10
1.292871172e-09
3.03070124e-09
1.027815924e-08
4.014327366e-08
1.608078484e-07
6.329973631e-07
2.387457638e-06
8.369523951e-06
2.592359995e-05
7.515146836e-10
7.523222725e-10
7.564703512e-10
7.742954171e-10
8.47906275e-10
1.147519118e-09
2.35334639e-09
7.137975433e-09
2.574358122e-08
9.600289944e-08
3.501714281e-07
1.212959483e-06
3.872163823e-06
1.091103552e-05
7.510243458e-10
7.516339564e-10
7.547006397e-10
7.674491939e-10
8.179791341e-10
1.014102101e-09
1.762142556e-09
4.557169757e-09
1.472372177e-08
5.038898868e-08
1.694627645e-07
5.405665553e-07
1.589653741e-06
4.164749847e-06
9.30537815e-06
7.507135609e-10
7.512054598e-10
7.536317969e-10
7.634341696e-10
8.00917164e-10
9.403895675e-10
1.447301599e-09
3.241114993e-09
9.382481821e-09
2.954211099e-08
9.221742554e-08
2.736943074e-07
7.519405249e-07
1.863805452e-06
4.058467497e-06
7.503541439e-10
7.507396235e-10
7.526223857e-10
7.600556323e-10
7.87665625e-10
8.870395229e-10
1.235142907e-09
2.418477208e-09
6.298436733e-09
1.846519747e-08
5.454628321e-08
1.542669386e-07
4.063266714e-07
9.756351988e-07
7.506150771e-10
7.510855635e-10
7.534130188e-10
7.628219596e-10
7.988378105e-10
9.331144419e-10
1.422665265e-09
3.162718564e-09
9.154652154e-09
2.896437414e-08
9.106105659e-08
2.724593687e-07
7.545630502e-07
1.882437273e-06
7.510269835e-10
7.516366418e-10
7.547031194e-10
7.67451655e-10
8.179824378e-10
1.014109537e-09
1.762169455e-09
4.557286271e-09
1.47242248e-08
5.039110378e-08
1.694711574e-07
5.405976294e-07
1.589756998e-06
4.165047527e-06
7.513987202e-10
7.521415864e-10
7.559266251e-10
7.719939193e-10
8.373606937e-10
1.098933424e-09
2.132202748e-09
6.150878802e-09
2.145302012e-08
7.800697508e-08
2.782647846e-07
9.443297664e-07
2.960331604e-06
8.224012927e-06
7.515476298e-10
7.523467289e-10
7.564382577e-10
7.739490991e-10
8.459427432e-10
1.137770552e-09
2.308822723e-09
6.952508517e-09
2.506784442e-08
9.409794631e-08
3.482136382e-07
1.235900593e-06
4.089361223e-06
1.205591081e-05
7.513971906e-10
7.521401832e-10
7.559253089e-10
7.719925418e-10
8.37359188e-10
1.098930691e-09
2.132193256e-09
6.150838199e-09
2.145283676e-08
7.80061385e-08
2.782612078e-07
9.44315558e-07
2.960281861e-06
8.223872688e-06
7.510243811e-10
7.516339431e-10
7.547006202e-10
7.674492359e-10
8.179797399e-10
1.01410477e-09
1.762154265e-09
4.557223029e-09
1.472395208e-08
5.038997639e-08
1.694667625e-07
5.405822056e-07
1.589712333e-06
4.16496062e-06
7.506111828e-10
7.510819708e-10
7.534099203e-10
7.628193158e-10
7.988354787e-10
9.331108872e-10
1.422654029e-09
3.162670475e-09
9.154445228e-09
2.896353881e-08
9.105792954e-08
2.724490206e-07
7.545357727e-07
1.882404218e-06
7.503481228e-10
7.507357091e-10
7.52619825e-10
7.600541238e-10
7.876651131e-10
8.870388669e-10
1.235137176e-09
2.418444501e-09
6.298284046e-09
1.846456741e-08
5.454393868e-08
1.542590712e-07
4.063031013e-07
9.755719584e-07
2.096468593e-06
7.5012005e-10
7.504426324e-10
7.519953875e-10
7.580043164e-10
7.797741681e-10
8.558972308e-10
1.114070409e-09
1.961094184e-09
4.634005404e-09
1.268374591e-08
3.559139266e-08
9.643964349e-08
2.450938259e-07
5.736338592e-07
7.503518475e-10
7.507390142e-10
7.52622697e-10
7.600566891e-10
7.876677881e-10
8.870438625e-10
1.235153814e-09
2.418508377e-09
6.298526714e-09
1.846544939e-08
5.454692959e-08
1.542684166e-07
4.063294087e-07
9.756385416e-07
7.507160472e-10
7.512079161e-10
7.536342285e-10
7.634368708e-10
8.009210125e-10
9.40399095e-10
1.44733523e-09
3.241245085e-09
9.38298556e-09
2.954400164e-08
9.222417744e-08
2.737170145e-07
7.520111116e-07
1.864006069e-06
7.5104326e-10
7.516339249e-10
7.545789196e-10
7.666842037e-10
8.139771751e-10
9.943656522e-10
1.668544596e-09
4.129886179e-09
1.285445321e-08
4.261457522e-08
1.390874932e-07
4.31011279e-07
1.234191349e-06
3.16633751e-06
7.511739481e-10
7.51805855e-10
7.549687571e-10
7.680560191e-10
8.196132268e-10
1.01823396e-09
1.769322614e-09
4.549906388e-09
1.457175202e-08
4.945119967e-08
1.652951298e-07
5.260831305e-07
1.551545303e-06
4.096751015e-06
7.510419548e-10
7.516327841e-10
7.545777644e-10
7.666830433e-10
8.139757124e-10
9.943629195e-10
1.668536438e-09
4.129855498e-09
1.285432987e-08
4.261409271e-08
1.390856935e-07
4.310051065e-07
1.234172017e-06
3.166285994e-06
7.507135646e-10
7.512054857e-10
7.536318944e-10
7.634346589e-10
8.009186264e-10
9.40395674e-10
1.447325679e-09
3.241208475e-09
9.382840094e-09
2.954344587e-08
9.222220025e-08
2.737106744e-07
7.519936592e-07
1.8639679e-06
7.5034826e-10
7.507358164e-10
7.526199311e-10
7.600543827e-10
7.876658237e-10
8.87041415e-10
1.23514675e-09
2.41847937e-09
6.298409627e-09
1.846500883e-08
5.454544534e-08
1.542640259e-07
4.063191786e-07
9.756245756e-07
7.501151839e-10
7.504397701e-10
7.519939085e-10
7.580039358e-10
7.797748302e-10
8.558982518e-10
1.114068831e-09
1.961077534e-09
4.633925044e-09
1.268342964e-08
3.559031722e-08
9.643656082e-08
2.450872491e-07
5.736302839e-07
)
;

boundaryField
{
    top
    {
        type            calculated;
        value           nonuniform List<scalar> 
134
(
7.501196505e-10
7.503513994e-10
7.507156624e-10
7.510427468e-10
7.511735578e-10
7.510417237e-10
7.507135609e-10
7.503481228e-10
7.501151839e-10
7.504421676e-10
7.507385364e-10
7.512074782e-10
7.516335446e-10
7.518055605e-10
7.516324404e-10
7.512054598e-10
7.507357091e-10
7.504397701e-10
7.519948628e-10
7.526220329e-10
7.536334845e-10
7.545781584e-10
7.549681496e-10
7.545773215e-10
7.536317969e-10
7.52619825e-10
7.519939085e-10
7.580032019e-10
7.60055308e-10
7.63435174e-10
7.666825442e-10
7.680546379e-10
7.666821269e-10
7.634341696e-10
7.600541238e-10
7.580039358e-10
7.797706214e-10
7.876633053e-10
8.009153437e-10
8.139711403e-10
8.196082668e-10
8.139727565e-10
8.00917164e-10
7.876651131e-10
7.797748302e-10
8.55884881e-10
8.870279752e-10
9.40377968e-10
9.943420799e-10
1.018214201e-09
9.943510058e-10
9.403895675e-10
8.870388669e-10
8.558982518e-10
1.114026226e-09
1.235095488e-09
1.447254483e-09
1.668451395e-09
1.769242229e-09
1.668487853e-09
1.447301599e-09
1.235137176e-09
1.114068831e-09
1.96093885e-09
2.418296115e-09
3.240939476e-09
4.129520839e-09
4.549581458e-09
4.129658573e-09
3.241114993e-09
2.418444501e-09
1.961077534e-09
4.633475573e-09
6.297776514e-09
9.381857267e-09
1.285304598e-08
1.457046075e-08
1.285355149e-08
9.382481821e-09
6.298284046e-09
4.633925044e-09
1.26820086e-08
1.846288869e-08
2.953997124e-08
4.260930811e-08
4.94461883e-08
4.261109355e-08
2.954211099e-08
1.846456741e-08
1.268342964e-08
3.558596868e-08
5.45386051e-08
9.221039574e-08
1.390685516e-07
1.652763096e-07
1.390745814e-07
9.221742554e-08
5.454393868e-08
3.559031722e-08
9.642371222e-08
1.54242933e-07
2.736725692e-07
4.309468131e-07
5.260158512e-07
4.309659119e-07
2.736943074e-07
1.542590712e-07
9.643656082e-08
2.45050388e-07
4.062572025e-07
7.518788919e-07
1.233988139e-06
1.551321038e-06
1.234043239e-06
7.519405249e-07
4.063031013e-07
2.450872491e-07
5.735253383e-07
9.754531446e-07
1.863651897e-06
3.165762387e-06
4.096075818e-06
3.165899817e-06
1.863805452e-06
9.755719584e-07
5.736302839e-07
1.22025939e-06
2.096199681e-06
4.058166869e-06
7.0065019e-06
9.219863285e-06
7.006762347e-06
4.058467497e-06
2.096468593e-06
)
;
    }
    bottom
    {
        type            calculated;
        value           nonuniform List<scalar> 
127
(
7.501300349e-10
7.503606493e-10
7.507242179e-10
7.510508683e-10
7.511811925e-10
7.510489151e-10
7.507201107e-10
7.503541439e-10
7.5012005e-10
7.504504006e-10
7.507457421e-10
7.512140524e-10
7.516394625e-10
7.518109531e-10
7.516376545e-10
7.512099596e-10
7.507396235e-10
7.504426324e-10
7.520015189e-10
7.526277537e-10
7.536387145e-10
7.545828607e-10
7.549723279e-10
7.545810419e-10
7.536349135e-10
7.526223857e-10
7.519953875e-10
7.580085618e-10
7.600595851e-10
7.634390598e-10
7.666857674e-10
7.680573628e-10
7.666846363e-10
7.634361967e-10
7.600556323e-10
7.580043164e-10
7.797743843e-10
7.876661249e-10
8.009178463e-10
8.139726244e-10
8.196093706e-10
8.13974039e-10
8.009180401e-10
7.87665625e-10
7.797741681e-10
8.558864617e-10
8.870287819e-10
9.403794101e-10
9.943412841e-10
1.018213801e-09
9.943520425e-10
9.403902076e-10
8.870395229e-10
8.558972308e-10
1.114024955e-09
1.235094465e-09
1.447259099e-09
1.668451027e-09
1.769245571e-09
1.668496119e-09
1.447307473e-09
1.235142907e-09
1.114070409e-09
1.960938181e-09
2.418303858e-09
3.240977204e-09
4.129551112e-09
4.549630909e-09
4.129719499e-09
3.241156962e-09
2.418477208e-09
1.961094184e-09
4.633510644e-09
6.297864604e-09
9.382092313e-09
1.285330646e-08
1.457081215e-08
1.285390186e-08
9.382709896e-09
6.298436733e-09
4.634005404e-09
1.268226532e-08
1.846342975e-08
2.9541202e-08
4.261087828e-08
4.944818472e-08
4.261286177e-08
2.954319145e-08
1.846519747e-08
1.268374591e-08
3.558726139e-08
5.454126811e-08
9.221613825e-08
1.390765712e-07
1.652862806e-07
1.390826517e-07
9.222199374e-08
5.454628321e-08
3.559139266e-08
9.642909869e-08
1.542543515e-07
2.736968573e-07
4.309830589e-07
5.260607234e-07
4.309996045e-07
2.737119038e-07
1.542669386e-07
9.643964349e-08
2.45069774e-07
4.063017583e-07
7.51972588e-07
1.234134208e-06
1.551502486e-06
1.23417033e-06
7.520017808e-07
4.063266714e-07
2.450938259e-07
5.735853803e-07
9.756158729e-07
1.863975989e-06
3.166275316e-06
4.096717724e-06
3.166322028e-06
1.863996539e-06
9.756351988e-07
5.736338592e-07
1.220407504e-06
)
;
    }
    side-walls
    {
        type            calculated;
        value           nonuniform List<scalar> 
261
(
7.501300349e-10
7.503605323e-10
7.507241031e-10
7.5105063e-10
7.51180922e-10
7.510485451e-10
7.507197388e-10
7.503537596e-10
7.501196505e-10
7.504504006e-10
7.507456395e-10
7.512138627e-10
7.516392543e-10
7.518107044e-10
7.516371672e-10
7.512095503e-10
7.507392631e-10
7.504421676e-10
7.520015189e-10
7.526277389e-10
7.536384134e-10
7.545824331e-10
7.549718223e-10
7.545804109e-10
7.536342948e-10
7.52621828e-10
7.519948628e-10
7.580085618e-10
7.600595221e-10
7.634383671e-10
7.666848084e-10
7.680559005e-10
7.666829012e-10
7.634347012e-10
7.60054279e-10
7.580032019e-10
7.797743843e-10
7.876656522e-10
8.009158872e-10
8.139695478e-10
8.196045408e-10
8.139680061e-10
8.009128858e-10
7.876613137e-10
7.797706214e-10
8.558864617e-10
8.870267857e-10
9.403717368e-10
9.943288857e-10
1.018194343e-09
9.943287846e-10
9.403708468e-10
8.870240076e-10
8.55884881e-10
1.114024955e-09
1.235086467e-09
1.447228734e-09
1.668399995e-09
1.769165194e-09
1.668403131e-09
1.447232436e-09
1.235085834e-09
1.114026226e-09
1.960938181e-09
2.418271854e-09
3.240857207e-09
4.129340953e-09
4.549302609e-09
4.129351194e-09
3.240868912e-09
2.418269488e-09
1.96093885e-09
4.633510644e-09
6.297737568e-09
9.381621528e-09
1.285245387e-08
1.456949005e-08
1.28524708e-08
9.381632907e-09
6.297698287e-09
4.633475573e-09
1.268226532e-08
1.84629392e-08
2.953940129e-08
4.260749964e-08
4.94429807e-08
4.260745163e-08
2.953928818e-08
1.846266685e-08
1.26820086e-08
3.558726139e-08
5.453940502e-08
9.220942164e-08
1.390635695e-07
1.652663772e-07
1.390630055e-07
9.220849869e-08
5.453801978e-08
3.558596868e-08
9.642909869e-08
1.542473892e-07
2.736726778e-07
4.30935133e-07
5.259880694e-07
4.309320063e-07
2.736679052e-07
1.542415344e-07
9.642371222e-08
2.45069774e-07
4.062756679e-07
7.518886777e-07
1.233968182e-06
1.551254951e-06
1.233955096e-06
7.518694423e-07
4.062544381e-07
2.45050388e-07
5.735853803e-07
9.755132671e-07
1.863700881e-06
3.165753245e-06
4.095959326e-06
3.165709306e-06
1.863638944e-06
9.754490316e-07
5.735253383e-07
1.220407504e-06
2.096345694e-06
4.058314603e-06
7.006581223e-06
9.219776553e-06
7.00646809e-06
4.058164928e-06
2.096196904e-06
1.22025939e-06
7.5012005e-10
7.503518475e-10
7.507160472e-10
7.5104326e-10
7.511739481e-10
7.510419548e-10
7.507135646e-10
7.5034826e-10
7.501151839e-10
7.504426324e-10
7.507390142e-10
7.512079161e-10
7.516339249e-10
7.51805855e-10
7.516327841e-10
7.512054857e-10
7.507358164e-10
7.504397701e-10
7.519953875e-10
7.52622697e-10
7.536342285e-10
7.545789196e-10
7.549687571e-10
7.545777644e-10
7.536318944e-10
7.526199311e-10
7.519939085e-10
7.580043164e-10
7.600566891e-10
7.634368708e-10
7.666842037e-10
7.680560191e-10
7.666830433e-10
7.634346589e-10
7.600543827e-10
7.580039358e-10
7.797741681e-10
7.876677881e-10
8.009210125e-10
8.139771751e-10
8.196132268e-10
8.139757124e-10
8.009186264e-10
7.876658237e-10
7.797748302e-10
8.558972308e-10
8.870438625e-10
9.40399095e-10
9.943656522e-10
1.01823396e-09
9.943629195e-10
9.40395674e-10
8.87041415e-10
8.558982518e-10
1.114070409e-09
1.235153814e-09
1.44733523e-09
1.668544596e-09
1.769322614e-09
1.668536438e-09
1.447325679e-09
1.23514675e-09
1.114068831e-09
1.961094184e-09
2.418508377e-09
3.241245085e-09
4.129886179e-09
4.549906388e-09
4.129855498e-09
3.241208475e-09
2.41847937e-09
1.961077534e-09
4.634005404e-09
6.298526714e-09
9.38298556e-09
1.285445321e-08
1.457175202e-08
1.285432987e-08
9.382840094e-09
6.298409627e-09
4.633925044e-09
1.268374591e-08
1.846544939e-08
2.954400164e-08
4.261457522e-08
4.945119967e-08
4.261409271e-08
2.954344587e-08
1.846500883e-08
1.268342964e-08
3.559139266e-08
5.454692959e-08
9.222417744e-08
1.390874932e-07
1.652951298e-07
1.390856935e-07
9.222220025e-08
5.454544534e-08
3.559031722e-08
9.643964349e-08
1.542684166e-07
2.737170145e-07
4.31011279e-07
5.260831305e-07
4.310051065e-07
2.737106744e-07
1.542640259e-07
9.643656082e-08
2.450938259e-07
4.063294087e-07
7.520111116e-07
1.234191349e-06
1.551545303e-06
1.234172017e-06
7.519936592e-07
4.063191786e-07
2.450872491e-07
5.736338592e-07
9.756385416e-07
1.864006069e-06
3.16633751e-06
4.096751015e-06
3.166285994e-06
1.8639679e-06
9.756245756e-07
5.736302839e-07
)
;
    }
    inlet
    {
        type            calculated;
        value           nonuniform List<scalar> 
81
(
7.501300349e-10
7.503605323e-10
7.507241031e-10
7.5105063e-10
7.51180922e-10
7.510485451e-10
7.507197388e-10
7.503537596e-10
7.501196505e-10
7.503606493e-10
7.506210378e-10
7.510325027e-10
7.51403656e-10
7.515522658e-10
7.514015349e-10
7.510282599e-10
7.506147579e-10
7.503513994e-10
7.507242179e-10
7.510325608e-10
7.51521117e-10
7.51964416e-10
7.521428449e-10
7.519624173e-10
7.515171211e-10
7.510265694e-10
7.507156624e-10
7.510508683e-10
7.514037735e-10
7.519645692e-10
7.524758537e-10
7.526826083e-10
7.524740686e-10
7.519608196e-10
7.513982319e-10
7.510427468e-10
7.511811925e-10
7.515524321e-10
7.521430834e-10
7.526827766e-10
7.52901375e-10
7.526809592e-10
7.521395042e-10
7.515473403e-10
7.511735578e-10
7.510489151e-10
7.514018858e-10
7.519627548e-10
7.524742099e-10
7.526811713e-10
7.524726158e-10
7.519596423e-10
7.513971841e-10
7.510417237e-10
7.507201107e-10
7.510287287e-10
7.515174138e-10
7.519611791e-10
7.5213994e-10
7.5195962e-10
7.515146836e-10
7.510243458e-10
7.507135609e-10
7.503541439e-10
7.506150771e-10
7.510269835e-10
7.513987202e-10
7.515476298e-10
7.513971906e-10
7.510243811e-10
7.506111828e-10
7.503481228e-10
7.5012005e-10
7.503518475e-10
7.507160472e-10
7.5104326e-10
7.511739481e-10
7.510419548e-10
7.507135646e-10
7.5034826e-10
7.501151839e-10
)
;
    }
    outlet
    {
        type            calculated;
        value           nonuniform 0();
    }
    procBoundary0to1
    {
        type            processor;
        value           nonuniform List<scalar> 
97
(
2.346533874e-06
2.096476914e-06
3.992629686e-06
7.630235762e-06
1.296296876e-05
1.677267197e-05
1.296282742e-05
7.630053861e-06
3.992463371e-06
2.346414478e-06
2.096476914e-06
2.096476914e-06