/*--------------------------------*- C++ -*----------------------------------*\
| =========                 |                                                 |
| \\      /  F ield         | OpenFOAM: The Open Source CFD Toolbox           |
|  \\    /   O peration     | Version:  4.x                                   |
|   \\  /    A nd           | Web:      www.OpenFOAM.org                      |
|    \\/     M anipulation  |                                                 |
\*---------------------------------------------------------------------------*/
FoamFile
{
    version     2.0;
    format      ascii;
    class       volScalarField;
    location    "6000";
    object      CO;
}
// * * * * * * * * * * * * * * * * * * * * * * * * * * * * * * * * * * * * * //

dimensions      [0 0 0 0 0 0 0];

internalField   nonuniform List<scalar> 
1174
(
0.3999966374
0.3999941274
0.3999905826
0.3999859587
0.399980305
0.3999737464
0.399966458
0.3999586387
0.3999504899
0.3999422016
0.3999339489
0.3999259182
0.3999184384
0.3999125612
0.399994278
0.3999902522
0.399984891
0.3999783187
0.3999707623
0.3999624967
0.3999538007
0.3999449282
0.3999360931
0.3999274657
0.3999191804
0.3999113668
0.3999042742
0.3998987995
0.3999890642
0.3999819437
0.3999731338
0.3999631316
0.3999524753
0.3999416477
0.3999310309
0.399920897
0.3999114184
0.3999026889
0.3998947479
0.3998876191
0.3998814158
0.3998767712
0.3999814205
0.3999703536
0.3999576498
0.3999442393
0.3999308968
0.3999181788
0.3999064323
0.3998958361
0.3998864458
0.3998782364
0.3998711366
0.3998650656
0.3998600126
0.3998563555
0.3999759596
0.3999627249
0.3999482897
0.399933672
0.3999196076
0.3999065662
0.3998948028
0.3998844153
0.3998753949
0.3998676658
0.3998611174
0.399855635
0.3998511655
0.3998479848
0.3999814207
0.3999703538
0.3999576501
0.3999442396
0.3999308973
0.3999181793
0.399906433
0.3998958368
0.3998864466
0.3998782373
0.3998711376
0.3998650667
0.3998600137
0.3998563567
0.3999890643
0.3999819439
0.3999731341
0.399963132
0.3999524758
0.3999416484
0.3999310318
0.399920898
0.3999114196
0.3999026902
0.3998947494
0.3998876207
0.3998814176
0.3998767732
0.3999942782
0.3999902524
0.3999848913
0.3999783191
0.3999707628
0.3999624973
0.3999538015
0.3999449292
0.3999360943
0.3999274672
0.3999191821
0.3999113687
0.3999042763
0.3998988019
0.3999966375
0.3999941275
0.3999905828
0.399985959
0.3999803053
0.3999737469
0.3999664586
0.3999586395
0.3999504911
0.399942203
0.3999339506
0.3999259201
0.3999184406
0.3999125637
0.3999969959
0.3999942781
0.3999902523
0.3999848911
0.3999783189
0.3999707625
0.3999624968
0.3999538008
0.3999449284
0.3999360932
0.3999274658
0.3999191805
0.3999113669
0.3999042743
0.3998987996
0.3999889557
0.399981882
0.3999732568
0.3999635993
0.3999534303
0.3999431885
0.3999332003
0.3999236834
0.3999147662
0.3999065119
0.3998989434
0.3998920803
0.3998860433
0.3998814824
0.3999755582
0.3999618057
0.39994686
0.399931987
0.3999180534
0.3999055313
0.3998945913
0.39988521
0.3998772572
0.3998705571
0.3998649285
0.3998602144
0.3998563409
0.3998535549
0.3999517338
0.3999288562
0.3999071075
0.3998881153
0.3998724463
0.3998600237
0.3998504592
0.3998432617
0.3998379496
0.3998341
0.3998313637
0.3998294632
0.3998281883
0.3998274262
0.3999292419
0.3999017096
0.3998783909
0.3998598977
0.3998458613
0.3998355657
0.3998282494
0.3998232298
0.3998199403
0.3998179304
0.3998168494
0.3998164253
0.3998164327
0.3998166315
0.3999517345
0.399928857
0.3999071085
0.3998881163
0.3998724474
0.399860025
0.3998504605
0.3998432631
0.3998379511
0.3998341015
0.3998313652
0.3998294647
0.3998281899
0.3998274278
0.3999755589
0.3999618064
0.3999468608
0.399931988
0.3999180546
0.3999055326
0.3998945929
0.3998852118
0.3998772591
0.3998705592
0.3998649307
0.3998602168
0.3998563434
0.3998535575
0.3999889561
0.3999818823
0.3999732573
0.3999635999
0.3999534311
0.3999431895
0.3999332016
0.3999236849
0.399914768
0.399906514
0.3998989457
0.3998920828
0.399886046
0.3998814853
0.3999942782
0.3999902524
0.3999848913
0.3999783192
0.399970763
0.3999624975
0.3999538018
0.3999449296
0.3999360948
0.3999274678
0.3999191827
0.3999113695
0.3999042772
0.3998988028
0.3999941836
0.3999890644
0.399981944
0.399973134
0.3999631319
0.3999524756
0.399941648
0.3999310312
0.3999208973
0.3999114187
0.3999026892
0.3998947482
0.3998876193
0.3998814161
0.3998767715
0.3999866635
0.3999755585
0.399961806
0.3999468602
0.3999319872
0.3999180536
0.3999055315
0.3998945915
0.3998852102
0.3998772573
0.3998705573
0.3998649287
0.3998602146
0.3998563411
0.3998535551
0.3999359591
0.3999069304
0.3998806515
0.3998591113
0.3998427182
0.399830997
0.3998231117
0.3998181746
0.3998153943
0.3998141275
0.3998138795
0.3998142784
0.3998150258
0.3998157791
0.3998478309
0.3997987842
0.3997649675
0.3997450119
0.3997356428
0.3997335593
0.3997360983
0.3997413304
0.399747947
0.3997551023
0.3997622682
0.3997691059
0.3997752931
0.3997800327
0.3997323369
0.3996835255
0.3996625832
0.399658913
0.3996649435
0.3996759069
0.3996889772
0.3997025465
0.3997157382
0.3997281032
0.3997394336
0.3997496266
0.399758493
0.3997651247
0.3998478339
0.3997987872
0.3997649704
0.3997450148
0.3997356456
0.399733562
0.399736101
0.399741333
0.3997479495
0.3997551047
0.3997622705
0.3997691081
0.3997752953
0.3997800349
0.3999359612
0.3999069323
0.3998806535
0.3998591136
0.3998427208
0.3998309998
0.3998231148
0.3998181779
0.3998153976
0.399814131
0.399813883
0.3998142819
0.3998150293
0.3998157827
0.3999755589
0.3999618065
0.3999468611
0.3999319884
0.3999180552
0.3999055335
0.3998945939
0.3998852129
0.3998772604
0.3998705606
0.3998649322
0.3998602183
0.3998563449
0.3998535591
0.3999890644
0.399981944
0.3999731343
0.3999631325
0.3999524765
0.3999416493
0.3999310329
0.3999208994
0.3999114212
0.3999026921
0.3998947514
0.3998876229
0.39988142
0.3998767757
0.3999899576
0.399981421
0.3999703542
0.3999576505
0.39994424
0.3999308976
0.3999181795
0.3999064331
0.3998958368
0.3998864465
0.3998782371
0.3998711373
0.3998650662
0.3998600132
0.399856356
0.3999727806
0.3999517348
0.3999288572
0.3999071085
0.3998881163
0.3998724472
0.3998600246
0.39985046
0.3998432625
0.3998379503
0.3998341007
0.3998313643
0.3998294637
0.3998281889
0.3998274267
0.3999076913
0.3998478327
0.3997987857
0.3997649688
0.3997450129
0.3997356436
0.39973356
0.3997360989
0.3997413309
0.3997479474
0.3997551027
0.3997622685
0.3997691062
0.3997752934
0.3997800329
0.3995455496
0.3994837257
0.3994734645
0.3994911557
0.3995213337
0.3995552653
0.3995885205
0.3996191227
0.3996463901
0.399670275
0.3996910017
0.3997088431
0.3997238339
0.3997347852
0.3989520206
0.3990292898
0.3991482381
0.399262361
0.3993593703
0.3994385258
0.3995023862
0.3995539754
0.3995959322
0.3996303483
0.3996588132
0.3996824644
0.3997018366
0.3997157607
0.3995455593
0.3994837327
0.3994734705
0.3994911612
0.3995213387
0.3995552698
0.3995885247
0.3996191266
0.3996463936
0.3996702784
0.3996910048
0.3997088461
0.3997238368
0.399734788
0.3998478339
0.399798788
0.3997649721
0.399745017
0.3997356482
0.3997335649
0.399736104
0.399741336
0.3997479525
0.3997551076
0.3997622733
0.3997691109
0.399775298
0.3997800376
0.3999517345
0.3999288574
0.3999071095
0.3998881179
0.3998724496
0.3998600276
0.3998504635
0.3998432663
0.3998379545
0.3998341051
0.399831369
0.3998294685
0.3998281938
0.3998274318
0.3999814207
0.3999703541
0.3999576507
0.3999442406
0.3999308988
0.3999181813
0.3999064354
0.3998958396
0.3998864499
0.3998782409
0.3998711415
0.3998650708
0.3998600181
0.3998563613
0.3999867848
0.3999759602
0.3999627256
0.3999482905
0.3999336729
0.3999196086
0.3999065671
0.3998948037
0.3998844163
0.3998753958
0.3998676667
0.3998611183
0.3998556358
0.3998511663
0.3998479856
0.399958281
0.3999292432
0.399901711
0.3998783924
0.3998598992
0.3998458627
0.399835567
0.3998282506
0.399823231
0.3998199414
0.3998179313
0.3998168503
0.3998164261
0.3998164335
0.3998166323
0.3998190195
0.3997323392
0.3996835281
0.3996625855
0.399658915
0.3996649452
0.3996759083
0.3996889784
0.3997025476
0.3997157391
0.3997281041
0.3997394344
0.3997496273
0.3997584937
0.3997651253
0.3990577257
0.3989520285
0.3990292949
0.3991482414
0.3992623634
0.399359372
0.3994385271
0.3995023872
0.3995539763
0.3995959329
0.3996303489
0.3996588138
0.3996824649
0.399701837
0.3997157611
0.3963951412
0.3976947101
0.398414897
0.3988367474
0.3990981326
0.3992691595
0.3993868354
0.3994714766
0.3995346945
0.3995833989
0.3996218555
0.3996527298
0.3996773987
0.3996948564
0.3989520206
0.3990292987
0.3991482484
0.3992623708
0.399359379
0.3994385334
0.3995023929
0.3995539814
0.3995959375
0.3996303531
0.3996588177
0.3996824685
0.3997018404
0.3997157643
0.3997323366
0.399683529
0.399662589
0.3996589199
0.3996649509
0.3996759144
0.3996889846
0.3997025538
0.3997157451
0.3997281099
0.39973944
0.3997496327
0.3997584989
0.3997651304
0.399929242
0.3999017109
0.3998783934
0.3998599013
0.3998458657
0.3998355707
0.3998282549
0.3998232356
0.3998199464
0.3998179366
0.3998168557
0.3998164316
0.3998164391
0.399816638
0.3999759596
0.3999627253
0.3999482907
0.3999336737
0.3999196101
0.3999065693
0.3998948066
0.3998844197
0.3998753998
0.3998676712
0.3998611231
0.399855641
0.3998511718
0.3998479915
0.3999899576
0.3999814211
0.3999703544
0.3999576507
0.3999442404
0.3999308981
0.3999181802
0.3999064339
0.3998958377
0.3998864475
0.3998782382
0.3998711385
0.3998650676
0.3998600146
0.3998563575
0.399972781
0.3999517355
0.3999288582
0.3999071097
0.3998881176
0.3998724487
0.3998600263
0.3998504618
0.3998432643
0.3998379522
0.3998341026
0.3998313663
0.3998294657
0.3998281909
0.3998274288
0.399907695
0.3998478363
0.3997987897
0.3997649728
0.399745017
0.3997356476
0.3997335638
0.3997361026
0.3997413345
0.3997479509
0.3997551059
0.3997622716
0.3997691092
0.3997752963
0.3997800358
0.3996842489
0.3995455654
0.3994837379
0.3994734747
0.3994911646
0.3995213415
0.3995552721
0.3995885266
0.3996191282
0.3996463951
0.3996702796
0.399691006
0.3997088471
0.3997238377
0.3997347888
0.3990577243
0.3989520293
0.3990293047
0.3991482529
0.3992623743
0.3993593817
0.3994385357
0.3995023948
0.399553983
0.3995959388
0.3996303542
0.3996588186
0.3996824693
0.3997018411
0.3997157649
0.3996842467
0.3995455662
0.399483741
0.3994734792
0.3994911696
0.3995213467
0.3995552771
0.3995885314
0.3996191327
0.3996463993
0.3996702836
0.3996910096
0.3997088505
0.399723841
0.3997347919
0.3998478313
0.3997987885
0.3997649742
0.3997450201
0.3997356519
0.3997335688
0.3997361079
0.3997413399
0.3997479563
0.3997551113
0.3997622769
0.3997691144
0.3997753014
0.3997800408
0.3999517337
0.3999288573
0.39990711
0.3998881189
0.399872451
0.3998600294
0.3998504655
0.3998432685
0.3998379568
0.3998341075
0.3998313714
0.399829471
0.3998281963
0.3998274343
0.3999814204
0.3999703539
0.3999576508
0.399944241
0.3999308994
0.3999181821
0.3999064365
0.399895841
0.3998864514
0.3998782426
0.3998711433
0.3998650727
0.3998600201
0.3998563633
0.3999941837
0.3999890646
0.3999819444
0.3999731346
0.3999631327
0.3999524765
0.3999416491
0.3999310326
0.3999208989
0.3999114205
0.3999026912
0.3998947503
0.3998876217
0.3998814186
0.3998767741
0.3999866642
0.3999755594
0.3999618072
0.3999468617
0.3999319889
0.3999180556
0.3999055337
0.399894594
0.3998852129
0.3998772602
0.3998705603
0.3998649318
0.3998602178
0.3998563444
0.3998535585
0.3999636382
0.3999359625
0.3999069338
0.3998806551
0.3998591151
0.3998427223
0.3998310013
0.3998231162
0.3998181792
0.3998153989
0.3998141322
0.3998138842
0.399814283
0.3998150304
0.3998157837
0.3999076949
0.3998478368
0.399798791
0.3997649748
0.3997450195
0.3997356505
0.3997335669
0.3997361058
0.3997413377
0.399747954
0.399755109
0.3997622746
0.3997691121
0.3997752991
0.3997800386
0.3998190189
0.3997323414
0.3996835331
0.3996625923
0.3996589227
0.3996649533
0.3996759164
0.3996889863
0.3997025552
0.3997157464
0.3997281111
0.399739441
0.3997496337
0.3997584998
0.3997651312
0.3999076952
0.3998478375
0.3997987924
0.3997649769
0.3997450221
0.3997356533
0.3997335699
0.3997361088
0.3997413407
0.399747957
0.3997551119
0.3997622775
0.3997691148
0.3997753018
0.3997800412
0.3999636371
0.3999359617
0.3999069338
0.3998806561
0.399859117
0.3998427249
0.3998310045
0.3998231199
0.3998181831
0.399815403
0.3998141364
0.3998138884
0.3998142872
0.3998150347
0.399815788
0.3999755583
0.3999618066
0.3999468617
0.3999319897
0.399918057
0.3999055358
0.3998945966
0.399885216
0.3998772637
0.3998705642
0.399864936
0.3998602222
0.399856349
0.3998535633
0.3999890641
0.399981944
0.3999731345
0.399963133
0.3999524774
0.3999416505
0.3999310346
0.3999209014
0.3999114236
0.3999026947
0.3998947543
0.3998876261
0.3998814233
0.3998767792
0.399996996
0.3999942784
0.3999902527
0.3999848916
0.3999783195
0.3999707633
0.3999624979
0.3999538022
0.39994493
0.3999360951
0.399927468
0.3999191829
0.3999113696
0.3999042772
0.3998988028
0.3999941097
0.3999889564
0.3999818828
0.3999732578
0.3999636005
0.3999534318
0.3999431903
0.3999332024
0.3999236858
0.399914769
0.399906515
0.3998989467
0.3998920838
0.399886047
0.3998814863
0.3999866642
0.3999755595
0.3999618073
0.399946862
0.3999319894
0.3999180563
0.3999055346
0.399894595
0.3998852141
0.3998772615
0.3998705617
0.3998649333
0.3998602193
0.399856346
0.3998535602
0.399972781
0.3999517357
0.3999288589
0.3999071111
0.3998881195
0.3998724512
0.3998600291
0.399850465
0.3998432678
0.3998379559
0.3998341064
0.3998313702
0.3998294697
0.3998281949
0.3998274329
0.399958281
0.399929244
0.399901713
0.3998783955
0.3998599032
0.3998458675
0.3998355724
0.3998282565
0.3998232371
0.3998199478
0.3998179378
0.3998168568
0.3998164327
0.3998164401
0.3998166389
0.3999727811
0.3999517361
0.3999288595
0.3999071119
0.3998881207
0.3998724525
0.3998600307
0.3998504667
0.3998432696
0.3998379578
0.3998341084
0.3998313723
0.3998294718
0.399828197
0.399827435
0.3999866642
0.3999755595
0.3999618076
0.3999468627
0.3999319905
0.3999180578
0.3999055365
0.3998945973
0.3998852166
0.3998772643
0.3998705647
0.3998649365
0.3998602226
0.3998563494
0.3998535637
0.3999941095
0.3999889562
0.3999818827
0.399973258
0.3999636011
0.3999534328
0.3999431917
0.3999332042
0.399923688
0.3999147715
0.3999065179
0.39989895
0.3998920873
0.3998860508
0.3998814903
0.3999942781
0.3999902525
0.3999848916
0.3999783197
0.3999707639
0.3999624988
0.3999538035
0.3999449318
0.3999360974
0.3999274707
0.3999191861
0.3999113732
0.3999042811
0.3998988071
0.3999982515
0.3999966376
0.3999941277
0.3999905831
0.3999859593
0.3999803057
0.3999737473
0.3999664592
0.3999586402
0.3999504918
0.3999422037
0.3999339514
0.3999259209
0.3999184415
0.3999125646
0.399996996
0.3999942784
0.3999902527
0.3999848916
0.3999783196
0.3999707635
0.3999624982
0.3999538025
0.3999449304
0.3999360956
0.3999274686
0.3999191836
0.3999113704
0.3999042781
0.3998988038
0.3999941837
0.3999890647
0.3999819445
0.3999731349
0.3999631331
0.3999524773
0.3999416501
0.3999310338
0.3999209003
0.3999114222
0.3999026931
0.3998947524
0.399887624
0.399881421
0.3998767767
0.3999899576
0.3999814213
0.3999703549
0.3999576516
0.3999442417
0.3999308999
0.3999181825
0.3999064366
0.3998958409
0.3998864511
0.3998782421
0.3998711427
0.399865072
0.3998600192
0.3998563624
0.3999867849
0.3999759605
0.3999627264
0.399948292
0.3999336751
0.3999196115
0.3999065708
0.399894808
0.3998844211
0.3998754011
0.3998676724
0.3998611243
0.3998556422
0.3998511729
0.3998479926
0.3999899577
0.3999814214
0.3999703551
0.399957652
0.3999442423
0.3999309007
0.3999181834
0.3999064378
0.3998958421
0.3998864525
0.3998782436
0.3998711443
0.3998650737
0.3998600209
0.3998563642
0.3999941838
0.3999890648
0.3999819447
0.3999731353
0.3999631338
0.3999524782
0.3999416513
0.3999310353
0.3999209021
0.3999114243
0.3999026954
0.399894755
0.3998876267
0.3998814239
0.3998767798
0.399996996
0.3999942784
0.3999902527
0.3999848918
0.39997832
0.3999707641
0.3999624991
0.3999538037
0.399944932
0.3999360976
0.3999274709
0.3999191862
0.3999113733
0.3999042813
0.3998988073
0.3999982515
0.3999966375
0.3999941276
0.3999905831
0.3999859595
0.3999803061
0.399973748
0.3999664602
0.3999586415
0.3999504935
0.3999422059
0.399933954
0.3999259239
0.3999184449
0.3999125684
)
;

boundaryField
{
    top
    {
        type            zeroGradient;
    }
    bottom
    {
        type            zeroGradient;
    }
    side-walls
    {
        type            zeroGradient;
    }
    inlet
    {
        type            zeroGradient;
    }
    outlet
    {
        type            zeroGradient;
    }
    procBoundary1to0
    {
        type            processor;
        value           nonuniform List<scalar> 
97
(
0.3999982515
0.3999982515
0.399996996
0.3999941838
0.3999899579
0.3999867853
0.399989958
0.399994184
0.3999969961
0.3999982516
0.3999986023
0.3999941095
0.3999941095
0.3999941095
0.3999866642
0.3999727816
0.3999582827
0.3999727822
0.3999866648
0.39999411
0.3999969961
0.3999973291
0.3999940312
0.399963637
0.399963637
0.399963637
0.3999076962
0.399819029
0.3999076995
0.3999636399
0.3999866648
0.399994184
0.3999954626
0.399988214
0.3999628473
0.3996842443
0.3996842443
0.3996842443
0.399057788
0.3996842646
0.3999076994
0.3999727821
0.399989958
0.399994129
0.399982722
0.3999346534
0.3997442742
0.3939184709
0.3939184709
0.3939184709
0.3990577847
0.3990577847
0.3998190283
0.3999582827
0.3999867853
0.3999954625
0.3999882139
0.3999628469
0.3998890663
0.3997442701
0.3998890681
0.3999076928
0.3999076928
0.3999076928
0.3999727811
0.3999899578
0.3999973291
0.3999940312
0.3999843625
0.3999628468
0.3999346527
0.3999628472
0.3999843627
0.3999866637
0.3999866637
0.3999866637
0.3999941837
0.3999986023
0.3999973027
0.3999940312
0.3999882139
0.3999827219
0.399988214
0.3999940313
0.3999973027
0.3999969959
0.3999969959
0.3999969959
0.3999991784
0.3999986023
0.3999973291
0.3999954625
0.399994129
0.3999954626
0.3999973291
0.3999986023
0.3999991784
)
;
    }
}


// ************************************************************************* //
