/*--------------------------------*- C++ -*----------------------------------*\
| =========                 |                                                 |
| \\      /  F ield         | OpenFOAM: The Open Source CFD Toolbox           |
|  \\    /   O peration     | Version:  4.x                                   |
|   \\  /    A nd           | Web:      www.OpenFOAM.org                      |
|    \\/     M anipulation  |                                                 |
\*---------------------------------------------------------------------------*/
FoamFile
{
    version     2.0;
    format      ascii;
    class       volScalarField;
    location    "6000";
    object      CO2;
}
// * * * * * * * * * * * * * * * * * * * * * * * * * * * * * * * * * * * * * //

dimensions      [0 0 0 0 0 0 0];

internalField   nonuniform List<scalar> 
1174
(
4.302903204e-06
7.514141811e-06
1.204924273e-05
1.796504804e-05
2.519852777e-05
3.358976156e-05
4.291491161e-05
5.291948429e-05
6.334574336e-05
7.395086307e-05
8.451063257e-05
9.478670165e-05
0.0001043579079
0.0001118786116
7.321391775e-06
1.247183588e-05
1.933081631e-05
2.773920745e-05
3.740684801e-05
4.798206792e-05
5.910810252e-05
7.046023066e-05
8.176481239e-05
9.28039322e-05
0.0001034056895
0.0001134040929
0.00012248024
0.000129485998
1.399165033e-05
2.310104968e-05
3.43719528e-05
4.716824948e-05
6.080173681e-05
7.465470123e-05
8.823824506e-05
0.0001012044625
0.000113332515
0.000124502613
0.0001346641416
0.0001437867873
0.0001517253524
0.0001576694054
2.377005595e-05
3.79279533e-05
5.418018757e-05
7.133688661e-05
8.840685735e-05
0.0001046785065
0.0001197075079
0.0001332654743
0.0001452808626
0.0001557858116
0.0001648713857
0.0001726410225
0.0001791083042
0.0001837891542
3.075580645e-05
4.768685803e-05
6.615393904e-05
8.48550203e-05
0.0001028486415
0.0001195340968
0.0001345849256
0.000147875865
0.0001594182902
0.0001693088784
0.0001776891832
0.0001847059005
0.0001904266621
0.0001944979716
2.376980597e-05
3.792758228e-05
5.417968094e-05
7.133620912e-05
8.840598524e-05
0.0001046774235
0.0001197062042
0.0001332639525
0.0001452791228
0.0001557838455
0.0001648692293
0.0001726386825
0.0001791057978
0.0001837864834
1.39913239e-05
2.310061262e-05
3.437137449e-05
4.716746894e-05
6.08006954e-05
7.465333464e-05
8.823650005e-05
0.0001012023312
0.0001133299808
0.0001244996879
0.0001346608185
0.0001437831164
0.000151721313
0.0001576650261
7.321078173e-06
1.247146219e-05
1.933033656e-05
2.773855979e-05
3.740596073e-05
4.798084775e-05
5.910648701e-05
7.045815464e-05
8.176224886e-05
9.28008422e-05
0.0001034020757
0.0001133999446
0.0001224755886
0.0001294808873
4.302675011e-06
7.513902596e-06
1.204894476e-05
1.796462713e-05
2.519790517e-05
3.358884501e-05
4.291361959e-05
5.291772531e-05
6.334344841e-05
7.394797937e-05
8.450713234e-05
9.478254012e-05
0.0001043530802
0.0001118731093
3.844179588e-06
7.321156677e-06
1.247160929e-05
1.933058446e-05
2.773896775e-05
3.740660428e-05
4.798181815e-05
5.910784898e-05
7.045996832e-05
8.176455917e-05
9.280367641e-05
0.0001034054459
0.0001134038502
0.0001224799881
0.0001294857686
1.413045515e-05
2.31800142e-05
3.421445142e-05
4.656991983e-05
5.957995346e-05
7.268345297e-05
8.546292609e-05
9.76397596e-05
0.0001090496006
0.0001196116778
0.0001292966357
0.0001380793798
0.0001458052311
0.0001516420979
3.126983268e-05
4.886322882e-05
6.798341039e-05
8.701101242e-05
0.0001048372903
0.0001208584244
0.0001348558559
0.0001468596469
0.0001570363404
0.0001656104614
0.0001728141178
0.000178847917
0.0001838062242
0.0001873725902
6.174699763e-05
9.101350769e-05
0.0001188364806
0.0001431339995
0.0001631808117
0.0001790750404
0.0001913134817
0.0002005241118
0.0002073230115
0.0002122510119
0.0002157549037
0.000218189635
0.0002198237091
0.0002208010584
9.051813352e-05
0.00012573904
0.0001555706309
0.0001792301827
0.0001971888997
0.0002103626623
0.0002197252889
0.0002261500918
0.0002303617315
0.0002329365999
0.0002343230034
0.0002348690504
0.0002348627894
0.0002346108949
6.174584659e-05
9.1012108e-05
0.0001188348201
0.0001431320823
0.0001631786207
0.000179072582
0.0001913108158
0.0002005212434
0.0002073199369
0.000212247829
0.0002157516028
0.0002181862378
0.0002198202187
0.0002207974754
3.12687196e-05
4.886201055e-05
6.7981962e-05
8.700921534e-05
0.0001048350601
0.0001208556971
0.0001348526259
0.0001468559424
0.0001570321774
0.0001656059091
0.0001728092345
0.0001788427146
0.0001838007515
0.0001873668265
1.412979334e-05
2.317938948e-05
3.421369029e-05
4.656885618e-05
5.957847435e-05
7.268145372e-05
8.546034346e-05
9.763657927e-05
0.0001090457842
0.0001196072588
0.0001292916613
0.0001380738752
0.0001457992085
0.0001516355997
7.321092504e-06
1.247144946e-05
1.933026616e-05
2.773839604e-05
3.740566267e-05
4.798039561e-05
5.910585093e-05
7.045733429e-05
8.176121264e-05
9.279959108e-05
0.0001034006218
0.0001133982896
0.0001224737054
0.0001294787464
7.441920622e-06
1.399109736e-05
2.31004602e-05
3.43713377e-05
4.716761791e-05
6.080110251e-05
7.46540635e-05
8.823759445e-05
0.0001012038203
0.0001133318728
0.0001245019825
0.0001346635239
0.0001437861815
0.0001517247639
0.0001576688306
1.706276269e-05
3.126911553e-05
4.886262587e-05
6.798287425e-05
8.701051153e-05
0.0001048368131
0.0001208579688
0.0001348554024
0.0001468592019
0.0001570358917
0.0001656100211
0.0001728137018
0.0001788475019
0.0001838058479
0.0001873722078
8.192756356e-05
0.0001190621888
0.0001526802734
0.0001802373601
0.0002012106867
0.0002162079991
0.0002262984486
0.000232617768
0.000236178096
0.0002378021488
0.0002381229558
0.0002376162699
0.00023666337
0.000235702115
0.0001946616671
0.0002574034422
0.0003006645982
0.0003261956497
0.000338185007
0.0003408545867
0.0003376110546
0.0003309223623
0.0003224624172
0.0003133131829
0.0003041502073
0.000295406809
0.0002874951516
0.0002814345014
0.0003423946591
0.0004048367798
0.0004316310245
0.0004363315331
0.0004286228654
0.0004146038037
0.0003978891773
0.0003805358004
0.0003636653019
0.0003478518346
0.0003333616429
0.0003203261403
0.0003089873098
0.0003005062772
0.0001946563848
0.0002573982603
0.0003006593925
0.000326190345
0.0003381795478
0.0003408490908
0.0003376055278
0.0003309168895
0.0003224570332
0.0003133079019
0.0003041450322
0.0002954017455
0.0002874901836
0.0002814295431
8.192391638e-05
0.000119058925
0.0001526766289
0.0001802330118
0.0002012055662
0.0002162021589
0.0002262920094
0.0002326108639
0.000236170824
0.0002377946674
0.0002381152985
0.000237608477
0.0002366554882
0.000235694064
3.126870538e-05
4.8861774e-05
6.798141202e-05
8.700827069e-05
0.0001048337054
0.0001208539521
0.0001348505228
0.000146853502
0.0001570294657
0.0001656029571
0.0001728060836
0.0001788394002
0.0001837972987
0.0001873632397
1.399132533e-05
2.310046071e-05
3.43709477e-05
4.716665403e-05
6.079940946e-05
7.465153935e-05
8.823415692e-05
0.0001011994421
0.0001133265566
0.0001244957703
0.0001346564377
0.000143778304
0.0001517161309
0.0001576594181
1.284826966e-05
2.376901119e-05
3.792674472e-05
5.417886441e-05
7.133547843e-05
8.840540313e-05
0.0001046770481
0.0001197060443
0.0001332640301
0.000145279463
0.0001557844397
0.0001648700852
0.0001726397445
0.0001791070792
0.0001837879724
3.48222467e-05
6.17449851e-05
9.101145711e-05
0.0001188344606
0.0001431320598
0.0001631789516
0.000179073292
0.0001913118347
0.0002005225734
0.0002073215491
0.0002122496749
0.0002157536495
0.0002181884425
0.0002198226064
0.0002207999738
0.0001180873087
0.0001946578489
0.0002574003865
0.0003006621162
0.0003261936135
0.0003381833006
0.0003408531418
0.0003376097976
0.0003309213014
0.000322461464
0.0003133123561
0.0003041494624
0.0002954061306
0.0002874945703
0.0002814339193
0.0005813334239
0.0006604183812
0.0006735499056
0.0006509264154
0.0006123298608
0.0005689311872
0.0005263969153
0.0004872558258
0.0004523800126
0.0004218304615
0.0003953206144
0.000372501234
0.000353327893
0.0003393210265
0.001340525477
0.001241699974
0.001089559851
0.0009435893958
0.0008195073804
0.0007182613953
0.000636578923
0.0005705923049
0.0005169265029
0.0004729058441
0.0004364974209
0.0004062461953
0.0003814682832
0.0003636585625
0.0005813159038
0.0006604057
0.0006735384462
0.0006509153759
0.0006123193202
0.0005689213063
0.00052638762
0.0004872471106
0.0004523718552
0.0004218227873
0.0003953133471
0.0003724943835
0.000353321336
0.0003393146435
0.0001946566004
0.0002573966014
0.0003006559757
0.0003261855326
0.0003381738113
0.0003408428364
0.0003375989784
0.0003309102345
0.0003224504007
0.0003133013874
0.0003041386205
0.0002953954923
0.0002874840851
0.0002814235335
6.174599035e-05
9.101130132e-05
0.0001188327738
0.000143128716
0.0001631740468
0.0001790669753
0.0001913043557
0.000200514101
0.0002073123111
0.0002122398236
0.0002157432922
0.0002181777367
0.0002198115531
0.0002207886294
2.376986644e-05
3.792720532e-05
5.417859471e-05
7.133420513e-05
8.840293908e-05
0.0001046733028
0.0001197010085
0.0001332577575
0.0001452720452
0.0001557759705
0.0001648606623
0.0001726295111
0.0001790960635
0.0001837761873
1.690697369e-05
3.075457814e-05
4.768538695e-05
6.615228223e-05
8.485323231e-05
0.0001028467614
0.0001195321415
0.0001345829706
0.0001478739321
0.0001594163867
0.0001693070014
0.0001776873882
0.0001847041368
0.0001904249767
0.0001944963268
5.336974972e-05
9.051545273e-05
0.0001257361141
0.0001555676748
0.0001792272757
0.0001971861243
0.0002103600302
0.0002197228299
0.0002261477962
0.0002303595507
0.0002329345965
0.0002343211117
0.000234867282
0.0002348611366
0.0002346092828
0.0002315092934
0.0003423890247
0.0004048312727
0.0004316261724
0.0004363273239
0.0004286193068
0.0004146007443
0.0003978865034
0.0003805334828
0.000363663221
0.0003478499431
0.0003333599772
0.0003203246718
0.0003089859063
0.000300504943
0.001205302904
0.001340508038
0.001241689078
0.001089552697
0.0009435841976
0.0008195036762
0.0007182585252
0.0006365766367
0.0005705903867
0.0005169248791
0.0004729044967
0.0004364962267
0.0004062452167
0.000381467388
0.0003636577155
0.00461104552
0.002948774786
0.002027588109
0.001488001705
0.001153665164
0.000934905277
0.0007843864943
0.0006761223459
0.0005952606589
0.00053296327
0.0004837739838
0.0004442833731
0.0004127300381
0.0003904000644
0.001340525765
0.001241683099
0.00108953864
0.0009435684199
0.0008194882798
0.0007182443898
0.0006365637949
0.0005705787824
0.0005169143173
0.0004728948452
0.0004364872963
0.0004062369013
0.0003814596735
0.0003636502905
0.0003423955786
0.0004048299768
0.0004316190704
0.0004363166467
0.0004286066375
0.0004145871446
0.0003978725993
0.000380519613
0.0003636496308
0.0003478367738
0.0003333472102
0.000320312338
0.0003089739398
0.000300493142
9.051825248e-05
0.0001257366733
0.0001555656408
0.0001792228109
0.0001971795697
0.0002103517994
0.0002197133389
0.000226137312
0.0002303483362
0.0002329228278
0.0002343089886
0.0002348548677
0.0002348485064
0.0002345964254
3.075594165e-05
4.768613783e-05
6.615195633e-05
8.485153147e-05
0.0001028435275
0.000119527371
0.0001345767133
0.0001478662498
0.0001594074475
0.0001692969785
0.0001776763903
0.0001846923319
0.0001904124296
0.000194483002
1.284825326e-05
2.376882754e-05
3.792635367e-05
5.417823831e-05
7.133457773e-05
8.840421655e-05
0.0001046755455
0.0001197042632
0.0001332619672
0.0001452771237
0.0001557818572
0.0001648672695
0.0001726367346
0.0001791038772
0.0001837845943
3.482150353e-05
6.174364322e-05
9.100956952e-05
0.0001188321029
0.0001431292884
0.0001631758092
0.000179069839
0.0001913081532
0.0002005186526
0.0002073174912
0.0002122454845
0.0002157493617
0.0002181841028
0.0002198181985
0.0002207954756
0.000118080052
0.0001946509103
0.0002573927624
0.0003006541755
0.0003261855352
0.0003381751623
0.0003408451912
0.0003376019885
0.0003309137109
0.0003224541134
0.0003133052276
0.0003041425584
0.0002953994759
0.0002874881145
0.0002814275517
0.000403902643
0.0005813016331
0.0006603940899
0.0006735291519
0.0006509080158
0.0006123133366
0.0005689164171
0.0005263836135
0.000487243627
0.0004523688431
0.0004218201354
0.0003953110298
0.0003724923052
0.0003533195139
0.0003393129731
0.001205302857
0.001340504883
0.001241669432
0.001089529099
0.0009435613185
0.0008194829176
0.0007182400719
0.0006365603202
0.0005705759
0.0005169119459
0.0004728928362
0.0004364855231
0.0004062353878
0.0003814583316
0.0003636491201
0.0004039074718
0.0005813007811
0.0006603878806
0.0006735195788
0.0006508968667
0.0006123015964
0.0005689049155
0.0005263725529
0.0004872332625
0.0004523591404
0.0004218111065
0.000395302571
0.0003724843312
0.0003533119489
0.0003393056627
0.0001946612211
0.0002573950942
0.0003006508111
0.0003261782981
0.000338165399
0.000340833891
0.0003375899439
0.0003309012835
0.0003224416391
0.0003132928938
0.0003041304538
0.0002953876143
0.0002874764741
0.0002814160745
6.174752456e-05
9.101142814e-05
0.0001188315002
0.0001431262523
0.0001631706314
0.0001790628081
0.0001912996671
0.0002005090523
0.0002073070023
0.0002122342887
0.0002157377012
0.0002181720803
0.0002198058516
0.0002207828607
2.3770351e-05
3.792738516e-05
5.41782725e-05
7.133329476e-05
8.84014297e-05
0.0001046712022
0.0001196983819
0.0001332546559
0.0001452685199
0.0001557720915
0.0001648565005
0.0001726251118
0.0001790914834
0.0001837713985
7.441741383e-06
1.399065776e-05
2.309971873e-05
3.437025267e-05
4.716613693e-05
6.079918236e-05
7.465168543e-05
8.823473829e-05
0.0001012004764
0.0001133280594
0.0001244977165
0.0001346588279
0.0001437810863
0.000151719288
0.000157663006
1.706148057e-05
3.126739279e-05
4.886035817e-05
6.798005946e-05
8.700711215e-05
0.0001048328285
0.0001208533978
0.0001348502985
0.0001468536046
0.0001570298487
0.0001656035968
0.0001728069697
0.0001788404726
0.0001837985806
0.0001873646748
4.651749522e-05
8.192090535e-05
0.0001190555323
0.0001526730829
0.0001802294413
0.0002012020856
0.0002161988055
0.0002262888321
0.0002326078531
0.0002361679879
0.0002377919467
0.00023811272
0.000237606048
0.0002366531682
0.0002356918336
0.0001180802419
0.000194649812
0.0002573899074
0.0003006496985
0.0003261798581
0.0003381687807
0.0003408383034
0.0003375949079
0.0003309065636
0.0003224470849
0.0003132983441
0.0003041358939
0.0002953929907
0.0002874818126
0.0002814213413
0.000231510001
0.000342384291
0.0004048205386
0.0004316113399
0.000436310294
0.0004286013777
0.000414582711
0.0003978688463
0.0003805164306
0.0003636468601
0.0003478342964
0.0003333449907
0.0003203103412
0.0003089721155
0.000300491465
0.0001180798071
0.0001946482613
0.0002573867619
0.0003006451324
0.0003261741106
0.0003381622806
0.0003408314327
0.0003375878832
0.0003308996059
0.0003224402143
0.0003132916554
0.0003041293272
0.0002953866216
0.0002874755707
0.000281415234
4.651981186e-05
8.192256525e-05
0.0001190553688
0.0001526707529
0.0001802250989
0.0002011960644
0.0002161915127
0.0002262806117
0.0002325990069
0.0002361587057
0.0002377824158
0.0002381030735
0.0002375963312
0.0002366434301
0.0002356820216
3.126980068e-05
4.886154292e-05
6.797981983e-05
8.700533887e-05
0.0001048295114
0.0001208486367
0.0001348442624
0.0001468464651
0.0001570217771
0.0001655947382
0.0001727974449
0.0001788304338
0.0001837880705
0.0001873537558
1.399182758e-05
2.310057705e-05
3.437046102e-05
4.716542072e-05
6.079734152e-05
7.46485927e-05
8.823036296e-05
0.0001011948423
0.0001133212089
0.0001244897321
0.0001346498049
0.0001437711477
0.0001517085003
0.0001576513836
3.843897017e-06
7.320692636e-06
1.247091362e-05
1.932961045e-05
2.773764817e-05
3.740485824e-05
4.797958037e-05
5.910506846e-05
7.045660468e-05
8.176057712e-05
9.279907046e-05
0.0001034002272
0.0001133980235
0.0001224736133
0.0001294789033
7.536437454e-06
1.412908403e-05
2.317843005e-05
3.421249179e-05
4.656743681e-05
5.957686031e-05
7.267967764e-05
8.545844793e-05
9.763459328e-05
0.000109043734
0.00011960515
0.0001292895155
0.0001380717065
0.0001457970312
0.0001516334581
1.706149326e-05
3.126727763e-05
4.885997783e-05
6.797931599e-05
8.700596868e-05
0.0001048312568
0.0001208514431
0.0001348479691
0.0001468509643
0.0001570269562
0.0001656004767
0.0001728036526
0.0001788370119
0.0001837949697
0.0001873609737
3.482161184e-05
6.174310085e-05
9.100795579e-05
0.00011882918
0.0001431250673
0.0001631704495
0.0001790634802
0.0001913009993
0.0002005109071
0.0002073092762
0.0002122369268
0.0002157405696
0.0002181751406
0.0002198091312
0.0002207863214
5.33698102e-05
9.051373708e-05
0.0001257319338
0.0001555609859
0.0001792184131
0.0001971755058
0.0002103480426
0.0002197098714
0.0002261341419
0.0002303454224
0.0002329201415
0.0002343064946
0.0002348525569
0.0002348463439
0.0002345943956
3.482128219e-05
6.17423982e-05
9.100668651e-05
0.000118827276
0.000143122538
0.0001631673548
0.0001790599349
0.0001912970645
0.0002005067132
0.0002073048834
0.0002122323928
0.0002157359134
0.0002181704362
0.0002198043723
0.000220781447
1.706158862e-05
3.12672138e-05
4.885937476e-05
6.797789344e-05
8.700361077e-05
0.0001048279593
0.0001208472335
0.0001348429722
0.0001468452717
0.0001570206801
0.0001655937366
0.000172796499
0.0001788295748
0.0001837872701
0.0001873530117
7.536899062e-06
1.412955785e-05
2.317859651e-05
3.42120811e-05
4.65662627e-05
5.957479428e-05
7.267666746e-05
8.545448791e-05
9.762969972e-05
0.0001090379667
0.0001195985908
0.0001292822186
0.0001380637697
0.0001457885024
0.0001516244002
7.32135748e-06
1.24713616e-05
1.932968749e-05
2.773717616e-05
3.740367068e-05
4.79775415e-05
5.910208132e-05
7.045261049e-05
8.175555591e-05
9.279302413e-05
0.0001033931882
0.0001133900463
0.0001224647481
0.0001294691502
2.237586419e-06
4.302421944e-06
7.513526918e-06
1.204842332e-05
1.796394399e-05
2.519704881e-05
3.358781627e-05
4.291241656e-05
5.291636432e-05
6.334194393e-05
7.394636168e-05
8.450539507e-05
9.478071179e-05
0.0001043511732
0.0001118711502
3.843908148e-06
7.320690525e-06
1.247087339e-05
1.932950167e-05
2.773743182e-05
3.740450317e-05
4.79790545e-05
5.910435645e-05
7.045569353e-05
8.175946134e-05
9.279774136e-05
0.0001033986912
0.0001133962956
0.0001224716692
0.0001294766735
7.441750283e-06
1.399057049e-05
2.309943296e-05
3.436964997e-05
4.716511894e-05
6.079765788e-05
7.464960631e-05
8.823209802e-05
0.0001011972874
0.0001133243373
0.0001244935068
0.0001346541655
0.0001437760221
0.0001517138528
0.0001576571432
1.284823554e-05
2.376849592e-05
3.792542974e-05
5.417646763e-05
7.133181373e-05
8.840036308e-05
0.0001046706088
0.0001196982721
0.000133255004
0.0001452693074
0.0001557732762
0.0001648580389
0.0001726269655
0.0001790936155
0.0001837737822
1.690695855e-05
3.075394821e-05
4.768369439e-05
6.614919236e-05
8.484856476e-05
0.0001028404795
0.0001195243096
0.0001345736799
0.0001478633346
0.0001594046561
0.0001692943014
0.0001776738295
0.0001846899046
0.0001904101255
0.0001944807922
1.284808653e-05
2.376818394e-05
3.792486651e-05
5.417557959e-05
7.133053895e-05
8.839868775e-05
0.0001046685246
0.0001196957999
0.0001332522008
0.000145266189
0.0001557699019
0.0001648544402
0.0001726231613
0.0001790896606
0.0001837696569
7.441674597e-06
1.399038835e-05
2.309899977e-05
3.43688204e-05
4.716376326e-05
6.079569658e-05
7.464698696e-05
8.822881419e-05
0.0001011933449
0.0001133197823
0.0001244883893
0.0001346485437
0.0001437699525
0.0001517073705
0.0001576503154
3.843949804e-06
7.320730653e-06
1.24707885e-05
1.932914116e-05
2.773664411e-05
3.740315819e-05
4.79770429e-05
5.910160709e-05
7.045216177e-05
8.175512555e-05
9.279262054e-05
0.0001033928008
0.0001133896912
0.0001224643889
0.0001294688003
2.237717629e-06
4.30260025e-06
7.5136543e-06
1.204837524e-05
1.79635752e-05
2.519621172e-05
3.358636664e-05
4.291023954e-05
5.291335142e-05
6.333802386e-05
7.394148354e-05
8.449955604e-05
9.477390244e-05
0.0001043434358
0.0001118625159
)
;

boundaryField
{
    top
    {
        type            zeroGradient;
    }
    bottom
    {
        type            zeroGradient;
    }
    side-walls
    {
        type            zeroGradient;
    }
    inlet
    {
        type            zeroGradient;
    }
    outlet
    {
        type            zeroGradient;
    }
    procBoundary1to0
    {
        type            processor;
        value           nonuniform List<scalar> 
97
(
2.237729668e-06
2.237729668e-06
3.843930821e-06
7.44152269e-06
1.284757564e-05
1.690588807e-05
1.284737588e-05
7.441251284e-06
3.843649687e-06
2.237448345e-06
1.788738441e-06
7.536943351e-06
7.536943351e-06
7.536943351e-06
1.706141428e-05
3.482001599e-05
5.33658035e-05
3.481898626e-05
1.706028096e-05
7.535940536e-06
3.843657305e-06
3.417649479e-06
7.636533282e-06
4.651994994e-05
4.651994994e-05
4.651994994e-05
0.0001180766597
0.0002314872512
0.000118070432
4.651392501e-05
1.706028443e-05
7.441255779e-06
5.805510505e-06
1.507840018e-05
4.752764726e-05
0.00040390848
0.00040390848
0.00040390848
0.00120515481
0.0004038673041
0.0001180706864
3.481913163e-05
1.284742681e-05
7.51149938e-06
2.21038331e-05
8.359278631e-05
0.0003271102227
0.007778383848
0.007778383848
0.007778383848
0.0012051619
0.0012051619
0.0002314890019
5.336606376e-05
1.690601569e-05
5.805589382e-06
1.507859192e-05
4.752897553e-05
0.0001419075863
0.0003271184515
0.0001419032687
0.0001180845456
0.0001180845456
0.0001180845456
3.482124004e-05
1.284788376e-05
3.417689782e-06
7.63670559e-06
2.000564341e-05
4.752917854e-05
8.359407037e-05
4.75282644e-05
2.000515727e-05
1.706257443e-05
1.706257443e-05
1.706257443e-05
7.441798031e-06
1.788774703e-06
3.45147933e-06
7.636720042e-06
1.507867475e-05
2.210401016e-05
1.50784242e-05
7.636553466e-06
3.451409932e-06
3.844155919e-06
3.844155919e-06
3.844155919e-06
1.051644191e-06
1.788780278e-06
3.417697505e-06
5.805591206e-06
7.511526559e-06
5.805499774e-06
3.417621736e-06
1.788748988e-06
1.051635103e-06
)
;
    }
}


// ************************************************************************* //
