/*--------------------------------*- C++ -*----------------------------------*\
| =========                 |                                                 |
| \\      /  F ield         | OpenFOAM: The Open Source CFD Toolbox           |
|  \\    /   O peration     | Version:  4.x                                   |
|   \\  /    A nd           | Web:      www.OpenFOAM.org                      |
|    \\/     M anipulation  |                                                 |
\*---------------------------------------------------------------------------*/
FoamFile
{
    version     2.0;
    format      ascii;
    class       volScalarField;
    location    "6000";
    object      N2;
}
// * * * * * * * * * * * * * * * * * * * * * * * * * * * * * * * * * * * * * //

dimensions      [0 0 0 0 0 0 0];

internalField   nonuniform List<scalar> 
1174
(
0.5999990597
0.5999983585
0.5999973681
0.5999960762
0.5999944965
0.5999926639
0.5999906271
0.5999884419
0.5999861643
0.5999838475
0.5999815405
0.5999792951
0.5999772037
0.5999755602
0.5999984006
0.5999972759
0.5999957782
0.5999939421
0.5999918308
0.5999895212
0.5999870912
0.5999846115
0.5999821421
0.5999797304
0.5999774139
0.5999752291
0.5999732456
0.5999717145
0.5999969442
0.5999949552
0.5999924943
0.5999897001
0.5999867229
0.5999836976
0.5999807308
0.5999778985
0.5999752491
0.5999728085
0.599970588
0.5999685941
0.5999668588
0.5999655594
0.5999948094
0.5999917184
0.59998817
0.5999844238
0.5999806963
0.5999771427
0.5999738602
0.5999708985
0.5999682733
0.5999659778
0.599963992
0.5999622934
0.5999608791
0.5999598554
0.5999932846
0.5999895883
0.5999855563
0.599981473
0.5999775437
0.5999738997
0.5999706123
0.5999677088
0.5999651868
0.5999630253
0.5999611934
0.5999596591
0.5999584079
0.5999575172
0.5999948095
0.5999917186
0.5999881702
0.5999844242
0.5999806967
0.5999771433
0.5999738608
0.5999708993
0.5999682743
0.5999659788
0.5999639931
0.5999622946
0.5999608805
0.5999598569
0.5999969443
0.5999949554
0.5999924946
0.5999897005
0.5999867235
0.5999836983
0.5999807317
0.5999778997
0.5999752504
0.5999728101
0.5999705898
0.5999685961
0.599966861
0.5999655618
0.5999984007
0.5999972761
0.5999957784
0.5999939423
0.5999918312
0.5999895218
0.599987092
0.5999846126
0.5999821434
0.599979732
0.5999774159
0.5999752313
0.5999732481
0.5999717172
0.5999990598
0.5999983586
0.5999973682
0.5999960764
0.5999944968
0.5999926643
0.5999906278
0.5999884427
0.5999861655
0.599983849
0.5999815423
0.5999792974
0.5999772063
0.5999755632
0.59999916
0.5999984007
0.5999972761
0.5999957783
0.5999939422
0.5999918309
0.5999895214
0.5999870913
0.5999846117
0.5999821422
0.5999797305
0.5999774141
0.5999752292
0.5999732457
0.5999717146
0.5999969138
0.599994938
0.5999925287
0.5999898308
0.5999869897
0.599984128
0.5999813368
0.5999786769
0.5999761842
0.5999738764
0.5999717599
0.5999698403
0.5999681515
0.5999668755
0.5999931719
0.5999893311
0.5999851566
0.599981002
0.5999771093
0.5999736103
0.5999705528
0.5999679303
0.5999657065
0.5999638324
0.5999622574
0.5999609377
0.5999598529
0.5999590725
0.5999865192
0.5999801303
0.599974056
0.5999687507
0.5999643729
0.5999609012
0.5999582273
0.5999562142
0.5999547274
0.599953649
0.5999528814
0.5999523472
0.599951988
0.5999517727
0.59998024
0.5999725514
0.5999660384
0.5999608721
0.5999569498
0.5999540717
0.5999520253
0.5999506201
0.5999496979
0.599949133
0.5999488276
0.5999487057
0.5999487045
0.5999487576
0.5999865197
0.5999801309
0.5999740567
0.5999687516
0.599964374
0.5999609024
0.5999582287
0.5999562157
0.599954729
0.5999536507
0.5999528832
0.599952349
0.5999519899
0.5999517747
0.5999931724
0.5999893316
0.5999851572
0.5999810028
0.5999771104
0.5999736117
0.5999705545
0.5999679323
0.5999657087
0.5999638348
0.59996226
0.5999609405
0.5999598559
0.5999590757
0.5999969141
0.5999949383
0.599992529
0.5999898313
0.5999869905
0.599984129
0.5999813381
0.5999786785
0.5999761862
0.5999738788
0.5999717626
0.5999698433
0.5999681548
0.5999668791
0.5999984007
0.5999972761
0.5999957784
0.5999939424
0.5999918314
0.5999895221
0.5999870923
0.599984613
0.599982144
0.5999797327
0.5999774167
0.5999752322
0.5999732491
0.5999717184
0.5999983744
0.5999969445
0.5999949556
0.5999924946
0.5999897005
0.5999867233
0.599983698
0.5999807312
0.5999778989
0.5999752494
0.5999728088
0.5999705883
0.5999685945
0.5999668592
0.5999655597
0.5999962737
0.5999931724
0.5999893314
0.5999851569
0.5999810023
0.5999771096
0.5999736106
0.5999705531
0.5999679306
0.5999657068
0.5999638326
0.5999622576
0.5999609379
0.5999598531
0.5999590727
0.5999821133
0.5999740074
0.5999666682
0.5999606514
0.5999560712
0.599952795
0.5999505898
0.5999492076
0.5999484276
0.5999480703
0.5999479975
0.5999481054
0.5999483108
0.5999485188
0.5999575074
0.5999438124
0.5999343679
0.5999287924
0.5999261722
0.5999255861
0.5999262906
0.5999277472
0.5999295906
0.5999315845
0.5999335816
0.5999354873
0.5999372117
0.5999385328
0.5999252685
0.5999116377
0.5999057858
0.5999047555
0.5999064336
0.5999094893
0.5999131336
0.5999169177
0.5999205965
0.5999240449
0.5999272047
0.5999300472
0.5999325197
0.5999343691
0.5999575097
0.5999438146
0.5999343702
0.5999287949
0.5999261749
0.5999255889
0.5999262935
0.5999277501
0.5999295935
0.5999315874
0.5999335845
0.5999354901
0.5999372145
0.5999385356
0.5999821149
0.5999740088
0.5999666698
0.5999606534
0.5999560737
0.599952798
0.5999505932
0.5999492113
0.5999484315
0.5999480744
0.5999480017
0.5999481096
0.5999483152
0.5999485232
0.5999931724
0.5999893317
0.5999851575
0.5999810033
0.5999771111
0.5999736126
0.5999705556
0.5999679336
0.5999657102
0.5999638364
0.5999622617
0.5999609423
0.5999598578
0.5999590776
0.5999969443
0.5999949555
0.5999924947
0.5999897009
0.5999867241
0.5999836992
0.5999807329
0.5999779012
0.5999752522
0.5999728122
0.5999705921
0.5999685988
0.5999668639
0.5999655649
0.5999971941
0.59999481
0.5999917191
0.5999881707
0.5999844245
0.599980697
0.5999771435
0.5999738609
0.5999708992
0.599968274
0.5999659785
0.5999639926
0.599962294
0.5999608798
0.599959856
0.5999923971
0.5999865203
0.5999801313
0.599974057
0.5999687517
0.5999643738
0.5999609021
0.5999582281
0.5999562149
0.5999547281
0.5999536496
0.599952882
0.5999523478
0.5999519885
0.5999517733
0.5999742213
0.5999575095
0.5999438139
0.5999343691
0.5999287934
0.5999261731
0.5999255868
0.5999262913
0.5999277478
0.5999295911
0.599931585
0.599933582
0.5999354877
0.599937212
0.5999385331
0.599873117
0.5998558559
0.5998529855
0.5998579179
0.5998663364
0.5998758036
0.5998850825
0.5998936215
0.5999012299
0.5999078945
0.5999136777
0.5999186557
0.5999228382
0.5999258938
0.599707454
0.5997290102
0.599762202
0.5997940496
0.5998211223
0.5998432128
0.5998610349
0.5998754323
0.5998871413
0.5998967459
0.5999046894
0.5999112894
0.5999166951
0.5999205808
0.5998731248
0.5998558616
0.5998529911
0.5998579235
0.599866342
0.5998758089
0.5998850877
0.5998936263
0.5999012345
0.5999078988
0.5999136818
0.5999186595
0.5999228419
0.5999258974
0.5999575095
0.5999438154
0.5999343719
0.5999287974
0.599926178
0.5999255923
0.5999262971
0.5999277538
0.5999295971
0.599931591
0.599933588
0.5999354936
0.5999372179
0.5999385389
0.5999865195
0.5999801313
0.5999740578
0.5999687534
0.5999643764
0.5999609055
0.5999582322
0.5999562196
0.5999547332
0.5999536551
0.5999528877
0.5999523537
0.5999519947
0.5999517796
0.5999948095
0.5999917187
0.5999881707
0.5999844252
0.5999806983
0.5999771454
0.5999738636
0.5999709026
0.5999682781
0.5999659831
0.5999639978
0.5999622997
0.5999608859
0.5999598626
0.5999963082
0.5999932853
0.599989589
0.5999855572
0.5999814739
0.5999775447
0.5999739007
0.5999706133
0.5999677098
0.5999651878
0.5999630263
0.5999611944
0.5999596601
0.5999584087
0.599957518
0.5999883493
0.5999802414
0.5999725528
0.5999660399
0.5999608736
0.5999569512
0.599954073
0.5999520265
0.5999506212
0.599949699
0.5999491341
0.5999488286
0.5999487066
0.5999487053
0.5999487584
0.5999494713
0.5999252718
0.5999116407
0.5999057883
0.5999047577
0.5999064355
0.599909491
0.5999131351
0.5999169189
0.5999205977
0.599924046
0.5999272056
0.599930048
0.5999325204
0.5999343698
0.5997369714
0.5997074635
0.5997290161
0.5997622059
0.5997940524
0.5998211243
0.5998432144
0.5998610361
0.5998754333
0.5998871422
0.5998967466
0.59990469
0.5999112899
0.5999166956
0.5999205812
0.5989938133
0.5993565151
0.5995575148
0.5996752509
0.5997482022
0.5997959352
0.5998287781
0.5998524011
0.5998700448
0.5998836378
0.5998943705
0.5999029868
0.5999098713
0.5999147435
0.5997074536
0.5997290182
0.5997622129
0.5997940608
0.5998211327
0.5998432222
0.5998610433
0.5998754398
0.5998871481
0.599896752
0.599904695
0.5999112946
0.5999166999
0.5999205854
0.5999252678
0.599911641
0.599905792
0.5999047634
0.5999064424
0.5999094984
0.5999131428
0.5999169266
0.5999206052
0.5999240533
0.5999272128
0.5999300549
0.5999325271
0.5999343764
0.5999802397
0.5999725524
0.5999660409
0.5999608759
0.5999569547
0.5999540775
0.5999520318
0.599950627
0.5999497053
0.5999491406
0.5999488353
0.5999487135
0.5999487124
0.5999487656
0.5999932844
0.5999895886
0.5999855573
0.5999814748
0.5999775464
0.5999739033
0.5999706167
0.599967714
0.5999651928
0.5999630319
0.5999612005
0.5999596666
0.5999584157
0.5999575255
0.5999971942
0.5999948101
0.5999917193
0.599988171
0.599984425
0.5999806977
0.5999771443
0.5999738619
0.5999709003
0.5999682753
0.5999659799
0.5999639942
0.5999622957
0.5999608815
0.5999598579
0.5999923975
0.5999865209
0.5999801322
0.5999740582
0.5999687531
0.5999643754
0.5999609039
0.5999582301
0.599956217
0.5999547303
0.5999536519
0.5999528843
0.5999523502
0.5999519909
0.5999517758
0.5999742249
0.5999575128
0.5999438176
0.599934373
0.5999287975
0.5999261773
0.599925591
0.5999262954
0.5999277518
0.599929595
0.5999315888
0.5999335858
0.5999354913
0.5999372156
0.5999385366
0.5999118484
0.599873133
0.599855868
0.5998529961
0.5998579274
0.5998663452
0.5998758115
0.5998850898
0.5998936282
0.5999012361
0.5999079002
0.599913683
0.5999186606
0.5999228428
0.5999258983
0.5997369729
0.5997074658
0.5997290259
0.599762218
0.5997940644
0.5998211353
0.5998432242
0.5998610449
0.5998754411
0.5998871492
0.5998967529
0.5999046958
0.5999112953
0.5999167006
0.599920586
0.5999118458
0.599873133
0.5998558711
0.5998530012
0.5998579336
0.5998663517
0.5998758179
0.599885096
0.599893634
0.5999012416
0.5999079053
0.5999136878
0.5999186651
0.5999228471
0.5999259024
0.5999575075
0.5999438164
0.599934375
0.5999288016
0.5999261827
0.5999255973
0.5999263022
0.5999277588
0.5999296021
0.5999315958
0.5999335926
0.599935498
0.5999372221
0.5999385431
0.5999865188
0.5999801313
0.5999740585
0.5999687548
0.5999643784
0.5999609078
0.5999582348
0.5999562224
0.5999547362
0.5999536582
0.5999528909
0.5999523569
0.5999519979
0.5999517828
0.5999948092
0.5999917187
0.599988171
0.5999844257
0.5999806992
0.5999771467
0.5999738651
0.5999709044
0.5999682801
0.5999659853
0.5999640002
0.5999623022
0.5999608884
0.5999598653
0.5999983745
0.5999969447
0.5999949559
0.5999924952
0.5999897012
0.5999867243
0.5999836992
0.5999807327
0.5999779007
0.5999752514
0.5999728111
0.5999705908
0.5999685972
0.5999668621
0.5999655629
0.5999962743
0.5999931732
0.5999893325
0.5999851583
0.599981004
0.5999771116
0.5999736129
0.5999705557
0.5999679335
0.59996571
0.5999638361
0.5999622612
0.5999609417
0.5999598571
0.5999590768
0.5999898443
0.5999821166
0.5999740107
0.5999666718
0.5999606554
0.5999560756
0.5999527999
0.5999505949
0.5999492129
0.5999484331
0.5999480759
0.5999480031
0.599948111
0.5999483164
0.5999485244
0.5999742248
0.5999575134
0.5999438191
0.5999343755
0.5999288006
0.5999261808
0.5999255948
0.5999262993
0.5999277558
0.5999295989
0.5999315926
0.5999335895
0.5999354949
0.5999372191
0.5999385401
0.5999494711
0.5999252743
0.5999116464
0.5999057963
0.599904767
0.5999064454
0.5999095009
0.5999131448
0.5999169283
0.5999206067
0.5999240546
0.599927214
0.599930056
0.5999325281
0.5999343773
0.599974225
0.5999575142
0.5999438208
0.599934378
0.5999288038
0.5999261844
0.5999255986
0.5999263033
0.5999277597
0.5999296028
0.5999315964
0.5999335932
0.5999354985
0.5999372226
0.5999385435
0.599989843
0.5999821158
0.5999740108
0.5999666731
0.5999606579
0.599956079
0.599952804
0.5999505995
0.5999492179
0.5999484383
0.5999480812
0.5999480085
0.5999481164
0.5999483219
0.5999485299
0.5999931719
0.5999893319
0.5999851585
0.599981005
0.5999771135
0.5999736156
0.5999705591
0.5999679375
0.5999657145
0.5999638411
0.5999622666
0.5999609474
0.5999598629
0.5999590829
0.5999969441
0.5999949555
0.599992495
0.5999897016
0.5999867253
0.5999837009
0.5999807351
0.5999779038
0.5999752552
0.5999728156
0.5999705959
0.5999686028
0.5999668682
0.5999655694
0.5999991601
0.5999984009
0.5999972764
0.5999957788
0.5999939428
0.5999918318
0.5999895225
0.5999870928
0.5999846134
0.5999821443
0.5999797329
0.5999774169
0.5999752324
0.5999732492
0.5999717183
0.5999983538
0.5999969145
0.5999949388
0.5999925297
0.5999898321
0.5999869913
0.59998413
0.5999813391
0.5999786796
0.5999761873
0.5999738799
0.5999717638
0.5999698445
0.599968156
0.5999668802
0.5999962743
0.5999931732
0.5999893327
0.5999851587
0.5999810046
0.5999771124
0.599973614
0.599970557
0.599967935
0.5999657116
0.5999638378
0.5999622631
0.5999609436
0.599959859
0.5999590789
0.5999923974
0.5999865212
0.5999801331
0.5999740597
0.5999687554
0.5999643784
0.5999609074
0.599958234
0.5999562213
0.5999547348
0.5999536566
0.5999528892
0.5999523551
0.599951996
0.5999517808
0.5999883492
0.5999802422
0.5999725551
0.5999660435
0.5999608784
0.599956957
0.5999540795
0.5999520336
0.5999506288
0.5999497068
0.5999491421
0.5999488367
0.5999487148
0.5999487136
0.5999487667
0.5999923976
0.5999865215
0.5999801338
0.5999740608
0.5999687568
0.5999643801
0.5999609094
0.5999582362
0.5999562237
0.5999547373
0.5999536592
0.5999528918
0.5999523578
0.5999519986
0.5999517836
0.5999962742
0.5999931732
0.599989333
0.5999851594
0.5999810059
0.5999771142
0.5999736163
0.5999705598
0.5999679381
0.599965715
0.5999638416
0.599962267
0.5999609478
0.5999598633
0.5999590833
0.5999983536
0.5999969142
0.5999949387
0.5999925299
0.5999898327
0.5999869924
0.5999841316
0.5999813413
0.5999786823
0.5999761905
0.5999738835
0.5999717678
0.5999698489
0.5999681607
0.5999668853
0.5999984006
0.5999972762
0.5999957788
0.5999939431
0.5999918325
0.5999895236
0.5999870944
0.5999846156
0.5999821471
0.5999797363
0.5999774208
0.5999752368
0.5999732541
0.5999717238
0.5999995109
0.59999906
0.5999983588
0.5999973685
0.5999960768
0.5999944972
0.5999926648
0.5999906284
0.5999884435
0.5999861663
0.5999838499
0.5999815432
0.5999792983
0.5999772073
0.5999755642
0.5999991601
0.5999984009
0.5999972764
0.5999957789
0.599993943
0.599991832
0.5999895228
0.5999870931
0.5999846139
0.5999821449
0.5999797337
0.5999774177
0.5999752333
0.5999732503
0.5999717196
0.5999983745
0.5999969447
0.5999949561
0.5999924955
0.5999897017
0.5999867251
0.5999837003
0.5999807341
0.5999779024
0.5999752535
0.5999728134
0.5999705934
0.5999686
0.5999668651
0.5999655661
0.5999971941
0.5999948102
0.5999917197
0.5999881719
0.5999844265
0.5999806997
0.5999771469
0.5999738651
0.5999709041
0.5999682796
0.5999659846
0.5999639992
0.599962301
0.5999608872
0.5999598638
0.5999963082
0.5999932855
0.5999895899
0.5999855588
0.5999814764
0.599977548
0.5999739049
0.5999706183
0.5999677156
0.5999651942
0.5999630333
0.5999612018
0.5999596679
0.5999584169
0.5999575267
0.5999971942
0.5999948104
0.59999172
0.5999881724
0.5999844272
0.5999807006
0.5999771481
0.5999738664
0.5999709057
0.5999682813
0.5999659865
0.5999640012
0.5999623032
0.5999608894
0.5999598662
0.5999983745
0.5999969448
0.5999949563
0.5999924959
0.5999897025
0.5999867261
0.5999837017
0.5999807359
0.5999779046
0.599975256
0.5999728163
0.5999705965
0.5999686034
0.5999668687
0.5999655699
0.5999991601
0.5999984009
0.5999972765
0.599995779
0.5999939434
0.5999918327
0.5999895239
0.5999870946
0.5999846159
0.5999821473
0.5999797365
0.599977421
0.599975237
0.5999732543
0.5999717239
0.5999995108
0.5999990599
0.5999983587
0.5999973686
0.599996077
0.5999944977
0.5999926656
0.5999906296
0.5999884451
0.5999861685
0.5999838526
0.5999815465
0.5999793022
0.5999772116
0.5999755691
)
;

boundaryField
{
    top
    {
        type            zeroGradient;
    }
    bottom
    {
        type            zeroGradient;
    }
    side-walls
    {
        type            zeroGradient;
    }
    inlet
    {
        type            zeroGradient;
    }
    outlet
    {
        type            zeroGradient;
    }
    procBoundary1to0
    {
        type            processor;
        value           nonuniform List<scalar> 
97
(
0.5999995108
0.5999995108
0.5999991601
0.5999983746
0.5999971945
0.5999963088
0.5999971946
0.5999983748
0.5999991602
0.5999995109
0.599999609
0.5999983536
0.5999983536
0.5999983536
0.5999962744
0.5999923984
0.5999883515
0.5999923988
0.599996275
0.5999983541
0.5999991602
0.5999992533
0.5999983322
0.5999898431
0.5999898431
0.5999898431
0.5999742271
0.5999494837
0.5999742301
0.5999898461
0.5999962749
0.5999983748
0.5999987319
0.5999967076
0.599989625
0.5999118473
0.5999118473
0.5999118473
0.5997370572
0.5999118681
0.5999742299
0.5999923988
0.5999971946
0.5999983595
0.5999951741
0.5999817538
0.5999286156
0.5983031452
0.5983031452
0.5983031452
0.5997370534
0.5997370534
0.5999494827
0.5999883513
0.5999963087
0.5999987319
0.5999967075
0.5999896242
0.5999690261
0.5999286114
0.5999690286
0.5999742227
0.5999742227
0.5999742227
0.5999923977
0.5999971943
0.5999992532
0.5999983321
0.5999956318
0.5999896241
0.5999817532
0.5999896246
0.5999956321
0.5999962738
0.5999962738
0.5999962738
0.5999983745
0.5999996089
0.5999992459
0.5999983321
0.5999967075
0.599995174
0.5999967076
0.5999983322
0.5999992459
0.59999916
0.59999916
0.59999916
0.5999997699
0.5999996089
0.5999992532
0.5999987319
0.5999983595
0.5999987319
0.5999992533
0.599999609
0.5999997699
)
;
    }
}


// ************************************************************************* //
