/*--------------------------------*- C++ -*----------------------------------*\
| =========                 |                                                 |
| \\      /  F ield         | OpenFOAM: The Open Source CFD Toolbox           |
|  \\    /   O peration     | Version:  4.x                                   |
|   \\  /    A nd           | Web:      www.OpenFOAM.org                      |
|    \\/     M anipulation  |                                                 |
\*---------------------------------------------------------------------------*/
FoamFile
{
    version     2.0;
    format      ascii;
    class       volScalarField;
    location    "6000";
    object      rhoeps;
}
// * * * * * * * * * * * * * * * * * * * * * * * * * * * * * * * * * * * * * //

dimensions      [1 -3 0 0 0 0 0];

internalField   nonuniform List<scalar> 
1174
(
0.2790918811
0.2790922251
0.2790926802
0.2790932554
0.2790939644
0.2790948374
0.2790957717
0.2790968028
0.2790979006
0.279098959
0.2791000131
0.2791010944
0.2791020521
0.2791027985
0.2790913563
0.2790918361
0.2790925712
0.2790934324
0.2790944086
0.2790954931
0.2790965829
0.2790977478
0.2790988703
0.2791000251
0.2791010858
0.2791021348
0.2791030667
0.2791037617
0.2790932463
0.2790941938
0.2790953339
0.279096612
0.2790979708
0.2790993576
0.2791007631
0.2791020367
0.2791032713
0.2791043907
0.2791054402
0.2791063362
0.2791071599
0.279107787
0.2790943633
0.2790958144
0.2790974214
0.2790991879
0.2791009223
0.2791025614
0.27910412
0.2791055003
0.2791066948
0.2791077931
0.2791086939
0.2791094793
0.2791101308
0.2791105967
0.2790953886
0.2790970776
0.2790989023
0.2791007861
0.2791026129
0.2791043376
0.2791058162
0.2791071878
0.2791083597
0.2791093693
0.2791101974
0.279110887
0.2791114501
0.2791118642
0.2790938624
0.2790953166
0.2790969442
0.279098675
0.2791003953
0.2791020636
0.2791036321
0.2791050273
0.2791062312
0.2791072854
0.2791081872
0.2791089735
0.2791096078
0.2791100722
0.2790926823
0.2790935953
0.2790947916
0.2790960839
0.2790974632
0.2790988274
0.2791001686
0.279101475
0.2791027248
0.2791038833
0.2791049191
0.2791058878
0.2791066684
0.2791072671
0.2790926943
0.2790932005
0.2790938654
0.2790947556
0.2790957937
0.2790968619
0.2790979881
0.279099116
0.2791002548
0.2791013744
0.2791024292
0.2791034363
0.2791044024
0.2791051002
0.2790922206
0.279092541
0.2790930065
0.2790935898
0.2790943151
0.2790951731
0.2790961469
0.2790971636
0.2790982434
0.2790992919
0.2791003734
0.2791014277
0.2791023944
0.2791031547
0.2790917038
0.2790920734
0.279092604
0.2790933074
0.2790941701
0.2790951674
0.2790962454
0.2790973703
0.2790984887
0.2790996483
0.2791007922
0.2791018711
0.2791029008
0.2791038013
0.2791045367
0.279094853
0.2790957311
0.2790967934
0.2790980795
0.2790993785
0.2791007066
0.2791020104
0.2791031941
0.2791044166
0.2791054981
0.279106446
0.279107284
0.2791080555
0.279108608
0.2790958342
0.2790976507
0.2790995779
0.2791014961
0.2791032464
0.2791048616
0.2791062891
0.2791074863
0.2791085403
0.2791093923
0.2791100952
0.2791107225
0.2791112261
0.2791116463
0.2790980052
0.2791009316
0.2791037586
0.2791061847
0.2791081956
0.2791098101
0.2791110381
0.2791120126
0.2791127211
0.2791131994
0.2791135689
0.2791138139
0.2791139752
0.2791140792
0.2790989015
0.2791024657
0.2791054356
0.2791078486
0.2791096722
0.2791110117
0.27911197
0.2791126067
0.2791130877
0.2791133208
0.2791134996
0.2791135825
0.2791135703
0.2791135834
0.2790977452
0.2791006961
0.2791034898
0.2791059267
0.2791079264
0.2791095075
0.2791107718
0.2791117308
0.2791123684
0.2791129091
0.2791132647
0.2791135079
0.2791136544
0.2791137516
0.2790948155
0.2790966121
0.2790985035
0.279100473
0.2791023012
0.2791039278
0.2791053564
0.279106561
0.2791075923
0.2791084624
0.2791092047
0.2791097871
0.2791102791
0.2791106486
0.2790925877
0.2790934805
0.279094606
0.2790958442
0.2790972043
0.2790985517
0.2790998197
0.2791010429
0.2791021818
0.2791032746
0.2791042893
0.2791051787
0.2791059558
0.2791065084
0.2790921943
0.2790927436
0.2790934334
0.2790943072
0.2790952742
0.2790963436
0.2790974674
0.279098648
0.2790997742
0.2791008791
0.2791019676
0.2791030182
0.279103924
0.2791046556
0.2790920891
0.2790927679
0.2790936917
0.2790948136
0.2790960879
0.2790974974
0.2790989154
0.2791002921
0.2791016123
0.2791028389
0.2791039496
0.2791049868
0.2791058886
0.2791067048
0.279107333
0.279091922
0.2790933434
0.2790951441
0.2790970991
0.2790990129
0.2791008116
0.2791024781
0.279103916
0.2791051316
0.2791061793
0.279107067
0.2791077954
0.2791083963
0.279108919
0.2791093055
0.2791002386
0.2791039377
0.2791073223
0.2791101097
0.2791122137
0.2791137355
0.2791147472
0.2791154179
0.2791158178
0.2791159785
0.2791160063
0.2791159755
0.2791158584
0.279115787
0.2791105174
0.27911692
0.2791212962
0.2791238481
0.2791251145
0.2791253619
0.2791250793
0.2791243824
0.2791235337
0.2791226091
0.2791217015
0.2791208049
0.2791199882
0.2791193846
0.2791254785
0.2791318121
0.2791345016
0.2791350102
0.2791342122
0.2791327903
0.279131086
0.2791293183
0.2791276388
0.2791260784
0.2791245635
0.2791231914
0.2791220934
0.2791212392
0.2791120475
0.2791184196
0.279122803
0.2791253944
0.2791265896
0.2791268463
0.2791265061
0.2791258203
0.2791249866
0.2791240462
0.2791231115
0.2791222084
0.2791213938
0.2791208019
0.2790997712
0.2791035178
0.2791068971
0.2791096988
0.2791118292
0.2791133338
0.2791143356
0.2791149881
0.2791153376
0.2791155515
0.279115578
0.2791155262
0.2791154082
0.2791152881
0.2790957468
0.2790975259
0.2790994859
0.2791014273
0.2791032442
0.2791048623
0.2791063198
0.2791075078
0.2791085501
0.2791094281
0.279110182
0.2791107955
0.2791112826
0.2791116299
0.2790934414
0.2790943596
0.279095491
0.2790967264
0.2790981135
0.2790995432
0.2791008889
0.2791022147
0.2791034406
0.2791046036
0.2791056113
0.2791065286
0.2791073603
0.2791079549
0.2790936772
0.2790948058
0.2790962645
0.2790979044
0.2790996333
0.2791013448
0.2791030143
0.2791045561
0.2791059439
0.279107192
0.2791082787
0.2791092281
0.2791099808
0.2791106289
0.2791111117
0.2790956807
0.2790983654
0.2791013468
0.2791041995
0.2791066785
0.2791087027
0.2791103615
0.2791115932
0.2791125406
0.2791132039
0.2791137112
0.2791140698
0.2791143087
0.2791145283
0.2791146076
0.2791041511
0.2791118983
0.2791182753
0.279122676
0.2791252603
0.2791264964
0.2791267077
0.2791263901
0.2791257195
0.2791248602
0.2791239673
0.2791230469
0.2791221507
0.2791213834
0.2791207504
0.279149259
0.2791572528
0.2791586054
0.2791563389
0.2791524452
0.2791479711
0.2791436573
0.2791397153
0.2791362088
0.2791331215
0.2791304573
0.2791281648
0.2791262307
0.2791247794
0.2792292171
0.2792192082
0.2792037585
0.2791890074
0.2791764042
0.279166159
0.279157895
0.2791512447
0.2791458104
0.2791413186
0.2791376405
0.2791345098
0.2791319908
0.2791302156
0.2791512697
0.2791592867
0.2791606069
0.279158273
0.2791543835
0.2791499793
0.2791456435
0.279141714
0.2791382017
0.2791350888
0.2791323801
0.2791300832
0.2791281033
0.2791266484
0.2791121014
0.2791184366
0.2791228343
0.2791254041
0.2791266234
0.27912694
0.2791266267
0.2791259498
0.2791251203
0.2791242045
0.279123237
0.2791223385
0.2791215172
0.2791209551
0.2790968638
0.2790998147
0.2791026339
0.2791050828
0.2791071166
0.2791087395
0.279110016
0.2791109449
0.2791116508
0.2791121821
0.2791125311
0.2791127829
0.2791129365
0.2791130401
0.2790947627
0.2790961815
0.2790978282
0.2790995738
0.2791012976
0.279102955
0.279104452
0.279105809
0.2791070369
0.279108103
0.2791090125
0.2791098066
0.2791104167
0.2791109089
0.2790932173
0.2790946294
0.2790963669
0.2790982629
0.2791001845
0.2791020149
0.2791036637
0.2791051757
0.2791065555
0.2791077299
0.2791087103
0.279109586
0.279110257
0.279110873
0.279111289
0.2790971021
0.2791008768
0.2791044491
0.2791074927
0.2791098779
0.2791116932
0.2791129847
0.2791139067
0.279114528
0.2791149453
0.2791152384
0.2791153605
0.279115421
0.2791154152
0.2791153613
0.2791145275
0.2791257809
0.2791321154
0.2791348098
0.2791352902
0.2791345302
0.2791331183
0.2791314002
0.2791296449
0.2791279208
0.2791263129
0.2791248413
0.2791235103
0.2791223455
0.2791214922
0.2792155964
0.2792293207
0.2792192867
0.2792038383
0.2791889851
0.2791764039
0.2791661355
0.2791578417
0.2791511418
0.2791457069
0.2791412557
0.2791375798
0.2791345173
0.2791319773
0.2791301949
0.2807816507
0.2806129208
0.2805198866
0.280465835
0.2804327238
0.2804113779
0.2803969588
0.2803867997
0.2803794816
0.2803740187
0.2803699121
0.2803668045
0.2803644923
0.2803631345
0.2792292639
0.2792192689
0.2792038017
0.2791889985
0.2791763902
0.2791661334
0.2791578631
0.2791511902
0.2791457617
0.2791413082
0.2791376149
0.2791345515
0.2791320491
0.2791302052
0.2791257179
0.2791319756
0.2791346807
0.2791351827
0.2791344152
0.2791329992
0.2791312587
0.2791294554
0.2791277299
0.2791261554
0.2791246953
0.2791233905
0.2791222252
0.2791213337
0.2791012366
0.2791047645
0.2791077882
0.2791101935
0.2791120226
0.279113312
0.2791143034
0.2791149346
0.2791153601
0.2791156095
0.2791157575
0.2791157962
0.2791157849
0.2791157605
0.2790950258
0.2790967135
0.2790985586
0.2791004707
0.2791022826
0.2791039837
0.2791055288
0.2791068387
0.2791079876
0.2791089991
0.2791098487
0.2791105521
0.2791111544
0.2791115772
0.279091545
0.2790926526
0.2790941038
0.2790957826
0.2790975014
0.2790992508
0.2791008861
0.2791024635
0.2791038412
0.2791050457
0.2791061319
0.2791070615
0.2791078203
0.2791084701
0.2791089589
0.2790952504
0.2790980033
0.2791009459
0.2791037605
0.2791062367
0.279108208
0.2791098225
0.279111081
0.2791119846
0.2791126802
0.2791131707
0.2791135413
0.2791137883
0.2791139827
0.2791140536
0.2791035342
0.2791112834
0.2791176326
0.2791220203
0.2791245942
0.2791257885
0.2791261061
0.2791257616
0.2791251023
0.2791242593
0.2791233451
0.2791224168
0.2791215649
0.2791208084
0.279120159
0.2791333038
0.2791512956
0.2791593238
0.2791606455
0.2791583443
0.2791544428
0.2791500518
0.2791457921
0.2791418166
0.279138292
0.2791351727
0.279132501
0.2791301917
0.2791282767
0.2791268729
0.2792134627
0.2792272184
0.2792171986
0.2792017755
0.2791869565
0.2791743904
0.2791641107
0.2791558273
0.2791491262
0.2791437012
0.2791392222
0.279135452
0.2791323801
0.2791298849
0.2791281012
0.2791333994
0.2791513504
0.2791594076
0.2791607334
0.2791584517
0.2791544588
0.279150083
0.2791457406
0.2791417604
0.2791382229
0.2791351183
0.2791324393
0.2791301065
0.2791281688
0.2791267418
0.2791112747
0.2791176258
0.2791220382
0.2791246407
0.2791258074
0.279126081
0.2791257938
0.2791250979
0.279124238
0.2791233414
0.2791224149
0.2791215112
0.2791206991
0.2791201184
0.2790975196
0.2791004985
0.2791033565
0.2791058313
0.2791078875
0.2791094513
0.2791107401
0.279111708
0.279112397
0.2791128228
0.2791132176
0.2791134625
0.2791135854
0.2791136682
0.2790942655
0.2790957553
0.2790973839
0.2790991203
0.2791008508
0.2791024939
0.2791040084
0.2791053394
0.2791065566
0.2791076166
0.2791085506
0.2791093702
0.2791100454
0.2791105055
0.2790924364
0.279093123
0.2790940232
0.2790951698
0.2790964555
0.2790978455
0.2790992773
0.2791006291
0.2791019124
0.279103131
0.2791042796
0.2791053264
0.2791062208
0.2791069927
0.279107568
0.2790939179
0.2790953153
0.2790970895
0.2790990136
0.2791008937
0.2791026909
0.2791043059
0.2791057621
0.2791069712
0.2791079903
0.2791088305
0.2791095894
0.2791101604
0.2791106859
0.2791110305
0.2790955958
0.2790991909
0.2791029092
0.2791063463
0.2791091355
0.2791112509
0.2791127642
0.2791137997
0.2791144498
0.2791148358
0.2791149914
0.2791149937
0.2791149499
0.279114824
0.2791147188
0.2791035874
0.2791113697
0.279117713
0.2791220913
0.2791246954
0.2791259698
0.2791262569
0.2791259141
0.2791252173
0.2791243597
0.2791234117
0.279122511
0.2791216173
0.2791208353
0.2791201681
0.279114385
0.2791256442
0.2791320145
0.2791347198
0.2791352018
0.279134435
0.2791329897
0.2791312703
0.2791295228
0.2791278118
0.2791262254
0.2791247393
0.2791234392
0.2791222562
0.2791214029
0.2791037129
0.2791114676
0.2791177988
0.2791222191
0.2791247505
0.2791259909
0.2791262692
0.2791259133
0.2791252647
0.2791244189
0.279123489
0.2791225427
0.2791216659
0.2791208538
0.2791202637
0.2790969284
0.279100491
0.2791042584
0.279107644
0.2791104268
0.2791125313
0.2791140462
0.2791150771
0.2791157739
0.2791161389
0.279116301
0.2791163402
0.2791162869
0.2791161752
0.27911608
0.279094631
0.2790963805
0.2790983511
0.2791002743
0.2791020475
0.2791036273
0.2791050645
0.2791062773
0.2791073293
0.279108218
0.2791089836
0.2791096099
0.2791101486
0.2791105113
0.2790937493
0.27909465
0.2790957955
0.2790970926
0.2790984888
0.2790998814
0.2791012603
0.2791025793
0.2791038201
0.2791049371
0.2791059594
0.2791068677
0.2791076544
0.2791082575
0.2790920836
0.2790924015
0.2790929081
0.2790935955
0.2790944458
0.2790954045
0.2790965047
0.2790976626
0.2790988072
0.2790999359
0.2791010605
0.2791021342
0.2791031249
0.2791040681
0.2791048226
0.2790929096
0.2790935702
0.2790945045
0.2790956627
0.2790968947
0.2790982302
0.2790995388
0.2791008135
0.2791020499
0.2791032493
0.2791043297
0.2791053293
0.2791062383
0.2791070163
0.2791076702
0.2790939489
0.2790954174
0.2790971633
0.2790990983
0.2791010261
0.2791028115
0.2791044774
0.2791058931
0.2791071326
0.2791082023
0.2791090718
0.2791098362
0.2791104342
0.2791109259
0.2791113035
0.2790948136
0.2790975039
0.2791004961
0.2791032844
0.279105741
0.2791077963
0.2791093949
0.2791106543
0.2791115919
0.2791122957
0.2791127845
0.2791131373
0.2791133766
0.279113581
0.2791137037
0.279097688
0.2791014501
0.2791050244
0.2791080774
0.2791105236
0.2791123995
0.2791137036
0.2791146845
0.2791153339
0.2791157707
0.2791160255
0.2791161804
0.2791162272
0.2791162019
0.2791162006
0.2790950768
0.2790978176
0.2791007715
0.2791035762
0.2791060619
0.2791081046
0.2791097159
0.2791109131
0.2791118458
0.279112527
0.2791130248
0.2791133554
0.2791136221
0.2791138355
0.2791139231
0.2790954945
0.2790969077
0.2790987116
0.2791006453
0.2791026307
0.2791044707
0.2791060973
0.2791075388
0.2791087389
0.2791097693
0.2791106495
0.279111362
0.2791119914
0.2791124816
0.2791128486
0.2790944996
0.2790951597
0.2790960769
0.2790972018
0.2790984545
0.2790997583
0.2791010802
0.279102379
0.279103587
0.2791047439
0.279105837
0.2791068186
0.2791077585
0.2791085244
0.2791091384
0.2790929135
0.2790934375
0.27909412
0.2790949844
0.2790959089
0.2790969721
0.2790981002
0.2790992486
0.2791003813
0.2791014987
0.2791025667
0.2791035874
0.2791045527
0.2791052407
0.2790927214
0.2790929157
0.2790932363
0.2790936884
0.2790942999
0.279095013
0.2790958721
0.2790967811
0.279097773
0.2790988422
0.2790999416
0.2791009931
0.2791020416
0.2791029896
0.2791037361
0.2790914497
0.2790918354
0.2790923573
0.2790930688
0.2790938883
0.2790948395
0.2790959164
0.279097084
0.2790982471
0.2790993798
0.2791004904
0.2791015527
0.2791025791
0.2791034843
0.2791041795
0.2790922711
0.2790929336
0.279093895
0.2790950275
0.2790963429
0.2790976911
0.2790990923
0.2791004633
0.2791017685
0.2791029746
0.2791041143
0.2791051347
0.2791060277
0.2791068395
0.2791074254
0.2790935762
0.2790946805
0.2790961132
0.2790977431
0.2790995211
0.2791012586
0.2791029305
0.279104472
0.2791058343
0.2791070482
0.2791080969
0.279109029
0.2791098157
0.2791104484
0.2791108849
0.2790937667
0.2790952019
0.2790969435
0.2790988241
0.2791007098
0.2791025153
0.2791041849
0.2791056849
0.2791070608
0.2791082496
0.2791092443
0.279110077
0.2791107889
0.2791114047
0.2791118305
0.279093932
0.2790950325
0.2790964883
0.2790981493
0.2790998744
0.2791016322
0.2791032868
0.279104811
0.2791061785
0.2791073704
0.2791084259
0.2791093417
0.2791100992
0.2791107674
0.2791111952
0.2790926843
0.2790933206
0.2790942148
0.2790953804
0.2790966811
0.2790980639
0.2790994608
0.2791008409
0.2791021367
0.2791033652
0.2791045307
0.2791055869
0.2791065134
0.2791072992
0.2791079121
0.2790916304
0.2790919809
0.2790924704
0.2790931537
0.2790939816
0.2790949603
0.2790959981
0.2790971524
0.279098299
0.2790994152
0.2791005425
0.2791015859
0.2791026316
0.2791035522
0.2791042589
0.2790921368
0.2790923335
0.2790926343
0.279093086
0.2790936603
0.2790943867
0.2790952395
0.2790962038
0.2790971729
0.27909822
0.2790992711
0.2791003484
0.2791013842
0.2791023773
0.279103148
)
;

boundaryField
{
    top
    {
        type            calculated;
        value           nonuniform List<scalar> 
127
(
0.2790921368
0.2790922206
0.2790921943
0.2790934414
0.2790947627
0.2790950258
0.2790942655
0.2790937493
0.2790929135
0.2790923335
0.279092541
0.2790927436
0.2790943596
0.2790961815
0.2790967135
0.2790957553
0.27909465
0.2790934375
0.2790926343
0.2790930065
0.2790934334
0.279095491
0.2790978282
0.2790985586
0.2790973839
0.2790957955
0.27909412
0.279093086
0.2790935898
0.2790943072
0.2790967264
0.2790995738
0.2791004707
0.2790991203
0.2790970926
0.2790949844
0.2790936603
0.2790943151
0.2790952742
0.2790981135
0.2791012976
0.2791022826
0.2791008508
0.2790984888
0.2790959089
0.2790943867
0.2790951731
0.2790963436
0.2790995432
0.279102955
0.2791039837
0.2791024939
0.2790998814
0.2790969721
0.2790952395
0.2790961469
0.2790974674
0.2791008889
0.279104452
0.2791055288
0.2791040084
0.2791012603
0.2790981002
0.2790962038
0.2790971636
0.279098648
0.2791022147
0.279105809
0.2791068387
0.2791053394
0.2791025793
0.2790992486
0.2790971729
0.2790982434
0.2790997742
0.2791034406
0.2791070369
0.2791079876
0.2791065566
0.2791038201
0.2791003813
0.27909822
0.2790992919
0.2791008791
0.2791046036
0.279108103
0.2791089991
0.2791076166
0.2791049371
0.2791014987
0.2790992711
0.2791003734
0.2791019676
0.2791056113
0.2791090125
0.2791098487
0.2791085506
0.2791059594
0.2791025667
0.2791003484
0.2791014277
0.2791030182
0.2791065286
0.2791098066
0.2791105521
0.2791093702
0.2791068677
0.2791035874
0.2791013842
0.2791023944
0.279103924
0.2791073603
0.2791104167
0.2791111544
0.2791100454
0.2791076544
0.2791045527
0.2791023773
0.2791031547
0.2791046556
0.2791079549
0.2791109089
0.2791115772
0.2791105055
0.2791082575
0.2791052407
0.279103148
)
;
    }
    bottom
    {
        type            calculated;
        value           nonuniform List<scalar> 
134
(
0.2790917038
0.2790920891
0.2790936772
0.2790932173
0.279091545
0.2790924364
0.2790920836
0.2790927214
0.2790918811
0.2790920734
0.2790927679
0.2790948058
0.2790946294
0.2790926526
0.279093123
0.2790924015
0.2790929157
0.2790922251
0.279092604
0.2790936917
0.2790962645
0.2790963669
0.2790941038
0.2790940232
0.2790929081
0.2790932363
0.2790926802
0.2790933074
0.2790948136
0.2790979044
0.2790982629
0.2790957826
0.2790951698
0.2790935955
0.2790936884
0.2790932554
0.2790941701
0.2790960879
0.2790996333
0.2791001845
0.2790975014
0.2790964555
0.2790944458
0.2790942999
0.2790939644
0.2790951674
0.2790974974
0.2791013448
0.2791020149
0.2790992508
0.2790978455
0.2790954045
0.279095013
0.2790948374
0.2790962454
0.2790989154
0.2791030143
0.2791036637
0.2791008861
0.2790992773
0.2790965047
0.2790958721
0.2790957717
0.2790973703
0.2791002921
0.2791045561
0.2791051757
0.2791024635
0.2791006291
0.2790976626
0.2790967811
0.2790968028
0.2790984887
0.2791016123
0.2791059439
0.2791065555
0.2791038412
0.2791019124
0.2790988072
0.279097773
0.2790979006
0.2790996483
0.2791028389
0.279107192
0.2791077299
0.2791050457
0.279103131
0.2790999359
0.2790988422
0.279098959
0.2791007922
0.2791039496
0.2791082787
0.2791087103
0.2791061319
0.2791042796
0.2791010605
0.2790999416
0.2791000131
0.2791018711
0.2791049868
0.2791092281
0.279109586
0.2791070615
0.2791053264
0.2791021342
0.2791009931
0.2791010944
0.2791029008
0.2791058886
0.2791099808
0.279110257
0.2791078203
0.2791062208
0.2791031249
0.2791020416
0.2791020521
0.2791038013
0.2791067048
0.2791106289
0.279110873
0.2791084701
0.2791069927
0.2791040681
0.2791029896
0.2791027985
0.2791045367
0.279107333
0.2791111117
0.279111289
0.2791089589
0.279107568
0.2791048226
0.2791037361
)
;
    }
    side-walls
    {
        type            calculated;
        value           nonuniform List<scalar> 
261
(
0.2790918811
0.2790913563
0.2790932463
0.2790943633
0.2790953886
0.2790938624
0.2790926823
0.2790926943
0.2790922206
0.2790922251
0.2790918361
0.2790941938
0.2790958144
0.2790970776
0.2790953166
0.2790935953
0.2790932005
0.279092541
0.2790926802
0.2790925712
0.2790953339
0.2790974214
0.2790989023
0.2790969442
0.2790947916
0.2790938654
0.2790930065
0.2790932554
0.2790934324
0.279096612
0.2790991879
0.2791007861
0.279098675
0.2790960839
0.2790947556
0.2790935898
0.2790939644
0.2790944086
0.2790979708
0.2791009223
0.2791026129
0.2791003953
0.2790974632
0.2790957937
0.2790943151
0.2790948374
0.2790954931
0.2790993576
0.2791025614
0.2791043376
0.2791020636
0.2790988274
0.2790968619
0.2790951731
0.2790957717
0.2790965829
0.2791007631
0.27910412
0.2791058162
0.2791036321
0.2791001686
0.2790979881
0.2790961469
0.2790968028
0.2790977478
0.2791020367
0.2791055003
0.2791071878
0.2791050273
0.279101475
0.279099116
0.2790971636
0.2790979006
0.2790988703
0.2791032713
0.2791066948
0.2791083597
0.2791062312
0.2791027248
0.2791002548
0.2790982434
0.279098959
0.2791000251
0.2791043907
0.2791077931
0.2791093693
0.2791072854
0.2791038833
0.2791013744
0.2790992919
0.2791000131
0.2791010858
0.2791054402
0.2791086939
0.2791101974
0.2791081872
0.2791049191
0.2791024292
0.2791003734
0.2791010944
0.2791021348
0.2791063362
0.2791094793
0.279110887
0.2791089735
0.2791058878
0.2791034363
0.2791014277
0.2791020521
0.2791030667
0.2791071599
0.2791101308
0.2791114501
0.2791096078
0.2791066684
0.2791044024
0.2791023944
0.2791027985
0.2791037617
0.279107787
0.2791105967
0.2791118642
0.2791100722
0.2791072671
0.2791051002
0.2791031547
0.2790927214
0.2790914497
0.2790922711
0.2790935762
0.2790937667
0.279093932
0.2790926843
0.2790916304
0.2790921368
0.2790929157
0.2790918354
0.2790929336
0.2790946805
0.2790952019
0.2790950325
0.2790933206
0.2790919809
0.2790923335
0.2790932363
0.2790923573
0.279093895
0.2790961132
0.2790969435
0.2790964883
0.2790942148
0.2790924704
0.2790926343
0.2790936884
0.2790930688
0.2790950275
0.2790977431
0.2790988241
0.2790981493
0.2790953804
0.2790931537
0.279093086
0.2790942999
0.2790938883
0.2790963429
0.2790995211
0.2791007098
0.2790998744
0.2790966811
0.2790939816
0.2790936603
0.279095013
0.2790948395
0.2790976911
0.2791012586
0.2791025153
0.2791016322
0.2790980639
0.2790949603
0.2790943867
0.2790958721
0.2790959164
0.2790990923
0.2791029305
0.2791041849
0.2791032868
0.2790994608
0.2790959981
0.2790952395
0.2790967811
0.279097084
0.2791004633
0.279104472
0.2791056849
0.279104811
0.2791008409
0.2790971524
0.2790962038
0.279097773
0.2790982471
0.2791017685
0.2791058343
0.2791070608
0.2791061785
0.2791021367
0.279098299
0.2790971729
0.2790988422
0.2790993798
0.2791029746
0.2791070482
0.2791082496
0.2791073704
0.2791033652
0.2790994152
0.27909822
0.2790999416
0.2791004904
0.2791041143
0.2791080969
0.2791092443
0.2791084259
0.2791045307
0.2791005425
0.2790992711
0.2791009931
0.2791015527
0.2791051347
0.279109029
0.279110077
0.2791093417
0.2791055869
0.2791015859
0.2791003484
0.2791020416
0.2791025791
0.2791060277
0.2791098157
0.2791107889
0.2791100992
0.2791065134
0.2791026316
0.2791013842
0.2791029896
0.2791034843
0.2791068395
0.2791104484
0.2791114047
0.2791107674
0.2791072992
0.2791035522
0.2791023773
0.2791037361
0.2791041795
0.2791074254
0.2791108849
0.2791118305
0.2791111952
0.2791079121
0.2791042589
0.279103148
)
;
    }
    inlet
    {
        type            calculated;
        value           nonuniform 0();
    }
    outlet
    {
        type            calculated;
        value           nonuniform List<scalar> 
81
(
0.2791027985
0.2791037617
0.279107787
0.2791105967
0.2791118642
0.2791100722
0.2791072671
0.2791051002
0.2791031547
0.2791045367
0.279108608
0.2791116463
0.2791140792
0.2791135834
0.2791137516
0.2791106486
0.2791065084
0.2791046556
0.279107333
0.2791093055
0.279115787
0.2791193846
0.2791212392
0.2791208019
0.2791152881
0.2791116299
0.2791079549
0.2791111117
0.2791146076
0.2791207504
0.2791247794
0.2791302156
0.2791266484
0.2791209551
0.2791130401
0.2791109089
0.279111289
0.2791153613
0.2791214922
0.2791301949
0.2803631345
0.2791302052
0.2791213337
0.2791157605
0.2791115772
0.2791089589
0.2791140536
0.279120159
0.2791268729
0.2791281012
0.2791267418
0.2791201184
0.2791136682
0.2791105055
0.279107568
0.2791110305
0.2791147188
0.2791201681
0.2791214029
0.2791202637
0.27911608
0.2791105113
0.2791082575
0.2791048226
0.2791076702
0.2791113035
0.2791137037
0.2791162006
0.2791139231
0.2791128486
0.2791091384
0.2791052407
0.2791037361
0.2791041795
0.2791074254
0.2791108849
0.2791118305
0.2791111952
0.2791079121
0.2791042589
0.279103148
)
;
    }
    procBoundary1to0
    {
        type            processor;
        value           nonuniform List<scalar> 
97
(
0.2790916745
0.2790916745
0.2790909956
0.2790925872
0.2790932686
0.2790939814
0.2790928175
0.2790920133
0.2790923189
0.2790919974
0.2790914942
0.2790942369
0.2790942369
0.2790942369
0.2790943768
0.2790952178
0.2790951063
0.2790949819
0.2790933436
0.2790919632
0.2790918342
0.279091726
0.2790909916
0.2790966415
0.2790966415
0.2790966415
0.2791027292
0.2791142557
0.2791042776
0.2790961707
0.2790943175
0.2790927796
0.2790929443
0.2790936556
0.2790970085
0.2791312944
0.2791312944
0.2791312944
0.2792154595
0.2791332791
0.2791043276
0.2790941717
0.27909369
0.2790922817
0.2790939923
0.2790995664
0.2791256892
0.2797572476
0.2797572476
0.2797572476
0.279215509
0.279215509
0.2791144591
0.2790974738
0.2790935989
0.2790908238
0.2790932557
0.2790963637
0.2791067215
0.2791236165
0.2791068317
0.279103522
0.279103522
0.279103522
0.279094793
0.2790931421
0.2790920279
0.279092905
0.2790928812
0.2790964574
0.2790993958
0.2790965877
0.2790942312
0.2790932371
0.2790932371
0.2790932371
0.2790930554
0.2790918705
0.2790924558
0.2790930146
0.2790927968
0.2790944865
0.2790930976
0.279094556
0.279094024
0.2790925613
0.2790925613
0.2790925613
0.2790925956
0.27909123
0.2790918313
0.279092859
0.2790928149
0.2790932068
0.2790922982
0.2790913933
0.2790920515
)
;
    }
}


// ************************************************************************* //
