/*--------------------------------*- C++ -*----------------------------------*\
| =========                 |                                                 |
| \\      /  F ield         | OpenFOAM: The Open Source CFD Toolbox           |
|  \\    /   O peration     | Version:  4.x                                   |
|   \\  /    A nd           | Web:      www.OpenFOAM.org                      |
|    \\/     M anipulation  |                                                 |
\*---------------------------------------------------------------------------*/
FoamFile
{
    version     2.0;
    format      ascii;
    class       volScalarField;
    location    "6000";
    object      T;
}
// * * * * * * * * * * * * * * * * * * * * * * * * * * * * * * * * * * * * * //

dimensions      [0 0 0 1 0 0 0];

internalField   nonuniform List<scalar> 
1174
(
1223.151497
1223.151417
1223.151439
1223.151549
1223.151658
1223.151564
1223.151616
1223.151546
1223.151372
1223.151449
1223.151525
1223.151356
1223.151416
1223.151489
1223.155139
1223.155327
1223.155155
1223.15512
1223.155141
1223.15509
1223.155262
1223.155205
1223.155313
1223.155161
1223.155227
1223.155076
1223.155028
1223.155098
1223.149822
1223.14972
1223.149736
1223.149825
1223.149933
1223.150015
1223.149896
1223.150081
1223.150064
1223.150125
1223.150045
1223.150175
1223.150095
1223.149991
1223.149275
1223.149211
1223.149396
1223.149283
1223.149273
1223.149326
1223.149179
1223.149159
1223.149268
1223.149126
1223.149219
1223.149232
1223.149253
1223.149293
1223.147888
1223.148015
1223.14823
1223.148291
1223.148287
1223.148148
1223.148362
1223.148261
1223.148259
1223.148233
1223.14833
1223.148429
1223.148505
1223.148501
1223.15147
1223.151393
1223.151487
1223.151531
1223.151583
1223.151507
1223.151317
1223.151231
1223.151299
1223.15135
1223.151439
1223.151448
1223.151544
1223.151591
1223.152294
1223.152343
1223.152112
1223.152139
1223.152156
1223.152338
1223.152501
1223.152542
1223.152457
1223.152348
1223.152327
1223.152138
1223.152247
1223.152267
1223.149275
1223.149347
1223.149483
1223.14932
1223.14907
1223.149091
1223.149103
1223.149208
1223.149244
1223.149246
1223.149338
1223.149371
1223.149172
1223.14923
1223.150009
1223.150033
1223.150009
1223.150083
1223.150121
1223.150093
1223.149971
1223.149964
1223.149868
1223.149989
1223.149945
1223.149894
1223.149913
1223.149925
1223.15207
1223.151996
1223.151961
1223.151929
1223.151887
1223.151815
1223.151793
1223.151811
1223.151958
1223.151903
1223.151799
1223.151785
1223.151719
1223.151809
1223.151701
1223.142842
1223.143018
1223.14327
1223.143128
1223.14322
1223.143227
1223.143196
1223.143423
1223.14314
1223.143097
1223.14325
1223.143483
1223.143538
1223.143712
1223.146164
1223.146026
1223.146083
1223.146138
1223.146395
1223.146441
1223.14641
1223.146501
1223.146408
1223.146487
1223.14661
1223.146545
1223.146542
1223.146287
1223.150202
1223.150392
1223.150375
1223.150548
1223.150651
1223.150644
1223.150705
1223.150531
1223.150449
1223.150545
1223.150484
1223.150493
1223.150513
1223.150492
1223.159069
1223.159111
1223.159362
1223.159309
1223.159304
1223.159292
1223.159256
1223.159323
1223.159089
1223.159212
1223.159045
1223.158925
1223.158975
1223.158806
1223.151341
1223.151423
1223.151553
1223.151678
1223.15183
1223.151969
1223.151871
1223.151764
1223.151994
1223.151816
1223.151816
1223.151832
1223.151917
1223.151926
1223.150628
1223.150578
1223.150791
1223.150621
1223.150536
1223.150532
1223.150496
1223.150555
1223.15056
1223.15056
1223.150511
1223.150642
1223.15069
1223.150657
1223.15277
1223.152881
1223.152856
1223.152923
1223.152748
1223.15267
1223.152795
1223.152849
1223.152932
1223.152839
1223.152699
1223.152707
1223.152737
1223.152911
1223.151466
1223.151349
1223.151376
1223.151286
1223.151347
1223.151362
1223.151385
1223.151259
1223.15135
1223.151416
1223.15136
1223.151202
1223.151268
1223.151177
1223.151981
1223.151918
1223.151921
1223.152016
1223.152121
1223.152007
1223.151953
1223.15196
1223.15194
1223.151958
1223.152058
1223.152031
1223.152136
1223.15209
1223.15198
1223.156992
1223.15708
1223.157011
1223.156946
1223.15702
1223.157065
1223.156886
1223.156809
1223.15682
1223.156754
1223.156677
1223.156688
1223.156739
1223.156653
1223.156545
1223.149388
1223.149691
1223.149809
1223.149848
1223.149955
1223.149955
1223.150009
1223.14988
1223.149711
1223.149729
1223.14975
1223.14966
1223.149749
1223.149634
1223.154476
1223.15432
1223.154382
1223.154554
1223.154337
1223.15444
1223.154236
1223.154315
1223.154272
1223.154254
1223.154156
1223.154197
1223.154258
1223.154207
1223.154614
1223.15463
1223.154762
1223.154624
1223.154692
1223.154688
1223.154722
1223.154751
1223.154607
1223.154412
1223.154606
1223.154822
1223.15459
1223.154562
1223.147768
1223.147746
1223.147777
1223.147776
1223.14787
1223.147933
1223.147981
1223.148012
1223.147902
1223.147954
1223.147975
1223.148044
1223.148096
1223.147994
1223.151435
1223.15153
1223.15167
1223.151647
1223.151637
1223.151713
1223.15181
1223.15176
1223.151812
1223.151597
1223.151624
1223.151625
1223.151719
1223.151817
1223.146546
1223.146573
1223.146485
1223.146438
1223.146403
1223.146436
1223.146273
1223.146404
1223.146362
1223.146327
1223.146226
1223.146221
1223.146291
1223.146355
1223.148967
1223.148993
1223.149047
1223.149323
1223.149306
1223.1492
1223.149343
1223.149298
1223.149319
1223.149189
1223.149291
1223.149328
1223.149213
1223.14925
1223.147425
1223.147335
1223.147238
1223.147278
1223.147331
1223.147421
1223.147341
1223.147267
1223.147215
1223.147088
1223.146998
1223.146877
1223.147034
1223.14707
1223.147036
1223.148416
1223.148623
1223.148571
1223.148443
1223.148384
1223.148428
1223.148227
1223.148271
1223.148216
1223.148333
1223.148301
1223.148288
1223.148324
1223.148088
1223.148176
1223.148322
1223.148423
1223.14838
1223.148335
1223.148365
1223.14828
1223.148542
1223.148491
1223.148455
1223.148458
1223.148302
1223.14826
1223.148299
1223.148143
1223.148222
1223.15668
1223.156829
1223.156743
1223.156612
1223.156505
1223.156806
1223.156791
1223.156655
1223.156509
1223.15645
1223.156335
1223.156232
1223.15618
1223.15631
1223.144093
1223.143971
1223.143969
1223.143659
1223.143681
1223.143534
1223.143412
1223.143202
1223.143144
1223.143248
1223.143172
1223.143436
1223.143454
1223.143312
1223.147861
1223.147912
1223.147969
1223.148132
1223.148008
1223.148003
1223.148083
1223.147894
1223.147773
1223.147827
1223.147906
1223.147823
1223.147971
1223.148118
1223.147532
1223.147671
1223.147638
1223.147731
1223.147719
1223.147519
1223.147449
1223.147441
1223.147313
1223.147258
1223.147423
1223.147472
1223.147552
1223.14732
1223.155204
1223.155286
1223.155303
1223.155375
1223.155376
1223.155332
1223.15518
1223.155205
1223.155135
1223.154998
1223.155026
1223.155006
1223.155059
1223.15504
1223.147524
1223.147602
1223.147612
1223.147591
1223.147627
1223.147599
1223.147721
1223.147803
1223.147765
1223.147764
1223.147818
1223.147793
1223.147995
1223.147919
1223.151246
1223.151215
1223.151129
1223.151032
1223.150927
1223.150906
1223.151101
1223.151168
1223.151031
1223.151018
1223.15112
1223.151009
1223.151189
1223.151033
1223.151021
1223.150435
1223.15041
1223.150418
1223.150346
1223.150415
1223.150446
1223.150645
1223.150768
1223.150903
1223.150947
1223.150808
1223.150889
1223.150867
1223.15089
1223.151014
1223.153289
1223.153286
1223.153299
1223.153409
1223.153395
1223.153297
1223.153249
1223.153344
1223.153318
1223.153371
1223.153383
1223.153388
1223.153423
1223.153485
1223.153452
1223.143601
1223.143631
1223.143622
1223.143617
1223.143755
1223.143681
1223.143636
1223.143644
1223.143652
1223.143597
1223.143523
1223.143437
1223.143403
1223.143513
1223.143403
1217.830083
1217.825155
1217.820758
1217.816384
1217.81207
1217.80788
1217.803841
1217.800019
1217.795996
1217.792137
1217.788192
1217.784203
1217.780274
1217.776285
1223.143888
1223.143697
1223.14377
1223.143689
1223.143734
1223.143639
1223.143545
1223.143434
1223.143352
1223.143288
1223.143279
1223.143249
1223.143195
1223.143354
1223.153565
1223.153911
1223.153972
1223.153861
1223.153795
1223.153765
1223.153958
1223.154142
1223.154201
1223.154068
1223.154022
1223.153943
1223.154007
1223.154142
1223.148835
1223.149036
1223.14905
1223.14903
1223.148999
1223.149207
1223.149025
1223.149116
1223.149124
1223.149176
1223.149144
1223.149217
1223.149264
1223.149259
1223.149478
1223.149611
1223.149736
1223.149672
1223.149732
1223.149696
1223.149618
1223.149787
1223.149885
1223.14985
1223.149853
1223.149891
1223.149795
1223.149752
1223.15677
1223.156772
1223.156708
1223.156577
1223.156674
1223.156598
1223.156667
1223.156437
1223.156428
1223.156493
1223.156404
1223.156371
1223.156501
1223.156529
1223.156469
1223.150302
1223.150209
1223.150328
1223.150365
1223.150319
1223.150594
1223.150587
1223.150515
1223.150651
1223.150626
1223.150668
1223.150602
1223.150603
1223.150477
1223.150602
1223.151023
1223.151114
1223.151193
1223.151205
1223.15128
1223.151379
1223.151175
1223.151242
1223.151157
1223.151088
1223.151026
1223.151018
1223.150863
1223.15066
1223.150811
1223.147678
1223.147742
1223.147744
1223.147795
1223.147816
1223.147745
1223.147683
1223.147431
1223.147442
1223.147376
1223.147458
1223.147375
1223.147346
1223.147211
1223.147133
1223.152947
1223.152839
1223.152761
1223.152643
1223.152632
1223.152494
1223.1525
1223.152463
1223.152477
1223.15238
1223.152428
1223.152756
1223.152764
1223.152678
1223.152574
1223.147262
1223.147501
1223.147374
1223.147406
1223.147341
1223.14767
1223.147541
1223.147651
1223.147684
1223.147674
1223.147692
1223.147642
1223.147716
1223.14768
1223.147704
1223.151157
1223.151224
1223.151125
1223.151073
1223.151292
1223.151279
1223.151095
1223.15117
1223.151176
1223.151036
1223.151022
1223.151093
1223.151134
1223.150983
1223.15233
1223.152289
1223.152135
1223.152094
1223.151996
1223.152211
1223.152005
1223.151859
1223.151862
1223.152188
1223.152016
1223.152025
1223.152213
1223.152285
1223.149704
1223.14947
1223.149559
1223.149578
1223.149584
1223.149619
1223.149664
1223.14986
1223.149868
1223.149893
1223.14984
1223.149703
1223.14962
1223.149685
1223.150459
1223.150362
1223.150467
1223.150454
1223.15051
1223.150481
1223.150366
1223.150482
1223.150624
1223.150676
1223.15061
1223.150541
1223.150678
1223.150826
1223.150947
1223.148244
1223.148437
1223.148485
1223.148555
1223.148776
1223.148827
1223.148874
1223.148717
1223.148756
1223.148815
1223.148946
1223.148824
1223.149004
1223.148906
1223.148982
1223.153989
1223.153977
1223.154195
1223.154082
1223.154113
1223.15417
1223.154208
1223.154157
1223.154118
1223.15401
1223.15405
1223.154183
1223.154149
1223.154277
1223.154311
1223.150789
1223.150736
1223.150839
1223.150892
1223.150834
1223.150581
1223.150511
1223.150571
1223.150649
1223.150645
1223.150731
1223.150603
1223.150631
1223.150539
1223.150768
1223.153914
1223.153883
1223.153736
1223.153797
1223.153775
1223.153706
1223.153805
1223.153906
1223.153846
1223.153841
1223.15376
1223.153828
1223.153729
1223.15387
1223.153838
1223.150239
1223.150306
1223.150462
1223.150329
1223.15059
1223.150486
1223.150454
1223.150571
1223.150438
1223.150383
1223.150389
1223.150461
1223.150415
1223.150456
1223.150346
1223.14815
1223.14828
1223.148283
1223.148394
1223.148453
1223.148556
1223.148586
1223.148555
1223.148312
1223.148295
1223.148307
1223.148278
1223.148286
1223.148352
1223.148341
1223.151437
1223.151593
1223.151458
1223.15149
1223.151646
1223.151846
1223.151771
1223.151794
1223.151709
1223.151626
1223.151474
1223.151413
1223.151257
1223.151253
1223.147618
1223.147721
1223.147712
1223.147717
1223.14766
1223.147717
1223.147714
1223.147698
1223.147653
1223.147725
1223.147763
1223.147839
1223.147921
1223.147921
1223.150405
1223.150558
1223.150628
1223.150665
1223.150678
1223.150775
1223.150656
1223.150529
1223.15056
1223.150641
1223.150621
1223.15063
1223.150734
1223.150636
1223.150445
1223.148427
1223.148464
1223.148393
1223.148224
1223.148319
1223.148251
1223.148343
1223.148439
1223.148435
1223.148253
1223.148215
1223.148141
1223.148062
1223.148088
1223.147818
1223.148108
1223.147989
1223.148161
1223.148183
1223.148196
1223.148298
1223.148121
1223.148142
1223.148047
1223.147885
1223.147887
1223.147741
1223.147803
1223.147853
1223.147784
1223.152216
1223.152397
1223.152298
1223.15245
1223.152489
1223.152396
1223.152459
1223.152382
1223.152369
1223.152307
1223.152357
1223.152369
1223.152403
1223.152234
1223.15213
1223.147867
1223.147897
1223.147895
1223.14778
1223.147581
1223.147346
1223.147489
1223.147354
1223.147365
1223.147324
1223.147352
1223.14729
1223.147327
1223.147436
1223.147329
1223.151063
1223.151022
1223.151091
1223.151171
1223.151082
1223.151044
1223.15105
1223.151245
1223.151254
1223.151292
1223.151302
1223.151411
1223.151325
1223.151116
1223.151167
1223.141334
1223.141458
1223.141375
1223.141403
1223.141163
1223.141025
1223.141021
1223.140928
1223.141005
1223.141015
1223.14097
1223.141051
1223.140976
1223.141032
1223.14101
1223.141459
1223.141498
1223.141502
1223.141479
1223.141483
1223.141553
1223.141586
1223.141577
1223.141697
1223.1417
1223.141606
1223.14161
1223.141397
1223.141475
1223.14138
1223.148314
1223.148308
1223.148367
1223.148317
1223.148564
1223.148607
1223.148609
1223.148624
1223.148687
1223.148698
1223.148731
1223.148704
1223.148509
1223.148609
1223.146896
1223.146962
1223.146985
1223.14702
1223.146971
1223.147062
1223.147028
1223.147191
1223.147293
1223.147243
1223.147141
1223.147228
1223.147202
1223.147304
1223.147376
1223.153183
1223.153039
1223.153042
1223.152973
1223.153121
1223.153251
1223.153234
1223.153064
1223.153015
1223.153077
1223.153119
1223.153177
1223.153125
1223.153194
1223.153262
1223.151183
1223.151192
1223.151029
1223.151077
1223.151003
1223.151156
1223.151176
1223.151207
1223.151253
1223.15136
1223.151332
1223.151379
1223.151522
1223.151494
1223.15157
1223.147868
1223.147884
1223.147901
1223.147984
1223.147821
1223.147797
1223.147705
1223.147632
1223.147691
1223.147714
1223.147789
1223.147745
1223.147752
1223.147855
1223.148024
1223.148838
1223.148705
1223.148601
1223.148571
1223.148623
1223.148711
1223.148813
1223.148932
1223.148812
1223.148735
1223.148774
1223.148851
1223.148852
1223.148697
1223.148641
1223.146308
1223.146341
1223.146256
1223.146204
1223.146272
1223.146159
1223.146143
1223.146145
1223.146181
1223.1463
1223.146346
1223.146373
1223.146508
1223.146455
1223.146662
1223.149372
1223.149496
1223.149627
1223.149531
1223.14952
1223.149522
1223.14956
1223.149551
1223.149637
1223.149646
1223.149505
1223.149395
1223.149391
1223.149477
1223.149434
1223.152391
1223.152402
1223.152546
1223.152601
1223.152712
1223.152721
1223.152875
1223.152763
1223.152786
1223.152921
1223.152888
1223.15303
1223.152892
1223.152893
1223.152911
1223.149458
1223.149514
1223.149624
1223.14966
1223.149774
1223.149807
1223.1498
1223.14972
1223.149921
1223.149968
1223.150077
1223.150051
1223.15008
1223.149984
1223.14995
)
;

boundaryField
{
    top
    {
        type            zeroGradient;
    }
    bottom
    {
        type            zeroGradient;
    }
    side-walls
    {
        type            zeroGradient;
    }
    inlet
    {
        type            zeroGradient;
    }
    outlet
    {
        type            zeroGradient;
    }
    procBoundary1to0
    {
        type            processor;
        value           nonuniform List<scalar> 
97
(
1223.151484
1223.151484
1223.155174
1223.149798
1223.149216
1223.147896
1223.151193
1223.152313
1223.149374
1223.150069
1223.152074
1223.14261
1223.14261
1223.14261
1223.146233
1223.150444
1223.15918
1223.151477
1223.15076
1223.152575
1223.151498
1223.151783
1223.156878
1223.149407
1223.149407
1223.149407
1223.154549
1223.154471
1223.14776
1223.151468
1223.146492
1223.148955
1223.147505
1223.148512
1223.148247
1223.156486
1223.156486
1223.156486
1223.144134
1223.147771
1223.147541
1223.155028
1223.147369
1223.151168
1223.15016
1223.153075
1223.146893
1217.830012
1217.830012
1217.830012
1223.143921
1223.143921
1223.15358
1223.148804
1223.149573
1223.156799
1223.150264
1223.151074
1223.147651
1223.15598
1223.147166
1223.151078
1223.151078
1223.151078
1223.152306
1223.14977
1223.15046
1223.148492
1223.154097
1223.150663
1223.153823
1223.150092
1223.14818
1223.151228
1223.151228
1223.151228
1223.147746
1223.150425
1223.148599
1223.148011
1223.152276
1223.147994
1223.150957
1223.141256
1223.141727
1223.148312
1223.148312
1223.148312
1223.14692
1223.153232
1223.151322
1223.147879
1223.148831
1223.146355
1223.149275
1223.152517
1223.149304
)
;
    }
}


// ************************************************************************* //
