/*--------------------------------*- C++ -*----------------------------------*\
| =========                 |                                                 |
| \\      /  F ield         | OpenFOAM: The Open Source CFD Toolbox           |
|  \\    /   O peration     | Version:  4.x                                   |
|   \\  /    A nd           | Web:      www.OpenFOAM.org                      |
|    \\/     M anipulation  |                                                 |
\*---------------------------------------------------------------------------*/
FoamFile
{
    version     2.0;
    format      ascii;
    class       volScalarField;
    location    "6000";
    object      X_N2;
}
// * * * * * * * * * * * * * * * * * * * * * * * * * * * * * * * * * * * * * //

dimensions      [0 0 0 0 0 0 0];

internalField   nonuniform List<scalar> 
1174
(
0.5999708673
0.5999708665
0.5999708654
0.5999708639
0.5999708621
0.5999708598
0.5999708572
0.5999708543
0.599970851
0.5999708476
0.5999708439
0.5999708401
0.5999708365
0.5999708335
0.5999708666
0.5999708654
0.5999708638
0.5999708618
0.5999708594
0.5999708566
0.5999708535
0.5999708501
0.5999708466
0.5999708428
0.599970839
0.5999708351
0.5999708314
0.5999708285
0.5999708652
0.5999708633
0.5999708609
0.599970858
0.5999708547
0.5999708511
0.5999708474
0.5999708435
0.5999708395
0.5999708355
0.5999708315
0.5999708276
0.599970824
0.5999708211
0.5999708634
0.5999708607
0.5999708574
0.5999708537
0.5999708496
0.5999708454
0.5999708412
0.5999708369
0.5999708327
0.5999708286
0.5999708247
0.5999708209
0.5999708174
0.5999708147
0.5999708624
0.5999708593
0.5999708556
0.5999708516
0.5999708473
0.5999708429
0.5999708386
0.5999708342
0.5999708301
0.599970826
0.5999708221
0.5999708184
0.599970815
0.5999708124
0.5999708635
0.5999708608
0.5999708575
0.5999708538
0.5999708499
0.5999708457
0.5999708416
0.5999708374
0.5999708333
0.5999708293
0.5999708254
0.5999708216
0.5999708182
0.5999708156
0.5999708653
0.5999708634
0.599970861
0.5999708582
0.599970855
0.5999708515
0.5999708479
0.5999708441
0.5999708403
0.5999708364
0.5999708326
0.5999708288
0.5999708253
0.5999708226
0.5999708667
0.5999708655
0.5999708639
0.599970862
0.5999708596
0.5999708569
0.599970854
0.5999708508
0.5999708473
0.5999708438
0.5999708401
0.5999708365
0.5999708329
0.5999708302
0.5999708673
0.5999708666
0.5999708655
0.599970864
0.5999708622
0.5999708601
0.5999708576
0.5999708548
0.5999708517
0.5999708484
0.599970845
0.5999708414
0.599970838
0.5999708352
0.5999708675
0.5999708667
0.5999708655
0.5999708639
0.5999708619
0.5999708595
0.5999708567
0.5999708536
0.5999708502
0.5999708466
0.5999708429
0.5999708391
0.5999708352
0.5999708315
0.5999708286
0.5999708651
0.5999708633
0.5999708609
0.5999708581
0.599970855
0.5999708516
0.5999708479
0.5999708442
0.5999708404
0.5999708365
0.5999708326
0.5999708289
0.5999708253
0.5999708225
0.5999708618
0.5999708587
0.5999708549
0.5999708508
0.5999708466
0.5999708424
0.5999708382
0.5999708341
0.5999708301
0.5999708263
0.5999708227
0.5999708191
0.5999708159
0.5999708135
0.5999708571
0.5999708522
0.599970847
0.5999708418
0.5999708369
0.5999708322
0.5999708279
0.5999708239
0.5999708202
0.5999708167
0.5999708134
0.5999708103
0.5999708076
0.5999708055
0.5999708538
0.5999708481
0.5999708424
0.599970837
0.599970832
0.5999708275
0.5999708234
0.5999708197
0.5999708162
0.599970813
0.59997081
0.5999708071
0.5999708046
0.5999708027
0.5999708574
0.5999708525
0.5999708474
0.5999708423
0.5999708374
0.5999708329
0.5999708287
0.5999708248
0.5999708211
0.5999708177
0.5999708145
0.5999708114
0.5999708087
0.5999708067
0.5999708621
0.5999708589
0.5999708553
0.5999708513
0.5999708472
0.5999708432
0.5999708391
0.5999708352
0.5999708314
0.5999708278
0.5999708242
0.5999708208
0.5999708177
0.5999708154
0.5999708652
0.5999708634
0.5999708611
0.5999708584
0.5999708554
0.5999708521
0.5999708487
0.5999708452
0.5999708416
0.5999708379
0.5999708343
0.5999708307
0.5999708273
0.5999708247
0.5999708666
0.5999708655
0.5999708639
0.599970862
0.5999708597
0.5999708571
0.5999708542
0.599970851
0.5999708477
0.5999708442
0.5999708406
0.599970837
0.5999708336
0.5999708309
0.5999708667
0.5999708654
0.5999708635
0.5999708611
0.5999708582
0.5999708549
0.5999708514
0.5999708476
0.5999708437
0.5999708397
0.5999708357
0.5999708317
0.5999708278
0.5999708242
0.5999708213
0.5999708646
0.5999708621
0.5999708589
0.5999708551
0.599970851
0.5999708468
0.5999708425
0.5999708383
0.5999708343
0.5999708303
0.5999708265
0.5999708228
0.5999708193
0.599970816
0.5999708136
0.5999708533
0.5999708476
0.5999708417
0.5999708359
0.5999708306
0.5999708259
0.5999708217
0.599970818
0.5999708146
0.5999708116
0.5999708087
0.5999708061
0.5999708037
0.5999708019
0.5999708383
0.5999708293
0.5999708215
0.5999708152
0.5999708102
0.5999708064
0.5999708034
0.599970801
0.599970799
0.5999707972
0.5999707955
0.599970794
0.5999707926
0.5999707917
0.5999708247
0.5999708146
0.5999708073
0.5999708024
0.5999707991
0.5999707967
0.599970795
0.5999707937
0.5999707926
0.5999707916
0.5999707906
0.5999707896
0.5999707887
0.5999707881
0.5999708395
0.5999708304
0.5999708226
0.5999708165
0.5999708117
0.599970808
0.5999708051
0.5999708027
0.5999708007
0.5999707989
0.5999707973
0.5999707957
0.5999707943
0.5999707934
0.5999708541
0.5999708483
0.5999708425
0.599970837
0.5999708321
0.5999708276
0.5999708237
0.5999708202
0.599970817
0.599970814
0.5999708112
0.5999708086
0.5999708063
0.5999708046
0.5999708621
0.599970859
0.5999708554
0.5999708516
0.5999708476
0.5999708437
0.5999708398
0.599970836
0.5999708323
0.5999708287
0.5999708253
0.5999708219
0.5999708188
0.5999708166
0.5999708652
0.5999708634
0.5999708611
0.5999708584
0.5999708554
0.5999708521
0.5999708486
0.599970845
0.5999708414
0.5999708377
0.599970834
0.5999708304
0.599970827
0.5999708244
0.5999708657
0.5999708637
0.5999708611
0.5999708578
0.5999708541
0.59997085
0.5999708458
0.5999708416
0.5999708373
0.5999708331
0.599970829
0.5999708251
0.5999708212
0.5999708177
0.599970815
0.599970862
0.5999708578
0.5999708528
0.5999708476
0.5999708424
0.5999708374
0.5999708327
0.5999708283
0.5999708243
0.5999708206
0.5999708171
0.5999708138
0.5999708107
0.5999708079
0.5999708058
0.599970849
0.5999708396
0.5999708302
0.5999708222
0.5999708157
0.5999708107
0.5999708069
0.5999708038
0.5999708013
0.5999707993
0.5999707975
0.5999707958
0.5999707942
0.5999707928
0.5999707919
0.5999707935
0.5999707834
0.5999707774
0.5999707748
0.5999707742
0.5999707747
0.5999707756
0.5999707766
0.5999707775
0.5999707782
0.5999707788
0.5999707791
0.5999707793
0.5999707796
0.5999707347
0.5999707339
0.5999707391
0.5999707458
0.5999707522
0.5999707577
0.5999707622
0.5999707658
0.5999707686
0.5999707708
0.5999707724
0.5999707737
0.5999707746
0.5999707754
0.5999707975
0.5999707863
0.5999707805
0.599970778
0.5999707775
0.5999707779
0.5999707787
0.5999707795
0.5999707803
0.5999707809
0.5999707813
0.5999707815
0.5999707816
0.5999707818
0.5999708393
0.5999708308
0.5999708236
0.599970818
0.5999708135
0.59997081
0.5999708072
0.5999708049
0.5999708029
0.5999708011
0.5999707994
0.5999707978
0.5999707964
0.5999707954
0.5999708573
0.5999708527
0.599970848
0.5999708433
0.5999708389
0.5999708347
0.5999708308
0.5999708271
0.5999708236
0.5999708204
0.5999708172
0.5999708143
0.5999708116
0.5999708096
0.5999708634
0.5999708608
0.5999708578
0.5999708544
0.5999708508
0.599970847
0.5999708432
0.5999708394
0.5999708356
0.5999708318
0.5999708282
0.5999708247
0.5999708214
0.599970819
0.5999708651
0.5999708628
0.5999708597
0.5999708561
0.5999708521
0.5999708478
0.5999708435
0.5999708391
0.5999708348
0.5999708306
0.5999708266
0.5999708227
0.5999708189
0.5999708155
0.5999708129
0.5999708599
0.5999708547
0.5999708489
0.5999708432
0.5999708378
0.5999708328
0.5999708282
0.5999708241
0.5999708203
0.5999708168
0.5999708136
0.5999708105
0.5999708077
0.5999708051
0.5999708032
0.5999708398
0.5999708269
0.5999708164
0.5999708089
0.5999708037
0.5999708002
0.5999707977
0.5999707959
0.5999707945
0.5999707933
0.5999707922
0.5999707911
0.5999707901
0.5999707891
0.5999707885
0.5999707558
0.5999707404
0.5999707374
0.5999707413
0.5999707474
0.5999707534
0.5999707586
0.5999707629
0.5999707664
0.5999707691
0.5999707712
0.5999707728
0.599970774
0.5999707748
0.5999707756
0.5999704992
0.5999706067
0.599970666
0.5999707009
0.5999707227
0.599970737
0.599970747
0.5999707541
0.5999707593
0.5999707632
0.5999707661
0.5999707683
0.5999707699
0.5999707713
0.5999707344
0.5999707383
0.5999707454
0.5999707524
0.5999707584
0.5999707634
0.5999707673
0.5999707704
0.5999707727
0.5999707746
0.5999707759
0.5999707768
0.5999707775
0.5999707782
0.5999708243
0.5999708164
0.5999708109
0.5999708071
0.5999708043
0.5999708022
0.5999708006
0.5999707992
0.5999707979
0.5999707967
0.5999707955
0.5999707943
0.5999707932
0.5999707926
0.5999708536
0.5999708486
0.5999708437
0.5999708392
0.5999708349
0.599970831
0.5999708273
0.5999708238
0.5999708206
0.5999708175
0.5999708146
0.5999708119
0.5999708094
0.5999708076
0.5999708623
0.5999708594
0.5999708561
0.5999708526
0.5999708488
0.599970845
0.5999708412
0.5999708374
0.5999708336
0.5999708299
0.5999708264
0.5999708229
0.5999708198
0.5999708174
0.5999708657
0.5999708638
0.5999708612
0.599970858
0.5999708544
0.5999708504
0.5999708464
0.5999708422
0.599970838
0.5999708339
0.5999708299
0.599970826
0.5999708223
0.5999708188
0.5999708162
0.5999708621
0.5999708581
0.5999708533
0.5999708482
0.5999708432
0.5999708383
0.5999708337
0.5999708295
0.5999708256
0.5999708219
0.5999708184
0.5999708152
0.5999708121
0.5999708093
0.5999708073
0.5999708509
0.5999708414
0.5999708322
0.5999708244
0.599970818
0.5999708131
0.5999708093
0.5999708062
0.5999708037
0.5999708016
0.5999707997
0.599970798
0.5999707964
0.5999707949
0.599970794
0.5999708215
0.5999708025
0.5999707902
0.5999707835
0.5999707804
0.5999707794
0.5999707794
0.59997078
0.5999707806
0.5999707812
0.5999707817
0.599970782
0.5999707821
0.5999707821
0.5999707823
0.5999707571
0.5999707419
0.5999707429
0.5999707483
0.5999707544
0.5999707599
0.5999707645
0.5999707681
0.5999707711
0.5999707733
0.5999707751
0.5999707763
0.5999707772
0.5999707779
0.5999707785
0.59997082
0.5999708024
0.5999707919
0.5999707865
0.5999707841
0.5999707833
0.5999707834
0.5999707838
0.5999707842
0.5999707846
0.5999707848
0.5999707849
0.5999707849
0.5999707848
0.5999707848
0.5999708383
0.5999708315
0.5999708255
0.5999708205
0.5999708165
0.5999708131
0.5999708104
0.599970808
0.5999708059
0.599970804
0.5999708022
0.5999708005
0.599970799
0.5999707979
0.5999708569
0.5999708528
0.5999708485
0.5999708442
0.5999708401
0.5999708361
0.5999708324
0.5999708288
0.5999708255
0.5999708223
0.5999708192
0.5999708162
0.5999708136
0.5999708116
0.5999708633
0.5999708608
0.599970858
0.5999708548
0.5999708513
0.5999708478
0.5999708441
0.5999708405
0.5999708368
0.5999708332
0.5999708296
0.5999708262
0.599970823
0.5999708207
0.5999708668
0.5999708655
0.5999708637
0.5999708614
0.5999708586
0.5999708555
0.5999708521
0.5999708485
0.5999708447
0.5999708409
0.5999708371
0.5999708332
0.5999708295
0.599970826
0.5999708232
0.5999708649
0.5999708626
0.5999708595
0.5999708559
0.599970852
0.599970848
0.5999708439
0.5999708399
0.599970836
0.5999708322
0.5999708285
0.599970825
0.5999708216
0.5999708184
0.599970816
0.5999708602
0.5999708552
0.5999708495
0.5999708437
0.5999708382
0.5999708333
0.5999708288
0.5999708248
0.5999708212
0.5999708179
0.5999708149
0.5999708121
0.5999708094
0.599970807
0.5999708053
0.5999708509
0.5999708418
0.5999708331
0.5999708258
0.5999708199
0.5999708152
0.5999708115
0.5999708086
0.5999708061
0.599970804
0.5999708021
0.5999708003
0.5999707986
0.5999707971
0.5999707961
0.5999708398
0.5999708283
0.5999708197
0.5999708136
0.5999708093
0.5999708061
0.5999708037
0.5999708018
0.5999708002
0.5999707988
0.5999707974
0.5999707962
0.599970795
0.5999707938
0.5999707931
0.599970851
0.5999708422
0.5999708341
0.5999708273
0.5999708218
0.5999708174
0.5999708139
0.599970811
0.5999708085
0.5999708064
0.5999708044
0.5999708026
0.5999708008
0.5999707992
0.5999707982
0.5999708595
0.5999708547
0.5999708496
0.5999708445
0.5999708397
0.5999708353
0.5999708313
0.5999708276
0.5999708242
0.5999708211
0.5999708182
0.5999708154
0.5999708128
0.5999708104
0.5999708087
0.5999708618
0.5999708591
0.599970856
0.5999708526
0.5999708491
0.5999708455
0.599970842
0.5999708384
0.599970835
0.5999708316
0.5999708282
0.599970825
0.599970822
0.5999708198
0.5999708651
0.5999708634
0.5999708613
0.5999708589
0.5999708561
0.5999708531
0.5999708499
0.5999708466
0.5999708432
0.5999708398
0.5999708363
0.5999708329
0.5999708296
0.5999708272
0.5999708675
0.5999708668
0.5999708657
0.5999708642
0.5999708623
0.59997086
0.5999708574
0.5999708544
0.5999708513
0.5999708479
0.5999708444
0.5999708407
0.5999708371
0.5999708336
0.5999708308
0.5999708667
0.5999708655
0.5999708637
0.5999708615
0.5999708589
0.5999708559
0.5999708527
0.5999708493
0.5999708458
0.5999708422
0.5999708386
0.5999708349
0.5999708313
0.5999708279
0.5999708253
0.5999708649
0.5999708626
0.5999708596
0.5999708561
0.5999708524
0.5999708485
0.5999708445
0.5999708407
0.5999708369
0.5999708332
0.5999708296
0.5999708261
0.5999708227
0.5999708196
0.5999708173
0.5999708621
0.5999708583
0.5999708538
0.5999708492
0.5999708445
0.5999708401
0.5999708358
0.5999708319
0.5999708281
0.5999708246
0.5999708213
0.5999708181
0.5999708151
0.5999708124
0.5999708104
0.5999708598
0.5999708552
0.5999708502
0.5999708453
0.5999708406
0.5999708362
0.5999708322
0.5999708284
0.5999708249
0.5999708215
0.5999708184
0.5999708154
0.5999708126
0.5999708101
0.5999708082
0.5999708622
0.5999708585
0.5999708542
0.5999708498
0.5999708454
0.5999708411
0.5999708371
0.5999708332
0.5999708296
0.5999708261
0.5999708229
0.5999708197
0.5999708167
0.599970814
0.5999708121
0.5999708649
0.5999708626
0.5999708598
0.5999708566
0.5999708531
0.5999708495
0.5999708459
0.5999708423
0.5999708388
0.5999708353
0.5999708318
0.5999708285
0.5999708252
0.5999708222
0.59997082
0.5999708666
0.5999708653
0.5999708637
0.5999708616
0.5999708592
0.5999708566
0.5999708537
0.5999708506
0.5999708474
0.5999708441
0.5999708408
0.5999708374
0.599970834
0.5999708308
0.5999708284
0.5999708666
0.5999708655
0.5999708641
0.5999708624
0.5999708604
0.599970858
0.5999708554
0.5999708526
0.5999708496
0.5999708464
0.5999708431
0.5999708398
0.5999708366
0.5999708341
0.5999708679
0.5999708674
0.5999708667
0.5999708656
0.5999708642
0.5999708625
0.5999708604
0.5999708579
0.5999708552
0.5999708522
0.5999708489
0.5999708455
0.599970842
0.5999708386
0.5999708359
0.5999708675
0.5999708668
0.5999708657
0.5999708642
0.5999708623
0.5999708601
0.5999708575
0.5999708547
0.5999708516
0.5999708483
0.5999708448
0.5999708412
0.5999708377
0.5999708342
0.5999708316
0.5999708667
0.5999708655
0.5999708638
0.5999708616
0.5999708589
0.599970856
0.5999708527
0.5999708493
0.5999708457
0.5999708421
0.5999708384
0.5999708348
0.5999708312
0.5999708278
0.5999708252
0.5999708657
0.5999708639
0.5999708614
0.5999708585
0.5999708552
0.5999708516
0.5999708479
0.5999708441
0.5999708403
0.5999708365
0.5999708327
0.599970829
0.5999708255
0.5999708222
0.5999708198
0.5999708651
0.5999708629
0.5999708602
0.599970857
0.5999708535
0.5999708498
0.599970846
0.5999708421
0.5999708383
0.5999708345
0.5999708308
0.5999708272
0.5999708237
0.5999708205
0.5999708181
0.5999708658
0.599970864
0.5999708616
0.5999708588
0.5999708556
0.5999708522
0.5999708486
0.5999708449
0.5999708412
0.5999708375
0.5999708339
0.5999708303
0.5999708268
0.5999708236
0.5999708212
0.5999708668
0.5999708655
0.5999708639
0.5999708618
0.5999708594
0.5999708566
0.5999708536
0.5999708504
0.599970847
0.5999708436
0.5999708401
0.5999708366
0.5999708332
0.5999708299
0.5999708275
0.5999708675
0.5999708668
0.5999708657
0.5999708643
0.5999708626
0.5999708605
0.5999708582
0.5999708556
0.5999708527
0.5999708497
0.5999708465
0.5999708432
0.5999708399
0.5999708367
0.5999708342
0.5999708679
0.5999708674
0.5999708666
0.5999708657
0.5999708644
0.5999708628
0.5999708609
0.5999708587
0.5999708562
0.5999708535
0.5999708506
0.5999708475
0.5999708444
0.5999708412
0.5999708388
)
;

boundaryField
{
    top
    {
        type            calculated;
        value           nonuniform List<scalar> 
127
(
0.5999708679
0.5999708673
0.5999708666
0.5999708652
0.5999708634
0.5999708623
0.5999708633
0.5999708651
0.5999708666
0.5999708674
0.5999708666
0.5999708655
0.5999708634
0.5999708608
0.5999708594
0.5999708608
0.5999708634
0.5999708655
0.5999708666
0.5999708655
0.5999708639
0.5999708611
0.5999708578
0.5999708561
0.599970858
0.5999708613
0.5999708641
0.5999708657
0.599970864
0.599970862
0.5999708584
0.5999708544
0.5999708526
0.5999708548
0.5999708589
0.5999708624
0.5999708644
0.5999708622
0.5999708597
0.5999708554
0.5999708508
0.5999708488
0.5999708513
0.5999708561
0.5999708604
0.5999708628
0.5999708601
0.5999708571
0.5999708521
0.599970847
0.599970845
0.5999708478
0.5999708531
0.599970858
0.5999708609
0.5999708576
0.5999708542
0.5999708486
0.5999708432
0.5999708412
0.5999708441
0.5999708499
0.5999708554
0.5999708587
0.5999708548
0.599970851
0.599970845
0.5999708394
0.5999708374
0.5999708405
0.5999708466
0.5999708526
0.5999708562
0.5999708517
0.5999708477
0.5999708414
0.5999708356
0.5999708336
0.5999708368
0.5999708432
0.5999708496
0.5999708535
0.5999708484
0.5999708442
0.5999708377
0.5999708318
0.5999708299
0.5999708332
0.5999708398
0.5999708464
0.5999708506
0.599970845
0.5999708406
0.599970834
0.5999708282
0.5999708264
0.5999708296
0.5999708363
0.5999708431
0.5999708475
0.5999708414
0.599970837
0.5999708304
0.5999708247
0.5999708229
0.5999708262
0.5999708329
0.5999708398
0.5999708444
0.599970838
0.5999708336
0.599970827
0.5999708214
0.5999708198
0.599970823
0.5999708296
0.5999708366
0.5999708412
0.5999708352
0.5999708309
0.5999708244
0.599970819
0.5999708174
0.5999708207
0.5999708272
0.5999708341
0.5999708388
)
;
    }
    bottom
    {
        type            calculated;
        value           nonuniform List<scalar> 
134
(
0.5999708675
0.5999708667
0.5999708657
0.5999708651
0.5999708657
0.5999708668
0.5999708675
0.5999708679
0.5999708673
0.5999708667
0.5999708654
0.5999708637
0.5999708628
0.5999708638
0.5999708655
0.5999708668
0.5999708674
0.5999708665
0.5999708655
0.5999708635
0.5999708611
0.5999708597
0.5999708612
0.5999708637
0.5999708657
0.5999708667
0.5999708654
0.5999708639
0.5999708611
0.5999708578
0.5999708561
0.599970858
0.5999708614
0.5999708642
0.5999708656
0.5999708639
0.5999708619
0.5999708582
0.5999708541
0.5999708521
0.5999708544
0.5999708586
0.5999708623
0.5999708642
0.5999708621
0.5999708595
0.5999708549
0.59997085
0.5999708478
0.5999708504
0.5999708555
0.59997086
0.5999708625
0.5999708598
0.5999708567
0.5999708514
0.5999708458
0.5999708435
0.5999708464
0.5999708521
0.5999708574
0.5999708604
0.5999708572
0.5999708536
0.5999708476
0.5999708416
0.5999708391
0.5999708422
0.5999708485
0.5999708544
0.5999708579
0.5999708543
0.5999708502
0.5999708437
0.5999708373
0.5999708348
0.599970838
0.5999708447
0.5999708513
0.5999708552
0.599970851
0.5999708466
0.5999708397
0.5999708331
0.5999708306
0.5999708339
0.5999708409
0.5999708479
0.5999708522
0.5999708476
0.5999708429
0.5999708357
0.599970829
0.5999708266
0.5999708299
0.5999708371
0.5999708444
0.5999708489
0.5999708439
0.5999708391
0.5999708317
0.5999708251
0.5999708227
0.599970826
0.5999708332
0.5999708407
0.5999708455
0.5999708401
0.5999708352
0.5999708278
0.5999708212
0.5999708189
0.5999708223
0.5999708295
0.5999708371
0.599970842
0.5999708365
0.5999708315
0.5999708242
0.5999708177
0.5999708155
0.5999708188
0.599970826
0.5999708336
0.5999708386
0.5999708335
0.5999708286
0.5999708213
0.599970815
0.5999708129
0.5999708162
0.5999708232
0.5999708308
0.5999708359
)
;
    }
    side-walls
    {
        type            calculated;
        value           nonuniform List<scalar> 
261
(
0.5999708673
0.5999708666
0.5999708652
0.5999708634
0.5999708624
0.5999708635
0.5999708653
0.5999708667
0.5999708673
0.5999708665
0.5999708654
0.5999708633
0.5999708607
0.5999708593
0.5999708608
0.5999708634
0.5999708655
0.5999708666
0.5999708654
0.5999708638
0.5999708609
0.5999708574
0.5999708556
0.5999708575
0.599970861
0.5999708639
0.5999708655
0.5999708639
0.5999708618
0.599970858
0.5999708537
0.5999708516
0.5999708538
0.5999708582
0.599970862
0.599970864
0.5999708621
0.5999708594
0.5999708547
0.5999708496
0.5999708473
0.5999708499
0.599970855
0.5999708596
0.5999708622
0.5999708598
0.5999708566
0.5999708511
0.5999708454
0.5999708429
0.5999708457
0.5999708515
0.5999708569
0.5999708601
0.5999708572
0.5999708535
0.5999708474
0.5999708412
0.5999708386
0.5999708416
0.5999708479
0.599970854
0.5999708576
0.5999708543
0.5999708501
0.5999708435
0.5999708369
0.5999708342
0.5999708374
0.5999708441
0.5999708508
0.5999708548
0.599970851
0.5999708466
0.5999708395
0.5999708327
0.5999708301
0.5999708333
0.5999708403
0.5999708473
0.5999708517
0.5999708476
0.5999708428
0.5999708355
0.5999708286
0.599970826
0.5999708293
0.5999708364
0.5999708438
0.5999708484
0.5999708439
0.599970839
0.5999708315
0.5999708247
0.5999708221
0.5999708254
0.5999708326
0.5999708401
0.599970845
0.5999708401
0.5999708351
0.5999708276
0.5999708209
0.5999708184
0.5999708216
0.5999708288
0.5999708365
0.5999708414
0.5999708365
0.5999708314
0.599970824
0.5999708174
0.599970815
0.5999708182
0.5999708253
0.5999708329
0.599970838
0.5999708335
0.5999708285
0.5999708211
0.5999708147
0.5999708124
0.5999708156
0.5999708226
0.5999708302
0.5999708352
0.5999708679
0.5999708675
0.5999708667
0.5999708657
0.5999708651
0.5999708658
0.5999708668
0.5999708675
0.5999708679
0.5999708674
0.5999708668
0.5999708655
0.5999708639
0.5999708629
0.599970864
0.5999708655
0.5999708668
0.5999708674
0.5999708667
0.5999708657
0.5999708638
0.5999708614
0.5999708602
0.5999708616
0.5999708639
0.5999708657
0.5999708666
0.5999708656
0.5999708642
0.5999708616
0.5999708585
0.599970857
0.5999708588
0.5999708618
0.5999708643
0.5999708657
0.5999708642
0.5999708623
0.5999708589
0.5999708552
0.5999708535
0.5999708556
0.5999708594
0.5999708626
0.5999708644
0.5999708625
0.5999708601
0.599970856
0.5999708516
0.5999708498
0.5999708522
0.5999708566
0.5999708605
0.5999708628
0.5999708604
0.5999708575
0.5999708527
0.5999708479
0.599970846
0.5999708486
0.5999708536
0.5999708582
0.5999708609
0.5999708579
0.5999708547
0.5999708493
0.5999708441
0.5999708421
0.5999708449
0.5999708504
0.5999708556
0.5999708587
0.5999708552
0.5999708516
0.5999708457
0.5999708403
0.5999708383
0.5999708412
0.599970847
0.5999708527
0.5999708562
0.5999708522
0.5999708483
0.5999708421
0.5999708365
0.5999708345
0.5999708375
0.5999708436
0.5999708497
0.5999708535
0.5999708489
0.5999708448
0.5999708384
0.5999708327
0.5999708308
0.5999708339
0.5999708401
0.5999708465
0.5999708506
0.5999708455
0.5999708412
0.5999708348
0.599970829
0.5999708272
0.5999708303
0.5999708366
0.5999708432
0.5999708475
0.599970842
0.5999708377
0.5999708312
0.5999708255
0.5999708237
0.5999708268
0.5999708332
0.5999708399
0.5999708444
0.5999708386
0.5999708342
0.5999708278
0.5999708222
0.5999708205
0.5999708236
0.5999708299
0.5999708367
0.5999708412
0.5999708359
0.5999708316
0.5999708252
0.5999708198
0.5999708181
0.5999708212
0.5999708275
0.5999708342
0.5999708388
)
;
    }
    inlet
    {
        type            calculated;
        value           nonuniform 0();
    }
    outlet
    {
        type            calculated;
        value           nonuniform List<scalar> 
81
(
0.5999708335
0.5999708285
0.5999708211
0.5999708147
0.5999708124
0.5999708156
0.5999708226
0.5999708302
0.5999708352
0.5999708286
0.5999708225
0.5999708135
0.5999708055
0.5999708027
0.5999708067
0.5999708154
0.5999708247
0.5999708309
0.5999708213
0.5999708136
0.5999708019
0.5999707917
0.5999707881
0.5999707934
0.5999708046
0.5999708166
0.5999708244
0.599970815
0.5999708058
0.5999707919
0.5999707796
0.5999707754
0.5999707818
0.5999707954
0.5999708096
0.599970819
0.5999708129
0.5999708032
0.5999707885
0.5999707756
0.5999707713
0.5999707782
0.5999707926
0.5999708076
0.5999708174
0.5999708162
0.5999708073
0.599970794
0.5999707823
0.5999707785
0.5999707848
0.5999707979
0.5999708116
0.5999708207
0.5999708232
0.599970816
0.5999708053
0.5999707961
0.5999707931
0.5999707982
0.5999708087
0.5999708198
0.5999708272
0.5999708308
0.5999708253
0.5999708173
0.5999708104
0.5999708082
0.5999708121
0.59997082
0.5999708284
0.5999708341
0.5999708359
0.5999708316
0.5999708252
0.5999708198
0.5999708181
0.5999708212
0.5999708275
0.5999708342
0.5999708388
)
;
    }
    procBoundary1to0
    {
        type            processor;
        value           nonuniform List<scalar> 
97
(
0.5999708679
0.5999708679
0.5999708675
0.5999708668
0.599970866
0.5999708655
0.599970866
0.5999708669
0.5999708676
0.599970868
0.5999708681
0.5999708666
0.5999708666
0.5999708666
0.599970865
0.5999708627
0.5999708613
0.5999708629
0.5999708653
0.5999708669
0.5999708676
0.5999708677
0.599970867
0.5999708595
0.5999708595
0.5999708595
0.5999708524
0.5999708475
0.599970854
0.5999708613
0.5999708653
0.5999708669
0.5999708673
0.5999708657
0.5999708613
0.5999708216
0.5999708216
0.5999708216
0.5999708093
0.5999708335
0.5999708539
0.5999708629
0.599970866
0.5999708669
0.5999708646
0.5999708571
0.5999708378
0.59997073
0.59997073
0.59997073
0.5999708069
0.5999708069
0.5999708468
0.5999708611
0.5999708654
0.5999708672
0.5999708656
0.5999708607
0.5999708497
0.5999708354
0.5999708512
0.5999708497
0.5999708497
0.5999708497
0.5999708623
0.5999708658
0.5999708677
0.5999708669
0.5999708647
0.5999708607
0.5999708568
0.599970861
0.5999708649
0.5999708646
0.5999708646
0.5999708646
0.5999708667
0.5999708681
0.5999708677
0.5999708669
0.5999708656
0.5999708646
0.5999708656
0.5999708669
0.5999708677
0.5999708675
0.5999708675
0.5999708675
0.5999708683
0.5999708681
0.5999708677
0.5999708672
0.5999708669
0.5999708672
0.5999708677
0.5999708681
0.5999708683
)
;
    }
}


// ************************************************************************* //
