/*--------------------------------*- C++ -*----------------------------------*\
| =========                 |                                                 |
| \\      /  F ield         | OpenFOAM: The Open Source CFD Toolbox           |
|  \\    /   O peration     | Version:  4.x                                   |
|   \\  /    A nd           | Web:      www.OpenFOAM.org                      |
|    \\/     M anipulation  |                                                 |
\*---------------------------------------------------------------------------*/
FoamFile
{
    version     2.0;
    format      ascii;
    class       volScalarField;
    location    "2000";
    object      CO;
}
// * * * * * * * * * * * * * * * * * * * * * * * * * * * * * * * * * * * * * //

dimensions      [0 0 0 0 0 0 0];

internalField   nonuniform List<scalar> 
1175
(
0.3101816128
0.3101816128
0.3101816128
0.3101816128
0.3101816127
0.3101816125
0.3101816119
0.3101816097
0.3101816029
0.310181583
0.3101815273
0.310181382
0.3101810325
0.310180272
0.3101787956
0.3101816128
0.3101816128
0.3101816128
0.3101816128
0.3101816127
0.3101816125
0.3101816116
0.3101816086
0.3101815989
0.3101815693
0.3101814831
0.3101812492
0.3101806678
0.3101793753
0.3101768664
0.3101816128
0.3101816128
0.3101816128
0.3101816128
0.3101816127
0.3101816123
0.310181611
0.3101816066
0.3101815916
0.3101815433
0.3101813962
0.310180978
0.3101798948
0.3101774171
0.310172597
0.3101816128
0.3101816128
0.3101816128
0.3101816128
0.3101816126
0.3101816122
0.3101816105
0.3101816044
0.3101815834
0.310181513
0.3101812894
0.3101806257
0.3101788322
0.3101745895
0.3101662792
0.3101816128
0.3101816128
0.3101816128
0.3101816128
0.3101816126
0.3101816121
0.3101816102
0.3101816034
0.3101815794
0.3101814974
0.3101812306
0.310180416
0.3101781442
0.310172604
0.3101616182
0.3101816128
0.3101816128
0.3101816128
0.3101816128
0.3101816126
0.3101816122
0.3101816105
0.3101816044
0.3101815834
0.310181513
0.3101812894
0.3101806257
0.3101788322
0.3101745896
0.3101662794
0.3101816128
0.3101816128
0.3101816128
0.3101816128
0.3101816127
0.3101816123
0.310181611
0.3101816066
0.3101815916
0.3101815433
0.3101813962
0.310180978
0.3101798949
0.3101774172
0.3101725973
0.3101816128
0.3101816128
0.3101816128
0.3101816128
0.3101816127
0.3101816125
0.3101816116
0.3101816086
0.3101815989
0.3101815693
0.3101814831
0.3101812492
0.3101806679
0.3101793754
0.3101768666
0.3101816128
0.3101816128
0.3101816128
0.3101816128
0.3101816127
0.3101816125
0.3101816119
0.3101816097
0.3101816029
0.310181583
0.3101815273
0.310181382
0.3101810326
0.3101802721
0.3101787958
0.3101816128
0.3101816128
0.3101816128
0.3101816128
0.3101816127
0.3101816125
0.3101816116
0.3101816086
0.3101815989
0.3101815693
0.3101814831
0.3101812492
0.3101806678
0.3101793752
0.3101816128
0.3101816128
0.3101816128
0.3101816128
0.3101816127
0.3101816123
0.3101816111
0.3101816068
0.3101815922
0.3101815448
0.3101813994
0.3101809825
0.3101798937
0.3101773878
0.310172509
0.3101816128
0.3101816128
0.3101816128
0.3101816128
0.3101816126
0.3101816121
0.3101816103
0.3101816034
0.3101815791
0.3101814955
0.3101812218
0.310180385
0.3101780616
0.3101724532
0.3101614245
0.3101816128
0.3101816128
0.3101816128
0.3101816128
0.3101816126
0.3101816119
0.3101816094
0.3101815997
0.3101815635
0.3101814327
0.3101809789
0.3101794993
0.3101751037
0.3101638244
0.3101411027
0.3101816128
0.3101816128
0.3101816128
0.3101816128
0.3101816126
0.3101816118
0.310181609
0.3101815978
0.3101815552
0.3101813967
0.3101808254
0.3101788709
0.3101727114
0.310155829
0.3101202636
0.3101816128
0.3101816128
0.3101816128
0.3101816128
0.3101816126
0.3101816119
0.3101816094
0.3101815997
0.3101815635
0.3101814327
0.310180979
0.3101794994
0.3101751038
0.3101638246
0.3101411034
0.3101816128
0.3101816128
0.3101816128
0.3101816128
0.3101816126
0.3101816121
0.3101816103
0.3101816034
0.3101815791
0.3101814955
0.3101812218
0.310180385
0.3101780617
0.3101724535
0.3101614254
0.3101816128
0.3101816128
0.3101816128
0.3101816128
0.3101816127
0.3101816123
0.3101816111
0.3101816068
0.3101815922
0.3101815449
0.3101813994
0.3101809825
0.3101798938
0.3101773881
0.3101725097
0.3101816128
0.3101816128
0.3101816128
0.3101816128
0.3101816127
0.3101816125
0.3101816116
0.3101816086
0.3101815989
0.3101815693
0.3101814831
0.3101812492
0.3101806679
0.3101793754
0.3101768666
0.3101816128
0.3101816128
0.3101816128
0.3101816128
0.3101816127
0.3101816123
0.310181611
0.3101816066
0.3101815916
0.3101815433
0.3101813962
0.3101809779
0.3101798947
0.3101774168
0.3101816128
0.3101816128
0.3101816128
0.3101816128
0.3101816126
0.3101816121
0.3101816103
0.3101816034
0.3101815791
0.3101814955
0.3101812218
0.3101803849
0.3101780615
0.3101724527
0.3101816128
0.3101816128
0.3101816128
0.3101816128
0.3101816126
0.3101816118
0.3101816088
0.3101815974
0.3101815536
0.310181392
0.3101808191
0.3101789115
0.3101731385
0.310158116
0.3101277263
0.3101816128
0.3101816128
0.3101816128
0.3101816127
0.3101816125
0.3101816115
0.3101816072
0.3101815901
0.3101815209
0.3101812473
0.310180199
0.310176381
0.3101636052
0.3101267668
0.3100472847
0.3101816128
0.3101816128
0.3101816128
0.3101816127
0.3101816125
0.3101816113
0.3101816064
0.3101815862
0.3101815018
0.3101811534
0.3101797399
0.3101741844
0.3101536402
0.3100864546
0.3099220252
0.3101816128
0.3101816128
0.3101816128
0.3101816127
0.3101816125
0.3101816115
0.3101816072
0.3101815901
0.3101815209
0.3101812473
0.310180199
0.310176381
0.3101636055
0.3101267681
0.3100472884
0.3101816128
0.3101816128
0.3101816128
0.3101816128
0.3101816126
0.3101816118
0.3101816088
0.3101815974
0.3101815536
0.310181392
0.3101808191
0.3101789116
0.3101731389
0.3101581173
0.3101277301
0.3101816128
0.3101816128
0.3101816128
0.3101816128
0.3101816126
0.3101816121
0.3101816103
0.3101816034
0.3101815791
0.3101814955
0.3101812218
0.310180385
0.3101780617
0.3101724535
0.3101614253
0.3101816128
0.3101816128
0.3101816128
0.3101816128
0.3101816127
0.3101816123
0.310181611
0.3101816066
0.3101815916
0.3101815433
0.3101813962
0.310180978
0.3101798948
0.3101774171
0.3101725972
0.3101816128
0.3101816128
0.3101816128
0.3101816128
0.3101816126
0.3101816122
0.3101816105
0.3101816044
0.3101815834
0.310181513
0.3101812894
0.3101806256
0.310178832
0.310174589
0.3101816128
0.3101816128
0.3101816128
0.3101816128
0.3101816126
0.3101816119
0.3101816094
0.3101815997
0.3101815635
0.3101814327
0.3101809789
0.3101794992
0.3101751034
0.3101638231
0.3101816128
0.3101816128
0.3101816128
0.3101816127
0.3101816125
0.3101816115
0.3101816072
0.3101815901
0.3101815209
0.3101812473
0.310180199
0.3101763808
0.3101636045
0.3101267636
0.3101816128
0.3101816128
0.3101816128
0.3101816127
0.3101816124
0.3101816109
0.3101816047
0.3101815779
0.3101814617
0.310180962
0.3101788407
0.3101701043
0.3101362712
0.3100209425
0.3097310384
0.3101816128
0.3101816128
0.3101816128
0.3101816127
0.3101816123
0.3101816107
0.3101816034
0.3101815709
0.3101814238
0.3101807508
0.3101776424
0.310163249
0.3100976468
0.3098171376
0.3088596906
0.3101816128
0.3101816128
0.3101816128
0.3101816127
0.3101816124
0.3101816109
0.3101816047
0.3101815779
0.3101814617
0.310180962
0.3101788407
0.3101701046
0.3101362725
0.3100209488
0.3097310631
0.3101816128
0.3101816128
0.3101816128
0.3101816127
0.3101816125
0.3101816115
0.3101816072
0.3101815901
0.3101815209
0.3101812473
0.310180199
0.310176381
0.3101636054
0.3101267678
0.3100472882
0.3101816128
0.3101816128
0.3101816128
0.3101816128
0.3101816126
0.3101816119
0.3101816094
0.3101815997
0.3101815635
0.3101814327
0.3101809789
0.3101794993
0.3101751038
0.3101638245
0.3101411033
0.3101816128
0.3101816128
0.3101816128
0.3101816128
0.3101816126
0.3101816122
0.3101816105
0.3101816044
0.3101815834
0.310181513
0.3101812894
0.3101806257
0.3101788322
0.3101745896
0.3101662793
0.3101816128
0.3101816128
0.3101816128
0.3101816128
0.3101816126
0.3101816121
0.3101816102
0.3101816034
0.3101815794
0.3101814974
0.3101812305
0.3101804159
0.310178144
0.3101726033
0.3101816128
0.3101816128
0.3101816128
0.3101816128
0.3101816126
0.3101816118
0.310181609
0.3101815978
0.3101815552
0.3101813966
0.3101808253
0.3101788707
0.3101727108
0.310155827
0.3101816128
0.3101816128
0.3101816128
0.3101816127
0.3101816125
0.3101816113
0.3101816064
0.3101815862
0.3101815018
0.3101811534
0.3101797398
0.310174184
0.3101536385
0.3100864473
0.3101816128
0.3101816128
0.3101816128
0.3101816127
0.3101816123
0.3101816107
0.3101816034
0.3101815709
0.3101814238
0.3101807508
0.3101776423
0.3101632484
0.3100976428
0.3098171115
0.3101816128
0.3101816128
0.3101816128
0.3101816127
0.3101816123
0.3101816104
0.3101816017
0.3101815616
0.3101813696
0.3101804161
0.3101754528
0.3101480678
0.3099862202
0.3089544671
0.3018118641
0.3101816128
0.3101816128
0.3101816128
0.3101816127
0.3101816123
0.3101816107
0.3101816034
0.3101815709
0.3101814238
0.3101807508
0.3101776424
0.3101632488
0.3100976459
0.3098171345
0.308859686
0.3101816128
0.3101816128
0.3101816128
0.3101816127
0.3101816125
0.3101816113
0.3101816064
0.3101815862
0.3101815018
0.3101811534
0.3101797398
0.3101741843
0.3101536399
0.3100864537
0.3099220243
0.3101816128
0.3101816128
0.3101816128
0.3101816128
0.3101816126
0.3101816118
0.310181609
0.3101815978
0.3101815552
0.3101813966
0.3101808253
0.3101788708
0.3101727113
0.3101558287
0.3101202634
0.3101816128
0.3101816128
0.3101816128
0.3101816128
0.3101816126
0.3101816121
0.3101816102
0.3101816034
0.3101815794
0.3101814974
0.3101812306
0.310180416
0.3101781442
0.3101726039
0.3101616181
0.3101816128
0.3101816128
0.3101816128
0.3101816128
0.3101816126
0.3101816122
0.3101816105
0.3101816044
0.3101815834
0.310181513
0.3101812894
0.3101806256
0.310178832
0.310174589
0.3101816128
0.3101816128
0.3101816128
0.3101816128
0.3101816126
0.3101816119
0.3101816094
0.3101815997
0.3101815635
0.3101814327
0.3101809789
0.3101794992
0.3101751034
0.3101638233
0.3101816128
0.3101816128
0.3101816128
0.3101816127
0.3101816125
0.3101816115
0.3101816072
0.3101815901
0.3101815209
0.3101812473
0.310180199
0.3101763807
0.3101636043
0.3101267639
0.3101816128
0.3101816128
0.3101816128
0.3101816127
0.3101816124
0.3101816109
0.3101816047
0.3101815779
0.3101814617
0.310180962
0.3101788406
0.310170104
0.3101362697
0.3100209369
0.3101816128
0.3101816128
0.3101816128
0.3101816127
0.3101816123
0.3101816107
0.3101816034
0.3101815709
0.3101814238
0.3101807508
0.3101776423
0.3101632483
0.3100976425
0.3098171108
0.3101816128
0.3101816128
0.3101816128
0.3101816127
0.3101816124
0.3101816109
0.3101816047
0.3101815779
0.3101814617
0.310180962
0.3101788406
0.3101701041
0.3101362702
0.3100209382
0.3101816128
0.3101816128
0.3101816128
0.3101816127
0.3101816125
0.3101816115
0.3101816072
0.3101815901
0.3101815209
0.3101812473
0.310180199
0.3101763808
0.3101636047
0.3101267654
0.3100472808
0.3101816128
0.3101816128
0.3101816128
0.3101816128
0.3101816126
0.3101816119
0.3101816094
0.3101815997
0.3101815635
0.3101814327
0.3101809789
0.3101794993
0.3101751036
0.3101638239
0.3101411021
0.3101816128
0.3101816128
0.3101816128
0.3101816128
0.3101816126
0.3101816122
0.3101816105
0.3101816044
0.3101815834
0.310181513
0.3101812894
0.3101806257
0.3101788322
0.3101745894
0.310166279
0.3101816128
0.3101816128
0.3101816128
0.3101816128
0.3101816127
0.3101816123
0.310181611
0.3101816066
0.3101815916
0.3101815433
0.3101813962
0.3101809779
0.3101798947
0.3101774168
0.3101816128
0.3101816128
0.3101816128
0.3101816128
0.3101816126
0.3101816121
0.3101816103
0.3101816034
0.3101815791
0.3101814955
0.3101812218
0.3101803849
0.3101780614
0.3101724528
0.3101816128
0.3101816128
0.3101816128
0.3101816128
0.3101816126
0.3101816118
0.3101816088
0.3101815974
0.3101815536
0.310181392
0.3101808191
0.3101789114
0.3101731383
0.3101581154
0.3101816128
0.3101816128
0.3101816128
0.3101816127
0.3101816125
0.3101816115
0.3101816072
0.3101815901
0.3101815209
0.3101812473
0.310180199
0.3101763807
0.3101636042
0.3101267638
0.3101816128
0.3101816128
0.3101816128
0.3101816127
0.3101816125
0.3101816113
0.3101816064
0.3101815862
0.3101815018
0.3101811534
0.3101797398
0.3101741839
0.3101536383
0.3100864473
0.3101816128
0.3101816128
0.3101816128
0.3101816127
0.3101816125
0.3101816115
0.3101816072
0.3101815901
0.3101815209
0.3101812473
0.310180199
0.3101763807
0.3101636043
0.3101267641
0.3101816128
0.3101816128
0.3101816128
0.3101816128
0.3101816126
0.3101816118
0.3101816088
0.3101815974
0.3101815536
0.310181392
0.3101808191
0.3101789115
0.3101731383
0.3101581154
0.3101816128
0.3101816128
0.3101816128
0.3101816128
0.3101816126
0.3101816121
0.3101816103
0.3101816034
0.3101815791
0.3101814955
0.3101812218
0.3101803849
0.3101780615
0.3101724529
0.3101614239
0.3101816128
0.3101816128
0.3101816128
0.3101816128
0.3101816127
0.3101816123
0.310181611
0.3101816066
0.3101815916
0.3101815433
0.3101813962
0.3101809779
0.3101798948
0.310177417
0.3101725969
0.3101816128
0.3101816128
0.3101816128
0.3101816128
0.3101816127
0.3101816125
0.3101816116
0.3101816086
0.3101815989
0.3101815693
0.3101814831
0.3101812492
0.3101806678
0.3101793752
0.3101816128
0.3101816128
0.3101816128
0.3101816128
0.3101816127
0.3101816123
0.3101816111
0.3101816068
0.3101815922
0.3101815448
0.3101813994
0.3101809825
0.3101798937
0.3101773877
0.3101816128
0.3101816128
0.3101816128
0.3101816128
0.3101816126
0.3101816121
0.3101816103
0.3101816034
0.3101815791
0.3101814955
0.3101812218
0.3101803849
0.3101780614
0.3101724528
0.3101816128
0.3101816128
0.3101816128
0.3101816128
0.3101816126
0.3101816119
0.3101816094
0.3101815997
0.3101815635
0.3101814327
0.3101809789
0.3101794992
0.3101751033
0.3101638232
0.3101816128
0.3101816128
0.3101816128
0.3101816128
0.3101816126
0.3101816118
0.310181609
0.3101815978
0.3101815552
0.3101813966
0.3101808253
0.3101788707
0.3101727108
0.3101558271
0.3101816128
0.3101816128
0.3101816128
0.3101816128
0.3101816126
0.3101816119
0.3101816094
0.3101815997
0.3101815635
0.3101814327
0.3101809789
0.3101794992
0.3101751034
0.3101638233
0.3101816128
0.3101816128
0.3101816128
0.3101816128
0.3101816126
0.3101816121
0.3101816103
0.3101816034
0.3101815791
0.3101814955
0.3101812218
0.3101803849
0.3101780614
0.3101724528
0.3101816128
0.3101816128
0.3101816128
0.3101816128
0.3101816127
0.3101816123
0.3101816111
0.3101816068
0.3101815922
0.3101815448
0.3101813994
0.3101809825
0.3101798937
0.3101773877
0.3101816128
0.3101816128
0.3101816128
0.3101816128
0.3101816127
0.3101816125
0.3101816116
0.3101816086
0.3101815989
0.3101815693
0.3101814831
0.3101812492
0.3101806678
0.3101793752
0.3101768663
0.3101816128
0.3101816128
0.3101816128
0.3101816128
0.3101816127
0.3101816125
0.3101816119
0.3101816097
0.3101816029
0.310181583
0.3101815273
0.3101813819
0.3101810325
0.310180272
0.3101816128
0.3101816128
0.3101816128
0.3101816128
0.3101816127
0.3101816125
0.3101816116
0.3101816086
0.3101815989
0.3101815693
0.3101814831
0.3101812492
0.3101806678
0.3101793752
0.3101816128
0.3101816128
0.3101816128
0.3101816128
0.3101816127
0.3101816123
0.310181611
0.3101816066
0.3101815916
0.3101815433
0.3101813962
0.3101809779
0.3101798947
0.3101774168
0.3101816128
0.3101816128
0.3101816128
0.3101816128
0.3101816126
0.3101816122
0.3101816105
0.3101816044
0.3101815834
0.310181513
0.3101812894
0.3101806256
0.310178832
0.310174589
0.3101816128
0.3101816128
0.3101816128
0.3101816128
0.3101816126
0.3101816121
0.3101816102
0.3101816034
0.3101815794
0.3101814974
0.3101812305
0.3101804159
0.310178144
0.3101726033
0.3101816128
0.3101816128
0.3101816128
0.3101816128
0.3101816126
0.3101816122
0.3101816105
0.3101816044
0.3101815834
0.310181513
0.3101812894
0.3101806256
0.310178832
0.3101745891
0.3101816128
0.3101816128
0.3101816128
0.3101816128
0.3101816127
0.3101816123
0.310181611
0.3101816066
0.3101815916
0.3101815433
0.3101813962
0.3101809779
0.3101798947
0.3101774168
0.3101816128
0.3101816128
0.3101816128
0.3101816128
0.3101816127
0.3101816125
0.3101816116
0.3101816086
0.3101815989
0.3101815693
0.3101814831
0.3101812492
0.3101806678
0.3101793752
0.3101816128
0.3101816128
0.3101816128
0.3101816128
0.3101816127
0.3101816125
0.3101816119
0.3101816097
0.3101816029
0.310181583
0.3101815273
0.3101813819
0.3101810325
0.310180272
)
;

boundaryField
{
    top
    {
        type            zeroGradient;
    }
    bottom
    {
        type            zeroGradient;
    }
    side-walls
    {
        type            zeroGradient;
    }
    inlet
    {
        type            zeroGradient;
    }
    outlet
    {
        type            zeroGradient;
    }
    procBoundary0to1
    {
        type            processor;
        value           nonuniform List<scalar> 
97
(
0.310176257
0.3101768662
0.3101726743
0.3101648503
0.3101535521
0.3101456168
0.3101535523
0.3101648506
0.3101726746
0.3101762572
0.3101768662
0.3101768662
0.3101647334
0.3101614237
0.3101450149
0.3101105302
0.3100785668
0.310110531
0.310145016
0.3101647341
0.3101726746
0.3101725968
0.3101614237
0.3101614237
0.3100877176
0.3100472789
0.3099624014
0.3098011661
0.3099624049
0.3100877209
0.310145016
0.3101648506
0.3101662788
0.3101411014
0.3100472789
0.3100472789
0.3095391953
0.3088596469
0.3087232234
0.3095392092
0.3099624049
0.3101105311
0.3101535524
0.3101616176
0.3101202617
0.3099220168
0.3088596469
0.3088596469
0.3052486986
0.3088596509
0.3087232238
0.3097310482
0.3098011664
0.3100785671
0.3101456168
0.3101662789
0.3101411022
0.3100472842
0.3097310509
0.3088596509
0.3097310482
0.3097310482
0.3099624013
0.3101277268
0.31011053
0.310153552
0.310172597
0.3101614247
0.3101277285
0.3100472843
0.3099220181
0.3100472848
0.3101277268
0.3101277268
0.310145015
0.3101725091
0.3101648502
0.3101768665
0.3101725095
0.3101614247
0.3101411022
0.3101202621
0.3101411025
0.3101614246
0.3101725091
0.3101725091
0.3101726743
0.3101787956
0.3101787957
0.3101768665
0.310172597
0.310166279
0.3101616177
0.3101662791
0.310172597
0.3101768664
0.3101787956
)
;
    }
}


// ************************************************************************* //
