/*--------------------------------*- C++ -*----------------------------------*\
| =========                 |                                                 |
| \\      /  F ield         | OpenFOAM: The Open Source CFD Toolbox           |
|  \\    /   O peration     | Version:  4.x                                   |
|   \\  /    A nd           | Web:      www.OpenFOAM.org                      |
|    \\/     M anipulation  |                                                 |
\*---------------------------------------------------------------------------*/
FoamFile
{
    version     2.0;
    format      ascii;
    class       volScalarField;
    location    "2000";
    object      CO2;
}
// * * * * * * * * * * * * * * * * * * * * * * * * * * * * * * * * * * * * * //

dimensions      [0 0 0 0 0 0 0];

internalField   nonuniform List<scalar> 
1175
(
0.06498133845
0.06498133846
0.06498133846
0.06498133848
0.06498133855
0.06498133878
0.06498133955
0.06498134203
0.0649813497
0.06498137239
0.06498143579
0.06498160133
0.06498199916
0.06498286504
0.06498454603
0.06498133845
0.06498133846
0.06498133846
0.06498133849
0.06498133857
0.06498133887
0.06498133989
0.0649813433
0.06498135427
0.06498138798
0.0649814861
0.06498175246
0.06498241437
0.06498388593
0.06498674227
0.06498133846
0.06498133846
0.06498133847
0.0649813385
0.06498133861
0.06498133902
0.06498134049
0.06498134558
0.06498136265
0.06498141758
0.0649815851
0.06498206127
0.06498329441
0.06498611525
0.06499160252
0.06498133846
0.06498133846
0.06498133847
0.06498133851
0.06498133865
0.06498133918
0.06498134111
0.06498134802
0.06498137199
0.06498145209
0.06498170663
0.0649824623
0.0649845041
0.06498933408
0.06499879448
0.06498133846
0.06498133846
0.06498133847
0.06498133851
0.06498133866
0.06498133924
0.06498134139
0.06498134916
0.06498137656
0.06498146991
0.06498177366
0.06498270102
0.0649852873
0.06499159433
0.06500410028
0.06498133846
0.06498133846
0.06498133847
0.06498133851
0.06498133865
0.06498133918
0.06498134111
0.06498134802
0.06498137199
0.06498145209
0.06498170663
0.06498246229
0.06498450407
0.064989334
0.06499879433
0.06498133846
0.06498133846
0.06498133847
0.0649813385
0.06498133861
0.06498133902
0.06498134049
0.06498134558
0.06498136265
0.06498141758
0.06498158509
0.06498206125
0.06498329437
0.06498611514
0.06499160231
0.06498133845
0.06498133846
0.06498133846
0.06498133849
0.06498133857
0.06498133887
0.06498133989
0.0649813433
0.06498135427
0.06498138798
0.0649814861
0.06498175245
0.06498241433
0.06498388584
0.06498674207
0.06498133845
0.06498133845
0.06498133846
0.06498133848
0.06498133855
0.06498133878
0.06498133955
0.06498134203
0.0649813497
0.06498137239
0.06498143579
0.06498160132
0.06498199913
0.06498286496
0.06498454584
0.06498133845
0.06498133846
0.06498133846
0.06498133849
0.06498133857
0.06498133887
0.06498133989
0.0649813433
0.06498135427
0.06498138798
0.06498148611
0.06498175247
0.06498241439
0.06498388602
0.06498133846
0.06498133846
0.06498133846
0.06498133849
0.0649813386
0.064981339
0.06498134042
0.06498134535
0.06498136198
0.06498141584
0.06498158142
0.06498205611
0.06498329564
0.06498614847
0.06499170249
0.06498133846
0.06498133846
0.06498133847
0.06498133851
0.06498133866
0.06498133923
0.06498134136
0.06498134915
0.06498137686
0.06498147208
0.06498178366
0.06498273635
0.06498538135
0.0649917659
0.0650043205
0.06498133846
0.06498133846
0.06498133847
0.06498133852
0.06498133871
0.06498133947
0.06498134238
0.06498135343
0.06498139461
0.06498154354
0.06498206011
0.06498374454
0.06498874844
0.06500158838
0.06502745294
0.06498133846
0.06498133846
0.06498133847
0.06498133853
0.06498133874
0.06498133957
0.06498134286
0.06498135556
0.06498140401
0.06498158456
0.06498223495
0.06498445996
0.0649914717
0.06501068949
0.06505117352
0.06498133846
0.06498133846
0.06498133847
0.06498133852
0.06498133871
0.06498133947
0.06498134238
0.06498135343
0.06498139461
0.06498154354
0.0649820601
0.06498374452
0.06498874836
0.06500158812
0.06502745234
0.06498133846
0.06498133846
0.06498133847
0.06498133851
0.06498133866
0.06498133923
0.06498134136
0.06498134915
0.06498137686
0.06498147208
0.06498178365
0.06498273631
0.06498538124
0.06499176557
0.06500431975
0.06498133846
0.06498133846
0.06498133846
0.06498133849
0.0649813386
0.064981339
0.06498134042
0.06498134535
0.06498136198
0.06498141584
0.06498158141
0.06498205609
0.06498329556
0.06498614823
0.06499170187
0.06498133845
0.06498133846
0.06498133846
0.06498133849
0.06498133857
0.06498133887
0.06498133989
0.0649813433
0.06498135427
0.06498138798
0.0649814861
0.06498175245
0.06498241434
0.06498388584
0.06498674207
0.06498133846
0.06498133846
0.06498133847
0.0649813385
0.06498133861
0.06498133902
0.06498134049
0.06498134558
0.06498136265
0.06498141759
0.0649815851
0.06498206129
0.06498329448
0.06498611545
0.06498133846
0.06498133846
0.06498133847
0.06498133851
0.06498133866
0.06498133923
0.06498134136
0.06498134915
0.06498137686
0.06498147208
0.06498178367
0.06498273637
0.06498538144
0.06499176628
0.06498133846
0.06498133846
0.06498133847
0.06498133853
0.06498133874
0.0649813396
0.06498134298
0.06498135606
0.06498140584
0.06498158985
0.06498224209
0.06498441368
0.06499098545
0.06500808606
0.06504267841
0.06498133846
0.06498133846
0.06498133848
0.06498133855
0.06498133883
0.06498134
0.0649813448
0.06498136436
0.06498144315
0.06498175458
0.06498294796
0.06498729434
0.06500183748
0.06504377049
0.06513424209
0.06498133846
0.06498133846
0.06498133848
0.06498133856
0.06498133887
0.06498134019
0.06498134571
0.06498136879
0.06498146487
0.06498186143
0.06498347064
0.06498979478
0.06501318041
0.06508965606
0.06527681589
0.06498133846
0.06498133846
0.06498133848
0.06498133855
0.06498133883
0.06498134
0.0649813448
0.06498136436
0.06498144315
0.06498175458
0.06498294794
0.06498729426
0.06500183714
0.06504376927
0.06513423875
0.06498133846
0.06498133846
0.06498133847
0.06498133853
0.06498133874
0.0649813396
0.06498134297
0.06498135606
0.06498140584
0.06498158984
0.06498224207
0.06498441359
0.06499098511
0.06500808491
0.06504267514
0.06498133846
0.06498133846
0.06498133847
0.06498133851
0.06498133866
0.06498133923
0.06498134136
0.06498134915
0.06498137686
0.06498147208
0.06498178365
0.06498273631
0.06498538125
0.06499176559
0.06500431976
0.06498133846
0.06498133846
0.06498133847
0.0649813385
0.06498133861
0.06498133902
0.06498134049
0.06498134558
0.06498136265
0.06498141758
0.06498158509
0.06498206126
0.06498329438
0.06498611515
0.06499160231
0.06498133846
0.06498133846
0.06498133847
0.06498133851
0.06498133865
0.06498133918
0.06498134111
0.06498134802
0.06498137199
0.06498145209
0.06498170664
0.06498246234
0.06498450423
0.06498933444
0.06498133846
0.06498133846
0.06498133847
0.06498133852
0.06498133871
0.06498133947
0.06498134238
0.06498135343
0.06498139461
0.06498154355
0.06498206013
0.06498374462
0.06498874872
0.06500158932
0.06498133846
0.06498133846
0.06498133848
0.06498133855
0.06498133883
0.06498134
0.0649813448
0.06498136436
0.06498144315
0.06498175459
0.06498294798
0.06498729445
0.065001838
0.065043773
0.06498133846
0.06498133847
0.06498133849
0.06498133857
0.06498133896
0.0649813406
0.06498134767
0.06498137825
0.06498151045
0.06498207936
0.06498449421
0.06499443909
0.06503295098
0.06516422369
0.06549419489
0.06498133846
0.06498133847
0.06498133849
0.06498133859
0.06498133901
0.06498134089
0.06498134918
0.06498138621
0.06498155365
0.06498231974
0.06498585825
0.0650022424
0.06507691528
0.06539619917
0.06648595978
0.06498133846
0.06498133846
0.06498133848
0.06498133857
0.06498133896
0.0649813406
0.06498134767
0.06498137825
0.06498151045
0.06498207935
0.06498449416
0.06499443884
0.06503294973
0.065164218
0.06549417365
0.06498133846
0.06498133846
0.06498133848
0.06498133855
0.06498133883
0.06498134
0.0649813448
0.06498136436
0.06498144315
0.06498175458
0.06498294795
0.06498729429
0.06500183723
0.06504376949
0.06513423898
0.06498133846
0.06498133846
0.06498133847
0.06498133852
0.06498133871
0.06498133947
0.06498134238
0.06498135343
0.06498139461
0.06498154354
0.06498206011
0.06498374453
0.06498874839
0.06500158819
0.06502745239
0.06498133846
0.06498133846
0.06498133847
0.06498133851
0.06498133865
0.06498133918
0.06498134111
0.06498134802
0.06498137199
0.06498145209
0.06498170663
0.0649824623
0.06498450409
0.06498933404
0.06499879436
0.06498133846
0.06498133846
0.06498133847
0.06498133851
0.06498133866
0.06498133924
0.06498134139
0.06498134916
0.06498137656
0.06498146992
0.06498177368
0.06498270107
0.06498528748
0.06499159482
0.06498133846
0.06498133846
0.06498133847
0.06498133853
0.06498133874
0.06498133957
0.06498134286
0.06498135556
0.06498140402
0.06498158457
0.06498223498
0.06498446007
0.06499147212
0.06501069086
0.06498133846
0.06498133846
0.06498133848
0.06498133856
0.06498133887
0.06498134019
0.06498134571
0.06498136879
0.06498146487
0.06498186144
0.06498347069
0.06498979505
0.0650131817
0.06508966145
0.06498133846
0.06498133847
0.06498133849
0.06498133859
0.06498133901
0.06498134089
0.06498134918
0.06498138621
0.06498155365
0.06498231975
0.06498585834
0.06500224292
0.06507691852
0.06539622042
0.06498133846
0.06498133847
0.06498133849
0.0649813386
0.06498133908
0.06498134124
0.06498135106
0.06498139673
0.06498161532
0.0649827008
0.06498835061
0.06501952226
0.06520374241
0.06637807913
0.07450753246
0.06498133846
0.06498133847
0.06498133849
0.06498133859
0.06498133901
0.06498134089
0.06498134918
0.06498138621
0.06498155365
0.06498231974
0.06498585827
0.06500224251
0.06507691575
0.06539620089
0.06648596355
0.06498133846
0.06498133846
0.06498133848
0.06498133856
0.06498133887
0.06498134019
0.06498134571
0.06498136879
0.06498146487
0.06498186143
0.06498347065
0.06498979483
0.0650131806
0.06508965662
0.06527681658
0.06498133846
0.06498133846
0.06498133847
0.06498133853
0.06498133874
0.06498133957
0.06498134286
0.06498135556
0.06498140402
0.06498158457
0.06498223495
0.06498445998
0.06499147175
0.06501068961
0.06505117358
0.06498133846
0.06498133846
0.06498133847
0.06498133851
0.06498133866
0.06498133924
0.06498134139
0.06498134916
0.06498137656
0.06498146992
0.06498177366
0.06498270103
0.06498528733
0.06499159439
0.06500410033
0.06498133846
0.06498133846
0.06498133847
0.0649813385
0.06498133865
0.06498133918
0.06498134111
0.06498134802
0.06498137199
0.06498145209
0.06498170664
0.06498246234
0.06498450422
0.06498933439
0.06498133846
0.06498133846
0.06498133847
0.06498133852
0.06498133871
0.06498133947
0.06498134238
0.06498135343
0.06498139461
0.06498154355
0.06498206013
0.06498374461
0.06498874868
0.06500158907
0.06498133846
0.06498133846
0.06498133848
0.06498133855
0.06498133883
0.06498134
0.0649813448
0.06498136436
0.06498144315
0.06498175459
0.064982948
0.0649872945
0.06500183807
0.06504377234
0.06498133846
0.06498133846
0.06498133849
0.06498133857
0.06498133896
0.0649813406
0.06498134767
0.06498137825
0.06498151045
0.06498207937
0.06498449425
0.06499443928
0.06503295188
0.06516422682
0.06498133846
0.06498133847
0.06498133849
0.06498133859
0.06498133901
0.06498134089
0.06498134918
0.06498138621
0.06498155365
0.06498231975
0.06498585834
0.06500224292
0.06507691849
0.06539621969
0.06498133846
0.06498133846
0.06498133848
0.06498133857
0.06498133896
0.0649813406
0.06498134767
0.06498137825
0.06498151045
0.06498207937
0.06498449423
0.0649944392
0.06503295153
0.0651642264
0.06498133846
0.06498133846
0.06498133848
0.06498133855
0.06498133883
0.06498134
0.0649813448
0.06498136436
0.06498144315
0.06498175459
0.06498294798
0.06498729442
0.06500183778
0.06504377141
0.06513424479
0.06498133846
0.06498133846
0.06498133847
0.06498133852
0.06498133871
0.06498133947
0.06498134238
0.06498135343
0.06498139461
0.06498154355
0.06498206012
0.06498374458
0.06498874856
0.06500158869
0.06502745346
0.06498133846
0.06498133846
0.06498133847
0.0649813385
0.06498133865
0.06498133918
0.06498134111
0.06498134802
0.06498137199
0.06498145209
0.06498170664
0.06498246231
0.06498450414
0.06498933417
0.06499879462
0.06498133846
0.06498133846
0.06498133846
0.0649813385
0.06498133861
0.06498133902
0.06498134049
0.06498134558
0.06498136265
0.06498141759
0.0649815851
0.06498206129
0.06498329447
0.06498611538
0.06498133846
0.06498133846
0.06498133847
0.06498133851
0.06498133866
0.06498133923
0.06498134136
0.06498134915
0.06498137686
0.06498147208
0.06498178367
0.06498273638
0.06498538144
0.0649917661
0.06498133846
0.06498133846
0.06498133847
0.06498133853
0.06498133874
0.0649813396
0.06498134298
0.06498135606
0.06498140584
0.06498158985
0.06498224211
0.06498441373
0.06499098558
0.06500808625
0.06498133846
0.06498133846
0.06498133848
0.06498133855
0.06498133883
0.06498134
0.0649813448
0.06498136436
0.06498144316
0.0649817546
0.064982948
0.06498729452
0.06500183813
0.06504377239
0.06498133846
0.06498133846
0.06498133848
0.06498133856
0.06498133887
0.06498134019
0.06498134571
0.06498136879
0.06498146488
0.06498186145
0.06498347071
0.06498979509
0.06501318181
0.06508966123
0.06498133846
0.06498133846
0.06498133848
0.06498133855
0.06498133883
0.06498134
0.0649813448
0.06498136436
0.06498144315
0.06498175459
0.06498294799
0.06498729449
0.06500183805
0.06504377219
0.06498133846
0.06498133846
0.06498133847
0.06498133853
0.06498133874
0.0649813396
0.06498134298
0.06498135606
0.06498140584
0.06498158985
0.0649822421
0.06498441372
0.06499098556
0.06500808646
0.06498133846
0.06498133846
0.06498133847
0.06498133851
0.06498133866
0.06498133923
0.06498134136
0.06498134915
0.06498137686
0.06498147208
0.06498178367
0.06498273636
0.06498538141
0.06499176606
0.06500432093
0.06498133846
0.06498133846
0.06498133847
0.0649813385
0.06498133861
0.06498133902
0.06498134049
0.06498134558
0.06498136265
0.06498141758
0.0649815851
0.06498206128
0.06498329444
0.06498611532
0.06499160264
0.06498133845
0.06498133846
0.06498133846
0.06498133849
0.06498133857
0.06498133887
0.06498133989
0.0649813433
0.06498135427
0.06498138798
0.06498148611
0.06498175247
0.06498241439
0.06498388596
0.06498133846
0.06498133846
0.06498133846
0.06498133849
0.0649813386
0.064981339
0.06498134042
0.06498134535
0.06498136198
0.06498141585
0.06498158142
0.06498205612
0.06498329566
0.06498614847
0.06498133846
0.06498133846
0.06498133847
0.06498133851
0.06498133866
0.06498133923
0.06498134136
0.06498134915
0.06498137686
0.06498147208
0.06498178367
0.06498273638
0.06498538146
0.06499176612
0.06498133846
0.06498133846
0.06498133847
0.06498133852
0.06498133871
0.06498133947
0.06498134238
0.06498135343
0.06498139461
0.06498154355
0.06498206013
0.06498374463
0.06498874874
0.06500158914
0.06498133846
0.06498133846
0.06498133847
0.06498133853
0.06498133874
0.06498133957
0.06498134286
0.06498135556
0.06498140402
0.06498158457
0.06498223498
0.06498446009
0.06499147216
0.06501069079
0.06498133846
0.06498133846
0.06498133847
0.06498133852
0.06498133871
0.06498133947
0.06498134238
0.06498135343
0.06498139461
0.06498154355
0.06498206013
0.06498374462
0.0649887487
0.06500158904
0.06498133846
0.06498133846
0.06498133847
0.06498133851
0.06498133866
0.06498133923
0.06498134136
0.06498134915
0.06498137686
0.06498147208
0.06498178367
0.06498273637
0.06498538144
0.06499176612
0.06498133846
0.06498133846
0.06498133846
0.06498133849
0.0649813386
0.064981339
0.06498134042
0.06498134535
0.06498136198
0.06498141585
0.06498158142
0.06498205612
0.06498329566
0.06498614853
0.06498133845
0.06498133846
0.06498133846
0.06498133849
0.06498133857
0.06498133887
0.06498133989
0.0649813433
0.06498135427
0.06498138798
0.06498148611
0.06498175247
0.06498241439
0.06498388597
0.06498674237
0.06498133845
0.06498133845
0.06498133846
0.06498133848
0.06498133855
0.06498133878
0.06498133955
0.06498134203
0.0649813497
0.06498137239
0.06498143579
0.06498160133
0.06498199916
0.06498286503
0.06498133845
0.06498133846
0.06498133846
0.06498133849
0.06498133857
0.06498133887
0.06498133989
0.0649813433
0.06498135427
0.06498138798
0.06498148611
0.06498175247
0.06498241439
0.06498388597
0.06498133846
0.06498133846
0.06498133847
0.0649813385
0.06498133861
0.06498133902
0.06498134049
0.06498134558
0.06498136265
0.06498141759
0.06498158511
0.06498206129
0.06498329448
0.0649861154
0.06498133846
0.06498133846
0.06498133847
0.06498133851
0.06498133865
0.06498133918
0.06498134111
0.06498134802
0.06498137199
0.06498145209
0.06498170665
0.06498246235
0.06498450424
0.06498933441
0.06498133846
0.06498133846
0.06498133847
0.06498133851
0.06498133866
0.06498133924
0.06498134139
0.06498134916
0.06498137656
0.06498146992
0.06498177368
0.06498270108
0.06498528748
0.06499159478
0.06498133846
0.06498133846
0.06498133847
0.0649813385
0.06498133865
0.06498133918
0.06498134111
0.06498134802
0.06498137199
0.06498145209
0.06498170664
0.06498246234
0.06498450422
0.06498933435
0.06498133846
0.06498133846
0.06498133847
0.0649813385
0.06498133861
0.06498133902
0.06498134049
0.06498134558
0.06498136265
0.06498141759
0.0649815851
0.06498206128
0.06498329447
0.06498611537
0.06498133845
0.06498133846
0.06498133846
0.06498133849
0.06498133857
0.06498133887
0.06498133989
0.0649813433
0.06498135427
0.06498138798
0.06498148611
0.06498175247
0.06498241439
0.06498388598
0.06498133845
0.06498133846
0.06498133846
0.06498133848
0.06498133855
0.06498133878
0.06498133955
0.06498134203
0.0649813497
0.06498137239
0.06498143579
0.06498160133
0.06498199917
0.06498286506
)
;

boundaryField
{
    top
    {
        type            zeroGradient;
    }
    bottom
    {
        type            zeroGradient;
    }
    side-walls
    {
        type            zeroGradient;
    }
    inlet
    {
        type            zeroGradient;
    }
    outlet
    {
        type            zeroGradient;
    }
    procBoundary0to1
    {
        type            processor;
        value           nonuniform List<scalar> 
97
(
0.06498743642
0.06498674243
0.06499151502
0.06500042192
0.06501328333
0.06502231631
0.0650132831
0.06500042157
0.06499151471
0.06498743616
0.06498674243
0.06498674243
0.06500055481
0.06500432118
0.06502300121
0.06506225541
0.06509863828
0.06506225464
0.06502300015
0.06500055407
0.06499151471
0.06499160277
0.06500432118
0.06500432118
0.06508822272
0.06513424657
0.06523086529
0.065414387
0.06523086187
0.06508821934
0.06502300014
0.06500042154
0.06499879487
0.06502745408
0.06513424657
0.06513424657
0.06571256762
0.06648597607
0.06664129635
0.0657125538
0.06523086182
0.0650622545
0.06501328304
0.06500410075
0.06505117479
0.06527682074
0.06648597607
0.06648597607
0.07059584734
0.06648597223
0.0666412958
0.06549418226
0.06541438634
0.06509863784
0.06502231618
0.06499879467
0.06502745316
0.06513424172
0.06549418009
0.06648597223
0.06549418226
0.06549418226
0.06523086534
0.06504267782
0.06506225554
0.06501328334
0.0649916025
0.0650043202
0.06504267633
0.06513424151
0.06527681922
0.06513424104
0.06504267782
0.06504267782
0.06502300114
0.06499170239
0.06500042193
0.06498674216
0.06499170206
0.0650043202
0.06502745314
0.06505117427
0.06502745293
0.06500432032
0.06499170239
0.06499170239
0.064991515
0.064984546
0.06498454589
0.06498674217
0.06499160251
0.06499879464
0.06500410052
0.06499879452
0.06499160247
0.06498674223
0.064984546
)
;
    }
}


// ************************************************************************* //
