/*--------------------------------*- C++ -*----------------------------------*\
| =========                 |                                                 |
| \\      /  F ield         | OpenFOAM: The Open Source CFD Toolbox           |
|  \\    /   O peration     | Version:  4.x                                   |
|   \\  /    A nd           | Web:      www.OpenFOAM.org                      |
|    \\/     M anipulation  |                                                 |
\*---------------------------------------------------------------------------*/
FoamFile
{
    version     2.0;
    format      ascii;
    class       volScalarField;
    location    "2000";
    object      H2;
}
// * * * * * * * * * * * * * * * * * * * * * * * * * * * * * * * * * * * * * //

dimensions      [0 0 0 0 0 0 0];

internalField   nonuniform List<scalar> 
1175
(
0.004463823198
0.004463823198
0.004463823198
0.004463823197
0.004463823194
0.004463823184
0.004463823152
0.004463823048
0.004463822726
0.004463821775
0.004463819116
0.004463812172
0.004463795481
0.00446375915
0.00446368862
0.004463823198
0.004463823198
0.004463823198
0.004463823197
0.004463823193
0.004463823181
0.004463823138
0.004463822995
0.004463822535
0.004463821121
0.004463817003
0.004463805825
0.004463778042
0.004463716269
0.004463596366
0.004463823198
0.004463823198
0.004463823198
0.004463823196
0.004463823192
0.004463823174
0.004463823113
0.004463822899
0.004463822183
0.004463819878
0.004463812846
0.004463792854
0.004463741071
0.004463622603
0.004463392151
0.004463823198
0.004463823198
0.004463823197
0.004463823196
0.00446382319
0.004463823168
0.004463823087
0.004463822797
0.004463821791
0.004463818429
0.004463807741
0.004463776005
0.004463690235
0.004463487315
0.004463089852
0.004463823198
0.004463823198
0.004463823197
0.004463823196
0.004463823189
0.004463823165
0.004463823075
0.004463822749
0.004463821599
0.00446381768
0.004463804925
0.004463765971
0.00446365731
0.004463392279
0.004462866738
0.004463823198
0.004463823198
0.004463823197
0.004463823196
0.00446382319
0.004463823168
0.004463823087
0.004463822797
0.004463821791
0.004463818429
0.004463807741
0.004463776005
0.004463690236
0.004463487318
0.004463089857
0.004463823198
0.004463823198
0.004463823198
0.004463823196
0.004463823192
0.004463823174
0.004463823113
0.004463822899
0.004463822183
0.004463819878
0.004463812846
0.004463792855
0.004463741072
0.004463622607
0.004463392158
0.004463823198
0.004463823198
0.004463823198
0.004463823197
0.004463823193
0.004463823181
0.004463823138
0.004463822995
0.004463822535
0.004463821121
0.004463817004
0.004463805826
0.004463778043
0.004463716272
0.004463596373
0.004463823198
0.004463823198
0.004463823198
0.004463823197
0.004463823194
0.004463823184
0.004463823152
0.004463823048
0.004463822726
0.004463821775
0.004463819116
0.004463812172
0.004463795482
0.004463759153
0.004463688626
0.004463823198
0.004463823198
0.004463823198
0.004463823197
0.004463823193
0.004463823181
0.004463823138
0.004463822995
0.004463822535
0.004463821121
0.004463817003
0.004463805825
0.004463778041
0.004463716265
0.004463823198
0.004463823198
0.004463823198
0.004463823196
0.004463823192
0.004463823175
0.004463823116
0.004463822909
0.004463822211
0.004463819951
0.004463813
0.004463793069
0.004463741015
0.004463621195
0.004463387924
0.004463823198
0.004463823198
0.004463823197
0.004463823196
0.004463823189
0.004463823165
0.004463823076
0.004463822749
0.004463821586
0.004463817589
0.004463804504
0.004463764485
0.004463653356
0.004463385071
0.004462857502
0.004463823198
0.004463823198
0.004463823197
0.004463823195
0.004463823187
0.004463823156
0.004463823034
0.004463822569
0.004463820841
0.004463814586
0.004463792886
0.004463722107
0.004463511793
0.004462972032
0.00446188469
0.004463823198
0.004463823198
0.004463823197
0.004463823195
0.004463823186
0.004463823151
0.004463823013
0.00446382248
0.004463820446
0.004463812862
0.004463785536
0.004463692024
0.004463397254
0.004462589167
0.004460886688
0.004463823198
0.004463823198
0.004463823197
0.004463823195
0.004463823187
0.004463823156
0.004463823033
0.004463822569
0.004463820841
0.004463814586
0.004463792887
0.004463722107
0.004463511795
0.004462972041
0.004461884711
0.004463823198
0.004463823198
0.004463823197
0.004463823196
0.004463823189
0.004463823165
0.004463823076
0.004463822749
0.004463821586
0.004463817589
0.004463804504
0.004463764487
0.00446365336
0.004463385083
0.004462857529
0.004463823198
0.004463823198
0.004463823198
0.004463823196
0.004463823192
0.004463823175
0.004463823116
0.004463822909
0.004463822211
0.004463819951
0.004463813001
0.00446379307
0.004463741018
0.004463621204
0.004463387946
0.004463823198
0.004463823198
0.004463823198
0.004463823197
0.004463823193
0.004463823181
0.004463823138
0.004463822995
0.004463822535
0.004463821121
0.004463817004
0.004463805826
0.004463778043
0.004463716272
0.004463596373
0.004463823198
0.004463823198
0.004463823198
0.004463823196
0.004463823191
0.004463823174
0.004463823113
0.004463822899
0.004463822183
0.004463819878
0.004463812846
0.004463792854
0.004463741069
0.004463622595
0.004463823198
0.004463823198
0.004463823197
0.004463823196
0.004463823189
0.004463823165
0.004463823076
0.004463822749
0.004463821586
0.004463817589
0.004463804503
0.004463764485
0.004463653352
0.004463385057
0.004463823198
0.004463823198
0.004463823197
0.004463823195
0.004463823186
0.00446382315
0.004463823008
0.004463822459
0.004463820369
0.004463812641
0.004463785238
0.004463693978
0.004463417739
0.004462698802
0.004461244406
0.004463823198
0.004463823198
0.004463823197
0.004463823194
0.004463823182
0.004463823133
0.004463822932
0.00446382211
0.004463818801
0.004463805717
0.004463755564
0.004463572848
0.004462961314
0.004461197669
0.004457392164
0.004463823198
0.004463823198
0.004463823197
0.004463823194
0.004463823181
0.004463823125
0.004463822893
0.004463821924
0.004463817889
0.004463801225
0.004463733584
0.004463467668
0.00446248406
0.004459266634
0.004451391219
0.004463823198
0.004463823198
0.004463823197
0.004463823194
0.004463823182
0.004463823133
0.004463822932
0.00446382211
0.004463818801
0.004463805717
0.004463755565
0.004463572851
0.004462961325
0.004461197712
0.004457392281
0.004463823198
0.004463823198
0.004463823197
0.004463823195
0.004463823186
0.00446382315
0.004463823008
0.004463822459
0.004463820369
0.004463812641
0.004463785239
0.004463693981
0.004463417751
0.004462698843
0.004461244524
0.004463823198
0.004463823198
0.004463823197
0.004463823196
0.004463823189
0.004463823165
0.004463823076
0.004463822749
0.004463821586
0.004463817589
0.004463804504
0.004463764486
0.004463653359
0.004463385082
0.004462857529
0.004463823198
0.004463823198
0.004463823198
0.004463823196
0.004463823191
0.004463823174
0.004463823113
0.004463822899
0.004463822183
0.004463819878
0.004463812846
0.004463792855
0.004463741072
0.004463622607
0.004463392158
0.004463823198
0.004463823198
0.004463823197
0.004463823196
0.00446382319
0.004463823168
0.004463823087
0.004463822797
0.004463821791
0.004463818429
0.004463807741
0.004463776003
0.00446369023
0.004463487301
0.004463823198
0.004463823198
0.004463823197
0.004463823195
0.004463823187
0.004463823156
0.004463823033
0.004463822569
0.004463820841
0.004463814586
0.004463792886
0.004463722104
0.004463511782
0.004462971996
0.004463823198
0.004463823198
0.004463823197
0.004463823194
0.004463823182
0.004463823133
0.004463822932
0.00446382211
0.004463818801
0.004463805717
0.004463755563
0.004463572844
0.004462961294
0.004461197575
0.004463823198
0.004463823198
0.004463823197
0.004463823193
0.004463823177
0.004463823108
0.004463822811
0.004463821527
0.004463815973
0.004463792064
0.004463690543
0.004463272327
0.004461652313
0.004456128937
0.004442242901
0.004463823198
0.004463823197
0.004463823197
0.004463823192
0.004463823175
0.004463823096
0.004463822748
0.004463821192
0.004463814157
0.004463781955
0.004463633164
0.004462943986
0.004459801977
0.004446363687
0.004400486267
0.004463823198
0.004463823198
0.004463823197
0.004463823193
0.004463823177
0.004463823108
0.004463822811
0.004463821527
0.004463815973
0.004463792064
0.004463690545
0.004463272336
0.004461652357
0.004456129139
0.004442243669
0.004463823198
0.004463823198
0.004463823197
0.004463823194
0.004463823182
0.004463823133
0.004463822932
0.00446382211
0.004463818801
0.004463805717
0.004463755564
0.00446357285
0.004462961322
0.004461197703
0.004457392272
0.004463823198
0.004463823198
0.004463823197
0.004463823195
0.004463823187
0.004463823156
0.004463823034
0.004463822569
0.004463820841
0.004463814586
0.004463792886
0.004463722107
0.004463511794
0.004462972038
0.004461884709
0.004463823198
0.004463823198
0.004463823197
0.004463823196
0.00446382319
0.004463823168
0.004463823087
0.004463822797
0.004463821791
0.004463818429
0.004463807741
0.004463776005
0.004463690235
0.004463487317
0.004463089856
0.004463823198
0.004463823198
0.004463823197
0.004463823196
0.004463823189
0.004463823165
0.004463823075
0.004463822749
0.004463821599
0.00446381768
0.004463804924
0.004463765969
0.004463657303
0.004463392259
0.004463823198
0.004463823198
0.004463823197
0.004463823195
0.004463823186
0.004463823151
0.004463823013
0.00446382248
0.004463820446
0.004463812862
0.004463785535
0.00446369202
0.004463397237
0.004462589112
0.004463823198
0.004463823198
0.004463823197
0.004463823194
0.004463823181
0.004463823125
0.004463822893
0.004463821924
0.004463817888
0.004463801225
0.004463733582
0.004463467657
0.004462484011
0.004459266422
0.004463823198
0.004463823197
0.004463823197
0.004463823192
0.004463823175
0.004463823096
0.004463822748
0.004463821192
0.004463814157
0.004463781955
0.00446363316
0.004462943966
0.004459801856
0.004446362895
0.004463823198
0.004463823197
0.004463823196
0.004463823192
0.004463823172
0.004463823081
0.004463822669
0.00446382075
0.004463811564
0.004463765927
0.004463528298
0.004462216738
0.004454462972
0.004405020994
0.004062669785
0.004463823198
0.004463823197
0.004463823197
0.004463823192
0.004463823175
0.004463823096
0.004463822748
0.004463821192
0.004463814157
0.004463781955
0.004463633162
0.00446294398
0.004459801953
0.0044463636
0.004400486114
0.004463823198
0.004463823198
0.004463823197
0.004463823194
0.004463823181
0.004463823125
0.004463822893
0.004463821924
0.004463817888
0.004463801225
0.004463733583
0.004463467665
0.004462484051
0.004459266609
0.004451391193
0.004463823198
0.004463823198
0.004463823197
0.004463823195
0.004463823186
0.004463823151
0.004463823013
0.00446382248
0.004463820446
0.004463812862
0.004463785536
0.004463692023
0.004463397251
0.004462589162
0.004460886687
0.004463823198
0.004463823198
0.004463823197
0.004463823196
0.004463823189
0.004463823165
0.004463823075
0.004463822749
0.004463821599
0.00446381768
0.004463804924
0.004463765971
0.004463657309
0.004463392276
0.004462866736
0.004463823198
0.004463823198
0.004463823197
0.004463823196
0.00446382319
0.004463823168
0.004463823087
0.004463822797
0.004463821791
0.004463818429
0.004463807741
0.004463776003
0.00446369023
0.004463487302
0.004463823198
0.004463823198
0.004463823197
0.004463823195
0.004463823187
0.004463823156
0.004463823033
0.004463822569
0.004463820841
0.004463814586
0.004463792886
0.004463722104
0.004463511783
0.004462972003
0.004463823198
0.004463823198
0.004463823197
0.004463823194
0.004463823182
0.004463823133
0.004463822932
0.00446382211
0.004463818801
0.004463805717
0.004463755563
0.004463572842
0.004462961289
0.00446119759
0.004463823198
0.004463823198
0.004463823197
0.004463823193
0.004463823177
0.004463823108
0.004463822811
0.004463821527
0.004463815973
0.004463792063
0.004463690541
0.004463272319
0.004461652275
0.004456128794
0.004463823198
0.004463823197
0.004463823197
0.004463823192
0.004463823175
0.004463823096
0.004463822748
0.004463821192
0.004463814157
0.004463781955
0.00446363316
0.004462943965
0.004459801851
0.0044463629
0.004463823198
0.004463823198
0.004463823197
0.004463823193
0.004463823177
0.004463823108
0.004463822811
0.004463821527
0.004463815973
0.004463792064
0.004463690542
0.004463272322
0.004461652289
0.004456128821
0.004463823198
0.004463823198
0.004463823197
0.004463823194
0.004463823182
0.004463823133
0.004463822932
0.00446382211
0.004463818801
0.004463805717
0.004463755563
0.004463572845
0.004462961301
0.004461197631
0.004457392055
0.004463823198
0.004463823198
0.004463823197
0.004463823195
0.004463823187
0.004463823156
0.004463823033
0.004463822569
0.004463820841
0.004463814586
0.004463792886
0.004463722105
0.004463511788
0.00446297202
0.00446188467
0.004463823198
0.004463823198
0.004463823197
0.004463823196
0.00446382319
0.004463823168
0.004463823087
0.004463822797
0.004463821791
0.004463818429
0.004463807741
0.004463776004
0.004463690233
0.004463487312
0.004463089847
0.004463823198
0.004463823198
0.004463823198
0.004463823196
0.004463823191
0.004463823174
0.004463823113
0.004463822899
0.004463822183
0.004463819878
0.004463812846
0.004463792853
0.004463741069
0.004463622598
0.004463823198
0.004463823198
0.004463823197
0.004463823196
0.004463823189
0.004463823165
0.004463823076
0.004463822749
0.004463821586
0.004463817589
0.004463804503
0.004463764484
0.004463653352
0.004463385061
0.004463823198
0.004463823198
0.004463823197
0.004463823195
0.004463823186
0.00446382315
0.004463823008
0.004463822459
0.004463820369
0.004463812641
0.004463785237
0.004463693976
0.004463417733
0.00446269879
0.004463823198
0.004463823198
0.004463823197
0.004463823194
0.004463823182
0.004463823133
0.004463822932
0.00446382211
0.004463818801
0.004463805717
0.004463755562
0.004463572841
0.004462961287
0.004461197587
0.004463823198
0.004463823198
0.004463823197
0.004463823194
0.004463823181
0.004463823125
0.004463822893
0.004463821924
0.004463817888
0.004463801225
0.004463733581
0.004463467655
0.004462484005
0.004459266426
0.004463823198
0.004463823198
0.004463823197
0.004463823194
0.004463823182
0.004463823133
0.004463822932
0.00446382211
0.004463818801
0.004463805717
0.004463755563
0.004463572842
0.004462961291
0.004461197597
0.004463823198
0.004463823198
0.004463823197
0.004463823195
0.004463823186
0.00446382315
0.004463823008
0.004463822459
0.004463820369
0.004463812641
0.004463785237
0.004463693977
0.004463417734
0.004462698785
0.004463823198
0.004463823198
0.004463823197
0.004463823196
0.004463823189
0.004463823165
0.004463823076
0.004463822749
0.004463821586
0.004463817589
0.004463804503
0.004463764485
0.004463653353
0.004463385065
0.004462857486
0.004463823198
0.004463823198
0.004463823198
0.004463823196
0.004463823191
0.004463823174
0.004463823113
0.004463822899
0.004463822183
0.004463819878
0.004463812846
0.004463792854
0.00446374107
0.004463622601
0.004463392146
0.004463823198
0.004463823198
0.004463823198
0.004463823197
0.004463823193
0.004463823181
0.004463823138
0.004463822995
0.004463822535
0.004463821121
0.004463817003
0.004463805825
0.004463778041
0.004463716267
0.004463823198
0.004463823198
0.004463823198
0.004463823196
0.004463823192
0.004463823175
0.004463823116
0.004463822909
0.004463822211
0.004463819951
0.004463813
0.004463793069
0.004463741014
0.004463621194
0.004463823198
0.004463823198
0.004463823197
0.004463823196
0.004463823189
0.004463823165
0.004463823076
0.004463822749
0.004463821586
0.004463817589
0.004463804503
0.004463764484
0.004463653351
0.004463385061
0.004463823198
0.004463823198
0.004463823197
0.004463823195
0.004463823187
0.004463823156
0.004463823033
0.004463822569
0.004463820841
0.004463814586
0.004463792885
0.004463722103
0.00446351178
0.004462972
0.004463823198
0.004463823198
0.004463823197
0.004463823195
0.004463823186
0.004463823151
0.004463823013
0.00446382248
0.004463820446
0.004463812862
0.004463785535
0.004463692019
0.004463397236
0.004462589114
0.004463823198
0.004463823198
0.004463823197
0.004463823195
0.004463823187
0.004463823156
0.004463823033
0.004463822569
0.004463820841
0.004463814586
0.004463792885
0.004463722103
0.004463511782
0.004462972004
0.004463823198
0.004463823198
0.004463823197
0.004463823196
0.004463823189
0.004463823165
0.004463823076
0.004463822749
0.004463821586
0.004463817589
0.004463804503
0.004463764484
0.004463653352
0.004463385062
0.004463823198
0.004463823198
0.004463823198
0.004463823196
0.004463823192
0.004463823175
0.004463823116
0.004463822909
0.004463822211
0.004463819951
0.004463813
0.004463793069
0.004463741014
0.004463621193
0.004463823198
0.004463823198
0.004463823198
0.004463823197
0.004463823193
0.004463823181
0.004463823138
0.004463822995
0.004463822535
0.004463821121
0.004463817003
0.004463805825
0.004463778041
0.004463716267
0.004463596362
0.004463823198
0.004463823198
0.004463823198
0.004463823197
0.004463823194
0.004463823184
0.004463823152
0.004463823048
0.004463822726
0.004463821775
0.004463819116
0.004463812172
0.00446379548
0.00446375915
0.004463823198
0.004463823198
0.004463823198
0.004463823197
0.004463823193
0.004463823181
0.004463823138
0.004463822995
0.004463822535
0.004463821121
0.004463817003
0.004463805825
0.004463778041
0.004463716267
0.004463823198
0.004463823198
0.004463823198
0.004463823196
0.004463823191
0.004463823174
0.004463823113
0.004463822899
0.004463822183
0.004463819878
0.004463812846
0.004463792853
0.004463741068
0.004463622597
0.004463823198
0.004463823198
0.004463823197
0.004463823196
0.00446382319
0.004463823168
0.004463823087
0.004463822797
0.004463821791
0.004463818429
0.00446380774
0.004463776003
0.004463690229
0.004463487301
0.004463823198
0.004463823198
0.004463823197
0.004463823196
0.004463823189
0.004463823165
0.004463823075
0.004463822749
0.004463821599
0.00446381768
0.004463804924
0.004463765969
0.004463657303
0.00446339226
0.004463823198
0.004463823198
0.004463823197
0.004463823196
0.00446382319
0.004463823168
0.004463823087
0.004463822797
0.004463821791
0.004463818429
0.004463807741
0.004463776003
0.00446369023
0.004463487304
0.004463823198
0.004463823198
0.004463823198
0.004463823196
0.004463823192
0.004463823174
0.004463823113
0.004463822899
0.004463822183
0.004463819878
0.004463812846
0.004463792854
0.004463741069
0.004463622598
0.004463823198
0.004463823198
0.004463823198
0.004463823197
0.004463823193
0.004463823181
0.004463823138
0.004463822995
0.004463822535
0.004463821121
0.004463817003
0.004463805825
0.004463778041
0.004463716267
0.004463823198
0.004463823198
0.004463823198
0.004463823197
0.004463823194
0.004463823184
0.004463823152
0.004463823048
0.004463822726
0.004463821775
0.004463819116
0.004463812172
0.00446379548
0.004463759149
)
;

boundaryField
{
    top
    {
        type            zeroGradient;
    }
    bottom
    {
        type            zeroGradient;
    }
    side-walls
    {
        type            zeroGradient;
    }
    inlet
    {
        type            zeroGradient;
    }
    outlet
    {
        type            zeroGradient;
    }
    procBoundary0to1
    {
        type            processor;
        value           nonuniform List<scalar> 
97
(
0.004463567358
0.00446359636
0.004463396041
0.004463021815
0.004462481248
0.004462101438
0.004462481256
0.004463021827
0.004463396052
0.004463567366
0.00446359636
0.00446359636
0.004463016184
0.004462857478
0.004462072667
0.004460422013
0.004458891454
0.004460422038
0.004462072703
0.004463016208
0.004463396052
0.004463392142
0.004462857478
0.004462857478
0.004459330078
0.004457391993
0.004453329537
0.004445606226
0.004453329653
0.004459330191
0.004462072703
0.004463021828
0.004463089838
0.004461884647
0.004457391993
0.004457391993
0.004433059197
0.004400485237
0.004393963129
0.00443305966
0.004453329652
0.004460422042
0.004462481257
0.00446286672
0.004460886637
0.004451390995
0.004400485237
0.004400485237
0.004227452928
0.004400485381
0.004393963135
0.004442243267
0.004445606241
0.004458891468
0.004462101442
0.004463089844
0.004461884679
0.00445739216
0.004442243354
0.004400485381
0.004442243267
0.004442243267
0.004453329535
0.004461244424
0.004460422006
0.004462481247
0.004463392151
0.004462857511
0.004461244476
0.004457392165
0.004451391044
0.004457392181
0.004461244424
0.004461244424
0.00446207267
0.004463387928
0.004463021814
0.004463596369
0.004463387939
0.004462857511
0.004461884677
0.004460886653
0.004461884685
0.004462857508
0.004463387928
0.004463387928
0.004463396042
0.004463688621
0.004463688624
0.004463596369
0.00446339215
0.004463089844
0.004462866727
0.004463089849
0.004463392152
0.004463596367
0.004463688621
)
;
    }
}


// ************************************************************************* //
