/*--------------------------------*- C++ -*----------------------------------*\
| =========                 |                                                 |
| \\      /  F ield         | OpenFOAM: The Open Source CFD Toolbox           |
|  \\    /   O peration     | Version:  4.x                                   |
|   \\  /    A nd           | Web:      www.OpenFOAM.org                      |
|    \\/     M anipulation  |                                                 |
\*---------------------------------------------------------------------------*/
FoamFile
{
    version     2.0;
    format      ascii;
    class       volScalarField;
    location    "2000";
    object      H2O;
}
// * * * * * * * * * * * * * * * * * * * * * * * * * * * * * * * * * * * * * //

dimensions      [0 0 0 0 0 0 0];

internalField   nonuniform List<scalar> 
1175
(
1.000019276e-05
1.000019297e-05
1.00001951e-05
1.00002013e-05
1.000022598e-05
1.000030538e-05
1.000057274e-05
1.000143188e-05
1.000409272e-05
1.001195888e-05
1.003395122e-05
1.009137958e-05
1.022943252e-05
1.052996051e-05
1.111349751e-05
1.000019353e-05
1.000019312e-05
1.000019551e-05
1.000020282e-05
1.00002324e-05
1.00003362e-05
1.000069143e-05
1.000187405e-05
1.000567694e-05
1.001737112e-05
1.005141684e-05
1.014385662e-05
1.037362551e-05
1.088455212e-05
1.187643618e-05
1.000019248e-05
1.000019374e-05
1.000019584e-05
1.000020609e-05
1.00002461e-05
1.000038993e-05
1.000089781e-05
1.000266351e-05
1.00085857e-05
1.00276459e-05
1.008578648e-05
1.025109712e-05
1.067930572e-05
1.16590325e-05
1.356519316e-05
1.000019388e-05
1.00001945e-05
1.000019803e-05
1.000021115e-05
1.000026019e-05
1.000044325e-05
1.0001113e-05
1.000350871e-05
1.001182609e-05
1.003962541e-05
1.012799325e-05
1.039039944e-05
1.109958923e-05
1.277757003e-05
1.606481152e-05
1.000019394e-05
1.000019508e-05
1.000019832e-05
1.000021237e-05
1.000026504e-05
1.000046538e-05
1.000121042e-05
1.000390517e-05
1.001341228e-05
1.004581668e-05
1.015127537e-05
1.047333882e-05
1.137176801e-05
1.356323173e-05
1.790943549e-05
1.000019327e-05
1.000019417e-05
1.000019726e-05
1.000020989e-05
1.000025921e-05
1.000044301e-05
1.000111371e-05
1.000350889e-05
1.001182584e-05
1.0039627e-05
1.012799129e-05
1.039039498e-05
1.109957617e-05
1.277752336e-05
1.606469193e-05
1.000019345e-05
1.000019414e-05
1.000019684e-05
1.00002064e-05
1.000024635e-05
1.000039004e-05
1.000090036e-05
1.000266543e-05
1.00085871e-05
1.002764724e-05
1.008578513e-05
1.025109139e-05
1.06792811e-05
1.165895434e-05
1.356500889e-05
1.000019471e-05
1.000019393e-05
1.000019665e-05
1.000020476e-05
1.000023239e-05
1.000033622e-05
1.000069153e-05
1.000187471e-05
1.000567786e-05
1.001737188e-05
1.005141613e-05
1.014384973e-05
1.037360089e-05
1.088447382e-05
1.18762535e-05
1.000019392e-05
1.000019391e-05
1.000019578e-05
1.000020264e-05
1.00002258e-05
1.000030583e-05
1.000057237e-05
1.00014331e-05
1.00040927e-05
1.00119583e-05
1.003394842e-05
1.00913724e-05
1.022940679e-05
1.052988362e-05
1.111331195e-05
1.000019223e-05
1.000019373e-05
1.000019629e-05
1.000020373e-05
1.000023253e-05
1.000033568e-05
1.000069157e-05
1.000187447e-05
1.00056772e-05
1.001737269e-05
1.005141938e-05
1.014386544e-05
1.037366024e-05
1.088468433e-05
1.000019371e-05
1.000019412e-05
1.000019706e-05
1.000020661e-05
1.000024351e-05
1.000038196e-05
1.000087278e-05
1.000258363e-05
1.000835265e-05
1.002704496e-05
1.008451636e-05
1.024933422e-05
1.06798123e-05
1.167080545e-05
1.360048739e-05
1.000019403e-05
1.000019432e-05
1.000019836e-05
1.000021097e-05
1.000026373e-05
1.000046213e-05
1.000120062e-05
1.000390131e-05
1.001351949e-05
1.004657196e-05
1.015476128e-05
1.048564855e-05
1.140455144e-05
1.362310677e-05
1.798648147e-05
1.000019454e-05
1.000019516e-05
1.000019972e-05
1.000021553e-05
1.000028241e-05
1.000054408e-05
1.000155187e-05
1.000538954e-05
1.001968159e-05
1.00713933e-05
1.025080032e-05
1.083598763e-05
1.257484301e-05
1.703777949e-05
2.602961255e-05
1.00001951e-05
1.000019532e-05
1.000020008e-05
1.000021849e-05
1.000029115e-05
1.000058038e-05
1.00017191e-05
1.000612925e-05
1.002294791e-05
1.008564318e-05
1.031155655e-05
1.108465302e-05
1.352162014e-05
2.020258042e-05
3.427971666e-05
1.000019361e-05
1.000019427e-05
1.000019842e-05
1.000021598e-05
1.000028269e-05
1.000054422e-05
1.000155307e-05
1.000538901e-05
1.001968193e-05
1.007139369e-05
1.025079919e-05
1.083597762e-05
1.257479187e-05
1.70375804e-05
2.602906568e-05
1.000019523e-05
1.000019506e-05
1.000019824e-05
1.000021183e-05
1.000026371e-05
1.000046192e-05
1.000120056e-05
1.000390274e-05
1.001351981e-05
1.004657097e-05
1.015475832e-05
1.048562957e-05
1.140446934e-05
1.362282663e-05
1.798576249e-05
1.000019417e-05
1.000019495e-05
1.000019662e-05
1.000020666e-05
1.000024388e-05
1.00003822e-05
1.000087346e-05
1.000258384e-05
1.00083534e-05
1.002704467e-05
1.008451304e-05
1.024931636e-05
1.067974262e-05
1.167056476e-05
1.359983474e-05
1.00001943e-05
1.000019449e-05
1.000019588e-05
1.000020438e-05
1.000023336e-05
1.000033656e-05
1.000069149e-05
1.000187489e-05
1.000567756e-05
1.001737068e-05
1.005141594e-05
1.014385028e-05
1.037360345e-05
1.088447995e-05
1.187626132e-05
1.000019264e-05
1.000019312e-05
1.000019611e-05
1.00002064e-05
1.000024643e-05
1.000039018e-05
1.000089912e-05
1.000266514e-05
1.000858692e-05
1.002764857e-05
1.008579487e-05
1.025112686e-05
1.067940866e-05
1.165937006e-05
1.000019296e-05
1.000019442e-05
1.000019709e-05
1.000021037e-05
1.000026313e-05
1.000046141e-05
1.00012006e-05
1.000390202e-05
1.001352011e-05
1.004657374e-05
1.015477031e-05
1.048568293e-05
1.140468511e-05
1.362365313e-05
1.000019307e-05
1.000019444e-05
1.00001993e-05
1.000021751e-05
1.000029189e-05
1.00005897e-05
1.000176061e-05
1.000630265e-05
1.002358197e-05
1.00874804e-05
1.031404146e-05
1.106857566e-05
1.335260859e-05
1.929748802e-05
3.13259399e-05
1.000019528e-05
1.000019612e-05
1.00002008e-05
1.000022506e-05
1.000032299e-05
1.000072935e-05
1.00023947e-05
1.000918489e-05
1.003654323e-05
1.014471308e-05
1.055934059e-05
1.206989604e-05
1.712564466e-05
3.17068462e-05
6.317315283e-05
1.000019554e-05
1.000019588e-05
1.000020249e-05
1.000022934e-05
1.000033801e-05
1.000079494e-05
1.000271162e-05
1.001072298e-05
1.004408784e-05
1.01818434e-05
1.074102625e-05
1.293927089e-05
2.107035886e-05
4.766772596e-05
0.0001127756115
1.00001955e-05
1.000019646e-05
1.000020197e-05
1.000022585e-05
1.0000324e-05
1.000072964e-05
1.000239562e-05
1.000918444e-05
1.00365426e-05
1.014471314e-05
1.055933376e-05
1.206985009e-05
1.712540339e-05
3.170579009e-05
6.316980608e-05
1.000019419e-05
1.000019594e-05
1.00001998e-05
1.000021884e-05
1.000029305e-05
1.000059103e-05
1.000176146e-05
1.000630191e-05
1.002358136e-05
1.008747668e-05
1.03140298e-05
1.106851516e-05
1.335232025e-05
1.92963233e-05
3.132229867e-05
1.00001948e-05
1.000019565e-05
1.000019913e-05
1.000021186e-05
1.000026429e-05
1.000046221e-05
1.000120023e-05
1.000390146e-05
1.001351863e-05
1.004657057e-05
1.015476084e-05
1.048563752e-05
1.140449011e-05
1.362285978e-05
1.798578875e-05
1.000019414e-05
1.000019523e-05
1.00001974e-05
1.000020819e-05
1.000024834e-05
1.00003901e-05
1.000089832e-05
1.000266361e-05
1.000858626e-05
1.00276463e-05
1.008578879e-05
1.02510986e-05
1.067929719e-05
1.165898123e-05
1.356503191e-05
1.000019341e-05
1.000019432e-05
1.000019763e-05
1.000021107e-05
1.000025941e-05
1.000044255e-05
1.000111344e-05
1.000350963e-05
1.001182808e-05
1.003963119e-05
1.012800942e-05
1.039046129e-05
1.109980213e-05
1.277822545e-05
1.000019334e-05
1.000019443e-05
1.000019928e-05
1.000021623e-05
1.000028321e-05
1.000054426e-05
1.000155269e-05
1.000538982e-05
1.001968328e-05
1.007139856e-05
1.025082662e-05
1.083609465e-05
1.257526198e-05
1.703929448e-05
1.000019502e-05
1.000019581e-05
1.000020123e-05
1.000022595e-05
1.000032348e-05
1.000072952e-05
1.000239631e-05
1.000918568e-05
1.003654502e-05
1.01447209e-05
1.055937475e-05
1.207005338e-05
1.712638711e-05
3.171038798e-05
1.000019432e-05
1.000019545e-05
1.000020418e-05
1.000023516e-05
1.000036678e-05
1.000093584e-05
1.00033918e-05
1.001400818e-05
1.005992361e-05
1.025758339e-05
1.109685288e-05
1.455420078e-05
2.79467657e-05
7.360964371e-05
0.000188420133
1.000019621e-05
1.000019669e-05
1.000020473e-05
1.000023946e-05
1.000038729e-05
1.000103833e-05
1.000391475e-05
1.001677332e-05
1.007493626e-05
1.034113755e-05
1.157111793e-05
1.726800782e-05
4.323987809e-05
0.0001543191026
0.0005335415301
1.000019592e-05
1.000019745e-05
1.000020444e-05
1.000023537e-05
1.000036744e-05
1.000093614e-05
1.000339034e-05
1.001400751e-05
1.005992357e-05
1.025757976e-05
1.109682703e-05
1.455403669e-05
2.794576314e-05
7.3604153e-05
0.0001883963337
1.000019436e-05
1.000019583e-05
1.000020171e-05
1.000022622e-05
1.000032308e-05
1.000072866e-05
1.000239595e-05
1.000918438e-05
1.003654228e-05
1.014471698e-05
1.055934962e-05
1.206990717e-05
1.712556481e-05
3.170612482e-05
6.317003762e-05
1.000019541e-05
1.000019662e-05
1.000020042e-05
1.000021618e-05
1.000028287e-05
1.000054424e-05
1.000155252e-05
1.000538934e-05
1.001968277e-05
1.007139509e-05
1.025081097e-05
1.083601091e-05
1.257487626e-05
1.703773065e-05
2.60291597e-05
1.000019427e-05
1.000019522e-05
1.000019787e-05
1.000021124e-05
1.000025976e-05
1.000044327e-05
1.000111298e-05
1.000350887e-05
1.001182688e-05
1.00396286e-05
1.012800019e-05
1.039041486e-05
1.109962143e-05
1.277760092e-05
1.606475467e-05
1.000019471e-05
1.000019571e-05
1.000019802e-05
1.000021173e-05
1.000026553e-05
1.000046564e-05
1.000121044e-05
1.00039065e-05
1.001341496e-05
1.004582372e-05
1.015130079e-05
1.047343065e-05
1.137207655e-05
1.356415465e-05
1.000019461e-05
1.000019638e-05
1.000019969e-05
1.000021743e-05
1.000029069e-05
1.000058236e-05
1.000172058e-05
1.000613084e-05
1.00229505e-05
1.008565443e-05
1.031160088e-05
1.108483743e-05
1.352234191e-05
2.020515054e-05
1.000019499e-05
1.000019545e-05
1.000020185e-05
1.000022864e-05
1.000033823e-05
1.000079554e-05
1.00027129e-05
1.001072428e-05
1.004409184e-05
1.018186168e-05
1.074111004e-05
1.293968241e-05
2.107233827e-05
4.767673396e-05
1.000019463e-05
1.000019693e-05
1.00002045e-05
1.000023796e-05
1.000038726e-05
1.000103771e-05
1.000391528e-05
1.001677314e-05
1.007494006e-05
1.034115696e-05
1.15712281e-05
1.726866622e-05
4.32440284e-05
0.0001543468831
1.000019537e-05
1.00001962e-05
1.000020528e-05
1.000024269e-05
1.000041148e-05
1.00011601e-05
1.000456726e-05
1.002042865e-05
1.00963719e-05
1.047363347e-05
1.243794566e-05
2.327923041e-05
8.73688987e-05
0.0004960235
0.003325604068
1.000019493e-05
1.000019564e-05
1.000020355e-05
1.000023828e-05
1.000038724e-05
1.000103894e-05
1.000391477e-05
1.001677342e-05
1.007493823e-05
1.034115136e-05
1.157118559e-05
1.726832156e-05
4.324125201e-05
0.000154324109
0.0005335464011
1.000019475e-05
1.000019537e-05
1.000020208e-05
1.000022861e-05
1.000033759e-05
1.000079547e-05
1.000271114e-05
1.001072362e-05
1.004409048e-05
1.018185549e-05
1.074107341e-05
1.293945122e-05
2.107096233e-05
4.76692602e-05
0.0001127767226
1.000019512e-05
1.000019558e-05
1.000019958e-05
1.000021716e-05
1.000029082e-05
1.000058173e-05
1.000171909e-05
1.000612929e-05
1.002294987e-05
1.008564887e-05
1.03115784e-05
1.108472828e-05
1.352182334e-05
2.020299108e-05
3.428000404e-05
1.000019435e-05
1.000019427e-05
1.000019821e-05
1.000021215e-05
1.000026544e-05
1.000046608e-05
1.000120965e-05
1.00039045e-05
1.00134123e-05
1.004581896e-05
1.015128852e-05
1.047337543e-05
1.137185472e-05
1.356338325e-05
1.790956057e-05
1.000019514e-05
1.000019541e-05
1.00001983e-05
1.000021142e-05
1.000025993e-05
1.00004423e-05
1.000111277e-05
1.000351005e-05
1.001182857e-05
1.00396333e-05
1.012801649e-05
1.039047586e-05
1.10998326e-05
1.277825254e-05
1.000019488e-05
1.000019527e-05
1.000019934e-05
1.000021547e-05
1.000028309e-05
1.000054421e-05
1.000155363e-05
1.000539099e-05
1.001968458e-05
1.007140309e-05
1.025083987e-05
1.083613676e-05
1.257536033e-05
1.703937741e-05
1.000019456e-05
1.000019537e-05
1.000020176e-05
1.000022475e-05
1.000032396e-05
1.000072948e-05
1.000239632e-05
1.000918607e-05
1.003654588e-05
1.014473152e-05
1.055941559e-05
1.207020572e-05
1.712686696e-05
3.171118625e-05
1.000019499e-05
1.000019668e-05
1.000020367e-05
1.000023397e-05
1.000036706e-05
1.000093609e-05
1.000339203e-05
1.001400853e-05
1.005992756e-05
1.025760413e-05
1.109695119e-05
1.455466802e-05
2.794889486e-05
7.361859052e-05
1.000019562e-05
1.000019689e-05
1.000020502e-05
1.000023953e-05
1.000038728e-05
1.000103857e-05
1.000391483e-05
1.001677606e-05
1.007494242e-05
1.034116814e-05
1.157128264e-05
1.726892316e-05
4.324512473e-05
0.0001543504243
1.000019577e-05
1.000019697e-05
1.00002044e-05
1.000023485e-05
1.000036649e-05
1.00009361e-05
1.000339124e-05
1.001400828e-05
1.005992701e-05
1.025760154e-05
1.10969326e-05
1.455454544e-05
2.794823262e-05
7.361606395e-05
1.000019518e-05
1.000019551e-05
1.000020146e-05
1.000022609e-05
1.000032349e-05
1.000072894e-05
1.000239489e-05
1.000918553e-05
1.003654472e-05
1.01447269e-05
1.055939393e-05
1.207008721e-05
1.712628584e-05
3.170869909e-05
6.3178176e-05
1.000019466e-05
1.000019525e-05
1.000019885e-05
1.000021614e-05
1.000028244e-05
1.000054512e-05
1.000155381e-05
1.000538883e-05
1.001968285e-05
1.007139943e-05
1.025082649e-05
1.08360694e-05
1.257507243e-05
1.703830543e-05
2.603045488e-05
1.000019319e-05
1.000019457e-05
1.000019755e-05
1.000021146e-05
1.000026056e-05
1.000044447e-05
1.000111357e-05
1.000350958e-05
1.001182719e-05
1.003962959e-05
1.012800515e-05
1.039043522e-05
1.109968054e-05
1.277774951e-05
1.606503204e-05
1.000019577e-05
1.000019625e-05
1.000019855e-05
1.000020867e-05
1.000024697e-05
1.000038941e-05
1.000089881e-05
1.000266447e-05
1.000858754e-05
1.002765031e-05
1.008580149e-05
1.025114385e-05
1.067944389e-05
1.165939019e-05
1.000019654e-05
1.000019572e-05
1.000019888e-05
1.00002123e-05
1.000026402e-05
1.000046179e-05
1.000119988e-05
1.000390202e-05
1.001352102e-05
1.004657795e-05
1.015478633e-05
1.048572913e-05
1.140479633e-05
1.362376347e-05
1.000019593e-05
1.000019544e-05
1.000019981e-05
1.000021848e-05
1.00002938e-05
1.000059071e-05
1.000176146e-05
1.000630361e-05
1.002358545e-05
1.008749084e-05
1.031408392e-05
1.106872127e-05
1.33530591e-05
1.929867042e-05
1.000019446e-05
1.000019603e-05
1.000020146e-05
1.000022468e-05
1.000032271e-05
1.000072823e-05
1.000239521e-05
1.000918569e-05
1.003654839e-05
1.014473548e-05
1.055942908e-05
1.207024876e-05
1.712696792e-05
3.171127297e-05
1.00001944e-05
1.000019606e-05
1.000020134e-05
1.000022833e-05
1.00003384e-05
1.000079574e-05
1.000271179e-05
1.001072482e-05
1.00440953e-05
1.018187242e-05
1.074115169e-05
1.293982668e-05
2.107274619e-05
4.767719306e-05
1.000019532e-05
1.000019634e-05
1.000020174e-05
1.000022493e-05
1.000032421e-05
1.000073015e-05
1.000239633e-05
1.000918486e-05
1.003654768e-05
1.014473233e-05
1.055942018e-05
1.207020659e-05
1.712679135e-05
3.171072064e-05
1.00001951e-05
1.000019593e-05
1.000020063e-05
1.000021848e-05
1.00002926e-05
1.000058965e-05
1.000175923e-05
1.000630208e-05
1.002358336e-05
1.008748804e-05
1.031407377e-05
1.106868059e-05
1.335291833e-05
1.929842262e-05
1.000019308e-05
1.000019351e-05
1.000019733e-05
1.000021095e-05
1.000026332e-05
1.000046107e-05
1.000119979e-05
1.000390156e-05
1.001351961e-05
1.004657698e-05
1.01547796e-05
1.048570106e-05
1.140468832e-05
1.36234282e-05
1.798721237e-05
1.000019284e-05
1.000019339e-05
1.000019599e-05
1.000020671e-05
1.000024675e-05
1.000038915e-05
1.00008986e-05
1.000266506e-05
1.000858828e-05
1.002764987e-05
1.008579714e-05
1.025112415e-05
1.067937054e-05
1.165916356e-05
1.356538101e-05
1.000019443e-05
1.000019565e-05
1.000019632e-05
1.000020376e-05
1.000023433e-05
1.000033786e-05
1.000069118e-05
1.000187466e-05
1.000567693e-05
1.00173733e-05
1.005142456e-05
1.014387951e-05
1.03736892e-05
1.088470332e-05
1.000019554e-05
1.000019514e-05
1.000019686e-05
1.000020694e-05
1.000024495e-05
1.000038228e-05
1.000087297e-05
1.000258399e-05
1.000835428e-05
1.00270486e-05
1.0084529e-05
1.024936932e-05
1.067990219e-05
1.167099576e-05
1.000019551e-05
1.000019586e-05
1.000019937e-05
1.00002118e-05
1.000026361e-05
1.00004612e-05
1.000120132e-05
1.00039029e-05
1.001352251e-05
1.004657979e-05
1.015478858e-05
1.04857366e-05
1.140481072e-05
1.362377703e-05
1.000019332e-05
1.000019537e-05
1.000019886e-05
1.000021587e-05
1.000028253e-05
1.000054307e-05
1.00015528e-05
1.000538968e-05
1.001968429e-05
1.007140595e-05
1.025085165e-05
1.0836165e-05
1.257541774e-05
1.703942816e-05
1.000019374e-05
1.000019462e-05
1.000019838e-05
1.000021762e-05
1.000029085e-05
1.000058119e-05
1.000171982e-05
1.000612988e-05
1.002295217e-05
1.0085659e-05
1.031162015e-05
1.10848936e-05
1.352246275e-05
2.020521348e-05
1.000019332e-05
1.000019461e-05
1.000019927e-05
1.000021632e-05
1.000028281e-05
1.000054437e-05
1.000155229e-05
1.000538929e-05
1.001968442e-05
1.007140551e-05
1.025084706e-05
1.08361491e-05
1.257536368e-05
1.703927091e-05
1.000019431e-05
1.000019568e-05
1.000019881e-05
1.000021166e-05
1.00002631e-05
1.000046179e-05
1.000120012e-05
1.000390199e-05
1.00135214e-05
1.004657772e-05
1.015478381e-05
1.048572047e-05
1.140476395e-05
1.362369159e-05
1.000019276e-05
1.000019351e-05
1.000019655e-05
1.000020593e-05
1.00002441e-05
1.000038236e-05
1.000087373e-05
1.00025828e-05
1.000835284e-05
1.002704716e-05
1.008452483e-05
1.024935764e-05
1.067987349e-05
1.167096605e-05
1.000019275e-05
1.000019269e-05
1.000019479e-05
1.000020327e-05
1.000023336e-05
1.000033639e-05
1.000069236e-05
1.000187478e-05
1.000567757e-05
1.001737413e-05
1.005142223e-05
1.014387211e-05
1.037366339e-05
1.08846328e-05
1.187660167e-05
1.000019459e-05
1.000019424e-05
1.000019581e-05
1.000020209e-05
1.000022457e-05
1.000030482e-05
1.000057178e-05
1.00014312e-05
1.000409168e-05
1.001195961e-05
1.003395524e-05
1.009139183e-05
1.022946272e-05
1.053002204e-05
1.00001943e-05
1.000019382e-05
1.000019631e-05
1.000020335e-05
1.000023343e-05
1.000033632e-05
1.000069111e-05
1.000187385e-05
1.000567721e-05
1.001737351e-05
1.005142531e-05
1.014388281e-05
1.03736946e-05
1.088470995e-05
1.000019466e-05
1.000019448e-05
1.000019638e-05
1.000020832e-05
1.000024665e-05
1.000039014e-05
1.000089899e-05
1.000266506e-05
1.000858895e-05
1.002765291e-05
1.008580539e-05
1.025115196e-05
1.067945752e-05
1.165940548e-05
1.000019474e-05
1.000019403e-05
1.000019789e-05
1.000021012e-05
1.000025996e-05
1.000044247e-05
1.00011127e-05
1.000350971e-05
1.00118285e-05
1.003963436e-05
1.012802287e-05
1.03904933e-05
1.109986193e-05
1.277827446e-05
1.00001935e-05
1.000019448e-05
1.000019779e-05
1.000021134e-05
1.000026407e-05
1.000046518e-05
1.000120898e-05
1.000390405e-05
1.001341337e-05
1.004582498e-05
1.015130934e-05
1.047345366e-05
1.137211632e-05
1.356416644e-05
1.000019361e-05
1.000019455e-05
1.000019787e-05
1.000021145e-05
1.000025995e-05
1.000044224e-05
1.000111273e-05
1.00035093e-05
1.001182826e-05
1.003963344e-05
1.012801926e-05
1.039048414e-05
1.109983715e-05
1.27782123e-05
1.000019407e-05
1.000019448e-05
1.000019678e-05
1.000020689e-05
1.000024591e-05
1.000038996e-05
1.00008995e-05
1.000266487e-05
1.000858784e-05
1.002765206e-05
1.008580147e-05
1.025114413e-05
1.067943552e-05
1.165935785e-05
1.000019237e-05
1.000019362e-05
1.000019542e-05
1.000020414e-05
1.000023329e-05
1.000033631e-05
1.000069195e-05
1.000187335e-05
1.000567592e-05
1.001737319e-05
1.005142499e-05
1.014387813e-05
1.037368243e-05
1.088469589e-05
1.000019219e-05
1.000019282e-05
1.000019491e-05
1.000020185e-05
1.000022576e-05
1.000030551e-05
1.000057215e-05
1.000143178e-05
1.000409343e-05
1.001195953e-05
1.003395415e-05
1.009139026e-05
1.022945551e-05
1.053002073e-05
)
;

boundaryField
{
    top
    {
        type            zeroGradient;
    }
    bottom
    {
        type            zeroGradient;
    }
    side-walls
    {
        type            zeroGradient;
    }
    inlet
    {
        type            zeroGradient;
    }
    outlet
    {
        type            zeroGradient;
    }
    procBoundary0to1
    {
        type            processor;
        value           nonuniform List<scalar> 
97
(
1.211652403e-05
1.187660412e-05
1.353341124e-05
1.662822264e-05
2.109827343e-05
2.423867027e-05
2.109812811e-05
1.662799744e-05
1.353321002e-05
1.211637771e-05
1.187660412e-05
1.187660412e-05
1.667489705e-05
1.798729866e-05
2.447726145e-05
3.812582507e-05
5.077987039e-05
3.812525661e-05
2.447656106e-05
1.667446468e-05
1.353322437e-05
1.356544299e-05
1.798729866e-05
1.798729866e-05
4.715565083e-05
6.317978954e-05
9.676863874e-05
0.0001606176852
9.676603492e-05
4.715353949e-05
2.447659088e-05
1.662803517e-05
1.606528546e-05
2.603109283e-05
6.317978954e-05
6.317978954e-05
0.0002643578545
0.0005336287389
0.0005875550237
0.0002643481567
9.67662355e-05
3.812535966e-05
2.109821395e-05
1.791014437e-05
3.42822197e-05
0.0001127887989
0.0005336287389
0.0005336287389
0.001964039236
0.0005336256795
0.0005875552449
0.0001884196867
0.0001606182889
5.078010892e-05
2.423882549e-05
1.606522386e-05
2.603057211e-05
6.317541212e-05
0.0001884167589
0.0005336256795
0.0001884196867
0.0001884196867
9.676870988e-05
3.132589591e-05
3.812628819e-05
2.109850423e-05
1.356531525e-05
1.798649495e-05
3.132436533e-05
6.317544482e-05
0.000112788455
6.317519236e-05
3.132589591e-05
3.132589591e-05
2.44772559e-05
1.360047499e-05
1.662835565e-05
1.187640902e-05
1.360014528e-05
1.798651088e-05
2.603062739e-05
3.428214974e-05
2.603042605e-05
1.798661001e-05
1.360047499e-05
1.360047499e-05
1.353341987e-05
1.111349804e-05
1.111339911e-05
1.187641929e-05
1.356534087e-05
1.60652553e-05
1.791012283e-05
1.606515507e-05
1.356529708e-05
1.187645886e-05
1.111349804e-05
)
;
    }
}


// ************************************************************************* //
