/*--------------------------------*- C++ -*----------------------------------*\
| =========                 |                                                 |
| \\      /  F ield         | OpenFOAM: The Open Source CFD Toolbox           |
|  \\    /   O peration     | Version:  4.x                                   |
|   \\  /    A nd           | Web:      www.OpenFOAM.org                      |
|    \\/     M anipulation  |                                                 |
\*---------------------------------------------------------------------------*/
FoamFile
{
    version     2.0;
    format      ascii;
    class       volScalarField;
    location    "2000";
    object      N2;
}
// * * * * * * * * * * * * * * * * * * * * * * * * * * * * * * * * * * * * * //

dimensions      [0 0 0 0 0 0 0];

internalField   nonuniform List<scalar> 
1175
(
0.6203632253
0.6203632253
0.6203632253
0.6203632253
0.6203632253
0.6203632252
0.6203632249
0.6203632238
0.6203632205
0.6203632109
0.6203631838
0.6203631132
0.6203629434
0.6203625738
0.6203618563
0.6203632253
0.6203632253
0.6203632253
0.6203632253
0.6203632253
0.6203632252
0.6203632247
0.6203632233
0.6203632186
0.6203632042
0.6203631623
0.6203630487
0.6203627661
0.6203621379
0.6203609185
0.6203632253
0.6203632253
0.6203632253
0.6203632253
0.6203632253
0.6203632251
0.6203632245
0.6203632223
0.620363215
0.6203631916
0.6203631201
0.6203629168
0.6203623904
0.6203611861
0.6203588431
0.6203632253
0.6203632253
0.6203632253
0.6203632253
0.6203632253
0.620363225
0.6203632242
0.6203632213
0.620363211
0.6203631768
0.6203630682
0.6203627456
0.6203618739
0.6203598115
0.6203557716
0.6203632253
0.6203632253
0.6203632253
0.6203632253
0.6203632252
0.620363225
0.6203632241
0.6203632208
0.6203632091
0.6203631692
0.6203630396
0.6203626437
0.6203615394
0.6203588462
0.6203535054
0.6203632253
0.6203632253
0.6203632253
0.6203632253
0.6203632253
0.620363225
0.6203632242
0.6203632213
0.620363211
0.6203631768
0.6203630682
0.6203627456
0.6203618739
0.6203598116
0.6203557717
0.6203632253
0.6203632253
0.6203632253
0.6203632253
0.6203632253
0.6203632251
0.6203632245
0.6203632223
0.620363215
0.6203631916
0.6203631201
0.6203629168
0.6203623904
0.6203611861
0.6203588433
0.6203632253
0.6203632253
0.6203632253
0.6203632253
0.6203632253
0.6203632252
0.6203632247
0.6203632233
0.6203632186
0.6203632042
0.6203631623
0.6203630487
0.6203627661
0.620362138
0.6203609187
0.6203632253
0.6203632253
0.6203632253
0.6203632253
0.6203632253
0.6203632252
0.6203632249
0.6203632238
0.6203632205
0.6203632109
0.6203631838
0.6203631132
0.6203629434
0.6203625739
0.6203618564
0.6203632253
0.6203632253
0.6203632253
0.6203632253
0.6203632253
0.6203632252
0.6203632247
0.6203632233
0.6203632186
0.6203632042
0.6203631623
0.6203630486
0.6203627661
0.6203621378
0.6203632253
0.6203632253
0.6203632253
0.6203632253
0.6203632253
0.6203632251
0.6203632245
0.6203632224
0.6203632153
0.6203631923
0.6203631216
0.620362919
0.6203623898
0.6203611717
0.6203588001
0.6203632253
0.6203632253
0.6203632253
0.6203632253
0.6203632253
0.620363225
0.6203632241
0.6203632208
0.6203632089
0.6203631683
0.6203630353
0.6203626286
0.6203614992
0.6203587727
0.620353411
0.6203632253
0.6203632253
0.6203632253
0.6203632253
0.6203632252
0.6203632249
0.6203632237
0.6203632189
0.6203632014
0.6203631378
0.6203629173
0.620362198
0.6203600612
0.6203545774
0.62034353
0.6203632253
0.6203632253
0.6203632253
0.6203632253
0.6203632252
0.6203632249
0.6203632235
0.620363218
0.6203631974
0.6203631203
0.6203628426
0.6203618925
0.620358898
0.6203506898
0.6203333965
0.6203632253
0.6203632253
0.6203632253
0.6203632253
0.6203632252
0.6203632249
0.6203632237
0.6203632189
0.6203632014
0.6203631378
0.6203629173
0.620362198
0.6203600612
0.6203545776
0.6203435305
0.6203632253
0.6203632253
0.6203632253
0.6203632253
0.6203632253
0.620363225
0.6203632241
0.6203632208
0.6203632089
0.6203631683
0.6203630353
0.6203626286
0.6203614992
0.620358773
0.6203534116
0.6203632253
0.6203632253
0.6203632253
0.6203632253
0.6203632253
0.6203632251
0.6203632245
0.6203632224
0.6203632153
0.6203631923
0.6203631216
0.620362919
0.6203623899
0.6203611719
0.6203588006
0.6203632253
0.6203632253
0.6203632253
0.6203632253
0.6203632253
0.6203632252
0.6203632247
0.6203632233
0.6203632186
0.6203632042
0.6203631623
0.6203630487
0.6203627661
0.620362138
0.6203609187
0.6203632253
0.6203632253
0.6203632253
0.6203632253
0.6203632253
0.6203632251
0.6203632245
0.6203632223
0.620363215
0.6203631916
0.6203631201
0.6203629168
0.6203623903
0.6203611858
0.6203632253
0.6203632253
0.6203632253
0.6203632253
0.6203632253
0.620363225
0.6203632241
0.6203632208
0.6203632089
0.6203631683
0.6203630353
0.6203626285
0.6203614991
0.6203587723
0.6203632253
0.6203632253
0.6203632253
0.6203632253
0.6203632252
0.6203632248
0.6203632234
0.6203632178
0.6203631966
0.620363118
0.6203628395
0.6203619122
0.6203591057
0.6203518017
0.6203370249
0.6203632253
0.6203632253
0.6203632253
0.6203632253
0.6203632252
0.6203632247
0.6203632226
0.6203632143
0.6203631806
0.6203630477
0.6203625381
0.6203606819
0.6203544704
0.6203365582
0.6202979079
0.6203632253
0.6203632253
0.6203632253
0.6203632253
0.6203632252
0.6203632246
0.6203632222
0.6203632124
0.6203631714
0.6203630021
0.6203623149
0.6203596139
0.6203496249
0.620316955
0.6202369921
0.6203632253
0.6203632253
0.6203632253
0.6203632253
0.6203632252
0.6203632247
0.6203632226
0.6203632143
0.6203631806
0.6203630477
0.6203625381
0.620360682
0.6203544706
0.6203365591
0.6202979107
0.6203632253
0.6203632253
0.6203632253
0.6203632253
0.6203632252
0.6203632248
0.6203632234
0.6203632178
0.6203631966
0.620363118
0.6203628396
0.6203619123
0.6203591059
0.6203518026
0.6203370279
0.6203632253
0.6203632253
0.6203632253
0.6203632253
0.6203632252
0.620363225
0.6203632241
0.6203632208
0.6203632089
0.6203631683
0.6203630353
0.6203626286
0.6203614992
0.620358773
0.6203534116
0.6203632253
0.6203632253
0.6203632253
0.6203632253
0.6203632253
0.6203632251
0.6203632245
0.6203632223
0.620363215
0.6203631916
0.6203631201
0.6203629168
0.6203623904
0.6203611861
0.6203588433
0.6203632253
0.6203632253
0.6203632253
0.6203632253
0.6203632253
0.620363225
0.6203632242
0.6203632213
0.620363211
0.6203631768
0.6203630682
0.6203627456
0.6203618737
0.620359811
0.6203632253
0.6203632253
0.6203632253
0.6203632253
0.6203632252
0.6203632249
0.6203632237
0.6203632189
0.6203632014
0.6203631378
0.6203629172
0.6203621979
0.6203600609
0.6203545763
0.6203632253
0.6203632253
0.6203632253
0.6203632253
0.6203632252
0.6203632247
0.6203632226
0.6203632143
0.6203631806
0.6203630477
0.6203625381
0.6203606818
0.6203544698
0.6203365554
0.6203632253
0.6203632253
0.6203632253
0.6203632253
0.6203632251
0.6203632244
0.6203632214
0.6203632084
0.6203631519
0.620362909
0.6203618777
0.6203576301
0.6203411788
0.6202850952
0.6201441036
0.6203632253
0.6203632253
0.6203632253
0.6203632253
0.6203632251
0.6203632243
0.6203632208
0.620363205
0.6203631335
0.6203628063
0.6203612951
0.6203542966
0.6203223961
0.6201859804
0.6197203218
0.6203632253
0.6203632253
0.6203632253
0.6203632253
0.6203632251
0.6203632244
0.6203632214
0.6203632084
0.6203631519
0.620362909
0.6203618777
0.6203576302
0.6203411797
0.6202850999
0.6201441233
0.6203632253
0.6203632253
0.6203632253
0.6203632253
0.6203632252
0.6203632247
0.6203632226
0.6203632143
0.6203631806
0.6203630477
0.6203625381
0.620360682
0.6203544705
0.6203365589
0.6202979105
0.6203632253
0.6203632253
0.6203632253
0.6203632253
0.6203632252
0.6203632249
0.6203632237
0.6203632189
0.6203632014
0.6203631378
0.6203629173
0.620362198
0.6203600612
0.6203545775
0.6203435304
0.6203632253
0.6203632253
0.6203632253
0.6203632253
0.6203632253
0.620363225
0.6203632242
0.6203632213
0.620363211
0.6203631768
0.6203630682
0.6203627456
0.6203618738
0.6203598115
0.6203557717
0.6203632253
0.6203632253
0.6203632253
0.6203632253
0.6203632252
0.620363225
0.6203632241
0.6203632208
0.6203632091
0.6203631692
0.6203630396
0.6203626436
0.6203615392
0.6203588455
0.6203632253
0.6203632253
0.6203632253
0.6203632253
0.6203632252
0.6203632249
0.6203632235
0.620363218
0.6203631974
0.6203631203
0.6203628426
0.6203618924
0.6203588975
0.6203506879
0.6203632253
0.6203632253
0.6203632253
0.6203632253
0.6203632252
0.6203632246
0.6203632222
0.6203632124
0.6203631714
0.620363002
0.6203623148
0.6203596136
0.6203496234
0.6203169481
0.6203632253
0.6203632253
0.6203632253
0.6203632253
0.6203632251
0.6203632243
0.6203632208
0.620363205
0.6203631335
0.6203628063
0.620361295
0.6203542961
0.6203223928
0.6201859583
0.6203632253
0.6203632253
0.6203632253
0.6203632253
0.6203632251
0.6203632241
0.62036322
0.6203632005
0.6203631071
0.6203626436
0.6203602303
0.620346914
0.6202682055
0.6197664093
0.6162923296
0.6203632253
0.6203632253
0.6203632253
0.6203632253
0.6203632251
0.6203632243
0.6203632208
0.620363205
0.6203631335
0.6203628063
0.620361295
0.6203542964
0.6203223951
0.6201859769
0.6197203179
0.6203632253
0.6203632253
0.6203632253
0.6203632253
0.6203632252
0.6203632246
0.6203632222
0.6203632124
0.6203631714
0.620363002
0.6203623148
0.6203596138
0.6203496245
0.6203169539
0.6202369912
0.6203632253
0.6203632253
0.6203632253
0.6203632253
0.6203632252
0.6203632249
0.6203632235
0.620363218
0.6203631974
0.6203631203
0.6203628426
0.6203618924
0.6203588979
0.6203506895
0.6203333963
0.6203632253
0.6203632253
0.6203632253
0.6203632253
0.6203632252
0.620363225
0.6203632241
0.6203632208
0.6203632091
0.6203631692
0.6203630396
0.6203626436
0.6203615393
0.6203588461
0.6203535053
0.6203632253
0.6203632253
0.6203632253
0.6203632253
0.6203632253
0.620363225
0.6203632242
0.6203632213
0.620363211
0.6203631768
0.6203630682
0.6203627455
0.6203618737
0.620359811
0.6203632253
0.6203632253
0.6203632253
0.6203632253
0.6203632252
0.6203632249
0.6203632237
0.6203632189
0.6203632014
0.6203631378
0.6203629172
0.6203621979
0.6203600608
0.6203545763
0.6203632253
0.6203632253
0.6203632253
0.6203632253
0.6203632252
0.6203632247
0.6203632226
0.6203632143
0.6203631806
0.6203630477
0.6203625381
0.6203606817
0.6203544695
0.620336555
0.6203632253
0.6203632253
0.6203632253
0.6203632253
0.6203632251
0.6203632244
0.6203632214
0.6203632084
0.6203631519
0.620362909
0.6203618776
0.6203576297
0.6203411772
0.6202850889
0.6203632253
0.6203632253
0.6203632253
0.6203632253
0.6203632251
0.6203632243
0.6203632208
0.620363205
0.6203631335
0.6203628063
0.6203612949
0.6203542959
0.6203223921
0.6201859562
0.6203632253
0.6203632253
0.6203632253
0.6203632253
0.6203632251
0.6203632244
0.6203632214
0.6203632084
0.6203631519
0.620362909
0.6203618776
0.6203576298
0.6203411777
0.6202850906
0.6203632253
0.6203632253
0.6203632253
0.6203632253
0.6203632252
0.6203632247
0.6203632226
0.6203632143
0.6203631806
0.6203630477
0.6203625381
0.6203606818
0.6203544699
0.6203365568
0.6202979041
0.6203632253
0.6203632253
0.6203632253
0.6203632253
0.6203632252
0.6203632249
0.6203632237
0.6203632189
0.6203632014
0.6203631378
0.6203629172
0.620362198
0.620360061
0.620354577
0.6203435294
0.6203632253
0.6203632253
0.6203632253
0.6203632253
0.6203632253
0.620363225
0.6203632242
0.6203632213
0.620363211
0.6203631768
0.6203630682
0.6203627456
0.6203618738
0.6203598114
0.6203557715
0.6203632253
0.6203632253
0.6203632253
0.6203632253
0.6203632253
0.6203632251
0.6203632245
0.6203632223
0.620363215
0.6203631916
0.6203631201
0.6203629168
0.6203623903
0.6203611858
0.6203632253
0.6203632253
0.6203632253
0.6203632253
0.6203632252
0.620363225
0.6203632241
0.6203632208
0.6203632089
0.6203631683
0.6203630353
0.6203626285
0.620361499
0.6203587723
0.6203632253
0.6203632253
0.6203632253
0.6203632253
0.6203632252
0.6203632248
0.6203632234
0.6203632178
0.6203631966
0.620363118
0.6203628395
0.6203619121
0.6203591053
0.6203518009
0.6203632253
0.6203632253
0.6203632253
0.6203632253
0.6203632252
0.6203632247
0.6203632226
0.6203632143
0.6203631806
0.6203630477
0.620362538
0.6203606817
0.6203544694
0.620336555
0.6203632253
0.6203632253
0.6203632253
0.6203632253
0.6203632252
0.6203632246
0.6203632222
0.6203632124
0.6203631714
0.620363002
0.6203623148
0.6203596135
0.6203496231
0.6203169478
0.6203632253
0.6203632253
0.6203632253
0.6203632253
0.6203632252
0.6203632247
0.6203632226
0.6203632143
0.6203631806
0.6203630477
0.6203625381
0.6203606817
0.6203544695
0.6203365554
0.6203632253
0.6203632253
0.6203632253
0.6203632253
0.6203632252
0.6203632248
0.6203632234
0.6203632178
0.6203631966
0.620363118
0.6203628395
0.6203619122
0.6203591054
0.620351801
0.6203632253
0.6203632253
0.6203632253
0.6203632253
0.6203632253
0.620363225
0.6203632241
0.6203632208
0.6203632089
0.6203631683
0.6203630353
0.6203626285
0.6203614991
0.6203587725
0.6203534104
0.6203632253
0.6203632253
0.6203632253
0.6203632253
0.6203632253
0.6203632251
0.6203632245
0.6203632223
0.620363215
0.6203631916
0.6203631201
0.6203629168
0.6203623903
0.620361186
0.620358843
0.6203632253
0.6203632253
0.6203632253
0.6203632253
0.6203632253
0.6203632252
0.6203632247
0.6203632233
0.6203632186
0.6203632042
0.6203631623
0.6203630486
0.6203627661
0.6203621378
0.6203632253
0.6203632253
0.6203632253
0.6203632253
0.6203632253
0.6203632251
0.6203632245
0.6203632224
0.6203632153
0.6203631923
0.6203631216
0.620362919
0.6203623898
0.6203611716
0.6203632253
0.6203632253
0.6203632253
0.6203632253
0.6203632253
0.620363225
0.6203632241
0.6203632208
0.6203632089
0.6203631683
0.6203630353
0.6203626285
0.620361499
0.6203587723
0.6203632253
0.6203632253
0.6203632253
0.6203632253
0.6203632252
0.6203632249
0.6203632237
0.6203632189
0.6203632014
0.6203631378
0.6203629172
0.6203621979
0.6203600608
0.6203545762
0.6203632253
0.6203632253
0.6203632253
0.6203632253
0.6203632252
0.6203632249
0.6203632235
0.620363218
0.6203631974
0.6203631203
0.6203628425
0.6203618923
0.6203588974
0.6203506878
0.6203632253
0.6203632253
0.6203632253
0.6203632253
0.6203632252
0.6203632249
0.6203632237
0.6203632189
0.6203632014
0.6203631378
0.6203629172
0.6203621979
0.6203600608
0.6203545764
0.6203632253
0.6203632253
0.6203632253
0.6203632253
0.6203632253
0.620363225
0.6203632241
0.6203632208
0.6203632089
0.6203631683
0.6203630353
0.6203626285
0.620361499
0.6203587723
0.6203632253
0.6203632253
0.6203632253
0.6203632253
0.6203632253
0.6203632251
0.6203632245
0.6203632224
0.6203632153
0.6203631923
0.6203631216
0.620362919
0.6203623898
0.6203611716
0.6203632253
0.6203632253
0.6203632253
0.6203632253
0.6203632253
0.6203632252
0.6203632247
0.6203632233
0.6203632186
0.6203632042
0.6203631623
0.6203630486
0.6203627661
0.6203621379
0.6203609184
0.6203632253
0.6203632253
0.6203632253
0.6203632253
0.6203632253
0.6203632252
0.6203632249
0.6203632238
0.6203632205
0.6203632109
0.6203631838
0.6203631132
0.6203629434
0.6203625738
0.6203632253
0.6203632253
0.6203632253
0.6203632253
0.6203632253
0.6203632252
0.6203632247
0.6203632233
0.6203632186
0.6203632042
0.6203631623
0.6203630486
0.6203627661
0.6203621378
0.6203632253
0.6203632253
0.6203632253
0.6203632253
0.6203632253
0.6203632251
0.6203632245
0.6203632223
0.620363215
0.6203631916
0.6203631201
0.6203629168
0.6203623903
0.6203611858
0.6203632253
0.6203632253
0.6203632253
0.6203632253
0.6203632253
0.620363225
0.6203632242
0.6203632213
0.620363211
0.6203631768
0.6203630682
0.6203627455
0.6203618737
0.620359811
0.6203632253
0.6203632253
0.6203632253
0.6203632253
0.6203632252
0.620363225
0.6203632241
0.6203632208
0.6203632091
0.6203631692
0.6203630395
0.6203626436
0.6203615391
0.6203588455
0.6203632253
0.6203632253
0.6203632253
0.6203632253
0.6203632253
0.620363225
0.6203632242
0.6203632213
0.620363211
0.6203631768
0.6203630682
0.6203627455
0.6203618737
0.620359811
0.6203632253
0.6203632253
0.6203632253
0.6203632253
0.6203632253
0.6203632251
0.6203632245
0.6203632223
0.620363215
0.6203631916
0.6203631201
0.6203629168
0.6203623903
0.6203611858
0.6203632253
0.6203632253
0.6203632253
0.6203632253
0.6203632253
0.6203632252
0.6203632247
0.6203632233
0.6203632186
0.6203632042
0.6203631623
0.6203630486
0.6203627661
0.6203621378
0.6203632253
0.6203632253
0.6203632253
0.6203632253
0.6203632253
0.6203632252
0.6203632249
0.6203632238
0.6203632205
0.6203632109
0.6203631838
0.6203631132
0.6203629434
0.6203625738
)
;

boundaryField
{
    top
    {
        type            zeroGradient;
    }
    bottom
    {
        type            zeroGradient;
    }
    side-walls
    {
        type            zeroGradient;
    }
    inlet
    {
        type            zeroGradient;
    }
    outlet
    {
        type            zeroGradient;
    }
    procBoundary0to1
    {
        type            processor;
        value           nonuniform List<scalar> 
97
(
0.6203606227
0.6203609184
0.6203588812
0.6203550778
0.620349585
0.6203457268
0.6203495852
0.620355078
0.6203588814
0.6203606229
0.6203609184
0.6203609184
0.6203550207
0.6203534103
0.6203454339
0.6203286665
0.6203131236
0.6203286671
0.6203454346
0.6203550212
0.6203588814
0.6203588429
0.6203534103
0.6203534103
0.6203175739
0.6202979027
0.6202566352
0.620178223
0.6202566375
0.620317576
0.6203454346
0.620355078
0.6203557712
0.6203435288
0.6202979027
0.6202979027
0.62005082
0.619720263
0.6196539621
0.6200508291
0.6202566374
0.620328667
0.6203495851
0.6203535048
0.6203333946
0.6202369827
0.619720263
0.619720263
0.6179639619
0.6197202658
0.619653962
0.6201441066
0.6201782227
0.6203131235
0.6203457267
0.6203557713
0.6203435293
0.6202979065
0.6201441089
0.6197202658
0.6201441066
0.6201441066
0.6202566351
0.6203370251
0.6203286662
0.6203495849
0.620358843
0.620353411
0.6203370263
0.6202979066
0.6202369832
0.6202979068
0.6203370251
0.6203370251
0.620345434
0.6203588001
0.6203550777
0.6203609186
0.6203588004
0.620353411
0.6203435293
0.6203333948
0.6203435295
0.6203534109
0.6203588001
0.6203588001
0.6203588812
0.6203618563
0.6203618564
0.6203609186
0.620358843
0.6203557713
0.6203535049
0.6203557714
0.6203588431
0.6203609185
0.6203618563
)
;
    }
}


// ************************************************************************* //
