/*--------------------------------*- C++ -*----------------------------------*\
| =========                 |                                                 |
| \\      /  F ield         | OpenFOAM: The Open Source CFD Toolbox           |
|  \\    /   O peration     | Version:  4.x                                   |
|   \\  /    A nd           | Web:      www.OpenFOAM.org                      |
|    \\/     M anipulation  |                                                 |
\*---------------------------------------------------------------------------*/
FoamFile
{
    version     2.0;
    format      ascii;
    class       surfaceScalarField;
    location    "2000";
    object      phi;
}
// * * * * * * * * * * * * * * * * * * * * * * * * * * * * * * * * * * * * * //

dimensions      [1 0 -1 0 0 0 0];

internalField   nonuniform List<scalar> 
3175
(
9.165401547e-06
2.547031237e-13
-7.570743607e-13
9.165401661e-06
2.603413097e-13
2.643042849e-13
9.165400187e-06
-1.433558446e-13
-4.550725725e-13
9.165404063e-06
7.492218474e-13
2.091043372e-12
9.165405826e-06
-1.409982814e-13
-1.83110074e-12
9.165405606e-06
-8.97930126e-13
-3.328566729e-12
9.165408463e-06
-1.288153638e-12
-3.197585352e-12
9.165412588e-06
-2.92665776e-12
-3.79622942e-12
9.165421129e-06
-3.755781626e-12
-5.660138916e-12
9.16543156e-06
-5.946493178e-12
-8.606496513e-12
9.165457286e-06
-1.147702179e-11
-1.404256732e-11
9.165489979e-06
-1.563623646e-11
-1.920961737e-11
9.165563145e-06
-3.844129158e-11
-3.897941732e-11
9.165636832e-06
-3.557073215e-11
-3.726778887e-11
-9.201639002e-11
9.16541796e-06
-4.134596637e-13
-4.4663994e-13
9.165419155e-06
-6.676631106e-13
-2.858418069e-13
9.16541948e-06
-5.502143322e-15
-5.007437025e-13
9.165420509e-06
1.10257329e-12
3.911920428e-13
9.165420918e-06
-9.702048609e-13
-1.97864478e-12
9.165421837e-06
-1.103627354e-12
-2.964842969e-12
9.165424155e-06
-2.387075399e-12
-2.814884526e-12
9.165427436e-06
-3.257186768e-12
-3.6264288e-12
9.165433709e-06
-8.076382605e-12
-4.617501738e-12
9.165441713e-06
-1.032853344e-11
-8.077220832e-12
9.165462896e-06
-2.040670569e-11
-1.468322151e-11
9.165490692e-06
-2.880815971e-11
-1.895750288e-11
9.165566549e-06
-6.29100989e-11
-4.388999558e-11
9.165633646e-06
-6.413799361e-11
-4.268892447e-11
-1.802821744e-10
-1.43872302e-10
9.165427626e-06
-8.332843949e-13
3.917658753e-13
9.165427017e-06
-9.10687005e-13
1.63132246e-13
9.165428586e-06
-1.901365874e-13
-1.722150915e-14
9.165426018e-06
-1.749869702e-12
-8.581059504e-13
9.165428224e-06
-8.609598734e-13
-2.653598989e-13
9.165427128e-06
-1.874029293e-12
-1.650185003e-12
9.165430218e-06
-2.854894388e-12
-1.836071995e-12
9.165429442e-06
-3.849265456e-12
-3.152977743e-12
9.165433984e-06
-5.757013645e-12
-5.386755499e-12
9.165439137e-06
-8.438371497e-12
-7.453196232e-12
9.165449857e-06
-1.785483077e-11
-1.577498638e-11
9.165469137e-06
-2.402008179e-11
-2.205324688e-11
9.165530999e-06
-6.076577705e-11
-6.38604556e-11
9.165586436e-06
-6.07072802e-11
-6.246137074e-11
-2.145632687e-10
-2.906797516e-10
9.165414249e-06
-1.001645052e-12
2.731839441e-13
9.165415553e-06
7.58840527e-13
-2.930230698e-13
9.165414781e-06
-5.528755255e-13
-3.530775988e-13
9.165415185e-06
-1.799203792e-14
6.787613412e-13
9.165414542e-06
-1.941430792e-12
-2.470112015e-12
9.165414841e-06
-1.95166878e-12
-2.650214264e-12
9.165416486e-06
-2.37749513e-12
-2.304714641e-12
9.165417723e-06
-2.791893522e-12
-1.904334673e-12
9.165419603e-06
-3.222660271e-12
-4.313542323e-12
9.165422877e-06
-4.66601921e-12
-8.034469238e-12
9.165428332e-06
-1.279117256e-11
-1.489449063e-11
9.165445013e-06
-1.832628629e-11
-2.332461737e-11
9.165495588e-06
-4.915433453e-11
-6.739519035e-11
9.165558611e-06
-5.550779755e-11
-6.936709712e-11
-1.869204296e-10
-4.51209356e-10
9.165427584e-06
1.29676216e-12
1.457160593e-12
9.16542567e-06
3.592471488e-13
-5.090500479e-13
9.16542752e-06
4.383815067e-13
-1.926648467e-12
9.165426615e-06
-1.083104524e-12
-8.052357707e-13
9.165427307e-06
-1.277058195e-12
-1.714410282e-13
9.165426274e-06
-5.71124328e-13
-1.715659248e-12
9.16542582e-06
-6.844734717e-13
-1.962069945e-12
9.165426004e-06
1.162992613e-12
-3.348912881e-12
9.165424681e-06
1.232690626e-12
-4.696033284e-12
9.165420322e-06
3.766605624e-12
-8.326302628e-12
9.165415622e-06
1.095222333e-11
-1.550372302e-11
9.165409941e-06
1.715585453e-11
-2.844332108e-11
9.165420174e-06
4.865275729e-11
-1.084001586e-10
9.165426691e-06
5.495999554e-11
-1.179080183e-10
1.880871185e-10
-1.037152057e-09
9.165419104e-06
8.85771916e-13
4.335701564e-13
9.165421152e-06
8.758919413e-13
1.016480924e-12
9.165420127e-06
6.891932381e-13
-2.034403535e-13
9.165419365e-06
5.565489201e-13
-1.161663683e-13
9.165421176e-06
2.028961711e-13
-6.954169151e-14
9.16541929e-06
2.48106627e-13
-7.27105686e-13
9.165421408e-06
2.046590368e-12
-3.320592445e-13
9.16542148e-06
1.586096437e-12
-2.153995541e-12
9.165424096e-06
4.11713324e-12
-3.634371873e-12
9.165424272e-06
6.31030602e-12
-7.004539727e-12
9.165432817e-06
1.596070362e-11
-1.252478046e-11
9.165447988e-06
2.325687522e-11
-2.264380269e-11
9.165498123e-06
6.155116553e-11
-6.571904053e-11
9.165560074e-06
6.067137017e-11
-6.846067999e-11
2.139162541e-10
-4.510871496e-10
9.165426988e-06
1.875106732e-12
8.320127155e-14
9.165426659e-06
1.194270513e-12
2.059146919e-12
9.165425026e-06
8.255011394e-13
2.63566816e-13
9.165426357e-06
1.698008141e-13
5.257113366e-13
9.16542752e-06
1.11563983e-12
8.324060992e-14
9.165428008e-06
9.657442187e-13
-8.225754676e-13
9.165428159e-06
1.000481975e-12
-2.313094883e-12
9.165430575e-06
2.147049487e-12
-2.465715384e-12
9.165434884e-06
7.347958428e-12
-4.355726647e-12
9.165439658e-06
9.839834719e-12
-7.021260847e-12
9.165451196e-06
1.977459125e-11
-1.541650937e-11
9.165471805e-06
2.709200869e-11
-2.257429718e-11
9.165531888e-06
6.3213909e-11
-6.53750067e-11
9.165587012e-06
6.369430345e-11
-5.998424347e-11
1.796426195e-10
-2.902270344e-10
9.165415349e-06
-3.497828218e-13
-5.71170846e-13
9.165416319e-06
7.101840619e-13
-1.951208201e-13
9.165415138e-06
9.922465584e-13
4.615568929e-14
9.165416944e-06
5.662276381e-13
-1.049997377e-12
9.165416983e-06
1.303128185e-12
-5.410057942e-13
9.16541889e-06
1.31959297e-12
-6.670137414e-13
9.16541992e-06
1.043495075e-12
-6.97856522e-13
9.165424096e-06
3.881207802e-12
-2.231468985e-12
9.165429552e-06
2.967664227e-12
-5.699338899e-12
9.165441282e-06
4.400871982e-12
-7.798237856e-12
9.165461969e-06
1.125854946e-11
-1.483872693e-11
9.16549114e-06
1.559863229e-11
-1.758387861e-11
9.165562822e-06
3.645529258e-11
-4.669706453e-11
9.16563349e-06
3.567577147e-11
-4.182561884e-11
9.304666166e-11
-1.424768037e-10
9.165403964e-06
2.527522979e-13
9.165401794e-06
-6.098223109e-13
9.165401018e-06
-4.802736054e-13
9.16540385e-06
3.676373693e-13
9.165405203e-06
1.884391967e-13
9.165407228e-06
-4.179592524e-13
9.165413029e-06
4.297498984e-13
9.165413503e-06
-2.05030519e-12
9.16542149e-06
-3.541035581e-12
9.165435562e-06
-4.862334732e-12
9.165461023e-06
-1.108632887e-11
9.165494837e-06
-1.489683297e-11
9.16556865e-06
-3.72795535e-11
9.165641581e-06
-3.65477701e-11
-9.199761122e-11
9.165404228e-06
3.454041155e-13
7.68863689e-13
9.165403729e-06
1.219891663e-12
-1.867938766e-13
9.165404565e-06
1.761104304e-13
-1.275266891e-12
9.165404014e-06
2.363501784e-13
-4.383983388e-13
9.16540604e-06
5.216326206e-13
5.168647918e-15
9.165407859e-06
-6.927265839e-13
-1.9775045e-13
9.165409073e-06
-1.291108522e-12
-2.731040648e-12
9.165412695e-06
-2.383088482e-12
-3.805586621e-12
9.165419698e-06
-3.77459885e-12
-7.824258391e-12
9.165429128e-06
-6.836040653e-12
-1.196352874e-11
9.165447575e-06
-1.3999538e-11
-2.305788528e-11
9.165479569e-06
-1.720660081e-11
-2.974051067e-11
9.165551094e-06
-4.313025122e-11
-6.691545053e-11
-4.10381055e-11
-6.644431883e-11
9.165417886e-06
-1.673742923e-13
-9.651227704e-13
9.165417921e-06
-1.006519677e-12
-1.512563334e-12
9.165418203e-06
-2.633658442e-13
-5.009526e-13
9.165418728e-06
-8.343843256e-13
-1.480027533e-12
9.165419614e-06
2.878538168e-13
-7.971268267e-13
9.165419186e-06
-4.66696609e-13
-9.992070571e-13
9.165421716e-06
-2.408797775e-12
-2.082869907e-12
9.16542389e-06
-3.082841328e-12
-4.713527546e-12
9.165428603e-06
-7.693711964e-12
-7.701882905e-12
9.165438917e-06
-9.077268559e-12
-1.073993277e-11
9.165454718e-06
-2.068820142e-11
-2.267466988e-11
9.165479747e-06
-2.981116622e-11
-3.219950966e-11
9.165541969e-06
-7.83372532e-11
-8.006042913e-11
9.165613196e-06
-7.634258667e-11
-7.835920555e-11
-2.908740751e-10
9.165389789e-06
-9.453901874e-13
-2.016495099e-12
9.165390641e-06
-2.221489852e-12
-1.792555543e-12
9.165391987e-06
-1.212348178e-12
-5.60314862e-13
9.165393684e-06
-8.423574754e-14
-4.081098969e-13
9.165393184e-06
-1.484372153e-12
-2.425596024e-12
9.165393603e-06
-2.18700286e-12
-2.560845017e-12
9.165395424e-06
-3.02361182e-12
-2.693772735e-12
9.165393374e-06
-2.7416433e-12
-5.2327469e-12
9.165396596e-06
-5.420799873e-12
-6.826702804e-12
9.165397e-06
-9.493987354e-12
-1.060519565e-11
9.165401456e-06
-1.870774243e-11
-2.279504932e-11
9.165411058e-06
-2.697246628e-11
-3.902487288e-11
9.165452438e-06
-7.643876008e-11
-1.086072936e-10
9.1655106e-06
-7.381339536e-11
-1.168727257e-10
-4.015478375e-10
-6.47136131e-10
9.165419683e-06
1.204961518e-12
-2.24902511e-12
9.165421994e-06
1.470174821e-12
7.135603367e-13
9.165421639e-06
-5.116889144e-13
4.550172202e-13
9.165418769e-06
-1.93095582e-14
-1.155950574e-12
9.165420291e-06
8.010629242e-13
-7.417185354e-13
9.165419958e-06
-7.530458486e-13
-1.505879003e-12
9.165420465e-06
-1.913786659e-12
-2.398845376e-12
9.165417591e-06
-3.632533298e-12
-5.727830619e-12
9.165416798e-06
-3.60495392e-12
-5.853074971e-12
9.165416202e-06
-5.512754613e-12
-1.062905999e-11
9.165416021e-06
-1.255138603e-11
-1.600836651e-11
9.165424217e-06
-2.25896887e-11
-4.124580738e-11
9.165446749e-06
-6.787808498e-11
-9.56431753e-11
9.165542974e-06
-8.076348564e-11
-1.565373809e-10
-3.812678893e-10
-1.074258914e-09
9.165386054e-06
1.330109514e-13
-1.460247271e-12
9.165386661e-06
1.325416032e-12
3.300972396e-13
9.165389363e-06
2.187556417e-12
1.58099072e-12
9.165387354e-06
-4.588552425e-13
-4.529698783e-13
9.165384564e-06
-1.278026722e-12
1.069238149e-13
9.165385419e-06
7.919140293e-13
-6.563648246e-13
9.16538461e-06
4.467503601e-13
-2.067202263e-12
9.165383511e-06
1.54692246e-12
-3.168447828e-12
9.165379629e-06
2.175316939e-12
-4.409970633e-12
9.165371325e-06
4.228662627e-12
-9.765733972e-12
9.165349259e-06
1.233668528e-11
-1.777751915e-11
9.165322667e-06
2.117104691e-11
-4.305834825e-11
9.165242494e-06
6.768267556e-11
-1.657683953e-10
9.165224186e-06
8.163979799e-11
-2.614811092e-10
3.811857996e-10
-2.941411282e-09
9.165408285e-06
5.412702067e-13
-1.376643484e-12
9.165407766e-06
2.246766209e-12
-1.104220277e-12
9.165408659e-06
1.809907922e-12
4.121707013e-13
9.165411303e-06
9.061730932e-13
-8.924192013e-13
9.165411557e-06
6.8816876e-13
-5.319122159e-13
9.165410816e-06
2.717927892e-13
-1.29699474e-12
9.165412324e-06
5.91447141e-13
-3.006954391e-12
9.16541044e-06
2.33381562e-12
-3.794405828e-12
9.165410073e-06
3.841499126e-12
-4.283386493e-12
9.165411902e-06
6.405783833e-12
-9.262667923e-12
9.165411043e-06
1.403593932e-11
-1.655867473e-11
9.165420715e-06
2.376975967e-11
-4.022107427e-11
9.165443064e-06
7.347662306e-11
-9.618512911e-11
9.165539147e-06
7.437069784e-11
-1.568584758e-10
4.002992984e-10
-1.0740498e-09
9.16541693e-06
9.073527827e-13
-9.392565383e-13
9.165415574e-06
-7.143243122e-13
-1.582400085e-12
9.165413504e-06
-4.478520883e-13
-8.355611113e-13
9.165415519e-06
-4.581370826e-13
1.417103954e-13
9.165417425e-06
4.494914477e-13
3.434668235e-13
9.165417848e-06
1.901561282e-13
-1.78978757e-13
9.165421188e-06
2.40927502e-12
-8.005859159e-13
9.165419039e-06
2.278584589e-12
-3.12460969e-12
9.165422404e-06
6.114460429e-12
-4.162656196e-12
9.165421081e-06
8.208612055e-12
-1.067624599e-11
9.165426941e-06
2.064957226e-11
-2.074833202e-11
9.165437636e-06
3.019026536e-11
-3.635904024e-11
9.165483722e-06
7.790722867e-11
-1.074047401e-10
9.165534813e-06
7.595867504e-11
-1.174686338e-10
2.931412066e-10
-6.447631371e-10
9.165413477e-06
2.607351438e-13
-1.108868694e-12
9.165415055e-06
2.092431286e-12
-1.882429465e-13
9.165413081e-06
1.916177915e-12
3.284403995e-13
9.16541547e-06
1.075176497e-12
9.516337492e-13
9.165415583e-06
8.435459678e-13
4.341555931e-13
9.165417368e-06
1.30673604e-12
1.005445106e-12
9.165417091e-06
1.144366215e-12
-1.843159906e-12
9.16541986e-06
2.430407835e-12
-3.162176369e-12
9.165423706e-06
4.764424971e-12
-5.258437209e-12
9.165430431e-06
5.961490293e-12
-8.036800848e-12
9.165449292e-06
1.421284082e-11
-1.722646713e-11
9.165471886e-06
1.804253853e-11
-2.963132375e-11
9.165538801e-06
4.618612833e-11
-7.610052491e-11
9.165607379e-06
4.126595407e-11
-7.547450665e-11
1.440214067e-10
-2.925677275e-10
9.165414407e-06
2.052504638e-13
9.165415114e-06
4.690191477e-13
9.165413133e-06
-1.117041787e-12
9.165415862e-06
-3.45250548e-13
9.165417231e-06
3.594953412e-14
9.165417504e-06
3.756576184e-13
9.16542026e-06
-9.141674402e-13
9.16542366e-06
-4.127170129e-12
9.165428332e-06
-7.549608549e-12
9.165441142e-06
-8.087948298e-12
9.165462518e-06
-1.733528323e-11
9.16549102e-06
-2.571011974e-11
9.165562507e-06
-6.268417048e-11
9.16563343e-06
-6.276851112e-11
-1.799651976e-10
9.165413861e-06
-1.166694702e-12
4.160276687e-13
9.16541353e-06
-3.013746193e-13
-1.865330194e-13
9.165413545e-06
-2.853819225e-13
7.576167199e-13
9.165413238e-06
-2.439747696e-13
1.813875992e-12
9.16541389e-06
-9.2613061e-14
5.835537935e-14
9.16541492e-06
-4.167776767e-13
-1.132416004e-13
9.165418606e-06
-6.015511784e-13
-1.525898922e-12
9.165418143e-06
-2.861133593e-12
-5.567837378e-12
9.165421919e-06
-3.28798082e-12
-6.740034688e-12
9.16542631e-06
-6.185289421e-12
-8.397887254e-12
9.16543841e-06
-1.372573605e-11
-1.777715992e-11
9.165457335e-06
-1.992257853e-11
-2.454183741e-11
9.165519652e-06
-6.213009156e-11
-6.201534964e-11
-5.996584085e-11
-6.101626708e-11
9.165411152e-06
-1.479288305e-12
2.703435411e-13
9.165410995e-06
-1.917948834e-12
-2.32353468e-13
9.165412433e-06
1.964490391e-13
4.927990991e-13
9.165410391e-06
-1.018742415e-12
1.873361411e-14
9.165410256e-06
-1.818885303e-12
-4.821293494e-13
9.165411358e-06
-1.68178054e-12
-1.738597767e-12
9.165410552e-06
-2.667043537e-12
-2.548068605e-12
9.165411209e-06
-4.073392798e-12
-3.772864203e-12
9.165409851e-06
-6.558780076e-12
-5.361376626e-12
9.165411515e-06
-9.486505352e-12
-8.921381093e-12
9.165415681e-06
-2.053825451e-11
-1.766346874e-11
9.165427276e-06
-3.657456959e-11
-2.73244792e-11
9.165469668e-06
-1.066035674e-10
-7.580754297e-11
-1.163651849e-10
-7.352126757e-11
9.165406475e-06
-2.255321219e-13
4.293914504e-13
9.165409334e-06
6.700106571e-13
1.912026228e-12
9.165407482e-06
1.184188638e-13
-3.494089426e-13
9.165407793e-06
-4.749456189e-13
9.731738079e-14
9.165407547e-06
-3.900374529e-14
5.287356352e-13
9.165407064e-06
-1.90010138e-12
-1.131698923e-12
9.165406468e-06
-2.513608743e-12
-1.967360543e-12
9.165406354e-06
-3.341583667e-12
-2.811692208e-12
9.165403792e-06
-5.342651522e-12
-4.833607577e-12
9.165397156e-06
-9.913306531e-12
-8.581925305e-12
9.165384481e-06
-1.749684188e-11
-1.659773844e-11
9.16537084e-06
-3.13163579e-11
-3.011771501e-11
9.16536019e-06
-1.045529916e-10
-1.034592802e-10
9.165367447e-06
-1.214028272e-10
-1.20834451e-10
-1.056047018e-09
9.165423513e-06
1.140562967e-12
4.809617575e-13
9.165424652e-06
4.82112338e-13
-2.680331406e-13
9.165422646e-06
-2.740319429e-13
-7.725671423e-15
9.165423285e-06
3.316173985e-13
1.116752865e-12
9.16542236e-06
1.10285233e-13
2.375460087e-13
9.165422415e-06
-4.576791491e-13
-1.055377231e-12
9.165421199e-06
-7.278647299e-13
-9.05233567e-14
9.165418199e-06
-1.273029976e-12
-1.856789906e-12
9.165413996e-06
-2.539071492e-12
-1.458292552e-12
9.165409151e-06
-4.855401645e-12
-4.932393963e-12
9.165394658e-06
-1.391732524e-11
-3.883790754e-12
9.165376803e-06
-2.592643886e-11
-2.813007126e-11
9.165341081e-06
-1.119702545e-10
-4.75355343e-11
9.165402093e-06
-1.565992293e-10
-1.821200987e-10
-1.092261515e-09
-2.080635415e-09
9.1654042e-06
-2.667409195e-13
-9.565627751e-13
9.165404553e-06
-7.044562221e-13
-1.341191736e-14
9.16540216e-06
-8.041047837e-14
-1.096072774e-12
9.165402016e-06
-1.794880181e-12
-2.339307556e-13
9.165400031e-06
-1.335148016e-12
-1.704247659e-12
9.165400148e-06
1.699961863e-13
-9.647135846e-13
9.165398482e-06
3.012283659e-14
-1.306796001e-12
9.165394882e-06
6.377231566e-13
-1.166062901e-12
9.16538485e-06
2.12693178e-12
-2.121351737e-12
9.165369762e-06
5.243327473e-12
-3.646574316e-12
9.165322369e-06
1.399300877e-11
1.415563956e-12
9.165228014e-06
2.575761619e-11
-4.093518669e-12
9.164937106e-06
1.124486124e-10
-9.858686351e-11
9.164479672e-06
1.574295006e-10
-1.144262708e-10
1.093004941e-09
-7.646042107e-09
9.165410951e-06
1.159409162e-12
3.654085251e-13
9.165413648e-06
1.984796511e-12
1.003499757e-12
9.165410471e-06
5.246156368e-13
1.198935612e-12
9.165412165e-06
2.639103111e-12
7.751943932e-13
9.165411204e-06
1.482061546e-12
-1.081114433e-12
9.1654101e-06
1.074259073e-12
6.004085583e-14
9.16541106e-06
2.343606197e-12
-1.150796402e-12
9.1654083e-06
4.005319651e-12
-2.861103871e-12
9.165402225e-06
4.799547891e-12
-3.24145276e-12
9.165396383e-06
7.178719769e-12
-8.026411403e-12
9.165379804e-06
1.498356807e-11
-3.387873421e-12
9.165363107e-06
3.078665077e-11
-2.61945718e-11
9.165326923e-06
1.036651341e-10
-4.813001841e-11
9.165389032e-06
1.210702839e-10
-1.82483374e-10
1.057821291e-09
-2.080753918e-09
9.165462286e-06
1.190791903e-12
-9.370276326e-13
9.165460778e-06
-6.15854082e-13
-1.398492685e-12
9.165461372e-06
1.000970458e-12
8.950348278e-13
9.165460339e-06
8.903478915e-13
-6.247080181e-13
9.165460997e-06
1.267481137e-12
-3.808684046e-13
9.165459974e-06
1.713020092e-12
-1.310130041e-12
9.165459163e-06
1.745603881e-12
-1.987316178e-12
9.1654581e-06
3.174105471e-12
-2.955316325e-12
9.165453151e-06
4.790819724e-12
-5.578405747e-12
9.165449634e-06
1.037169859e-11
-8.311867966e-12
9.165436729e-06
2.240147335e-11
-1.570890091e-11
9.165421919e-06
3.695722707e-11
-2.940436523e-11
9.165412071e-06
1.078150321e-10
-1.020592271e-10
9.165419488e-06
1.173858714e-10
-1.205217102e-10
6.455149684e-10
-1.057828305e-09
9.165409618e-06
1.505424072e-12
6.886730747e-13
9.165410053e-06
2.445159147e-12
6.947146245e-13
9.165408835e-06
4.324249607e-13
1.819424512e-13
9.165410052e-06
-3.024997301e-14
-3.564896837e-13
9.165409835e-06
1.120463786e-13
3.110315185e-14
9.165408917e-06
7.550523358e-13
-1.055518643e-12
9.165411028e-06
1.680145704e-12
-9.318113953e-13
9.165409578e-06
1.312825576e-12
-2.791852275e-12
9.165412154e-06
3.107745459e-12
-5.070411825e-12
9.165413634e-06
5.130119876e-12
-8.690077731e-12
9.165417203e-06
1.43260185e-11
-1.699783633e-11
9.16542995e-06
2.337060392e-11
-2.555398298e-11
9.16547152e-06
6.418256653e-11
-7.725136274e-11
9.165525694e-06
6.065937804e-11
-7.517420654e-11
2.9170548e-10
-4.019294986e-10
9.165439519e-06
-1.043659459e-13
9.165437353e-06
-1.550168689e-12
9.165437774e-06
-1.002038517e-12
9.165438633e-06
-7.017350815e-13
9.165438561e-06
-1.83002285e-13
9.165439329e-06
-3.540168366e-13
9.165440336e-06
-7.988554204e-13
9.165443652e-06
-2.852423116e-12
9.16544704e-06
-4.942602142e-12
9.165453673e-06
-7.186653832e-12
9.165464985e-06
-1.702937545e-11
9.165482554e-06
-2.531275368e-11
9.165544337e-06
-6.31265096e-11
9.165601077e-06
-6.139521904e-11
-2.157622749e-10
9.165428184e-06
-1.275249421e-12
2.56141215e-13
9.165430212e-06
-1.196087349e-12
1.650140817e-12
9.165430509e-06
-8.325459101e-13
9.881622034e-14
9.165427821e-06
-5.904666829e-13
2.000146075e-13
9.165429324e-06
5.960210119e-13
1.321212957e-12
9.165429565e-06
-1.065888914e-12
-7.514645879e-13
9.165431467e-06
-2.446051153e-14
-2.573017078e-13
9.165434014e-06
-1.595986077e-12
-4.819796812e-13
9.165436077e-06
-3.009202633e-12
-2.266691412e-12
9.165437411e-06
-7.237954719e-12
-5.292179353e-12
9.165445798e-06
-1.211252698e-11
-9.432339774e-12
9.165460385e-06
-2.246596762e-11
-1.677973785e-11
9.165511748e-06
-6.288730872e-11
-4.820880767e-11
-6.66259508e-11
-5.424700938e-11
9.165394855e-06
-1.372588631e-12
6.677488379e-13
9.165396788e-06
6.83400823e-13
1.848632832e-12
9.165395743e-06
-3.77420365e-14
6.853311507e-13
9.165394958e-06
-1.553533499e-12
-1.167022004e-13
9.165393069e-06
-1.599945292e-12
-1.66276882e-13
9.165394394e-06
-1.684163383e-12
9.698356929e-14
9.165392902e-06
-2.689863258e-12
-1.547426048e-12
9.16539473e-06
-3.540365621e-12
-1.666591262e-12
9.165394327e-06
-5.259803522e-12
-2.763059896e-12
9.165395162e-06
-8.934651451e-12
-4.347369052e-12
9.165392705e-06
-1.542673861e-11
-1.263110424e-11
9.165404223e-06
-3.845028075e-11
-2.098226322e-11
9.165426213e-06
-9.337597201e-11
-6.812316104e-11
-1.554899489e-10
-8.003449188e-11
9.165411966e-06
-4.976108862e-13
1.381482289e-12
9.165412279e-06
-1.810071631e-12
-1.796962777e-13
9.165412112e-06
6.084768032e-13
-6.427533943e-13
9.165411891e-06
1.618895103e-12
4.035127851e-13
9.165411476e-06
2.62869354e-13
3.24995685e-13
9.165411077e-06
-1.297554263e-12
1.173935526e-13
9.165409975e-06
-7.226945299e-13
-1.926592288e-13
9.16540896e-06
-2.027116897e-12
-1.115801173e-12
9.165404704e-06
-2.24063286e-12
-2.903471968e-12
9.165396526e-06
-6.003258406e-12
-5.101135893e-12
9.165382138e-06
-4.135719042e-12
-1.366049649e-11
9.165364269e-06
-2.868918169e-11
-2.727433802e-11
9.165326847e-06
-4.825975486e-11
-1.133473972e-10
-1.8241137e-10
-1.562623964e-10
9.165390869e-06
3.897271934e-13
5.611718576e-16
9.165394282e-06
4.526067065e-13
1.66955543e-12
9.165391412e-06
-1.448983914e-12
3.414849168e-13
9.165389197e-06
-1.062849068e-12
-9.487187953e-13
9.16538839e-06
-9.373926114e-13
7.014228289e-15
9.165389399e-06
-6.641195359e-13
1.379312597e-13
9.165386345e-06
-2.914357372e-12
4.680001986e-14
9.165387725e-06
-8.457016766e-13
-1.46406081e-12
9.165385304e-06
-1.898765974e-12
-2.502167362e-12
9.165379271e-06
-4.850310996e-12
-2.558553503e-12
9.165387482e-06
-7.029367079e-12
-6.053211078e-12
9.165383031e-06
-2.399607613e-11
-2.410785457e-11
9.165490694e-06
-1.020372129e-10
-1.028710611e-10
9.165832881e-06
-3.504678532e-10
-3.504274877e-10
-2.232440132e-09
9.165423269e-06
8.609237907e-13
1.21599672e-12
9.165424736e-06
1.595548459e-12
2.368004967e-13
9.16542477e-06
1.938810288e-12
9.338350862e-15
9.165422584e-06
-8.999710641e-13
1.354294373e-13
9.165423434e-06
-7.315686088e-13
7.672737744e-13
9.165421142e-06
5.429547824e-13
9.142025649e-13
9.165422032e-06
1.774458264e-13
1.440863401e-12
9.165417977e-06
-6.057437343e-13
-6.702807635e-14
9.165412894e-06
9.920390316e-13
-8.821915879e-13
9.165404313e-06
2.601455856e-12
1.242581288e-12
9.16538791e-06
7.729871796e-12
1.486329593e-12
9.165297855e-06
2.530144209e-11
3.946332464e-11
9.1650381e-06
1.017016048e-10
-4.576490909e-11
9.163833639e-06
3.504203822e-10
3.898637483e-10
2.233031298e-09
-1.473967357e-08
9.165422657e-06
-7.437862357e-14
-4.757437602e-14
9.165424025e-06
-5.995024685e-13
-2.528671732e-12
9.165419956e-06
2.481591403e-14
-2.492528486e-12
9.165420958e-06
1.069851515e-12
-9.77367371e-13
9.165422045e-06
1.834367916e-12
8.332930613e-14
9.165420301e-06
-7.553050192e-14
-1.31039144e-13
9.165421128e-06
1.474669077e-12
6.049434724e-13
9.165420003e-06
3.675532686e-12
1.373796353e-12
9.165414901e-06
1.729598754e-12
-1.098414232e-12
9.165412988e-06
5.95522358e-12
-3.247237208e-12
9.165417027e-06
2.071330792e-12
-7.922001791e-12
9.165410485e-06
2.772090101e-11
-2.491629576e-11
9.165521186e-06
4.946965798e-11
-1.017065544e-10
9.165860662e-06
1.827000945e-10
-3.502449305e-10
2.080512998e-09
-2.233278467e-09
9.165391808e-06
1.570929867e-12
2.39097947e-13
9.165392859e-06
1.49035018e-12
-7.743737848e-13
9.165391819e-06
3.449725494e-13
-1.604817614e-12
9.165393445e-06
1.027245325e-12
3.955193629e-13
9.16539284e-06
1.491081098e-12
1.419301298e-13
9.165391851e-06
1.966757235e-12
1.881543509e-12
9.165392217e-06
3.398741713e-12
9.09928862e-13
9.165389162e-06
3.716361032e-12
6.455162364e-13
9.165385252e-06
5.424290279e-12
-2.44347074e-12
9.165381887e-06
9.678542566e-12
-4.880097001e-12
9.165365225e-06
1.627151919e-11
-1.367474036e-11
9.165346082e-06
3.824676146e-11
-2.625135473e-11
9.165309908e-06
9.294955771e-11
-1.123037421e-10
9.165370958e-06
1.550472105e-10
-1.562733994e-10
1.072328443e-09
-1.093052972e-09
9.165419639e-06
1.419914022e-12
-8.301952991e-13
9.165419147e-06
-1.942668418e-13
-1.793739938e-12
9.165418434e-06
-3.315405268e-13
-5.374489618e-13
9.165420039e-06
-5.228029484e-13
-9.98209115e-13
9.165417836e-06
1.418412887e-13
3.238350876e-13
9.165419352e-06
6.583577493e-13
1.546175795e-12
9.165418201e-06
1.434205548e-12
2.150037659e-13
9.165416973e-06
1.058814097e-12
-1.00822603e-12
9.165417898e-06
3.491053568e-12
-2.001986749e-12
9.16542032e-06
6.813756583e-12
-3.261540225e-12
9.16541666e-06
1.261976256e-11
-1.391525474e-11
9.165427006e-06
2.239031956e-11
-2.009110573e-11
9.165451332e-06
6.554505206e-11
-6.872770117e-11
9.165545538e-06
6.770018804e-11
-8.196697677e-11
4.517175434e-10
-3.803625088e-10
9.165413782e-06
-2.754762451e-12
9.165413742e-06
-3.140339398e-12
9.165414379e-06
-4.537377845e-13
9.165416162e-06
1.351612153e-12
9.165414722e-06
2.109224614e-12
9.165416487e-06
9.875214204e-13
9.165416607e-06
-7.284518212e-13
9.165418981e-06
-1.055001061e-14
9.165419968e-06
-1.998651807e-12
9.165424176e-06
-3.318506518e-12
9.165429155e-06
-1.084436834e-11
9.165445541e-06
-1.615742582e-11
9.16549692e-06
-4.956277153e-11
9.165558485e-06
-5.59302354e-11
-1.877907792e-10
9.165401057e-06
-2.761524754e-13
9.055359914e-14
9.165398849e-06
-1.359975602e-12
-9.603202792e-13
9.165402283e-06
-4.077916882e-13
2.260071156e-13
9.165402659e-06
-7.968287459e-13
1.456983801e-12
9.165400482e-06
-5.559803541e-13
1.098551912e-12
9.165400522e-06
-2.344903181e-13
3.084972865e-13
9.16540036e-06
-1.528518362e-12
9.349568227e-13
9.165401879e-06
-1.853533635e-12
1.612335811e-12
9.165399799e-06
-2.986882418e-12
1.178357004e-12
9.165396903e-06
-5.992692649e-12
4.980909491e-12
9.165389885e-06
-1.514007323e-11
1.192805546e-11
9.165384565e-06
-2.690170634e-11
1.711200637e-11
9.165395767e-06
-1.070852658e-10
4.937027263e-11
-1.152556092e-10
5.689904971e-11
9.165408959e-06
-8.218747363e-13
-1.127033645e-13
9.165407713e-06
-8.128380203e-13
-4.953771524e-13
9.165409813e-06
-8.042832385e-13
1.072771526e-13
9.165410561e-06
-1.677663396e-13
3.791981857e-13
9.165408e-06
-4.216622311e-13
5.820280589e-13
9.16540859e-06
-1.183999629e-12
2.905285359e-13
9.165406431e-06
-1.132411053e-12
1.824474445e-12
9.165405614e-06
-2.89187214e-12
1.901592115e-12
9.165401877e-06
-5.431060457e-12
2.660489367e-12
9.16539311e-06
-1.031387528e-11
4.684243156e-12
9.165371172e-06
-1.734511667e-11
1.296307759e-11
9.16534605e-06
-4.268419928e-11
2.155296227e-11
9.165265387e-06
-1.636045668e-10
6.982995575e-11
-2.599144841e-10
8.235376967e-11
9.165414791e-06
-1.212925395e-12
3.383936492e-13
9.165416139e-06
5.300710449e-13
4.125254406e-14
9.165416613e-06
1.232305939e-12
7.423013927e-13
9.165415718e-06
4.693968166e-13
9.936903439e-14
9.165412908e-06
-3.049378332e-14
6.578127376e-13
9.165412713e-06
-9.819250953e-13
7.258500006e-13
9.165410999e-06
-4.133197462e-13
1.484384481e-12
9.165407245e-06
-2.039995669e-12
1.396586185e-12
9.165398245e-06
-1.444576922e-12
1.943986276e-12
9.165380366e-06
-2.177892796e-12
5.29529845e-12
9.165331537e-06
2.085202688e-12
1.314110013e-11
9.165240615e-06
-3.805320648e-12
2.554416535e-11
9.164950662e-06
-9.834167951e-11
1.134173358e-10
-1.145667648e-10
1.577891526e-10
9.165408992e-06
8.291467986e-13
5.863212704e-13
9.165407366e-06
-9.358227779e-13
9.430885738e-13
9.165405682e-06
-8.680988282e-13
1.07384778e-12
9.165404752e-06
-5.275182776e-13
-1.022584765e-13
9.165403718e-06
-3.606465691e-13
-4.248482827e-13
9.165404743e-06
7.848907723e-13
1.280717055e-12
9.165401524e-06
-7.813696682e-13
5.881034509e-13
9.165400563e-06
6.995266158e-13
1.631446741e-12
9.165397087e-06
-1.196422754e-12
1.446236618e-12
9.165384628e-06
1.923384775e-13
2.775384158e-12
9.165368919e-06
5.433080895e-13
5.603599579e-12
9.165278183e-06
3.954085773e-11
2.49906282e-11
9.165020063e-06
-4.461184515e-11
1.035946116e-10
3.898511834e-10
3.519155584e-10
9.165412929e-06
-2.418820492e-13
3.281188361e-13
9.165414665e-06
-2.170177433e-12
1.05905804e-12
9.165417249e-06
-7.331848719e-13
9.154831789e-13
9.165414953e-06
-1.111741588e-12
2.311938573e-13
9.165412572e-06
-1.492937781e-12
1.461504922e-13
9.165410757e-06
3.903726641e-14
5.383344965e-13
9.16540959e-06
-8.986927044e-14
8.966107771e-13
9.165408638e-06
5.78122619e-13
4.055688468e-13
9.165404986e-06
5.27012228e-13
1.519623633e-12
9.16541238e-06
-1.986601173e-12
-9.796375328e-13
9.165417563e-06
-2.071173365e-12
-1.180684696e-12
9.165579375e-06
-3.866245436e-11
-3.878681837e-11
9.165397723e-06
4.575125812e-11
4.651050753e-11
9.166965217e-06
-3.893106467e-10
-3.876035153e-10
1.473883558e-08
9.16540337e-06
3.65678805e-13
-8.776030832e-14
9.165406631e-06
1.554727316e-12
1.85304129e-12
9.165407233e-06
1.055286085e-12
1.128005956e-12
9.16540618e-06
1.614169255e-12
1.031195556e-12
9.165406192e-06
1.153426224e-12
2.933478272e-13
9.165403234e-06
2.221286477e-12
4.530062051e-13
9.165403217e-06
1.32372762e-12
4.521706899e-13
9.165400514e-06
2.002078242e-12
-4.132519783e-13
9.165393368e-06
4.578991622e-13
1.322994548e-12
9.165385672e-06
2.407450587e-12
3.52755988e-12
9.165371789e-06
-1.905962162e-12
6.661777971e-12
9.165278935e-06
4.019752751e-12
2.3475015e-11
9.165020424e-06
9.834120751e-11
1.030243392e-10
9.163814404e-06
1.154569392e-10
3.527430423e-10
7.646943287e-09
9.165425811e-06
6.20065244e-13
3.06207367e-13
9.165427398e-06
1.660460332e-12
7.592652527e-13
9.165427513e-06
1.340830035e-12
1.487304073e-13
9.165425503e-06
-2.290913976e-13
3.964489233e-13
9.165425464e-06
7.925145537e-13
3.719051281e-13
9.165422107e-06
1.685359372e-12
4.884032209e-13
9.16542305e-06
2.402012103e-12
1.532450513e-13
9.165417461e-06
2.413556012e-12
5.009861714e-13
9.165411738e-06
5.167350223e-12
3.098209274e-12
9.165394971e-06
9.632636895e-12
5.746320777e-12
9.165346921e-06
1.681396283e-11
1.447348179e-11
9.165252651e-06
4.297523261e-11
2.635362318e-11
9.164962317e-06