/*--------------------------------*- C++ -*----------------------------------*\
| =========                 |                                                 |
| \\      /  F ield         | OpenFOAM: The Open Source CFD Toolbox           |
|  \\    /   O peration     | Version:  4.x                                   |
|   \\  /    A nd           | Web:      www.OpenFOAM.org                      |
|    \\/     M anipulation  |                                                 |
\*---------------------------------------------------------------------------*/
FoamFile
{
    version     2.0;
    format      ascii;
    class       volScalarField;
    location    "2000";
    object      rho;
}
// * * * * * * * * * * * * * * * * * * * * * * * * * * * * * * * * * * * * * //

dimensions      [1 -3 0 0 0 0 0];

internalField   nonuniform List<scalar> 
1175
(
0.2699627511
0.2699627477
0.2699627567
0.2699627533
0.2699627818
0.2699627562
0.2699627658
0.2699627582
0.2699627605
0.2699627411
0.2699627557
0.2699627671
0.2699628506
0.269962972
0.2699632209
0.2699632615
0.2699632414
0.2699632424
0.2699632177
0.269963223
0.2699632415
0.2699632608
0.2699632545
0.2699632756
0.2699632484
0.2699632634
0.269963286
0.2699633806
0.2699636063
0.2699640415
0.2699634617
0.2699634772
0.2699634588
0.2699634433
0.2699634599
0.2699634713
0.2699634199
0.2699634242
0.2699634306
0.2699634477
0.2699634964
0.2699635806
0.2699637757
0.269964181
0.2699650129
0.2699631026
0.2699631046
0.269963122
0.2699631304
0.2699631267
0.2699631255
0.2699631041
0.26996311
0.2699631437
0.2699631449
0.2699632312
0.2699633882
0.2699636896
0.2699643945
0.2699658055
0.2699634584
0.2699634639
0.2699634484
0.269963463
0.2699634503
0.2699634331
0.269963472
0.2699634704
0.2699634849
0.2699635124
0.2699635471
0.2699636863
0.2699640588
0.2699650324
0.2699669212
0.2699632479
0.2699632598
0.269963254
0.269963242
0.2699632451
0.2699632548
0.2699632549
0.2699632368
0.2699632353
0.2699632743
0.2699632622
0.2699634103
0.2699637489
0.2699644432
0.269965853
0.2699634841
0.269963475
0.2699634721
0.2699634397
0.2699634564
0.2699634664
0.2699634958
0.2699634934
0.2699634835
0.2699635054
0.2699634962
0.2699635997
0.2699637886
0.2699641911
0.2699650423
0.2699631906
0.2699631649
0.2699631926
0.2699632043
0.2699631347
0.2699631401
0.2699631464
0.2699631555
0.2699632037
0.2699631998
0.2699632331
0.2699632458
0.2699633682
0.2699635861
0.2699639906
0.2699627874
0.2699627826
0.2699627799
0.269962797
0.2699628075
0.2699628112
0.2699628021
0.2699628328
0.2699628071
0.2699627874
0.2699627888
0.2699628254
0.2699629009
0.2699630304
0.2699632878
0.2699628115
0.2699628369
0.2699628502
0.269962832
0.2699628133
0.2699627886
0.2699628005
0.2699628009
0.269962833
0.2699628599
0.2699628728
0.2699628943
0.2699629879
0.2699632004
0.2699632222
0.2699632228
0.269963242
0.2699632285
0.2699632
0.2699632146
0.2699631859
0.2699632164
0.2699632505
0.2699632919
0.2699633257
0.2699634249
0.2699635979
0.2699640297
0.2699648355
0.2699624395
0.2699624289
0.269962455
0.2699624655
0.2699624907
0.269962515
0.2699625029
0.2699624863
0.2699625053
0.2699625089
0.2699625265
0.2699626635
0.269963057
0.2699639826
0.2699658921
0.2699633035
0.2699633001
0.2699633109
0.2699632662
0.2699632703
0.2699632655
0.2699632278
0.269963251
0.2699632528
0.2699632713
0.2699633185
0.2699635595
0.2699642898
0.2699662412
0.2699701392
0.2699623199
0.2699623209
0.2699623443
0.2699623207
0.2699622781
0.2699622379
0.2699622519
0.2699622732
0.2699622757
0.2699623239
0.269962423
0.2699627513
0.269963847
0.2699667408
0.2699728172
0.2699629328
0.2699629314
0.2699629368
0.2699629796
0.2699630013
0.2699630265
0.2699630289
0.2699630063
0.2699630336
0.2699630945
0.2699631862
0.2699634624
0.2699642125
0.2699661502
0.2699700315
0.2699632083
0.2699631789
0.2699631637
0.2699631755
0.2699631678
0.2699631765
0.26996319
0.2699632677
0.2699632712
0.2699632543
0.2699632973
0.2699634223
0.2699637928
0.2699647802
0.2699666538
0.2699631295
0.2699631307
0.2699631042
0.2699631043
0.2699630957
0.2699631137
0.2699631045
0.2699630815
0.2699631031
0.2699631062
0.2699631397
0.2699632078
0.2699634102
0.2699638313
0.2699646764
0.2699631507
0.2699631393
0.2699631196
0.2699631437
0.2699631273
0.2699631195
0.2699631153
0.2699631389
0.2699631787
0.2699631375
0.2699631654
0.2699631728
0.2699632711
0.2699635074
0.2699639501
0.2699630765
0.269963063
0.2699630731
0.269963071
0.2699631014
0.2699631239
0.2699631177
0.2699631432
0.2699631228
0.2699631195
0.2699631381
0.2699631923
0.2699633712
0.2699638075
0.2699629953
0.2699630159
0.2699629823
0.2699629745
0.2699629861
0.269962983
0.2699629888
0.2699629975
0.2699629879
0.2699629649
0.2699630021
0.2699631448
0.2699635374
0.2699644981
0.2699628587
0.2699628753
0.2699628981
0.2699628908
0.2699628758
0.2699628979
0.2699629227
0.2699629676
0.269962978
0.2699630273
0.2699630598
0.2699633551
0.2699643814
0.2699669449
0.2699721321
0.2699633884
0.269963378
0.2699633412
0.2699633631
0.2699633432
0.2699633515
0.2699633381
0.2699633655
0.2699634046
0.2699634195
0.2699636096
0.2699643215
0.2699665343
0.2699728148
0.2699864449
0.2699628049
0.2699627746
0.2699627737
0.2699627897
0.2699627646
0.2699627315
0.2699627298
0.2699627124
0.2699627335
0.2699627774
0.2699630391
0.2699639948
0.2699675385
0.2699790467
0.2700072586
0.2699630078
0.2699630177
0.2699630345
0.269963067
0.2699630516
0.269963032
0.269963036
0.2699630126
0.2699630165
0.2699630796
0.2699632403
0.2699638927
0.2699660911
0.2699724275
0.2699860484
0.2699645027
0.2699645215
0.269964498
0.2699644911
0.2699644726
0.2699644897
0.2699644891
0.2699644611
0.2699644703
0.269964479
0.2699645706
0.2699648987
0.2699658593
0.2699684431
0.2699736337
0.2699630093
0.2699630043
0.2699629969
0.2699629743
0.2699629951
0.2699629759
0.2699629506
0.2699629473
0.269962924
0.2699629171
0.2699630009
0.2699631367
0.2699635434
0.2699644878
0.269966388
0.2699638304
0.2699638503
0.2699638384
0.2699638325
0.2699638575
0.2699638313
0.2699637926
0.2699637968
0.2699638048
0.2699638129
0.2699638672
0.269963926
0.2699641132
0.2699645412
0.2699653754
0.2699635591
0.2699635779
0.2699635828
0.2699635864
0.2699635653
0.2699635686
0.2699635959
0.2699636033
0.2699636327
0.2699636666
0.2699636745
0.2699637962
0.2699640748
0.2699647795
0.2699625267
0.2699625385
0.2699625692
0.2699625724
0.2699625636
0.2699625414
0.2699625132
0.2699625322
0.269962572
0.2699625736
0.2699626546
0.2699629024
0.2699637103
0.2699656345
0.2699630446
0.2699630473
0.2699630426
0.2699630898
0.2699630574
0.2699630626
0.2699630792
0.2699630757
0.2699631105
0.2699631311
0.2699633043
0.2699639559
0.2699661812
0.2699725085
0.2699623996
0.2699624026
0.2699624582
0.2699624578
0.2699624331
0.2699624173
0.2699624225
0.2699624408
0.2699624702
0.2699625559
0.2699629621
0.2699644712
0.2699702807
0.2699901034
0.2700398692
0.2699633648
0.269963355
0.2699633655
0.2699633991
0.2699633985
0.2699634298
0.2699634224
0.2699634417
0.2699634663
0.26996359
0.2699641039
0.2699665508
0.2699778058
0.2700259139
0.2701947424
0.2699633787
0.2699633786
0.2699633719
0.2699633718
0.2699633689
0.2699633499
0.2699633316
0.2699633626
0.2699633999
0.2699634403
0.2699638013
0.2699653345
0.2699711379
0.2699909785
0.2700406974
0.2699624283
0.2699624493
0.2699624689
0.2699625074
0.2699624765
0.2699624641
0.2699625076
0.2699624817
0.2699624792
0.2699625742
0.2699627378
0.2699634365
0.269965611
0.2699719213
0.2699855783
0.2699632709
0.269963287
0.2699632778
0.2699632378
0.26996324
0.2699632593
0.2699632442
0.269963227
0.2699632684
0.2699632398
0.2699633738
0.2699636103
0.2699643711
0.2699662929
0.2699702166
0.2699631113
0.2699631235
0.2699631197
0.2699631498
0.2699631315
0.2699631341
0.2699631301
0.2699631419
0.2699631662
0.2699631846
0.2699632362
0.2699633259
0.2699636567
0.2699643976
0.2699658122
0.2699627291
0.2699627442
0.2699627238
0.2699627293
0.2699627408
0.2699627032
0.2699627325
0.2699627778
0.2699627818
0.2699627757
0.2699627917
0.269962941
0.2699633466
0.269964262
0.2699629547
0.269962984
0.2699629494
0.2699629436
0.2699629472
0.2699630057
0.2699630077
0.2699630067
0.2699629554
0.2699630219
0.2699631021
0.2699634227
0.269964492
0.2699674042
0.2699631433
0.2699631106
0.2699631305
0.2699631536
0.2699631614
0.2699631339
0.2699631506
0.2699631272
0.2699631286
0.2699631789
0.269963391
0.2699643528
0.2699678895
0.2699794172
0.2699628884
0.2699628975
0.2699628815
0.2699628666
0.2699628894
0.2699628837
0.269962906
0.2699628714
0.2699629347
0.2699630554
0.2699635677
0.2699660237
0.2699772432
0.2700253681
0.2699630988
0.2699630842
0.2699631209
0.26996311
0.2699631461
0.2699631317
0.2699631013
0.2699631227
0.2699631552
0.2699632732
0.2699641501
0.2699688436
0.269996604
0.2701737537
0.2742070143
0.269962838
0.2699628243
0.2699628292
0.2699628553
0.2699628862
0.2699629284
0.269962906
0.2699628887
0.2699628712
0.2699630163
0.2699635856
0.2699660845
0.2699773243
0.2700254013
0.2701942659
0.2699634961
0.2699634759
0.2699634867
0.2699634938
0.2699634787
0.2699634684
0.2699634344
0.2699634595
0.2699634925
0.2699635389
0.2699637906
0.2699647635
0.2699682528
0.2699797746
0.2700079446
0.2699633972
0.269963383
0.2699633623
0.2699633342
0.2699633359
0.2699633372
0.2699633142
0.2699633102
0.2699633102
0.2699633306
0.2699633987
0.2699637792
0.2699648239
0.2699677028
0.2699738134
0.2699633228
0.2699632995
0.2699633161
0.2699633119
0.2699633139
0.2699633068
0.2699632946
0.2699632881
0.2699633085
0.2699633165
0.2699634101
0.2699635682
0.2699639511
0.2699648937
0.2699667292
0.2699627251
0.2699627181
0.2699627135
0.2699627224
0.2699627132
0.2699627054
0.269962723
0.2699627646
0.2699627822
0.2699628065
0.2699628641
0.2699629453
0.2699632643
0.2699640239
0.2699640718
0.2699640677
0.2699640666
0.2699640404
0.2699640502
0.2699640514
0.2699640746
0.269964102
0.2699641115
0.2699640996
0.2699641369
0.2699644199
0.269965178
0.2699671007
0.2699631832
0.2699631669
0.2699631897
0.2699631687
0.2699631733
0.2699631453
0.2699631527
0.2699631472
0.2699631212
0.2699631872
0.2699633607
0.269963993
0.2699661751
0.2699724726
0.2699631742
0.2699632063
0.2699632146
0.2699632051
0.2699632325
0.2699632079
0.2699632129
0.2699632054
0.2699632225
0.2699632946
0.2699636785
0.2699652011
0.2699709888
0.2699907555
0.2699633941
0.2699633809
0.2699633831
0.2699633991
0.2699633627
0.2699633842
0.2699633761
0.2699634198
0.2699633897
0.269963485
0.2699639813
0.2699664787
0.2699776944
0.2700258095
0.2699628168
0.2699628151
0.2699628299
0.2699628254
0.2699628092
0.2699628019
0.2699627898
0.2699628072
0.269962833
0.269962926
0.2699633166
0.2699648221
0.2699706125
0.2699904394
0.2699627591
0.2699627273
0.2699627515
0.2699627779
0.2699627536
0.2699627378
0.2699627458
0.2699627773
0.2699627661
0.2699628409
0.2699630384
0.2699636793
0.2699659014
0.2699722355
0.2699858723
0.2699627636
0.269962758
0.2699627406
0.2699627357
0.2699627142
0.269962744
0.2699627275
0.2699626468
0.2699626553
0.2699626467
0.2699627394
0.2699629874
0.2699637495
0.2699657069
0.2699696331
0.2699634178
0.2699634458
0.2699634458
0.2699634828
0.2699634827
0.2699635013
0.2699634669
0.2699634715
0.2699634513
0.2699634514
0.2699634821
0.2699635884
0.2699639014
0.2699646428
0.2699660398
0.2699639821
0.2699639811
0.2699639772
0.2699639668
0.269963915
0.2699638766
0.2699638531
0.2699638256
0.2699638228
0.2699638316
0.2699638472
0.2699638937
0.2699641173
0.2699645077
0.269962644
0.2699626083
0.2699626109
0.2699626179
0.2699626255
0.2699626119
0.2699625976
0.2699626061
0.2699626108
0.2699626199
0.2699626901
0.2699627865
0.2699631909
0.2699641371
0.2699637883
0.2699637372
0.2699637308
0.2699637347
0.2699637552
0.2699637422
0.2699637518
0.2699637644
0.2699637849
0.2699637815
0.2699638649
0.2699641844
0.2699651627
0.2699677418
0.2699626998
0.2699627009
0.2699626913
0.2699626719
0.2699626449
0.2699626259
0.2699626358
0.2699626551
0.2699627238
0.2699627851
0.2699629258
0.2699635821
0.269965758
0.2699720801
0.2699627555
0.2699627625
0.2699627349
0.2699627633
0.2699627941
0.2699627794
0.269962761
0.2699627704
0.2699628277
0.2699628896
0.2699631459
0.2699641119
0.2699676754
0.2699791955
0.269963264
0.2699632782
0.2699632824
0.2699632585
0.2699632754
0.2699632711
0.2699632884
0.2699632417
0.2699632937
0.2699632777
0.2699634442
0.2699640918
0.2699662351
0.2699725011
0.2699634458
0.2699634359
0.269963419
0.2699633854
0.2699633616
0.2699633343
0.2699632849
0.2699633312
0.2699633408
0.2699633786
0.2699634696
0.2699638059
0.2699648039
0.2699674078
0.2699626663
0.2699626668
0.2699626931
0.2699627111
0.2699626927
0.269962681
0.2699626792
0.2699627082
0.269962685
0.2699627344
0.269962792
0.2699629402
0.2699633058
0.2699642797
0.269966167
0.2699634041
0.269963404
0.2699633972
0.2699633925
0.2699634244
0.269963403
0.2699634087
0.2699634237
0.2699634488
0.2699634441
0.269963479
0.2699635218
0.2699637074
0.2699641421
0.2699649308
0.2699634667
0.2699634985
0.2699634539
0.2699634499
0.2699635153
0.2699635286
0.2699634804
0.2699635045
0.2699634967
0.2699634789
0.2699634845
0.2699634899
0.2699635833
0.2699638168
0.2699637106
0.2699636784
0.2699636392
0.2699636285
0.2699636086
0.2699635831
0.2699635687
0.2699635934
0.2699636259
0.2699636201
0.2699636413
0.2699637082
0.2699639182
0.2699643996
0.269962584
0.2699625699
0.2699625788
0.2699625301
0.2699625238
0.2699625086
0.2699625548
0.2699625764
0.2699626034
0.2699625945
0.2699626056
0.2699627521
0.2699631864
0.2699641621
0.269962551
0.269962599
0.26996259
0.2699626268
0.2699626325
0.2699626237
0.2699626479
0.2699626352
0.2699626251
0.269962646
0.2699627611
0.2699629975
0.2699637324
0.2699656962
0.2699627072
0.2699627133
0.26996272
0.2699627517
0.2699627523
0.269962746
0.2699627711
0.2699627746
0.2699627827
0.2699627975
0.2699628836
0.2699632195
0.2699642976
0.2699672198
0.2699631771
0.2699631941
0.2699632138
0.2699632366
0.2699632318
0.2699632456
0.2699631948
0.2699631885
0.2699632362
0.269963293
0.2699633905
0.2699636321
0.2699643879
0.2699663109
0.2699639167
0.2699639383
0.2699639362
0.2699639318
0.2699639185
0.2699639446
0.2699639389
0.2699639694
0.2699639821
0.2699639598
0.269964001
0.26996414
0.2699645719
0.269965567
0.2699634388
0.2699634508
0.2699634566
0.2699634125
0.2699634324
0.269963436
0.2699634299
0.2699634116
0.2699634345
0.2699634375
0.2699634401
0.2699634958
0.2699637141
0.2699641504
0.2699629085
0.2699628888
0.26996289
0.2699629026
0.2699629218
0.2699629119
0.26996294
0.2699629363
0.2699629601
0.2699629857
0.2699629765
0.2699630159
0.2699631153
0.2699633392
0.2699637819
0.2699635834
0.2699635618
0.269963556
0.2699635397
0.269963496
0.2699634778
0.2699634649
0.2699634664
0.269963443
0.2699634593
0.2699634843
0.2699634946
0.2699636001
0.2699637413
0.2699631112
0.269963094
0.2699631041
0.2699630653
0.2699630775
0.2699630729
0.26996307
0.269963067
0.2699630828
0.2699630574
0.269963071
0.2699631197
0.26996323
0.2699634514
0.2699629032
0.269962905
0.2699628985
0.2699629575
0.2699629318
0.2699629429
0.2699629188
0.2699629253
0.2699629445
0.2699629622
0.2699629768
0.2699630052
0.2699632207
0.2699636208
0.2699625783
0.2699625357
0.2699625569
0.2699625401
0.2699625794
0.2699625633
0.2699625571
0.2699625741
0.2699625796
0.2699625683
0.2699626194
0.2699627566
0.2699630317
0.2699637181
0.2699634643
0.2699634719
0.2699634472
0.2699634332
0.2699634199
0.2699634293
0.2699634211
0.2699634113
0.2699634274
0.2699634612
0.269963506
0.2699636555
0.2699640384
0.2699650068
0.2699636222
0.2699636329
0.2699636446
0.2699636625
0.2699636372
0.2699635951
0.269963594
0.2699636107
0.2699636086
0.269963591
0.2699636217
0.2699637523
0.2699640549
0.2699647996
0.2699641817
0.269964173
0.2699641512
0.2699641215
0.2699641079
0.2699641405
0.2699641423
0.2699641444
0.2699641383
0.2699641663
0.2699641215
0.2699642178
0.2699644337
0.2699648336
0.2699630512
0.2699630726
0.2699630833
0.269963114
0.2699631135
0.2699631022
0.2699631206
0.2699630605
0.2699630715
0.269963081
0.26996314
0.2699631659
0.2699632584
0.2699635165
0.2699631729
0.2699631815
0.2699631889
0.2699631879
0.2699631939
0.2699631836
0.269963175
0.2699631859
0.2699631999
0.2699631629
0.2699631779
0.2699632437
0.2699632883
0.2699634232
)
;

boundaryField
{
    top
    {
        type            calculated;
        value           nonuniform List<scalar> 
134
(
0.2699627874
0.2699631507
0.2699638304
0.2699631113
0.2699633228
0.2699634178
0.2699634041
0.2699629085
0.2699631729
0.2699627826
0.2699631393
0.2699638503
0.2699631235
0.2699632995
0.2699634458
0.269963404
0.2699628888
0.2699631815
0.2699627799
0.2699631196
0.2699638384
0.2699631197
0.2699633161
0.2699634458
0.2699633972
0.26996289
0.2699631889
0.269962797
0.2699631437
0.2699638325
0.2699631498
0.2699633119
0.2699634828
0.2699633925
0.2699629026
0.2699631879
0.2699628075
0.2699631273
0.2699638575
0.2699631315
0.2699633139
0.2699634827
0.2699634244
0.2699629218
0.2699631939
0.2699628112
0.2699631195
0.2699638313
0.2699631341
0.2699633068
0.2699635013
0.269963403
0.2699629119
0.2699631836
0.2699628021
0.2699631153
0.2699637926
0.2699631301
0.2699632946
0.2699634669
0.2699634087
0.26996294
0.269963175
0.2699628328
0.2699631389
0.2699637968
0.2699631419
0.2699632881
0.2699634715
0.2699634237
0.2699629363
0.2699631859
0.2699628071
0.2699631787
0.2699638048
0.2699631662
0.2699633085
0.2699634513
0.2699634488
0.2699629601
0.2699631999
0.2699627874
0.2699631375
0.2699638129
0.2699631846
0.2699633165
0.2699634514
0.2699634441
0.2699629857
0.2699631629
0.2699627888
0.2699631654
0.2699638672
0.2699632362
0.2699634101
0.2699634821
0.269963479
0.2699629765
0.2699631779
0.2699628254
0.2699631728
0.269963926
0.2699633259
0.2699635682
0.2699635884
0.2699635218
0.2699630159
0.2699632437
0.2699629009
0.2699632711
0.2699641132
0.2699636567
0.2699639511
0.2699639014
0.2699637074
0.2699631153
0.2699632883
0.2699630304
0.2699635074
0.2699645412
0.2699643976
0.2699648937
0.2699646428
0.2699641421
0.2699633392
0.2699634232
0.2699632878
0.2699639501
0.2699653754
0.2699658122
0.2699667292
0.2699660398
0.2699649308
0.2699637819
)
;
    }
    bottom
    {
        type            calculated;
        value           nonuniform List<scalar> 
127
(
0.2699627511
0.2699628115
0.2699630765
0.2699635591
0.2699627291
0.2699627251
0.2699639821
0.2699634667
0.2699635834
0.2699627477
0.2699628369
0.269963063
0.2699635779
0.2699627442
0.2699627181
0.2699639811
0.2699634985
0.2699635618
0.2699627567
0.2699628502
0.2699630731
0.2699635828
0.2699627238
0.2699627135
0.2699639772
0.2699634539
0.269963556
0.2699627533
0.269962832
0.269963071
0.2699635864
0.2699627293
0.2699627224
0.2699639668
0.2699634499
0.2699635397
0.2699627818
0.2699628133
0.2699631014
0.2699635653
0.2699627408
0.2699627132
0.269963915
0.2699635153
0.269963496
0.2699627562
0.2699627886
0.2699631239
0.2699635686
0.2699627032
0.2699627054
0.2699638766
0.2699635286
0.2699634778
0.2699627658
0.2699628005
0.2699631177
0.2699635959
0.2699627325
0.269962723
0.2699638531
0.2699634804
0.2699634649
0.2699627582
0.2699628009
0.2699631432
0.2699636033
0.2699627778
0.2699627646
0.2699638256
0.2699635045
0.2699634664
0.2699627605
0.269962833
0.2699631228
0.2699636327
0.2699627818
0.2699627822
0.2699638228
0.2699634967
0.269963443
0.2699627411
0.2699628599
0.2699631195
0.2699636666
0.2699627757
0.2699628065
0.2699638316
0.2699634789
0.2699634593
0.2699627557
0.2699628728
0.2699631381
0.2699636745
0.2699627917
0.2699628641
0.2699638472
0.2699634845
0.2699634843
0.2699627671
0.2699628943
0.2699631923
0.2699637962
0.269962941
0.2699629453
0.2699638937
0.2699634899
0.2699634946
0.2699628506
0.2699629879
0.2699633712
0.2699640748
0.2699633466
0.2699632643
0.2699641173
0.2699635833
0.2699636001
0.269962972
0.2699632004
0.2699638075
0.2699647795
0.269964262
0.2699640239
0.2699645077
0.2699638168
0.2699637413
0.2699632209
)
;
    }
    side-walls
    {
        type            calculated;
        value           nonuniform List<scalar> 
261
(
0.2699627511
0.2699632615
0.2699634617
0.2699631026
0.2699634584
0.2699632479
0.2699634841
0.2699631906
0.2699627874
0.2699627477
0.2699632414
0.2699634772
0.2699631046
0.2699634639
0.2699632598
0.269963475
0.2699631649
0.2699627826
0.2699627567
0.2699632424
0.2699634588
0.269963122
0.2699634484
0.269963254
0.2699634721
0.2699631926
0.2699627799
0.2699627533
0.2699632177
0.2699634433
0.2699631304
0.269963463
0.269963242
0.2699634397
0.2699632043
0.269962797
0.2699627818
0.269963223
0.2699634599
0.2699631267
0.2699634503
0.2699632451
0.2699634564
0.2699631347
0.2699628075
0.2699627562
0.2699632415
0.2699634713
0.2699631255
0.2699634331
0.2699632548
0.2699634664
0.2699631401
0.2699628112
0.2699627658
0.2699632608
0.2699634199
0.2699631041
0.269963472
0.2699632549
0.2699634958
0.2699631464
0.2699628021
0.2699627582
0.2699632545
0.2699634242
0.26996311
0.2699634704
0.2699632368
0.2699634934
0.2699631555
0.2699628328
0.2699627605
0.2699632756
0.2699634306
0.2699631437
0.2699634849
0.2699632353
0.2699634835
0.2699632037
0.2699628071
0.2699627411
0.2699632484
0.2699634477
0.2699631449
0.2699635124
0.2699632743
0.2699635054
0.2699631998
0.2699627874
0.2699627557
0.2699632634
0.2699634964
0.2699632312
0.2699635471
0.2699632622
0.2699634962
0.2699632331
0.2699627888
0.2699627671
0.269963286
0.2699635806
0.2699633882
0.2699636863
0.2699634103
0.2699635997
0.2699632458
0.2699628254
0.2699628506
0.2699633806
0.2699637757
0.2699636896
0.2699640588
0.2699637489
0.2699637886
0.2699633682
0.2699629009
0.269962972
0.2699636063
0.269964181
0.2699643945
0.2699650324
0.2699644432
0.2699641911
0.2699635861
0.2699630304
0.2699632209
0.2699640415
0.2699650129
0.2699658055
0.2699669212
0.269965853
0.2699650423
0.2699639906
0.2699632878
0.2699635834
0.2699631112
0.2699629032
0.2699625783
0.2699634643
0.2699636222
0.2699641817
0.2699630512
0.2699631729
0.2699635618
0.269963094
0.269962905
0.2699625357
0.2699634719
0.2699636329
0.269964173
0.2699630726
0.2699631815
0.269963556
0.2699631041
0.2699628985
0.2699625569
0.2699634472
0.2699636446
0.2699641512
0.2699630833
0.2699631889
0.2699635397
0.2699630653
0.2699629575
0.2699625401
0.2699634332
0.2699636625
0.2699641215
0.269963114
0.2699631879
0.269963496
0.2699630775
0.2699629318
0.2699625794
0.2699634199
0.2699636372
0.2699641079
0.2699631135
0.2699631939
0.2699634778
0.2699630729
0.2699629429
0.2699625633
0.2699634293
0.2699635951
0.2699641405
0.2699631022
0.2699631836
0.2699634649
0.26996307
0.2699629188
0.2699625571
0.2699634211
0.269963594
0.2699641423
0.2699631206
0.269963175
0.2699634664
0.269963067
0.2699629253
0.2699625741
0.2699634113
0.2699636107
0.2699641444
0.2699630605
0.2699631859
0.269963443
0.2699630828
0.2699629445
0.2699625796
0.2699634274
0.2699636086
0.2699641383
0.2699630715
0.2699631999
0.2699634593
0.2699630574
0.2699629622
0.2699625683
0.2699634612
0.269963591
0.2699641663
0.269963081
0.2699631629
0.2699634843
0.269963071
0.2699629768
0.2699626194
0.269963506
0.2699636217
0.2699641215
0.26996314
0.2699631779
0.2699634946
0.2699631197
0.2699630052
0.2699627566
0.2699636555
0.2699637523
0.2699642178
0.2699631659
0.2699632437
0.2699636001
0.26996323
0.2699632207
0.2699630317
0.2699640384
0.2699640549
0.2699644337
0.2699632584
0.2699632883
0.2699637413
0.2699634514
0.2699636208
0.2699637181
0.2699650068
0.2699647996
0.2699648336
0.2699635165
0.2699634232
)
;
    }
    inlet
    {
        type            calculated;
        value           nonuniform List<scalar> 
81
(
0.2699627511
0.2699632615
0.2699634617
0.2699631026
0.2699634584
0.2699632479
0.2699634841
0.2699631906
0.2699627874
0.2699628115
0.2699632222
0.2699624395
0.2699633035
0.2699623199
0.2699629328
0.2699632083
0.2699631295
0.2699631507
0.2699630765
0.2699629953
0.2699628587
0.2699633884
0.2699628049
0.2699630078
0.2699645027
0.2699630093
0.2699638304
0.2699635591
0.2699625267
0.2699630446
0.2699623996
0.2699633648
0.2699633787
0.2699624283
0.2699632709
0.2699631113
0.2699627291
0.2699629547
0.2699631433
0.2699628884
0.2699630988
0.269962838
0.2699634961
0.2699633972
0.2699633228
0.2699627251
0.2699640718
0.2699631832
0.2699631742
0.2699633941
0.2699628168
0.2699627591
0.2699627636
0.2699634178
0.2699639821
0.269962644
0.2699637883
0.2699626998
0.2699627555
0.269963264
0.2699634458
0.2699626663
0.2699634041
0.2699634667
0.2699637106
0.269962584
0.269962551
0.2699627072
0.2699631771
0.2699639167
0.2699634388
0.2699629085
0.2699635834
0.2699631112
0.2699629032
0.2699625783
0.2699634643
0.2699636222
0.2699641817
0.2699630512
0.2699631729
)
;
    }
    outlet
    {
        type            calculated;
        value           nonuniform 0();
    }
    procBoundary0to1
    {
        type            processor;
        value           nonuniform List<scalar> 
97
(
0.2699636633
0.2699636239
0.2699647566
0.2699663665
0.2699680003
0.2699696599
0.2699680208
0.2699663511
0.2699647264
0.2699637358
0.2699636239
0.2699636239
0.2699661354
0.2699664044
0.2699686896
0.2699753698
0.269979938
0.2699752693
0.2699694735
0.2699660105
0.2699646968
0.2699646345
0.2699664044
0.2699664044
0.269978993
0.2699861355
0.2700010057
0.2700279699
0.2700006277
0.2699805226
0.2699691566
0.2699667521
0.2699662609
0.2699694973
0.2699861355
0.2699861355
0.2700728165
0.2701942114
0.2702182669
0.270073586
0.2700000617
0.2699754513
0.2699679557
0.2699661386
0.2699734655
0.270007633
0.2701942114
0.2701942114
0.2736061794
0.2701946584
0.270217724
0.2700401605
0.2700287074
0.2699809839
0.269969492
0.2699654248
0.2699710028
0.2699861345
0.2700404923
0.2701946584
0.2700401605
0.2700401605
0.270000429
0.269972604
0.269974831
0.2699682543
0.2699653299
0.2699660817
0.2699729319
0.2699856933
0.2700073876
0.2699861653
0.269972604
0.269972604
0.2699690142
0.2699650134
0.2699663018
0.2699642624
0.2699651788
0.2699660746
0.2699696014
0.269973327
0.2699702059
0.2699674631
0.2699650134
0.2699650134
0.2699645387
0.2699636815
0.269963967
0.2699638772
0.2699644785
0.2699651588
0.269966897
0.2699662755
0.2699656798
0.2699639153
0.2699636815
)
;
    }
}


// ************************************************************************* //
