/*--------------------------------*- C++ -*----------------------------------*\
| =========                 |                                                 |
| \\      /  F ield         | OpenFOAM: The Open Source CFD Toolbox           |
|  \\    /   O peration     | Version:  4.x                                   |
|   \\  /    A nd           | Web:      www.OpenFOAM.org                      |
|    \\/     M anipulation  |                                                 |
\*---------------------------------------------------------------------------*/
FoamFile
{
    version     2.0;
    format      ascii;
    class       volScalarField;
    location    "2000";
    object      T;
}
// * * * * * * * * * * * * * * * * * * * * * * * * * * * * * * * * * * * * * //

dimensions      [0 0 0 1 0 0 0];

internalField   nonuniform List<scalar> 
1175
(
1223.151802
1223.151817
1223.151777
1223.151792
1223.151663
1223.151779
1223.151736
1223.151773
1223.151769
1223.151876
1223.151863
1223.151951
1223.151907
1223.152085
1223.152371
1223.14949
1223.149581
1223.149576
1223.149688
1223.149664
1223.149581
1223.149494
1223.149525
1223.149439
1223.14959
1223.149605
1223.149727
1223.149855
1223.15007
1223.150501
1223.148582
1223.148512
1223.148596
1223.148666
1223.148591
1223.148539
1223.148774
1223.148758
1223.148744
1223.148712
1223.148633
1223.148652
1223.148805
1223.149343
1223.150191
1223.150209
1223.1502
1223.150121
1223.150083
1223.1501
1223.150106
1223.150205
1223.150184
1223.150051
1223.150114
1223.149937
1223.149861
1223.150214
1223.151085
1223.152654
1223.148597
1223.148572
1223.148642
1223.148577
1223.148634
1223.148713
1223.148538
1223.148552
1223.148509
1223.148463
1223.148562
1223.148712
1223.149201
1223.150098
1223.152067
1223.149551
1223.149497
1223.149523
1223.149578
1223.149564
1223.149521
1223.149521
1223.149609
1223.149636
1223.149527
1223.149796
1223.149761
1223.149945
1223.150865
1223.152439
1223.148481
1223.148522
1223.148535
1223.148682
1223.148606
1223.148562
1223.14843
1223.148445
1223.148504
1223.148451
1223.148633
1223.148565
1223.148747
1223.149297
1223.150058
1223.149811
1223.149927
1223.149802
1223.149749
1223.150064
1223.15004
1223.150012
1223.149974
1223.149765
1223.14981
1223.149742
1223.149909
1223.149911
1223.150162
1223.150732
1223.151638
1223.151659
1223.151671
1223.151594
1223.151546
1223.15153
1223.151572
1223.151435
1223.151558
1223.151666
1223.151713
1223.151686
1223.151679
1223.151821
1223.152068
1223.151528
1223.151413
1223.151353
1223.151435
1223.15152
1223.151632
1223.15158
1223.15158
1223.151444
1223.151351
1223.151375
1223.151502
1223.151634
1223.151909
1223.149667
1223.149665
1223.149578
1223.149639
1223.149768
1223.149702
1223.149834
1223.1497
1223.149559
1223.149417
1223.149403
1223.149353
1223.149612
1223.150056
1223.151079
1223.153214
1223.153262
1223.153143
1223.153096
1223.152982
1223.152872
1223.152929
1223.153011
1223.152948
1223.153012
1223.153194
1223.153375
1223.153819
1223.154999
1223.156915
1223.149299
1223.149315
1223.149266
1223.149468
1223.14945
1223.149472
1223.149645
1223.149549
1223.149576
1223.149618
1223.149839
1223.150164
1223.151068
1223.153037
1223.157152
1223.153756
1223.153751
1223.153645
1223.153752
1223.153945
1223.154128
1223.154068
1223.153982
1223.154011
1223.153945
1223.154043
1223.154429
1223.155368
1223.158439
1223.164999
1223.150979
1223.150985
1223.150961
1223.150767
1223.150668
1223.150555
1223.150547
1223.150659
1223.150569
1223.150419
1223.150438
1223.150604
1223.151418
1223.153449
1223.157639
1223.149731
1223.149864
1223.149932
1223.149879
1223.149914
1223.149875
1223.149816
1223.14947
1223.149478
1223.149634
1223.149702
1223.149937
1223.150485
1223.151385
1223.153463
1223.150088
1223.150082
1223.150202
1223.150202
1223.150241
1223.15016
1223.150202
1223.150311
1223.150227
1223.150258
1223.150246
1223.150337
1223.150462
1223.150955
1223.151799
1223.149991
1223.150043
1223.150132
1223.150023
1223.150098
1223.150133
1223.150153
1223.150049
1223.149878
1223.150093
1223.150049
1223.15024
1223.150351
1223.150518
1223.150915
1223.150327
1223.150389
1223.150343
1223.150353
1223.150215
1223.150114
1223.150143
1223.150031
1223.150138
1223.150199
1223.150256
1223.150411
1223.150638
1223.151035
1223.150696
1223.150602
1223.150754
1223.15079
1223.150737
1223.150752
1223.150727
1223.150695
1223.150761
1223.150946
1223.151039
1223.151195
1223.151642
1223.152663
1223.151314
1223.151239
1223.151136
1223.151169
1223.151237
1223.151138
1223.151028
1223.150836
1223.150831
1223.150762
1223.151164
1223.151654
1223.152536
1223.155319
1223.160942
1223.148914
1223.148962
1223.149128
1223.149029
1223.14912
1223.149083
1223.149148
1223.14904
1223.148929
1223.149124
1223.149267
1223.149701
1223.151921
1223.158781
1223.173225
1223.151558
1223.151695
1223.1517
1223.151627
1223.151741
1223.151892
1223.151904
1223.152003
1223.151988
1223.152123
1223.152292
1223.153287
1223.156927
1223.169204
1223.199069
1223.150639
1223.150594
1223.150518
1223.150371
1223.150441
1223.15053
1223.150517
1223.150639
1223.150688
1223.150664
1223.15094
1223.151644
1223.15393
1223.160535
1223.17502
1223.143866
1223.143781
1223.143887
1223.143919
1223.144002
1223.143926
1223.143931
1223.144069
1223.144069
1223.144185
1223.144319
1223.14466
1223.14584
1223.148531
1223.154138
1223.150632
1223.150655
1223.150689
1223.150791
1223.150697
1223.150784
1223.1509
1223.150922
1223.151051
1223.151162
1223.151045
1223.151231
1223.151615
1223.15271
1223.154667
1223.146912
1223.146822
1223.146875
1223.146902
1223.146789
1223.146908
1223.147085
1223.14707
1223.147048
1223.147058
1223.146953
1223.147087
1223.147276
1223.147711
1223.148548
1223.148141
1223.148056
1223.148034
1223.148017
1223.148113
1223.148099
1223.147977
1223.147949
1223.147836
1223.14775
1223.147928
1223.148012
1223.148468
1223.149341
1223.152819
1223.152765
1223.152626
1223.152612
1223.152652
1223.152753
1223.152883
1223.152807
1223.152661
1223.152779
1223.152846
1223.153142
1223.153694
1223.155786
1223.150472
1223.15046
1223.150481
1223.150268
1223.150414
1223.150392
1223.150321
1223.150353
1223.150262
1223.150431
1223.15065
1223.151357
1223.153522
1223.160168
1223.153395
1223.153381
1223.153129
1223.153131
1223.153243
1223.153316
1223.153299
1223.153242
1223.153219
1223.15331
1223.153503
1223.15504
1223.161154
1223.181928
1223.234513
1223.149021
1223.149066
1223.149018
1223.148866
1223.148869
1223.148729
1223.14877
1223.148713
1223.148743
1223.148827
1223.149479
1223.152191
1223.164102
1223.215202
1223.369508
1223.148959
1223.148959
1223.148989
1223.14899
1223.149003
1223.149091
1223.14918
1223.149065
1223.149007
1223.149303
1223.1497
1223.151128
1223.15727
1223.177962
1223.230756
1223.153264
1223.15317
1223.153081
1223.152906
1223.153047
1223.153103
1223.152911
1223.153045
1223.153122
1223.152954
1223.153217
1223.153711
1223.156105
1223.162828
1223.17715
1223.149447
1223.149374
1223.149416
1223.149597
1223.149587
1223.1495
1223.149571
1223.149658
1223.149506
1223.149761
1223.149588
1223.149934
1223.1507
1223.152802
1223.156801
1223.15017
1223.150115
1223.150132
1223.149996
1223.150078
1223.150067
1223.150087
1223.150039
1223.149949
1223.149934
1223.149914
1223.150143
1223.150363
1223.151071
1223.152624
1223.151902
1223.151833
1223.151926
1223.151901
1223.151849
1223.15202
1223.151889
1223.15169
1223.151695
1223.151801
1223.151984
1223.152088
1223.152428
1223.153589
1223.150879
1223.150747
1223.150904
1223.15093
1223.150914
1223.15065
1223.150643
1223.150658
1223.150932
1223.150782
1223.150966
1223.151387
1223.152446
1223.155433
1223.150025
1223.150173
1223.150083
1223.149978
1223.149944
1223.150069
1223.149998
1223.150123
1223.150198
1223.150304
1223.150698
1223.151665
1223.155336
1223.167525
1223.15118
1223.151139
1223.151211
1223.151279
1223.151176
1223.151203
1223.151109
1223.151297
1223.151151
1223.151249
1223.151908
1223.154579
1223.166652
1223.217677
1223.150227
1223.150293
1223.150127
1223.150176
1223.150013
1223.15008
1223.150226
1223.150167
1223.150204
1223.150583
1223.151369
1223.156361
1223.18581
1223.373629
1212.175194
1223.151408
1223.15147
1223.151448
1223.15133
1223.15119
1223.151001
1223.151109
1223.151219
1223.151439
1223.151427
1223.151827
1223.154304
1223.166283
1223.217522
1223.371666
1223.148427
1223.148518
1223.148469
1223.148437
1223.148506
1223.148553
1223.148712
1223.148618
1223.148549
1223.148673
1223.148887
1223.149804
1223.15369
1223.165906
1223.195962
1223.148875
1223.148939
1223.149033
1223.14916
1223.149152
1223.149147
1223.149255
1223.149283
1223.149324
1223.149383
1223.149622
1223.149771
1223.150942
1223.15408
1223.160485
1223.149212
1223.149317
1223.149242
1223.149261
1223.149252
1223.149285
1223.149342
1223.149378
1223.149309
1223.149351
1223.149182
1223.149247
1223.149689
1223.150726
1223.152937
1223.15192
1223.151951
1223.151972
1223.151932
1223.151974
1223.15201
1223.151932
1223.151749
1223.151689
1223.151646
1223.1516
1223.151868
1223.152141
1223.152764
1223.145818
1223.145837
1223.145842
1223.14596
1223.145916
1223.145912
1223.145809
1223.145694
1223.145686
1223.145865
1223.146131
1223.146266
1223.147044
1223.149142
1223.149844
1223.149918
1223.149815
1223.14991
1223.149889
1223.150017
1223.149988
1223.150029
1223.150213
1223.150176
1223.150395
1223.151189
1223.153549
1223.16033
1223.149885
1223.149739
1223.149702
1223.149745
1223.149621
1223.149734
1223.149717
1223.149777
1223.149811
1223.149963
1223.150257
1223.151733
1223.157946
1223.178972
1223.148889
1223.148949
1223.148938
1223.148866
1223.149032
1223.148936
1223.148979
1223.148812
1223.14909
1223.149303
1223.150034
1223.152518
1223.164607
1223.215675
1223.151505
1223.151512
1223.151445
1223.151465
1223.151539
1223.151574
1223.151634
1223.151581
1223.151576
1223.151633
1223.151897
1223.15345
1223.159651
1223.180405
1223.151766
1223.15191
1223.1518
1223.151681
1223.151791
1223.151864
1223.151831
1223.151705
1223.151822
1223.151745
1223.151855
1223.152611
1223.154789
1223.161405
1223.175818
1223.151745
1223.151771
1223.151849
1223.151872
1223.151969
1223.151835
1223.151912
1223.152287
1223.152283
1223.152447
1223.152462
1223.152757
1223.153516
1223.155458
1223.159445
1223.148781
1223.148655
1223.148654
1223.148487
1223.148487
1223.148403
1223.148561
1223.148546
1223.148658
1223.148725
1223.1488
1223.148954
1223.149254
1223.14996
1223.151593
1223.146225
1223.146229
1223.146247
1223.146294
1223.146529
1223.146703
1223.146811
1223.146939
1223.146967
1223.146973
1223.147043
1223.147233
1223.147258
1223.147862
1223.152287
1223.152449
1223.152437
1223.152405
1223.152371
1223.152434
1223.1525
1223.152468
1223.15247
1223.152509
1223.152453
1223.152818
1223.153212
1223.154299
1223.147102
1223.147334
1223.147363
1223.147345
1223.147253
1223.147312
1223.147272
1223.147226
1223.147175
1223.147345
1223.147516
1223.147896
1223.148996
1223.151708
1223.152034
1223.152029
1223.152073
1223.152161
1223.152283
1223.15237
1223.15233
1223.152259
1223.152014
1223.151998
1223.152365
1223.153051
1223.155438
1223.162108
1223.151782
1223.15175
1223.151876
1223.151747
1223.151607
1223.151675
1223.151763
1223.15174
1223.151561
1223.151615
1223.151808
1223.152757
1223.156306
1223.168529
1223.149478
1223.149414
1223.149395
1223.149503
1223.149427
1223.149447
1223.149373
1223.149601
1223.149432
1223.149767
1223.150017
1223.150742
1223.153277
1223.160201
1223.148655
1223.148699
1223.148776
1223.148928
1223.149036
1223.149161
1223.149387
1223.149189
1223.149187
1223.14917
1223.149307
1223.149611
1223.150622
1223.153222
1223.152186
1223.152184
1223.152065
1223.151983
1223.152067
1223.15212
1223.15213
1223.152005
1223.152134
1223.15199
1223.151991
1223.152122
1223.152691
1223.153653
1223.155669
1223.148843
1223.148844
1223.148875
1223.148896
1223.148752
1223.148849
1223.148824
1223.14876
1223.148661
1223.148729
1223.148712
1223.148918
1223.149115
1223.149519
1223.150563
1223.14856
1223.148416
1223.148618
1223.148636
1223.14834
1223.14828
1223.148499
1223.148393
1223.148437
1223.148546
1223.148603
1223.148803
1223.148936
1223.149116
1223.147455
1223.1476
1223.147778
1223.147827
1223.147917
1223.148033
1223.148099
1223.147991
1223.147858
1223.14793
1223.147973
1223.148069
1223.148161
1223.14838
1223.152559
1223.152623
1223.152583
1223.152803
1223.152832
1223.152901
1223.152694
1223.152603
1223.152503
1223.152624
1223.152836
1223.152974
1223.153232
1223.154186
1223.152708
1223.152491
1223.152532
1223.152365
1223.15234
1223.15238
1223.152273
1223.15234
1223.15242
1223.152451
1223.152364
1223.152711
1223.153594
1223.155506
1223.152001
1223.151973
1223.151943
1223.151799
1223.151797
1223.151826
1223.151715
1223.15171
1223.151714
1223.151799
1223.151956
1223.152307
1223.153326
1223.156268
1223.149872
1223.149795
1223.149706
1223.149602
1223.149624
1223.149562
1223.149795
1223.149833
1223.149651
1223.149519
1223.149512
1223.149835
1223.150624
1223.152721
1223.146521
1223.146423
1223.146433
1223.146453
1223.146513
1223.146395
1223.146423
1223.146291
1223.146257
1223.146438
1223.146514
1223.146686
1223.146955
1223.14782
1223.148686
1223.148632
1223.148605
1223.148806
1223.148715
1223.148699
1223.148728
1223.148815
1223.148725
1223.148757
1223.148885
1223.149032
1223.149086
1223.149509
1223.151089
1223.151178
1223.151173
1223.151116
1223.151029
1223.151074
1223.150947
1223.150967
1223.150868
1223.150781
1223.150905
1223.15095
1223.151057
1223.15128
1223.151678
1223.148031
1223.148129
1223.148155
1223.148229
1223.148427
1223.14851
1223.148569
1223.148564
1223.148677
1223.148622
1223.148562
1223.148655
1223.148511
1223.1486
1223.15017
1223.150248
1223.150203
1223.150379
1223.150323
1223.150344
1223.150359
1223.150375
1223.150312
1223.150456
1223.150477
1223.15048
1223.150537
1223.150772
1223.151113
1223.151105
1223.151134
1223.150867
1223.150983
1223.150933
1223.151044
1223.151019
1223.150946
1223.150912
1223.150987
1223.151259
1223.15132
1223.151881
1223.152585
1223.152778
1223.152682
1223.152758
1223.15258
1223.152653
1223.152683
1223.152612
1223.152607
1223.152726
1223.152708
1223.152723
1223.153195
1223.15415
1223.148571
1223.148536
1223.148648
1223.148711
1223.148772
1223.14873
1223.148769
1223.14882
1223.14877
1223.148695
1223.148748
1223.148851
1223.149293
1223.150214
1223.147855
1223.147807
1223.147754
1223.147673
1223.147788
1223.147979
1223.147985
1223.147915
1223.147945
1223.148092
1223.148167
1223.148211
1223.148559
1223.14925
1223.14532
1223.14536
1223.145458
1223.145593
1223.145655
1223.145507
1223.145501
1223.145495
1223.145537
1223.145456
1223.145801
1223.145765
1223.145824
1223.146386
1223.150442
1223.150345
1223.150297
1223.150158
1223.15016
1223.150211
1223.150129
1223.150404
1223.150364
1223.150349
1223.150164
1223.150271
1223.150409
1223.150477
1223.149891
1223.149852
1223.149818
1223.149823
1223.149796
1223.149843
1223.149882
1223.149835
1223.149778
1223.149965
1223.14995
1223.149791
1223.149924
1223.150041
)
;

boundaryField
{
    top
    {
        type            zeroGradient;
    }
    bottom
    {
        type            zeroGradient;
    }
    side-walls
    {
        type            zeroGradient;
    }
    inlet
    {
        type            zeroGradient;
    }
    outlet
    {
        type            zeroGradient;
    }
    procBoundary0to1
    {
        type            processor;
        value           nonuniform List<scalar> 
97
(
1223.152798
1223.152393
1223.151276
1223.151478
1223.154903
1223.15499
1223.15481
1223.151548
1223.151413
1223.152468
1223.152393
1223.152393
1223.152638
1223.154593
1223.159962
1223.16275
1223.172699
1223.163206
1223.15641
1223.153203
1223.151547
1223.151905
1223.154593
1223.154593
1223.168201
1223.174626
1223.188624
1223.221112
1223.190335
1223.161269
1223.157846
1223.149731
1223.150591
1223.16006
1223.174626
1223.174626
1223.269252
1223.371877
1223.393826
1223.26576
1223.192899
1223.162381
1223.155105
1223.155613
1223.162062
1223.19737
1223.371877
1223.371877
1211.54957
1223.369852
1223.396283
1223.233183
1223.217771
1223.167959
1223.15575
1223.154379
1223.153239
1223.174629
1223.231679
1223.369852
1223.233183
1223.233183
1223.191237
1223.158804
1223.165191
1223.153752
1223.148754
1223.156055
1223.157318
1223.176628
1223.198481
1223.174489
1223.158804
1223.158804
1223.158491
1223.150273
1223.151771
1223.1495
1223.149523
1223.156087
1223.159588
1223.162689
1223.156849
1223.149796
1223.150273
1223.150273
1223.152263
1223.150284
1223.14899
1223.151246
1223.152612
1223.155584
1223.152177
1223.150524
1223.147169
1223.151073
1223.150284
)
;
    }
}


// ************************************************************************* //
