/*--------------------------------*- C++ -*----------------------------------*\
| =========                 |                                                 |
| \\      /  F ield         | OpenFOAM: The Open Source CFD Toolbox           |
|  \\    /   O peration     | Version:  4.x                                   |
|   \\  /    A nd           | Web:      www.OpenFOAM.org                      |
|    \\/     M anipulation  |                                                 |
\*---------------------------------------------------------------------------*/
FoamFile
{
    version     2.0;
    format      ascii;
    class       volVectorField;
    location    "2000";
    object      U;
}
// * * * * * * * * * * * * * * * * * * * * * * * * * * * * * * * * * * * * * //

dimensions      [0 1 -1 0 0 0 0];

internalField   nonuniform List<vector> 
1175
(
(0.01100000064 4.07428393e-10 4.412989372e-10)
(0.01100000041 4.111997592e-10 2.417359619e-10)
(0.01099999803 -3.702601101e-10 -1.003441091e-09)
(0.01100000081 -1.880374257e-09 2.341117735e-09)
(0.01100000242 -1.270980204e-09 -2.16029783e-09)
(0.01100000458 -1.391696378e-09 -9.83513522e-10)
(0.01100000647 -1.676622628e-09 -2.03728303e-09)
(0.01100000861 -3.598173146e-09 -2.427688164e-09)
(0.01100001875 -1.366895542e-09 -5.469294457e-09)
(0.01100002411 -2.616906138e-09 -8.507930095e-09)
(0.01100005348 -7.970811221e-09 -1.149520735e-08)
(0.0110000732 -1.232895598e-08 -1.308067599e-08)
(0.01100014655 -2.611428542e-08 -2.593142413e-08)
(0.01100021067 -2.396635307e-08 -2.433905224e-08)
(0.01100035245 -5.538700772e-08 -5.465484062e-08)
(0.01099999969 -5.817141197e-11 -1.591295546e-10)
(0.01099999929 -9.12402783e-10 -7.753533608e-10)
(0.01100000032 6.696100122e-13 -5.79691574e-10)
(0.01100000292 2.223134839e-09 1.251089215e-09)
(0.01100000385 -4.584552974e-10 -1.278376299e-09)
(0.01100000079 -7.297615139e-10 -1.555527367e-09)
(0.01100000657 -1.644406267e-09 -2.25318661e-09)
(0.01100000622 -3.947133815e-09 -3.870265892e-09)
(0.01100001441 -8.301304656e-09 -4.218988497e-09)
(0.01100001769 -1.112509682e-08 -5.42520196e-09)
(0.01100004402 -2.21808878e-08 -1.132817683e-08)
(0.0110000512 -3.08758403e-08 -1.328288914e-08)
(0.01100013335 -7.370076992e-08 -2.897788949e-08)
(0.01100017338 -7.394102401e-08 -2.710969218e-08)
(0.01100033528 -1.914221753e-07 -8.331195239e-08)
(0.01100000113 -1.861284293e-09 7.07409222e-10)
(0.01100000042 -8.089179885e-10 -1.182287513e-10)
(0.0110000003 1.933593502e-10 1.745499126e-10)
(0.01100000327 -7.611703686e-10 1.018673435e-09)
(0.01100000217 -1.834641976e-09 -1.627139676e-11)
(0.01099999981 -3.079712288e-09 -3.283905979e-09)
(0.01100000466 -4.301563994e-09 -5.506684978e-10)
(0.0110000046 -5.414491775e-09 -3.645008939e-09)
(0.01100001105 -1.072360047e-08 -5.748469997e-09)
(0.01100000551 -1.467032248e-08 -6.724951749e-09)
(0.0110000302 -2.821673255e-08 -1.258499834e-08)
(0.01100001447 -3.628398462e-08 -1.910585498e-08)
(0.01100009286 -8.150941998e-08 -4.088272909e-08)
(0.01100008029 -8.036970886e-08 -3.887935323e-08)
(0.01100028308 -2.487779651e-07 -1.633029633e-07)
(0.0110000002 3.186361318e-11 3.677344727e-10)
(0.01100000089 -3.665526385e-10 2.316718855e-09)
(0.01100000051 -1.647739727e-09 6.905913989e-10)
(0.01100000087 -1.197210161e-09 -1.546090281e-09)
(0.0110000021 -1.349205545e-09 -1.648509809e-09)
(0.01099999871 -1.543560378e-09 -2.361050273e-09)
(0.01100000294 -3.814688331e-09 -6.915104699e-10)
(0.0110000017 -3.884764147e-09 -9.667357813e-10)
(0.01100000748 -5.838866609e-09 -3.09670236e-09)
(0.01099999913 -8.805028476e-09 -5.605084977e-09)
(0.01100002026 -2.242799481e-08 -1.147346155e-08)
(0.01099998869 -3.335628135e-08 -1.536837413e-08)
(0.0110000751 -9.154338121e-08 -4.562376267e-08)
(0.01100000593 -9.839388235e-08 -3.899809945e-08)
(0.01100026589 -3.599718385e-07 -2.343764517e-07)
(0.01100000076 -2.694388485e-10 -7.917022122e-11)
(0.01100000038 1.15054293e-09 -1.306949079e-09)
(0.01100000004 9.783223829e-10 -4.570366045e-10)
(0.01100000199 -1.193969604e-09 -1.257417976e-09)
(0.01100000054 -2.275440413e-09 -7.190395565e-10)
(0.01100000149 -3.071662685e-09 -2.859884746e-09)
(0.01100000045 -1.69015719e-09 -1.071919699e-09)
(0.01099999785 -1.307842065e-09 -3.963575887e-09)
(0.0110000035 -6.725268842e-10 -3.80984731e-09)
(0.0109999865 -4.633488644e-10 -6.325952877e-09)
(0.01100000177 -2.473837334e-09 -1.295691287e-08)
(0.0109999422 -1.126180876e-09 -2.257591023e-08)
(0.01100001785 1.430229991e-10 -7.082730405e-08)
(0.01099981016 2.011285613e-10 -7.404336367e-08)
(0.01100017061 1.293780038e-09 -5.257198947e-07)
(0.01100000026 9.489719829e-10 7.520901829e-10)
(0.01100000004 9.480386858e-10 4.186316771e-10)
(0.01100000101 9.078491673e-10 -6.050278292e-10)
(0.01100000269 -2.178004904e-10 -4.561299119e-10)
(0.01100000059 -6.005493317e-10 -8.170659712e-10)
(0.01100000008 -1.209181319e-10 -7.747729833e-10)
(0.01100000184 5.501412239e-10 1.40696826e-09)
(0.01100000189 1.413639612e-09 -2.692602981e-09)
(0.01100000887 4.47520593e-09 -2.41528191e-09)
(0.01099999881 7.281595527e-09 -6.454616374e-09)
(0.01100002001 2.250329832e-08 -8.984700088e-09)
(0.0109999919 3.183514886e-08 -1.591131542e-08)
(0.01100007558 9.134480005e-08 -4.270261132e-08)
(0.01100000799 9.892408863e-08 -3.859177061e-08)
(0.01100026468 3.611480833e-07 -2.347388221e-07)
(0.01100000031 3.04166909e-09 -2.952638053e-11)
(0.01099999995 2.066090257e-09 2.065497071e-09)
(0.01099999914 6.607647375e-10 -8.199135183e-10)
(0.01100000167 4.802579563e-10 9.815616485e-10)
(0.01100000153 1.123641172e-09 -1.007474436e-09)
(0.01100000148 1.176997016e-09 -1.453445686e-09)
(0.01100000198 3.762046117e-09 -2.957139728e-09)
(0.01100000068 4.264343654e-09 -2.912656201e-09)
(0.01100001043 8.692294196e-09 -1.019750637e-09)
(0.01100000424 1.174839895e-08 -4.576820373e-09)
(0.01100002908 2.526337753e-08 -1.102287758e-08)
(0.01100001584 3.549792269e-08 -1.647238688e-08)
(0.01100009409 8.276862127e-08 -4.285280879e-08)
(0.01100008236 7.878271967e-08 -3.599359993e-08)
(0.01100028073 2.459336136e-07 -1.618120451e-07)
(0.01099999865 1.154810285e-09 -1.261350921e-09)
(0.01099999942 -5.759348447e-10 1.208068796e-09)
(0.01099999957 1.259268825e-09 5.235871134e-10)
(0.01099999789 9.216930851e-10 -1.159054487e-09)
(0.01100000114 1.544407182e-09 -1.661856918e-10)
(0.01100000425 1.521029907e-09 2.489006215e-10)
(0.01100000569 1.37033159e-09 6.394526066e-10)
(0.01100000612 3.824032917e-09 -2.246787551e-09)
(0.01100001397 6.734490619e-09 -5.26710336e-09)
(0.01100001601 1.010276072e-08 -5.402796152e-09)
(0.01100004453 2.102845431e-08 -1.165187262e-08)
(0.01100005448 3.02068834e-08 -1.227091862e-08)
(0.01100013161 7.205243448e-08 -3.283612295e-08)
(0.01100017389 7.438413616e-08 -2.627965624e-08)
(0.01100033313 1.924094767e-07 -8.28508544e-08)
(0.01100000088 -8.956908154e-10 2.325325201e-10)
(0.01099999827 2.213360286e-09 -2.173382968e-09)
(0.01099999888 1.105348606e-09 -1.421086663e-09)
(0.01099999842 3.445913064e-10 1.360691026e-09)
(0.01100000037 6.428293192e-10 1.360053035e-09)
(0.01100000252 1.687529859e-09 6.17182273e-10)
(0.01100000678 5.492760672e-10 8.895632895e-10)
(0.01100000814 2.47151021e-09 -1.497229984e-09)
(0.01100001736 2.282456779e-09 -1.703008434e-09)
(0.01100002641 3.975104461e-09 3.455517598e-10)
(0.01100005441 7.997552236e-09 -8.1049982e-09)
(0.01100007449 1.057086036e-08 -1.015844198e-08)
(0.01100015141 2.400838562e-08 -2.649591213e-08)
(0.01100021333 2.241343416e-08 -2.364167921e-08)
(0.01100035329 5.66541621e-08 -5.728992437e-08)
(0.01100000076 1.805876683e-10 -4.833895735e-11)
(0.01100000048 2.213237972e-09 4.39675661e-10)
(0.01099999801 1.285667718e-09 -1.697966714e-10)
(0.01100000107 8.750908983e-11 1.475731217e-09)
(0.01100000155 4.311447594e-10 -9.863844117e-10)
(0.011000003 3.378223573e-10 -3.069081189e-09)
(0.01100000601 -1.099769214e-09 -3.251763538e-09)
(0.01100000598 -2.317557079e-09 -4.612958336e-09)
(0.01100001593 -3.688057044e-09 -9.492215644e-09)
(0.01100001661 -6.424331084e-09 -1.343972501e-08)
(0.01100004469 -1.052827924e-08 -2.543154268e-08)
(0.01100005211 -1.156405662e-08 -3.461439718e-08)
(0.01100013262 -2.884404926e-08 -7.541711443e-08)
(0.01100017527 -2.458250919e-08 -7.575957684e-08)
(0.01100000024 6.093275737e-11 -6.622826914e-10)
(0.01099999917 -4.48809264e-10 -9.115094136e-10)
(0.01100000062 3.407667755e-10 4.611070988e-10)
(0.01099999957 3.136170055e-10 -4.507603779e-10)
(0.0110000021 -4.669205078e-10 -2.21974162e-09)
(0.01100000189 -2.33197566e-09 -2.140342011e-09)
(0.0110000046 -2.228877086e-09 -3.192650672e-09)
(0.01100000325 -3.826356061e-09 -3.667836653e-09)
(0.011000012 -6.993275845e-09 -7.032367253e-09)
(0.01100000818 -1.056096695e-08 -1.292019831e-08)
(0.0110000353 -2.491118012e-08 -2.617066051e-08)
(0.01100003024 -3.490483398e-08 -3.597729001e-08)
(0.01100011233 -8.879247294e-08 -8.974167754e-08)
(0.01100011234 -8.902638833e-08 -8.873567717e-08)
(0.01100030841 -3.009626468e-07 -3.014998693e-07)
(0.01100000077 -8.225308162e-10 -5.397017279e-10)
(0.01100000022 -1.923661456e-09 -2.029060946e-10)
(0.01099999888 -1.96968844e-09 -2.189499918e-10)
(0.01100000098 -1.292373711e-09 2.862106345e-10)
(0.01100000158 -1.13575299e-09 -1.617789889e-09)
(0.01099999955 -2.388426785e-09 -1.503980873e-09)
(0.01100000047 -4.931252498e-09 -2.579884165e-09)
(0.01100000057 -4.121617487e-09 -5.744735232e-09)
(0.01100000511 -9.829920485e-09 -8.242107233e-09)
(0.01099999739 -1.356888868e-08 -1.162900101e-08)
(0.01100001698 -2.73133697e-08 -2.79510889e-08)
(0.01099998203 -3.849509505e-08 -4.282523067e-08)
(0.01100005614 -9.83324319e-08 -1.285220563e-07)
(0.0109999599 -9.222810071e-08 -1.309543482e-07)
(0.01100022136 -4.075413007e-07 -6.223744796e-07)
(0.01099999899 -4.42411959e-10 -1.348059091e-09)
(0.01100000025 -1.236364002e-09 -5.049030701e-10)
(0.01100000125 -9.334344804e-10 -4.284732871e-10)
(0.01100000013 -9.71978391e-11 -2.211679316e-10)
(0.01100000074 -3.463582711e-10 -2.152491708e-09)
(0.01099999964 -6.826888236e-10 -2.437774556e-09)
(0.01100000286 -2.19660625e-09 -3.42478596e-09)
(0.01099999845 -3.674157631e-09 -5.620264769e-09)
(0.01100000167 -6.995402036e-09 -7.371008035e-09)
(0.01099998908 -1.141285152e-08 -1.306078576e-08)
(0.01100000698 -2.31000245e-08 -2.539765979e-08)
(0.01099995787 -3.842036684e-08 -4.74670337e-08)
(0.01100002914 -1.238791408e-07 -1.342883031e-07)
(0.01099983657 -1.344926839e-07 -1.563571699e-07)
(0.01100017239 -7.402390428e-07 -9.897269821e-07)
(0.01099999819 1.204167793e-09 -1.659376503e-13)
(0.01099999789 3.409333147e-09 -5.44647713e-12)
(0.0110000012 1.736562276e-09 -7.847073867e-10)
(0.01099999935 -6.800387738e-10 -6.103702148e-10)
(0.01100000098 -1.105593954e-09 -8.953574016e-10)
(0.01100000092 -1.036292706e-09 -9.244054261e-10)
(0.01099999941 -1.120046144e-09 -3.333400575e-09)
(0.01099999644 -1.506378986e-09 -5.189605537e-09)
(0.01099999876 -6.812939429e-10 -6.471593808e-09)
(0.01099997857 -1.000143143e-11 -1.309233604e-08)
(0.01099998437 -6.07337602e-10 -2.782975285e-08)
(0.01099988015 -8.979297433e-10 -5.355909258e-08)
(0.01099992341 5.089963116e-10 -2.21316723e-07)
(0.01099939396 3.412628426e-10 -2.618458163e-07)
(0.01099993112 -6.319791628e-10 -2.304321653e-06)
(0.01099999988 3.111533827e-10 -4.766048557e-10)
(0.01099999985 1.685150615e-09 8.213761351e-10)
(0.01099999912 1.11350784e-09 2.88747359e-10)
(0.01100000052 8.919202644e-10 -7.932880885e-10)
(0.01100000135 1.327865334e-09 -5.346191468e-10)
(0.01099999919 7.331512869e-10 -8.915851193e-10)
(0.01100000071 1.099425603e-09 -2.24880442e-09)
(0.0109999992 3.37221997e-09 -3.602388783e-09)
(0.0110000016 4.389692093e-09 -5.782203914e-09)
(0.01099999097 8.567248673e-09 -1.212323504e-08)
(0.01100000628 2.141638443e-08 -2.381078332e-08)
(0.01099995651 3.678126841e-08 -4.540560743e-08)
(0.01100002718 1.211850091e-07 -1.344912504e-07)
(0.01099983677 1.344521194e-07 -1.560297842e-07)
(0.01100017035 7.387245444e-07 -9.902224221e-07)
(0.01099999976 1.926625824e-09 -5.982842943e-10)
(0.01099999979 5.901119818e-10 4.820241349e-10)
(0.01099999936 7.62931541e-10 3.270262376e-10)
(0.01099999755 4.944247419e-11 1.655748257e-10)
(0.0109999995 4.463235905e-10 4.968301814e-11)
(0.01100000077 -7.598885012e-10 -6.672587886e-10)
(0.01100000269 2.770196849e-09 -2.575628578e-09)
(0.01099999858 1.917205154e-09 -3.444272535e-09)
(0.01100000446 7.13153049e-09 -6.692680398e-09)
(0.01099999701 9.787503039e-09 -1.30942042e-08)
(0.01100001584 2.437172562e-08 -2.646661524e-08)
(0.01099997984 3.628419155e-08 -4.233480353e-08)
(0.01100006397 9.66242522e-08 -1.281257884e-07)
(0.01099995765 9.208791858e-08 -1.29695378e-07)
(0.01100022072 4.08908383e-07 -6.207824163e-07)
(0.01099999932 8.256384104e-11 -7.346232246e-10)
(0.01099999918 1.355340983e-10 -1.080315623e-10)
(0.01100000036 2.327095308e-09 7.678058736e-10)
(0.01100000005 1.114216148e-09 -1.673622616e-10)
(0.01100000109 7.12523711e-10 -2.786714338e-10)
(0.01100000166 2.645004903e-09 -1.018622596e-09)
(0.01100000401 2.268828526e-09 -2.646832421e-09)
(0.01100000333 3.229826217e-09 -4.678627485e-09)
(0.01100001071 7.459941461e-09 -6.665306831e-09)
(0.01100000957 1.087037882e-08 -1.171837706e-08)
(0.01100003599 2.512587445e-08 -2.341237681e-08)
(0.01100003156 3.574823373e-08 -3.453175491e-08)
(0.01100011253 9.056418374e-08 -8.963182139e-08)
(0.01100011576 8.839906482e-08 -8.725151564e-08)
(0.01100030733 3.02649788e-07 -2.999664834e-07)
(0.01099999976 5.896452055e-10 4.19096015e-10)
(0.01100000113 2.497800253e-09 -1.841702705e-10)
(0.01099999901 4.579318413e-11 -7.813058201e-10)
(0.01099999755 2.771159674e-10 -3.981817743e-10)
(0.01100000048 2.898496531e-10 1.046428463e-10)
(0.01100000232 2.932437816e-10 -1.888258771e-09)
(0.01100000659 6.814963042e-10 -1.355747902e-09)
(0.01100000624 2.827866226e-09 -3.595200554e-09)
(0.0110000133 4.392678068e-09 -8.583948866e-09)
(0.01100001763 4.499118608e-09 -1.073000952e-08)
(0.01100004639 9.468646227e-09 -2.028348255e-08)
(0.01100005627 1.17919824e-08 -2.824753111e-08)
(0.01100013416 3.057225132e-08 -7.170466798e-08)
(0.01100017503 2.463914966e-08 -7.347566642e-08)
(0.0110003369 8.349657372e-08 -1.918303734e-07)
(0.01099999998 -5.252091805e-10 5.392789116e-10)
(0.01100000166 9.303412316e-10 -9.212542408e-10)
(0.01100000003 -5.128193453e-10 -7.732118638e-10)
(0.01100000156 -1.722825483e-09 4.947855252e-10)
(0.01100000042 -5.87739931e-10 9.997092313e-10)
(0.0109999997 2.818425938e-10 6.308867759e-10)
(0.01100000262 -2.553563968e-09 -4.33696989e-09)
(0.01100000188 -2.125571073e-09 -7.882676975e-09)
(0.01100000942 -4.565484936e-10 -9.638673863e-09)
(0.01100000439 -3.747606193e-09 -1.477391639e-08)
(0.01100002988 -8.904937705e-09 -2.841535944e-08)
(0.01100001424 -1.236189978e-08 -3.742536242e-08)
(0.01100009685 -4.113601913e-08 -8.514491205e-08)
(0.01100008343 -3.413891422e-08 -8.13197263e-08)
(0.01099999912 -1.82251517e-09 -3.234480929e-10)
(0.01099999964 -1.484852637e-09 -1.370734335e-09)
(0.011000002 -1.471743369e-11 -5.802306983e-10)
(0.01100000135 -7.857130811e-11 -1.020147743e-09)
(0.01100000047 -1.03164184e-09 1.646456713e-10)
(0.01100000085 -1.564565341e-09 -2.335596018e-09)
(0.01100000098 -1.342109213e-09 -4.077111804e-09)
(0.01099999916 -3.855934978e-09 -6.644438019e-09)
(0.01100000511 -7.797825422e-09 -1.053933284e-08)
(0.01099999443 -1.102648303e-08 -1.438384023e-08)
(0.01100001701 -2.625933299e-08 -2.676813745e-08)
(0.01099997957 -4.162839701e-08 -4.08503338e-08)
(0.01100005906 -1.260780053e-07 -9.95408738e-08)
(0.01099995788 -1.297969186e-07 -9.375561186e-08)
(0.01100000177 -1.001033289e-09 -1.32404017e-09)
(0.01100000104 -6.70130364e-10 -6.788702086e-10)
(0.01100000164 1.248643288e-09 -1.225616088e-09)
(0.01100000055 -2.325408846e-09 -1.115899158e-09)
(0.01100000202 -1.312887036e-09 -8.960506547e-10)
(0.01100000074 -2.548814261e-09 -3.258402094e-09)
(0.01099999988 -3.91653738e-09 -4.647530523e-09)
(0.01099999446 -4.80599178e-09 -5.238751322e-09)
(0.01100000023 -8.666626761e-09 -8.468154573e-09)
(0.01099997883 -1.533082498e-08 -1.460024289e-08)
(0.01099999134 -2.485115848e-08 -2.647053029e-08)
(0.01099991203 -4.619618896e-08 -4.763699912e-08)
(0.0109999593 -1.279561086e-07 -1.274434548e-07)
(0.0109996213 -1.473997664e-07 -1.478335729e-07)
(0.01099997163 -9.489326026e-07 -9.541852491e-07)
(0.01100000043 4.195815157e-10 -2.728591538e-10)
(0.01100000158 1.00263485e-09 4.447017039e-10)
(0.0110000002 -2.158891727e-10 2.066977737e-10)
(0.01099999968 1.510096314e-10 5.356986692e-10)
(0.01100000023 -1.13246542e-09 2.402461922e-10)
(0.0109999987 -1.904950943e-09 -1.949557404e-09)
(0.01100000066 -1.896458436e-09 -2.092331146e-09)
(0.01099999531 -4.314026669e-09 -4.517269572e-09)
(0.01099999499 -4.884950956e-09 -4.706761276e-09)
(0.01099997691 -9.559547125e-09 -1.205753607e-08)
(0.01099997914 -2.478509012e-08 -1.12443977e-08)
(0.01099988766 -4.381800934e-08 -4.967066122e-08)
(0.01099986249 -1.866837086e-07 -7.115443062e-08)
(0.01099936028 -2.313076957e-07 -2.190626631e-07)
(0.01099954462 -2.07164517e-06 -1.502570841e-06)
(0.01099999998 6.883738688e-10 -1.93197821e-09)
(0.01100000122 -2.046305804e-10 1.07895339e-09)
(0.01100000013 -4.906012117e-10 1.711138486e-10)
(0.01099999877 -1.418382191e-09 -5.57447592e-10)
(0.01099999799 -9.280006786e-10 2.21092876e-10)
(0.01099999955 -2.249303231e-10 -3.228467335e-10)
(0.01099999818 -1.657451778e-09 -1.328710035e-09)
(0.01099999372 -8.678594459e-10 -2.53413901e-09)
(0.01099999029 -4.887033154e-10 -4.452964222e-09)
(0.01099996428 -3.910318688e-10 -1.075021183e-08)
(0.01099995209 1.23457154e-10 -9.633853169e-09)
(0.01099975568 -3.630655607e-10 -4.618948769e-08)
(0.01099963455 -8.544911206e-10 -1.389367709e-07)
(0.01099814734 1.266551445e-09 -4.305632372e-07)
(0.01099815264 2.743446918e-11 -4.789360275e-06)
(0.01099999987 6.386461942e-10 -1.239996964e-09)
(0.01100000029 7.332464125e-10 7.14661112e-11)
(0.01100000051 2.83292011e-10 1.723808963e-09)
(0.0109999966 3.081398685e-10 1.059782618e-09)
(0.01099999988 1.003007847e-09 -6.142483081e-10)
(0.01099999992 6.632024406e-10 -8.348951667e-10)
(0.01099999781 1.957583275e-09 -3.441231577e-09)
(0.0109999984 3.684390894e-09 -4.340272285e-09)
(0.01099999605 4.799813475e-09 -5.988381574e-09)
(0.01099997751 8.047024017e-09 -1.203964138e-08)
(0.01099997869 2.333846214e-08 -1.117781915e-08)
(0.01099988899 4.388649485e-08 -4.646299259e-08)
(0.01099986321 1.89181305e-07 -7.162141024e-08)
(0.01099935833 2.300254901e-07 -2.204406548e-07)
(0.01099954641 2.073792258e-06 -1.50271138e-06)
(0.01100000085 2.020369663e-09 -1.163070281e-09)
(0.01100000023 8.666194408e-10 -2.721836127e-09)
(0.0109999993 2.019152973e-09 -8.638696795e-10)
(0.01099999935 3.483586406e-09 -7.501511844e-10)
(0.01100000006 1.423064878e-09 -3.365769809e-10)
(0.01099999815 1.883897839e-09 -1.694018833e-09)
(0.01099999975 3.417109939e-09 -1.388232283e-09)
(0.01099999764 5.974404009e-09 -5.338806982e-09)
(0.01099999884 6.624086484e-09 -6.383948922e-09)
(0.01099998199 1.375530364e-08 -1.281313483e-08)
(0.0109999928 2.495267307e-08 -2.613524103e-08)
(0.01099991108 4.666171689e-08 -4.493382808e-08)
(0.01099996331 1.274137434e-07 -1.265781822e-07)
(0.01099962115 1.495015352e-07 -1.48727853e-07)
(0.01099997539 9.514173044e-07 -9.514923305e-07)
(0.01100000035 3.894715146e-10 -6.217034833e-10)
(0.01099999957 1.790272676e-09 -1.548115714e-10)
(0.01099999982 3.389989824e-10 -6.48498324e-10)
(0.0109999993 -2.38241763e-10 2.76002347e-10)
(0.01099999929 1.622189827e-09 3.111532084e-12)
(0.01100000097 2.087540517e-09 8.210522559e-10)
(0.01100000151 1.810725637e-09 -1.155148091e-09)
(0.01099999954 2.936282808e-09 -3.696348685e-09)
(0.01100000663 5.949711546e-09 -6.891633317e-09)
(0.01099999938 1.136688131e-08 -1.229627121e-08)
(0.01100001654 2.699916508e-08 -2.334449798e-08)
(0.01099998238 4.360405885e-08 -3.745455065e-08)
(0.0110000622 1.288531229e-07 -9.663846479e-08)
(0.01099995714 1.294359169e-07 -9.338218889e-08)
(0.01100022186 6.235238423e-07 -4.103360958e-07)
(0.01099999999 1.670330183e-09 6.446787504e-10)
(0.0109999985 1.307495748e-09 -9.514303904e-10)
(0.01099999849 7.758468374e-10 -1.473926408e-09)
(0.0109999983 5.909374843e-10 -7.548994476e-11)
(0.01100000021 4.729257552e-11 -1.196025061e-11)
(0.0110000003 8.090075334e-10 5.11956278e-10)
(0.01100000309 1.348508206e-09 -4.533383438e-10)
(0.0110000039 6.565662228e-10 -4.700372562e-09)
(0.01100001016 2.062459504e-09 -8.326889505e-09)
(0.01100000858 4.189768515e-09 -1.150235193e-08)
(0.0110000291 1.118184801e-08 -2.440906381e-08)
(0.01100001672 1.563879584e-08 -3.623934267e-08)
(0.0110000974 4.138183293e-08 -8.409536556e-08)
(0.01100008106 3.682133944e-08 -7.98572917e-08)
(0.01100028329 1.622295034e-07 -2.475522821e-07)
(0.01100000013 -4.312971565e-10 2.144014191e-10)
(0.01099999904 -1.539076052e-09 1.196314736e-09)
(0.01099999915 -1.101578026e-09 1.345831701e-09)
(0.01100000075 1.886852438e-10 4.562135509e-10)
(0.01099999928 7.133002073e-10 -1.057474692e-09)
(0.01100000021 4.806322878e-10 -1.131051484e-09)
(0.01099999895 9.455964438e-10 -5.611775096e-10)
(0.0109999999 -6.656868249e-10 -3.294270424e-09)
(0.01100000663 -2.390005597e-09 -6.696925099e-09)
(0.01099999806 -6.480859716e-09 -1.05254249e-08)
(0.01100002027 -8.976975624e-09 -2.064851016e-08)
(0.01099999169 -1.603164853e-08 -3.21794459e-08)
(0.01100007523 -3.997066663e-08 -9.167718141e-08)
(0.01100001151 -3.744536122e-08 -9.89964064e-08)
(0.01100000028 -2.196297443e-09 6.90346161e-10)
(0.01100000079 -1.113905466e-09 7.716974473e-10)
(0.01100000062 -6.141460929e-10 6.783341571e-10)
(0.01099999813 -1.488515964e-09 -1.039530515e-10)
(0.01099999945 -1.729695095e-09 -1.63011287e-09)
(0.01099999864 -2.056239928e-09 -7.518680583e-10)
(0.01100000178 -2.166804917e-09 -2.047202317e-09)
(0.01099999675 -4.607120868e-09 -4.537415375e-09)
(0.01100000034 -6.526257847e-09 -5.687842231e-09)
(0.01099999 -1.174885056e-08 -1.102150226e-08)
(0.01100000765 -2.415056561e-08 -2.307531614e-08)
(0.0109999586 -4.430762138e-08 -3.842759458e-08)
(0.01100002714 -1.312148792e-07 -1.241156789e-07)
(0.01099983708 -1.542718135e-07 -1.329396154e-07)
(0.01099999966 -6.822512113e-10 4.163543106e-10)
(0.01100000096 -1.964497513e-10 6.962589349e-10)
(0.01100000001 5.168417343e-10 3.247935109e-10)
(0.01099999854 1.000495759e-09 4.168694513e-10)
(0.01099999931 -5.03797189e-11 -1.257994554e-09)
(0.01099999852 -1.840813327e-09 -3.867212388e-10)
(0.01099999708 -1.978277415e-09 -2.101963917e-09)
(0.01099999441 -2.903070003e-09 -2.515141854e-09)
(0.0109999939 -5.639341999e-09 -4.49850063e-09)
(0.01099997761 -1.106339092e-08 -8.757516801e-09)
(0.01099997787 -1.070954099e-08 -2.230265195e-08)
(0.0109998888 -4.740279835e-08 -4.381416117e-08)
(0.01099986267 -7.089032761e-08 -1.886215085e-07)
(0.01099935691 -2.183881679e-07 -2.303587427e-07)
(0.01100000102 -6.006561486e-10 3.404444629e-10)
(0.01100000327 -7.304869401e-10 9.865979206e-10)
(0.01100000064 -1.292907235e-09 7.233124338e-10)
(0.01099999832 -5.664402027e-10 7.260948631e-10)
(0.01099999822 -2.218346655e-10 1.497070807e-10)
(0.0109999981 1.128911898e-10 -5.488705067e-10)
(0.01099999739 -2.734706568e-09 -1.435773645e-09)
(0.01099999537 -2.100634822e-09 -2.169630495e-09)
(0.01099999251 -2.482102178e-09 -3.297556593e-09)
(0.01099998451 -6.536124605e-09 -4.903460991e-09)
(0.01099995983 -8.382133765e-09 -7.702740161e-09)
(0.01099993899 -3.701050361e-08 -3.687834165e-08)
(0.01099959453 -1.364406314e-07 -1.373815171e-07)
(0.01099940099 -4.153299149e-07 -4.158040335e-07)
(0.01099724177 -4.57893486e-06 -4.579008111e-06)
(0.01100000099 1.275337752e-09 9.683142427e-10)
(0.01100000086 1.674891001e-09 -6.685857437e-10)
(0.0110000013 1.074428778e-09 5.202611057e-10)
(0.01099999979 -1.728779727e-09 -4.565700078e-11)
(0.01099999899 -1.527469029e-09 -6.527269588e-10)
(0.01099999677 -6.526788482e-10 -7.694398337e-10)
(0.01099999835 -1.766678485e-09 -6.455110997e-10)
(0.0109999931 -1.979550072e-09 -4.721259172e-10)
(0.01099998902 -6.837351404e-11 -1.016161302e-09)
(0.01099997416 -1.784009477e-09 -3.285222923e-10)
(0.01099993603 5.88614122e-10 4.631616835e-09)
(0.01099981281 1.509391772e-10 4.675206577e-08)
(0.01099903834 -4.646845495e-10 -1.571879521e-07)
(0.01099717052 1.051216709e-09 4.594801306e-07)
(0.01098796484 5.200261792e-10 -2.093757755e-05)
(0.01100000026 6.141509267e-10 1.673548755e-10)
(0.01100000051 8.212974387e-10 -5.56562971e-10)
(0.01099999865 1.134335773e-09 -7.551204522e-10)
(0.01099999673 1.025878739e-09 -2.336281522e-10)
(0.01099999854 8.633424562e-11 -5.556639683e-10)
(0.0109999993 8.800890616e-10 2.622335048e-10)
(0.01099999736 1.274231139e-09 -3.065457701e-11)
(0.01099999668 2.035204714e-09 -1.418684195e-09)
(0.01099999257 1.676051099e-09 -3.09595851e-09)
(0.0109999864 5.418645969e-09 -7.54112614e-09)
(0.01099996246 6.221135893e-09 -8.61309619e-09)
(0.01099993925 3.801163393e-08 -3.671336552e-08)
(0.01099959327 1.37231845e-07 -1.363245992e-07)
(0.01099940051 4.147810592e-07 -4.141895104e-07)
(0.01099724135 4.578959389e-06 -4.577989406e-06)
(0.01100000025 1.208805204e-09 -9.226235828e-10)
(0.01100000069 7.053576668e-10 -2.162368892e-10)
(0.01100000038 1.02041007e-10 3.216097435e-10)
(0.01099999716 1.50986757e-09 -4.154821132e-10)
(0.01100000016 2.803095996e-09 5.270494306e-10)
(0.0109999999 9.758073231e-11 -6.632082299e-11)
(0.01099999868 3.255116517e-09 -1.168057437e-09)
(0.01099999609 4.651064733e-09 -1.83542083e-09)
(0.01099999612 4.177956186e-09 -6.380546558e-09)
(0.0109999797 1.183456195e-08 -9.120877046e-09)
(0.01099998067 1.084300021e-08 -2.05087331e-08)
(0.01099988697 4.67550715e-08 -4.249569429e-08)
(0.01099986392 7.137831091e-08 -1.865443852e-07)
(0.01099935953 2.19963277e-07 -2.288803239e-07)
(0.01099954503 1.500900565e-06 -2.073011493e-06)
(0.01099999978 1.008693582e-09 5.239637965e-11)
(0.0109999988 -6.027049282e-10 -3.989192089e-10)
(0.01099999867 -1.625818512e-10 3.901149102e-10)
(0.01100000026 -3.389086315e-11 -2.268115242e-11)
(0.01099999956 3.736938637e-10 7.70763957e-11)
(0.01100000023 2.405706912e-09 9.248027419e-10)
(0.01099999979 3.445001315e-09 -1.469654468e-09)
(0.01099999787 4.262789684e-09 -2.551484662e-09)
(0.01100000046 7.239307145e-09 -6.180549112e-09)
(0.01099999353 1.127818173e-08 -7.763086774e-09)
(0.0110000063 2.45776787e-08 -2.35503713e-08)
(0.01099995643 4.398568258e-08 -3.742114261e-08)
(0.01100003033 1.315272233e-07 -1.245956471e-07)
(0.01099983819 1.532326971e-07 -1.350069338e-07)
(0.01100017137 9.899424156e-07 -7.391547877e-07)
(0.01099999926 1.684160158e-09 -2.086145427e-09)
(0.01099999787 -1.063546804e-10 -2.420458688e-09)
(0.01100000048 -4.839577639e-10 -4.848124913e-10)
(0.01099999896 1.253303885e-09 6.11120493e-10)
(0.01100000052 1.164388854e-09 5.043395154e-10)
(0.01100000017 3.333504338e-11 -2.522612311e-10)
(0.01100000244 -1.923777955e-10 -1.814426461e-09)
(0.01100000052 -3.748900381e-10 -2.653532312e-09)
(0.011000006 1.538606496e-09 -5.588156131e-09)
(0.01100000111 5.857874136e-09 -8.406354759e-09)
(0.0110000198 9.426848598e-09 -2.142317104e-08)
(0.01099999199 1.572778291e-08 -3.204396669e-08)
(0.01100007688 4.331816222e-08 -9.2282384e-08)
(0.01100000731 3.870068795e-08 -1.002633521e-07)
(0.01100026641 2.342986011e-07 -3.615272051e-07)
(0.01100000048 7.63452988e-10 9.805761699e-10)
(0.01099999644 -1.523928221e-10 -8.756625238e-10)
(0.01100000002 -2.441552564e-10 -1.268896784e-10)
(0.01100000102 -1.989548452e-09 1.0236331e-09)
(0.01100000077 -8.770705399e-10 1.702510954e-09)
(0.01100000003 1.292814045e-09 1.578624887e-10)
(0.01099999833 -9.582233116e-10 8.620047901e-10)
(0.01099999566 -7.211188247e-10 1.087488039e-09)
(0.01100000153 -2.586809901e-09 -8.670398162e-10)
(0.01099998724 -5.866407194e-09 8.151433008e-10)
(0.01100000227 -1.014373394e-08 2.400961391e-09)
(0.01099994188 -1.912678769e-08 9.540268227e-11)
(0.01100001654 -7.014211966e-08 1.125813244e-09)
(0.0109998133 -6.954462117e-08 2.465438104e-09)
(0.01100000012 -3.030112652e-10 -4.712835302e-10)
(0.0109999981 -1.528244949e-09 1.204580587e-09)
(0.01100000026 -3.764979341e-10 -8.385782562e-11)
(0.01100000074 1.434331561e-10 -1.969207052e-10)
(0.01100000051 -5.563205572e-10 9.789548825e-10)
(0.01099999812 -9.331767478e-10 7.794311118e-10)
(0.0109999966 -1.810100034e-09 -5.473976639e-10)
(0.01099999467 -2.885136311e-09 6.856621179e-10)
(0.0109999985 -6.063694009e-09 1.816462039e-10)
(0.01099997559 -1.148339632e-08 1.430741884e-09)
(0.01099998403 -2.779125106e-08 5.572479417e-10)
(0.01099987895 -5.134203596e-08 -4.135884108e-11)
(0.01099992587 -2.185373222e-07 1.285831783e-09)
(0.01099939607 -2.605898e-07 6.673301652e-10)
(0.01099999955 -1.485805334e-09 9.826386763e-10)
(0.01100000113 -1.224140753e-10 -2.096132047e-10)
(0.01100000071 -3.021792863e-10 3.629002792e-10)
(0.01100000054 5.964411765e-10 4.009672993e-10)
(0.01099999808 -3.083080565e-10 1.873403491e-09)
(0.01099999699 -1.896856754e-09 4.669053115e-10)
(0.01099999698 -1.109403489e-09 2.332717201e-09)
(0.01099999139 -4.348015167e-09 -1.390672594e-10)
(0.01099999146 -5.148550213e-09 -1.147214465e-09)
(0.01099996102 -1.114497924e-08 -2.092651057e-10)
(0.01099995145 -8.052504948e-09 -1.029457412e-09)
(0.01099975499 -4.693678351e-08 -1.779744869e-09)
(0.01099963466 -1.393715306e-07 3.223491705e-10)
(0.01099814952 -4.298415451e-07 1.408168276e-09)
(0.01099999954 -1.387928378e-10 -6.690808945e-10)
(0.01100000302 3.166085974e-10 1.255449413e-09)
(0.01100000059 -3.796916725e-11 1.107008553e-09)
(0.01100000014 -5.586735829e-10 -1.777145827e-09)
(0.01099999626 4.521632326e-10 -1.081549766e-09)
(0.01099999823 -1.897300752e-10 6.820023268e-10)
(0.01099999628 -9.061148637e-10 1.333955461e-09)
(0.01099999346 -6.888872113e-10 -4.325167698e-10)
(0.01099998993 -9.205533951e-10 -3.636239434e-10)
(0.01099997252 1.567953853e-09 -2.979627401e-10)
(0.01099993579 3.886816907e-09 -2.014262488e-10)
(0.01099981199 4.757509372e-08 3.980040724e-10)
(0.01099903909 -1.542215192e-07 6.71192458e-10)
(0.01099717006 4.593476024e-07 1.629318391e-09)
(0.01099999951 -6.835460485e-11 1.506516139e-09)
(0.01100000087 -3.234264074e-09 1.056616857e-09)
(0.01100000069 -8.052329869e-10 -4.961861302e-10)
(0.01100000218 -1.528792059e-09 -5.55114379e-10)
(0.01099999807 -3.059336791e-09 2.860632186e-10)