/*--------------------------------*- C++ -*----------------------------------*\
| =========                 |                                                 |
| \\      /  F ield         | OpenFOAM: The Open Source CFD Toolbox           |
|  \\    /   O peration     | Version:  4.x                                   |
|   \\  /    A nd           | Web:      www.OpenFOAM.org                      |
|    \\/     M anipulation  |                                                 |
\*---------------------------------------------------------------------------*/
FoamFile
{
    version     2.0;
    format      ascii;
    class       volScalarField;
    location    "2000";
    object      X_CO2;
}
// * * * * * * * * * * * * * * * * * * * * * * * * * * * * * * * * * * * * * //

dimensions      [0 0 0 0 0 0 0];

internalField   nonuniform List<scalar> 
1175
(
0.04000731911
0.04000731912
0.04000731912
0.04000731913
0.04000731917
0.04000731932
0.04000731982
0.04000732141
0.04000732635
0.04000734095
0.04000738174
0.04000748824
0.0400077442
0.04000830128
0.0400093828
0.04000731912
0.04000731912
0.04000731912
0.04000731914
0.04000731919
0.04000731938
0.04000732004
0.04000732224
0.04000732929
0.04000735098
0.04000741411
0.04000758548
0.04000801134
0.04000895812
0.04001079585
0.04000731912
0.04000731912
0.04000731912
0.04000731914
0.04000731921
0.04000731948
0.04000732043
0.0400073237
0.04000733468
0.04000737003
0.0400074778
0.04000778416
0.04000857756
0.04001039247
0.04001392296
0.04000731912
0.04000731912
0.04000731912
0.04000731915
0.04000731924
0.04000731958
0.04000732082
0.04000732527
0.04000734069
0.04000739223
0.040007556
0.04000804219
0.04000935588
0.04001246349
0.04001855038
0.04000731912
0.04000731912
0.04000731912
0.04000731915
0.04000731925
0.04000731962
0.040007321
0.040007326
0.04000734363
0.04000740369
0.04000759912
0.04000819578
0.04000985979
0.04001391777
0.04002196427
0.04000731912
0.04000731912
0.04000731912
0.04000731915
0.04000731924
0.04000731958
0.04000732082
0.04000732527
0.04000734069
0.04000739223
0.04000755599
0.04000804218
0.04000935586
0.04001246344
0.04001855028
0.04000731912
0.04000731912
0.04000731912
0.04000731914
0.04000731921
0.04000731948
0.04000732043
0.0400073237
0.04000733468
0.04000737002
0.0400074778
0.04000778415
0.04000857753
0.0400103924
0.04001392282
0.04000731912
0.04000731912
0.04000731912
0.04000731914
0.04000731919
0.04000731938
0.04000732004
0.04000732224
0.04000732929
0.04000735098
0.04000741411
0.04000758547
0.04000801132
0.04000895806
0.04001079573
0.04000731911
0.04000731912
0.04000731912
0.04000731913
0.04000731917
0.04000731932
0.04000731982
0.04000732141
0.04000732635
0.04000734095
0.04000738174
0.04000748823
0.04000774418
0.04000830123
0.04000938268
0.04000731912
0.04000731912
0.04000731912
0.04000731914
0.04000731919
0.04000731938
0.04000732004
0.04000732224
0.04000732929
0.04000735098
0.04000741411
0.04000758548
0.04000801136
0.04000895818
0.04000731912
0.04000731912
0.04000731912
0.04000731914
0.04000731921
0.04000731947
0.04000732038
0.04000732355
0.04000733425
0.04000736891
0.04000747543
0.04000778085
0.04000857835
0.04001041384
0.04001398728
0.04000731912
0.04000731912
0.04000731912
0.04000731915
0.04000731925
0.04000731961
0.04000732098
0.04000732599
0.04000734382
0.04000740509
0.04000760556
0.04000821851
0.04000992031
0.04001402816
0.04002210595
0.04000731912
0.04000731912
0.04000731913
0.04000731916
0.04000731928
0.04000731977
0.04000732164
0.04000732875
0.04000735524
0.04000745107
0.04000778342
0.04000886719
0.04001208674
0.04002034817
0.0400369903
0.04000731912
0.04000731912
0.04000731913
0.04000731916
0.0400073193
0.04000731984
0.04000732195
0.04000733012
0.0400073613
0.04000747746
0.04000789592
0.0400093275
0.04001383894
0.04002620417
0.04005225376
0.04000731912
0.04000731912
0.04000731913
0.04000731916
0.04000731928
0.04000731977
0.04000732164
0.04000732875
0.04000735524
0.04000745107
0.04000778342
0.04000886717
0.04001208668
0.04002034801
0.04003698993
0.04000731912
0.04000731912
0.04000731912
0.04000731915
0.04000731925
0.04000731961
0.04000732098
0.04000732599
0.04000734382
0.04000740509
0.04000760555
0.04000821849
0.04000992024
0.04001402795
0.04002210547
0.04000731912
0.04000731912
0.04000731912
0.04000731914
0.04000731921
0.04000731947
0.04000732038
0.04000732355
0.04000733425
0.04000736891
0.04000747543
0.04000778083
0.0400085783
0.04001041369
0.0400139869
0.04000731912
0.04000731912
0.04000731912
0.04000731914
0.04000731919
0.04000731938
0.04000732004
0.04000732224
0.04000732929
0.04000735098
0.04000741411
0.04000758547
0.04000801132
0.04000895807
0.04001079573
0.04000731912
0.04000731912
0.04000731912
0.04000731914
0.04000731921
0.04000731948
0.04000732043
0.0400073237
0.04000733468
0.04000737003
0.0400074778
0.04000778418
0.0400085776
0.04001039259
0.04000731912
0.04000731912
0.04000731912
0.04000731915
0.04000731925
0.04000731961
0.04000732098
0.04000732599
0.04000734383
0.04000740509
0.04000760556
0.04000821852
0.04000992036
0.04001402839
0.04000731912
0.04000731912
0.04000731913
0.04000731916
0.0400073193
0.04000731985
0.04000732202
0.04000733044
0.04000736247
0.04000748086
0.04000790051
0.04000929772
0.04001352605
0.04002452895
0.0400467872
0.04000731912
0.04000731912
0.04000731913
0.04000731917
0.04000731936
0.04000732011
0.0400073232
0.04000733578
0.04000738648
0.04000758685
0.04000835467
0.04001115117
0.04002050853
0.04004749027
0.04010570946
0.04000731912
0.04000731912
0.04000731913
0.04000731918
0.04000731938
0.04000732023
0.04000732379
0.04000733863
0.04000740045
0.0400076556
0.04000869097
0.04001276001
0.04002780705
0.04007701749
0.04019747313
0.04000731912
0.04000731912
0.04000731913
0.04000731917
0.04000731936
0.04000732011
0.0400073232
0.04000733578
0.04000738648
0.04000758685
0.04000835466
0.04001115112
0.04002050832
0.0400474895
0.04010570736
0.04000731912
0.04000731912
0.04000731913
0.04000731916
0.0400073193
0.04000731985
0.04000732202
0.04000733044
0.04000736247
0.04000748086
0.0400079005
0.04000929766
0.04001352584
0.04002452824
0.04004678515
0.04000731912
0.04000731912
0.04000731912
0.04000731915
0.04000731925
0.04000731961
0.04000732098
0.04000732599
0.04000734382
0.04000740509
0.04000760555
0.04000821849
0.04000992024
0.04001402796
0.04002210549
0.04000731912
0.04000731912
0.04000731912
0.04000731914
0.04000731921
0.04000731948
0.04000732043
0.0400073237
0.04000733468
0.04000737002
0.0400074778
0.04000778416
0.04000857754
0.04001039241
0.04001392283
0.04000731912
0.04000731912
0.04000731912
0.04000731915
0.04000731924
0.04000731958
0.04000732082
0.04000732527
0.04000734069
0.04000739223
0.040007556
0.04000804221
0.04000935596
0.04001246371
0.04000731912
0.04000731912
0.04000731913
0.04000731916
0.04000731928
0.04000731977
0.04000732164
0.04000732875
0.04000735524
0.04000745107
0.04000778343
0.04000886724
0.0400120869
0.04002034874
0.04000731912
0.04000731912
0.04000731913
0.04000731917
0.04000731936
0.04000732011
0.0400073232
0.04000733578
0.04000738648
0.04000758686
0.04000835469
0.04001115124
0.04002050885
0.04004749182
0.04000731912
0.04000731912
0.04000731913
0.04000731919
0.04000731944
0.04000732049
0.04000732505
0.04000734472
0.04000742978
0.04000779582
0.04000934955
0.04001574826
0.04004052846
0.04012500522
0.04033741671
0.04000731912
0.04000731912
0.04000731914
0.0400073192
0.04000731948
0.04000732068
0.04000732601
0.04000734984
0.04000745757
0.04000795048
0.0400102272
0.04002076917
0.04006881894
0.04027432559
0.0409764338
0.04000731912
0.04000731912
0.04000731913
0.04000731919
0.04000731944
0.04000732049
0.04000732505
0.04000734472
0.04000742977
0.04000779581
0.04000934952
0.0400157481
0.04004052767
0.04012500166
0.04033740345
0.04000731912
0.04000731912
0.04000731913
0.04000731917
0.04000731936
0.04000732011
0.0400073232
0.04000733578
0.04000738648
0.04000758685
0.04000835466
0.04001115114
0.04002050837
0.04004748964
0.04010570751
0.04000731912
0.04000731912
0.04000731913
0.04000731916
0.04000731928
0.04000731977
0.04000732164
0.04000732875
0.04000735524
0.04000745107
0.04000778342
0.04000886718
0.0400120867
0.04002034805
0.04003698996
0.04000731912
0.04000731912
0.04000731912
0.04000731915
0.04000731924
0.04000731958
0.04000732082
0.04000732527
0.04000734069
0.04000739223
0.040007556
0.04000804218
0.04000935587
0.04001246346
0.0400185503
0.04000731912
0.04000731912
0.04000731912
0.04000731915
0.04000731925
0.04000731962
0.040007321
0.040007326
0.04000734363
0.0400074037
0.04000759913
0.04000819581
0.0400098599
0.04001391807
0.04000731912
0.04000731912
0.04000731913
0.04000731916
0.0400073193
0.04000731984
0.04000732195
0.04000733012
0.0400073613
0.04000747746
0.04000789593
0.04000932757
0.04001383919
0.040026205
0.04000731912
0.04000731912
0.04000731913
0.04000731918
0.04000731938
0.04000732023
0.04000732379
0.04000733863
0.04000740045
0.04000765561
0.04000869101
0.04001276018
0.04002780784
0.0400770208
0.04000731912
0.04000731912
0.04000731914
0.0400073192
0.04000731948
0.04000732068
0.04000732601
0.04000734984
0.04000745757
0.04000795049
0.04001022725
0.0400207695
0.04006882095
0.04027433878
0.04000731912
0.04000731912
0.04000731914
0.04000731921
0.04000731952
0.04000732091
0.04000732722
0.04000735661
0.04000749725
0.04000819566
0.04001183084
0.04003188786
0.04015044051
0.0409068835
0.04617725859
0.04000731912
0.04000731912
0.04000731914
0.0400073192
0.04000731948
0.04000732068
0.04000732601
0.04000734984
0.04000745757
0.04000795048
0.04001022721
0.04002076924
0.04006881922
0.0402743266
0.0409764362
0.04000731912
0.04000731912
0.04000731913
0.04000731918
0.04000731938
0.04000732023
0.04000732379
0.04000733863
0.04000740045
0.0400076556
0.04000869098
0.04001276004
0.04002780716
0.04007701781
0.04019747353
0.04000731912
0.04000731912
0.04000731913
0.04000731916
0.0400073193
0.04000731984
0.04000732195
0.04000733012
0.0400073613
0.04000747746
0.04000789592
0.04000932751
0.04001383896
0.04002620424
0.0400522538
0.04000731912
0.04000731912
0.04000731912
0.04000731915
0.04000731925
0.04000731962
0.040007321
0.040007326
0.04000734363
0.0400074037
0.04000759912
0.04000819578
0.04000985981
0.04001391781
0.0400219643
0.04000731912
0.04000731912
0.04000731912
0.04000731915
0.04000731924
0.04000731958
0.04000732082
0.04000732527
0.04000734069
0.04000739223
0.040007556
0.04000804221
0.04000935595
0.04001246368
0.04000731912
0.04000731912
0.04000731913
0.04000731916
0.04000731928
0.04000731977
0.04000732164
0.04000732875
0.04000735524
0.04000745107
0.04000778343
0.04000886723
0.04001208688
0.04002034859
0.04000731912
0.04000731912
0.04000731913
0.04000731917
0.04000731936
0.04000732011
0.0400073232
0.04000733578
0.04000738648
0.04000758686
0.04000835469
0.04001115127
0.04002050889
0.04004749138
0.04000731912
0.04000731912
0.04000731913
0.04000731919
0.04000731944
0.04000732049
0.04000732505
0.04000734472
0.04000742978
0.04000779582
0.04000934957
0.04001574838
0.040040529
0.04012500708
0.04000731912
0.04000731912
0.04000731914
0.0400073192
0.04000731948
0.04000732068
0.04000732601
0.04000734984
0.04000745757
0.04000795049
0.04001022725
0.04002076949
0.04006882091
0.04027433824
0.04000731912
0.04000731912
0.04000731913
0.04000731919
0.04000731944
0.04000732049
0.04000732505
0.04000734472
0.04000742978
0.04000779582
0.04000934956
0.04001574832
0.04004052879
0.04012500685
0.04000731912
0.04000731912
0.04000731913
0.04000731917
0.04000731936
0.04000732011
0.0400073232
0.04000733578
0.04000738648
0.04000758685
0.04000835468
0.04001115122
0.04002050871
0.04004749083
0.0401057111
0.04000731912
0.04000731912
0.04000731913
0.04000731916
0.04000731928
0.04000731977
0.04000732164
0.04000732875
0.04000735524
0.04000745107
0.04000778343
0.04000886721
0.0400120868
0.04002034836
0.04003699062
0.04000731912
0.04000731912
0.04000731912
0.04000731915
0.04000731924
0.04000731958
0.04000732082
0.04000732527
0.04000734069
0.04000739223
0.040007556
0.0400080422
0.0400093559
0.04001246355
0.04001855046
0.04000731912
0.04000731912
0.04000731912
0.04000731914
0.04000731921
0.04000731948
0.04000732043
0.0400073237
0.04000733468
0.04000737003
0.0400074778
0.04000778417
0.04000857759
0.04001039254
0.04000731912
0.04000731912
0.04000731912
0.04000731915
0.04000731925
0.04000731961
0.04000732098
0.04000732599
0.04000734383
0.04000740509
0.04000760556
0.04000821853
0.04000992036
0.04001402828
0.04000731912
0.04000731912
0.04000731913
0.04000731916
0.0400073193
0.04000731985
0.04000732202
0.04000733044
0.04000736247
0.04000748086
0.04000790052
0.04000929775
0.04001352613
0.04002452906
0.04000731912
0.04000731912
0.04000731913
0.04000731917
0.04000731936
0.04000732011
0.0400073232
0.04000733578
0.04000738648
0.04000758686
0.0400083547
0.04001115128
0.04002050893
0.04004749141
0.04000731912
0.04000731912
0.04000731913
0.04000731918
0.04000731938
0.04000732023
0.04000732379
0.04000733864
0.04000740045
0.04000765561
0.04000869101
0.0400127602
0.0400278079
0.04007702065
0.04000731912
0.04000731912
0.04000731913
0.04000731917
0.04000731936
0.04000732011
0.0400073232
0.04000733578
0.04000738648
0.04000758686
0.04000835469
0.04001115126
0.04002050888
0.04004749129
0.04000731912
0.04000731912
0.04000731913
0.04000731916
0.0400073193
0.04000731985
0.04000732202
0.04000733044
0.04000736247
0.04000748086
0.04000790052
0.04000929774
0.04001352612
0.0400245292
0.04000731912
0.04000731912
0.04000731912
0.04000731915
0.04000731925
0.04000731961
0.04000732098
0.04000732599
0.04000734383
0.04000740509
0.04000760556
0.04000821852
0.04000992034
0.04001402826
0.04002210621
0.04000731912
0.04000731912
0.04000731912
0.04000731914
0.04000731921
0.04000731948
0.04000732043
0.0400073237
0.04000733468
0.04000737003
0.0400074778
0.04000778417
0.04000857758
0.04001039251
0.04001392304
0.04000731912
0.04000731912
0.04000731912
0.04000731914
0.04000731919
0.04000731938
0.04000732004
0.04000732224
0.04000732929
0.04000735098
0.04000741411
0.04000758548
0.04000801135
0.04000895814
0.04000731912
0.04000731912
0.04000731912
0.04000731914
0.04000731921
0.04000731947
0.04000732038
0.04000732355
0.04000733425
0.04000736891
0.04000747544
0.04000778085
0.04000857836
0.04001041384
0.04000731912
0.04000731912
0.04000731912
0.04000731915
0.04000731925
0.04000731961
0.04000732098
0.04000732599
0.04000734383
0.04000740509
0.04000760556
0.04000821853
0.04000992037
0.04001402829
0.04000731912
0.04000731912
0.04000731913
0.04000731916
0.04000731928
0.04000731977
0.04000732164
0.04000732875
0.04000735524
0.04000745107
0.04000778344
0.04000886725
0.04001208691
0.04002034863
0.04000731912
0.04000731912
0.04000731913
0.04000731916
0.0400073193
0.04000731984
0.04000732195
0.04000733012
0.0400073613
0.04000747747
0.04000789594
0.04000932758
0.04001383922
0.04002620496
0.04000731912
0.04000731912
0.04000731913
0.04000731916
0.04000731928
0.04000731977
0.04000732164
0.04000732875
0.04000735524
0.04000745107
0.04000778344
0.04000886724
0.04001208689
0.04002034856
0.04000731912
0.04000731912
0.04000731912
0.04000731915
0.04000731925
0.04000731961
0.04000732098
0.04000732599
0.04000734383
0.04000740509
0.04000760556
0.04000821852
0.04000992036
0.04001402828
0.04000731912
0.04000731912
0.04000731912
0.04000731914
0.04000731921
0.04000731947
0.04000732038
0.04000732355
0.04000733425
0.04000736891
0.04000747543
0.04000778085
0.04000857836
0.04001041388
0.04000731912
0.04000731912
0.04000731912
0.04000731914
0.04000731919
0.04000731938
0.04000732004
0.04000732224
0.04000732929
0.04000735098
0.04000741411
0.04000758548
0.04000801135
0.04000895815
0.04001079591
0.04000731911
0.04000731912
0.04000731912
0.04000731913
0.04000731917
0.04000731932
0.04000731982
0.04000732141
0.04000732635
0.04000734095
0.04000738174
0.04000748824
0.0400077442
0.04000830128
0.04000731912
0.04000731912
0.04000731912
0.04000731914
0.04000731919
0.04000731938
0.04000732004
0.04000732224
0.04000732929
0.04000735098
0.04000741411
0.04000758548
0.04000801135
0.04000895815
0.04000731912
0.04000731912
0.04000731912
0.04000731914
0.04000731921
0.04000731948
0.04000732043
0.0400073237
0.04000733468
0.04000737003
0.04000747781
0.04000778418
0.0400085776
0.04001039256
0.04000731912
0.04000731912
0.04000731912
0.04000731915
0.04000731924
0.04000731958
0.04000732082
0.04000732527
0.04000734069
0.04000739223
0.04000755601
0.04000804222
0.04000935596
0.04001246369
0.04000731912
0.04000731912
0.04000731912
0.04000731915
0.04000731925
0.04000731962
0.040007321
0.040007326
0.04000734363
0.0400074037
0.04000759913
0.04000819582
0.04000985991
0.04001391805
0.04000731912
0.04000731912
0.04000731912
0.04000731915
0.04000731924
0.04000731958
0.04000732082
0.04000732527
0.04000734069
0.04000739223
0.040007556
0.04000804221
0.04000935595
0.04001246365
0.04000731912
0.04000731912
0.04000731912
0.04000731914
0.04000731921
0.04000731948
0.04000732043
0.0400073237
0.04000733468
0.04000737003
0.0400074778
0.04000778417
0.04000857759
0.04001039254
0.04000731912
0.04000731912
0.04000731912
0.04000731914
0.04000731919
0.04000731938
0.04000732004
0.04000732224
0.04000732929
0.04000735098
0.04000741411
0.04000758548
0.04000801135
0.04000895815
0.04000731911
0.04000731912
0.04000731912
0.04000731913
0.04000731917
0.04000731932
0.04000731982
0.04000732141
0.04000732635
0.04000734095
0.04000738174
0.04000748824
0.0400077442
0.0400083013
)
;

boundaryField
{
    top
    {
        type            calculated;
        value           nonuniform List<scalar> 
134
(
0.04000731911
0.04000731912
0.04000731912
0.04000731912
0.04000731912
0.04000731912
0.04000731912
0.04000731912
0.04000731911
0.04000731912
0.04000731912
0.04000731912
0.04000731912
0.04000731912
0.04000731912
0.04000731912
0.04000731912
0.04000731912
0.04000731912
0.04000731912
0.04000731912
0.04000731912
0.04000731912
0.04000731912
0.04000731912
0.04000731912
0.04000731912
0.04000731913
0.04000731914
0.04000731914
0.04000731915
0.04000731915
0.04000731915
0.04000731914
0.04000731914
0.04000731913
0.04000731917
0.04000731919
0.04000731921
0.04000731924
0.04000731925
0.04000731924
0.04000731921
0.04000731919
0.04000731917
0.04000731932
0.04000731938
0.04000731948
0.04000731958
0.04000731962
0.04000731958
0.04000731948
0.04000731938
0.04000731932
0.04000731982
0.04000732004
0.04000732043
0.04000732082
0.040007321
0.04000732082
0.04000732043
0.04000732004
0.04000731982
0.04000732141
0.04000732224
0.0400073237
0.04000732527
0.040007326
0.04000732527
0.0400073237
0.04000732224
0.04000732141
0.04000732635
0.04000732929
0.04000733468
0.04000734069
0.04000734363
0.04000734069
0.04000733468
0.04000732929
0.04000732635
0.04000734095
0.04000735098
0.04000737002
0.04000739223
0.0400074037
0.04000739223
0.04000737003
0.04000735098
0.04000734095
0.04000738174
0.04000741411
0.0400074778
0.040007556
0.04000759912
0.040007556
0.0400074778
0.04000741411
0.04000738174
0.04000748823
0.04000758547
0.04000778416
0.04000804218
0.04000819578
0.0400080422
0.04000778417
0.04000758548
0.04000748824
0.04000774418
0.04000801132
0.04000857754
0.04000935587
0.04000985981
0.0400093559
0.04000857758
0.04000801135
0.0400077442
0.04000830123
0.04000895807
0.04001039241
0.04001246346
0.04001391781
0.04001246355
0.04001039251
0.04000895815
0.0400083013
0.04000938268
0.04001079573
0.04001392283
0.0400185503
0.0400219643
0.04001855046
0.04001392304
0.04001079591
)
;
    }
    bottom
    {
        type            calculated;
        value           nonuniform List<scalar> 
127
(
0.04000731911
0.04000731912
0.04000731912
0.04000731912
0.04000731912
0.04000731912
0.04000731912
0.04000731912
0.04000731911
0.04000731912
0.04000731912
0.04000731912
0.04000731912
0.04000731912
0.04000731912
0.04000731912
0.04000731912
0.04000731912
0.04000731912
0.04000731912
0.04000731912
0.04000731912
0.04000731912
0.04000731912
0.04000731912
0.04000731912
0.04000731912
0.04000731913
0.04000731914
0.04000731914
0.04000731915
0.04000731915
0.04000731915
0.04000731914
0.04000731914
0.04000731913
0.04000731917
0.04000731919
0.04000731921
0.04000731924
0.04000731925
0.04000731924
0.04000731921
0.04000731919
0.04000731917
0.04000731932
0.04000731938
0.04000731948
0.04000731958
0.04000731962
0.04000731958
0.04000731948
0.04000731938
0.04000731932
0.04000731982
0.04000732004
0.04000732043
0.04000732082
0.040007321
0.04000732082
0.04000732043
0.04000732004
0.04000731982
0.04000732141
0.04000732224
0.0400073237
0.04000732527
0.040007326
0.04000732527
0.0400073237
0.04000732224
0.04000732141
0.04000732635
0.04000732929
0.04000733468
0.04000734069
0.04000734363
0.04000734069
0.04000733468
0.04000732929
0.04000732635
0.04000734095
0.04000735098
0.04000737003
0.04000739223
0.0400074037
0.04000739223
0.04000737003
0.04000735098
0.04000734095
0.04000738174
0.04000741411
0.0400074778
0.040007556
0.04000759913
0.040007556
0.0400074778
0.04000741411
0.04000738174
0.04000748824
0.04000758548
0.04000778418
0.04000804221
0.04000819581
0.04000804221
0.04000778417
0.04000758548
0.04000748824
0.0400077442
0.04000801136
0.0400085776
0.04000935596
0.0400098599
0.04000935595
0.04000857759
0.04000801135
0.0400077442
0.04000830128
0.04000895818
0.04001039259
0.04001246371
0.04001391807
0.04001246368
0.04001039254
0.04000895814
0.04000830128
0.0400093828
)
;
    }
    side-walls
    {
        type            calculated;
        value           nonuniform List<scalar> 
261
(
0.04000731911
0.04000731912
0.04000731912
0.04000731912
0.04000731912
0.04000731912
0.04000731912
0.04000731912
0.04000731911
0.04000731912
0.04000731912
0.04000731912
0.04000731912
0.04000731912
0.04000731912
0.04000731912
0.04000731912
0.04000731912
0.04000731912
0.04000731912
0.04000731912
0.04000731912
0.04000731912
0.04000731912
0.04000731912
0.04000731912
0.04000731912
0.04000731913
0.04000731914
0.04000731914
0.04000731915
0.04000731915
0.04000731915
0.04000731914
0.04000731914
0.04000731913
0.04000731917
0.04000731919
0.04000731921
0.04000731924
0.04000731925
0.04000731924
0.04000731921
0.04000731919
0.04000731917
0.04000731932
0.04000731938
0.04000731948
0.04000731958
0.04000731962
0.04000731958
0.04000731948
0.04000731938
0.04000731932
0.04000731982
0.04000732004
0.04000732043
0.04000732082
0.040007321
0.04000732082
0.04000732043
0.04000732004
0.04000731982
0.04000732141
0.04000732224
0.0400073237
0.04000732527
0.040007326
0.04000732527
0.0400073237
0.04000732224
0.04000732141
0.04000732635
0.04000732929
0.04000733468
0.04000734069
0.04000734363
0.04000734069
0.04000733468
0.04000732929
0.04000732635
0.04000734095
0.04000735098
0.04000737003
0.04000739223
0.04000740369
0.04000739223
0.04000737002
0.04000735098
0.04000734095
0.04000738174
0.04000741411
0.0400074778
0.040007556
0.04000759912
0.04000755599
0.0400074778
0.04000741411
0.04000738174
0.04000748824
0.04000758548
0.04000778416
0.04000804219
0.04000819578
0.04000804218
0.04000778415
0.04000758547
0.04000748823
0.0400077442
0.04000801134
0.04000857756
0.04000935588
0.04000985979
0.04000935586
0.04000857753
0.04000801132
0.04000774418
0.04000830128
0.04000895812
0.04001039247
0.04001246349
0.04001391777
0.04001246344
0.0400103924
0.04000895806
0.04000830123
0.0400093828
0.04001079585
0.04001392296
0.04001855038
0.04002196427
0.04001855028
0.04001392282
0.04001079573
0.04000938268
0.04000731911
0.04000731912
0.04000731912
0.04000731912
0.04000731912
0.04000731912
0.04000731912
0.04000731912
0.04000731911
0.04000731912
0.04000731912
0.04000731912
0.04000731912
0.04000731912
0.04000731912
0.04000731912
0.04000731912
0.04000731912
0.04000731912
0.04000731912
0.04000731912
0.04000731912
0.04000731912
0.04000731912
0.04000731912
0.04000731912
0.04000731912
0.04000731913
0.04000731914
0.04000731914
0.04000731915
0.04000731915
0.04000731915
0.04000731914
0.04000731914
0.04000731913
0.04000731917
0.04000731919
0.04000731921
0.04000731924
0.04000731925
0.04000731924
0.04000731921
0.04000731919
0.04000731917
0.04000731932
0.04000731938
0.04000731948
0.04000731958
0.04000731962
0.04000731958
0.04000731948
0.04000731938
0.04000731932
0.04000731982
0.04000732004
0.04000732043
0.04000732082
0.040007321
0.04000732082
0.04000732043
0.04000732004
0.04000731982
0.04000732141
0.04000732224
0.0400073237
0.04000732527
0.040007326
0.04000732527
0.0400073237
0.04000732224
0.04000732141
0.04000732635
0.04000732929
0.04000733468
0.04000734069
0.04000734363
0.04000734069
0.04000733468
0.04000732929
0.04000732635
0.04000734095
0.04000735098
0.04000737003
0.04000739223
0.0400074037
0.04000739223
0.04000737003
0.04000735098
0.04000734095
0.04000738174
0.04000741411
0.04000747781
0.04000755601
0.04000759913
0.040007556
0.0400074778
0.04000741411
0.04000738174
0.04000748824
0.04000758548
0.04000778418
0.04000804222
0.04000819582
0.04000804221
0.04000778417
0.04000758548
0.04000748824
0.0400077442
0.04000801135
0.0400085776
0.04000935596
0.04000985991
0.04000935595
0.04000857759
0.04000801135
0.0400077442
0.04000830128
0.04000895815
0.04001039256
0.04001246369
0.04001391805
0.04001246365
0.04001039254
0.04000895815
0.0400083013
)
;
    }
    inlet
    {
        type            calculated;
        value           nonuniform List<scalar> 
81
(
0.04000731911
0.04000731912
0.04000731912
0.04000731912
0.04000731912
0.04000731912
0.04000731912
0.04000731912
0.04000731911
0.04000731912
0.04000731912
0.04000731912
0.04000731912
0.04000731912
0.04000731912
0.04000731912
0.04000731912
0.04000731912
0.04000731912
0.04000731912
0.04000731912
0.04000731912
0.04000731912
0.04000731912
0.04000731912
0.04000731912
0.04000731912
0.04000731912
0.04000731912
0.04000731912
0.04000731912
0.04000731912
0.04000731912
0.04000731912
0.04000731912
0.04000731912
0.04000731912
0.04000731912
0.04000731912
0.04000731912
0.04000731912
0.04000731912
0.04000731912
0.04000731912
0.04000731912
0.04000731912
0.04000731912
0.04000731912
0.04000731912
0.04000731912
0.04000731912
0.04000731912
0.04000731912
0.04000731912
0.04000731912
0.04000731912
0.04000731912
0.04000731912
0.04000731912
0.04000731912
0.04000731912
0.04000731912
0.04000731912
0.04000731912
0.04000731912
0.04000731912
0.04000731912
0.04000731912
0.04000731912
0.04000731912
0.04000731912
0.04000731912
0.04000731911
0.04000731912
0.04000731912
0.04000731912
0.04000731912
0.04000731912
0.04000731912
0.04000731912
0.04000731911
)
;
    }
    outlet
    {
        type            calculated;
        value           nonuniform 0();
    }
    procBoundary0to1
    {
        type            processor;
        value           nonuniform List<scalar> 
97
(
0.04001124242
0.04001079595
0.04001386659
0.04001959737
0.04002787272
0.0400336849
0.04002787257
0.04001959715
0.04001386639
0.04001124225
0.04001079595
0.04001079595
0.04001968289
0.04002210637
0.04003412557
0.04005938419
0.04008279667
0.04005938371
0.0400341249
0.04001968242
0.04001386639
0.04001392311
0.04002210637
0.04002210637
0.04007609391
0.04010571222
0.04016789467
0.0402860318
0.04016789252
0.04007609178
0.04003412489
0.04001959713
0.04001855062
0.04003699101
0.04010571222
0.04010571222
0.04047804035
0.04097644278
0.04107659257
0.04047803161
0.04016789248
0.04005938361
0.04002787253
0.04002196456
0.04005225453
0.040197476
0.04097644278
0.04097644278
0.04363386641
0.04097644033
0.04107659215
0.04033740859
0.04028603135
0.04008279638
0.04003368481
0.04001855049
0.04003699043
0.04010570917
0.04033740726
0.04097644033
0.04033740859
0.04033740859
0.0401678947
0.04004678682
0.04005938426
0.04002787272
0.04001392294
0.04002210575
0.04004678588
0.04010570904
0.04019747503
0.04010570874
0.04004678682
0.04004678682
0.04003412552
0.04001398722
0.04001959738
0.04001079578
0.04001398701
0.04002210575
0.04003699041
0.0400522542
0.04003699029
0.04002210583
0.04001398722
0.04001398722
0.04001386658
0.04000938278
0.04000938271
0.04001079579
0.04001392295
0.04001855047
0.04002196442
0.0400185504
0.04001392292
0.04001079583
0.04000938278
)
;
    }
}


// ************************************************************************* //
