/*--------------------------------*- C++ -*----------------------------------*\
| =========                 |                                                 |
| \\      /  F ield         | OpenFOAM: The Open Source CFD Toolbox           |
|  \\    /   O peration     | Version:  4.x                                   |
|   \\  /    A nd           | Web:      www.OpenFOAM.org                      |
|    \\/     M anipulation  |                                                 |
\*---------------------------------------------------------------------------*/
FoamFile
{
    version     2.0;
    format      ascii;
    class       volScalarField;
    location    "2000";
    object      X_H2O;
}
// * * * * * * * * * * * * * * * * * * * * * * * * * * * * * * * * * * * * * //

dimensions      [0 0 0 0 0 0 0];

internalField   nonuniform List<scalar> 
1175
(
1.504098477e-05
1.504098571e-05
1.504098756e-05
1.504099747e-05
1.504103389e-05
1.504115374e-05
1.504155554e-05
1.504284893e-05
1.504685175e-05
1.505868488e-05
1.509177033e-05
1.517816818e-05
1.538585691e-05
1.583797761e-05
1.671586529e-05
1.504098515e-05
1.504098582e-05
1.504098783e-05
1.504099963e-05
1.50410441e-05
1.50411996e-05
1.504173521e-05
1.504351448e-05
1.504923372e-05
1.5066828e-05
1.511804638e-05
1.525711395e-05
1.560278487e-05
1.637143393e-05
1.786365069e-05
1.504098409e-05
1.504098571e-05
1.504099049e-05
1.50410047e-05
1.50410649e-05
1.504128092e-05
1.504204601e-05
1.50447013e-05
1.50536116e-05
1.508228538e-05
1.516975323e-05
1.541844983e-05
1.606265551e-05
1.75365807e-05
2.040427516e-05
1.504098568e-05
1.504098729e-05
1.504099317e-05
1.504101236e-05
1.504108514e-05
1.504136093e-05
1.504236838e-05
1.504597269e-05
1.505848664e-05
1.510030749e-05
1.523324937e-05
1.562801899e-05
1.669493987e-05
1.921934413e-05
2.416481951e-05
1.504098693e-05
1.504098787e-05
1.504099256e-05
1.504101386e-05
1.504109291e-05
1.504139438e-05
1.504251507e-05
1.504656934e-05
1.506087191e-05
1.510962251e-05
1.526827647e-05
1.575279472e-05
1.710441272e-05
2.040132217e-05
2.693998131e-05
1.504098506e-05
1.504098777e-05
1.504099095e-05
1.504101073e-05
1.504108548e-05
1.50413607e-05
1.504236969e-05
1.504597321e-05
1.505848656e-05
1.510030912e-05
1.523324741e-05
1.562801299e-05
1.669492065e-05
1.921927503e-05
2.416463796e-05
1.504098665e-05
1.504098743e-05
1.504099011e-05
1.504100518e-05
1.504106485e-05
1.504128155e-05
1.504204778e-05
1.504470423e-05
1.505361394e-05
1.508228761e-05
1.516975223e-05
1.541844168e-05
1.606261871e-05
1.753646316e-05
2.040399723e-05
1.504098704e-05
1.504098629e-05
1.504098923e-05
1.504100323e-05
1.504104443e-05
1.504120049e-05
1.504173494e-05
1.504351537e-05
1.504923532e-05
1.506682862e-05
1.511804553e-05
1.525710426e-05
1.560274656e-05
1.637131585e-05
1.786337613e-05
1.504098634e-05
1.504098674e-05
1.504098881e-05
1.504099935e-05
1.504103466e-05
1.504115516e-05
1.504155714e-05
1.504284949e-05
1.504685252e-05
1.505868532e-05
1.509176783e-05
1.5178157e-05
1.538582054e-05
1.58378632e-05
1.67155856e-05
1.504098401e-05
1.504098552e-05
1.50409895e-05
1.504100144e-05
1.504104509e-05
1.504119997e-05
1.504173502e-05
1.50435146e-05
1.504923487e-05
1.506683014e-05
1.511805047e-05
1.525712902e-05
1.560283628e-05
1.637163275e-05
1.504098521e-05
1.504098669e-05
1.504099086e-05
1.50410053e-05
1.504106159e-05
1.504127009e-05
1.504200855e-05
1.504458158e-05
1.505326101e-05
1.508138258e-05
1.516784234e-05
1.541579766e-05
1.606341753e-05
1.755429186e-05
2.045737336e-05
1.504098542e-05
1.504098655e-05
1.504099215e-05
1.504101288e-05
1.504109029e-05
1.504138961e-05
1.504250097e-05
1.504656339e-05
1.506103362e-05
1.511075839e-05
1.527352079e-05
1.577131305e-05
1.715373286e-05
2.049140157e-05
2.70558923e-05
1.504098645e-05
1.504098826e-05
1.504099398e-05
1.504101773e-05
1.504111959e-05
1.50415135e-05
1.504303002e-05
1.50488022e-05
1.507030422e-05
1.514809931e-05
1.541800358e-05
1.629837088e-05
1.891435452e-05
2.562860218e-05
3.915669891e-05
1.504098765e-05
1.504098913e-05
1.504099651e-05
1.504102293e-05
1.504113084e-05
1.504156871e-05
1.50432813e-05
1.50499158e-05
1.507521801e-05
1.516953721e-05
1.550940668e-05
1.667247023e-05
2.03387164e-05
3.038994204e-05
5.15692909e-05
1.504098565e-05
1.504098645e-05
1.504099276e-05
1.504101897e-05
1.504112017e-05
1.504151356e-05
1.504303054e-05
1.504880234e-05
1.507030355e-05
1.51481e-05
1.54180007e-05
1.629835557e-05
1.891427576e-05
2.562830107e-05
3.915587035e-05
1.504098732e-05
1.504098761e-05
1.504099171e-05
1.504101306e-05
1.504109097e-05
1.504138912e-05
1.504250148e-05
1.504656595e-05
1.506103482e-05
1.511075657e-05
1.527351592e-05
1.577128507e-05
1.715360986e-05
2.049097996e-05
2.705481218e-05
1.50409875e-05
1.504098789e-05
1.504099079e-05
1.504100633e-05
1.504106249e-05
1.504127014e-05
1.504200937e-05
1.504458194e-05
1.505326139e-05
1.50813811e-05
1.516783887e-05
1.541577139e-05
1.606331324e-05
1.755393132e-05
2.045639132e-05
1.504098664e-05
1.504098725e-05
1.504098899e-05
1.504100276e-05
1.504104549e-05
1.504120123e-05
1.504173462e-05
1.504351443e-05
1.50492357e-05
1.506682848e-05
1.511804482e-05
1.525710631e-05
1.560275141e-05
1.63713262e-05
1.786338673e-05
1.50409848e-05
1.504098482e-05
1.504098949e-05
1.5041005e-05
1.504106597e-05
1.504128109e-05
1.50420474e-05
1.504470364e-05
1.505361232e-05
1.508228878e-05
1.516976637e-05
1.541849511e-05
1.606281232e-05
1.753708995e-05
1.504098634e-05
1.504098771e-05
1.50409918e-05
1.504101234e-05
1.504109085e-05
1.504138801e-05
1.504250038e-05
1.50465657e-05
1.506103485e-05
1.511076104e-05
1.527353418e-05
1.577136544e-05
1.715393384e-05
2.049222062e-05
1.504098643e-05
1.504098713e-05
1.504099433e-05
1.504102147e-05
1.504113363e-05
1.504158139e-05
1.504334296e-05
1.505017719e-05
1.50761716e-05
1.517230093e-05
1.551314468e-05
1.664828289e-05
2.008444992e-05
2.902825423e-05
4.712517337e-05
1.504098861e-05
1.504098994e-05
1.504099751e-05
1.504103411e-05
1.504118112e-05
1.504179183e-05
1.504429718e-05
1.505451302e-05
1.509567094e-05
1.525840508e-05
1.588217799e-05
1.815469509e-05
2.576078688e-05
4.769824892e-05
9.504373327e-05
1.504098941e-05
1.504098989e-05
1.504099849e-05
1.5041038e-05
1.504120138e-05
1.504189096e-05
1.504477376e-05
1.505682547e-05
1.510702113e-05
1.531426295e-05
1.615550874e-05
1.946260851e-05
3.169549373e-05
7.1712881e-05
0.0001696895801
1.504098881e-05
1.504099136e-05
1.504099948e-05
1.504103493e-05
1.504118199e-05
1.504179222e-05
1.504429916e-05
1.505451214e-05
1.509566874e-05
1.525840323e-05
1.588216605e-05
1.815462627e-05
2.576042576e-05
4.769666438e-05
9.503870605e-05
1.504098754e-05
1.504098953e-05
1.504099561e-05
1.50410233e-05
1.504113539e-05
1.50415834e-05
1.504334463e-05
1.505017494e-05
1.507616953e-05
1.517229657e-05
1.55131278e-05
1.664819127e-05
2.008401686e-05
2.902650473e-05
4.711969576e-05
1.504098873e-05
1.504098929e-05
1.504099328e-05
1.504101308e-05
1.50410926e-05
1.504138925e-05
1.504250073e-05
1.504656297e-05
1.506103218e-05
1.511075662e-05
1.527352037e-05
1.577129834e-05
1.715363983e-05
2.04910284e-05
2.705485063e-05
1.504098663e-05
1.504098752e-05
1.504099279e-05
1.50410078e-05
1.504106671e-05
1.504128154e-05
1.504204596e-05
1.504470325e-05
1.505361206e-05
1.508228749e-05
1.516975579e-05
1.541845162e-05
1.606264251e-05
1.753650511e-05
2.040403242e-05
1.504098557e-05
1.504098665e-05
1.504099095e-05
1.504101091e-05
1.504108493e-05
1.504136028e-05
1.504236941e-05
1.504597536e-05
1.505848886e-05
1.510031648e-05
1.523327545e-05
1.56281126e-05
1.669526094e-05
1.922033067e-05
1.504098595e-05
1.504098865e-05
1.50409948e-05
1.50410195e-05
1.504111949e-05
1.50415129e-05
1.504303083e-05
1.504880274e-05
1.507030669e-05
1.51481088e-05
1.541804287e-05
1.629853219e-05
1.891498426e-05
2.56308803e-05
1.504098683e-05
1.504098886e-05
1.504099787e-05
1.50410354e-05
1.504118059e-05
1.504179315e-05
1.50443001e-05
1.505451449e-05
1.509567445e-05
1.525841644e-05
1.588222832e-05
1.815493051e-05
2.576190208e-05
4.770357553e-05
1.50409865e-05
1.504098987e-05
1.504100132e-05
1.504104795e-05
1.504124648e-05
1.504210338e-05
1.504579676e-05
1.506176849e-05
1.513084402e-05
1.542820801e-05
1.669082106e-05
2.189217088e-05
4.204106544e-05
0.0001107481573
0.0002835538287
1.504098887e-05
1.504099191e-05
1.504100271e-05
1.504105411e-05
1.504127769e-05
1.504225765e-05
1.504658383e-05
1.506592923e-05
1.515342976e-05
1.555390877e-05
1.740431736e-05
2.597496035e-05
6.50505945e-05
0.0002322187298
0.0008034826504
1.504098893e-05
1.504099155e-05
1.504100152e-05
1.504104838e-05
1.504124685e-05
1.504210279e-05
1.504579682e-05
1.506176921e-05
1.513084398e-05
1.542820306e-05
1.669078174e-05
2.189192377e-05
4.203955875e-05
0.0001107398921
0.0002835180432
1.504098721e-05
1.504098989e-05
1.504099727e-05
1.504103389e-05
1.504118127e-05
1.504179177e-05
1.504429916e-05
1.50545112e-05
1.509567011e-05
1.525840873e-05
1.588219028e-05
1.815470993e-05
2.576066644e-05
4.769716845e-05
9.503905472e-05
1.504098883e-05
1.50409908e-05
1.504099621e-05
1.504101984e-05
1.504112025e-05
1.504151445e-05
1.504303096e-05
1.504880157e-05
1.507030682e-05
1.514810444e-05
1.54180193e-05
1.629840691e-05
1.891440374e-05
2.562852837e-05
3.915601696e-05
1.504098686e-05
1.504098835e-05
1.50409932e-05
1.504101346e-05
1.504108591e-05
1.504136081e-05
1.504236891e-05
1.504597413e-05
1.505848657e-05
1.510031195e-05
1.523326056e-05
1.562804261e-05
1.669498794e-05
1.921939122e-05
2.416473131e-05
1.504098736e-05
1.504098856e-05
1.504099293e-05
1.504101315e-05
1.504109382e-05
1.504139603e-05
1.504251613e-05
1.504657251e-05
1.506087568e-05
1.51096333e-05
1.526831411e-05
1.575293338e-05
1.71048781e-05
2.040271238e-05
1.504098799e-05
1.504099029e-05
1.504099467e-05
1.504102168e-05
1.504113243e-05
1.504157064e-05
1.504328202e-05
1.504991827e-05
1.507522142e-05
1.516955457e-05
1.550947431e-05
1.667274616e-05
2.033980478e-05
3.039380941e-05
1.504098803e-05
1.504098939e-05
1.504099988e-05
1.50410385e-05
1.504120307e-05
1.504189049e-05
1.504477602e-05
1.505682914e-05
1.510702725e-05
1.531429103e-05
1.6155635e-05
1.946322785e-05
3.16984709e-05
7.172643221e-05
1.50409882e-05
1.50409902e-05
1.504100189e-05
1.504105224e-05
1.504127685e-05
1.504225602e-05
1.504658448e-05
1.506592862e-05
1.515343593e-05
1.555393674e-05
1.740448319e-05
2.597594893e-05
6.50568342e-05
0.0002322605294
1.504098865e-05
1.504099011e-05
1.504100319e-05
1.504106038e-05
1.504131309e-05
1.504243874e-05
1.504756592e-05
1.507142734e-05
1.518567821e-05
1.575323763e-05
1.870839726e-05
3.501870234e-05
0.0001314534749
0.0007469259422
0.005036049141
1.504098759e-05
1.504099143e-05
1.50410024e-05
1.504105349e-05
1.504127854e-05
1.504225775e-05
1.504658438e-05
1.506592869e-05
1.51534324e-05
1.555392922e-05
1.740441933e-05
2.597543105e-05
6.505265175e-05
0.0002322262685
0.0008034899359
1.504098723e-05
1.504098941e-05
1.504099858e-05
1.50410388e-05
1.504120344e-05
1.504189041e-05
1.504477245e-05
1.505682727e-05
1.510702573e-05
1.531428122e-05
1.615558019e-05
1.946287915e-05
3.169640065e-05
7.171519666e-05
0.0001696912888
1.504098761e-05
1.504098932e-05
1.50409946e-05
1.504102142e-05
1.504113315e-05
1.50415696e-05
1.504328115e-05
1.504991592e-05
1.507522045e-05
1.516954616e-05
1.550943885e-05
1.667258144e-05
2.033902417e-05
3.039056336e-05
5.156972066e-05
1.504098627e-05
1.504098708e-05
1.504099222e-05
1.50410124e-05
1.504109337e-05
1.504139627e-05
1.504251462e-05
1.504656769e-05
1.506087238e-05
1.510962567e-05
1.526829511e-05
1.575285002e-05
1.710454305e-05
2.040155108e-05
2.694016901e-05
1.5040988e-05
1.504098789e-05
1.504099272e-05
1.504101182e-05
1.504108482e-05
1.504136012e-05
1.50423696e-05
1.504597586e-05
1.505849004e-05
1.510031922e-05
1.523328523e-05
1.562813406e-05
1.669530748e-05
1.922037133e-05
1.504098749e-05
1.504098985e-05
1.504099546e-05
1.504101973e-05
1.504111975e-05
1.504151347e-05
1.504303158e-05
1.50488054e-05
1.507030823e-05
1.514811492e-05
1.54180633e-05
1.629859499e-05
1.891513026e-05
2.563100468e-05
1.504098709e-05
1.504098829e-05
1.504099909e-05
1.504103354e-05
1.504118208e-05
1.504179213e-05
1.504429978e-05
1.505451545e-05
1.509567567e-05
1.525842928e-05
1.588229038e-05
1.815516061e-05
2.576262694e-05
4.77047843e-05
1.504098784e-05
1.504099051e-05
1.504100058e-05
1.504104704e-05
1.504124671e-05
1.504210281e-05
1.504579897e-05
1.506177084e-05
1.513085128e-05
1.542823995e-05
1.669097129e-05
2.189287346e-05
4.204426893e-05
0.0001107616169
1.504098844e-05
1.504099005e-05
1.504100225e-05
1.504105465e-05
1.504127722e-05
1.504225658e-05
1.504658526e-05
1.506593131e-05
1.515343801e-05
1.555395349e-05
1.740456507e-05
2.597633563e-05
6.505848219e-05
0.0002322658598
1.504098806e-05
1.504099082e-05
1.504100174e-05
1.504104836e-05
1.504124631e-05
1.504210285e-05
1.504579633e-05
1.506176991e-05
1.513084998e-05
1.542823582e-05
1.669094282e-05
2.189269097e-05
4.204327264e-05
0.0001107578174
1.50409884e-05
1.504098877e-05
1.504099881e-05
1.504103323e-05
1.504118127e-05
1.504179084e-05
1.504429857e-05
1.505451388e-05
1.509567476e-05
1.52584241e-05
1.588225686e-05
1.815498123e-05
2.576175295e-05
4.77010359e-05
9.505129864e-05
1.504098775e-05
1.504098823e-05
1.504099375e-05
1.50410206e-05
1.504112053e-05
1.504151441e-05
1.50430329e-05
1.504880252e-05
1.50703063e-05
1.514810951e-05
1.541804167e-05
1.629849464e-05
1.891469802e-05
2.562939454e-05
3.915796403e-05
1.504098481e-05
1.504098777e-05
1.504099255e-05
1.504101252e-05
1.504108606e-05
1.504136205e-05
1.504236912e-05
1.50459742e-05
1.505848701e-05
1.510031428e-05
1.523326825e-05
1.562807323e-05
1.669507924e-05
1.921961572e-05
2.416515134e-05
1.504098921e-05
1.504098984e-05
1.504099351e-05
1.504100821e-05
1.504106578e-05
1.504128046e-05
1.504204711e-05
1.504470278e-05
1.505361401e-05
1.508229308e-05
1.516977557e-05
1.541852088e-05
1.606286313e-05
1.753711931e-05
1.504098934e-05
1.504098898e-05
1.504099388e-05
1.504101332e-05
1.504109172e-05
1.504138848e-05
1.504250051e-05
1.504656446e-05
1.506103509e-05
1.511076584e-05
1.527355766e-05
1.577143597e-05
1.715410078e-05
2.049238921e-05
1.504099019e-05
1.50409883e-05
1.504099514e-05
1.504102263e-05
1.504113669e-05
1.504158396e-05
1.504334484e-05
1.505017789e-05
1.507617678e-05
1.517231616e-05
1.551320842e-05
1.664850173e-05
2.008512856e-05
2.903003579e-05
1.504098867e-05
1.504099016e-05
1.504099726e-05
1.504103287e-05
1.504118076e-05
1.504179075e-05
1.504429671e-05
1.505451419e-05
1.509567908e-05
1.525843731e-05
1.58823102e-05
1.815522565e-05
2.576277736e-05
4.770490898e-05
1.50409871e-05
1.50409894e-05
1.504099871e-05
1.504103826e-05
1.504120293e-05
1.50418922e-05
1.50447746e-05
1.505682947e-05
1.510703155e-05
1.531430563e-05
1.615569743e-05
1.946344542e-05
3.169908473e-05
7.172712238e-05
1.504098729e-05
1.504099063e-05
1.504099948e-05
1.50410336e-05
1.504118332e-05
1.504179259e-05
1.504429886e-05
1.505451308e-05
1.509567688e-05
1.525843341e-05
1.588229761e-05
1.815516136e-05
2.576251163e-05
4.770407943e-05
1.504098889e-05
1.504098995e-05
1.504099658e-05
1.504102273e-05
1.504113544e-05
1.504158249e-05
1.504334169e-05
1.50501762e-05
1.507617357e-05
1.517231373e-05
1.55131932e-05
1.664843926e-05
2.008491784e-05
2.902966114e-05
1.504098491e-05
1.504098495e-05
1.504099137e-05
1.504101288e-05
1.504109101e-05
1.504138867e-05
1.504249913e-05
1.50465638e-05
1.506103433e-05
1.511076542e-05
1.527354779e-05
1.577139249e-05
1.71539387e-05
2.049188517e-05
2.705699233e-05
1.50409852e-05
1.504098476e-05
1.504098931e-05
1.504100542e-05
1.504106635e-05
1.504128065e-05
1.504204808e-05
1.504470422e-05
1.5053615e-05
1.50822919e-05
1.516977016e-05
1.541849103e-05
1.606275434e-05
1.753677928e-05
2.040455794e-05
1.50409872e-05
1.50409888e-05
1.504098962e-05
1.504100182e-05
1.504104707e-05
1.504120151e-05
1.504173477e-05
1.504351574e-05
1.504923496e-05
1.506683087e-05
1.511805878e-05
1.525715081e-05
1.56028798e-05
1.637166203e-05
1.50409884e-05
1.504098799e-05
1.504099113e-05
1.504100654e-05
1.504106236e-05
1.504126901e-05
1.504200861e-05
1.504458343e-05
1.505326276e-05
1.508138769e-05
1.516786214e-05
1.541585073e-05
1.606355394e-05
1.755457877e-05
1.504098851e-05
1.504098853e-05
1.504099355e-05
1.504101238e-05
1.504109184e-05
1.504138899e-05
1.50425022e-05
1.504656686e-05
1.506103894e-05
1.511077091e-05
1.527356263e-05
1.577144674e-05
1.715412148e-05
2.049240844e-05
1.504098662e-05
1.504098751e-05
1.504099359e-05
1.504101966e-05
1.504111912e-05
1.504151198e-05
1.504303095e-05
1.504880358e-05
1.507030839e-05
1.514811913e-05
1.541807973e-05
1.629863782e-05
1.891521884e-05
2.563108069e-05
1.504098541e-05
1.504098733e-05
1.504099391e-05
1.504102181e-05
1.504113151e-05
1.504156755e-05
1.504328109e-05
1.504991579e-05
1.507522494e-05
1.516956077e-05
1.550950105e-05
1.667283146e-05
2.033998556e-05
3.039390583e-05
1.504098533e-05
1.504098756e-05
1.504099484e-05
1.504102057e-05
1.504111996e-05
1.504151366e-05
1.504302986e-05
1.504880339e-05
1.507030797e-05
1.51481176e-05
1.541807434e-05
1.629861519e-05
1.891513631e-05
2.563084756e-05
1.504098674e-05
1.50409893e-05
1.504099248e-05
1.504101289e-05
1.504109116e-05
1.504138977e-05
1.504249955e-05
1.50465659e-05
1.506103579e-05
1.511076621e-05
1.527355471e-05
1.577142232e-05
1.715405243e-05
2.049228282e-05
1.50409835e-05
1.504098661e-05
1.504099044e-05
1.504100463e-05
1.504106232e-05
1.504126919e-05
1.504200798e-05
1.504458077e-05
1.505326095e-05
1.508138481e-05
1.516785518e-05
1.541583429e-05
1.60635106e-05
1.755453458e-05
1.504098448e-05
1.504098526e-05
1.504098929e-05
1.504100067e-05
1.504104536e-05
1.504120101e-05
1.504173634e-05
1.504351481e-05
1.504923636e-05
1.50668333e-05
1.51180563e-05
1.52571389e-05
1.560284248e-05
1.63715554e-05
1.786389964e-05
1.504098693e-05
1.504098739e-05
1.504098989e-05
1.50409986e-05
1.504103239e-05
1.504115298e-05
1.504155474e-05
1.504284761e-05
1.504684992e-05
1.505868789e-05
1.509177692e-05
1.517818785e-05
1.538590337e-05
1.583807092e-05
1.504098669e-05
1.504098662e-05
1.504098888e-05
1.504100038e-05
1.504104516e-05
1.504120066e-05
1.504173439e-05
1.504351395e-05
1.504923455e-05
1.506683144e-05
1.511806046e-05
1.525715538e-05
1.560288761e-05
1.637167093e-05
1.504098672e-05
1.504098745e-05
1.504099063e-05
1.504100746e-05
1.504106533e-05
1.504128189e-05
1.50420474e-05
1.504470418e-05
1.505361593e-05
1.508229578e-05
1.516978217e-05
1.541853208e-05
1.606288469e-05
1.753714264e-05
1.50409875e-05
1.504098789e-05
1.504099265e-05
1.50410114e-05
1.504108604e-05
1.504136049e-05
1.504236949e-05
1.504597483e-05
1.505849036e-05
1.510032192e-05
1.523329445e-05
1.562816066e-05
1.669535086e-05
1.922040467e-05
1.504098545e-05
1.504098667e-05
1.504099102e-05
1.504101319e-05
1.50410932e-05
1.504139502e-05
1.504251423e-05
1.504656816e-05
1.506087456e-05
1.510963542e-05
1.526832708e-05
1.575296751e-05
1.710493764e-05
2.040272907e-05
1.504098596e-05
1.504098755e-05
1.504099336e-05
1.504101376e-05
1.5041086e-05
1.504136045e-05
1.50423689e-05
1.504597426e-05
1.505848964e-05
1.510032047e-05
1.523328842e-05
1.562814652e-05
1.669531421e-05
1.922031111e-05
1.504098696e-05
1.504098742e-05
1.504099052e-05
1.504100615e-05
1.504106479e-05
1.504128263e-05
1.504204788e-05
1.504470431e-05
1.505361488e-05
1.508229496e-05
1.516977581e-05
1.54185204e-05
1.606285025e-05
1.753707166e-05
1.504098543e-05
1.504098578e-05
1.504099006e-05
1.50410014e-05
1.504104586e-05
1.504120074e-05
1.504173557e-05
1.504351306e-05
1.504923529e-05
1.506683105e-05
1.511805874e-05
1.525714771e-05
1.560287062e-05
1.637165005e-05
1.504098402e-05
1.504098514e-05
1.504098823e-05
1.504099768e-05
1.504103355e-05
1.504115436e-05
1.504155593e-05
1.504284874e-05
1.504685293e-05
1.505868671e-05
1.509177681e-05
1.517818456e-05
1.538589184e-05
1.583806917e-05
)
;

boundaryField
{
    top
    {
        type            calculated;
        value           nonuniform List<scalar> 
134
(
1.504098634e-05
1.504098664e-05
1.504098663e-05
1.504098686e-05
1.504098627e-05
1.504098481e-05
1.50409852e-05
1.504098448e-05
1.504098402e-05
1.504098674e-05
1.504098725e-05
1.504098752e-05
1.504098835e-05
1.504098708e-05
1.504098777e-05
1.504098476e-05
1.504098526e-05
1.504098514e-05
1.504098881e-05
1.504098899e-05
1.504099279e-05
1.50409932e-05
1.504099222e-05
1.504099255e-05
1.504098931e-05
1.504098929e-05
1.504098823e-05
1.504099935e-05
1.504100276e-05
1.50410078e-05
1.504101346e-05
1.50410124e-05
1.504101252e-05
1.504100542e-05
1.504100067e-05
1.504099768e-05
1.504103466e-05
1.504104549e-05
1.504106671e-05
1.504108591e-05
1.504109337e-05
1.504108606e-05
1.504106635e-05
1.504104536e-05
1.504103355e-05
1.504115516e-05
1.504120123e-05
1.504128154e-05
1.504136081e-05
1.504139627e-05
1.504136205e-05
1.504128065e-05
1.504120101e-05
1.504115436e-05
1.504155714e-05
1.504173462e-05
1.504204596e-05
1.504236891e-05
1.504251462e-05
1.504236912e-05
1.504204808e-05
1.504173634e-05
1.504155593e-05
1.504284949e-05
1.504351443e-05
1.504470325e-05
1.504597413e-05
1.504656769e-05
1.50459742e-05
1.504470422e-05
1.504351481e-05
1.504284874e-05
1.504685252e-05
1.50492357e-05
1.505361206e-05
1.505848657e-05
1.506087238e-05
1.505848701e-05
1.5053615e-05
1.504923636e-05
1.504685293e-05
1.505868532e-05
1.506682848e-05
1.508228749e-05
1.510031195e-05
1.510962567e-05
1.510031428e-05
1.50822919e-05
1.50668333e-05
1.505868671e-05
1.509176783e-05
1.511804482e-05
1.516975579e-05
1.523326056e-05
1.526829511e-05
1.523326825e-05
1.516977016e-05
1.51180563e-05
1.509177681e-05
1.5178157e-05
1.525710631e-05
1.541845162e-05
1.562804261e-05
1.575285002e-05
1.562807323e-05
1.541849103e-05
1.52571389e-05
1.517818456e-05
1.538582054e-05
1.560275141e-05
1.606264251e-05
1.669498794e-05
1.710454305e-05
1.669507924e-05
1.606275434e-05
1.560284248e-05
1.538589184e-05
1.58378632e-05
1.63713262e-05
1.753650511e-05
1.921939122e-05
2.040155108e-05
1.921961572e-05
1.753677928e-05
1.63715554e-05
1.583806917e-05
1.67155856e-05
1.786338673e-05
2.040403242e-05
2.416473131e-05
2.694016901e-05
2.416515134e-05
2.040455794e-05
1.786389964e-05
)
;
    }
    bottom
    {
        type            calculated;
        value           nonuniform List<scalar> 
127
(
1.504098477e-05
1.504098401e-05
1.50409848e-05
1.504098557e-05
1.504098736e-05
1.5040988e-05
1.504098921e-05
1.50409872e-05
1.504098693e-05
1.504098571e-05
1.504098552e-05
1.504098482e-05
1.504098665e-05
1.504098856e-05
1.504098789e-05
1.504098984e-05
1.50409888e-05
1.504098739e-05
1.504098756e-05
1.50409895e-05
1.504098949e-05
1.504099095e-05
1.504099293e-05
1.504099272e-05
1.504099351e-05
1.504098962e-05
1.504098989e-05
1.504099747e-05
1.504100144e-05
1.5041005e-05
1.504101091e-05
1.504101315e-05
1.504101182e-05
1.504100821e-05
1.504100182e-05
1.50409986e-05
1.504103389e-05
1.504104509e-05
1.504106597e-05
1.504108493e-05
1.504109382e-05
1.504108482e-05
1.504106578e-05
1.504104707e-05
1.504103239e-05
1.504115374e-05
1.504119997e-05
1.504128109e-05
1.504136028e-05
1.504139603e-05
1.504136012e-05
1.504128046e-05
1.504120151e-05
1.504115298e-05
1.504155554e-05
1.504173502e-05
1.50420474e-05
1.504236941e-05
1.504251613e-05
1.50423696e-05
1.504204711e-05
1.504173477e-05
1.504155474e-05
1.504284893e-05
1.50435146e-05
1.504470364e-05
1.504597536e-05
1.504657251e-05
1.504597586e-05
1.504470278e-05
1.504351574e-05
1.504284761e-05
1.504685175e-05
1.504923487e-05
1.505361232e-05
1.505848886e-05
1.506087568e-05
1.505849004e-05
1.505361401e-05
1.504923496e-05
1.504684992e-05
1.505868488e-05
1.506683014e-05
1.508228878e-05
1.510031648e-05
1.51096333e-05
1.510031922e-05
1.508229308e-05
1.506683087e-05
1.505868789e-05
1.509177033e-05
1.511805047e-05
1.516976637e-05
1.523327545e-05
1.526831411e-05
1.523328523e-05
1.516977557e-05
1.511805878e-05
1.509177692e-05
1.517816818e-05
1.525712902e-05
1.541849511e-05
1.56281126e-05
1.575293338e-05
1.562813406e-05
1.541852088e-05
1.525715081e-05
1.517818785e-05
1.538585691e-05
1.560283628e-05
1.606281232e-05
1.669526094e-05
1.71048781e-05
1.669530748e-05
1.606286313e-05
1.56028798e-05
1.538590337e-05
1.583797761e-05
1.637163275e-05
1.753708995e-05
1.922033067e-05
2.040271238e-05
1.922037133e-05
1.753711931e-05
1.637166203e-05
1.583807092e-05
1.671586529e-05
)
;
    }
    side-walls
    {
        type            calculated;
        value           nonuniform List<scalar> 
261
(
1.504098477e-05
1.504098515e-05
1.504098409e-05
1.504098568e-05
1.504098693e-05
1.504098506e-05
1.504098665e-05
1.504098704e-05
1.504098634e-05
1.504098571e-05
1.504098582e-05
1.504098571e-05
1.504098729e-05
1.504098787e-05
1.504098777e-05
1.504098743e-05
1.504098629e-05
1.504098674e-05
1.504098756e-05
1.504098783e-05
1.504099049e-05
1.504099317e-05
1.504099256e-05
1.504099095e-05
1.504099011e-05
1.504098923e-05
1.504098881e-05
1.504099747e-05
1.504099963e-05
1.50410047e-05
1.504101236e-05
1.504101386e-05
1.504101073e-05
1.504100518e-05
1.504100323e-05
1.504099935e-05
1.504103389e-05
1.50410441e-05
1.50410649e-05
1.504108514e-05
1.504109291e-05
1.504108548e-05
1.504106485e-05
1.504104443e-05
1.504103466e-05
1.504115374e-05
1.50411996e-05
1.504128092e-05
1.504136093e-05
1.504139438e-05
1.50413607e-05
1.504128155e-05
1.504120049e-05
1.504115516e-05
1.504155554e-05
1.504173521e-05
1.504204601e-05
1.504236838e-05
1.504251507e-05
1.504236969e-05
1.504204778e-05
1.504173494e-05
1.504155714e-05
1.504284893e-05
1.504351448e-05
1.50447013e-05
1.504597269e-05
1.504656934e-05
1.504597321e-05
1.504470423e-05
1.504351537e-05
1.504284949e-05
1.504685175e-05
1.504923372e-05
1.50536116e-05
1.505848664e-05
1.506087191e-05
1.505848656e-05
1.505361394e-05
1.504923532e-05
1.504685252e-05
1.505868488e-05
1.5066828e-05
1.508228538e-05
1.510030749e-05
1.510962251e-05
1.510030912e-05
1.508228761e-05
1.506682862e-05
1.505868532e-05
1.509177033e-05
1.511804638e-05
1.516975323e-05
1.523324937e-05
1.526827647e-05
1.523324741e-05
1.516975223e-05
1.511804553e-05
1.509176783e-05
1.517816818e-05
1.525711395e-05
1.541844983e-05
1.562801899e-05
1.575279472e-05
1.562801299e-05
1.541844168e-05
1.525710426e-05
1.5178157e-05
1.538585691e-05
1.560278487e-05
1.606265551e-05
1.669493987e-05
1.710441272e-05
1.669492065e-05
1.606261871e-05
1.560274656e-05
1.538582054e-05
1.583797761e-05
1.637143393e-05
1.75365807e-05
1.921934413e-05
2.040132217e-05
1.921927503e-05
1.753646316e-05
1.637131585e-05
1.58378632e-05
1.671586529e-05
1.786365069e-05
2.040427516e-05
2.416481951e-05
2.693998131e-05
2.416463796e-05
2.040399723e-05
1.786337613e-05
1.67155856e-05
1.504098693e-05
1.504098669e-05
1.504098672e-05
1.50409875e-05
1.504098545e-05
1.504098596e-05
1.504098696e-05
1.504098543e-05
1.504098402e-05
1.504098739e-05
1.504098662e-05
1.504098745e-05
1.504098789e-05
1.504098667e-05
1.504098755e-05
1.504098742e-05
1.504098578e-05
1.504098514e-05
1.504098989e-05
1.504098888e-05
1.504099063e-05
1.504099265e-05
1.504099102e-05
1.504099336e-05
1.504099052e-05
1.504099006e-05
1.504098823e-05
1.50409986e-05
1.504100038e-05
1.504100746e-05
1.50410114e-05
1.504101319e-05
1.504101376e-05
1.504100615e-05
1.50410014e-05
1.504099768e-05
1.504103239e-05
1.504104516e-05
1.504106533e-05
1.504108604e-05
1.50410932e-05
1.5041086e-05
1.504106479e-05
1.504104586e-05
1.504103355e-05
1.504115298e-05
1.504120066e-05
1.504128189e-05
1.504136049e-05
1.504139502e-05
1.504136045e-05
1.504128263e-05
1.504120074e-05
1.504115436e-05
1.504155474e-05
1.504173439e-05
1.50420474e-05
1.504236949e-05
1.504251423e-05
1.50423689e-05
1.504204788e-05
1.504173557e-05
1.504155593e-05
1.504284761e-05
1.504351395e-05
1.504470418e-05
1.504597483e-05
1.504656816e-05
1.504597426e-05
1.504470431e-05
1.504351306e-05
1.504284874e-05
1.504684992e-05
1.504923455e-05
1.505361593e-05
1.505849036e-05
1.506087456e-05
1.505848964e-05
1.505361488e-05
1.504923529e-05
1.504685293e-05
1.505868789e-05
1.506683144e-05
1.508229578e-05
1.510032192e-05
1.510963542e-05
1.510032047e-05
1.508229496e-05
1.506683105e-05
1.505868671e-05
1.509177692e-05
1.511806046e-05
1.516978217e-05
1.523329445e-05
1.526832708e-05
1.523328842e-05
1.516977581e-05
1.511805874e-05
1.509177681e-05
1.517818785e-05
1.525715538e-05
1.541853208e-05
1.562816066e-05
1.575296751e-05
1.562814652e-05
1.54185204e-05
1.525714771e-05
1.517818456e-05
1.538590337e-05
1.560288761e-05
1.606288469e-05
1.669535086e-05
1.710493764e-05
1.669531421e-05
1.606285025e-05
1.560287062e-05
1.538589184e-05
1.583807092e-05
1.637167093e-05
1.753714264e-05
1.922040467e-05
2.040272907e-05
1.922031111e-05
1.753707166e-05
1.637165005e-05
1.583806917e-05
)
;
    }
    inlet
    {
        type            calculated;
        value           nonuniform List<scalar> 
81
(
1.504098477e-05
1.504098515e-05
1.504098409e-05
1.504098568e-05
1.504098693e-05
1.504098506e-05
1.504098665e-05
1.504098704e-05
1.504098634e-05
1.504098401e-05
1.504098521e-05
1.504098542e-05
1.504098645e-05
1.504098765e-05
1.504098565e-05
1.504098732e-05
1.50409875e-05
1.504098664e-05
1.50409848e-05
1.504098634e-05
1.504098643e-05
1.504098861e-05
1.504098941e-05
1.504098881e-05
1.504098754e-05
1.504098873e-05
1.504098663e-05
1.504098557e-05
1.504098595e-05
1.504098683e-05
1.50409865e-05
1.504098887e-05
1.504098893e-05
1.504098721e-05
1.504098883e-05
1.504098686e-05
1.504098736e-05
1.504098799e-05
1.504098803e-05
1.50409882e-05
1.504098865e-05
1.504098759e-05
1.504098723e-05
1.504098761e-05
1.504098627e-05
1.5040988e-05
1.504098749e-05
1.504098709e-05
1.504098784e-05
1.504098844e-05
1.504098806e-05
1.50409884e-05
1.504098775e-05
1.504098481e-05
1.504098921e-05
1.504098934e-05
1.504099019e-05
1.504098867e-05
1.50409871e-05
1.504098729e-05
1.504098889e-05
1.504098491e-05
1.50409852e-05
1.50409872e-05
1.50409884e-05
1.504098851e-05
1.504098662e-05
1.504098541e-05
1.504098533e-05
1.504098674e-05
1.50409835e-05
1.504098448e-05
1.504098693e-05
1.504098669e-05
1.504098672e-05
1.50409875e-05
1.504098545e-05
1.504098596e-05
1.504098696e-05
1.504098543e-05
1.504098402e-05
)
;
    }
    outlet
    {
        type            calculated;
        value           nonuniform 0();
    }
    procBoundary0to1
    {
        type            processor;
        value           nonuniform List<scalar> 
97
(
1.822484862e-05
1.786390286e-05
2.035646287e-05
2.501244822e-05
3.173750802e-05
3.646221566e-05
3.173729118e-05
2.501210904e-05
2.035615845e-05
1.822462694e-05
1.786390286e-05