/*--------------------------------*- C++ -*----------------------------------*\
| =========                 |                                                 |
| \\      /  F ield         | OpenFOAM: The Open Source CFD Toolbox           |
|  \\    /   O peration     | Version:  4.x                                   |
|   \\  /    A nd           | Web:      www.OpenFOAM.org                      |
|    \\/     M anipulation  |                                                 |
\*---------------------------------------------------------------------------*/
FoamFile
{
    version     2.0;
    format      ascii;
    class       volScalarField;
    location    "3000";
    object      Cpv;
}
// * * * * * * * * * * * * * * * * * * * * * * * * * * * * * * * * * * * * * //

dimensions      [0 2 -2 -1 0 0 0];

internalField   nonuniform List<scalar> 
1174
(
1277.532932
1277.532643
1277.53223
1277.531683
1277.531031
1277.530296
1277.529486
1277.528609
1277.52774
1277.526839
1277.52594
1277.525076
1277.524277
1277.523662
1277.532248
1277.531787
1277.531179
1277.530452
1277.529592
1277.528672
1277.527699
1277.526747
1277.525786
1277.524862
1277.523975
1277.523145
1277.522388
1277.52182
1277.531721
1277.53094
1277.529943
1277.528783
1277.527637
1277.526468
1277.525297
1277.524228
1277.523211
1277.522302
1277.521479
1277.520718
1277.520077
1277.519615
1277.531232
1277.529998
1277.528632
1277.527159
1277.525706
1277.524342
1277.523097
1277.521988
1277.521013
1277.52013
1277.519423
1277.518806
1277.518269
1277.517911
1277.530549
1277.529064
1277.527488
1277.525893
1277.524359
1277.522971
1277.52173
1277.520628
1277.51968
1277.518878
1277.518235
1277.517672
1277.517198
1277.516916
1277.53128
1277.530056
1277.528642
1277.527157
1277.525724
1277.524375
1277.523146
1277.522011
1277.52103
1277.52019
1277.519437
1277.518847
1277.518328
1277.517952
1277.531674
1277.530871
1277.529892
1277.52878
1277.527605
1277.526445
1277.525276
1277.524187
1277.523174
1277.522246
1277.521434
1277.520694
1277.520063
1277.519577
1277.532431
1277.531953
1277.531346
1277.530598
1277.52973
1277.528799
1277.527827
1277.526882
1277.525922
1277.524954
1277.524093
1277.523245
1277.522507
1277.521929
1277.53315
1277.532841
1277.532425
1277.531908
1277.531283
1277.530552
1277.529737
1277.528854
1277.527972
1277.527073
1277.526161
1277.525304
1277.524503
1277.52388
1277.532963
1277.532649
1277.532158
1277.531574
1277.530806
1277.529976
1277.529067
1277.528111
1277.527129
1277.526158
1277.525214
1277.524337
1277.523514
1277.522767
1277.522191
1277.532066
1277.531283
1277.530305
1277.529259
1277.528164
1277.527047
1277.525999
1277.524982
1277.524038
1277.523157
1277.52236
1277.521649
1277.521
1277.520552
1277.530539
1277.529002
1277.527327
1277.525717
1277.524231
1277.522871
1277.521745
1277.520773
1277.519954
1277.519263
1277.518655
1277.518162
1277.517783
1277.517479
1277.527489
1277.525013
1277.522669
1277.520645
1277.519017
1277.517744
1277.516793
1277.51605
1277.515529
1277.515193
1277.514949
1277.514752
1277.514637
1277.51459
1277.525848
1277.522901
1277.520421
1277.5185
1277.517046
1277.516008
1277.515291
1277.514802
1277.514519
1277.514337
1277.514255
1277.514241
1277.514284
1277.514324
1277.528089
1277.525601
1277.523265
1277.521261
1277.51962
1277.518347
1277.517343
1277.516588
1277.516059
1277.515685
1277.515428
1277.51524
1277.515111
1277.515053
1277.530335
1277.528806
1277.527151
1277.525532
1277.524057
1277.522734
1277.521592
1277.520606
1277.519768
1277.519066
1277.518491
1277.517976
1277.517593
1277.517295
1277.531992
1277.531183
1277.530203
1277.529129
1277.528021
1277.526911
1277.525843
1277.52483
1277.523874
1277.522985
1277.522176
1277.521475
1277.52083
1277.520375
1277.53264
1277.532217
1277.531604
1277.530822
1277.529978
1277.529067
1277.528117
1277.527158
1277.526201
1277.525265
1277.52438
1277.523519
1277.522768
1277.522197
1277.532441
1277.531845
1277.531022
1277.530017
1277.528906
1277.527747
1277.526551
1277.5254
1277.524325
1277.523285
1277.522338
1277.521508
1277.520773
1277.520127
1277.519669
1277.531935
1277.530677
1277.529159
1277.527536
1277.525929
1277.524425
1277.523083
1277.521929
1277.520976
1277.520124
1277.519423
1277.518857
1277.518389
1277.517987
1277.517716
1277.526338
1277.523186
1277.520414
1277.518179
1277.516493
1277.515338
1277.514556
1277.514035
1277.513762
1277.513646
1277.513642
1277.513682
1277.513781
1277.51385
1277.516616
1277.511471
1277.507979
1277.50599
1277.505108
1277.504981
1277.505334
1277.505935
1277.506675
1277.507477
1277.508235
1277.508952
1277.509593
1277.510092
1277.504638
1277.4996
1277.497555
1277.497313
1277.498088
1277.499321
1277.500761
1277.502243
1277.503661
1277.504991
1277.506191
1277.507217
1277.508148
1277.508848
1277.516551
1277.511392
1277.507916
1277.505923
1277.505023
1277.50489
1277.50526
1277.505873
1277.506639
1277.507392
1277.508175
1277.508914
1277.509578
1277.510081
1277.525331
1277.522202
1277.519409
1277.517157
1277.515448
1277.514259
1277.513467
1277.512986
1277.51275
1277.512674
1277.512668
1277.512745
1277.512835
1277.51291
1277.530324
1277.528797
1277.527177
1277.525557
1277.52408
1277.522752
1277.521605
1277.520649
1277.519845
1277.519155
1277.518578
1277.518096
1277.517729
1277.517467
1277.531543
1277.530716
1277.529734
1277.528623
1277.527432
1277.526248
1277.525116
1277.524029
1277.523027
1277.522115
1277.521291
1277.520553
1277.519896
1277.519414
1277.53165
1277.530665
1277.529459
1277.528074
1277.526626
1277.525161
1277.523803
1277.522568
1277.52146
1277.520478
1277.519639
1277.5189
1277.518296
1277.517757
1277.517397
1277.530692
1277.528391
1277.525912
1277.52358
1277.521553
1277.519924
1277.518654
1277.517652
1277.516948
1277.516402
1277.516044
1277.515777
1277.515589
1277.515485
1277.515414
1277.523179
1277.516731
1277.511579
1277.508065
1277.506085
1277.505194
1277.505054
1277.505412
1277.506037
1277.50675
1277.507512
1277.508267
1277.509003
1277.509641
1277.510155
1277.485022
1277.478804
1277.478086
1277.480198
1277.48356
1277.487232
1277.490784
1277.494011
1277.496897
1277.499409
1277.501551
1277.503396
1277.504942
1277.506054
1277.420293
1277.429047
1277.441913
1277.454078
1277.464322
1277.47262
1277.479267
1277.48462
1277.488953
1277.492486
1277.495451
1277.497903
1277.499892
1277.50132
1277.484062
1277.47784
1277.477097
1277.479226
1277.482582
1277.486231
1277.489798
1277.493009
1277.495885
1277.498408
1277.500556
1277.502417
1277.503946
1277.505063
1277.517006
1277.511848
1277.508377
1277.506351
1277.505482
1277.505386
1277.505736
1277.506366
1277.507136
1277.507932
1277.508698
1277.509428
1277.510072
1277.510596
1277.527005
1277.524523
1277.52219
1277.520157
1277.518497
1277.517209
1277.516229
1277.515498
1277.514955
1277.514539
1277.514307
1277.51411
1277.513993
1277.513905
1277.531316
1277.530141
1277.528747
1277.527287
1277.525827
1277.524447
1277.523204
1277.52211
1277.521135
1277.520297
1277.51957
1277.518975
1277.518465
1277.518072
1277.53173
1277.530536
1277.529075
1277.527479
1277.525918
1277.524393
1277.522997
1277.521749
1277.52065
1277.519748
1277.518947
1277.518276
1277.517734
1277.517256
1277.516944
1277.528603
1277.525452
1277.522488
1277.520013
1277.51807
1277.51663
1277.51561
1277.514877
1277.514388
1277.514034
1277.513871
1277.513774
1277.513731
1277.513787
1277.513807
1277.513416
1277.504255
1277.499211
1277.497165
1277.496931
1277.497692
1277.498946
1277.500392
1277.50184
1277.503246
1277.504597
1277.505823
1277.506903
1277.507806
1277.508528
1277.431247
1277.420939
1277.429732
1277.44262
1277.454805
1277.465071
1277.473373
1277.480025
1277.485398
1277.489752
1277.493287
1277.496246
1277.498681
1277.500665
1277.50208
1275.560672
1275.697023
1275.771391
1275.814112
1275.839858
1275.85614
1275.866807
1275.874009
1275.878978
1275.882439
1275.884795
1275.886386
1275.887308
1275.887452
1277.420449
1277.429204
1277.442085
1277.454214
1277.46444
1277.472741
1277.47939
1277.484765
1277.489116
1277.492671
1277.495588
1277.498022
1277.500004
1277.50145
1277.504131
1277.499096
1277.497018
1277.496805
1277.497566
1277.498785
1277.50022
1277.501686
1277.50309
1277.50442
1277.505623
1277.506729
1277.507678
1277.508376
1277.52512
1277.522138
1277.519691
1277.517739
1277.516282
1277.515244
1277.514511
1277.514014
1277.513668
1277.513471
1277.513391
1277.513403
1277.513414
1277.513469
1277.530242
1277.528791
1277.527212
1277.525625
1277.524124
1277.52272
1277.521489
1277.520397
1277.51943
1277.518636
1277.517959
1277.517399
1277.516938
1277.516615
1277.532469
1277.531518
1277.5303
1277.528908
1277.527451
1277.526018
1277.524663
1277.523402
1277.522295
1277.52133
1277.520453
1277.519736
1277.519145
1277.518616
1277.518267
1277.529594
1277.527283
1277.524799
1277.522475
1277.520463
1277.518792
1277.517495
1277.51652
1277.515787
1277.515262
1277.514864
1277.514594
1277.514455
1277.514336
1277.514266
1277.522765
1277.516341
1277.511159
1277.507657
1277.505681
1277.504851
1277.504741
1277.505079
1277.505695
1277.506413
1277.507185
1277.507964
1277.508721
1277.5094
1277.509851
1277.49942
1277.484916
1277.478698
1277.477968
1277.480074
1277.483418
1277.487092
1277.490639
1277.493866
1277.496722
1277.499217
1277.501378
1277.503255
1277.504819
1277.505957
1277.4309
1277.420598
1277.429385
1277.442274
1277.45444
1277.464669
1277.472955
1277.479619
1277.484962
1277.489281
1277.492817
1277.495749
1277.498156
1277.500122
1277.501538
1277.499754
1277.485254
1277.47904
1277.478265
1277.480373
1277.483735
1277.487425
1277.490991
1277.49423
1277.497108
1277.499635
1277.50179
1277.503616
1277.505156
1277.506286
1277.516959
1277.511773
1277.508292
1277.506295
1277.505418
1277.505288
1277.505639
1277.506213
1277.506948
1277.50773
1277.508492
1277.509232
1277.509867
1277.510363
1277.527896
1277.525422
1277.523083
1277.521055
1277.519413
1277.518135
1277.517145
1277.516422
1277.51588
1277.515504
1277.515239
1277.515053
1277.514952
1277.514889
1277.530729
1277.52947
1277.528088
1277.526654
1277.525229
1277.523863
1277.522641
1277.521527
1277.520553
1277.519691
1277.518958
1277.518318
1277.517787
1277.517433
1277.532065
1277.531482
1277.530653
1277.529648
1277.528524
1277.527355
1277.526166
1277.525022
1277.523941
1277.522936
1277.522034
1277.521194
1277.520441
1277.519792
1277.519304
1277.531692
1277.530469
1277.528959
1277.527316
1277.525692
1277.524211
1277.522891
1277.521752
1277.520744
1277.519941
1277.51927
1277.51867
1277.518167
1277.517769
1277.51745
1277.5285
1277.525498
1277.522366
1277.519582
1277.517318
1277.515637
1277.51447
1277.513695
1277.513212
1277.51294
1277.512824
1277.512837
1277.51291
1277.513
1277.513085
1277.523275
1277.516822
1277.511668
1277.508175
1277.506147
1277.505265
1277.50516
1277.505495
1277.506122
1277.506898
1277.507657
1277.508427
1277.509136
1277.509783
1277.510305
1277.513961
1277.50481
1277.499775
1277.497714
1277.497466
1277.498246
1277.499478
1277.500922
1277.502402
1277.503822
1277.505158
1277.506358
1277.507434
1277.50838
1277.509052
1277.522479
1277.51603
1277.510852
1277.507362
1277.505386
1277.504515
1277.504367
1277.504747
1277.505345
1277.506095
1277.506859
1277.507668
1277.508389
1277.509043
1277.509552
1277.529053
1277.52606
1277.522954
1277.520149
1277.517905
1277.516205
1277.515011
1277.514236
1277.51378
1277.513515
1277.513402
1277.513401
1277.513476
1277.513578
1277.513646
1277.530556
1277.529018
1277.527383
1277.525794
1277.52428
1277.522962
1277.52181
1277.520816
1277.519979
1277.519284
1277.518712
1277.518247
1277.517855
1277.517555
1277.531885
1277.531095
1277.530096
1277.528969
1277.527828
1277.526648
1277.525511
1277.524424
1277.523423
1277.522483
1277.521653
1277.520924
1277.520307
1277.51985
1277.532411
1277.532102
1277.531643
1277.531035
1277.530272
1277.529431
1277.528518
1277.527579
1277.52657
1277.525591
1277.524666
1277.523782
1277.522979
1277.522216
1277.521642
1277.532146
1277.531565
1277.530771
1277.529813
1277.528759
1277.527673
1277.526536
1277.525456
1277.524439
1277.523479
1277.522595
1277.521787
1277.521059
1277.520426
1277.519953
1277.532247
1277.531007
1277.529474
1277.527869
1277.526237
1277.524724
1277.523388
1277.522209
1277.52125
1277.520427
1277.519764
1277.519195
1277.518695
1277.518296
1277.518028
1277.530548
1277.528232
1277.525738
1277.523382
1277.521383
1277.519736
1277.518418
1277.517449
1277.516706
1277.51616
1277.515781
1277.515533
1277.515358
1277.515224
1277.515144
1277.528362
1277.525187
1277.522256
1277.519797
1277.517872
1277.516386
1277.515373
1277.514658
1277.514165
1277.513867
1277.51368
1277.513599
1277.513596
1277.513628
1277.51364
1277.530505
1277.528195
1277.52571
1277.523393
1277.521377
1277.519716
1277.518435
1277.517439
1277.51672
1277.516191
1277.515771
1277.51549
1277.515319
1277.515186
1277.515115
1277.530975
1277.529721
1277.528181
1277.52655
1277.524944
1277.523451
1277.522137
1277.520983
1277.520025
1277.519214
1277.518532
1277.517929
1277.517422
1277.517016
1277.516769
1277.532339
1277.531777
1277.530958
1277.529984
1277.528903
1277.527802
1277.526665
1277.525582
1277.524565
1277.523603
1277.522703
1277.521906
1277.521169
1277.520547
1277.520077
1277.532471
1277.532013
1277.531422
1277.530669
1277.529831
1277.528931
1277.527974
1277.527002
1277.526064
1277.525143
1277.524276
1277.523442
1277.52269
1277.522112
1277.532692
1277.532507
1277.53223
1277.531848
1277.531292
1277.530651
1277.52991
1277.529102
1277.528236
1277.527338
1277.526441
1277.525559
1277.524687
1277.52389
1277.523265
1277.533028
1277.53273
1277.532298
1277.531667
1277.530927
1277.530057
1277.529129
1277.528157
1277.52719
1277.526234
1277.52532
1277.524396
1277.523587
1277.522848
1277.522267
1277.53273
1277.532163
1277.531367
1277.530369
1277.529274
1277.528113
1277.526922
1277.525766
1277.524669
1277.523649
1277.522711
1277.521872
1277.521105
1277.520475
1277.519991
1277.532577
1277.531617
1277.530381
1277.528974
1277.527518
1277.526072
1277.524688
1277.523428
1277.522317
1277.521325
1277.520449
1277.519727
1277.519112
1277.518596
1277.518218
1277.531424
1277.530238
1277.528751
1277.527165
1277.525554
1277.524039
1277.522638
1277.521398
1277.520339
1277.519378
1277.51857
1277.517936
1277.517395
1277.516951
1277.516604
1277.531688
1277.530741
1277.529522
1277.528135
1277.526654
1277.525243
1277.523852
1277.522634
1277.521497
1277.520519
1277.519669
1277.518924
1277.518288
1277.517779
1277.517432
1277.531856
1277.531259
1277.530464
1277.529452
1277.528352
1277.527169
1277.525984
1277.524832
1277.523751
1277.522739
1277.52181
1277.520961
1277.520241
1277.519588
1277.519088
1277.532487
1277.53217
1277.531716
1277.531133
1277.530387
1277.529558
1277.528658
1277.527684
1277.526727
1277.525798
1277.524854
1277.523973
1277.523131
1277.522367
1277.521806
1277.532988
1277.5328
1277.532492
1277.532066
1277.531527
1277.530876
1277.530155
1277.529333
1277.52847
1277.527569
1277.526669
1277.525762
1277.52491
1277.524116
1277.523501
)
;

boundaryField
{
    top
    {
        type            calculated;
        value           nonuniform List<scalar> 
127
(
1277.532988
1277.53315
1277.53264
1277.531543
1277.531316
1277.530242
1277.530729
1277.531885
1277.532471
1277.5328
1277.532841
1277.532217
1277.530716
1277.530141
1277.528791
1277.52947
1277.531095
1277.532013
1277.532492
1277.532425
1277.531604
1277.529734
1277.528747
1277.527212
1277.528088
1277.530096
1277.531422
1277.532066
1277.531908
1277.530822
1277.528623
1277.527287
1277.525625
1277.526654
1277.528969
1277.530669
1277.531527
1277.531283
1277.529978
1277.527432
1277.525827
1277.524124
1277.525229
1277.527828
1277.529831
1277.530876
1277.530552
1277.529067
1277.526248
1277.524447
1277.52272
1277.523863
1277.526648
1277.528931
1277.530155
1277.529737
1277.528117
1277.525116
1277.523204
1277.521489
1277.522641
1277.525511
1277.527974
1277.529333
1277.528854
1277.527158
1277.524029
1277.52211
1277.520397
1277.521527
1277.524424
1277.527002
1277.52847
1277.527972
1277.526201
1277.523027
1277.521135
1277.51943
1277.520553
1277.523423
1277.526064
1277.527569
1277.527073
1277.525265
1277.522115
1277.520297
1277.518636
1277.519691
1277.522483
1277.525143
1277.526669
1277.526161
1277.52438
1277.521291
1277.51957
1277.517959
1277.518958
1277.521653
1277.524276
1277.525762
1277.525304
1277.523519
1277.520553
1277.518975
1277.517399
1277.518318
1277.520924
1277.523442
1277.52491
1277.524503
1277.522768
1277.519896
1277.518465
1277.516938
1277.517787
1277.520307
1277.52269
1277.524116
1277.52388
1277.522197
1277.519414
1277.518072
1277.516615
1277.517433
1277.51985
1277.522112
1277.523501
)
;
    }
    bottom
    {
        type            calculated;
        value           nonuniform List<scalar> 
134
(
1277.532963
1277.532441
1277.53165
1277.53173
1277.532469
1277.532065
1277.532411
1277.532692
1277.532932
1277.532649
1277.531845
1277.530665
1277.530536
1277.531518
1277.531482
1277.532102
1277.532507
1277.532643
1277.532158
1277.531022
1277.529459
1277.529075
1277.5303
1277.530653
1277.531643
1277.53223
1277.53223
1277.531574
1277.530017
1277.528074
1277.527479
1277.528908
1277.529648
1277.531035
1277.531848
1277.531683
1277.530806
1277.528906
1277.526626
1277.525918
1277.527451
1277.528524
1277.530272
1277.531292
1277.531031
1277.529976
1277.527747
1277.525161
1277.524393
1277.526018
1277.527355
1277.529431
1277.530651
1277.530296
1277.529067
1277.526551
1277.523803
1277.522997
1277.524663
1277.526166
1277.528518
1277.52991
1277.529486
1277.528111
1277.5254
1277.522568
1277.521749
1277.523402
1277.525022
1277.527579
1277.529102
1277.528609
1277.527129
1277.524325
1277.52146
1277.52065
1277.522295
1277.523941
1277.52657
1277.528236
1277.52774
1277.526158
1277.523285
1277.520478
1277.519748
1277.52133
1277.522936
1277.525591
1277.527338
1277.526839
1277.525214
1277.522338
1277.519639
1277.518947
1277.520453
1277.522034
1277.524666
1277.526441
1277.52594
1277.524337
1277.521508
1277.5189
1277.518276
1277.519736
1277.521194
1277.523782
1277.525559
1277.525076
1277.523514
1277.520773
1277.518296
1277.517734
1277.519145
1277.520441
1277.522979
1277.524687
1277.524277
1277.522767
1277.520127
1277.517757
1277.517256
1277.518616
1277.519792
1277.522216
1277.52389
1277.523662
1277.522191
1277.519669
1277.517397
1277.516944
1277.518267
1277.519304
1277.521642
1277.523265
)
;
    }
    side-walls
    {
        type            calculated;
        value           nonuniform List<scalar> 
261
(
1277.532932
1277.532248
1277.531721
1277.531232
1277.530549
1277.53128
1277.531674
1277.532431
1277.53315
1277.532643
1277.531787
1277.53094
1277.529998
1277.529064
1277.530056
1277.530871
1277.531953
1277.532841
1277.53223
1277.531179
1277.529943
1277.528632
1277.527488
1277.528642
1277.529892
1277.531346
1277.532425
1277.531683
1277.530452
1277.528783
1277.527159
1277.525893
1277.527157
1277.52878
1277.530598
1277.531908
1277.531031
1277.529592
1277.527637
1277.525706
1277.524359
1277.525724
1277.527605
1277.52973
1277.531283
1277.530296
1277.528672
1277.526468
1277.524342
1277.522971
1277.524375
1277.526445
1277.528799
1277.530552
1277.529486
1277.527699
1277.525297
1277.523097
1277.52173
1277.523146
1277.525276
1277.527827
1277.529737
1277.528609
1277.526747
1277.524228
1277.521988
1277.520628
1277.522011
1277.524187
1277.526882
1277.528854
1277.52774
1277.525786
1277.523211
1277.521013
1277.51968
1277.52103
1277.523174
1277.525922
1277.527972
1277.526839
1277.524862
1277.522302
1277.52013
1277.518878
1277.52019
1277.522246
1277.524954
1277.527073
1277.52594
1277.523975
1277.521479
1277.519423
1277.518235
1277.519437
1277.521434
1277.524093
1277.526161
1277.525076
1277.523145
1277.520718
1277.518806
1277.517672
1277.518847
1277.520694
1277.523245
1277.525304
1277.524277
1277.522388
1277.520077
1277.518269
1277.517198
1277.518328
1277.520063
1277.522507
1277.524503
1277.523662
1277.52182
1277.519615
1277.517911
1277.516916
1277.517952
1277.519577
1277.521929
1277.52388
1277.532692
1277.533028
1277.53273
1277.532577
1277.531424
1277.531688
1277.531856
1277.532487
1277.532988
1277.532507
1277.53273
1277.532163
1277.531617
1277.530238
1277.530741
1277.531259
1277.53217
1277.5328
1277.53223
1277.532298
1277.531367
1277.530381
1277.528751
1277.529522
1277.530464
1277.531716
1277.532492
1277.531848
1277.531667
1277.530369
1277.528974
1277.527165
1277.528135
1277.529452
1277.531133
1277.532066
1277.531292
1277.530927
1277.529274
1277.527518
1277.525554
1277.526654
1277.528352
1277.530387
1277.531527
1277.530651
1277.530057
1277.528113
1277.526072
1277.524039
1277.525243
1277.527169
1277.529558
1277.530876
1277.52991
1277.529129
1277.526922
1277.524688
1277.522638
1277.523852
1277.525984
1277.528658
1277.530155
1277.529102
1277.528157
1277.525766
1277.523428
1277.521398
1277.522634
1277.524832
1277.527684
1277.529333
1277.528236
1277.52719
1277.524669
1277.522317
1277.520339
1277.521497
1277.523751
1277.526727
1277.52847
1277.527338
1277.526234
1277.523649
1277.521325
1277.519378
1277.520519
1277.522739
1277.525798
1277.527569
1277.526441
1277.52532
1277.522711
1277.520449
1277.51857
1277.519669
1277.52181
1277.524854
1277.526669
1277.525559
1277.524396
1277.521872
1277.519727
1277.517936
1277.518924
1277.520961
1277.523973
1277.525762
1277.524687
1277.523587
1277.521105
1277.519112
1277.517395
1277.518288
1277.520241
1277.523131
1277.52491
1277.52389
1277.522848
1277.520475
1277.518596
1277.516951
1277.517779
1277.519588
1277.522367
1277.524116
1277.523265
1277.522267
1277.519991
1277.518218
1277.516604
1277.517432
1277.519088
1277.521806
1277.523501
)
;
    }
    inlet
    {
        type            calculated;
        value           nonuniform 0();
    }
    outlet
    {
        type            calculated;
        value           nonuniform List<scalar> 
81
(
1277.523662
1277.52182
1277.519615
1277.517911
1277.516916
1277.517952
1277.519577
1277.521929
1277.52388
1277.522191
1277.520552
1277.517479
1277.51459
1277.514324
1277.515053
1277.517295
1277.520375
1277.522197
1277.519669
1277.517716
1277.51385
1277.510092
1277.508848
1277.510081
1277.51291
1277.517467
1277.519414
1277.517397
1277.515414
1277.510155
1277.506054
1277.50132
1277.505063
1277.510596
1277.513905
1277.518072
1277.516944
1277.513807
1277.508528
1277.50208
1275.887452
1277.50145
1277.508376
1277.513469
1277.516615
1277.518267
1277.514266
1277.509851
1277.505957
1277.501538
1277.506286
1277.510363
1277.514889
1277.517433
1277.519304
1277.51745
1277.513085
1277.510305
1277.509052
1277.509552
1277.513646
1277.517555
1277.51985
1277.521642
1277.519953
1277.518028
1277.515144
1277.51364
1277.515115
1277.516769
1277.520077
1277.522112
1277.523265
1277.522267
1277.519991
1277.518218
1277.516604
1277.517432
1277.519088
1277.521806
1277.523501
)
;
    }
    procBoundary1to0
    {
        type            processor;
        value           nonuniform List<scalar> 
97
(
1277.53314
1277.53314
1277.532574
1277.532299
1277.532178
1277.531763
1277.53224
1277.532219
1277.532732
1277.53334
1277.533148
1277.532633
1277.532633
1277.532633
1277.531808
1277.52979
1277.52902
1277.530382
1277.531566
1277.532606
1277.532897
1277.532809
1277.532772
1277.529355
1277.529355
1277.529355
1277.523064
1277.513787
1277.522983
1277.528332
1277.531583
1277.532098
1277.532281
1277.532393
1277.529218
1277.499507
1277.499507
1277.499507
1277.430526
1277.498553
1277.523473
1277.529308
1277.532295
1277.5326
1277.531277
1277.525878
1277.505851
1275.295238
1275.295238
1275.295238
1277.430676
1277.430676
1277.513276
1277.528277
1277.531425
1277.533118
1277.531315
1277.52877
1277.521434
1277.505537
1277.521727
1277.523415
1277.523415
1277.523415
1277.53024
1277.531721
1277.532402
1277.532514
1277.530814
1277.529291
1277.526417
1277.528507
1277.531347
1277.531806
1277.531806
1277.531806
1277.532479
1277.532595
1277.532515
1277.533084
1277.532247
1277.531049
1277.5322
1277.531816
1277.532721
1277.532785
1277.532785
1277.532785
1277.532775
1277.533212
1277.53312
1277.533208
1277.53227
1277.532308
1277.532214
1277.532675
1277.533095
)
;
    }
}


// ************************************************************************* //
