/*--------------------------------*- C++ -*----------------------------------*\
| =========                 |                                                 |
| \\      /  F ield         | OpenFOAM: The Open Source CFD Toolbox           |
|  \\    /   O peration     | Version:  4.x                                   |
|   \\  /    A nd           | Web:      www.OpenFOAM.org                      |
|    \\/     M anipulation  |                                                 |
\*---------------------------------------------------------------------------*/
FoamFile
{
    version     2.0;
    format      ascii;
    class       volScalarField;
    location    "3000";
    object      H2;
}
// * * * * * * * * * * * * * * * * * * * * * * * * * * * * * * * * * * * * * //

dimensions      [0 0 0 0 0 0 0];

internalField   nonuniform List<scalar> 
1174
(
0.004463613635
0.00446346097
0.004463247661
0.004462972159
0.004462638401
0.004462254577
0.004461831516
0.004461381133
0.004460915198
0.004460444563
0.004459979064
0.004459529048
0.004459112803
0.004458788423
0.004463473258
0.004463232924
0.004462916129
0.00446253139
0.004462092828
0.004461616898
0.004461119864
0.004460616206
0.004460117869
0.004459634164
0.00445917228
0.004458739137
0.004458348324
0.004458048932
0.004463166592
0.004462749361
0.004462238412
0.004461663742
0.00446105674
0.004460444854
0.004459849251
0.004459284539
0.004458759601
0.004458278884
0.004457843888
0.00445745535
0.004457119067
0.004456869014
0.004462723573
0.004462084272
0.00446135774
0.004460597832
0.004459848233
0.004459139419
0.004458489674
0.004457907694
0.004457395389
0.004456950319
0.004456567684
0.004456242349
0.004455973152
0.004455779715
0.004462412301
0.004461653371
0.004460833117
0.004460009504
0.004459223437
0.00445850018
0.004457852689
0.004457285093
0.004456795675
0.004456379196
0.004456028684
0.004455737141
0.004455501056
0.00445533436
0.004462723579
0.00446208428
0.004461357751
0.004460597845
0.004459848248
0.004459139435
0.004458489693
0.004457907714
0.004457395411
0.004456950342
0.004456567707
0.004456242373
0.004455973177
0.00445577974
0.004463166601
0.004462749374
0.004462238428
0.004461663761
0.004461056763
0.00446044488
0.00445984928
0.004459284571
0.004458759636
0.004458278921
0.004457843928
0.004457455391
0.00445711911
0.004456869058
0.004463473266
0.004463232935
0.004462916142
0.004462531407
0.004462092848
0.004461616922
0.004461119892
0.004460616238
0.004460117905
0.004459634203
0.004459172323
0.004458739184
0.004458348374
0.004458048984
0.004463613641
0.004463460977
0.004463247671
0.004462972172
0.004462638416
0.004462254596
0.004461831539
0.004461381161
0.00446091523
0.0044604446
0.004459979106
0.004459529095
0.004459112853
0.004458788477
0.004463637353
0.004463473259
0.004463232925
0.004462916129
0.004462531391
0.004462092828
0.004461616898
0.004461119864
0.004460616206
0.004460117869
0.004459634164
0.004459172281
0.004458739138
0.004458348325
0.004458048933
0.004463161961
0.004462748579
0.004462249548
0.004461695763
0.004461117308
0.004460538877
0.004459978374
0.004459447375
0.004458952396
0.004458496342
0.004458079972
0.004457703991
0.004457374821
0.004457127747
0.004462388659
0.004461601595
0.004460755377
0.004459921479
0.004459147162
0.004458456825
0.004457857982
0.004457347634
0.004456917286
0.004456556346
0.004456254242
0.004456002025
0.004455795473
0.00445564767
0.004461035628
0.004459748539
0.004458538951
0.004457494123
0.004456641118
0.004455971722
0.004455461511
0.004455081449
0.004454803863
0.004454604916
0.004454465205
0.004454369488
0.004454306297
0.004454269173
0.004459781029
0.004458248382
0.004456964428
0.004455957099
0.004455200997
0.004454653005
0.004454268858
0.004454009628
0.004453843473
0.004453745361
0.004453696028
0.004453680639
0.004453686934
0.004453701571
0.004461035647
0.004459748564
0.004458538979
0.004457494153
0.004456641149
0.004455971754
0.004455461543
0.004455081481
0.004454803895
0.004454604948
0.004454465237
0.004454369519
0.004454306328
0.004454269204
0.004462388686
0.004461601627
0.004460755413
0.004459921518
0.004459147205
0.00445845687
0.00445785803
0.004457347683
0.004456917336
0.004456556397
0.004456254294
0.004456002078
0.004455795526
0.004455647724
0.004463161981
0.0044627486
0.004462249573
0.004461695792
0.004461117341
0.004460538916
0.004459978417
0.004459447422
0.004458952447
0.004458496396
0.00445808003
0.004457704051
0.004457374884
0.004457127811
0.004463473267
0.004463232935
0.004462916143
0.004462531409
0.004462092851
0.004461616927
0.004461119898
0.004460616246
0.004460117914
0.004459634214
0.004459172335
0.004458739197
0.004458348388
0.004458049
0.004463469994
0.004463166594
0.004462749364
0.004462238416
0.004461663746
0.004461056744
0.004460444858
0.004459849255
0.004459284544
0.004458759607
0.00445827889
0.004457843894
0.004457455355
0.004457119073
0.00445686902
0.004463031756
0.004462388661
0.004461601597
0.004460755379
0.00445992148
0.004459147163
0.004458456826
0.004457857984
0.004457347636
0.004456917288
0.004456556348
0.004456254245
0.004456002028
0.004455795476
0.004455647674
0.004460140495
0.004458517349
0.004457067776
0.004455895925
0.004455017062
0.004454398837
0.004453991004
0.004453742313
0.004453608204
0.004453553137
0.004453550213
0.004453579502
0.004453625156
0.004453668779
0.004455220919
0.004452538919
0.004450727589
0.004449690228
0.004449232648
0.004449166424
0.004449343017
0.004449656822
0.004450037486
0.004450440366
0.004450838161
0.004451213678
0.004451550341
0.004451805815
0.004448888408
0.004446281222
0.004445214953
0.004445086444
0.004445473602
0.004446115004
0.004446858156
0.00444761782
0.004448348575
0.004449027978
0.004449646293
0.004450199126
0.004450677033
0.0044510318
0.004455221017
0.004452539016
0.00445072768
0.004449690312
0.004449232724
0.004449166493
0.004449343079
0.004449656879
0.004450037539
0.004450440415
0.004450838206
0.00445121372
0.004451550382
0.004451805854
0.004460140584
0.004458517431
0.004457067858
0.004455896007
0.004455017144
0.004454398918
0.004453991083
0.00445374239
0.004453608279
0.004453553209
0.004453550284
0.004453579571
0.004453625223
0.004453668845
0.004462388689
0.004461601633
0.004460755423
0.004459921532
0.004459147222
0.00445845689
0.004457858052
0.004457347707
0.004456917362
0.004456556424
0.004456254322
0.004456002107
0.004455795555
0.004455647754
0.004463166603
0.004462749378
0.004462238436
0.004461663773
0.004461056779
0.004460444901
0.004459849305
0.0044592846
0.004458759669
0.004458278957
0.004457843966
0.004457455431
0.004457119152
0.004456869103
0.004463222231
0.004462723578
0.00446208428
0.004461357751
0.004460597843
0.004459848244
0.004459139431
0.004458489687
0.004457907707
0.004457395402
0.004456950332
0.004456567697
0.004456242362
0.004455973164
0.004455779727
0.004462234313
0.004461035629
0.004459748546
0.004458538959
0.004457494131
0.004456641126
0.004455971731
0.00445546152
0.004455081459
0.004454803873
0.004454604926
0.004454465215
0.004454369498
0.004454306307
0.004454269183
0.004458551
0.004455220926
0.004452538935
0.004450727605
0.004449690243
0.004449232662
0.004449166437
0.004449343029
0.004449656833
0.004450037497
0.004450440376
0.00445083817
0.004451213686
0.004451550349
0.004451805822
0.004438598942
0.004435378278
0.004434981503
0.004436076664
0.004437811584
0.004439715716
0.004441556688
0.004443235023
0.004444719865
0.004446013023
0.004447129626
0.004448086382
0.004448886349
0.004449466938
0.004406534189
0.004411072984
0.0044177336
0.004424026306
0.00442932697
0.004433624852
0.00443707589
0.004439853352
0.004442105119
0.004443947009
0.004445466332
0.004446725185
0.004447752683
0.004448487134
0.004438599305
0.004435378532
0.004434981695
0.004436076816
0.004437811706
0.004439715816
0.004441556771
0.004443235094
0.004444719927
0.004446013078
0.004447129676
0.004448086428
0.004448886393
0.00444946698
0.004455221015
0.004452539038
0.004450727716
0.004449690358
0.004449232775
0.004449166548
0.004449343134
0.004449656934
0.004450037592
0.004450440466
0.004450838256
0.004451213768
0.004451550428
0.004451805899
0.004461035657
0.004459748587
0.004458539014
0.004457494198
0.004456641202
0.004455971814
0.004455461607
0.004455081548
0.004454803963
0.004454605017
0.004454465307
0.004454369589
0.004454306398
0.004454269274
0.004462723583
0.004462084291
0.004461357771
0.004460597873
0.004459848285
0.004459139481
0.004458489746
0.004457907775
0.004457395476
0.004456950412
0.004456567781
0.00445624245
0.004455973256
0.004455779822
0.004463039378
0.00446241231
0.004461653385
0.004460833134
0.004460009523
0.004459223457
0.0044585002
0.004457852709
0.004457285113
0.004456795695
0.004456379216
0.004456028703
0.00445573716
0.004455501074
0.004455334378
0.004461416335
0.004459781044
0.00445824841
0.004456964457
0.004455957128
0.004455201024
0.004454653031
0.004454268883
0.004454009652
0.004453843496
0.004453745382
0.004453696048
0.004453680657
0.004453686951
0.004453701588
0.004453631582
0.004448888405
0.004446281264
0.004445214994
0.00444508648
0.004445473633
0.004446115032
0.004446858181
0.004447617842
0.004448348594
0.004449027996
0.004449646309
0.004450199142
0.004450677048
0.004451031815
0.00441187755
0.004406534298
0.00441107308
0.004417733683
0.004424026376
0.004429327027
0.0044336249
0.00443707593
0.004439853386
0.004442105148
0.004443947035
0.004445466354
0.004446725204
0.0044477527
0.004448487149
0.00427003334
0.004340461007
0.00437921624
0.004401797329
0.004415737482
0.00442483735
0.004431089909
0.004435583475
0.004438937599
0.00444151995
0.004443557121
0.004445190448
0.004446492556
0.004447410031
0.004406534201
0.004411073291
0.004417733886
0.004424026538
0.004429327156
0.004433625004
0.004437076018
0.004439853462
0.004442105214
0.004443947094
0.004445466408
0.004446725254
0.004447752747
0.004448487194
0.004448888423
0.004446281339
0.004445215101
0.0044450866
0.004445473755
0.00444611515
0.004446858294
0.00444761795
0.004448348696
0.004449028092
0.004449646401
0.004450199229
0.004450677132
0.004451031896
0.004459781042
0.004458248427
0.004456964495
0.004455957183
0.004455201092
0.004454653108
0.004454268966
0.00445400974
0.004453843587
0.004453745475
0.004453696141
0.004453680751
0.004453687045
0.004453701682
0.004462412307
0.004461653389
0.004460833148
0.004460009549
0.004459223495
0.00445850025
0.004457852769
0.004457285182
0.004456795771
0.004456379298
0.004456028791
0.004455737252
0.00445550117
0.004455334477
0.004463222236
0.004462723587
0.004462084294
0.004461357768
0.004460597864
0.004459848268
0.004459139457
0.004458489715
0.004457907737
0.004457395433
0.004456950364
0.004456567729
0.004456242395
0.004455973198
0.004455779761
0.004462234337
0.004461035668
0.004459748595
0.004458539012
0.004457494186
0.004456641181
0.004455971786
0.004455461573
0.00445508151
0.004454803922
0.004454604974
0.004454465261
0.004454369543
0.004454306351
0.004454269226
0.004458551119
0.00445522105
0.004452539068
0.004450727729
0.004449690356
0.004449232763
0.004449166529
0.004449343112
0.00444965691
0.004450037567
0.004450440441
0.00445083823
0.004451213742
0.004451550403
0.004451805874
0.004446128071
0.004438599378
0.004435378627
0.00443498178
0.004436076889
0.00443781177
0.004439715873
0.004441556821
0.004443235138
0.004444719966
0.004446013113
0.004447129707
0.004448086456
0.004448886418
0.004449467003
0.00441187765
0.004406534443
0.004411073459
0.004417734002
0.004424026622
0.00442932722
0.004433625054
0.004437076058
0.004439853495
0.004442105242
0.004443947118
0.004445466428
0.004446725272
0.004447752763
0.004448487208
0.004446128022
0.004438599435
0.00443537872
0.004434981881
0.004436076988
0.004437811862
0.004439715957
0.004441556899
0.00444323521
0.004444720032
0.004446013174
0.004447129764
0.004448086509
0.004448886467
0.00444946705
0.004455220915
0.004452539024
0.004450727743
0.004449690405
0.004449232833
0.004449166609
0.004449343197
0.004449656996
0.004450037653
0.004450440526
0.004450838313
0.004451213824
0.004451550482
0.004451805952
0.004461035623
0.004459748567
0.004458539006
0.004457494201
0.004456641213
0.004455971832
0.00445546163
0.004455081576
0.004454803994
0.00445460505
0.004454465342
0.004454369625
0.004454306435
0.004454269312
0.004462723575
0.004462084285
0.004461357767
0.004460597874
0.00445984829
0.00445913949
0.00445848976
0.004457907791
0.004457395496
0.004456950435
0.004456567806
0.004456242478
0.004455973285
0.004455779852
0.004463470001
0.004463166607
0.004462749383
0.00446223844
0.004461663776
0.004461056779
0.004460444898
0.004459849299
0.004459284591
0.004458759657
0.004458278943
0.00445784395
0.004457455413
0.004457119132
0.00445686908
0.004463031781
0.004462388697
0.004461601643
0.004460755432
0.004459921539
0.004459147227
0.004458456893
0.004457858053
0.004457347707
0.00445691736
0.004456556421
0.004456254317
0.004456002101
0.004455795548
0.004455647746
0.004461709486
0.004460140607
0.004458517464
0.004457067892
0.004455896041
0.004455017178
0.00445439895
0.004453991114
0.00445374242
0.004453608307
0.004453553236
0.004453550309
0.004453579595
0.004453625246
0.004453668868
0.004458551117
0.004455221065
0.0044525391
0.004450727776
0.004449690412
0.004449232825
0.004449166592
0.004449343174
0.00444965697
0.004450037625
0.004450440496
0.004450838284
0.004451213794
0.004451550452
0.004451805922
0.004453631608
0.004448888525
0.004446281436
0.004445215182
0.004445086667
0.004445473812
0.004446115198
0.004446858336
0.004447617986
0.004448348728
0.00444902812
0.004449646426
0.004450199252
0.004450677152
0.004451031915
0.004458551136
0.004455221098
0.004452539142
0.004450727822
0.004449690461
0.004449232873
0.004449166639
0.00444934322
0.004449657014
0.004450037668
0.004450440538
0.004450838324
0.004451213833
0.00445155049
0.004451805959
0.004461709449
0.004460140574
0.004458517447
0.004457067894
0.00445589606
0.00445501721
0.004454398992
0.004453991164
0.004453742474
0.004453608364
0.004453553296
0.004453550371
0.004453579657
0.004453625309
0.004453668931
0.004462388661
0.004461601619
0.004460755421
0.004459921541
0.004459147241
0.004458456918
0.004457858088
0.004457347749
0.004456917409
0.004456556476
0.004456254378
0.004456002166
0.004455795617
0.004455647817
0.004463166592
0.004462749369
0.004462238431
0.004461663773
0.004461056785
0.004460444913
0.004459849323
0.004459284624
0.004458759699
0.004458278992
0.004457844006
0.004457455476
0.004457119201
0.004456869154
0.00446363736
0.00446347327
0.00446323294
0.00446291615
0.004462531417
0.00446209286
0.004461616936
0.004461119908
0.004460616255
0.004460117923
0.004459634223
0.004459172344
0.004458739205
0.004458348396
0.004458049006
0.004463466539
0.004463161986
0.004462748608
0.004462249583
0.004461695804
0.004461117355
0.00446053893
0.004459978433
0.004459447439
0.004458952465
0.004458496415
0.004458080049
0.00445770407
0.004457374903
0.004457127831
0.004463031779
0.004462388696
0.004461601644
0.004460755435
0.004459921545
0.004459147236
0.004458456906
0.004457858068
0.004457347724
0.00445691738
0.004456556442
0.00445625434
0.004456002125
0.004455795574
0.004455647772
0.004462234334
0.004461035672
0.004459748609
0.004458539038
0.004457494222
0.004456641226
0.004455971838
0.004455461631
0.004455081571
0.004454803986
0.00445460504
0.004454465328
0.00445436961
0.004454306419
0.004454269294
0.004461416345
0.00445978108
0.00445824847
0.004456964537
0.004455957223
0.004455201128
0.004454653142
0.004454268997
0.004454009767
0.004453843612
0.004453745498
0.004453696163
0.004453680772
0.004453687065
0.004453701701
0.004462234341
0.004461035683
0.004459748624
0.004458539056
0.004457494243
0.00445664125
0.004455971864
0.004455461658
0.0044550816
0.004454804016
0.00445460507
0.004454465359
0.004454369641
0.00445430645
0.004454269326
0.004463031778
0.004462388696
0.004461601648
0.004460755446
0.004459921563
0.00445914726
0.004458456936
0.004457858103
0.004457347764
0.004456917422
0.004456556488
0.004456254388
0.004456002175
0.004455795625
0.004455647825
0.004463466532
0.004463161977
0.004462748601
0.004462249581
0.004461695807
0.004461117365
0.004460538947
0.004459978457
0.00445944747
0.004458952502
0.004458496457
0.004458080096
0.004457704122
0.004457374959
0.00445712789
0.004463473259
0.004463232931
0.004462916143
0.004462531414
0.004462092861
0.004461616943
0.004461119921
0.004460616275
0.004460117951
0.004459634257
0.004459172385
0.004458739252
0.004458348449
0.004458049065
0.004463712958
0.004463613643
0.004463460981
0.004463247677
0.004462972179
0.004462638425
0.004462254607
0.004461831553
0.004461381176
0.004460915247
0.004460444618
0.004459979125
0.004459529115
0.004459112875
0.004458788499
0.004463637359
0.004463473269
0.004463232939
0.004462916149
0.004462531416
0.004462092859
0.004461616936
0.004461119909
0.004460616258
0.004460117928
0.004459634229
0.004459172351
0.004458739213
0.004458348406
0.004458049018
0.004463469999
0.004463166606
0.004462749383
0.004462238442
0.00446166378
0.004461056787
0.00446044491
0.004459849315
0.004459284611
0.004458759681
0.00445827897
0.00445784398
0.004457455446
0.004457119167
0.004456869119
0.004463222235
0.00446272359
0.004462084302
0.004461357783
0.004460597887
0.0044598483
0.004459139497
0.004458489763
0.004457907791
0.004457395493
0.004456950429
0.004456567798
0.004456242467
0.004455973273
0.004455779839
0.004463039383
0.004462412323
0.004461653411
0.004460833173
0.004460009575
0.004459223521
0.004458500276
0.004457852794
0.004457285206
0.004456795794
0.00445637932
0.004456028812
0.004455737272
0.004455501189
0.004455334495
0.004463222239
0.004462723597
0.004462084311
0.004461357796
0.004460597903
0.004459848318
0.004459139517
0.004458489785
0.004457907815
0.004457395519
0.004456950456
0.004456567826
0.004456242496
0.004455973302
0.004455779868
0.004463470001
0.00446316661
0.00446274939
0.004462238453
0.004461663795
0.004461056807
0.004460444935
0.004459849344
0.004459284644
0.004458759718
0.00445827901
0.004457844023
0.004457455491
0.004457119215
0.004456869167
0.004463637359
0.004463473268
0.004463232939
0.004462916151
0.004462531422
0.00446209287
0.004461616951
0.00446111993
0.004460616284
0.004460117959
0.004459634265
0.004459172393
0.004458739259
0.004458348456
0.004458049071
0.004463712955
0.00446361364
0.004463460978
0.004463247674
0.004462972178
0.004462638428
0.004462254613
0.004461831564
0.004461381193
0.00446091527
0.004460444647
0.00445997916
0.004459529156
0.004459112922
0.004458788552
)
;

boundaryField
{
    top
    {
        type            zeroGradient;
    }
    bottom
    {
        type            zeroGradient;
    }
    side-walls
    {
        type            zeroGradient;
    }
    inlet
    {
        type            zeroGradient;
    }
    outlet
    {
        type            zeroGradient;
    }
    procBoundary1to0
    {
        type            processor;
        value           nonuniform List<scalar> 
97
(
0.004463712954
0.004463712954
0.004463637357
0.00446347
0.004463222241
0.00446303939
0.004463222245
0.004463470006
0.004463637363
0.004463712959
0.004463735582
0.004463466529
0.004463466529
0.004463466529
0.004463031775
0.004462234346
0.004461416374
0.004462234362
0.004463031795
0.004463466546
0.004463637363
0.004463658811
0.004463464087
0.004461709435
0.004461709435
0.004461709435
0.004458551121
0.00445363175
0.004458551217
0.004461709524
0.004463031796
0.004463470007
0.004463547913
0.004463125431
0.004461670319
0.004446127776
0.004446127776
0.004446127776
0.004411878311
0.004446128351
0.004458551209
0.004462234365
0.004463222246
0.004463470002
0.004462811472
0.004460086247
0.004449498256
0.004134626757
0.004134626757
0.004134626757
0.004411878215
0.004411878215
0.004453631736
0.004461416375
0.004463039392
0.004463547914
0.004463125437
0.00446167033
0.004457512409
0.004449498261
0.004457512432
0.004458551042
0.004458551042
0.004458551042
0.004462234332
0.004463222239
0.004463658813
0.004463464091
0.004462901418
0.004461670326
0.004460086245
0.004461670337
0.004462901415
0.004463031763
0.004463031763
0.004463031763
0.004463469998
0.004463735583
0.004463657658
0.00446346409
0.004463125434
0.004462811473
0.004463125438
0.004463464091
0.004463657657
0.004463637355
0.004463637355
0.004463637355
0.004463770726
0.004463735583
0.004463658812
0.004463547913
0.004463470002
0.004463547915
0.004463658814
0.004463735583
0.004463770725
)
;
    }
}


// ************************************************************************* //
