/*--------------------------------*- C++ -*----------------------------------*\
| =========                 |                                                 |
| \\      /  F ield         | OpenFOAM: The Open Source CFD Toolbox           |
|  \\    /   O peration     | Version:  4.x                                   |
|   \\  /    A nd           | Web:      www.OpenFOAM.org                      |
|    \\/     M anipulation  |                                                 |
\*---------------------------------------------------------------------------*/
FoamFile
{
    version     2.0;
    format      ascii;
    class       volScalarField;
    location    "3000";
    object      H2O;
}
// * * * * * * * * * * * * * * * * * * * * * * * * * * * * * * * * * * * * * //

dimensions      [0 0 0 0 0 0 0];

internalField   nonuniform List<scalar> 
1174
(
1.173841714e-05
1.300446673e-05
1.477343014e-05
1.705818821e-05
1.982611852e-05
2.300931626e-05
2.651801274e-05
3.025341974e-05
3.411795364e-05
3.802162315e-05
4.18828413e-05
4.561579483e-05
4.906876307e-05
5.175973962e-05
1.290257928e-05
1.489559705e-05
1.752269645e-05
2.071327798e-05
2.435030822e-05
2.829734102e-05
3.241954059e-05
3.659684317e-05
4.073018522e-05
4.474236253e-05
4.85737382e-05
5.216690868e-05
5.540907455e-05
5.789288154e-05
1.544561478e-05
1.890541144e-05
2.314240296e-05
2.790791991e-05
3.294170059e-05
3.801619194e-05
4.295587389e-05
4.76396002e-05
5.199369708e-05
5.598127265e-05
5.958986027e-05
6.281331067e-05
6.560343405e-05
6.767818207e-05
1.911907356e-05
2.442013157e-05
3.044465163e-05
3.67461457e-05
4.296240981e-05
4.884073874e-05
5.422950148e-05
5.905657705e-05
6.330609671e-05
6.699825604e-05
7.01728022e-05
7.287229759e-05
7.510625574e-05
7.671159787e-05
2.169987053e-05
2.79927709e-05
3.479438654e-05
4.162411671e-05
4.814281484e-05
5.414095605e-05
5.951110261e-05
6.421896845e-05
6.827877381e-05
7.173390152e-05
7.464213884e-05
7.706145966e-05
7.902087123e-05
8.040448771e-05
1.911897339e-05
2.44199847e-05
3.044444255e-05
3.674586393e-05
4.296204066e-05
4.884027499e-05
5.422893655e-05
5.905591457e-05
6.330533472e-05
6.699740418e-05
7.017188338e-05
7.287128729e-05
7.510517898e-05
7.67104609e-05
1.544545375e-05
1.890519857e-05
2.314212035e-05
2.790754131e-05
3.294120478e-05
3.801555254e-05
4.295507622e-05
4.763863377e-05
5.199255853e-05
5.597997331e-05
5.958839596e-05
6.281169331e-05
6.560167288e-05
6.767628707e-05
1.290243222e-05
1.489542242e-05
1.752247775e-05
2.071298259e-05
2.434990347e-05
2.829679089e-05
3.241881478e-05
3.659592091e-05
4.072905317e-05
4.47410156e-05
4.857216811e-05
5.216511419e-05
5.540706106e-05
5.789067423e-05
1.173831281e-05
1.300436017e-05
1.477329833e-05
1.705799943e-05
1.982584039e-05
2.300891215e-05
2.651744169e-05
3.025264936e-05
3.411695266e-05
3.802036694e-05
4.188131745e-05
4.561399305e-05
4.906667812e-05
5.175736155e-05
1.15416693e-05
1.29024789e-05
1.489550568e-05
1.752261065e-05
2.071319315e-05
2.435022496e-05
2.829725684e-05
3.241945225e-05
3.659675811e-05
4.073010411e-05
4.47422904e-05
4.857366596e-05
5.216683129e-05
5.540900282e-05
5.789280333e-05
1.548408841e-05
1.891191241e-05
2.305005533e-05
2.764238802e-05
3.243947313e-05
3.723656386e-05
4.18851988e-05
4.628938724e-05
5.039506389e-05
5.417813796e-05
5.763226861e-05
6.075158865e-05
6.348271719e-05
6.553271184e-05
2.189638208e-05
2.842251387e-05
3.543936133e-05
4.235435652e-05
4.877561052e-05
5.450082139e-05
5.946762184e-05
6.370084146e-05
6.727088023e-05
7.026552397e-05
7.277238476e-05
7.486563369e-05
7.658016331e-05
7.780707538e-05
3.311478734e-05
4.378662047e-05
5.381633938e-05
6.24804143e-05
6.955438949e-05
7.510626853e-05
7.933849472e-05
8.249174271e-05
8.479540799e-05
8.644708273e-05
8.760761971e-05
8.840337979e-05
8.892930364e-05
8.923855283e-05
4.35159572e-05
5.622370602e-05
6.687018203e-05
7.522358164e-05
8.149435231e-05
8.603985262e-05
8.922702803e-05
9.137856927e-05
9.275841499e-05
9.357411298e-05
9.398535648e-05
9.411511577e-05
9.406491675e-05
9.394497504e-05
3.311437605e-05
4.378611491e-05
5.381574056e-05
6.247970295e-05
6.955355155e-05
7.510530746e-05
7.933742986e-05
8.249058322e-05
8.479416721e-05
8.644577224e-05
8.760626566e-05
8.840197362e-05
8.89278613e-05
8.923704275e-05
2.189587308e-05
2.842195389e-05
3.543870796e-05
4.235354774e-05
4.877461158e-05
5.449961285e-05
5.946620646e-05
6.369923446e-05
6.726909007e-05
7.026356892e-05
7.277028628e-05
7.48634097e-05
7.657782869e-05
7.780463158e-05
1.548376057e-05
1.891159219e-05
2.304966562e-05
2.764186272e-05
3.243875644e-05
3.723561652e-05
4.188400931e-05
4.628793172e-05
5.039335496e-05
5.417618322e-05
5.763007534e-05
6.074916155e-05
6.348008689e-05
6.552988997e-05
1.290244287e-05
1.489542123e-05
1.752244908e-05
2.071291798e-05
2.43497819e-05
2.829660152e-05
3.241854782e-05
3.659556731e-05
4.072861073e-05
4.474048331e-05
4.8571548e-05
5.216440595e-05
5.54062753e-05
5.788976069e-05
1.292948594e-05
1.544536675e-05
1.890515286e-05
2.314213681e-05
2.790764818e-05
3.294142534e-05
3.801591689e-05
4.295559621e-05
4.763932141e-05
5.199342362e-05
5.598100832e-05
5.958959817e-05
6.281304983e-05
6.560318541e-05
6.767793055e-05
1.656373154e-05
2.189605797e-05
2.842223901e-05
3.543911738e-05
4.235413093e-05
4.877540203e-05
5.450062412e-05
5.946742716e-05
6.370065072e-05
6.727070084e-05
7.026534356e-05
7.277220771e-05
7.486546042e-05
7.657999505e-05
7.780692043e-05
4.053737872e-05
5.399506857e-05
6.601436716e-05
7.573161402e-05
8.302007489e-05
8.814783966e-05
9.15313751e-05
9.359553613e-05
9.470970792e-05
9.51685211e-05
9.519498118e-05
9.495430399e-05
9.457776362e-05
9.421750073e-05
8.13248678e-05
0.000103561116
0.0001185800275
0.000127182852
0.0001309791796
0.0001315309493
0.0001300695412
0.0001274704422
0.0001243169189
0.0001209790824
0.0001176832877
0.0001145720855
0.0001117827872
0.00010966599
0.0001338209699
0.000155437931
0.0001642811423
0.000165350063
0.0001621436863
0.0001568292599
0.0001506710255
0.000144375655
0.0001383197646
0.0001326894122
0.0001275653936
0.0001229840961
0.0001190237639
0.0001160837338
8.132287017e-05
0.0001035591827
0.0001185780693
0.0001271808141
0.000130977055
0.0001315287789
0.0001300673343
0.0001274682239
0.0001243147235
0.0001209769219
0.0001176811596
0.0001145699926
0.0001117807291
0.0001096639314
4.053580185e-05
5.399367345e-05
6.6012824e-05
7.572977622e-05
8.301792857e-05
8.81454053e-05
9.152869601e-05
9.359266557e-05
9.470668812e-05
9.516541418e-05
9.519179715e-05
9.495106204e-05
9.457450422e-05
9.421418509e-05
2.189587612e-05
2.842186626e-05
3.543847871e-05
4.235315079e-05
4.877404298e-05
5.449888603e-05
5.946532619e-05
6.369821551e-05
6.726795546e-05
7.026233927e-05
7.276897966e-05
7.48620217e-05
7.657639264e-05
7.780313641e-05
1.544546851e-05
1.890515099e-05
2.314195692e-05
2.790721713e-05
3.294067957e-05
3.801480955e-05
4.295409944e-05
4.763742874e-05
5.199112856e-05
5.597833138e-05
5.958656338e-05
6.280968931e-05
6.559950452e-05
6.767393257e-05
1.498392436e-05
1.911865268e-05
2.441966172e-05
3.0444145e-05
3.67456149e-05
4.296186878e-05
4.884019086e-05
5.422895667e-05
5.905603992e-05
6.330556459e-05
6.699772603e-05
7.017230075e-05
7.287179821e-05
7.510577399e-05
7.671112616e-05
2.317548419e-05
3.311406925e-05
4.378592877e-05
5.381567874e-05
6.24797865e-05
6.955379318e-05
7.510569769e-05
7.933795058e-05
8.249122522e-05
8.479490699e-05
8.644660587e-05
8.760717653e-05
8.840294716e-05
8.89288786e-05
8.923813298e-05
5.371544829e-05
8.132345678e-05
0.0001035600533
0.0001185791714
0.0001271821281
0.0001309785435
0.0001315303893
0.0001300690598
0.000127470008
0.0001243165234
0.0001209787306
0.0001176829715
0.0001145717866
0.0001117824955
0.0001096657111
0.0002191294775
0.0002458300281
0.0002491226337
0.0002400472857
0.0002256679154
0.0002098853397
0.0001946259966
0.0001807145657
0.0001684069822
0.0001576883033
0.0001484331514
0.0001405030319
0.000133872528
0.0001290601477
0.0004849346147
0.0004473158253
0.000392106498
0.0003399453361
0.0002960068004
0.0002603804086
0.0002317736942
0.0002087505224
0.0001900850386
0.0001748172408
0.0001622234138
0.0001517887614
0.0001432718968
0.0001371838933
0.0002191222882
0.0002458248327
0.0002491179741
0.0002400427749
0.0002256636017
0.0002098812736
0.0001946221486
0.0001807109728
0.0001684036097
0.0001576851487
0.0001484301778
0.0001405001954
0.0001338698181
0.0001290575146
8.13230319e-05
0.0001035585811
0.0001185767203
0.0001271788744
0.0001309747282
0.0001315261916
0.0001300646408
0.0001274654976
0.0001243119895
0.0001209742256
0.0001176785311
0.0001145674243
0.0001117782186
0.0001096614597
3.311439136e-05
4.378572349e-05
5.381480915e-05
6.247822955e-05
6.955158233e-05
7.510291959e-05
7.933469908e-05
8.24875834e-05
8.47909642e-05
8.644243196e-05
8.760280494e-05
8.839843156e-05
8.892425201e-05
8.923338362e-05
1.911900487e-05
2.441982786e-05
3.044397896e-05
3.674500518e-05
4.296074063e-05
4.883852631e-05
5.422674146e-05
5.905330188e-05
6.330235862e-05
6.699409078e-05
7.016827945e-05
7.286744667e-05
7.510110336e-05
7.670614074e-05
1.650001273e-05
2.16993587e-05
2.799215925e-05
3.479370368e-05
4.162338093e-05
4.814203947e-05
5.414017135e-05
5.951031457e-05
6.421818566e-05
6.827799852e-05
7.173314066e-05
7.464139641e-05
7.706074055e-05
7.902017217e-05
8.040380794e-05
2.995684869e-05
4.351493517e-05
5.622259833e-05
6.686905511e-05
7.522247226e-05
8.149328617e-05
8.603884307e-05
8.922606699e-05
9.137764449e-05
9.27575531e-05
9.357330725e-05
9.398459842e-05
9.411440005e-05
9.406424085e-05
9.394432006e-05
9.44958685e-05
0.00013381877
0.000155435785
0.0001642792492
0.0001653483979
0.0001621422439
0.0001568280033
0.0001506699288
0.0001443746841
0.0001383189103
0.0001326886599
0.0001275646989
0.0001229834618
0.0001190231806
0.00011608316
0.0004406320485
0.000484927977
0.0004473115597
0.0003921035074
0.0003399431391
0.0002960051514
0.000260379092
0.0002317726446
0.0002087496384
0.000190084295
0.0001748166243
0.0001622228494
0.0001517882948
0.0001432714888
0.000137183506
0.001616465279
0.001032659681
0.0007114011792
0.0005242168647
0.000408660813
0.0003332278897
0.000281397573
0.0002441484187
0.0002163446322
0.0001949385012
0.0001780517353
0.0001645126555
0.0001537192192
0.0001461138466
0.0004849347595
0.0004473088005
0.0003920976759
0.0003399367149
0.0002959989859
0.0002603734503
0.0002317675321
0.0002087449885
0.0001900800695
0.0001748127417
0.0001622192966
0.0001517849706
0.0001432683469
0.0001371805144
0.0001338213548
0.00015543511
0.0001642761926
0.0001653439059
0.0001621369826
0.0001568224032
0.000150664228
0.0001443690314
0.0001383133721
0.0001326832827
0.0001275595047
0.0001229784179
0.0001190182831
0.00011607834
4.35160852e-05
5.622278795e-05
6.686813937e-05
7.522055123e-05
8.149051229e-05
8.603538357e-05
8.922207564e-05
9.137326219e-05
9.275287838e-05
9.356841692e-05
9.397956552e-05
9.4109248e-05
9.405901467e-05
9.393899496e-05
2.169994727e-05
2.799247979e-05
3.479354942e-05
4.162263595e-05
4.814064038e-05
5.413811071e-05
5.950761693e-05
6.42149156e-05
6.827420622e-05
7.172890437e-05
7.463676501e-05
7.705577433e-05
7.901491406e-05
8.039822655e-05
1.498388415e-05
1.911851772e-05
2.441941685e-05
3.044377837e-05
3.674511599e-05
4.29612351e-05
4.883943202e-05
5.422807425e-05
5.905503619e-05
6.330444934e-05
6.699652076e-05
7.017101234e-05
7.28704415e-05
7.510434705e-05
7.670962938e-05
2.317509605e-05
3.311339697e-05
4.378501228e-05
5.381455797e-05
6.247848567e-05
6.955235097e-05
7.510413717e-05
7.933630086e-05
8.24895018e-05
8.479312152e-05
8.644478953e-05
8.760532372e-05
8.840106503e-05
8.892698541e-05
8.923620982e-05
5.371232702e-05
8.132050544e-05
0.0001035568662
0.000118575896
0.0001271788207
0.0001309752488
0.0001315271268
0.0001300658621
0.0001274669166
0.0001243135284
0.0001209758288
0.0001176801771
0.0001145690703
0.0001117798603
0.0001096631349
0.0001567022236
0.0002191164824
0.0002458201324
0.0002491142065
0.0002400397608
0.0002256611212
0.0002098792063
0.000194620403
0.0001807095149
0.0001684023546
0.0001576840357
0.0001484292003
0.0001404993285
0.0001338690565
0.0001290567994
0.0004406297428
0.0004849251876
0.0004473027761
0.000392093698
0.0003399339238
0.0002959969509
0.0002603718826
0.0002317662843
0.0002087440043
0.000190079272
0.0001748120561
0.0001622187154
0.0001517844587
0.0001432679117
0.0001371801119
0.0001567042589
0.000219116113
0.0002458174711
0.0002491101647
0.0002400350536
0.000225656294
0.0002098744787
0.0001946159184
0.0001807052813
0.0001683984312
0.0001576803653
0.0001484257473
0.0001404961067
0.0001338659887
0.0001290538664
8.132493342e-05
0.0001035578696
0.0001185744756
0.0001271757768
0.0001309711812
0.0001315224542
0.0001300608807
0.0001274617955
0.0001243084101
0.0001209707721
0.0001176752122
0.0001145642181
0.0001117751088
0.000109658421
3.311511048e-05
4.378584899e-05
5.381433909e-05
6.247724252e-05
6.955019534e-05
7.510122287e-05
7.93327886e-05
8.248551216e-05
8.478878625e-05
8.644017196e-05
8.760051109e-05
8.839610631e-05
8.892190907e-05
8.923099897e-05
1.911922063e-05
2.441990742e-05
3.04438418e-05
3.674461194e-05
4.29600835e-05
4.88376155e-05
5.422561481e-05
5.905198339e-05
6.330086731e-05
6.69924588e-05
7.016652703e-05
7.286559506e-05
7.509917159e-05
7.670413261e-05
1.292939065e-05
1.544514672e-05
1.890479027e-05
2.314161598e-05
2.790694707e-05
3.294052948e-05
3.801481322e-05
4.29542855e-05
4.763780185e-05
5.199170561e-05
5.597909421e-05
5.958750974e-05
6.281080247e-05
6.560078872e-05
6.767541443e-05
1.656314796e-05
2.18952801e-05
2.842122232e-05
3.543786306e-05
4.235262715e-05
4.877364149e-05
5.449861212e-05
5.946518721e-05
6.369821734e-05
6.726808401e-05
7.026257644e-05
7.276932001e-05
7.486245831e-05
7.65769018e-05
7.780371009e-05
2.752696361e-05
4.053442221e-05
5.399212889e-05
6.601121949e-05
7.572818789e-05
8.301637529e-05
8.814390896e-05
9.152729055e-05
9.359133532e-05
9.470544517e-05
9.516423747e-05
9.519069649e-05
9.495003027e-05
9.457351801e-05
9.421323017e-05
5.37124088e-05
8.132000069e-05
0.0001035555878
0.0001185739527
0.0001271763952
0.0001309725159
0.0001315242311
0.0001300629109
0.0001274639615
0.0001243106197
0.0001209729982
0.000117677423
0.0001145664062
0.0001117772805
0.0001096605726
9.449573214e-05
0.000133816247
0.000155430831
0.0001642727129
0.000165341085
0.0001621346797
0.0001568204978
0.0001506626189
0.0001443676691
0.0001383121864
0.0001326822347
0.0001275585704
0.0001229775938
0.0001190175481
0.0001160776647
5.371214774e-05
8.131926672e-05
0.000103554194
0.0001185719577
0.0001271739554
0.0001309698
0.0001315213942
0.0001300600056
0.0001274610859
0.0001243078
0.0001209702421
0.0001176747324
0.0001145638076
0.0001117747539
0.0001096580794
2.752805092e-05
4.05352478e-05
5.399217826e-05
6.601035236e-05
7.572646011e-05
8.301394983e-05
8.81409602e-05
9.152394112e-05
9.358772341e-05
9.470166639e-05
9.516034571e-05
9.518674146e-05
9.494604786e-05
9.456952862e-05
9.420919945e-05
2.1896379e-05
2.842179193e-05
3.543781636e-05
4.235191996e-05
4.877229027e-05
5.44966642e-05
5.94627078e-05
6.369527904e-05
6.726475709e-05
7.025891581e-05
7.27653854e-05
7.485830152e-05
7.65725626e-05
7.779919435e-05
1.544570907e-05
1.890522415e-05
2.314177087e-05
2.790671093e-05
3.293981758e-05
3.801357317e-05
4.295250506e-05
4.763549203e-05
5.19888871e-05
5.59758075e-05
5.958379005e-05
6.280669255e-05
6.559631577e-05
6.767057291e-05
1.154152836e-05
1.290224926e-05
1.489516516e-05
1.752213839e-05
2.071256174e-05
2.43494016e-05
2.82962141e-05
3.241816776e-05
3.65952183e-05
4.072830527e-05
4.47402181e-05
4.857133455e-05
5.216424987e-05
5.540619157e-05
5.788979312e-05
1.29580907e-05
1.548344915e-05
1.891117512e-05
2.304914174e-05
2.764125029e-05
3.243806534e-05
3.723486388e-05
4.188319991e-05
4.628709814e-05
5.039249109e-05
5.417529178e-05
5.762917294e-05
6.074826234e-05
6.347918299e-05
6.552898585e-05
1.65631707e-05
2.189525213e-05
2.842109089e-05
3.543758542e-05
4.235217544e-05
4.877301806e-05
5.449782121e-05
5.946425509e-05
6.369714945e-05
6.7266902e-05
7.026129881e-05
7.276796378e-05
7.486104075e-05
7.657542924e-05
7.78022023e-05
2.31751503e-05
3.311317373e-05
4.378432697e-05
5.381332304e-05
6.247671764e-05
6.955009361e-05
7.510148124e-05
7.933332823e-05
8.248627985e-05
8.478972626e-05
8.644125368e-05
8.760170412e-05
8.839738388e-05
8.892326099e-05
8.923243501e-05
2.995680607e-05
4.351409975e-05
5.622072261e-05
6.686613051e-05
7.521866599e-05
8.148878171e-05
8.603380049e-05
8.922064736e-05
9.137195862e-05
9.275167044e-05
9.356731544e-05
9.397854979e-05
9.410830335e-05
9.40581405e-05
9.393818412e-05
2.317500495e-05
3.311286053e-05
4.378377289e-05
5.381249865e-05
6.247563854e-05
6.954878873e-05
7.509998811e-05
7.933169127e-05
8.248452578e-05
8.478789354e-05
8.643937059e-05
8.759978118e-05
8.839544225e-05
8.892129979e-05
8.923042792e-05
1.656323435e-05
2.189526109e-05
2.842087446e-05
3.543702275e-05
4.235122458e-05
4.877166647e-05
5.449610443e-05
5.946220216e-05
6.369481506e-05
6.726433264e-05
7.025853482e-05
7.276504097e-05
7.485799338e-05
7.657226346e-05
7.779891561e-05
1.295832102e-05
1.548369873e-05
1.891130121e-05
2.304903341e-05
2.764081734e-05
3.243726181e-05
3.723366321e-05
4.188160271e-05
4.628510401e-05
5.039013599e-05
5.417260028e-05
5.762617672e-05
6.074498733e-05
6.347565551e-05
6.552524253e-05
1.290258413e-05
1.489541097e-05
1.752223132e-05
2.071242659e-05
2.43489651e-05
2.829541867e-05
3.241697816e-05
3.659360189e-05
4.072625137e-05
4.473773677e-05
4.856843995e-05
5.216096211e-05
5.540251404e-05
5.788573878e-05
1.09145822e-05
1.173819072e-05
1.300418049e-05
1.477305177e-05
1.705768121e-05
1.98254437e-05
2.300843792e-05
2.651689384e-05
3.025203438e-05
3.411627802e-05
3.801963609e-05
4.188054106e-05
4.561317592e-05
4.906583307e-05
5.175649941e-05
1.154154122e-05
1.290225932e-05
1.489516023e-05
1.752210622e-05
2.071248791e-05
2.434927392e-05
2.829601635e-05
3.241789594e-05
3.659485825e-05
4.072785426e-05
4.473968658e-05
4.857072249e-05
5.216355981e-05
5.540540398e-05
5.788888195e-05
1.292941475e-05
1.544513915e-05
1.890470712e-05
2.314140774e-05
2.790656798e-05
3.293994766e-05
3.80140103e-05
4.295324891e-05
4.763654299e-05
5.199021537e-05
5.597740747e-05
5.958563704e-05
6.280876011e-05
6.559858238e-05
6.767301307e-05
1.498390639e-05
1.911841973e-05
2.441907675e-05
3.044309478e-05
3.674401967e-05
4.295968976e-05
4.883743519e-05
5.422563871e-05
5.905220463e-05
6.330126706e-05
6.699302272e-05
7.016724227e-05
7.286642971e-05
7.51001363e-05
7.670519071e-05
1.649999819e-05
2.169907122e-05
2.799141155e-05
3.479236048e-05
4.162137868e-05
4.813937091e-05
5.41368543e-05
5.950638725e-05
6.421372829e-05
6.827308395e-05
7.17278244e-05
7.463574571e-05
7.705480231e-05
7.901399184e-05
8.039734483e-05
1.498383031e-05
1.911826817e-05
2.441881251e-05
3.044268382e-05
3.674344982e-05
4.295894639e-05
4.88365223e-05
5.422456641e-05
5.905099492e-05
6.329993481e-05
6.699158155e-05
7.016571699e-05
7.286483809e-05
7.5098465e-05
7.670346977e-05
1.292937904e-05
1.544505675e-05
1.890451927e-05
2.31410449e-05
2.790597853e-05
3.293909977e-05
3.801288206e-05
4.295184129e-05
4.763486256e-05
5.198828871e-05
5.597524624e-05
5.958327172e-05
6.280621393e-05
6.55958654e-05
6.767014895e-05
1.154156403e-05
1.290228642e-05
1.489513859e-05
1.752196495e-05
2.071216444e-05
2.434870924e-05
2.829517074e-05
3.241673554e-05
3.659336241e-05
4.072602006e-05
4.473752446e-05
4.856823529e-05
5.21607707e-05
5.540233749e-05
5.788557429e-05
1.09146513e-05
1.173828456e-05
1.300425541e-05
1.477305576e-05
1.705754635e-05
1.982510861e-05
2.300784083e-05
2.651597884e-05
3.025076216e-05
3.411461548e-05
3.801757543e-05
4.187806947e-05
4.561030349e-05
4.906255961e-05
5.175283706e-05
)
;

boundaryField
{
    top
    {
        type            zeroGradient;
    }
    bottom
    {
        type            zeroGradient;
    }
    side-walls
    {
        type            zeroGradient;
    }
    inlet
    {
        type            zeroGradient;
    }
    outlet
    {
        type            zeroGradient;
    }
    procBoundary1to0
    {
        type            processor;
        value           nonuniform List<scalar> 
97
(
1.09146513e-05
1.09146513e-05
1.154154929e-05
1.292930248e-05
1.498358565e-05
1.64995101e-05
1.49834994e-05
1.292917263e-05
1.15414173e-05
1.091451998e-05
1.072687747e-05
1.295833385e-05
1.295833385e-05
1.295833385e-05
1.656313777e-05
2.317440397e-05
2.995504332e-05
2.317400871e-05
1.656262023e-05
1.295785882e-05
1.154142224e-05
1.136352899e-05
1.297818332e-05
2.752809348e-05
2.752809348e-05
2.752809348e-05
5.371072267e-05
9.448639376e-05
5.370823467e-05
2.752545827e-05
1.656262683e-05
1.292918288e-05
1.228314254e-05
1.578623593e-05
2.785038675e-05
0.0001567044255
0.0001567044255
0.0001567044255
0.0004405695696
0.0001566872191
5.370840449e-05
2.317403893e-05
1.498352835e-05
1.292917609e-05
1.838932814e-05
4.098324199e-05
0.0001287540369
0.002738464261
0.002738464261
0.002738464261
0.0004405729741
0.0004405729741
9.448717233e-05
2.995522265e-05
1.64995782e-05
1.22831609e-05
1.578628569e-05
2.78509577e-05
6.232228412e-05
0.0001287565255
6.232045627e-05
5.371430625e-05
5.371430625e-05
5.371430625e-05
2.317500028e-05
1.498373178e-05
1.136354247e-05
1.2978256e-05
1.764384448e-05
2.785104013e-05
4.098361362e-05
2.785061443e-05
1.764367013e-05
1.65636594e-05
1.65636594e-05
1.65636594e-05
1.292943902e-05
1.072688977e-05
1.137311873e-05
1.297827097e-05
1.578633092e-05
1.838937738e-05
1.578621676e-05
1.297820558e-05
1.137309748e-05
1.154166692e-05
1.154166692e-05
1.154166692e-05
1.043543644e-05
1.072689529e-05
1.136355557e-05
1.228317862e-05
1.292918676e-05
1.22831335e-05
1.136351879e-05
1.072688346e-05
1.043543558e-05
)
;
    }
}


// ************************************************************************* //
