/*--------------------------------*- C++ -*----------------------------------*\
| =========                 |                                                 |
| \\      /  F ield         | OpenFOAM: The Open Source CFD Toolbox           |
|  \\    /   O peration     | Version:  4.x                                   |
|   \\  /    A nd           | Web:      www.OpenFOAM.org                      |
|    \\/     M anipulation  |                                                 |
\*---------------------------------------------------------------------------*/
FoamFile
{
    version     2.0;
    format      ascii;
    class       surfaceScalarField;
    location    "3000";
    object      phi;
}
// * * * * * * * * * * * * * * * * * * * * * * * * * * * * * * * * * * * * * //

dimensions      [1 0 -1 0 0 0 0];

internalField   nonuniform List<scalar> 
3172
(
9.165861812e-06
-4.905674601e-11
-4.79734194e-11
9.165950068e-06
-4.274840614e-11
-4.322473661e-11
9.166012673e-06
-3.134235771e-11
-3.137065765e-11
9.166053253e-06
-2.030147798e-11
-2.114024002e-11
9.166077615e-06
-1.16421915e-11
-1.2857755e-11
9.16608386e-06
-4.535003874e-12
-6.081234542e-12
9.166081003e-06
5.932843584e-13
-4.900512325e-13
9.166074323e-06
5.805693809e-12
4.706870313e-12
9.166056217e-06
6.834600433e-12
5.238965657e-12
9.166038102e-06
7.754752178e-12
9.560429344e-12
9.166019271e-06
9.7537397e-12
1.095567824e-11
9.16599971e-06
1.031715534e-11
1.253533772e-11
9.165977333e-06
1.020496192e-11
1.318921591e-11
1.138281283e-11
1.166774387e-11
9.165902941e-06
-8.889990057e-11
-6.403616004e-11
9.165991119e-06
-7.678941309e-11
-5.616612779e-11
9.166046329e-06
-5.198273992e-11
-3.698634652e-11
9.166075771e-06
-2.991616885e-11
-1.987780022e-11
9.166087746e-06
-1.464467017e-11
-6.832654141e-12
9.166086297e-06
-3.048999195e-12
6.161752822e-13
9.166075272e-06
4.247364302e-12
6.069665799e-12
9.166058265e-06
9.411876542e-12
9.126290482e-12
9.166040085e-06
1.213431254e-11
1.108528559e-11
9.166020735e-06
1.546894557e-11
1.334580852e-11
9.166002469e-06
1.720130541e-11
1.386713534e-11
9.165980654e-06
1.593893966e-11
1.431071743e-11
9.165964693e-06
1.914173197e-11
1.556420356e-11
1.545088694e-11
1.35123923e-11
9.165947183e-06
-8.61152019e-11
-1.156757872e-10
9.166032261e-06
-6.668820975e-11
-8.892369068e-11
9.166072442e-06
-3.861329153e-11
-4.814433307e-11
9.166077805e-06
-1.856434306e-11
-1.947240451e-11
9.166067036e-06
-5.181366265e-12
5.532546343e-13
9.166047643e-06
4.197035807e-12
1.168649161e-11
9.166026005e-06
1.066196273e-11
1.942730459e-11
9.166001975e-06
1.332658595e-11
2.103681472e-11
9.165980556e-06
1.513108987e-11
2.146122165e-11
9.165960344e-06
1.530957865e-11
2.017158669e-11
9.165940533e-06
1.483435981e-11
1.757208039e-11
9.165926945e-06
1.618612941e-11
1.69209503e-11
9.16591127e-06
1.750900551e-11
1.804022789e-11
1.646995491e-11
1.535451351e-11
9.165964123e-06
-5.999788989e-11
-1.113663037e-10
9.166029113e-06
-3.624504728e-11
-9.28807563e-11
9.166045294e-06
-1.78363117e-11
-3.82149705e-11
9.166033408e-06
-5.150217225e-12
-4.083051951e-13
9.166007718e-06
1.619674247e-12
1.899807524e-11
9.165980552e-06
5.120187368e-12
2.936845385e-11
9.16595083e-06
4.534445536e-12
3.276322658e-11
9.165924672e-06
5.891061111e-12
3.188182795e-11
9.165901824e-06
5.825916671e-12
3.17881707e-11
9.165885955e-06
8.378242608e-12
2.807426326e-11
9.165872107e-06
8.041612059e-12
2.479782065e-11
9.165860161e-06
6.212342946e-12
2.197964079e-11
9.16585048e-06
6.085798249e-12
2.170270401e-11
4.707422367e-12
1.719300185e-11
9.166051906e-06
6.038468899e-11
-1.939841462e-10
9.166082872e-06
3.778790791e-11
-1.028854158e-10
9.166069648e-06
1.837965198e-11
-2.194451398e-11
9.166036681e-06
5.613269736e-12
2.16637118e-11
9.165996773e-06
8.718803063e-13
3.593806126e-11
9.165961491e-06
-1.634658643e-12
4.076214375e-11
9.165933478e-06
-4.954870784e-12
4.11322651e-11
9.165906223e-06
-5.553181935e-12
3.801584059e-11
9.165887304e-06
-4.404986763e-12
3.482613246e-11
9.165869902e-06
-5.860700955e-12
2.775703484e-11
9.16585534e-06
-5.816217348e-12
2.490553301e-11
9.165848569e-06
-4.615996899e-12
2.333613387e-11
9.165842424e-06
-4.803123241e-12
2.39526742e-11
-5.092854224e-12
1.834189057e-11
9.165962439e-06
8.551787518e-11
-1.10076348e-10
9.166026892e-06
6.61155561e-11
-9.396015213e-11
9.166043721e-06
3.865048799e-11
-3.838640851e-11
9.166034803e-06
1.908388979e-11
1.918273982e-12
9.166006254e-06
4.384074595e-12
1.948011311e-11
9.165974924e-06
-4.742777023e-12
2.83291241e-11
9.16594874e-06
-9.400685903e-12
3.458249645e-11
9.165924063e-06
-1.190790226e-11
3.360322366e-11
9.165900408e-06
-1.501695196e-11
3.152369001e-11
9.16588362e-06
-1.533294574e-11
2.710419579e-11
9.165870013e-06
-1.523790068e-11
2.391102716e-11
9.165856935e-06
-1.416662348e-11
2.126135197e-11
9.165848029e-06
-1.573067183e-11
2.140702841e-11
-1.370231626e-11
1.703264001e-11
9.165950385e-06
8.999266379e-11
-1.14877815e-10
9.166033754e-06
7.478195292e-11
-8.882337694e-11
9.166072013e-06
5.13040798e-11
-4.723869311e-11
9.166080575e-06
3.018547586e-11
-1.657806564e-11
9.166067941e-06
1.410928851e-11
1.627276298e-12
9.166048203e-06
3.107095157e-12
1.276669252e-11
9.166026503e-06
-4.222158679e-12
2.105980247e-11
9.166003527e-06
-9.071696941e-12
2.267934268e-11
9.165980808e-06
-1.480089857e-11
2.093130187e-11
9.165960932e-06
-1.732411304e-11
2.035907764e-11
9.165942e-06
-1.836716675e-11
1.919743629e-11
9.165926766e-06
-1.639710915e-11
1.642285493e-11
9.165912238e-06
-1.820514173e-11
1.77692703e-11
-1.545795235e-11
1.493939773e-11
9.165895224e-06
5.075397814e-11
-6.452969054e-11
9.165982738e-06
4.513021033e-11
-5.446993329e-11
9.16603751e-06
3.094417607e-11
-3.530637149e-11
9.16606863e-06
2.020703386e-11
-1.9564913e-11
9.166080487e-06
1.142587853e-11
-7.936039009e-12
9.166078723e-06
4.11803809e-12
1.015784032e-12
9.166067796e-06
-1.742282908e-12
9.411285493e-12
9.16605007e-06
-5.399638752e-12
1.126113441e-11
9.166033868e-06
-6.920753793e-12
1.304471137e-11
9.166015261e-06
-8.71744239e-12
1.461143349e-11
9.165995347e-06
-1.014112937e-11
1.400349073e-11
9.165975476e-06
-1.128271916e-11
1.082921468e-11
9.165955623e-06
-1.14239126e-11
1.350733349e-11
-1.030446964e-11
1.083478778e-11
9.165851369e-06
-4.926951621e-11
9.165937701e-06
-4.287061467e-11
9.166001305e-06
-2.977762551e-11
9.166041908e-06
-1.752320175e-11
9.166064759e-06
-9.124206383e-12
9.166071011e-06
-2.429357635e-12
9.166070401e-06
1.83433462e-12
9.166060384e-06
6.525176845e-12
9.166043059e-06
8.031919759e-12
9.166027878e-06
9.608221453e-12
9.166009906e-06
9.868025191e-12
9.165988506e-06
9.0439353e-12
9.165965728e-06
1.16120364e-11
1.010744939e-11
9.165780659e-06
-1.420108992e-10
9.165884217e-06
-6.494281418e-11
-8.844194101e-11
9.165971945e-06
-5.516238609e-11
-7.262007243e-11
9.166026794e-06
-3.645460924e-11
-5.058502164e-11
9.166057066e-06
-1.821066843e-11
-2.942413588e-11
9.166070551e-06
-5.536120028e-12
-1.264230294e-11
9.166069381e-06
1.700348846e-12
-2.264946064e-12
9.166056755e-06
7.113094871e-12
5.426706677e-12
9.166040687e-06
1.048657799e-11
1.093027595e-11
9.166022742e-06
1.355062336e-11
1.474926121e-11
9.166002337e-06
1.406159213e-11
1.502084644e-11
9.165985228e-06
1.439666907e-11
1.797839912e-11
9.165964475e-06
1.322709826e-11
1.722532792e-11
9.165944995e-06
1.335314914e-11
1.922510458e-11
1.296534595e-11
1.658132877e-11
9.16591456e-06
-1.12868698e-10
-1.118317624e-10
9.165993165e-06
-9.416816347e-11
-9.254178874e-11
9.166031423e-06
-5.71438266e-11
-5.651971439e-11
9.166042364e-06
-2.6712367e-11
-2.548449835e-11
9.166036538e-06
-6.164515017e-12
-4.532335834e-12
9.16602268e-06
7.753132795e-12
8.971226156e-12
9.166004071e-06
1.862736815e-11
1.821774495e-11
9.165985266e-06
2.193795582e-11
2.164993083e-11
9.165965632e-06
2.357412441e-11
2.263873201e-11
9.165947937e-06
2.41045365e-11
2.296045739e-11
9.165931444e-06
2.314623476e-11
2.287407519e-11
9.165913554e-06
2.102392027e-11
2.19838702e-11
9.165901986e-06
2.30740768e-11
2.468463131e-11
1.933104097e-11
1.957960786e-11
9.165986485e-06
-1.081996247e-10
-2.038602651e-10
9.166035683e-06
-8.130558937e-11
-1.481779466e-10
9.166036095e-06
-3.664976126e-11
-6.511620657e-11
9.166013053e-06
-6.42332737e-12
-1.045563566e-11
9.165980626e-06
1.053439746e-11
1.89353356e-11
9.165953675e-06
1.975430149e-11
3.470186534e-11
9.165924861e-06
2.292645901e-11
3.873397235e-11
9.165905866e-06
2.407937353e-11
3.967514871e-11
9.165889949e-06
2.58326212e-11
3.770475233e-11
9.16587685e-06
2.363466117e-11
3.341955709e-11
9.165867963e-06
2.203609748e-11
3.131622334e-11
9.165860961e-06
2.148341691e-11
2.994009218e-11
9.165855915e-06
2.1524747e-11
2.930511374e-11
1.836577396e-11
2.343543977e-11
9.166017382e-06
-5.803133549e-11
-1.395586952e-10
9.166013037e-06
-3.686040308e-11
-1.333949228e-10
9.165978484e-06
-1.148723227e-11
-2.625040601e-11
9.165934755e-06
4.192736184e-12
3.766899554e-11
9.165894145e-06
1.003760675e-11
6.212870065e-11
9.165866471e-06
1.21264174e-11
7.052497976e-11
9.165844674e-06
1.085252199e-11
6.633657342e-11
9.165833967e-06
1.136733866e-11
5.976678479e-11
9.165821371e-06
1.056651383e-11
5.107336844e-11
9.165817893e-06
9.199872002e-12
4.408769012e-11
9.16581763e-06
9.279203759e-12
3.891986084e-11
9.165817113e-06
8.249298561e-12
3.417603174e-11
9.165820152e-06
8.742701791e-12
3.409919377e-11
7.365439504e-12
2.625500066e-11
9.166104624e-06
5.932089034e-11
-1.937762388e-10
9.166004088e-06
3.692897605e-11
-7.360793829e-11
9.165917978e-06
1.155580596e-11
4.144284968e-11
9.165851265e-06
-2.364037536e-12
9.726327576e-11
9.165805217e-06
-7.925100802e-12
1.016169151e-10
9.165778818e-06
-1.07206113e-11
9.390017762e-11
9.16576221e-06
-1.031027707e-11
8.076001901e-11
9.165753628e-06
-9.933783567e-12
6.912976233e-11
9.165748359e-06
-8.48063807e-12
5.625770476e-11
9.165752077e-06
-7.632189777e-12
4.725346216e-11
9.165754702e-06
-7.826421842e-12
4.262978937e-11
9.165758286e-06
-7.719545139e-12
3.543426127e-11
9.165763663e-06
-7.811673355e-12
3.569314324e-11
-7.50327465e-12
2.845700582e-11
9.1659869e-06
1.058711938e-10
-1.416442649e-10
9.16598593e-06
8.042704203e-11
-1.336676919e-10
9.165952263e-06
3.686788347e-11
-2.669614902e-11
9.165905374e-06
5.877148075e-12
3.652553759e-11
9.165864276e-06
-1.028993338e-11
6.03350161e-11
9.165838517e-06
-1.85900677e-11
6.871367e-11
9.165817342e-06
-2.280542605e-11
6.608377239e-11
9.165806475e-06
-2.414578418e-11
5.962975913e-11
9.165797103e-06
-2.627893278e-11
5.104270343e-11
9.165794247e-06
-2.284778892e-11
4.439777732e-11
9.165794659e-06
-2.1735136e-11
3.935039742e-11
9.165794641e-06
-2.007301482e-11
3.386078663e-11
9.165797431e-06
-2.024800924e-11
3.540596734e-11
-1.694922924e-11
2.926702569e-11
9.165995567e-06
1.132426988e-10
-2.027804171e-10
9.166044402e-06
9.590701337e-11
-1.470822792e-10
9.166043813e-06
5.767383805e-11
-6.358031838e-11
9.166018804e-06
2.528274771e-11
-1.109449981e-11
9.165987533e-06
5.771818734e-12
1.8427888e-11
9.165958393e-06
-8.12843976e-12
3.431161065e-11
9.165932141e-06
-1.582590492e-11
3.986260813e-11
9.165911109e-06
-2.109936084e-11
3.973747221e-11
9.165896319e-06
-2.443241899e-11
3.806332894e-11
9.165883317e-06
-2.445580288e-11
3.400213677e-11
9.16587436e-06
-2.39914969e-11
3.198698146e-11
9.165869735e-06
-2.23274925e-11
2.853932568e-11
9.165861816e-06
-2.232041146e-11
2.893837347e-11
-1.94090229e-11
2.493688898e-11
9.16592093e-06
6.512249469e-11
-1.12503854e-10
9.165998092e-06
5.713570145e-11
-9.256456226e-11
9.166035038e-06
3.748160289e-11
-5.550463675e-11
9.166048989e-06
2.190091647e-11
-2.420185728e-11
9.166043524e-06
9.204265223e-12
-5.488659904e-12
9.166028894e-06
2.441679587e-13
9.944719761e-12
9.166009215e-06
-8.193322017e-12
1.71757858e-11
9.165989701e-06
-1.038363975e-11
2.252217085e-11
9.165972285e-06
-1.165764367e-11
2.467545217e-11
9.165954023e-06
-1.394266412e-11
2.300378166e-11
9.165936792e-06
-1.49201476e-11
2.329401532e-11
9.165924923e-06
-1.381240364e-11
2.130375369e-11
9.165908093e-06
-1.352680568e-11
2.274017181e-11
-1.16946105e-11
2.001184106e-11
9.165885488e-06
-8.897047538e-11
9.165970533e-06
-7.467929117e-11
9.166026634e-06
-5.108485443e-11
9.166056697e-06
-2.891487784e-11
9.166068558e-06
-1.414920003e-11
9.166064014e-06
-2.87135359e-12
9.166055303e-06
6.855259186e-12
9.166038232e-06
1.114002011e-11
9.16601997e-06
1.394549167e-11
9.166000711e-06
1.528852843e-11
9.165982623e-06
1.772361616e-11
9.165965285e-06
1.833169841e-11
9.165943227e-06
1.878381305e-11
1.548008785e-11
9.165828929e-06
-2.328951413e-10
-1.720606544e-10
9.165941421e-06
-1.139121684e-10
-8.716323459e-11
9.166023986e-06
-8.93003944e-11
-6.676049613e-11
9.166063775e-06
-4.63965355e-11
-3.788017653e-11
9.166071679e-06
-1.552453685e-11
-1.698122885e-11
9.166062828e-06
2.373518961e-12
-4.620668701e-12
9.166044171e-06
1.348687911e-11
4.968055768e-12
9.166021527e-06
1.953108969e-11
1.080419817e-11
9.165998598e-06
2.244550536e-11
1.403156192e-11
9.165975551e-06
2.246361785e-11
1.502102738e-11
9.165958702e-06
2.256604042e-11
1.714641721e-11
9.165939632e-06
2.007382779e-11
1.609320032e-11
9.165924007e-06
1.837806658e-11
1.547937463e-11
9.165908368e-06
1.9049141e-11
1.830740741e-11
1.684864531e-11
1.550880983e-11
9.165891845e-06
-3.203243754e-10
9.165977943e-06
-2.033279798e-10
-1.083053111e-10
9.166025634e-06
-1.488658687e-10
-8.130189711e-11
9.166024952e-06
-6.561937921e-11
-3.642924439e-11
9.166000477e-06
-1.226366059e-11
-6.890232931e-12
9.165968972e-06
1.834175664e-11
9.229339676e-12
9.165941446e-06
3.404653833e-11
2.048886936e-11
9.165915444e-06
3.919629587e-11
2.204455135e-11
9.165895959e-06
4.026598273e-11
2.353512202e-11
9.165879256e-06
3.857423391e-11
2.467273969e-11
9.165866954e-06
3.532683192e-11
2.321939006e-11
9.165859076e-06
3.1366559e-11
2.167336852e-11
9.165851613e-06
2.959998442e-11
1.943589312e-11
9.165843737e-06
2.863318756e-11
2.124348961e-11
2.406906686e-11
1.718952865e-11
9.166074749e-06
-2.057159737e-10
-2.061491793e-10
9.166025332e-06
-1.22750432e-10
-1.224469443e-10
9.165937482e-06
-2.260731029e-11
-2.1796538e-11
9.165861753e-06
2.859272344e-11
2.918280559e-11
9.1658046e-06
4.592155108e-11
4.477608191e-11
9.165772933e-06
5.16897854e-11
4.951602285e-11
9.165757043e-06
4.982010112e-11
4.779643306e-11
9.165753172e-06
4.378438646e-11
4.338728168e-11
9.165755474e-06
3.989806616e-11
3.79837382e-11
9.165760844e-06
3.473690046e-11
3.293229157e-11
9.165767636e-06
2.989886351e-11
2.945899791e-11
9.165774043e-06
2.630175178e-11
2.5114058e-11
9.165784784e-06
2.687005012e-11
2.628426149e-11
2.172486237e-11
2.12035703e-11
9.165972377e-06
-7.690964711e-11
2.784709757e-11
9.1658034e-06
-4.084775235e-11
-4.607460489e-11
9.165680858e-06
7.988407309e-12
7.012436867e-11
9.165609693e-06
2.849198821e-11
1.117012717e-10
9.165582649e-06
2.974376327e-11
1.062129916e-10
9.165583469e-06
2.713417006e-11
9.20098321e-11
9.165599829e-06
2.329206051e-11
7.621989773e-11
9.165625438e-06
2.060737372e-11
6.209427438e-11
9.165649642e-06
1.697325544e-11
4.998649921e-11
9.165673366e-06
1.411744404e-11
4.001855297e-11
9.165698662e-06
1.503075619e-11
3.51092051e-11
9.165718131e-06
1.141383594e-11
2.917372599e-11
9.165741731e-06
1.162872879e-11
3.209109746e-11
1.014980875e-11
2.441492504e-11
9.166112918e-06
7.618329061e-11
3.468836471e-10
9.16569685e-06
4.00862498e-11
2.605552942e-10
9.165517492e-06
-8.750546803e-12
2.433331883e-10
9.165453543e-06
-2.777071171e-11
2.176337757e-10
9.165452611e-06
-2.998284679e-11
1.605323397e-10
9.1654805e-06
-2.769791609e-11
1.193383827e-10
9.16551942e-06
-2.156803626e-11
8.95956556e-11
9.165557732e-06
-1.942690717e-11
6.792249474e-11
9.165595187e-06
-1.52037699e-11
5.329645763e-11
9.16562972e-06
-1.245775089e-11
4.282309888e-11
9.165657189e-06
-1.2488693e-11
3.654954308e-11
9.165685109e-06
-1.131773459e-11
3.000184439e-11
9.165713511e-06
-9.390531312e-12
3.260578096e-11
-7.595073563e-12
2.319100632e-11
9.165976147e-06
2.061538108e-10
2.751339556e-11
9.165806147e-06
1.236789378e-10
-4.607818496e-11
9.165684933e-06
2.387124372e-11
7.002342329e-11
9.165610963e-06
-2.726622422e-11
1.103072821e-10
9.165584766e-06
-4.423526992e-11
1.045164894e-10
9.165588571e-06
-4.911379433e-11
9.197532009e-11
9.165602404e-06
-4.823503089e-11
7.658509782e-11
9.165626377e-06
-4.273043754e-11
6.258671679e-11
9.165651393e-06
-3.90528595e-11
4.977727347e-11
9.165675284e-06
-3.375185643e-11
4.097400287e-11
9.165699331e-06
-3.027797649e-11
3.613834086e-11
9.16572094e-06
-2.5390364e-11
3.106916368e-11
9.165742903e-06
-2.748220682e-11
3.05688071e-11
-2.198020832e-11
2.401085806e-11
9.166124224e-06
2.04779052e-10
-2.058706828e-10
9.166072557e-06
1.497055399e-10
-1.232882825e-10
9.165985399e-06
6.689526254e-11
-2.221514599e-11
9.165908148e-06
1.2581646e-11
2.770585307e-11
9.165854319e-06
-1.854607244e-11
4.533359971e-11
9.165822494e-06
-3.3100664e-11
4.991539039e-11
9.165805522e-06
-3.944120829e-11
4.851098284e-11
9.165799614e-06
-3.97223293e-11
4.300693681e-11
9.16580059e-06
-3.742067606e-11
3.836550856e-11
9.165803364e-06
-3.527017771e-11
3.287141847e-11
9.165811647e-06
-3.248046677e-11
2.971568992e-11
9.165819855e-06
-2.819427282e-11
2.675372119e-11
9.165828459e-06
-2.933557187e-11
2.59881517e-11
-2.377521829e-11
2.064361005e-11
9.16599685e-06
1.157289052e-10
-1.062121872e-10
9.166042978e-06
8.926911827e-11
-8.133149611e-11
9.166042694e-06
4.748848465e-11
-3.820574988e-11
9.166017097e-06
1.806881722e-11
-6.831630985e-12
9.16598674e-06
6.081473481e-13
1.014927671e-11
9.165955423e-06
-1.228722854e-11
1.882630141e-11
9.165929427e-06
-1.916160203e-11
2.175067613e-11
9.165908291e-06
-2.075782539e-11
2.350921097e-11
9.165889959e-06
-2.170388297e-11
2.292927214e-11
9.165878372e-06
-2.083461e-11
2.162501757e-11
9.165871247e-06
-1.91660562e-11
2.229149363e-11
9.165863494e-06
-1.614832665e-11
2.039287889e-11
9.165856003e-06
-1.679233368e-11
2.096452701e-11
-1.562530017e-11
1.679249413e-11
9.165958005e-06
-8.669876171e-11
9.166041833e-06
-6.785563175e-11
9.166080292e-06
-3.986326057e-11
9.16608623e-06
-1.914499134e-11
9.166076133e-06
-5.67902223e-12
9.166055933e-06
3.766980138e-12
9.166033135e-06
8.719745979e-12
9.166007679e-06
1.192869165e-11
9.165987481e-06
1.403027041e-11
9.165967233e-06
1.437311329e-11
9.165950879e-06
1.43282199e-11
9.165934371e-06
1.491870824e-11
9.165916633e-06
1.686902006e-11
1.456145034e-11
9.165907348e-06
-3.587281639e-10
-1.491270696e-10
9.165989984e-06
-1.101920221e-10
-5.743121821e-11
9.166054267e-06
-9.275796997e-11
-3.45650947e-11
9.166068921e-06
-3.72744688e-11
-1.673479446e-11
9.166057185e-06
4.741942281e-13
-4.5955342e-12
9.166033987e-06
2.118651443e-11
1.487038964e-12
9.166003585e-06
3.107550127e-11
3.290044369e-12
9.16597391e-06
3.209198521e-11
3.940798712e-12
9.165947878e-06
3.185917976e-11
4.016042875e-12
9.165926189e-06
3.012539759e-11
5.783040361e-12
9.165909016e-06
2.765390897e-11
6.354658461e-12
9.165895644e-06
2.495360074e-11
7.21477565e-12
9.16588611e-06
2.132576133e-11
6.824149248e-12
9.16587246e-06
2.16257038e-11
7.206045852e-12
1.668341016e-11
6.380748021e-12
9.165993686e-06
-8.488662315e-10
-3.030149937e-10
9.165975502e-06
-1.388708913e-10
-5.749085166e-11
9.165970243e-06
-1.335255683e-10
-3.505453224e-11
9.165935849e-06
-2.675076536e-11
-1.038666044e-11
9.165890681e-06
3.726868591e-11
4.013759233e-12
9.165852974e-06
6.107753112e-11
9.27624495e-12
9.16582017e-06
6.627227866e-11
1.017884201e-11
9.165801993e-06
6.581142855e-11
1.13833997e-11
9.165790265e-06
6.05448084e-11
1.054231428e-11
9.165782345e-06
5.212912229e-11
8.885183282e-12
9.165777931e-06
4.463205511e-11
8.744108371e-12
9.165777252e-06
3.890959472e-11
8.531760606e-12
9.16578031e-06
3.439253919e-11
8.850436795e-12
9.165779572e-06
3.473453172e-11
8.942087695e-12
2.809693256e-11
6.907803022e-12
9.166263809e-06
-8.732973751e-10
9.165966374e-06
2.77828443e-11
-7.675914879e-11
9.165797525e-06
-4.677846987e-11
-4.120404566e-11
9.165675529e-06
6.912266524e-11
8.670380989e-12
9.165604214e-06
1.111477774e-10
2.769893539e-11
9.1655768e-06
1.063629516e-10
3.07289107e-11
9.165580569e-06
9.392346222e-11
2.827560564e-11
9.165596279e-06
7.769899674e-11
2.327474915e-11
9.165620246e-06
6.240740038e-11
1.985286902e-11
9.165646499e-06
5.085958971e-11
1.601003689e-11
9.165671607e-06
4.21300254e-11
1.415246128e-11
9.165695299e-06
3.61107364e-11
1.209230427e-11
9.165717294e-06
2.979526641e-11
1.010063086e-11
9.165739643e-06
3.10958282e-11
1.006697792e-11
2.457793808e-11
7.74445703e-12
9.165102684e-06
4.73149749e-10
4.738896504e-10
9.164986231e-06
1.355614243e-11
1.389255551e-11
9.165000722e-06
6.275203904e-11
6.300170501e-11
9.165072522e-06
7.67628389e-11
7.704287476e-11
9.165167668e-06
5.930867162e-11
5.857374286e-11
9.165264268e-06
4.590403759e-11
4.489627412e-11
9.165351611e-06
3.467952708e-11
3.278102233e-11
9.165429237e-06
2.597431541e-11
2.646259133e-11
9.165492238e-06
2.078634138e-11
2.028717566e-11
9.165544853e-06
1.706294507e-11
1.72995501e-11
9.165591128e-06
1.599984578e-11
1.379503836e-11
9.165631196e-06
1.234798697e-11
1.125535216e-11
9.165668923e-06
1.244049396e-11
1.195264451e-11
1.032873566e-11
9.482607124e-12
9.164504014e-06
-4.747172854e-10
3.181999074e-09
9.164465091e-06
-1.356888629e-11
3.339314678e-10
9.164687317e-06
-6.305401476e-11
1.524973356e-10
9.164925992e-06
-7.721696816e-11
1.411640785e-10
9.165125064e-06
-6.004003924e-11
8.494984759e-11
9.165283114e-06
-4.586958821e-11
5.462108776e-11
9.165408489e-06
-3.327950851e-11
3.761911658e-11
9.165505655e-06
-2.548193063e-11
2.770516052e-11
9.165584762e-06
-2.009713691e-11
2.177075556e-11
9.165648491e-06
-1.553083101e-11
1.692444792e-11
9.165697656e-06
-1.404397619e-11
1.230569457e-11
9.165744306e-06
-1.129246005e-11
1.129633187e-11
9.165787857e-06
-1.139454507e-11
1.146701632e-11
-8.979265965e-12
4.626816287e-12
9.165149729e-06
-2.734147645e-11
4.753090205e-10
9.165029872e-06
4.673596445e-11
1.601499079e-11
9.165045935e-06
-6.787122531e-11
6.436842494e-11
9.165117239e-06
-1.103725571e-10
7.771361829e-11
9.165214247e-06
-1.033521362e-10
6.014352095e-11
9.16531153e-06
-9.205271965e-11
4.498042947e-11
9.165398423e-06
-7.59676542e-11
3.442143332e-11
9.165474394e-06
-6.278428424e-11
2.535791143e-11
9.165539783e-06
-5.051446704e-11
2.087540616e-11
9.165590855e-06
-4.218832507e-11
1.62672032e-11
9.165636417e-06
-3.53326922e-11
1.30720127e-11
9.165677077e-06
-2.968360256e-11
1.111399633e-11
9.165716977e-06
-3.153076623e-11
1.143100111e-11
-2.456860307e-11
9.426166391e-12
9.165955601e-06
1.409269086e-10
-7.442467584e-11
9.165786057e-06
1.340314892e-10
-3.917570106e-11
9.165660544e-06
2.662008415e-11
8.015736168e-12
9.1655901e-06
-3.556763626e-11
2.861304839e-11
9.165561001e-06
-6.072681102e-11
2.799657395e-11
9.165565299e-06
-6.805653614e-11
2.720009789e-11
9.165578138e-06
-6.768944459e-11
2.273536859e-11
9.165603726e-06
-5.990182519e-11
1.960837922e-11
9.165629273e-06
-5.163089108e-11
1.685467861e-11
9.165653121e-06
-4.620571471e-11
1.41645881e-11
9.165674912e-06
-4.069989624e-11
1.255401235e-11
9.165698329e-06
-3.424111629e-11
1.076678062e-11
9.165719222e-06
-3.446297736e-11
1.123955688e-11
-2.788140801e-11
8.755090812e-12
9.166038933e-06
1.094166403e-10
-5.779339263e-11
9.166035782e-06
9.343078121e-11
-3.633822914e-11
9.166002047e-06
3.751162216e-11
-1.239887615e-11
9.165954387e-06
-3.307104245e-13
2.238091128e-12
9.165917048e-06
-1.906854373e-11
8.944192607e-12
9.165888192e-06
-2.853369654e-11
1.198684448e-11
9.165868913e-06
-3.323379038e-11
1.090831389e-11
9.165856132e-06
-3.248195804e-11
1.171965744e-11
9.165848705e-06
-2.969192228e-11
1.050178899e-11
9.16584758e-06
-2.696485501e-11
1.071468893e-11
9.165846891e-06
-2.560826493e-11
9.81258928e-12
9.165848692e-06
-2.144065392e-11
9.015957223e-12
9.165850653e-06
-2.037269282e-11
9.032973498e-12
-1.722396915e-11
8.09200056e-12
9.165960503e-06
-5.861374329e-11
9.166023037e-06
-3.713678719e-11
9.166039169e-06
-1.926021621e-11
9.166026325e-06
-7.180030822e-12
9.166001024e-06
-1.296227449e-12
9.165970365e-06
2.100451893e-12
9.165944217e-06
4.290973754e-12
9.165917353e-06
5.479843764e-12
9.165895761e-06
5.839905428e-12
9.165876601e-06
7.650742817e-12
9.165863923e-06
7.990128627e-12
9.165852883e-06
6.933401372e-12
9.165839186e-06
6.058785316e-12
6.268743927e-12
9.165977195e-06
-8.313061765e-10
1.491536895e-10
9.166051576e-06
-1.944386934e-10
5.742542094e-11
9.166083632e-06
-1.026510649e-10
3.552383481e-11
9.166066207e-06
-2.045138671e-11
1.705645659e-11
9.166033676e-06
2.385870474e-11
5.150385429e-12
9.165996386e-06
3.868799339e-11
1.35633346e-13
9.165961339e-06
4.378453731e-11
-3.090739354e-12
9.165929809e-06
4.301436643e-11
-5.361037976e-12
9.165905107e-06
3.927953197e-11
-4.657631329e-12
9.165884856e-06
3.390224527e-11
-5.575613645e-12
9.165867343e-06
2.906222473e-11
-6.661142227e-12
9.165855243e-06
2.658341763e-11
-7.278863061e-12
9.165846669e-06
2.294916644e-11
-6.982965595e-12
9.165836737e-06
2.329841857e-11
-8.130650345e-12
1.884046984e-11
-5.973198895e-12
9.166243745e-06
-2.349206994e-09
3.032750333e-10
9.166124485e-06
-1.934104267e-10
5.841853106e-11
9.166022635e-06
-7.567847398e-11
3.503330057e-11
9.165936045e-06
4.031935179e-11
1.076706089e-11
9.165869755e-06
9.634507275e-11
-2.889434007e-12
9.165824729e-06
1.0085751e-10
-9.299480506e-12
9.165796312e-06
9.254093276e-11
-1.083917248e-11
9.16577942e-06
8.175984153e-11
-1.208222167e-11
9.165775009e-06
6.948261543e-11
-1.051429951e-11
9.165775163e-06
5.83775927e-11
-9.776918226e-12
9.165775515e-06
4.88195786e-11
-9.272915814e-12
9.165777976e-06
4.154380326e-11
-7.981162786e-12
9.165782829e-06
3.48939242e-11
-7.752216924e-12
9.165784166e-06
3.487075185e-11
-8.082495832e-12
2.865374154e-11
-7.274055264e-12
9.166819037e-06
-6.1216623e-09
8.731864766e-10
9.166131058e-06
3.463167895e-10
7.671505184e-11
9.165715685e-06
2.606266305e-10
4.136647701e-11
9.165531817e-06
2.433788054e-10
-7.749976918e-12
9.165471317e-06
2.184943352e-10
-2.766486916e-11
9.165468295e-06
1.604173566e-10
-2.955532881e-11
9.165498313e-06
1.190180057e-10
-2.708191919e-11
9.165536491e-06
8.94292752e-11
-2.397615303e-11
9.165576642e-06
6.902442388e-11
-1.903595056e-11
9.165614581e-06
5.452285847e-11
-1.722033432e-11
9.165645023e-06
4.388262768e-11
-1.486973973e-11
9.165674932e-06
3.728961321e-11
-1.261172094e-11
9.165701593e-06
3.106963965e-11
-1.01452896e-11
9.165727371e-06
3.31137206e-11
-1.044213314e-11
2.386014635e-11
-7.98511753e-12
9.166349434e-06
1.749736853e-09
9.164468425e-06
3.180512096e-09
-4.752704293e-10
9.164431881e-06
3.333717235e-10
-1.382372238e-11
9.164654096e-06
1.518430764e-10
-6.278366252e-11
9.164890886e-06
1.399615814e-10
-7.640073487e-11
9.165088198e-06
8.485446247e-11
-5.970170757e-11
9.165247823e-06
5.636155219e-11
-4.506357069e-11
9.165371617e-06
3.855088772e-11
-3.31610443e-11
9.165468553e-06
2.929587878e-11
-2.564417757e-11
9.165547369e-06
2.255298957e-11
-2.122024225e-11
9.165609138e-06
1.638005516e-11
-1.800503198e-11
9.165661692e-06
1.451535225e-11
-1.439481661e-11
9.165706811e-06
1.28106168e-11
-1.196027233e-11
9.165749066e-06
1.176640264e-11
-1.298788908e-11
6.463556278e-12
-8.734871563e-12
9.236824668e-06
-3.181426359e-09
-3.181813477e-09
9.238255019e-06
-3.323743414e-10
-3.322471669e-10
9.238946516e-06
-1.516607154e-10
-1.518921798e-10
9.239586159e-06
-1.394600246e-10
-1.405117515e-10
9.240011294e-06
-8.517695041e-11
-8.546933217e-11
9.240311423e-06
-5.526795075e-11
-5.513176975e-11
9.240544136e-06
-3.734829657e-11
-3.707033238e-11
9.240732038e-06
-2.736154955e-11
-2.790320167e-11
9.240895162e-06
-2.055111761e-11
-2.115208264e-11
9.241041344e-06
-1.595513793e-11
-1.704305364e-11
9.241176051e-06
-1.36696091e-11
-1.420023495e-11
9.241301798e-06
-1.077895043e-11
-1.255335893e-11
9.241429696e-06
-1.146629257e-11
-1.299442042e-11
-4.733789356e-12
-5.244263713e-12
9.164497318e-06
-3.45637634e-10
-4.746379757e-10
9.164454061e-06
-2.604404688e-10
-1.455742239e-11
9.164681241e-06
-2.428828024e-10
-6.259264251e-11
9.164917762e-06
-2.184736304e-10
-7.64578263e-11
9.165117723e-06
-1.612277597e-10
-5.865791812e-11
9.165275847e-06
-1.192797889e-10
-4.489279258e-11
9.165400267e-06
-8.975035355e-11
-3.322290372e-11
9.165498466e-06
-6.863044011e-11
-2.653120922e-11
9.165576001e-06
-5.295746397e-11
-1.984226065e-11
9.165637824e-06
-4.399933375e-11
-1.540519365e-11
9.165690561e-06
-3.603414331e-11
-1.326446276e-11
9.165737665e-06
-3.010337129e-11
-1.068134491e-11
9.165780693e-06
-3.080677545e-11
-1.230324251e-11
-2.386083918e-11
-9.466865291e-12
9.166135143e-06
1.925592543e-10
7.567593702e-11
9.165718688e-06
7.345690741e-11
3.934744619e-11
9.165538408e-06
-4.270030055e-11
-7.782422835e-12
9.165474616e-06
-9.652418985e-11
-2.715781907e-11
9.165477392e-06
-9.965714277e-11
-2.75872797e-11
9.16550569e-06
-9.280736221e-11
-2.679840421e-11
9.165542293e-06
-8.262292781e-11
-2.337005987e-11
9.165584161e-06
-6.87055573e-11
-2.024314011e-11
9.165619897e-06
-5.884438034e-11
-1.827323045e-11
9.165654002e-06
-4.968914906e-11
-1.44868938e-11
9.165681777e-06
-4.31000572e-11
-1.17387875e-11
9.165710024e-06
-3.640690659e-11
-8.299858623e-12
9.165734177e-06
-3.611021246e-11
-1.103673096e-11
-2.830507511e-11
-7.506086283e-12
9.166137725e-06
1.934257142e-10
5.833512441e-11
9.166038665e-06
1.028599992e-10
3.5901247e-11
9.165952123e-06
2.064708035e-11
1.403702572e-11
9.165884489e-06
-2.230555815e-11
-3.356522571e-12
9.165839598e-06
-3.714800558e-11
-8.872152985e-12
9.165809966e-06
-4.310829418e-11
-1.10270848e-11
9.165798731e-06
-4.171185633e-11
-9.468771259e-12
9.165789957e-06
-3.872448088e-11
-1.189126754e-11
9.165789726e-06
-3.467195482e-11
-1.115579458e-11
9.165793449e-06
-2.824090765e-11
-9.708060615e-12
9.165793706e-06
-2.655626702e-11
-8.166003961e-12
9.165799449e-06
-2.272295536e-11
-6.580647377e-12
9.165802595e-06
-2.297224218e-11
-7.917055447e-12
-1.839037169e-11
-6.68667281e-12
9.166064149e-06
5.81679581e-11
9.166095482e-06
3.822732703e-11
9.166081256e-06
2.059102972e-11
9.166046543e-06
7.074669765e-12
9.166007654e-06
7.336762981e-13
9.165971793e-06
-2.694446918e-12
9.165943069e-06
-3.346991802e-12
9.165917826e-06
-6.530908217e-12
9.165898843e-06
-6.735412706e-12
9.165881449e-06
-7.120316608e-12
9.165869558e-06
-7.164034253e-12
9.165861143e-06
-5.376789433e-12
9.165851276e-06
-7.486228454e-12
-6.505437723e-12