/*--------------------------------*- C++ -*----------------------------------*\
| =========                 |                                                 |
| \\      /  F ield         | OpenFOAM: The Open Source CFD Toolbox           |
|  \\    /   O peration     | Version:  4.x                                   |
|   \\  /    A nd           | Web:      www.OpenFOAM.org                      |
|    \\/     M anipulation  |                                                 |
\*---------------------------------------------------------------------------*/
FoamFile
{
    version     2.0;
    format      ascii;
    class       volScalarField;
    location    "3000";
    object      rho;
}
// * * * * * * * * * * * * * * * * * * * * * * * * * * * * * * * * * * * * * //

dimensions      [1 -3 0 0 0 0 0];

internalField   nonuniform List<scalar> 
1174
(
0.2699635955
0.269964132
0.2699648701
0.2699658346
0.2699670028
0.2699682933
0.2699697631
0.2699712966
0.269972889
0.2699745064
0.269976105
0.2699776537
0.2699790845
0.2699802129
0.2699646619
0.2699654736
0.2699665718
0.2699678749
0.2699693901
0.2699710287
0.2699727686
0.2699745061
0.2699761977
0.2699778343
0.2699794228
0.2699809365
0.2699822691
0.2699833258
0.269965627
0.2699670318
0.2699688098
0.2699708301
0.269972902
0.2699750154
0.2699770614
0.2699790008
0.2699808128
0.2699824343
0.2699839241
0.2699852545
0.269986419
0.2699872772
0.2699666436
0.2699688244
0.2699713143
0.2699739117
0.2699764905
0.2699789238
0.2699811578
0.2699831418
0.2699849124
0.2699864796
0.2699877316
0.269988879
0.2699898232
0.2699904845
0.2699678249
0.2699704878
0.2699732841
0.2699760986
0.2699788369
0.2699812984
0.2699835306
0.2699854702
0.2699871893
0.2699886207
0.2699898185
0.2699908097
0.2699916424
0.2699922232
0.2699665815
0.2699687771
0.2699712721
0.2699738968
0.2699764731
0.2699789001
0.2699811089
0.2699831118
0.2699848589
0.2699864084
0.2699877405
0.2699888052
0.2699897452
0.2699904334
0.2699656939
0.2699671077
0.2699688547
0.2699708352
0.2699729269
0.2699750338
0.2699771016
0.2699790489
0.2699808608
0.2699825315
0.2699840039
0.2699853171
0.2699864618
0.2699873162
0.2699644187
0.2699652365
0.2699663645
0.2699676741
0.269969207
0.2699708589
0.2699725782
0.2699743208
0.2699760239
0.2699777096
0.2699792907
0.2699808032
0.2699821093
0.2699831784
0.2699633095
0.2699638533
0.2699645855
0.269965491
0.2699666419
0.2699679529
0.2699694194
0.2699709776
0.2699725669
0.2699741827
0.2699757975
0.2699773341
0.2699787733
0.2699798974
0.2699635415
0.2699641143
0.2699649508
0.2699660589
0.2699673647
0.2699688817
0.2699705078
0.2699721873
0.269973967
0.2699756805
0.2699773633
0.269978948
0.269980416
0.2699817636
0.2699827967
0.2699651679
0.2699665772
0.2699682931
0.269970167
0.269972132
0.2699741269
0.2699760042
0.2699778339
0.2699794941
0.2699810656
0.2699825057
0.2699838123
0.2699849524
0.2699857818
0.2699678307
0.2699705883
0.2699735156
0.2699764098
0.2699790642
0.2699814665
0.2699835293
0.2699852397
0.2699867162
0.2699879864
0.2699890261
0.2699899232
0.2699906318
0.2699911778
0.2699731087
0.269977502
0.2699816605
0.2699852566
0.2699881693
0.2699904591
0.2699921771
0.2699934929
0.2699944565
0.2699951093
0.2699955612
0.2699959164
0.2699961212
0.269996266
0.2699763193
0.2699815746
0.2699860036
0.2699894356
0.2699919944
0.2699938518
0.2699951637
0.26999609
0.2699966361
0.269996965
0.2699971213
0.2699971621
0.2699971058
0.2699970554
0.2699722949
0.2699766585
0.2699808426
0.2699844342
0.2699873584
0.26998965
0.2699914111
0.2699927513
0.2699937267
0.2699943913
0.2699948852
0.2699952475
0.2699954948
0.2699955953
0.2699681272
0.269970842
0.2699737981
0.2699766683
0.2699793053
0.2699816757
0.2699837347
0.2699854895
0.2699869676
0.2699882429
0.2699892694
0.2699901781
0.2699909051
0.2699914335
0.2699652207
0.2699666616
0.2699684213
0.2699703432
0.2699723177
0.2699742913
0.2699762429
0.2699780206
0.2699797324
0.2699813279
0.2699827719
0.269984029
0.2699851848
0.2699860225
0.2699641624
0.269964929
0.2699659989
0.26996737
0.2699688533
0.2699704833
0.2699721908
0.2699739158
0.2699756089
0.2699772892
0.2699788894
0.2699804008
0.269981777
0.2699827796
0.269964415
0.2699654679
0.2699669145
0.2699686948
0.269970681
0.2699727233
0.2699748528
0.269976907
0.269978838
0.2699806883
0.2699823875
0.2699838864
0.2699851914
0.2699863639
0.2699871791
0.269965431
0.2699676629
0.2699703666
0.2699732659
0.2699761336
0.2699787996
0.2699812131
0.2699832656
0.2699849847
0.2699865105
0.2699877542
0.2699887547
0.2699896184
0.2699903274
0.2699908917
0.2699754046
0.2699809669
0.2699859049
0.269989916
0.2699929018
0.26999501
0.2699964055
0.2699973169
0.2699978186
0.2699980315
0.2699980711
0.2699980057
0.2699978352
0.2699977287
0.2699925471
0.2700017228
0.2700079279
0.2700114783
0.2700130765
0.2700133156
0.2700127101
0.2700116557
0.2700103685
0.270008988
0.2700076186
0.270006367
0.2700052423
0.2700043551
0.2700139288
0.270022885
0.2700265203
0.2700269908
0.2700256548
0.2700234549
0.2700209313
0.2700183144
0.2700158213
0.2700134587
0.2700113792
0.2700095101
0.2700078936
0.270006727
0.2699926571
0.2700018034
0.2700080053
0.2700115616
0.2700131753
0.270013466
0.2700128387
0.2700117366
0.2700104386
0.2700090813
0.2700076953
0.270006422
0.2700052742
0.2700043684
0.2699767574
0.2699823555
0.269987322
0.2699913258
0.2699943806
0.2699965155
0.2699979084
0.2699987817
0.2699992205
0.2699994114
0.2699994068
0.2699992739
0.2699991516
0.2699990347
0.269968143
0.2699708595
0.2699737727
0.2699766207
0.2699792519
0.2699816523
0.2699837038
0.269985419
0.2699868792
0.2699881305
0.2699891577
0.2699899828
0.269990703
0.2699911834
0.2699658806
0.2699673218
0.2699690764
0.2699710776
0.2699731634
0.2699752895
0.269977331
0.2699792826
0.2699810617
0.2699826984
0.2699841789
0.2699855188
0.2699866814
0.2699875399
0.2699656743
0.2699673859
0.2699695772
0.2699720566
0.2699746347
0.2699772449
0.269979661
0.2699818927
0.2699838993
0.269985641
0.2699871429
0.2699884735
0.2699895663
0.2699905254
0.2699911941
0.2699677695
0.2699718407
0.2699762663
0.2699804064
0.2699840087
0.2699869505
0.2699892361
0.2699909858
0.269992313
0.2699932588
0.2699939244
0.2699944232
0.2699947604
0.2699949504
0.2699951011
0.2699809315
0.2699923877
0.2700015739
0.2700078003
0.2700113498
0.2700129261
0.2700131828
0.2700126099
0.2700115394
0.2700102577
0.2700089238
0.2700075837
0.2700063171
0.2700051608
0.2700042555
0.2700488692
0.2700598986
0.270061222
0.2700575326
0.2700515825
0.2700450821
0.2700388103
0.2700330466
0.2700279399
0.2700235102
0.2700197062
0.2700164509
0.2700137266
0.2700117046
0.270162756
0.2701472135
0.2701243932
0.2701028214
0.2700846245
0.2700699092
0.2700580966
0.2700486392
0.2700409323
0.2700346248
0.2700294153
0.2700250712
0.2700215617
0.2700190507
0.2700501553
0.2700612357
0.2700626143
0.2700588545
0.2700529119
0.2700464449
0.2700401531
0.2700344253
0.2700293312
0.2700249289
0.2700211267
0.2700178045
0.2700150756
0.2700130675
0.2699919994
0.2700011923
0.2700074059
0.2700109726
0.270012566
0.2700127627
0.2700121388
0.2700110553
0.2700097143
0.2700083294
0.2700069778
0.2700057031
0.270004549
0.2700036473
0.2699737672
0.2699781834
0.2699823327
0.2699859672
0.2699889098
0.2699912237
0.2699929694
0.2699942849
0.2699952661
0.2699959925
0.2699964433
0.2699967873
0.269997004
0.2699971622
0.2699664789
0.269968657
0.2699711354
0.2699737332
0.2699763177
0.2699788002
0.2699809996
0.2699829535
0.2699847376
0.2699862315
0.2699875384
0.2699886466
0.2699895335
0.2699902183
0.269965714
0.2699678704
0.2699704358
0.2699732743
0.2699760807
0.269978773
0.2699812761
0.2699835081
0.2699854552
0.2699871319
0.2699885601
0.2699897362
0.2699907376
0.2699915576
0.26999216
0.2699712784
0.2699769133
0.2699821454
0.2699865615
0.2699899922
0.269992561
0.2699944355
0.2699957553
0.2699966313
0.2699972392
0.2699975884
0.2699977748
0.2699978549
0.269997812
0.2699977609
0.2699981524
0.2700144199
0.2700233867
0.2700270801
0.2700275275
0.2700261931
0.2700239879
0.2700214606
0.270018852
0.2700163788
0.2700140245
0.27001188
0.2700099774
0.2700083547
0.2700071117
0.2701435136
0.2701618419
0.2701462707
0.2701234052
0.2701017884
0.2700836089
0.2700688669
0.2700570632
0.2700475602
0.2700398265
0.2700335417
0.2700282958
0.2700240291
0.2700205283
0.2700179906
0.2728380106
0.2725957797
0.2724637529
0.2723877595
0.2723417525
0.272312468
0.2722930713
0.2722798141
0.2722704609
0.2722637657
0.2722590031
0.2722555963
0.2722533893
0.2722524739
0.2701625229
0.2701469902
0.2701241445
0.2701025944
0.2700844479
0.2700697358
0.270057937
0.2700484237
0.2700407194
0.2700344212
0.2700292374
0.270024932
0.270021384
0.2700189068
0.2700146417
0.2700235856
0.2700272503
0.2700276898
0.2700263677
0.270024202
0.2700216819
0.2700190853
0.2700165947
0.2700142659
0.2700121587
0.2700101942
0.2700085439
0.2700073177
0.2699773394
0.2699825921
0.2699869912
0.2699904756
0.2699930779
0.2699949482
0.2699962576
0.2699971548
0.2699977599
0.2699981002
0.2699982999
0.269998307
0.2699982889
0.2699982003
0.2699682402
0.2699708564
0.2699736581
0.2699764869
0.2699791582
0.2699816407
0.2699838526
0.2699858243
0.2699875069
0.2699889768
0.2699901705
0.26999119
0.269992039
0.2699926143
0.2699645635
0.2699662564
0.2699684502
0.269970936
0.2699734959
0.2699760565
0.269978501
0.2699807454
0.2699827215
0.26998445
0.269985976
0.2699873067
0.2699884166
0.2699893496
0.26998997
0.2699692751
0.2699733997
0.2699778117
0.2699819562
0.2699855204
0.2699884893
0.2699907949
0.2699925575
0.2699938886
0.2699948313
0.2699955556
0.2699960355
0.2699963318
0.2699965361
0.2699966796
0.2699815292
0.2699929287
0.2700021505
0.2700083717
0.270011911
0.2700134681
0.2700136468
0.2700130322
0.2700119885
0.2700107015
0.2700093381
0.2700080053
0.2700066904
0.2700055019
0.2700046706
0.2700231871
0.2700489778
0.2700600367
0.2700614012
0.2700576969
0.2700517504
0.2700452667
0.2700389579
0.2700332762
0.2700281818
0.2700237522
0.2700199531
0.2700166318
0.2700139156
0.27001187
0.2701439325
0.2701622875
0.2701467284
0.2701238789
0.2701022886
0.2700841426
0.270069429
0.2700576133
0.2700481407
0.2700404808
0.2700341689
0.2700290063
0.2700247085
0.2700212269
0.2700187365
0.2700227446
0.2700485631
0.2700595887
0.2700609916
0.2700572552
0.2700513289
0.2700448092
0.2700384943
0.2700327474
0.2700276903
0.2700232146
0.2700193746
0.2700161337
0.2700134026
0.270011439
0.2699920648
0.2700012802
0.2700074917
0.2700110528
0.2700126492
0.2700128663
0.2700122895
0.270011233
0.2700099644
0.2700086088
0.2700072726
0.2700059805
0.2700048062
0.2700039642
0.2699725209
0.269976962
0.2699811107
0.2699846983
0.2699876451
0.2699899265
0.2699917091
0.2699930153
0.2699939801
0.2699946629
0.2699951579
0.2699954907
0.2699957081
0.2699958175
0.2699673327
0.2699695833
0.269972061
0.2699746184
0.269977144
0.2699795628
0.2699817695
0.2699837599
0.2699855346
0.2699870726
0.2699883825
0.269989514
0.2699904421
0.2699911205
0.2699649095
0.2699659651
0.2699674003
0.2699691911
0.2699711805
0.2699732488
0.2699753615
0.2699774252
0.2699793514
0.2699811936
0.2699828221
0.2699843115
0.2699856409
0.2699868135
0.2699877059
0.2699657677
0.2699679675
0.2699706484
0.2699735616
0.2699764441
0.269979092
0.2699814613
0.2699834887
0.2699852577
0.2699867256
0.2699879689
0.2699890382
0.2699899252
0.2699906742
0.2699911631
0.2699711967
0.2699765305
0.2699820878
0.2699870661
0.2699911081
0.2699940998
0.2699961944
0.2699976057
0.2699984669
0.2699989432
0.2699991469
0.2699991593
0.2699990524
0.2699988993
0.2699987578
0.2699808389
0.2699922379
0.2700014067
0.270007653
0.2700112556
0.2700128462
0.2700130623
0.2700124759
0.2700113846
0.2700100638
0.2700087064
0.2700073652
0.2700060886
0.270004947
0.2700040458
0.2699974275
0.2700136456
0.2700226201
0.2700262931
0.2700267484
0.2700254311
0.2700232551
0.2700206996
0.2700181219
0.2700156099
0.2700132507
0.2700111229
0.2700092109
0.2700075913
0.2700063863
0.2699819155
0.269993356
0.2700025551
0.2700087828
0.2700123256
0.2700138884
0.2700141527
0.2700135056
0.2700124662
0.2700111605
0.2700097934
0.2700084054
0.2700071387
0.2700059975
0.2700051058
0.2699704283
0.2699757584
0.2699813198
0.2699862908
0.2699902904
0.2699933141
0.2699954461
0.269996823
0.2699976797
0.2699981738
0.26999837
0.2699983892
0.269998277
0.2699981344
0.2699979881
0.2699678054
0.2699705405
0.2699734574
0.2699762982
0.2699789615
0.2699813582
0.2699834106
0.2699851954
0.2699866822
0.2699878946
0.2699889265
0.2699897968
0.2699905617
0.2699910606
0.2699653796
0.269966806
0.2699685596
0.269970578
0.2699726418
0.2699747203
0.2699767648
0.2699786969
0.2699805179
0.2699821731
0.269983655
0.2699849756
0.2699861081
0.2699869386
0.2699643009
0.2699648489
0.2699656773
0.2699667926
0.2699681112
0.2699696257
0.2699712591
0.2699729468
0.2699747272
0.2699764848
0.2699781128
0.2699796879
0.2699811615
0.2699825307
0.2699835857
0.2699648326
0.2699658477
0.2699672712
0.2699689345
0.2699708724
0.2699728257
0.2699748342
0.2699767254
0.2699785905
0.2699802916
0.2699818592
0.2699833158
0.2699846297
0.2699857594
0.2699865875
0.2699650104
0.269967234
0.269969927
0.269972825
0.2699756965
0.2699783888
0.2699807599
0.2699828652
0.2699845971
0.2699860606
0.2699872783
0.2699883077
0.2699891854
0.2699899114
0.2699904324
0.2699679504
0.2699720796
0.2699765116
0.2699806536
0.2699842444
0.2699871747
0.2699894948
0.269991272
0.2699925959
0.2699935622
0.2699942525
0.2699947533
0.2699950662
0.2699952878
0.2699954414
0.2699716181
0.2699772185
0.2699824668
0.2699868361
0.2699902859
0.2699929034
0.2699947471
0.2699960867
0.2699969696
0.2699974938
0.2699978388
0.2699980297
0.2699980296
0.2699980177
0.2699979925
0.2699680471
0.2699721464
0.269976553
0.2699806674
0.2699842831
0.2699872045
0.2699895077
0.2699912989
0.2699925813
0.2699935478
0.2699942731
0.2699947873
0.269995121
0.2699953646
0.269995483
0.2699667759
0.2699690022
0.2699717135
0.2699745878
0.269977485
0.2699801226
0.2699824929
0.2699845389
0.2699862765
0.2699877449
0.269988963
0.2699900275
0.269990953
0.2699916678
0.2699921451
0.2699645314
0.2699655852
0.2699669995
0.2699687452
0.2699706599
0.2699726458
0.2699746373
0.2699765619
0.2699783848
0.2699801029
0.269981684
0.2699831557
0.2699844672
0.2699855968
0.2699864428
0.2699643603
0.2699651551
0.2699662588
0.2699675887
0.2699690761
0.2699706783
0.2699723992
0.2699741375
0.2699758266
0.2699774473
0.2699790295
0.269980533
0.2699818657
0.2699828972
0.2699638576
0.2699641931
0.2699647053
0.2699654049
0.2699663525
0.2699675047
0.2699688189
0.2699702772
0.2699718347
0.2699734419
0.2699750381
0.269976648
0.2699781718
0.2699796137
0.2699807524
0.2699634781
0.2699640251
0.2699647944
0.2699659059
0.2699672222
0.2699687616
0.2699703843
0.2699721208
0.269973847
0.2699755603
0.2699772154
0.2699788271
0.2699803412
0.2699816655
0.2699827015
0.2699639824
0.2699649977
0.2699664164
0.2699682009
0.2699701678
0.2699722364
0.2699743698
0.269976422
0.269978404
0.2699801872
0.2699818744
0.2699833795
0.2699847199
0.2699858926
0.2699867388
0.2699644072
0.2699661207
0.2699683069
0.2699708223
0.2699734139
0.269976001
0.2699784689
0.2699806927
0.2699826957
0.2699844678
0.269986011
0.2699873332
0.2699884205
0.2699893949
0.2699900512
0.2699661321
0.2699682878
0.2699708843
0.2699737169
0.2699765505
0.2699792955
0.2699817867
0.2699839594
0.2699858965
0.2699876165
0.269989033
0.269990216
0.2699911838
0.2699920143
0.2699926118
0.2699656166
0.2699673174
0.2699694825
0.2699719616
0.2699745899
0.2699771507
0.2699796003
0.2699817992
0.2699838121
0.2699855729
0.2699870783
0.2699884428
0.2699895753
0.2699904797
0.2699911476
0.2699652205
0.2699662518
0.2699677063
0.2699694795
0.2699714316
0.2699735312
0.2699756475
0.2699776969
0.2699796493
0.2699814664
0.2699831212
0.2699846348
0.2699859746
0.2699871164
0.2699879627
0.2699641965
0.2699647728
0.2699655863
0.269966631
0.2699679489
0.2699694579
0.2699710867
0.2699727859
0.2699744696
0.2699761513
0.2699778406
0.2699794215
0.2699809471
0.2699822999
0.2699833374
0.2699634627
0.2699637989
0.2699643293
0.2699651142
0.2699660331
0.2699671977
0.2699685135
0.2699699593
0.269971523
0.2699731077
0.2699747423
0.2699763342
0.2699778883
0.2699793095
0.2699804211
)
;

boundaryField
{
    top
    {
        type            calculated;
        value           nonuniform List<scalar> 
127
(
0.2699634627
0.2699633095
0.2699641624
0.2699658806
0.2699664789
0.2699682402
0.2699673327
0.2699653796
0.2699643603
0.2699637989
0.2699638533
0.269964929
0.2699673218
0.269968657
0.2699708564
0.2699695833
0.269966806
0.2699651551
0.2699643293
0.2699645855
0.2699659989
0.2699690764
0.2699711354
0.2699736581
0.269972061
0.2699685596
0.2699662588
0.2699651142
0.269965491
0.26996737
0.2699710776
0.2699737332
0.2699764869
0.2699746184
0.269970578
0.2699675887
0.2699660331
0.2699666419
0.2699688533
0.2699731634
0.2699763177
0.2699791582
0.269977144
0.2699726418
0.2699690761
0.2699671977
0.2699679529
0.2699704833
0.2699752895
0.2699788002
0.2699816407
0.2699795628
0.2699747203
0.2699706783
0.2699685135
0.2699694194
0.2699721908
0.269977331
0.2699809996
0.2699838526
0.2699817695
0.2699767648
0.2699723992
0.2699699593
0.2699709776
0.2699739158
0.2699792826
0.2699829535
0.2699858243
0.2699837599
0.2699786969
0.2699741375
0.269971523
0.2699725669
0.2699756089
0.2699810617
0.2699847376
0.2699875069
0.2699855346
0.2699805179
0.2699758266
0.2699731077
0.2699741827
0.2699772892
0.2699826984
0.2699862315
0.2699889768
0.2699870726
0.2699821731
0.2699774473
0.2699747423
0.2699757975
0.2699788894
0.2699841789
0.2699875384
0.2699901705
0.2699883825
0.269983655
0.2699790295
0.2699763342
0.2699773341
0.2699804008
0.2699855188
0.2699886466
0.26999119
0.269989514
0.2699849756
0.269980533
0.2699778883
0.2699787733
0.269981777
0.2699866814
0.2699895335
0.269992039
0.2699904421
0.2699861081
0.2699818657
0.2699793095
0.2699798974
0.2699827796
0.2699875399
0.2699902183
0.2699926143
0.2699911205
0.2699869386
0.2699828972
0.2699804211
)
;
    }
    bottom
    {
        type            calculated;
        value           nonuniform List<scalar> 
134
(
0.2699635415
0.269964415
0.2699656743
0.269965714
0.2699645635
0.2699649095
0.2699643009
0.2699638576
0.2699635955
0.2699641143
0.2699654679
0.2699673859
0.2699678704
0.2699662564
0.2699659651
0.2699648489
0.2699641931
0.269964132
0.2699649508
0.2699669145
0.2699695772
0.2699704358
0.2699684502
0.2699674003
0.2699656773
0.2699647053
0.2699648701
0.2699660589
0.2699686948
0.2699720566
0.2699732743
0.269970936
0.2699691911
0.2699667926
0.2699654049
0.2699658346
0.2699673647
0.269970681
0.2699746347
0.2699760807
0.2699734959
0.2699711805
0.2699681112
0.2699663525
0.2699670028
0.2699688817
0.2699727233
0.2699772449
0.269978773
0.2699760565
0.2699732488
0.2699696257
0.2699675047
0.2699682933
0.2699705078
0.2699748528
0.269979661
0.2699812761
0.269978501
0.2699753615
0.2699712591
0.2699688189
0.2699697631
0.2699721873
0.269976907
0.2699818927
0.2699835081
0.2699807454
0.2699774252
0.2699729468
0.2699702772
0.2699712966
0.269973967
0.269978838
0.2699838993
0.2699854552
0.2699827215
0.2699793514
0.2699747272
0.2699718347
0.269972889
0.2699756805
0.2699806883
0.269985641
0.2699871319
0.26998445
0.2699811936
0.2699764848
0.2699734419
0.2699745064
0.2699773633
0.2699823875
0.2699871429
0.2699885601
0.269985976
0.2699828221
0.2699781128
0.2699750381
0.269976105
0.269978948
0.2699838864
0.2699884735
0.2699897362
0.2699873067
0.2699843115
0.2699796879
0.269976648
0.2699776537
0.269980416
0.2699851914
0.2699895663
0.2699907376
0.2699884166
0.2699856409
0.2699811615
0.2699781718
0.2699790845
0.2699817636
0.2699863639
0.2699905254
0.2699915576
0.2699893496
0.2699868135
0.2699825307
0.2699796137
0.2699802129
0.2699827967
0.2699871791
0.2699911941
0.26999216
0.26998997
0.2699877059
0.2699835857
0.2699807524
)
;
    }
    side-walls
    {
        type            calculated;
        value           nonuniform List<scalar> 
261
(
0.2699635955
0.2699646619
0.269965627
0.2699666436
0.2699678249
0.2699665815
0.2699656939
0.2699644187
0.2699633095
0.269964132
0.2699654736
0.2699670318
0.2699688244
0.2699704878
0.2699687771
0.2699671077
0.2699652365
0.2699638533
0.2699648701
0.2699665718
0.2699688098
0.2699713143
0.2699732841
0.2699712721
0.2699688547
0.2699663645
0.2699645855
0.2699658346
0.2699678749
0.2699708301
0.2699739117
0.2699760986
0.2699738968
0.2699708352
0.2699676741
0.269965491
0.2699670028
0.2699693901
0.269972902
0.2699764905
0.2699788369
0.2699764731
0.2699729269
0.269969207
0.2699666419
0.2699682933
0.2699710287
0.2699750154
0.2699789238
0.2699812984
0.2699789001
0.2699750338
0.2699708589
0.2699679529
0.2699697631
0.2699727686
0.2699770614
0.2699811578
0.2699835306
0.2699811089
0.2699771016
0.2699725782
0.2699694194
0.2699712966
0.2699745061
0.2699790008
0.2699831418
0.2699854702
0.2699831118
0.2699790489
0.2699743208
0.2699709776
0.269972889
0.2699761977
0.2699808128
0.2699849124
0.2699871893
0.2699848589
0.2699808608
0.2699760239
0.2699725669
0.2699745064
0.2699778343
0.2699824343
0.2699864796
0.2699886207
0.2699864084
0.2699825315
0.2699777096
0.2699741827
0.269976105
0.2699794228
0.2699839241
0.2699877316
0.2699898185
0.2699877405
0.2699840039
0.2699792907
0.2699757975
0.2699776537
0.2699809365
0.2699852545
0.269988879
0.2699908097
0.2699888052
0.2699853171
0.2699808032
0.2699773341
0.2699790845
0.2699822691
0.269986419
0.2699898232
0.2699916424
0.2699897452
0.2699864618
0.2699821093
0.2699787733
0.2699802129
0.2699833258
0.2699872772
0.2699904845
0.2699922232
0.2699904334
0.2699873162
0.2699831784
0.2699798974
0.2699638576
0.2699634781
0.2699639824
0.2699644072
0.2699661321
0.2699656166
0.2699652205
0.2699641965
0.2699634627
0.2699641931
0.2699640251
0.2699649977
0.2699661207
0.2699682878
0.2699673174
0.2699662518
0.2699647728
0.2699637989
0.2699647053
0.2699647944
0.2699664164
0.2699683069
0.2699708843
0.2699694825
0.2699677063
0.2699655863
0.2699643293
0.2699654049
0.2699659059
0.2699682009
0.2699708223
0.2699737169
0.2699719616
0.2699694795
0.269966631
0.2699651142
0.2699663525
0.2699672222
0.2699701678
0.2699734139
0.2699765505
0.2699745899
0.2699714316
0.2699679489
0.2699660331
0.2699675047
0.2699687616
0.2699722364
0.269976001
0.2699792955
0.2699771507
0.2699735312
0.2699694579
0.2699671977
0.2699688189
0.2699703843
0.2699743698
0.2699784689
0.2699817867
0.2699796003
0.2699756475
0.2699710867
0.2699685135
0.2699702772
0.2699721208
0.269976422
0.2699806927
0.2699839594
0.2699817992
0.2699776969
0.2699727859
0.2699699593
0.2699718347
0.269973847
0.269978404
0.2699826957
0.2699858965
0.2699838121
0.2699796493
0.2699744696
0.269971523
0.2699734419
0.2699755603
0.2699801872
0.2699844678
0.2699876165
0.2699855729
0.2699814664
0.2699761513
0.2699731077
0.2699750381
0.2699772154
0.2699818744
0.269986011
0.269989033
0.2699870783
0.2699831212
0.2699778406
0.2699747423
0.269976648
0.2699788271
0.2699833795
0.2699873332
0.269990216
0.2699884428
0.2699846348
0.2699794215
0.2699763342
0.2699781718
0.2699803412
0.2699847199
0.2699884205
0.2699911838
0.2699895753
0.2699859746
0.2699809471
0.2699778883
0.2699796137
0.2699816655
0.2699858926
0.2699893949
0.2699920143
0.2699904797
0.2699871164
0.2699822999
0.2699793095
0.2699807524
0.2699827015
0.2699867388
0.2699900512
0.2699926118
0.2699911476
0.2699879627
0.2699833374
0.2699804211
)
;
    }
    inlet
    {
        type            calculated;
        value           nonuniform 0();
    }
    outlet
    {
        type            calculated;
        value           nonuniform List<scalar> 
81
(
0.2699802129
0.2699833258
0.2699872772
0.2699904845
0.2699922232
0.2699904334
0.2699873162
0.2699831784
0.2699798974
0.2699827967
0.2699857818
0.2699911778
0.269996266
0.2699970554
0.2699955953
0.2699914335
0.2699860225
0.2699827796
0.2699871791
0.2699908917
0.2699977287
0.2700043551
0.270006727
0.2700043684
0.2699990347
0.2699911834
0.2699875399
0.2699911941
0.2699951011
0.2700042555
0.2700117046
0.2700190507
0.2700130675
0.2700036473
0.2699971622
0.2699902183
0.26999216
0.2699977609
0.2700071117
0.2700179906
0.2722524739
0.2700189068
0.2700073177
0.2699982003
0.2699926143
0.26998997
0.2699966796
0.2700046706
0.27001187
0.2700187365
0.270011439
0.2700039642
0.2699958175
0.2699911205
0.2699877059
0.2699911631
0.2699987578
0.2700040458
0.2700063863
0.2700051058
0.2699979881
0.2699910606
0.2699869386
0.2699835857
0.2699865875
0.2699904324
0.2699954414
0.2699979925
0.269995483
0.2699921451
0.2699864428
0.2699828972
0.2699807524
0.2699827015
0.2699867388
0.2699900512
0.2699926118
0.2699911476
0.2699879627
0.2699833374
0.2699804211
)
;
    }
    procBoundary1to0
    {
        type            processor;
        value           nonuniform List<scalar> 
97
(
0.2699632564
0.2699632564
0.2699641098
0.2699645734
0.269964958
0.2699656763
0.2699648393
0.2699647253
0.2699638641
0.2699629846
0.2699632529
0.2699641504
0.2699641504
0.2699641504
0.2699656374
0.2699690088
0.2699706862
0.2699681909
0.2699659584
0.269964161
0.2699636223
0.269963723
0.2699639609
0.2699700213
0.2699700213
0.2699700213
0.269981104
0.269997648
0.2699811977
0.269971424
0.2699659404
0.2699648828
0.2699645514
0.2699647291
0.2699702262
0.2700230864
0.2700230864
0.2700230864
0.2701443534
0.2700244143
0.2699805325
0.2699696418
0.2699647982
0.2699641913
0.2699665295
0.2699760358
0.2700117454
0.2733093605
0.2733093605
0.2733093605
0.2701441457
0.2701441457
0.2699983469
0.2699717264
0.2699661228
0.2699633928
0.2699662059
0.2699708709
0.2699841399
0.2700121804
0.2699837133
0.2699806288
0.2699806288
0.2699806288
0.2699684191
0.2699655843
0.2699642962
0.2699643021
0.269967098
0.2699701275
0.269975309
0.2699712369
0.2699663631
0.2699656061
0.2699656061
0.2699656061
0.2699643746
0.269963995
0.2699641598
0.2699635311
0.2699649243
0.2699668364
0.2699649913
0.269965246
0.2699638773
0.2699637979
0.2699637979
0.2699637979
0.2699637111
0.2699631209
0.2699633158
0.2699632832
0.2699646523
0.269964523
0.2699645422
0.2699638909
0.2699632768
)
;
    }
}


// ************************************************************************* //
