/*--------------------------------*- C++ -*----------------------------------*\
| =========                 |                                                 |
| \\      /  F ield         | OpenFOAM: The Open Source CFD Toolbox           |
|  \\    /   O peration     | Version:  4.x                                   |
|   \\  /    A nd           | Web:      www.OpenFOAM.org                      |
|    \\/     M anipulation  |                                                 |
\*---------------------------------------------------------------------------*/
FoamFile
{
    version     2.0;
    format      ascii;
    class       volScalarField;
    location    "3000";
    object      T;
}
// * * * * * * * * * * * * * * * * * * * * * * * * * * * * * * * * * * * * * //

dimensions      [0 0 0 1 0 0 0];

internalField   nonuniform List<scalar> 
1174
(
1223.152025
1223.152544
1223.153322
1223.154276
1223.155435
1223.157008
1223.158528
1223.16029
1223.162087
1223.163864
1223.165629
1223.167322
1223.168898
1223.170067
1223.149904
1223.15087
1223.152015
1223.153547
1223.155158
1223.156934
1223.158661
1223.160529
1223.162505
1223.164449
1223.166191
1223.167718
1223.169249
1223.17026
1223.151454
1223.153149
1223.154965
1223.156917
1223.159261
1223.161515
1223.163761
1223.165897
1223.167844
1223.169801
1223.171473
1223.172971
1223.174212
1223.175171
1223.155403
1223.157872
1223.160627
1223.163543
1223.166348
1223.169026
1223.17147
1223.17374
1223.175633
1223.17715
1223.17889
1223.179999
1223.180943
1223.181701
1223.156061
1223.158656
1223.161834
1223.164998
1223.167785
1223.170617
1223.173026
1223.175221
1223.176906
1223.178487
1223.179854
1223.181017
1223.181827
1223.182434
1223.155684
1223.158086
1223.160818
1223.16361
1223.166426
1223.169133
1223.171691
1223.173876
1223.175875
1223.177472
1223.17885
1223.180333
1223.181296
1223.181932
1223.151151
1223.152806
1223.154762
1223.156893
1223.159148
1223.161431
1223.163579
1223.165679
1223.167626
1223.169361
1223.171112
1223.172688
1223.174018
1223.174994
1223.151006
1223.151944
1223.152955
1223.154456
1223.155987
1223.157703
1223.159524
1223.161368
1223.163292
1223.165014
1223.166789
1223.168322
1223.169973
1223.170928
1223.153321
1223.153806
1223.154611
1223.155833
1223.157069
1223.15855
1223.160085
1223.161735
1223.163546
1223.165331
1223.167022
1223.168771
1223.170308
1223.171496
1223.151811
1223.152386
1223.153239
1223.15434
1223.155858
1223.157462
1223.159294
1223.161295
1223.162972
1223.164848
1223.166583
1223.168342
1223.170077
1223.171539
1223.172658
1223.153623
1223.155224
1223.157091
1223.159302
1223.161579
1223.163723
1223.166055
1223.168036
1223.170091
1223.171798
1223.173335
1223.174698
1223.175911
1223.176942
1223.156491
1223.1592
1223.162286
1223.165287
1223.168227
1223.170691
1223.172928
1223.175054
1223.176696
1223.177934
1223.179081
1223.17991
1223.180711
1223.18111
1223.158703
1223.163659
1223.168187
1223.172086
1223.175381
1223.177955
1223.180046
1223.181448
1223.182468
1223.183376
1223.184051
1223.184315
1223.18463
1223.184709
1223.168379
1223.174173
1223.178915
1223.182837
1223.185867
1223.188057
1223.189557
1223.190391
1223.191151
1223.19158
1223.19185
1223.191987
1223.192143
1223.192107
1223.16239
1223.16748
1223.171892
1223.175812
1223.179054
1223.18162
1223.183517
1223.184808
1223.185774
1223.186629
1223.187114
1223.187345
1223.187468
1223.187748
1223.155148
1223.15805
1223.161005
1223.164115
1223.167134
1223.169742
1223.171996
1223.173922
1223.175557
1223.176772
1223.177979
1223.178756
1223.179473
1223.179952
1223.153384
1223.154841
1223.15651
1223.158503
1223.160737
1223.162978
1223.164973
1223.16719
1223.169011
1223.170609
1223.172129
1223.173716
1223.174858
1223.175852
1223.152167
1223.153337
1223.154611
1223.155834
1223.15759
1223.159405
1223.161279
1223.163203
1223.165172
1223.166918
1223.168608
1223.170146
1223.171479
1223.172736
1223.151085
1223.152175
1223.153681
1223.155487
1223.157593
1223.160071
1223.162251
1223.164461
1223.166634
1223.168408
1223.170013
1223.171644
1223.173257
1223.174462
1223.175615
1223.154944
1223.157252
1223.160205
1223.163417
1223.166538
1223.169426
1223.171838
1223.174122
1223.176209
1223.177628
1223.178986
1223.180311
1223.181291
1223.182091
1223.182406
1223.165585
1223.171735
1223.177369
1223.181844
1223.18531
1223.187721
1223.189299
1223.189997
1223.190338
1223.190462
1223.190363
1223.190117
1223.190031
1223.189689
1223.182905
1223.193143
1223.200035
1223.204014
1223.205641
1223.205867
1223.20523
1223.203974
1223.202481
1223.20098
1223.199526
1223.197967
1223.196582
1223.195685
1223.208306
1223.21811
1223.222269
1223.222657
1223.221268
1223.218881
1223.215992
1223.213205
1223.210414
1223.208021
1223.205525
1223.203339
1223.201454
1223.199904
1223.182406
1223.192777
1223.199684
1223.203635
1223.205192
1223.205186
1223.204647
1223.203608
1223.202163
1223.200557
1223.199179
1223.197718
1223.196438
1223.195625
1223.159454
1223.165442
1223.170947
1223.175456
1223.17861
1223.1809
1223.182489
1223.183361
1223.183987
1223.184211
1223.184312
1223.184373
1223.184067
1223.183773
1223.155076
1223.157971
1223.16112
1223.164331
1223.167376
1223.169848
1223.172136
1223.174241
1223.175958
1223.177282
1223.178485
1223.179641
1223.180389
1223.181086
1223.150305
1223.151835
1223.153757
1223.155795
1223.158077
1223.160273
1223.16254
1223.16462
1223.166716
1223.168604
1223.170319
1223.171775
1223.173024
1223.173981
1223.150164
1223.15204
1223.154461
1223.157264
1223.160267
1223.162929
1223.165686
1223.168141
1223.170308
1223.172331
1223.174145
1223.175529
1223.176884
1223.177761
1223.178486
1223.159745
1223.164449
1223.169258
1223.173869
1223.17774
1223.180903
1223.183495
1223.185444
1223.186794
1223.187893
1223.188744
1223.189207
1223.189552
1223.189934
1223.189987
1223.171222
1223.183628
1223.193818
1223.200614
1223.204596
1223.206322
1223.206469
1223.205683
1223.204501
1223.202983
1223.201271
1223.199684
1223.198193
1223.196951
1223.196136
1223.248727
1223.261019
1223.262739
1223.258347
1223.251833
1223.24454
1223.237428
1223.231153
1223.225636
1223.220752
1223.216442
1223.212733
1223.209644
1223.207606
1223.352323
1223.335093
1223.309824
1223.286013
1223.266085
1223.249758
1223.23664
1223.225863
1223.217309
1223.210331
1223.204607
1223.199993
1223.196066
1223.19327
1223.242897
1223.254959
1223.256431
1223.252358
1223.245811
1223.238368
1223.231346
1223.224908
1223.219334
1223.214326
1223.210008
1223.206602
1223.203533
1223.201433
1223.185385
1223.195545
1223.202399
1223.206304
1223.207953
1223.208372
1223.207818
1223.206694
1223.205445
1223.203964
1223.20243
1223.200976
1223.199724
1223.198892
1223.155719
1223.160571
1223.165141
1223.168866
1223.172026
1223.174491
1223.176457
1223.177861
1223.1788
1223.179375
1223.180056
1223.18037
1223.180631
1223.18065
1223.156149
1223.15863
1223.161437
1223.164352
1223.16713
1223.169586
1223.172187
1223.174593
1223.176425
1223.178274
1223.179766
1223.181052
1223.182256
1223.182908
1223.153515
1223.155855
1223.158892
1223.161878
1223.165079
1223.168075
1223.170718
1223.173128
1223.175289
1223.177166
1223.178762
1223.180226
1223.181344
1223.182212
1223.182721
1223.159639
1223.165688
1223.171587
1223.176387
1223.180315
1223.1833
1223.185413
1223.186876
1223.187939
1223.188419
1223.188756
1223.188889
1223.188848
1223.188944
1223.18891
1223.188175
1223.206083
1223.215838
1223.219734
1223.220226
1223.21883
1223.216466
1223.213595
1223.21077
1223.207888
1223.205458
1223.203256
1223.201222
1223.199365
1223.198161
1223.336138
1223.356464
1223.339363
1223.314298
1223.290691
1223.270684
1223.254478
1223.241321
1223.23075
1223.222318
1223.215237
1223.209678
1223.204714
1223.200747
1223.198073
1213.974121
1213.700127
1213.544756
1213.450412
1213.388255
1213.344399
1213.31106
1213.28407
1213.261516
1213.241902
1213.224119
1213.208031
1213.19294
1213.179457
1223.353378
1223.336101
1223.310949
1223.287041
1223.266885
1223.250544
1223.237364
1223.22684
1223.218274
1223.211254
1223.205414
1223.200625
1223.196871
1223.193923
1223.205076
1223.214935
1223.218962
1223.219491
1223.218039
1223.215497
1223.212593
1223.209714
1223.206912
1223.204366
1223.201995
1223.200241
1223.198509
1223.197229
1223.163757
1223.169563
1223.17444
1223.178125
1223.180958
1223.183091
1223.184602
1223.185568
1223.186061
1223.186438
1223.186511
1223.186801
1223.186784
1223.186921
1223.15418
1223.156986
1223.160139
1223.163239
1223.16633
1223.169066
1223.171568
1223.173617
1223.175468
1223.176875
1223.17826
1223.179295
1223.180032
1223.180664
1223.155197
1223.157158
1223.159567
1223.162341
1223.165427
1223.168313
1223.170942
1223.173338
1223.175644
1223.177727
1223.179431
1223.180815
1223.182093
1223.183088
1223.184032
1223.152923
1223.157384
1223.162255
1223.166847
1223.170891
1223.173931
1223.176433
1223.178323
1223.179656
1223.180769
1223.181355
1223.181903
1223.182433
1223.182751
1223.182836
1223.168513
1223.181176
1223.191204
1223.198024
1223.202053
1223.203867
1223.204366
1223.203771
1223.202466
1223.200972
1223.199394
1223.197774
1223.196502
1223.195407
1223.194256
1223.219641
1223.248233
1223.260391
1223.261926
1223.257601
1223.251073
1223.243704
1223.23676
1223.230113
1223.22454
1223.219656
1223.215324
1223.211914
1223.208788
1223.206858
1223.33424
1223.354444
1223.337286
1223.312151
1223.288426
1223.268267
1223.251933
1223.23883
1223.228122
1223.219355
1223.212396
1223.206461
1223.201637
1223.197583
1223.194694
1223.221645
1223.25011
1223.262419
1223.263781
1223.259603
1223.252983
1223.245778
1223.238861
1223.23251
1223.226768
1223.222093
1223.217946
1223.214171
1223.211113
1223.208811
1223.18509
1223.195147
1223.202011
1223.205942
1223.207577
1223.207904
1223.207136
1223.20589
1223.204313
1223.202699
1223.201095
1223.19972
1223.19856
1223.197457
1223.161366
1223.166105
1223.170678
1223.174616
1223.177756
1223.180368
1223.182168
1223.183613
1223.184627
1223.1854
1223.18588
1223.186245
1223.186503
1223.186743
1223.152281
1223.154433
1223.157244
1223.160341
1223.163387
1223.166131
1223.168699
1223.17094
1223.172815
1223.174464
1223.175943
1223.177123
1223.17814
1223.178821
1223.148845
1223.149922
1223.15148
1223.153238
1223.155329
1223.15769
1223.159946
1223.162113
1223.164308
1223.166118
1223.168044
1223.169718
1223.171221
1223.172425
1223.173229
1223.153418
1223.155871
1223.158928
1223.162077
1223.165131
1223.168101
1223.170714
1223.173111
1223.174972
1223.176654
1223.178014
1223.179026
1223.179902
1223.18052
1223.181177
1223.15435
1223.160482
1223.166656
1223.172107
1223.176442
1223.179882
1223.182354
1223.183861
1223.184787
1223.185244
1223.185409
1223.185434
1223.185376
1223.18521
1223.185027
1223.171641
1223.184305
1223.194574
1223.20128
1223.205022
1223.206684
1223.207015
1223.206291
1223.205203
1223.203862
1223.202257
1223.200675
1223.199229
1223.197921
1223.197087
1223.191459
1223.209589
1223.219309
1223.223298
1223.223755
1223.222282
1223.219786
1223.217043
1223.214078
1223.211373
1223.208965
1223.206687
1223.204696
1223.202824
1223.201448
1223.166763
1223.17924
1223.189371
1223.196162
1223.200175
1223.201963
1223.202076
1223.201627
1223.200304
1223.198895
1223.197333
1223.195963
1223.194473
1223.193163
1223.192286
1223.157832
1223.163981
1223.170135
1223.17562
1223.180148
1223.183442
1223.185746
1223.187408
1223.188354
1223.18873
1223.18893
1223.188924
1223.18889
1223.188677
1223.188515
1223.156606
1223.159417
1223.162549
1223.165793
1223.168693
1223.171182
1223.173466
1223.175255
1223.176851
1223.178351
1223.179533
1223.180484
1223.181031
1223.181643
1223.152575
1223.154172
1223.156099
1223.158059
1223.16044
1223.162852
1223.165106
1223.167274
1223.16918
1223.170985
1223.172693
1223.174236
1223.175622
1223.176707
1223.14837
1223.149057
1223.149947
1223.151015
1223.152476
1223.15409
1223.15589
1223.157854
1223.159527
1223.161204
1223.163187
1223.16499
1223.166699
1223.168064
1223.169083
1223.14926
1223.150543
1223.152079
1223.154185
1223.156106
1223.158436
1223.160518
1223.162787
1223.164608
1223.166478
1223.168203
1223.169665
1223.170995
1223.172255
1223.173293
1223.156849
1223.159195
1223.162196
1223.165414
1223.168518
1223.171287
1223.173892
1223.175936
1223.177965
1223.179667
1223.181142
1223.182336
1223.183254
1223.183976
1223.184488
1223.158925
1223.163365
1223.168146
1223.172748
1223.176672
1223.179887
1223.182324
1223.184148
1223.185513
1223.18652
1223.187259
1223.187712
1223.188168
1223.188406
1223.188446
1223.158099
1223.164305
1223.170131
1223.175143
1223.178985
1223.181749
1223.184002
1223.185376
1223.186407
1223.187266
1223.187623
1223.187736
1223.188058
1223.188013
1223.187863
1223.158487
1223.163063
1223.167958
1223.172686
1223.176497
1223.179752
1223.182266
1223.184026
1223.185579
1223.186585
1223.187166
1223.187559
1223.187919
1223.188059
1223.188258
1223.14885
1223.151183
1223.154102
1223.157428
1223.160416
1223.163432
1223.166041
1223.168354
1223.170357
1223.172037
1223.173511
1223.174545
1223.175246
1223.17602
1223.17673
1223.150624
1223.151733
1223.15331
1223.155043
1223.157069
1223.159251
1223.16141
1223.163529
1223.165541
1223.167334
1223.168997
1223.170391
1223.171732
1223.172993
1223.17395
1223.151271
1223.152313
1223.153434
1223.154843
1223.156581
1223.158522
1223.160335
1223.1622
1223.164187
1223.166203
1223.167974
1223.169548
1223.171078
1223.172204
1223.148918
1223.149317
1223.149946
1223.150899
1223.15193
1223.15316
1223.154626
1223.156198
1223.157852
1223.159582
1223.161455
1223.163169
1223.164975
1223.166501
1223.167623
1223.152098
1223.15279
1223.153947
1223.155033
1223.156504
1223.158005
1223.159854
1223.161596
1223.163515
1223.165393
1223.167253
1223.16889
1223.170416
1223.171984
1223.173089
1223.153045
1223.154306
1223.155938
1223.157724
1223.159917
1223.162277
1223.16444
1223.166658
1223.168601
1223.170678
1223.172338
1223.173941
1223.175394
1223.176598
1223.177611
1223.155905
1223.157772
1223.160216
1223.162856
1223.165798
1223.168565
1223.171087
1223.173578
1223.175761
1223.177647
1223.179273
1223.180696
1223.182077
1223.182884
1223.183665
1223.15162
1223.153964
1223.15686
1223.159873
1223.16295
1223.165708
1223.168405
1223.171084
1223.17329
1223.174971
1223.17662
1223.178054
1223.179324
1223.180144
1223.180675
1223.150425
1223.15235
1223.15489
1223.157694
1223.160471
1223.163356
1223.165962
1223.168565
1223.170704
1223.172641
1223.174439
1223.17567
1223.176845
1223.17797
1223.178698
1223.147435
1223.148623
1223.150093
1223.151931
1223.154192
1223.156411
1223.158651
1223.160883
1223.16296
1223.164883
1223.16669
1223.168255
1223.16971
1223.171054
1223.172067
1223.148843
1223.149402
1223.150359
1223.151747
1223.153211
1223.154851
1223.156671
1223.158583
1223.160695
1223.162715
1223.164421
1223.166198
1223.167671
1223.169111
1223.170209
1223.150708
1223.151103
1223.15165
1223.152216
1223.153377
1223.154551
1223.15601
1223.157639
1223.159264
1223.161096
1223.162796
1223.164591
1223.16626
1223.16788
1223.169125
)
;

boundaryField
{
    top
    {
        type            zeroGradient;
    }
    bottom
    {
        type            zeroGradient;
    }
    side-walls
    {
        type            zeroGradient;
    }
    inlet
    {
        type            zeroGradient;
    }
    outlet
    {
        type            zeroGradient;
    }
    procBoundary1to0
    {
        type            processor;
        value           nonuniform List<scalar> 
97
(
1223.151642
1223.151642
1223.149236
1223.150367
1223.153409
1223.153685
1223.153947
1223.149679
1223.150349
1223.152874
1223.151221
1223.152351
1223.152351
1223.152351
1223.154008
1223.15413
1223.162322
1223.157835
1223.152554
1223.152302
1223.151445
1223.150574
1223.153256
1223.159676
1223.159676
1223.159676
1223.170441
1223.190462
1223.170016
1223.153321
1223.152635
1223.148966
1223.148962
1223.156314
1223.159501
1223.220104
1223.220104
1223.220104
1223.33236
1223.214085
1223.17303
1223.151262
1223.154133
1223.152098
1223.154218
1223.163759
1223.206388
1214.48324
1214.48324
1214.48324
1223.333301
1223.333301
1223.187296
1223.157609
1223.151662
1223.154211
1223.149622
1223.156579
1223.176731
1223.204416
1223.178665
1223.172593
1223.172593
1223.172593
1223.156802
1223.150572
1223.147977
1223.15171
1223.149906
1223.159947
1223.167051
1223.154921
1223.153236
1223.15415
1223.15415
1223.15415
1223.151268
1223.147859
1223.148617
1223.155203
1223.155429
1223.152827
1223.155126
1223.147433
1223.149897
1223.150649
1223.150649
1223.150649
1223.148466
1223.151819
1223.152419
1223.154708
1223.150009
1223.149091
1223.146862
1223.14833
1223.150434
)
;
    }
}


// ************************************************************************* //
