/*--------------------------------*- C++ -*----------------------------------*\
| =========                 |                                                 |
| \\      /  F ield         | OpenFOAM: The Open Source CFD Toolbox           |
|  \\    /   O peration     | Version:  4.x                                   |
|   \\  /    A nd           | Web:      www.OpenFOAM.org                      |
|    \\/     M anipulation  |                                                 |
\*---------------------------------------------------------------------------*/
FoamFile
{
    version     2.0;
    format      ascii;
    class       volVectorField;
    location    "3000";
    object      U;
}
// * * * * * * * * * * * * * * * * * * * * * * * * * * * * * * * * * * * * * //

dimensions      [0 1 -1 0 0 0 0];

internalField   nonuniform List<vector> 
1174
(
(0.01100047546 -2.797417431e-08 -2.677503144e-08)
(0.01100055104 -2.457979896e-08 -2.559415726e-08)
(0.01100061872 -1.81008334e-08 -1.873184309e-08)
(0.01100063664 -1.090573431e-08 -1.26111653e-08)
(0.01100062889 -6.887866096e-09 -6.540999848e-09)
(0.01100059341 -3.266022906e-09 -2.440495621e-09)
(0.01100053276 9.996517689e-10 6.447092198e-10)
(0.01100046502 4.483048685e-09 4.283167026e-09)
(0.01100038348 4.757312073e-09 3.165791844e-09)
(0.0110002954 3.476785463e-09 7.204898882e-09)
(0.01100020888 6.985947382e-09 8.405482764e-09)
(0.01100011916 7.614403344e-09 9.149093645e-09)
(0.01100004632 7.955464793e-09 1.048081931e-08)
(0.01099995648 8.334227902e-09 8.013773529e-09)
(0.01100048988 -1.071411601e-07 -3.337449124e-08)
(0.01100054517 -9.305167058e-08 -3.093438981e-08)
(0.01100059506 -6.777948881e-08 -2.128990935e-08)
(0.0110005875 -4.320089512e-08 -1.190729772e-08)
(0.01100054997 -2.25641344e-08 -2.505332663e-09)
(0.01100048714 -8.425496224e-09 9.179121561e-10)
(0.01100040817 5.298688935e-10 4.976957047e-09)
(0.01100032056 1.008250081e-08 6.372201033e-09)
(0.01100022868 1.189823359e-08 6.880263622e-09)
(0.01100013844 1.553609564e-08 8.590008638e-09)
(0.0110000531 1.892966257e-08 9.684703259e-09)
(0.01099996349 1.858121455e-08 1.055461833e-08)
(0.0109998942 2.06971078e-08 1.085186573e-08)
(0.01099981498 1.961926061e-08 9.196153674e-09)
(0.01100052424 -1.070421939e-07 -6.121440423e-08)
(0.01100053348 -9.264751503e-08 -5.02606028e-08)
(0.01100054627 -6.003509267e-08 -3.089287364e-08)
(0.0110004863 -3.165726846e-08 -1.473502162e-08)
(0.01100039657 -1.388694401e-08 1.874345332e-09)
(0.01100028897 1.320956714e-09 5.573707408e-09)
(0.01100017907 1.13839754e-08 1.136430465e-08)
(0.01100007383 1.631774611e-08 1.155987342e-08)
(0.01099997112 2.19365866e-08 1.244295661e-08)
(0.01099987928 2.337813572e-08 1.061741713e-08)
(0.0109997956 2.382575966e-08 9.788901614e-09)
(0.01099971831 2.443660845e-08 9.09728592e-09)
(0.01099965894 2.706016727e-08 1.048224994e-08)
(0.01099959709 2.349631794e-08 9.256523777e-09)
(0.01100055021 -1.407318642e-07 -4.973251427e-08)
(0.01100046123 -9.128913427e-08 -4.834983468e-08)
(0.01100042744 -4.628400922e-08 -2.313195042e-08)
(0.01100031562 -1.807625964e-08 -2.060041948e-09)
(0.01100018552 3.596587534e-11 8.372559115e-09)
(0.01100005177 8.457976284e-09 1.603323216e-08)
(0.01099992604 1.313308462e-08 1.888075692e-08)
(0.01099981185 1.431251092e-08 2.079559078e-08)
(0.01099970869 1.569003094e-08 2.002909158e-08)
(0.01099962352 1.726118154e-08 1.809667498e-08)
(0.0109995518 1.772468923e-08 1.642098545e-08)
(0.01099949137 1.590921786e-08 1.378032506e-08)
(0.0109994424 1.765984735e-08 1.438146306e-08)
(0.01099939621 1.52120897e-08 1.04170926e-08)
(0.01100066545 7.223289145e-10 -9.402632837e-08)
(0.01100047607 1.286923813e-09 -5.481428577e-08)
(0.01100039224 1.601960672e-11 -1.633168186e-08)
(0.01100023964 4.490125711e-10 9.017424528e-09)
(0.01100008128 1.718041636e-09 1.844504325e-08)
(0.01099993557 2.736647398e-09 2.380145623e-08)
(0.01099980508 -4.793405347e-10 2.280969377e-08)
(0.01099969503 6.660942614e-10 2.275445719e-08)
(0.01099959446 2.221080298e-09 2.148706884e-08)
(0.01099951721 2.540300958e-09 1.853923574e-08)
(0.01099944853 6.611532208e-10 1.396078673e-08)
(0.01099939444 1.277758639e-09 1.498604077e-08)
(0.0109993568 1.545413759e-09 1.419751812e-08)
(0.01099931907 -5.000022519e-10 1.089984865e-08)
(0.01100055199 1.402844416e-07 -4.775725485e-08)
(0.01100045993 9.089592429e-08 -4.931346146e-08)
(0.01100042635 4.702812836e-08 -2.297625426e-08)
(0.01100031686 1.837198899e-08 1.943224746e-10)
(0.01100018618 2.11838269e-09 1.055211149e-08)
(0.01100004957 -6.742595942e-09 1.5606794e-08)
(0.010999923 -1.187773436e-08 2.152392811e-08)
(0.01099981271 -1.477368095e-08 2.077342205e-08)
(0.01099970939 -1.633777653e-08 1.959245298e-08)
(0.01099962382 -1.572042774e-08 1.82247716e-08)
(0.01099955136 -1.565475529e-08 1.525009442e-08)
(0.01099949118 -1.552184789e-08 1.47360801e-08)
(0.01099944301 -1.627184355e-08 1.479472604e-08)
(0.01099939762 -1.474085489e-08 1.151175501e-08)
(0.01100052493 1.071220428e-07 -5.923812831e-08)
(0.0110005316 9.177257687e-08 -4.729620465e-08)
(0.011000546 6.131518437e-08 -2.675751958e-08)
(0.01100048592 3.249275321e-08 -9.557790465e-09)
(0.01100039608 1.181363442e-08 6.616602634e-10)
(0.01100028956 -3.27094351e-09 7.783107652e-09)
(0.01100017648 -9.804161282e-09 1.262193414e-08)
(0.01100007107 -1.454388944e-08 1.358087598e-08)
(0.01099996991 -2.175053018e-08 1.323042925e-08)
(0.01099987818 -2.552690793e-08 1.361768184e-08)
(0.01099979161 -2.459140455e-08 1.339274933e-08)
(0.01099971967 -2.120652393e-08 1.244614611e-08)
(0.01099965717 -2.448834608e-08 1.239681841e-08)
(0.01099959659 -2.081457701e-08 1.004151978e-08)
(0.01100049245 1.084980523e-07 -3.450502548e-08)
(0.01100054465 9.22683743e-08 -3.087463385e-08)
(0.01100059298 6.495798578e-08 -2.023097528e-08)
(0.01100058699 4.167914628e-08 -9.794308526e-09)
(0.01100055032 2.229306516e-08 -5.762817387e-09)
(0.01100048555 9.561128238e-09 -5.904142985e-10)
(0.0110004062 -1.080566969e-09 6.446841048e-09)
(0.01100031964 -8.842899892e-09 7.802251203e-09)
(0.01100022672 -1.460898393e-08 8.377241751e-09)
(0.01100013843 -1.712894745e-08 1.025981314e-08)
(0.01100005139 -1.99972448e-08 9.167177922e-09)
(0.01099996223 -2.010009298e-08 8.214500304e-09)
(0.01099989218 -2.147904333e-08 1.004235811e-08)
(0.01099981195 -1.926717317e-08 6.974079124e-09)
(0.01100047588 2.824656144e-08 -2.614693378e-08)
(0.01100054651 2.64271637e-08 -2.452907299e-08)
(0.01100061464 1.777399081e-08 -1.765342342e-08)
(0.01100063826 1.179701334e-08 -1.022448984e-08)
(0.01100062905 7.580151788e-09 -6.870263191e-09)
(0.01100059114 1.248932485e-09 -1.717528921e-09)
(0.01100053288 -2.045262307e-09 1.826998771e-09)
(0.011000463 -4.884044193e-09 4.167759952e-09)
(0.0110003813 -5.577521265e-09 5.642327406e-09)
(0.01100029564 -6.308761161e-09 6.642472372e-09)
(0.01100020937 -7.110569013e-09 6.382736012e-09)
(0.01100012114 -7.620594806e-09 5.454428956e-09)
(0.01100004313 -7.971313004e-09 8.95656592e-09)
(0.01099995626 -7.297204332e-09 6.73219319e-09)
(0.01100029128 -6.343866258e-08 -1.530455879e-07)
(0.01100049014 -3.191807777e-08 -1.059493128e-07)
(0.01100054258 -3.00570812e-08 -9.016478008e-08)
(0.01100059271 -2.083492644e-08 -6.606388375e-08)
(0.01100058625 -9.600762284e-09 -4.132788718e-08)
(0.01100055023 -2.458608656e-09 -2.426255648e-08)
(0.0110004894 2.656274731e-09 -9.33318242e-09)
(0.01100040939 5.512633027e-09 6.301521374e-10)
(0.01100032162 7.205389933e-09 9.023661629e-09)
(0.01100022873 9.630144088e-09 1.405088306e-08)
(0.01100013719 9.744637828e-09 1.765009808e-08)
(0.01100005222 9.888750891e-09 2.080225061e-08)
(0.01099996383 9.109670777e-09 2.022682504e-08)
(0.01099989367 9.578408175e-09 2.17529499e-08)
(0.01099981281 9.545070633e-09 2.044185926e-08)
(0.01100051038 -1.417612147e-07 -1.395846045e-07)
(0.01100050611 -1.17930434e-07 -1.184684313e-07)
(0.01100051932 -7.912968407e-08 -7.771502588e-08)
(0.01100046623 -4.077610789e-08 -4.159517636e-08)
(0.01100038804 -1.545048013e-08 -1.597089435e-08)
(0.01100029147 1.385512875e-10 3.00105965e-09)
(0.01100019465 1.398314155e-08 1.43959656e-08)
(0.01100009647 2.098708269e-08 1.993066858e-08)
(0.01100000574 2.509494609e-08 2.426448942e-08)
(0.01099991831 2.650569452e-08 2.602322091e-08)
(0.01099983974 2.605288214e-08 2.606411403e-08)
(0.0109997647 2.424732272e-08 2.612937123e-08)
(0.01099970664 2.643374153e-08 2.861847994e-08)
(0.01099964326 2.387857475e-08 2.423298685e-08)
(0.01100054321 -1.252372298e-07 -2.500544683e-07)
(0.01100040496 -1.148984052e-07 -1.879698604e-07)
(0.0110003369 -6.33808182e-08 -9.81966219e-08)
(0.01100019299 -2.283497113e-08 -3.54051073e-08)
(0.01100005005 2.91272523e-09 1.985235829e-09)
(0.01099991518 2.152598841e-08 2.571173844e-08)
(0.01099979666 3.197532882e-08 3.754599057e-08)
(0.01099969689 3.490044688e-08 4.170747305e-08)
(0.01099961659 3.662742797e-08 4.193243327e-08)
(0.01099954868 3.563388745e-08 3.967719536e-08)
(0.01099949151 3.361601596e-08 3.637125176e-08)
(0.01099944798 3.134495516e-08 3.493929729e-08)
(0.01099941285 3.282629222e-08 3.505912023e-08)
(0.0109993789 2.712693357e-08 2.915315046e-08)
(0.01100049171 -1.827226954e-07 -2.542356834e-07)
(0.01100009797 -1.027358299e-07 -2.016653935e-07)
(0.01099995402 -3.561141947e-08 -7.887314673e-08)
(0.01099974714 3.82858703e-09 4.286917975e-10)
(0.010999577 2.151457389e-08 4.015790109e-08)
(0.01099944121 2.828656986e-08 6.083350568e-08)
(0.01099933988 2.763170489e-08 6.695922552e-08)
(0.0109992707 2.790079412e-08 6.300855539e-08)
(0.01099921678 2.834863569e-08 5.863601794e-08)
(0.01099918185 2.529306337e-08 5.237474804e-08)
(0.01099916158 2.318989029e-08 4.793439939e-08)
(0.01099914637 2.146912259e-08 4.192968272e-08)
(0.01099914176 2.221634625e-08 4.06145835e-08)
(0.01099913521 1.904486384e-08 3.320958978e-08)
(0.0110006678 -5.912705051e-11 -4.230030224e-07)
(0.0109999511 5.737145567e-10 -2.221326096e-07)
(0.01099972363 -4.709097439e-10 -4.314846059e-08)
(0.01099948643 7.336860912e-10 4.442546139e-08)
(0.01099931328 2.076811475e-09 7.39765061e-08)
(0.01099919492 1.356593652e-09 8.288064074e-08)
(0.01099911634 1.294330349e-09 8.26895297e-08)
(0.01099906856 2.352205633e-09 7.493317072e-08)
(0.01099903856 1.961978178e-09 6.542508416e-08)
(0.01099902471 7.671051262e-10 5.526944647e-08)
(0.01099902189 1.680058537e-09 5.087995672e-08)
(0.01099902212 -2.039421229e-10 4.304822684e-08)
(0.0109990307 3.207170676e-10 4.498118401e-08)
(0.01099903942 1.878180509e-10 3.520993082e-08)
(0.01100048783 1.826490221e-07 -2.552166731e-07)
(0.01100009765 1.015430388e-07 -2.02832006e-07)
(0.01099995459 3.650771223e-08 -7.809053651e-08)
(0.01099974929 -2.643784616e-09 2.388636162e-10)
(0.01099957409 -2.088979225e-08 3.849377468e-08)
(0.01099944144 -2.664846337e-08 5.923389004e-08)
(0.01099933835 -2.831764228e-08 6.624526404e-08)
(0.0109992669 -2.840484846e-08 6.490143483e-08)
(0.01099921688 -2.851276351e-08 5.977145545e-08)
(0.010999182 -2.418081357e-08 5.114080627e-08)
(0.01099916062 -2.207764756e-08 4.799163937e-08)
(0.01099914701 -1.947326169e-08 4.051711458e-08)
(0.01099913951 -2.023539674e-08 4.156133079e-08)
(0.01099913787 -1.903800238e-08 3.380020571e-08)
(0.01100054068 1.242204582e-07 -2.497507398e-07)
(0.01100040561 1.152212987e-07 -1.878857489e-07)
(0.0110003348 6.494668623e-08 -9.763808112e-08)
(0.01100019184 2.21418475e-08 -3.608985608e-08)
(0.01100004799 -4.3021292e-09 1.70802216e-09)
(0.01099991424 -2.10526252e-08 2.492082329e-08)
(0.010999794 -2.930010068e-08 3.889389893e-08)
(0.01099969702 -3.384019052e-08 4.349016157e-08)
(0.0109996128 -3.621915923e-08 4.233162519e-08)
(0.01099954669 -3.471771581e-08 4.026078887e-08)
(0.0109994921 -3.490232446e-08 3.769909278e-08)
(0.01099944547 -3.204959792e-08 3.288767556e-08)
(0.01099941232 -3.101103584e-08 3.596288832e-08)
(0.01099937622 -2.582671526e-08 2.894867736e-08)
(0.01100051209 1.416197005e-07 -1.406763483e-07)
(0.01100050754 1.204729653e-07 -1.167081758e-07)
(0.01100052031 7.848517412e-08 -7.582340363e-08)
(0.01100046403 4.225055651e-08 -4.19373227e-08)
(0.01100038743 1.750486785e-08 -1.769452257e-08)
(0.01100029393 9.788801492e-11 2.764215074e-09)
(0.01100018959 -1.339813362e-08 1.504025664e-08)
(0.01100009609 -2.033032402e-08 2.102072656e-08)
(0.01100000322 -2.419885911e-08 2.640983726e-08)
(0.01099991528 -2.693262593e-08 2.719976811e-08)
(0.0109998345 -2.672309426e-08 2.693313075e-08)
(0.01099976608 -2.645826204e-08 2.270022921e-08)
(0.01099970572 -2.675095447e-08 2.712317264e-08)
(0.01099964618 -2.328117305e-08 2.376655673e-08)
(0.0110004938 3.583174024e-08 -1.060000127e-07)
(0.01100054403 3.21569768e-08 -9.22453036e-08)
(0.01100059553 2.135165231e-08 -6.480296433e-08)
(0.01100058515 1.231166349e-08 -3.967428073e-08)
(0.01100055002 6.015988402e-09 -2.235382502e-08)
(0.01100048426 -8.632319413e-10 -7.693683835e-09)
(0.01100040598 -6.329594e-09 3.464458431e-09)
(0.01100031953 -6.64686601e-09 1.087210938e-08)
(0.01100022839 -9.801972983e-09 1.369825887e-08)
(0.01100013778 -1.018342001e-08 1.772584894e-08)
(0.01100005032 -9.395694805e-09 1.925040496e-08)
(0.01099996359 -9.14927199e-09 1.941990288e-08)
(0.01099989494 -9.500661466e-09 2.194293536e-08)
(0.01099981427 -8.271314093e-09 1.954277132e-08)
(0.01100025596 -1.269079997e-07 -1.952591558e-07)
(0.01100052275 -5.648957925e-08 -1.074700843e-07)
(0.01100052968 -4.80461236e-08 -9.030801377e-08)
(0.01100054269 -2.553109599e-08 -5.898024272e-08)
(0.01100048188 -6.283042698e-09 -3.226186684e-08)
(0.01100039623 9.821201577e-10 -1.171583869e-08)
(0.01100028987 9.93797506e-09 2.661175148e-09)
(0.01100017915 1.490498964e-08 1.294351248e-08)
(0.01100007429 1.770241614e-08 1.991048083e-08)
(0.01099996907 1.764700922e-08 2.14195833e-08)
(0.01099987705 1.644600594e-08 2.459010599e-08)
(0.01099979635 1.481763609e-08 2.60929712e-08)
(0.01099971939 1.436637671e-08 2.493497127e-08)
(0.01099965967 1.626674681e-08 2.71834316e-08)
(0.01099959463 1.457852311e-08 2.324335156e-08)
(0.01100021479 -5.011579301e-07 -3.234831818e-07)
(0.01100053907 -2.502042094e-07 -1.265803864e-07)
(0.01100040233 -1.893159044e-07 -1.131797293e-07)
(0.01100033506 -9.829660215e-08 -6.363145426e-08)
(0.01100019053 -3.684256605e-08 -2.25899699e-08)
(0.01100004637 2.65828297e-09 3.173986505e-09)
(0.01099991184 2.55725422e-08 2.158132165e-08)
(0.01099979544 3.640941412e-08 2.977913461e-08)
(0.0109996963 4.112484735e-08 3.353707573e-08)
(0.01099961526 4.260707325e-08 3.431911609e-08)
(0.01099954599 4.056915707e-08 3.433935348e-08)
(0.01099949176 3.715307982e-08 3.29032231e-08)
(0.01099944807 3.440496021e-08 2.959304606e-08)
(0.01099941327 3.423440547e-08 3.295386244e-08)
(0.01099937653 3.002748576e-08 2.648701851e-08)
(0.01100049899 -2.303144522e-07 -2.306038255e-07)
(0.01100000495 -1.83123293e-07 -1.835854926e-07)
(0.01099976218 -6.5939395e-08 -6.518699458e-08)
(0.01099948346 8.641168837e-09 9.075255274e-09)
(0.01099928171 4.541159842e-08 4.432039397e-08)
(0.01099914436 6.152752979e-08 6.000569235e-08)
(0.01099905991 6.463304427e-08 6.274953816e-08)
(0.01099901192 6.172498008e-08 6.079153332e-08)
(0.01099899164 5.610389881e-08 5.475954923e-08)
(0.01099898822 5.211485293e-08 4.736276353e-08)
(0.01099899545 4.532187691e-08 4.407422801e-08)
(0.01099900685 4.11714409e-08 4.011914131e-08)
(0.01099902395 4.119420859e-08 4.026207452e-08)
(0.01099903773 3.133815833e-08 3.150537006e-08)
(0.01099999261 -3.311086784e-07 -3.541143836e-08)
(0.01099887149 -1.344660612e-07 -1.571878087e-07)
(0.01099856588 4.22097336e-09 8.933785579e-09)
(0.01099829305 6.38480519e-08 9.495048165e-08)
(0.01099816922 7.302179382e-08 1.160306623e-07)
(0.01099815088 7.082526286e-08 1.164940458e-07)
(0.01099818877 6.144559544e-08 1.037561323e-07)
(0.01099825838 5.253442678e-08 8.909471783e-08)
(0.01099834316 4.506592026e-08 7.457495166e-08)
(0.01099843014 3.692328752e-08 6.16570284e-08)
(0.01099851225 3.431698976e-08 5.350365895e-08)
(0.01099859116 2.707311266e-08 4.588547537e-08)
(0.01099866057 2.829300071e-08 4.773003437e-08)
(0.01099872946 2.398324252e-08 3.637991102e-08)
(0.01099995046 -1.247473946e-09 2.243705157e-07)
(0.01099789786 -1.772747837e-10 -1.883908553e-08)
(0.01099761455 -8.092049062e-10 1.350854611e-07)
(0.01099746291 -6.119689503e-10 1.984769041e-07)
(0.01099748181 -3.140032479e-10 1.804158357e-07)
(0.01099759938 6.692528685e-11 1.534626237e-07)
(0.01099774482 9.376689613e-10 1.246959553e-07)
(0.01099789847 5.844930485e-10 1.00574898e-07)
(0.01099804867 1.030048467e-09 8.042025344e-08)
(0.0109981881 8.617205818e-10 6.502177599e-08)
(0.01099830722 9.11237743e-10 5.66036302e-08)
(0.01099841894 2.265030426e-10 4.705976038e-08)
(0.01099851599 1.460281936e-09 4.842150182e-08)
(0.01099860303 2.86060919e-09 3.86372127e-08)
(0.01099999205 3.321760674e-07 -3.679579077e-08)
(0.01099887091 1.342522465e-07 -1.562801353e-07)
(0.01099856618 -3.172453216e-09 9.568812373e-09)
(0.01099829207 -6.215939291e-08 9.263758364e-08)
(0.01099816932 -7.18378216e-08 1.13738417e-07)
(0.01099814932 -6.889570535e-08 1.150417278e-07)
(0.01099818883 -5.954419401e-08 1.038185523e-07)
(0.01099825798 -5.110535896e-08 8.992067372e-08)
(0.01099834273 -4.300966351e-08 7.358308058e-08)
(0.01099842509 -3.598554601e-08 6.346793554e-08)
(0.01099851305 -3.310340545e-08 5.4333922e-08)
(0.01099859106 -2.800580706e-08 4.648547911e-08)
(0.01099866121 -2.70611419e-08 4.736268237e-08)
(0.01099873042 -2.293059847e-08 3.720062092e-08)
(0.01100049959 2.305967507e-07 -2.300218792e-07)
(0.01100000885 1.847798836e-07 -1.827436353e-07)
(0.01099976156 6.770388014e-08 -6.485769686e-08)
(0.01099948409 -6.405356016e-09 8.557917203e-09)
(0.01099927963 -4.459296204e-08 4.46839413e-08)
(0.01099914199 -5.910072815e-08 6.096247901e-08)
(0.01099905751 -6.428762992e-08 6.364346144e-08)
(0.0109990112 -5.99318825e-08 5.916921589e-08)
(0.0109989899 -5.57587674e-08 5.550679398e-08)
(0.01099898614 -5.029071075e-08 4.828067846e-08)
(0.01099899277 -4.516805261e-08 4.520266245e-08)
(0.01099900847 -3.88389978e-08 3.900443185e-08)
(0.01099902251 -4.143700809e-08 3.863514168e-08)
(0.01099903715 -3.280294971e-08 3.206335635e-08)
(0.01100054158 2.515388076e-07 -1.246538297e-07)
(0.01100040544 1.896002237e-07 -1.133811104e-07)
(0.01100033471 9.91533942e-08 -6.385587303e-08)
(0.01100019026 3.710371148e-08 -2.128578298e-08)
(0.01100004856 -1.37624537e-09 4.776854774e-09)
(0.010999912 -2.527808885e-08 2.10332277e-08)
(0.01099979222 -3.738579617e-08 2.901574912e-08)
(0.01099969581 -4.078869697e-08 3.469553318e-08)
(0.01099961312 -4.137284441e-08 3.580705212e-08)
(0.01099954303 -3.968001283e-08 3.254702302e-08)
(0.01099949076 -3.761115447e-08 3.333914053e-08)
(0.01099944647 -3.333590616e-08 3.031894695e-08)
(0.01099941282 -3.440730982e-08 3.149850763e-08)
(0.01099937714 -2.873128198e-08 2.547710813e-08)
(0.01100052507 6.059410633e-08 -1.083653985e-07)
(0.01100053049 4.863065682e-08 -9.38757856e-08)
(0.01100054868 2.780023178e-08 -6.111326677e-08)
(0.011000483 1.152583659e-08 -3.163835314e-08)
(0.01100039521 3.911940656e-10 -1.302814416e-08)
(0.01100028835 -7.570304187e-09 1.803057982e-09)
(0.01100017748 -1.201182252e-08 1.144736123e-08)
(0.01100006945 -1.411831049e-08 1.743042028e-08)
(0.01099996933 -1.405871688e-08 2.225291725e-08)
(0.01099987664 -1.446024533e-08 2.168745519e-08)
(0.01099979526 -1.200506197e-08 2.313145583e-08)
(0.01099972012 -1.106777806e-08 2.411296343e-08)
(0.01099965662 -1.165641398e-08 2.606398888e-08)
(0.01099959276 -1.154873907e-08 2.130351409e-08)
(0.0110002488 -1.840074557e-07 -2.904164689e-07)
(0.01100055096 -4.732224156e-08 -1.39904828e-07)
(0.01100046141 -4.821468096e-08 -8.995810021e-08)
(0.01100042727 -2.166512844e-08 -4.531738081e-08)
(0.01100031518 -1.077672158e-09 -1.594322678e-08)
(0.01100018401 1.346246958e-08 -8.978312061e-10)
(0.01100005209 2.009434148e-08 8.689044371e-09)
(0.01099992322 1.999122901e-08 1.290435152e-08)
(0.01099980974 2.02257895e-08 1.35013108e-08)
(0.01099970779 2.088482242e-08 1.61314345e-08)
(0.01099962312 1.961194936e-08 1.802343374e-08)
(0.01099955064 1.688526112e-08 1.614986831e-08)
(0.0109994939 1.477182968e-08 1.593346717e-08)
(0.01099944138 1.587441356e-08 1.821427038e-08)
(0.01099939614 1.221375573e-08 1.556428529e-08)
(0.01100018542 -7.888117798e-07 -5.92831997e-07)
(0.01100049157 -2.536196671e-07 -1.809256079e-07)
(0.01100009666 -2.012765971e-07 -1.020407772e-07)
(0.01099995343 -7.886553729e-08 -3.451001392e-08)
(0.01099974698 3.408811463e-10 3.329786156e-09)
(0.01099957583 3.912125129e-08 2.140598593e-08)
(0.0109994391 5.885726725e-08 2.778044744e-08)
(0.01099933707 6.456351588e-08 2.872683151e-08)
(0.01099926697 6.371411887e-08 2.808372169e-08)
(0.01099921736 5.744155186e-08 2.598979277e-08)
(0.01099918202 5.117077793e-08 2.45673631e-08)
(0.01099915863 4.692202687e-08 2.296774725e-08)
(0.01099914602 4.202786272e-08 2.073232538e-08)
(0.01099914196 4.052615108e-08 2.136387043e-08)
(0.01099913814 3.360265617e-08 1.807094581e-08)
(0.01099973009 -1.177561925e-06 -1.667724042e-06)
(0.01099999369 -3.403326851e-08 -3.328260315e-07)
(0.01099886869 -1.574695415e-07 -1.329390768e-07)
(0.0109985637 8.303230602e-09 4.891332618e-09)
(0.010998293 9.422884609e-08 6.354046754e-08)
(0.01099816786 1.155300758e-07 7.328229947e-08)
(0.01099815087 1.152087402e-07 6.975537897e-08)
(0.01099818906 1.050207688e-07 5.995206941e-08)
(0.01099825816 8.995023203e-08 5.149445176e-08)
(0.01099834185 7.614666077e-08 4.264789404e-08)
(0.0109984282 6.426439252e-08 3.81956826e-08)
(0.01099851282 5.471214232e-08 3.253115122e-08)
(0.01099859223 4.656799805e-08 2.740826842e-08)
(0.01099866057 4.85065773e-08 2.727029612e-08)
(0.01099872979 3.697242318e-08 2.222634489e-08)
(0.0109971933 2.68341716e-07 2.701679197e-07)
(0.01099520849 6.143237028e-08 6.207544081e-08)
(0.01099551707 1.651717862e-07 1.652839496e-07)
(0.01099569793 1.935330691e-07 1.935710092e-07)
(0.01099603408 1.595034167e-07 1.586163611e-07)
(0.01099642675 1.246962087e-07 1.233893976e-07)
(0.01099679023 9.541346139e-08 9.353275295e-08)
(0.01099712727 7.268856783e-08 7.295926925e-08)
(0.01099741565 5.672844249e-08 5.532224566e-08)
(0.01099766793 4.588811292e-08 4.444741127e-08)
(0.01099787822 3.948089912e-08 3.738038575e-08)
(0.01099806743 3.134658882e-08 3.087174443e-08)
(0.01099821488 3.326597927e-08 3.404119457e-08)
(0.01099835872 2.712008957e-08 2.612019366e-08)
(0.01099375866 -1.243116995e-09 2.097673691e-06)
(0.01099047681 -2.345185609e-11 7.961446639e-07)
(0.0109924432 -9.394192479e-11 4.755658295e-07)
(0.01099361753 -1.052557104e-09 3.680736721e-07)
(0.01099458735 1.01302624e-10 2.384819603e-07)
(0.010995409 1.416434505e-10 1.578898305e-07)
(0.01099605523 4.971586634e-10 1.086133251e-07)
(0.01099657419 7.868570745e-10 7.900022594e-08)
(0.01099699084 8.226008164e-11 5.984275996e-08)
(0.01099733303 8.816309505e-10 4.663093532e-08)
(0.01099760906 1.760188251e-09 3.843514273e-08)
(0.01099784961 7.043141767e-10 3.227467173e-08)
(0.01099803207 -2.648592575e-11 3.416970412e-08)
(0.01099821037 9.220213259e-10 2.144451805e-08)
(0.01099719586 -2.687832542e-07 2.71136346e-07)
(0.01099521003 -6.192332813e-08 6.233039607e-08)
(0.01099551322 -1.639230466e-07 1.648327414e-07)
(0.01099569844 -1.921527188e-07 1.941289139e-07)
(0.01099603591 -1.590238411e-07 1.591014464e-07)
(0.01099642579 -1.239403892e-07 1.233575298e-07)
(0.01099679202 -9.346598967e-08 9.441108599e-08)
(0.01099712538 -7.248761843e-08 7.223011188e-08)
(0.01099741656 -5.533860756e-08 5.694658673e-08)
(0.01099766719 -4.531874648e-08 4.4876665e-08)
(0.01099787641 -3.862667196e-08 3.780809582e-08)
(0.0109980674 -3.165105147e-08 3.214581914e-08)
(0.01099821464 -3.213347502e-08 3.260640068e-08)
(0.01099836103 -2.548557043e-08 2.635626295e-08)
(0.01099999365 3.656294036e-08 -3.312944905e-07)
(0.01099887215 1.582963899e-07 -1.336044388e-07)
(0.01099856394 -7.720129014e-09 4.877991103e-09)
(0.01099829045 -9.171076053e-08 6.32623098e-08)
(0.01099816553 -1.122096062e-07 7.245615804e-08)
(0.01099814999 -1.148809895e-07 6.982785837e-08)
(0.01099818724 -1.052943976e-07 6.162719112e-08)
(0.01099825728 -9.112243713e-08 5.140865675e-08)
(0.01099834399 -7.547462003e-08 4.288456951e-08)
(0.0109984302 -6.358937663e-08 3.617092384e-08)
(0.0109985113 -5.451055859e-08 3.279168038e-08)
(0.01099859369 -4.575322588e-08 2.901037727e-08)
(0.01099866125 -4.819337931e-08 2.81337763e-08)
(0.01099873177 -3.741066126e-08 2.256927205e-08)
(0.0110004912 2.533763865e-07 -1.809713739e-07)
(0.01100009677 2.02702572e-07 -1.021972701e-07)
(0.01099995425 7.816733733e-08 -3.658042183e-08)
(0.01099974588 -3.137433641e-10 3.793920722e-09)
(0.01099957146 -4.008287395e-08 2.144708886e-08)
(0.01099943864 -5.909527307e-08 2.844896126e-08)
(0.01099933657 -6.611901971e-08 2.962207594e-08)
(0.01099926703 -6.205629433e-08 2.847535473e-08)
(0.01099921456 -5.755643303e-08 2.586860046e-08)
(0.01099918121 -5.384025865e-08 2.481634546e-08)
(0.01099915999 -4.850429263e-08 2.43474558e-08)
(0.01099914856 -4.178486551e-08 2.225074662e-08)
(0.01099914126 -4.086656469e-08 2.137246657e-08)
(0.01099913609 -3.402685475e-08 1.898347703e-08)
(0.01100055147 4.789526015e-08 -1.411213049e-07)
(0.01100046089 4.807703995e-08 -8.976161957e-08)
(0.01100042775 2.18161284e-08 -4.780368546e-08)
(0.01100031434 9.897905895e-10 -1.993164455e-08)
(0.01100018488 -1.023213216e-08 -1.272991118e-09)
(0.01100004732 -1.723660058e-08 7.491780677e-09)
(0.01099992207 -1.976159288e-08 1.337658441e-08)
(0.01099981115 -2.212251447e-08 1.373764204e-08)
(0.01099970809 -1.963786384e-08 1.529683528e-08)
(0.01099962114 -1.725939716e-08 1.674588826e-08)
(0.01099955225 -1.730139491e-08 1.753055694e-08)
(0.01099949212 -1.369361415e-08 1.669062125e-08)
(0.01099944249 -1.346166229e-08 1.625027053e-08)
(0.01099939429 -1.202408867e-08 1.600182262e-08)
(0.01100019128 -4.164168746e-07 3.346851189e-10)
(0.01100066396 -8.869499173e-08 2.345125726e-10)
(0.01100047769 -5.60137278e-08 5.618657279e-10)
(0.0110003919 -1.166853913e-08 3.005285687e-10)
(0.01100023686 1.380116558e-08 2.93776599e-10)
(0.011000082 2.424671148e-08 2.101718042e-09)
(0.0109999374 2.827326243e-08 1.321694424e-10)
(0.01099980336 2.737073142e-08 -8.168990558e-10)
(0.01099969184 2.649410179e-08 -8.03606378e-10)
(0.01099959791 2.297404226e-08 1.572297504e-10)
(0.01099951534 2.108470796e-08 -6.776362846e-10)
(0.01099945122 1.915381982e-08 1.044381316e-10)
(0.01099939666 1.709249935e-08 4.860675285e-10)
(0.01099935444 1.85146633e-08 -8.103104686e-10)
(0.01099931676 1.477168409e-08 8.84398615e-10)
(0.01100003417 -1.850022121e-06 8.128465174e-12)
(0.01100066716 -4.243708038e-07 2.636968434e-10)
(0.01099995165 -2.229842722e-07 5.717922958e-10)
(0.01099972186 -4.393363807e-08 -5.749097077e-10)
(0.01099948613 4.6056205e-08 7.711027471e-10)
(0.01099931211 7.367526152e-08 -1.899305728e-09)
(0.01099919453 8.461149269e-08 1.366769025e-10)
(0.01099911355 8.373615099e-08 -1.948923956e-09)
(0.0109990678 7.593440993e-08 -9.071869956e-10)
(0.01099904051 6.602299326e-08 -2.958148194e-10)
(0.01099902784 5.588028381e-08 -4.093796268e-10)
(0.01099902159 4.929903332e-08 1.370197114e-09)
(0.01099902364 4.29416795e-08 1.860138411e-09)
(0.01099902913 4.219739194e-08 1.464842148e-09)
(0.01099903895 3.544616967e-08 -2.638393035e-10)
(0.01099875455 -3.79681009e-06 8.819326598e-10)
(0.01099994976 2.238326403e-07 4.126469368e-10)
(0.01099789936 -1.914039535e-08 2.266568038e-10)
(0.01099761064 1.350361784e-07 7.832905206e-10)
(0.01099746173 1.970458348e-07 -4.241882064e-12)
(0.01099748123 1.801536243e-07 1.742402859e-09)
(0.01099759888 1.510169846e-07 1.289899506e-09)
(0.01099774424 1.25276366e-07 -1.801084646e-10)
(0.01099789801 1.012102429e-07 -9.795792259e-11)
(0.01099804868 8.344698351e-08 -9.343435523e-10)
(0.01099818523 6.705303379e-08 -1.492568733e-09)
(0.0109983078 5.839650825e-08 -9.159477596e-10)
(0.01099842118 4.761269123e-08 2.291575853e-11)
(0.01099851191 4.975232603e-08 -1.481447184e-10)
(0.01099860543 3.705541257e-08 8.126508136e-11)
(0.01099090241 -1.671937651e-05 4.911428637e-11)
(0.01099375328 2.096249235e-06 6.988705255e-11)
(0.01099047486 7.949556761e-07 4.83415283e-10)
(0.01099244304 4.742794942e-07 -2.292399095e-10)
(0.01099361775 3.663082893e-07 1.085872879e-09)
(0.01099458621 2.374988207e-07 -6.834798245e-10)
(0.01099540763 1.585602832e-07 -7.041556469e-10)
(0.01099605587 1.089987227e-07 -8.984953525e-10)
(0.01099657325 8.098286802e-08 8.248086612e-10)
(0.01099699011 6.070463028e-08 -7.478634771e-10)
(0.01099733079 4.805825424e-08 -3.619092973e-10)
(0.01099761026 3.949982467e-08 1.188958166e-09)
(0.01099784836 3.425198118e-08 2.019762138e-10)
(0.01099802899 3.532039674e-08 -8.871214853e-10)
(0.01099820961 2.357901051e-08 -2.590882345e-10)
(0.01098397466 -4.615857161e-10 -1.14947843e-10)
(0.01097713777 1.0619729e-09 1.814014113e-09)
(0.01098589779 9.463930866e-10 -2.613679503e-10)
(0.01099006893 4.230796448e-10 -8.004388641e-10)
(0.0109924388 6.802413471e-10 -9.967280769e-10)
(0.01099404107 8.466241645e-10 -3.925736226e-10)
(0.0109951335 5.580598966e-10 8.829199255e-10)
(0.01099591611 7.595013023e-10 -1.752256796e-10)
(0.01099649705 1.091908616e-09 -5.314275623e-11)
(0.01099695115 9.026260045e-10 4.426647137e-10)
(0.01099730721 9.199895402e-10 -6.925778714e-10)
(0.01099760633 3.844816352e-10 2.951700418e-10)
(0.01099782494 -7.702948692e-11 -1.591406942e-09)
(0.01099805797 8.448826218e-10 -3.27432737e-10)
(0.01099375702 -2.09701058e-06 -7.564870523e-10)
(0.01099047497 -7.959143768e-07 1.959499901e-09)
(0.0109924434 -4.75495397e-07 2.27596293e-10)
(0.01099361685 -3.658681036e-07 1.341738189e-10)
(0.01099458591 -2.392566204e-07 3.100663153e-10)
(0.01099540606 -1.57670926e-07 4.935735506e-10)
(0.01099605387 -1.08634778e-07 1.056270211e-09)
(0.01099657462 -7.892302683e-08 1.008056471e-10)
(0.01099699104 -5.91409706e-08 9.337943675e-11)
(0.01099733188 -4.666112229e-08 1.23626893e-09)
(0.01099760659 -3.866361747e-08 -8.802829628e-10)
(0.01099784673 -3.067352215e-08 4.629328598e-10)
(0.01099803332 -3.36577742e-08 -7.971051325e-10)
(0.01099820813 -2.106984258e-08 5.313892715e-10)
(0.01099994653 -2.224900562e-07 1.159254544e-09)
(0.01099789559 1.890418977e-08 2.592639872e-10)
(0.01099761046 -1.353894239e-07 -6.683613102e-10)