/*--------------------------------*- C++ -*----------------------------------*\
| =========                 |                                                 |
| \\      /  F ield         | OpenFOAM: The Open Source CFD Toolbox           |
|  \\    /   O peration     | Version:  4.x                                   |
|   \\  /    A nd           | Web:      www.OpenFOAM.org                      |
|    \\/     M anipulation  |                                                 |
\*---------------------------------------------------------------------------*/
FoamFile
{
    version     2.0;
    format      ascii;
    class       volScalarField;
    location    "3000";
    object      X_CO2;
}
// * * * * * * * * * * * * * * * * * * * * * * * * * * * * * * * * * * * * * //

dimensions      [0 0 0 0 0 0 0];

internalField   nonuniform List<scalar> 
1174
(
0.04001031445
0.04001249686
0.04001554673
0.04001948672
0.04002426107
0.04002975322
0.0400358088
0.04004225782
0.04004893222
0.04005567691
0.04006235114
0.04006880659
0.04007478047
0.04007943766
0.04001231938
0.04001575417
0.0400202827
0.04002578392
0.04003205671
0.04003886636
0.04004598079
0.04005319321
0.04006033289
0.04006726663
0.04007389139
0.04008010769
0.0400857198
0.04009002112
0.04001669861
0.04002266012
0.0400299626
0.04003817843
0.04004685976
0.04005561477
0.04006414103
0.04007222964
0.04007975334
0.04008664818
0.04009289223
0.04009847425
0.04010330971
0.04010690779
0.04002302359
0.04003215667
0.0400425392
0.04005340291
0.04006412412
0.04007426739
0.04008357111
0.04009191051
0.04009925768
0.04010564685
0.04011114599
0.04011582766
0.04011970676
0.04012249738
0.04002746653
0.04003830801
0.0400500298
0.04006180472
0.04007304858
0.04008340012
0.04009267365
0.04010080948
0.04010783143
0.04011381366
0.04011885517
0.04012305511
0.04012646194
0.04012887106
0.0400230235
0.04003215653
0.04004253903
0.0400534027
0.04006412388
0.04007426713
0.04008357083
0.04009191022
0.04009925738
0.04010564654
0.04011114568
0.04011582734
0.04011970644
0.04012249706
0.04001669846
0.04002265991
0.04002996234
0.04003817812
0.0400468594
0.04005561437
0.0400641406
0.04007222918
0.04007975284
0.04008664767
0.0400928917
0.0400984737
0.04010330915
0.04010690722
0.04001231925
0.040015754
0.04002028248
0.04002578365
0.04003205639
0.04003886599
0.04004598037
0.04005319274
0.04006033238
0.04006726608
0.0400738908
0.04008010707
0.04008571915
0.04009002045
0.04001031434
0.04001249673
0.04001554657
0.04001948651
0.04002426083
0.04002975292
0.04003580845
0.04004225741
0.04004893175
0.04005567639
0.04006235057
0.04006880597
0.04007477981
0.04007943696
0.04000997456
0.04001231938
0.04001575417
0.0400202827
0.04002578392
0.04003205671
0.04003886636
0.04004598079
0.04005319321
0.04006033289
0.04006726663
0.04007389138
0.04008010768
0.04008571979
0.04009002111
0.04001676436
0.04002267068
0.04002980268
0.04003771989
0.04004599307
0.04005426967
0.0400622939
0.04006990016
0.04007699505
0.04008353669
0.04008951377
0.04009491555
0.04009964865
0.04010320363
0.04002780416
0.04003904707
0.04005113918
0.0400630605
0.04007413599
0.0400840167
0.04009259457
0.04009991172
0.04010608876
0.0401112764
0.04011562508
0.04011926193
0.04012224568
0.04012438397
0.04004711611
0.04006549973
0.04008278444
0.04009772385
0.04010993012
0.04011951898
0.04012683784
0.04013230021
0.04013630049
0.04013917847
0.04014121081
0.04014261462
0.0401435522
0.0401441105
0.04006501898
0.04008691047
0.04010526104
0.04011966977
0.04013049696
0.04013835625
0.04014387822
0.04014761769
0.04015002864
0.04015146809
0.04015221077
0.04015246806
0.04015241367
0.04015223291
0.04004711579
0.04006549932
0.040082784
0.04009772338
0.04010992965
0.04011951851
0.04012683738
0.04013229976
0.04013630004
0.04013917804
0.04014121039
0.04014261421
0.04014355181
0.04014411011
0.04002780372
0.04003904654
0.0400511386
0.04006305987
0.04007413533
0.04008401602
0.04009259388
0.04009991102
0.04010608806
0.0401112757
0.04011562439
0.04011926124
0.040122245
0.04012438329
0.04001676404
0.04002267033
0.04002980228
0.04003771943
0.04004599255
0.04005426909
0.04006229327
0.04006989949
0.04007699434
0.04008353595
0.040089513
0.04009491477
0.04009964785
0.04010320281
0.04001231925
0.04001575399
0.04002028246
0.04002578362
0.04003205634
0.04003886592
0.04004598028
0.04005319264
0.04006033226
0.04006726595
0.04007389065
0.04008010692
0.04008571899
0.04009002027
0.04001236438
0.0400166986
0.04002266008
0.04002996255
0.04003817838
0.04004685971
0.04005561471
0.04006414097
0.04007222957
0.04007975326
0.0400866481
0.04009289215
0.04009847417
0.04010330962
0.04010690771
0.04001862021
0.04002780417
0.04003904705
0.04005113916
0.04006306048
0.04007413597
0.04008401668
0.04009259455
0.04009991169
0.04010608873
0.04011127636
0.04011562504
0.04011926189
0.04012224563
0.04012438392
0.04005989285
0.04008307565
0.04010378971
0.04012054666
0.04013312625
0.04014198824
0.04014784834
0.04015143714
0.04015339018
0.04015421446
0.04015429378
0.04015391234
0.04015329518
0.0401526999
0.04013010138
0.04016841171
0.04019430743
0.04020916185
0.04021574205
0.04021673497
0.04021425974
0.04020982342
0.04020443038
0.04019871812
0.04019307663
0.0401877514
0.0401829782
0.040179357
0.0402204668
0.04025772926
0.04027300658
0.04027489895
0.04026942765
0.04026032312
0.0402497621
0.04023896172
0.04022857092
0.04021891059
0.04021012018
0.04020226258
0.04019547191
0.0401904323
0.04013009983
0.04016841016
0.04019430599
0.04020916057
0.04021574092
0.04021673398
0.04021425886
0.04020982265
0.04020442969
0.0401987175
0.04019307606
0.04018775087
0.0401829777
0.04017935653
0.0400598914
0.04008307432
0.04010378842
0.0401205454
0.04013312503
0.04014198708
0.04014784723
0.0401514361
0.04015338919
0.04015421352
0.04015429288
0.04015391149
0.04015329436
0.0401526991
0.04002780368
0.04003904645
0.04005113846
0.04006305969
0.0400741351
0.04008401576
0.04009259359
0.04009991071
0.04010608774
0.04011127536
0.04011562404
0.0401192609
0.04012224464
0.04012438294
0.04001669843
0.04002265984
0.04002996222
0.04003817795
0.04004685918
0.04005561409
0.04006414027
0.0400722288
0.04007975243
0.04008664723
0.04009289123
0.04009847322
0.04010330864
0.0401069067
0.0400159015
0.04002302355
0.04003215656
0.04004253907
0.04005340276
0.04006412396
0.04007426722
0.04008357094
0.04009191033
0.0400992575
0.04010564667
0.04011114581
0.04011582748
0.04011970658
0.04012249721
0.04003000123
0.04004711617
0.04006549965
0.04008278435
0.04009772375
0.04010993001
0.04011951885
0.04012683771
0.04013230007
0.04013630034
0.04013917832
0.04014121066
0.04014261447
0.04014355206
0.04014411036
0.04008256047
0.04013010144
0.04016841154
0.04019430722
0.04020916165
0.04021574185
0.04021673479
0.04021425957
0.04020982326
0.04020443023
0.04019871798
0.0401930765
0.04018775128
0.04018297808
0.04017935689
0.0403673484
0.0404134031
0.04041914688
0.04040358399
0.04037887884
0.04035175008
0.04032551652
0.04030159957
0.04028044085
0.04026201544
0.04024610804
0.04023248054
0.04022108877
0.04021282265
0.04082525311
0.04076053908
0.0406655012
0.04057571124
0.04050008321
0.04043876923
0.04038954208
0.04034992789
0.04031781575
0.04029155265
0.04026989261
0.04025194935
0.04023730674
0.04022684214
0.04036734251
0.040413399
0.04041914389
0.04040358173
0.0403788771
0.04035174872
0.04032551543
0.04030159868
0.0402804401
0.04026201478
0.04024610747
0.04023248001
0.04022108828
0.04021282218
0.04013009982
0.0401684098
0.04019430546
0.04020915994
0.04021574024
0.04021673328
0.04021425818
0.04020982198
0.04020442905
0.04019871688
0.04019307548
0.04018775031
0.04018297716
0.04017935601
0.04004711564
0.04006549897
0.04008278349
0.04009772275
0.04010992893
0.04011951772
0.04012683655
0.04013229891
0.04013629919
0.04013917719
0.04014120955
0.04014261337
0.04014355098
0.04014410929
0.04002302342
0.04003215635
0.04004253874
0.0400534023
0.04006412338
0.04007426653
0.04008357014
0.04009190946
0.04009925656
0.04010564568
0.04011114479
0.04011582642
0.0401197055
0.04012249611
0.04001851124
0.04002746643
0.04003830781
0.04005002956
0.04006180446
0.0400730483
0.04008339983
0.04009267336
0.04010080919
0.04010783114
0.04011381338
0.04011885489
0.04012305484
0.04012646168
0.0401288708
0.04004167213
0.04006501885
0.04008691009
0.04010526063
0.04011966936
0.04013049656
0.04013835587
0.04014387786
0.04014761735
0.04015002832
0.04015146779
0.04015221049
0.04015246779
0.04015241342
0.04015223267
0.04015274502
0.04022046711
0.04025772868
0.04027300598
0.04027489843
0.04026942719
0.04026032271
0.04024976174
0.0402389614
0.04022857064
0.04021891033
0.04021011993
0.04020226235
0.0401954717
0.0401904321
0.0407487898
0.04082525179
0.04076053774
0.04066550003
0.04057571023
0.04050008237
0.04043876853
0.0403895415
0.04034992739
0.04031781532
0.04029155228
0.04026989228
0.04025194907
0.04023730649
0.04022684193
0.04277948056
0.04177040573
0.04121605563
0.04089335819
0.04069425476
0.04056433
0.04047508062
0.04041095192
0.04036309275
0.04032625191
0.04029719376
0.04027390023
0.04025533378
0.04024225384
0.0408252528
0.040760534
0.04066549685
0.04057570795
0.04050008071
0.04043876726
0.04038954047
0.04034992655
0.0403178146
0.04029155164
0.04026989171
0.04025194854
0.040237306
0.04022684145
0.04022046645
0.04025772737
0.04027300439
0.04027489679
0.04026942561
0.04026032124
0.04024976037
0.04023896013
0.04022856946
0.04021890923
0.0402101189
0.04020226138
0.04019547077
0.0401904312
0.04006501874
0.04008690977
0.04010526007
0.04011966861
0.04013049569
0.0401383549
0.04014387684
0.04014761629
0.04015002725
0.04015146672
0.04015220941
0.04015246672
0.04015241236
0.04015223161
0.04002746641
0.04003830772
0.04005002934
0.04006180409
0.0400730478
0.0400833992
0.04009267262
0.04010080836
0.04010783023
0.04011381242
0.04011885388
0.04012305379
0.0401264606
0.04012886971
0.04001590142
0.04002302339
0.04003215634
0.04004253879
0.04005340243
0.04006412359
0.04007426682
0.04008357052
0.0400919099
0.04009925705
0.04010564622
0.04011114536
0.04011582703
0.04011970613
0.04012249676
0.04003000084
0.04004711553
0.04006549888
0.04008278351
0.04009772289
0.04010992917
0.04011951804
0.04012683693
0.04013229934
0.04013629964
0.04013917766
0.04014121004
0.04014261387
0.04014355148
0.0401441098
0.04008255859
0.04013009945
0.0401684094
0.04019430526
0.04020915992
0.04021574033
0.04021673344
0.04021425838
0.04020982221
0.04020442928
0.04019871712
0.04019307572
0.04018775055
0.0401829774
0.04017935624
0.04025982547
0.04036734166
0.04041339761
0.04041914263
0.04040358064
0.04037887615
0.04035174789
0.0403255147
0.04030159803
0.04028043953
0.04026201427
0.04024610701
0.0402324796
0.04022108791
0.04021282185
0.04074878826
0.04082524945
0.04076053163
0.04066549518
0.04057570672
0.04050007978
0.04043876653
0.04038953989
0.04034992606
0.04031781419
0.0402915513
0.04026989141
0.04025194828
0.04023730577
0.04022684125
0.04025982616
0.04036734056
0.04041339616
0.04041914124
0.04040357941
0.04037887508
0.04035174693
0.04032551384
0.04030159726
0.04028043882
0.04026201363
0.04024610641
0.04023247905
0.0402210874
0.04021282136
0.04013010145
0.04016841009
0.04019430518
0.0402091594
0.04021573957
0.04021673257
0.04021425745
0.04020982127
0.04020442835
0.0401987162
0.04019307482
0.04018774968
0.04018297655
0.04017935541
0.04004711615
0.0400654993
0.04008278366
0.04009772279
0.04010992885
0.04011951756
0.04012683633
0.04013229864
0.04013629887
0.04013917684
0.04014120918
0.04014261299
0.04014355058
0.04014410888
0.04002302355
0.04003215647
0.04004253882
0.04005340233
0.04006412336
0.04007426646
0.04008357003
0.0400919093
0.04009925636
0.04010564545
0.04011114453
0.04011582614
0.0401197052
0.04012249579
0.04001236427
0.04001669839
0.04002265978
0.04002996216
0.04003817791
0.04004685917
0.04005561411
0.04006414032
0.04007222888
0.04007975254
0.04008664735
0.04009289138
0.04009847338
0.04010330883
0.0401069069
0.04001861981
0.04002780358
0.04003904631
0.04005113832
0.04006305957
0.04007413501
0.04008401569
0.04009259354
0.04009991068
0.04010608772
0.04011127536
0.04011562405
0.04011926092
0.04012224468
0.04012438297
0.04003749154
0.04005989111
0.04008307385
0.04010378791
0.0401205449
0.04013312454
0.0401419866
0.04014784677
0.04015143566
0.04015338877
0.04015421313
0.04015429251
0.04015391113
0.04015329401
0.04015269877
0.04008255858
0.04013009918
0.0401684089
0.04019430458
0.04020915914
0.04021573951
0.04021673263
0.04021425759
0.04020982145
0.04020442856
0.04019871644
0.04019307507
0.04018774994
0.04018297681
0.04017935567
0.04015274453
0.0402204651
0.04025772601
0.04027300322
0.04027489581
0.04026942478
0.04026032054
0.04024975977
0.04023895961
0.04022856899
0.04021890882
0.04021011854
0.04020226105
0.04019547047
0.04019043092
0.04008255829
0.0401300987
0.04016840834
0.04019430401
0.04020915858
0.04021573898
0.04021673213
0.04021425711
0.040209821
0.04020442813
0.04019871602
0.04019307467
0.04018774954
0.04018297644
0.0401793553
0.04003749212
0.04005989162
0.04008307416
0.04010378799
0.04012054477
0.04013312426
0.04014198621
0.0401478463
0.04015143513
0.0401533882
0.04015421253
0.04015429189
0.0401539105
0.04015329338
0.04015269813
0.04002780413
0.04003904669
0.04005113855
0.04006305964
0.04007413494
0.04008401549
0.04009259323
0.04009991027
0.04010608723
0.04011127481
0.04011562344
0.04011926026
0.04012224398
0.04012438225
0.0400166986
0.04002265999
0.04002996233
0.040038178
0.04004685916
0.040055614
0.04006414012
0.04007222858
0.04007975214
0.04008664687
0.04009289082
0.04009847276
0.04010330814
0.04010690617
0.04000997446
0.04001231921
0.04001575392
0.04002028237
0.04002578351
0.04003205622
0.04003886579
0.04004598014
0.0400531925
0.04006033211
0.0400672658
0.0400738905
0.04008010676
0.04008571884
0.04009002013
0.04001241348
0.04001676398
0.04002267022
0.04002980214
0.04003771926
0.04004599235
0.04005426888
0.04006229303
0.04006989924
0.04007699408
0.04008353568
0.04008951272
0.04009491448
0.04009964756
0.04010320252
0.04001861983
0.0400278036
0.0400390463
0.04005113828
0.04006305949
0.04007413489
0.04008401553
0.04009259335
0.04009991046
0.04010608748
0.0401112751
0.04011562378
0.04011926063
0.04012224438
0.04012438267
0.04003000086
0.04004711545
0.04006549866
0.04008278315
0.0400977224
0.04010992857
0.04011951737
0.0401268362
0.04013229857
0.04013629886
0.04013917686
0.04014120923
0.04014261306
0.04014355067
0.04014410899
0.04004167193
0.04006501825
0.04008690917
0.04010525947
0.04011966804
0.04013049516
0.04013835442
0.0401438764
0.04014761589
0.04015002688
0.04015146637
0.04015220909
0.04015246642
0.04015241207
0.04015223134
0.04003000077
0.0400471153
0.04006549847
0.04008278293
0.04009772216
0.04010992831
0.04011951709
0.04012683592
0.04013229828
0.04013629855
0.04013917656
0.04014120892
0.04014261275
0.04014355036
0.04014410868
0.04001861986
0.04002780362
0.04003904627
0.04005113819
0.04006305932
0.04007413465
0.04008401523
0.040092593
0.04009991006
0.04010608705
0.04011127464
0.04011562329
0.04011926012
0.04012224386
0.04012438214
0.0400124136
0.04001676412
0.04002267035
0.04002980222
0.04003771927
0.04004599229
0.04005426874
0.04006229282
0.04006989895
0.04007699373
0.04008353527
0.04008951226
0.04009491397
0.040099647
0.04010320193
0.04001231937
0.04001575407
0.0400202825
0.0400257836
0.04003205626
0.04003886577
0.04004598006
0.04005319234
0.04006033188
0.04006726549
0.04007389012
0.04008010632
0.04008571833
0.04009001957
0.04000889476
0.04001031431
0.04001249668
0.04001554649
0.04001948641
0.04002426069
0.04002975276
0.04003580825
0.04004225719
0.04004893151
0.04005567613
0.04006235029
0.04006880567
0.0400747795
0.04007943665
0.04000997447
0.04001231922
0.04001575394
0.04002028239
0.04002578352
0.04003205622
0.04003886579
0.04004598013
0.04005319246
0.04006033206
0.04006726574
0.04007389042
0.04008010667
0.04008571873
0.04009002001
0.04001236429
0.0400166984
0.04002265978
0.04002996214
0.04003817785
0.04004685906
0.04005561396
0.04006414013
0.04007222864
0.04007975226
0.04008664704
0.04009289103
0.040098473
0.04010330842
0.04010690647
0.04001590142
0.04002302334
0.04003215621
0.04004253856
0.0400534021
0.04006412316
0.0400742663
0.0400835699
0.04009190921
0.04009925631
0.04010564543
0.04011114453
0.04011582617
0.04011970525
0.04012249585
0.04001851115
0.0400274662
0.04003830742
0.040050029
0.04006180373
0.04007304743
0.04008339883
0.04009267226
0.04010080801
0.0401078299
0.0401138121
0.04011885358
0.0401230535
0.04012646033
0.04012886944
0.04001590136
0.04002302325
0.04003215609
0.04004253841
0.04005340192
0.04006412295
0.04007426607
0.04008356966
0.04009190896
0.04009925604
0.04010564515
0.04011114425
0.04011582588
0.04011970496
0.04012249556
0.04001236426
0.04001669835
0.0400226597
0.04002996201
0.04003817768
0.04004685884
0.04005561369
0.04006413981
0.04007222828
0.04007975186
0.04008664661
0.04009289058
0.04009847253
0.04010330793
0.04010690597
0.04000997448
0.04001231924
0.04001575395
0.04002028238
0.04002578348
0.04003205613
0.04003886564
0.04004597993
0.04005319221
0.04006033176
0.04006726538
0.04007389001
0.04008010621
0.04008571823
0.04009001948
0.0400088948
0.04001031437
0.04001249674
0.04001554655
0.04001948645
0.0400242607
0.04002975273
0.04003580818
0.04004225706
0.04004893132
0.04005567588
0.04006234998
0.0400688053
0.04007477907
0.04007943616
)
;

boundaryField
{
    top
    {
        type            calculated;
        value           nonuniform List<scalar> 
127
(
0.0400088948
0.04001031434
0.04001231925
0.04001669843
0.04002302342
0.04002746641
0.04002302355
0.0400166986
0.04001231937
0.04001031437
0.04001249673
0.04001575399
0.04002265984
0.04003215635
0.04003830772
0.04003215647
0.04002265999
0.04001575407
0.04001249674
0.04001554657
0.04002028246
0.04002996222
0.04004253874
0.04005002934
0.04004253882
0.04002996233
0.0400202825
0.04001554655
0.04001948651
0.04002578362
0.04003817795
0.0400534023
0.04006180409
0.04005340233
0.040038178
0.0400257836
0.04001948645
0.04002426083
0.04003205634
0.04004685918
0.04006412338
0.0400730478
0.04006412336
0.04004685916
0.04003205626
0.0400242607
0.04002975292
0.04003886592
0.04005561409
0.04007426653
0.0400833992
0.04007426646
0.040055614
0.04003886577
0.04002975273
0.04003580845
0.04004598028
0.04006414027
0.04008357014
0.04009267262
0.04008357003
0.04006414012
0.04004598006
0.04003580818
0.04004225741
0.04005319264
0.0400722288
0.04009190946
0.04010080836
0.0400919093
0.04007222858
0.04005319234
0.04004225706
0.04004893175
0.04006033226
0.04007975243
0.04009925656
0.04010783023
0.04009925636
0.04007975214
0.04006033188
0.04004893132
0.04005567639
0.04006726595
0.04008664723
0.04010564568
0.04011381242
0.04010564545
0.04008664687
0.04006726549
0.04005567588
0.04006235057
0.04007389065
0.04009289123
0.04011114479
0.04011885388
0.04011114453
0.04009289082
0.04007389012
0.04006234998
0.04006880597
0.04008010692
0.04009847322
0.04011582642
0.04012305379
0.04011582614
0.04009847276
0.04008010632
0.0400688053
0.04007477981
0.04008571899
0.04010330864
0.0401197055
0.0401264606
0.0401197052
0.04010330814
0.04008571833
0.04007477907
0.04007943696
0.04009002027
0.0401069067
0.04012249611
0.04012886971
0.04012249579
0.04010690617
0.04009001957
0.04007943616
)
;
    }
    bottom
    {
        type            calculated;
        value           nonuniform List<scalar> 
134
(
0.04000997456
0.04001236438
0.0400159015
0.04001851124
0.04001590142
0.04001236427
0.04000997446
0.04000889476
0.04001031445
0.04001231938
0.0400166986
0.04002302355
0.04002746643
0.04002302339
0.04001669839
0.04001231921
0.04001031431
0.04001249686
0.04001575417
0.04002266008
0.04003215656
0.04003830781
0.04003215634
0.04002265978
0.04001575392
0.04001249668
0.04001554673
0.0400202827
0.04002996255
0.04004253907
0.04005002956
0.04004253879
0.04002996216
0.04002028237
0.04001554649
0.04001948672
0.04002578392
0.04003817838
0.04005340276
0.04006180446
0.04005340243
0.04003817791
0.04002578351
0.04001948641
0.04002426107
0.04003205671
0.04004685971
0.04006412396
0.0400730483
0.04006412359
0.04004685917
0.04003205622
0.04002426069
0.04002975322
0.04003886636
0.04005561471
0.04007426722
0.04008339983
0.04007426682
0.04005561411
0.04003886579
0.04002975276
0.0400358088
0.04004598079
0.04006414097
0.04008357094
0.04009267336
0.04008357052
0.04006414032
0.04004598014
0.04003580825
0.04004225782
0.04005319321
0.04007222957
0.04009191033
0.04010080919
0.0400919099
0.04007222888
0.0400531925
0.04004225719
0.04004893222
0.04006033289
0.04007975326
0.0400992575
0.04010783114
0.04009925705
0.04007975254
0.04006033211
0.04004893151
0.04005567691
0.04006726663
0.0400866481
0.04010564667
0.04011381338
0.04010564622
0.04008664735
0.0400672658
0.04005567613
0.04006235114
0.04007389138
0.04009289215
0.04011114581
0.04011885489
0.04011114536
0.04009289138
0.0400738905
0.04006235029
0.04006880659
0.04008010768
0.04009847417
0.04011582748
0.04012305484
0.04011582703
0.04009847338
0.04008010676
0.04006880567
0.04007478047
0.04008571979
0.04010330962
0.04011970658
0.04012646168
0.04011970613
0.04010330883
0.04008571884
0.0400747795
0.04007943766
0.04009002111
0.04010690771
0.04012249721
0.0401288708
0.04012249676
0.0401069069
0.04009002013
0.04007943665
)
;
    }
    side-walls
    {
        type            calculated;
        value           nonuniform List<scalar> 
261
(
0.04001031445
0.04001231938
0.04001669861
0.04002302359
0.04002746653
0.0400230235
0.04001669846
0.04001231925
0.04001031434
0.04001249686
0.04001575417
0.04002266012
0.04003215667
0.04003830801
0.04003215653
0.04002265991
0.040015754
0.04001249673
0.04001554673
0.0400202827
0.0400299626
0.0400425392
0.0400500298
0.04004253903
0.04002996234
0.04002028248
0.04001554657
0.04001948672
0.04002578392
0.04003817843
0.04005340291
0.04006180472
0.0400534027
0.04003817812
0.04002578365
0.04001948651
0.04002426107
0.04003205671
0.04004685976
0.04006412412
0.04007304858
0.04006412388
0.0400468594
0.04003205639
0.04002426083
0.04002975322
0.04003886636
0.04005561477
0.04007426739
0.04008340012
0.04007426713
0.04005561437
0.04003886599
0.04002975292
0.0400358088
0.04004598079
0.04006414103
0.04008357111
0.04009267365
0.04008357083
0.0400641406
0.04004598037
0.04003580845
0.04004225782
0.04005319321
0.04007222964
0.04009191051
0.04010080948
0.04009191022
0.04007222918
0.04005319274
0.04004225741
0.04004893222
0.04006033289
0.04007975334
0.04009925768
0.04010783143
0.04009925738
0.04007975284
0.04006033238
0.04004893175
0.04005567691
0.04006726663
0.04008664818
0.04010564685
0.04011381366
0.04010564654
0.04008664767
0.04006726608
0.04005567639
0.04006235114
0.04007389139
0.04009289223
0.04011114599
0.04011885517
0.04011114568
0.0400928917
0.0400738908
0.04006235057
0.04006880659
0.04008010769
0.04009847425
0.04011582766
0.04012305511
0.04011582734
0.0400984737
0.04008010707
0.04006880597
0.04007478047
0.0400857198
0.04010330971
0.04011970676
0.04012646194
0.04011970644
0.04010330915
0.04008571915
0.04007477981
0.04007943766
0.04009002112
0.04010690779
0.04012249738
0.04012887106
0.04012249706
0.04010690722
0.04009002045
0.04007943696
0.04000889476
0.04000997447
0.04001236429
0.04001590142
0.04001851115
0.04001590136
0.04001236426
0.04000997448
0.0400088948
0.04001031431
0.04001231922
0.0400166984
0.04002302334
0.0400274662
0.04002302325
0.04001669835
0.04001231924
0.04001031437
0.04001249668
0.04001575394
0.04002265978
0.04003215621
0.04003830742
0.04003215609
0.0400226597
0.04001575395
0.04001249674
0.04001554649
0.04002028239
0.04002996214
0.04004253856
0.040050029
0.04004253841
0.04002996201
0.04002028238
0.04001554655
0.04001948641
0.04002578352
0.04003817785
0.0400534021
0.04006180373
0.04005340192
0.04003817768
0.04002578348
0.04001948645
0.04002426069
0.04003205622
0.04004685906
0.04006412316
0.04007304743
0.04006412295
0.04004685884
0.04003205613
0.0400242607
0.04002975276
0.04003886579
0.04005561396
0.0400742663
0.04008339883
0.04007426607
0.04005561369
0.04003886564
0.04002975273
0.04003580825
0.04004598013
0.04006414013
0.0400835699
0.04009267226
0.04008356966
0.04006413981
0.04004597993
0.04003580818
0.04004225719
0.04005319246
0.04007222864
0.04009190921
0.04010080801
0.04009190896
0.04007222828
0.04005319221
0.04004225706
0.04004893151
0.04006033206
0.04007975226
0.04009925631
0.0401078299
0.04009925604
0.04007975186
0.04006033176
0.04004893132
0.04005567613
0.04006726574
0.04008664704
0.04010564543
0.0401138121
0.04010564515
0.04008664661
0.04006726538
0.04005567588
0.04006235029
0.04007389042
0.04009289103
0.04011114453
0.04011885358
0.04011114425
0.04009289058
0.04007389001
0.04006234998
0.04006880567
0.04008010667
0.040098473
0.04011582617
0.0401230535
0.04011582588
0.04009847253
0.04008010621
0.0400688053
0.0400747795
0.04008571873
0.04010330842
0.04011970525
0.04012646033
0.04011970496
0.04010330793
0.04008571823
0.04007477907
0.04007943665
0.04009002001
0.04010690647
0.04012249585
0.04012886944
0.04012249556
0.04010690597
0.04009001948
0.04007943616
)
;
    }
    inlet
    {
        type            calculated;
        value           nonuniform 0();
    }
    outlet
    {
        type            calculated;
        value           nonuniform List<scalar> 
81
(
0.04007943766
0.04009002112
0.04010690779
0.04012249738
0.04012887106
0.04012249706
0.04010690722
0.04009002045
0.04007943696
0.04009002111
0.04010320363
0.04012438397
0.0401441105
0.04015223291
0.04014411011
0.04012438329
0.04010320281
0.04009002027
0.04010690771
0.04012438392
0.0401526999
0.040179357
0.0401904323
0.04017935653
0.0401526991
0.04012438294
0.0401069067
0.04012249721
0.04014411036
0.04017935689
0.04021282265
0.04022684214
0.04021282218
0.04017935601
0.04014410929
0.04012249611
0.0401288708
0.04015223267
0.0401904321
0.04022684193
0.04024225384
0.04022684145
0.0401904312
0.04015223161
0.04012886971
0.04012249676
0.0401441098
0.04017935624
0.04021282185
0.04022684125
0.04021282136
0.04017935541
0.04014410888
0.04012249579
0.0401069069
0.04012438297
0.04015269877
0.04017935567
0.04019043092
0.0401793553
0.04015269813
0.04012438225
0.04010690617
0.04009002013
0.04010320252
0.04012438267
0.04014410899
0.04015223134
0.04014410868
0.04012438214
0.04010320193
0.04009001957
0.04007943665
0.04009002001
0.04010690647
0.04012249585
0.04012886944
0.04012249556
0.04010690597
0.04009001948
0.04007943616
)
;
    }
    procBoundary1to0
    {
        type            processor;
        value           nonuniform List<scalar> 
97
(
0.04000889481
0.04000889481
0.0400099745
0.04001236428
0.04001590135
0.04001851107
0.04001590129
0.04001236419
0.04000997442
0.04000889474
0.04000857106
0.04001241365
0.04001241365
0.04001241365
0.04001861993
0.04003000076
0.04004167164
0.04003000051
0.04001861962
0.04001241339
0.04000997442
0.04000966733
0.04001244711
0.04003749238
0.04003749238
0.04003749238
0.04008255877
0.04015274316
0.04008255731
0.04003749104
0.04001861961
0.04001236419
0.0400112506
0.04001728053
0.04003804463
0.04025983102
0.04025983102
0.04025983102
0.04074878419
0.04025982245
0.04008255743
0.04003000046
0.04001590127
0.04001236262
0.0400217603
0.0400606432
0.04021170377
0.04472582366
0.04472582366
0.04472582366
0.04074878552
0.04074878552
0.04015274335
0.04004167161
0.04001851105
0.04001125058
0.04001728042
0.04003804433
0.04009736699
0.04021170339
0.04009736681
0.0400825598
0.0400825598
0.0400825598
0.04003000095
0.04001590138
0.0400096673
0.04001244702
0.04002047769
0.04003804439
0.04006064316
0.04003804426
0.04002047778
0.04001862008
0.04001862008
0.04001862008
0.04001236432
0.04000857103
0.04000968369
0.04001244704
0.04001728046
0.04002176028
0.04001728041
0.04001244703
0.04000968372
0.04000997453
0.04000997453
0.04000997453
0.04000806911
0.04000857104
0.04000966731
0.04001125059
0.04001236261
0.04001125056
0.0400096673
0.04000857104
0.04000806912
)
;
    }
}


// ************************************************************************* //
