/*--------------------------------*- C++ -*----------------------------------*\
| =========                 |                                                 |
| \\      /  F ield         | OpenFOAM: The Open Source CFD Toolbox           |
|  \\    /   O peration     | Version:  2.3.0                                 |
|   \\  /    A nd           | Web:      www.OpenFOAM.org                      |
|    \\/     M anipulation  |                                                 |
\*---------------------------------------------------------------------------*/
FoamFile
{
    version     2.0;
    format      ascii;
    class       volVectorField;
    object      U;
}
// * * * * * * * * * * * * * * * * * * * * * * * * * * * * * * * * * * * * * //
#include "../inletVelocity"


dimensions      [0 1 -1 0 0 0 0];

internalField   uniform (0 0 0);

boundaryField
{
    walls
    {
        //type slip;
        type            uniformFixedValue;
        uniformValue    constant (0 0 0);
    }

    bottom
    {
        //type slip;
        type            uniformFixedValue;
        uniformValue    constant (0 0 0);
    }

    // ratio of crosssection to inlet currently 1.25, need to scale superficial velocity accordingly
    inlet
    {
        type surfaceNormalFixedValue;
        refValue uniform $vin;
    }
    

    outlet
    {
        type            zeroGradient;
    }
}

// ************************************************************************* //
