ITEM: TIMESTEP
4020000
ITEM: NUMBER OF ATOMS
60000
ITEM: BOX BOUNDS ff ff ff
-0.04 0.04
-0.0075 0.0075
0 0.25
ITEM: ATOMS id x y z 
1 0.0361085 -0.00379246 0.00374513 
2 0.0151034 0.0032422 0.0338826 
3 0.0216664 0.00699382 0.0296165 
4 0.00842612 0.000164164 0.0247117 
5 0.0111808 -0.00471974 0.0412575 
6 -0.0313197 -0.00378347 0.0611309 
7 -0.0265402 -0.000449984 0.043555 
8 0.0175588 -0.00355923 0.0490888 
9 -0.0362297 0.000510911 0.0350023 
10 -0.0140883 -0.00384406 0.0414446 
11 -0.00477238 -0.00152496 0.0248084 
12 0.0203205 0.00605746 0.037812 
13 0.000751743 -1.95694e-05 0.0129938 
14 0.035465 0.00213211 0.05276 
15 -0.0217926 -0.00699468 0.017312 
16 -0.0369369 0.00699433 0.0468174 
17 -0.0307219 -0.00454934 0.0334969 
18 0.0177852 0.00559777 0.00731843 
19 -0.0384864 -0.00689689 0.0206144 
20 -0.0198364 -0.00281757 0.0485729 
21 -0.00045529 0.00516445 0.022426 
22 -0.0146707 -0.00699615 0.0472996 
23 0.0226304 0.00348694 0.0100347 
24 0.0344829 -0.000402115 0.0511475 
25 0.015694 0.00103489 0.05145 
26 -0.0312459 -0.00063395 0.0239021 
27 -0.0330306 0.00611084 0.0467393 
28 0.0200503 -0.00154814 0.0257815 
29 -0.0095374 -0.00127645 0.0210784 
30 -0.0105441 -0.00206412 0.03618 
31 0.0312207 0.00347864 0.0530842 
32 -0.0242873 0.00264279 0.0126669 
33 -0.0370371 -0.00239785 0.00883535 
34 -0.0191098 0.006179 0.0339771 
35 0.0140227 -0.00127522 0.0134601 
36 -0.0109787 -0.00171166 0.00576212 
37 -0.011922 -0.000220449 0.0126251 
38 0.0179008 -0.00218973 0.0524781 
39 0.00178884 0.00356181 0.0453184 
40 0.0072203 0.00352046 0.0380143 
41 -0.0315002 0.00194778 0.0495483 
42 -0.00896449 0.00288274 0.0207999 
43 0.00262255 0.00451555 0.0345424 
44 -0.000571183 -0.000310768 0.0177904 
45 -0.0383457 0.00564276 0.0539419 
46 -0.0135434 -0.00285256 0.0255596 
47 0.00357416 -0.0023527 0.00471975 
48 -0.0394997 0.00202766 0.035734 
49 0.00593656 -0.00439905 0.0335566 
50 0.0188651 4.89552e-05 0.00721461 
51 -0.02028 0.00329522 0.0503226 
52 -0.0254657 0.00608729 0.0288027 
53 0.0170738 0.00183662 0.0190043 
54 0.0361346 0.000303728 0.000500519 
55 -0.0208786 0.00561559 0.051789 
56 0.0219526 -0.0050326 0.0288382 
57 0.0184653 0.000875907 0.0461973 
58 -0.024996 0.00556027 0.0666004 
59 -0.0250395 -0.00671713 0.0314136 
60 -0.0323995 -0.00603557 0.0504359 
61 -0.0340366 -0.00178647 0.0265201 
62 0.0192573 0.00466794 0.0548876 
63 0.0251274 0.00214654 0.0155642 
64 0.0153159 0.00697831 0.0291757 
65 -0.0180507 0.00488294 0.0563088 
66 0.00912488 0.00513656 0.0390965 
67 0.00771374 0.00125077 0.0336756 
68 -0.0239382 -0.00699974 0.031259 
69 0.0394568 0.00537875 0.0451217 
70 0.0233944 0.00137312 0.0502525 
71 -0.0323795 -0.00263736 0.0493723 
72 0.0319784 0.00331828 0.0487127 
73 0.02035 0.0069986 0.0362206 
74 -0.0246529 -0.00462979 0.0192762 
75 0.0114829 0.00639068 0.0129238 
76 0.00883023 0.00408861 0.0464574 
77 0.0154593 0.00653081 0.0376158 
78 0.0317086 -0.00380252 0.0205708 
79 -0.0210055 0.00133224 0.039105 
80 -0.0195135 0.00699498 0.0256909 
81 -0.0038916 -0.00470325 0.00734168 
82 -0.0280959 0.00138577 0.0187382 
83 0.0272572 -0.00471611 0.0512863 
84 -0.0261909 -0.00223509 0.0277767 
85 0.0392695 -0.00201217 0.046381 
86 0.0208443 -0.00698287 0.0239598 
87 0.0309021 0.0054888 0.00806089 
88 -0.000614377 0.00154201 0.00617935 
89 -0.0230102 -0.00269274 0.0102364 
90 -0.0179612 0.00288682 0.0582215 
91 -0.0249827 -0.00256229 0.00505697 
92 0.0280826 0.0014793 0.0382793 
93 -0.0135675 0.00691537 0.0482168 
94 0.0352011 -0.00215176 0.0278477 
95 -0.0325318 0.00348852 0.000505724 
96 -0.00987687 0.0042996 0.0291109 
97 0.00272173 0.00176937 0.02375 
98 0.00407343 -0.000223298 0.0160563 
99 0.0317923 0.00599553 0.0456911 
100 0.00741422 0.000729682 0.0283691 
101 -0.0288262 0.00149042 0.0424383 
102 0.00580175 -0.00113888 0.0294063 
103 -0.00915731 0.00523235 0.0423101 
104 0.00266438 -0.00333653 0.00458518 
105 -0.00562145 0.000841152 0.000499982 
106 -0.0102993 -0.00443732 0.0232975 
107 -0.00274203 0.000460608 0.0155573 
108 0.0261365 -0.00193523 0.0468354 
109 -0.0258892 -0.000296313 0.0269178 
110 0.00783406 -0.00510203 0.0324349 
111 0.00201646 -0.00206581 0.0302788 
112 -0.0249472 -0.00699979 0.0400686 
113 -0.00150985 -0.000517827 0.0419316 
114 0.0334719 -0.00156157 0.0541995 
115 -0.0102948 0.00302334 0.00475853 
116 0.0166779 -0.000526426 0.0489281 
117 0.036417 0.00599321 0.049488 
118 -0.0296924 0.00393419 0.0695419 
119 0.00810026 -0.00463919 0.0354974 
120 0.0298544 0.0037312 0.0594573 
121 0.00953893 0.0061504 0.0244885 
122 0.0014205 0.00278123 0.0415434 
123 -0.00439517 -0.00171806 0.034772 
124 0.00132306 -0.00186582 0.0335908 
125 0.0281314 0.00599617 0.0458682 
126 0.0297172 -0.00699885 0.0280065 
127 0.0386396 -0.00508894 0.00480479 
128 -0.0113113 0.00576126 0.0354683 
129 -0.0165521 -0.00475553 0.0565993 
130 -0.00535185 0.00184082 0.0213225 
131 -0.0355973 -0.000698169 0.0212044 
132 0.0258564 0.00667155 0.00134744 
133 -0.0357082 0.00103937 0.0263393 
134 0.0332332 -0.00310082 0.0493233 
135 -0.0214708 0.00588387 0.0382472 
136 0.0337127 0.00399837 0.00222261 
137 0.0370524 -0.00672771 0.0564116 
138 0.0108744 0.0046367 0.00934806 
139 -0.0291442 0.00442536 0.0335459 
140 0.0365375 -0.00649803 0.0481818 
141 0.00805887 -0.00282984 0.044224 
142 0.00397315 -0.00305123 0.00136173 
143 -0.0125223 -0.00450121 0.0441348 
144 0.0339493 -0.00602757 0.0262038 
145 0.0363378 0.000274075 0.0598769 
146 -0.0227817 0.00524801 0.0349074 
147 -0.0318086 -0.00373485 0.0563794 
148 0.01032 0.000465289 0.025005 
149 0.00353336 -0.00271894 0.0174428 
150 0.0350824 -0.000606916 0.00530083 
151 0.0394665 -0.00316363 0.0531352 
152 -0.0212487 0.00356712 0.0609353 
153 0.0271114 -0.00426862 0.00536173 
154 0.0347942 0.00446016 0.0226451 
155 -0.00962751 -0.00699739 0.0283908 
156 -0.0255791 -0.00305777 0.0687842 
157 0.0321334 -0.00453792 0.0214489 
158 -0.0332243 0.00295723 0.0247162 
159 0.0161048 0.00126608 0.038165 
160 -0.0394995 -0.000329111 0.0301531 
161 0.0309938 0.00244913 0.0551775 
162 0.0217984 0.00270807 0.0385396 
163 -0.0232943 0.00546482 0.0512575 
164 0.0358099 0.000142694 0.0370369 
165 0.0127657 -0.00621436 0.037441 
166 -0.0376277 0.000907236 0.0499972 
167 0.0277799 -0.00206335 0.00173544 
168 -0.00287259 -0.00508381 0.0281291 
169 0.0283737 3.94703e-05 0.0454295 
170 -0.038451 0.00157818 0.0389438 
171 0.00265908 -0.0020518 0.0363061 
172 -0.00323764 0.0026394 0.00196976 
173 0.036636 -0.00599625 0.0112516 
174 -0.0354601 -0.00204117 0.0695709 
175 0.0206019 -0.00159368 0.0157567 
176 0.0354537 -0.000646593 0.00925786 
177 -0.0293179 0.00157683 0.03465 
178 -0.0365526 -0.00217806 0.0191118 
179 0.0271973 0.00438136 0.00212418 
180 -0.0358512 -0.00485018 0.0363161 
181 -0.0395002 0.00464442 0.0321039 
182 -0.0372166 -0.00364225 0.0323997 
183 -0.00801734 -5.6538e-05 0.0298555 
184 0.0280496 -0.00435121 0.000499996 
185 -0.0365208 -0.00525433 0.0314513 
186 -0.0254213 0.00341462 0.0129579 
187 -0.0141846 0.00446244 0.0319049 
188 0.00417031 0.00285878 0.0296077 
189 0.0152339 0.00604542 0.0508344 
190 -0.00363253 -0.000881789 0.0395129 
191 -0.0364931 -0.000750204 0.0200844 
192 -0.0249824 -0.00277926 0.051164 
193 -0.0142311 -0.00699885 0.0257421 
194 0.0332392 0.00119721 0.0425799 
195 -0.0265195 0.000924601 0.0502461 
196 0.000836373 -0.00226814 0.0436086 
197 -0.00923912 -0.00358177 0.0321354 
198 -0.0209253 -0.000181116 0.0369433 
199 0.034895 0.00457255 0.0536628 
200 -0.0167431 0.00461637 0.0290422 
201 0.00657762 -0.00539367 0.0317033 
202 0.0291543 0.00600824 0.0464522 
203 -0.000367071 -0.000970477 0.0235894 
204 -0.017891 0.0016469 0.00946975 
205 -0.0242616 -0.00170437 0.0172682 
206 -0.0276932 0.00217624 0.0104191 
207 0.000396616 0.00317971 0.0130063 
208 -0.00558386 -0.00266608 0.000503493 
209 -0.00924389 0.00333694 0.0423719 
210 -0.0300901 -0.00598239 0.0545748 
211 -0.00590115 -0.000985494 0.0363002 
212 -0.0298244 0.00311973 0.0410057 
213 0.0217616 -0.000752728 0.00263734 
214 -0.00325155 -0.00361546 0.00147676 
215 0.0373091 0.00599592 0.0155299 
216 -0.0372715 -0.00560051 0.0419737 
217 0.0373017 0.00139611 0.0290744 
218 -0.0107727 0.000699946 0.0551612 
219 0.0376343 -0.00250437 0.00317525 
220 0.0306258 -0.000233447 0.0276271 
221 0.0338048 4.54505e-07 0.00907804 
222 -0.0279057 -0.0021966 0.0407247 
223 0.0177739 0.00212319 0.0058408 
224 -0.0170946 0.00176606 0.000522543 
225 0.0373013 -0.00699921 0.0334838 
226 0.0228296 0.00699353 0.00781693 
227 0.0302824 -0.00157481 0.0410459 
228 -0.0312572 -0.00100898 0.0229691 
229 0.0183893 0.00575047 0.0416436 
230 -0.0025482 -0.0015928 0.0331116 
231 -0.0217635 -0.00456331 0.0597955 
232 -0.0120923 0.00175161 0.000506332 
233 0.00663202 -0.00699609 0.00857477 
234 0.0347163 0.00361105 0.0538753 
235 -0.00362412 -0.00362441 0.0267045 
236 0.00854078 0.000306521 0.0237284 
237 0.019722 0.00448215 0.0533866 
238 0.0269534 0.000395153 0.0376526 
239 0.0306985 0.00551246 0.0351771 
240 -0.024276 -0.00476285 0.0121849 
241 -0.0233737 0.000925883 0.0330345 
242 -0.00672378 0.00590502 0.0329885 
243 0.00235009 -0.00128378 0.0179704 
244 0.00875172 -0.00494652 0.0189857 
245 -0.0272728 -0.00192704 0.0217307 
246 0.0140771 0.00162615 0.0458223 
247 -0.0300644 -0.00700016 0.0410456 
248 -0.00211047 0.00298536 0.0445286 
249 0.0225003 -0.00180615 0.0206394 
250 -0.0172356 -0.00327566 0.010831 
251 0.0390064 0.00611269 0.000500001 
252 0.0286866 0.000627065 0.0380035 
253 -0.00211079 -0.00493637 0.0386619 
254 -0.0179312 -0.0061807 0.0443728 
255 0.0164993 -0.000308609 0.0164583 
256 0.0295318 0.00277743 0.0572634 
257 -0.0201196 0.00575438 0.0208595 
258 0.0232709 -0.00509566 0.0277298 
259 0.0285988 0.00092367 0.0344356 
260 0.0166617 -0.0069652 0.0216738 
261 -0.0031362 -0.00621354 0.0103719 
262 -0.00953124 0.00528242 0.0468104 
263 -0.0340035 0.00516094 0.0220264 
264 0.0203612 -0.00347807 0.0269367 
265 -0.0303274 0.00169829 0.0388447 
266 0.0168272 0.00297127 0.0278251 
267 -0.0189728 -0.00493683 0.0384161 
268 -0.0199487 0.00473699 0.0237771 
269 0.0106597 -0.00620945 0.0212182 
270 0.00371364 -0.00609435 0.018792 
271 0.00843026 0.00699986 0.000500011 
272 0.033142 -0.00279572 0.0161222 
273 0.0335507 0.00321886 0.029837 
274 -0.000465645 -0.00175306 0.0344257 
275 -0.022459 0.00308709 0.0291822 
276 0.0245742 0.000257696 0.0523606 
277 -0.0241118 0.0053556 0.0337562 
278 0.0147133 -0.000908701 0.024044 
279 0.0220779 0.00499218 0.0472569 
280 -0.0385882 0.00298603 0.0197752 
281 0.00218016 0.00168621 0.00135546 
282 -0.0269861 -0.00530587 0.0211557 
283 0.0235611 -0.00106105 0.00493967 
284 0.00354973 -0.00700015 0.0390028 
285 -0.0129431 0.000680195 0.0273287 
286 -0.00539764 -0.00537656 0.033177 
287 0.0237998 0.00140951 0.0277343 
288 -0.0313251 -0.00463813 0.0496897 
289 0.0179905 -0.00243282 0.0231204 
290 -0.0393577 0.00407962 0.0181607 
291 -0.0152259 -6.44988e-05 0.0330256 
292 -0.0303998 -0.00521334 0.00450782 
293 -0.0179263 0.00441056 0.0135588 
294 0.0318533 -0.00194031 0.0483347 
295 0.024381 0.00123904 0.00855723 
296 0.0294141 0.00318726 0.0279942 
297 0.0261134 0.00457143 0.0417205 
298 -0.00619416 0.000241951 0.0236257 
299 0.0284627 -0.00395229 0.0123904 
300 0.014722 -0.00475476 0.0013739 
301 -0.0266032 0.00101272 0.00573982 
302 0.00862836 0.00505858 0.044382 
303 -0.0301615 0.00609505 0.0470418 
304 0.0279455 -0.00338145 0.0299231 
305 -0.0128224 0.00156886 0.0243324 
306 -0.00366102 0.00196757 0.0271337 
307 0.0285874 0.00610579 0.0361512 
308 -0.0211086 -0.00699456 0.000501362 
309 0.0229625 0.00695831 0.0428519 
310 0.0372263 0.00363222 0.0554561 
311 0.00634137 0.00592153 0.0411731 
312 -0.019425 -0.00506828 0.0458334 
313 -0.000991676 -0.00468919 0.0208377 
314 0.0342013 0.00638113 0.0179607 
315 -0.0342489 0.00605337 0.00894225 
316 -0.027785 -0.00430722 0.0238308 
317 -0.000993601 -0.00128867 0.0193577 
318 -0.0312288 0.00323048 0.0601585 
319 0.00955769 0.00331991 0.0406064 
320 0.0096112 -0.00373579 0.0379087 
321 0.0333327 0.006924 0.0046319 
322 0.0218021 0.00420304 0.0481319 
323 -0.00405242 -0.00179146 0.0396416 
324 0.00822322 0.00327541 0.0356351 
325 -0.0325067 -0.00104377 0.00588033 
326 -0.0312718 0.00263147 0.0236103 
327 0.0355465 -0.00699369 0.024066 
328 -0.03131 -0.00699711 0.055847 
329 0.0190064 0.00316719 0.0525071 
330 -0.0235947 -0.00192872 0.0677812 
331 0.0130973 0.000799275 0.0178697 
332 -0.0226556 0.000635817 0.0282989 
333 0.0228348 0.00462785 0.0069865 
334 -0.0208237 0.000312321 0.0215859 
335 -0.0112268 0.00344702 0.0297622 
336 0.0100009 0.00089183 0.0450213 
337 0.0338371 0.00183312 0.0582685 
338 0.0201107 0.000379147 0.0428708 
339 0.0212963 -0.00275165 0.0270263 
340 0.00118239 0.00627409 0.00292181 
341 -0.038992 0.0039018 0.0169544 
342 0.00133701 0.00434314 0.0173674 
343 -0.0321371 -0.000824698 0.0392262 
344 -0.00618543 0.00112893 0.0130589 
345 -0.0033871 -0.00416796 0.0283959 
346 0.024638 -0.00699232 0.0294285 
347 0.0102439 0.00113896 0.0358565 
348 0.0292266 -0.00430303 0.0495344 
349 -0.0338656 -0.00508695 0.0228408 
350 -0.0368295 -0.00686277 0.00954633 
351 -0.0286599 -0.00696596 0.0613159 
352 -0.0279696 -0.00452878 0.00395105 
353 0.0291296 9.65497e-05 0.0346444 
354 -0.018907 0.00356833 0.058014 
355 -0.0123254 -0.00300037 0.0265004 
356 -0.02162 -0.0043715 0.000500277 
357 0.0203517 0.00206314 0.0303588 
358 0.0123848 0.00255079 0.0316453 
359 0.0236177 0.00236008 0.0455015 
360 -0.0227243 -0.00524406 0.043964 
361 0.0208778 4.79784e-05 0.0363276 
362 -0.0147676 0.00392647 0.0477553 
363 -7.94325e-05 0.00699827 0.0149514 
364 0.022652 -0.000280775 0.0540761 
365 -0.03135 0.00420976 0.058838 
366 -0.0333924 -0.00147516 0.0310893 
367 0.0186882 0.00428092 0.0303 
368 -0.0380484 0.00173644 0.0420823 
369 0.0259914 0.00181206 0.0287558 
370 0.0175714 -0.00349969 0.00050016 
371 -0.02936 -0.00522162 0.026528 
372 -0.0385385 -0.00328337 0.0394275 
373 -0.0117927 0.00289077 0.0490588 
374 -0.0370988 0.000308461 0.0354536 
375 0.0371988 -0.00264262 0.0350201 
376 -0.0209602 0.00337759 0.0493181 
377 -0.0256258 0.0016246 0.00424298 
378 -0.0371381 0.00625186 0.060932 
379 0.0228311 0.00405136 0.0295902 
380 0.0322244 0.00534832 0.00573876 
381 -0.0297755 0.00580013 0.00924144 
382 -0.0154252 -0.0011028 0.0420483 
383 -0.0394974 -0.00696824 0.0228426 
384 -0.0228649 -0.00699978 0.0391952 
385 -0.0229097 -0.00365555 0.0429914 
386 -0.021999 -0.00681471 0.06153 
387 -0.0182864 -0.00323591 0.0594481 
388 -0.00178853 0.00630755 0.0184469 
389 0.0286326 -0.00581401 0.0128094 
390 0.00734033 0.0070004 0.0380716 
391 0.0343966 0.00312157 0.00465144 
392 -0.0277558 0.00699653 0.0336862 
393 0.022892 -0.00610233 0.0275658 
394 -0.0273984 0.00478038 0.0263384 
395 -0.000126609 0.000488681 0.0402621 
396 -0.0394889 -0.00389694 0.000500417 
397 -0.0218205 -0.00490855 0.0356286 
398 -0.0335157 -0.00122066 0.0652212 
399 -0.0338235 -0.000892036 0.045585 
400 -0.0360768 0.00183063 0.0581981 
401 0.0278247 -0.00189147 0.0576601 
402 -0.00609184 -0.00526465 0.000501136 
403 -0.00261703 -0.000545182 0.0200614 
404 -0.0170339 -0.00265515 0.0508915 
405 -0.0338494 0.00055842 0.0573016 
406 -0.00196132 0.00101258 0.0270107 
407 0.0373024 0.000764198 0.0474968 
408 0.0174986 0.00406945 0.0477976 
409 -0.0191922 0.000941521 0.0431586 
410 0.0315943 0.00264897 0.0425952 
411 -0.00192406 -0.00231901 0.018249 
412 -0.0207107 0.00699998 0.0323965 
413 0.0386937 -0.000914297 0.0122232 
414 0.025447 -0.00695193 0.0140907 
415 0.0300897 -0.00528651 0.0516593 
416 -0.0268616 -0.000118313 0.0377524 
417 0.00675365 -0.00178085 0.018206 
418 -0.0264462 -0.0036358 0.0158497 
419 0.0382993 -0.00238443 0.03102 
420 -0.0126381 0.000283952 0.0331777 
421 -0.0250433 -0.00511255 0.0632704 
422 -0.0218972 -0.00268845 0.0632798 
423 -0.00662383 0.00514691 0.0287735 
424 -0.00176928 0.0021263 0.0302169 
425 -0.00349311 0.00699605 0.0177846 
426 -0.0247418 0.00699889 0.0254924 
427 0.0172536 -0.00591257 0.0252456 
428 0.0138376 0.00252969 0.037098 
429 0.0346522 -0.00444711 0.0390826 
430 -0.0152956 0.00123844 0.0458521 
431 0.0202257 -0.000122775 0.0355778 
432 -0.00241111 -0.00273521 0.00508375 
433 0.0340865 -0.00101777 0.0310564 
434 -0.0289525 -0.00694617 0.0426566 
435 -0.00650213 0.000346364 0.0222099 
436 0.0312342 0.00251265 0.0533487 
437 -0.0367271 -0.00604388 0.0585609 
438 -0.0379474 0.00175343 0.0279378 
439 -0.0366078 -0.00699914 0.0253188 
440 0.029576 -0.00220265 0.0388007 
441 -0.0023076 0.00260762 0.00294614 
442 -0.00539002 -0.005447 0.0117192 
443 -0.0334457 -0.00214251 0.0536788 
444 -0.0256362 -0.00611913 0.00050261 
445 8.1622e-05 0.0055148 0.0145833 
446 -0.000489827 0.00317079 0.0296699 
447 -0.0320534 0.00104571 0.06114 
448 -0.00933764 -0.00529257 0.0329186 
449 0.0262897 -0.00433084 0.0534628 
450 0.0182832 -0.000304173 0.0538904 
451 0.0109847 -0.00135693 0.0504475 
452 0.0368474 0.00100596 0.000501953 
453 0.0361154 0.00097871 0.03313 
454 -0.0045921 0.00643725 0.029214 
455 -0.0395001 -0.00313213 0.04372 
456 0.0072457 0.00251165 0.0201597 
457 -0.0112336 -0.00438992 0.0289587 
458 -0.0242837 -0.0032015 0.0585861 
459 0.0377256 0.00503312 0.0302934 
460 -0.0316457 -0.00359816 0.0451259 
461 -0.0377923 -0.00017397 0.0128046 
462 -0.0141527 -0.000155185 0.0460151 
463 -0.00956488 0.004296 0.0154545 
464 0.021892 -0.000466233 0.0515439 
465 -0.0195524 -0.00699836 0.0347415 
466 0.00352942 0.00154365 0.0170686 
467 0.00768867 -0.00325299 0.00953594 
468 0.009426 0.000137828 0.0246943 
469 0.00945635 -0.00693258 0.02006 
470 -0.000968315 0.0054296 0.033883 
471 0.0384961 0.00627493 0.023896 
472 -0.00959544 0.000855887 0.000501006 
473 0.0287757 -0.00188304 0.0486278 
474 0.0272447 -0.0069976 0.0306464 
475 0.0309774 -0.00293261 0.0577319 
476 0.00166907 0.00351723 0.0169115 
477 0.0394998 0.00699875 0.0300539 
478 -0.00890645 0.00246841 0.026423 
479 -0.00632317 0.000831199 0.0249431 
480 0.0311482 0.00698363 0.045073 
481 0.0075429 0.00530232 0.0315004 
482 -0.0101775 0.000240113 0.0468645 
483 -0.0296239 -0.00296759 0.0432926 
484 -0.0282162 -0.00692926 0.0103462 
485 -0.00791583 -0.00699816 0.0280241 
486 0.0260343 -0.00169389 0.0492688 
487 -0.0277866 0.00446437 0.0422198 
488 -0.00946503 0.00356694 0.0202692 
489 -0.0148699 -0.00113865 0.0232226 
490 -0.0123102 0.00148171 0.034344 
491 -0.0273929 -0.00349803 0.0420888 
492 -0.0347551 0.0036902 0.0320514 
493 0.0322654 -0.00595049 0.0282423 
494 0.00421881 -0.00699906 0.0157012 
495 -0.0288212 0.00240412 0.0129598 
496 -0.0175329 0.0017443 0.0437636 
497 -0.0229674 0.000275552 0.027419 
498 0.0199764 -0.000272708 0.0452425 
499 0.0214018 -0.000922497 0.00434707 
500 -0.0270412 0.00190521 0.0660187 
501 -0.0069004 0.00683805 0.0134425 
502 -0.0256102 -0.00520228 0.0153429 
503 -0.0185526 -0.000619109 0.0300138 
504 0.0339411 -0.00692285 0.0500726 
505 -0.0116818 0.00228469 0.0341889 
506 0.00954075 0.00608647 0.022547 
507 0.0287975 0.00527865 0.0378455 
508 -0.0300082 -0.001164 0.0591624 
509 0.00793617 0.00443351 0.0130639 
510 -0.0281971 -0.00402805 0.00136205 
511 0.0217359 -0.00519746 0.0317105 
512 0.0232038 0.000246959 0.0451348 
513 -0.0149761 -0.00699779 0.0443759 
514 0.0360861 0.00394735 0.0162995 
515 -0.024722 -0.00699679 0.0547191 
516 0.0363584 -0.00272924 0.0330166 
517 -0.00514026 -0.000615115 0.00131867 
518 -0.0113001 -0.00249362 0.0502236 
519 0.0131783 -0.00128029 0.0350338 
520 0.0370552 -0.00429374 0.0590404 
521 0.00360247 -0.0010939 0.0162254 
522 -0.0137249 -0.000996864 0.0136787 
523 -0.0239152 -0.00401738 0.0658877 
524 -0.0176751 -0.00186451 0.0498808 
525 0.0190504 0.000518818 0.0272676 
526 0.021313 0.00485888 0.00475972 
527 -0.0314193 -0.00352578 0.0676265 
528 0.00530906 0.00291268 0.012915 
529 0.02108 -0.000891853 0.000504997 
530 -0.0286223 0.0037904 0.00135362 
531 0.000850486 0.00215082 0.00145828 
532 0.0195808 -0.00175881 0.000500021 
533 -0.0062063 -0.000534843 0.0395357 
534 -0.0257694 0.00455663 0.0641174 
535 0.00829237 -0.0069367 0.0461573 
536 -0.030259 0.00696919 0.0225824 
537 0.0327871 0.00698728 0.0221419 
538 0.0275682 -0.00527645 0.045846 
539 0.0266926 -0.00431632 0.0198037 
540 -0.0310117 -0.000549177 0.0111234 
541 -0.0392768 -0.00086927 0.0111988 
542 0.0267912 0.00456762 0.0173118 
543 0.00784785 -0.000976502 0.012182 
544 -0.0242056 -0.000925741 0.0635647 
545 -0.00136319 -0.000560426 0.0142988 
546 -0.0146136 0.00347069 0.0332461 
547 -0.0389563 -0.00166001 0.0340714 
548 -0.0258701 -0.0012726 0.0228619 
549 -0.0217576 0.00031346 0.0451088 
550 -0.0100839 0.00538548 0.0284258 
551 -0.00901448 0.00692498 0.0283338 
552 0.0203345 -0.00306273 0.0465838 
553 -0.00157331 -0.0069973 0.01019 
554 0.0347378 3.07476e-06 0.050245 
555 0.0232897 -0.0036491 0.0202581 
556 -0.0107317 -0.00531793 0.0256103 
557 0.0124063 0.00699894 0.0332998 
558 -0.0339262 -0.00294225 0.0580353 
559 0.0102747 0.00533614 0.0372475 
560 0.0138111 -0.000557682 0.00827773 
561 0.00642478 -0.00134066 0.0147395 
562 -0.0394231 -0.00311356 0.051724 
563 -0.0165835 0.00439057 0.000500945 
564 0.00843849 0.00525213 0.038285 
565 0.0183588 -0.00349408 0.0539308 
566 0.000772425 0.00536358 0.0455831 
567 0.0380603 0.00481636 0.008287 
568 0.0144307 0.00699992 0.000500082 
569 -0.0394958 0.00699465 0.0302462 
570 -0.000489671 0.00138721 0.0331921 
571 0.0126416 -0.00449798 0.0330834 
572 0.0363879 0.00137502 0.0251666 
573 -0.0259584 -0.00699251 0.0402642 
574 0.00730294 -0.00361105 0.00757273 
575 0.0105564 -0.0069914 0.0238907 
576 -0.0346167 -0.00478024 0.0273002 
577 -0.0324477 0.00218917 0.0614026 
578 -0.0394983 0.00145039 0.0276619 
579 -0.00631859 -0.00157711 0.0176148 
580 -0.0155225 0.000342043 0.03053 
581 -0.0278699 0.0036854 0.0433657 
582 -0.00769644 -0.00522388 0.0352856 
583 0.028103 -0.00516844 0.0563905 
584 0.0310847 0.000339639 0.0111242 
585 0.0354957 -0.00510917 0.0261401 
586 0.0156797 -0.00041404 0.0262646 
587 -0.0245884 -0.00521253 0.0294952 
588 0.0041324 0.00318641 0.00387373 
589 0.0394973 -0.00315083 0.0518968 
590 0.0253936 -0.0032429 0.0345534 
591 0.0178544 -0.00671131 0.0251928 
592 0.0391448 -0.00201989 0.0430125 
593 -0.00820345 -0.0019879 0.0233304 
594 0.0394299 -0.00699727 0.0391164 
595 -0.0365885 -0.000608648 0.04367 
596 0.0316665 -0.00609454 0.0431833 
597 -0.0276813 0.00141249 0.0160143 
598 0.0223352 -0.00438351 0.0317004 
599 0.0358006 0.000753757 0.0225464 
600 -0.00108476 0.000333818 0.0315686 
601 0.0300712 0.000294133 0.0254579 
602 0.0304045 -0.0041217 0.0306094 
603 0.0266302 -0.00508742 0.00659247 
604 0.038588 -0.000847033 0.0371997 
605 -0.0167152 -0.00230986 0.0222 
606 0.0356835 0.00695564 0.0233083 
607 0.0340041 0.00426638 0.000548976 
608 0.00315179 -0.00152765 0.0352565 
609 -0.0365039 0.00104606 0.0226277 
610 -0.00739979 0.00171465 0.0339656 
611 -0.035443 -0.000151819 0.0109076 
612 -0.0313495 -0.0065674 0.0397875 
613 0.00629565 0.00129662 0.0372466 
614 -0.00716957 0.00699822 0.0357318 
615 0.00147279 0.00346019 0.0354638 
616 -0.03761 0.00318427 0.020474 
617 0.011626 -0.0045479 0.0473026 
618 -0.0140513 -0.00459575 0.0407859 
619 -0.0205466 -0.0052243 0.0657675 
620 -0.0123903 0.00385694 0.0463501 
621 0.00758399 -0.00333399 0.0374757 
622 -0.029852 -0.00360457 0.0654763 
623 -0.0105551 0.00194332 0.0179064 
624 -0.0253717 0.002172 0.0443601 
625 -0.0071787 0.00306797 0.0187132 
626 -0.0200828 -0.00284418 0.0377516 
627 0.0232391 0.0023817 0.0549879 
628 0.0347667 -0.00306545 0.0135487 
629 -0.000862054 0.00264878 0.0117502 
630 -0.00226136 0.00699692 0.0210846 
631 0.0296267 -0.00128546 0.0323373 
632 0.0379727 0.00445177 0.0289715 
633 0.0378634 -0.00126635 0.0472991 
634 0.000263596 -0.00364895 0.00988313 
635 0.0109954 0.00359879 0.0338408 
636 -0.03769 -0.00654939 0.059497 
637 0.0209455 -0.00698156 0.0207682 
638 0.00261619 0.00233186 0.030305 
639 0.0331251 0.00361469 0.0561695 
640 0.038161 -0.00520018 0.025762 
641 -0.0254612 -0.00399837 0.0258704 
642 0.0351823 0.00264543 0.0227841 
643 -0.00305123 -0.0012333 0.0252914 
644 0.0103171 0.00471856 0.0172514 
645 -0.0100294 -0.00503251 0.0173799 
646 -0.0182613 -0.00242621 0.0484911 
647 -0.0133287 -0.00517391 0.0170092 
648 0.0104263 -0.00699869 0.0174047 
649 -0.00342492 -0.000934267 0.00147693 
650 -0.00870317 -0.000782895 0.0298107 
651 0.0378754 -0.00223255 0.0507629 
652 -0.0107534 -0.00587598 0.0324825 
653 0.0245185 0.0018977 0.0543588 
654 -0.0366609 -0.0035202 0.0461093 
655 0.0314827 0.00504796 0.0346949 
656 -0.00495287 0.00257227 0.0134039 
657 -0.0352003 -0.000685031 0.00926762 
658 0.0287234 -0.00385655 0.0275926 
659 0.0209369 0.00176831 0.0488447 
660 -0.0297084 0.00177065 0.068415 
661 -0.0254144 0.00130793 0.0430473 
662 -0.0389951 0.00207146 0.0665268 
663 -0.0159627 0.00573015 0.0378374 
664 0.0294344 -0.000340324 0.0275989 
665 -0.0229682 -0.00413555 0.00232362 
666 0.0054727 0.000626735 0.0277648 
667 -0.0131165 0.00213076 0.0218536 
668 -0.0338585 0.00423959 0.0259809 
669 -0.0391093 0.00432724 0.00130902 
670 0.00219227 -0.00455122 0.03352 
671 0.0182715 -0.00364473 0.044963 
672 -0.0171485 -0.00141484 0.0458991 
673 0.00163899 -0.00486845 0.0212064 
674 -0.0385546 -0.00185901 0.00135584 
675 -0.00884074 -0.00403249 0.0442762 
676 -0.0350607 7.17824e-05 0.0389982 
677 -0.0159213 0.00504405 0.0216229 
678 0.0315945 0.006934 0.0504242 
679 -0.0274304 -0.000135188 0.0669441 
680 -0.0129124 -0.00475816 0.0336856 
681 0.0116184 -0.00695595 0.0395993 
682 0.0075116 0.00441552 0.035463 
683 0.0383277 -0.00171447 0.0460707 
684 0.00923617 0.00357575 0.0431018 
685 -0.0393842 -0.00312115 0.00937442 
686 -0.00556717 -0.00052403 0.0408287 
687 0.039499 -0.0043041 0.0495745 
688 -0.0319879 0.00687788 0.0284112 
689 -0.0254328 -0.00582052 0.0616372 
690 -0.0249763 -0.00601609 0.0562361 
691 -0.0281309 -0.00231245 0.0211744 
692 0.0105101 -0.00526373 0.000500225 
693 -0.0103483 0.000300747 0.0122553 
694 0.0343319 -0.00537347 0.0312035 
695 -0.034375 -0.00404178 0.0101321 
696 0.0131093 0.00479724 0.0516099 
697 -0.0128064 0.00381423 0.0270679 
698 -0.00668677 -0.00691239 0.0124659 
699 -0.000910798 -0.000660199 0.0037085 
700 -0.00492482 0.00182567 0.00368165 
701 0.0164185 0.00560598 0.0537648 
702 -0.00191556 0.00352192 0.0312152 
703 -0.0288595 0.00422219 0.040328 
704 -0.0367444 -0.00143207 0.0387632 
705 0.0336418 -0.0014698 0.058514 
706 -0.027104 -0.00577786 0.0368952 
707 -0.00362503 1.128e-05 0.043271 
708 0.0260579 -0.000372015 0.045707 
709 0.0180093 -0.0043132 0.0128112 
710 -0.0385415 0.00305714 0.0442594 
711 0.0258094 -0.0068906 0.00311544 
712 0.0347703 0.00123224 0.060557 
713 -0.0354481 0.00425788 0.036922 
714 -0.0168412 -0.00235954 0.0373462 
715 -0.017484 -0.000851076 0.0383343 
716 -0.0327385 -0.00588336 0.0163551 
717 -0.0222148 0.00429355 0.00686584 
718 -0.0173642 0.00605647 0.0376344 
719 0.00953395 -0.00313559 0.0394446 
720 0.0111574 0.00699875 0.0446819 
721 -0.0167149 0.00345652 0.0181691 
722 -0.0018708 0.00699945 0.0265207 
723 0.0209451 -0.00610642 0.0337948 
724 0.0102383 -0.00374524 0.0178227 
725 -0.0125422 -0.00215294 0.0224004 
726 -0.0298487 0.000741322 0.032495 
727 -0.0311647 -0.00401155 0.0236469 
728 0.0296844 0.00317169 0.0527475 
729 -0.0363057 0.00541064 0.0362883 
730 -0.0349229 0.00255231 0.0358818 
731 -0.0140336 -0.00439767 0.0422814 
732 -0.0350455 0.00216671 0.0403929 
733 0.000959916 -0.00700009 0.0347807 
734 0.0138661 0.00627601 0.0302323 
735 -0.00263598 0.00363178 0.0341032 
736 0.00992091 0.000554467 0.0292257 
737 -0.00256343 -0.00499048 0.00920876 
738 0.0238722 0.00205655 0.0535975 
739 0.0243274 0.00605067 0.0251984 
740 0.022554 0.00619775 0.0359842 
741 0.00900464 0.00334149 0.0138022 
742 -0.0345506 -0.00523165 0.0443809 
743 0.00696965 -0.0015836 0.0272529 
744 -0.0336885 -0.0069998 0.0407157 
745 0.0153102 0.0068193 0.031196 
746 0.00158306 0.00570174 0.0336067 
747 0.01858 -0.00286082 0.0357236 
748 -0.0328601 -0.00425398 0.0148295 
749 0.0310069 -0.00613024 0.000499999 
750 -0.033409 0.00136864 0.0384429 
751 0.00882031 -0.00620328 0.0204987 
752 -0.0103966 -0.00359332 0.03514 
753 0.0313819 -0.00387977 0.0358252 
754 -0.00129454 0.00361024 0.0131191 
755 0.0283662 0.00517025 0.0280965 
756 -0.0162105 0.00385051 0.0151714 
757 -0.00345221 -0.00244019 0.00671388 
758 -0.0107031 -0.0020674 0.0199426 
759 -0.0206961 0.00595518 0.00151299 
760 -0.0144436 -0.00390337 0.0126413 
761 0.0256225 -0.000193056 0.0331087 
762 0.0370503 0.00305481 0.0520936 
763 -0.0222945 -0.00609881 0.0518016 
764 -0.00482865 -0.00699465 0.0182777 
765 -0.0355915 0.00366759 0.0251346 
766 0.0221155 0.00425742 0.0326626 
767 -0.0178382 0.00287508 0.0550349 
768 0.0312678 -0.00497021 0.0412089 
769 0.0113734 -0.00244161 0.0457795 
770 -0.0391653 0.00212143 0.0106314 
771 0.0314978 0.00345943 0.0394982 
772 0.0148994 0.00698841 0.047186 
773 0.0188717 0.00463433 0.0501121 
774 0.0187892 -0.00197181 0.055405 
775 -0.0277923 -0.00523727 0.0452836 
776 0.00485367 0.000673586 0.0023591 
777 0.031214 -0.000266801 0.0161078 
778 0.0373345 -0.00612332 0.0330021 
779 0.0316284 0.00159915 0.0243398 
780 -0.0137451 -0.00318147 0.0287229 
781 -0.0235495 -0.00602142 0.0345463 
782 -0.0109519 -0.0039486 0.019645 
783 0.00394259 -0.00617057 0.00502844 
784 -0.0175404 0.00449938 0.0215389 
785 -0.0330502 0.000944459 0.00050366 
786 -0.0371661 -0.00333814 0.0226059 
787 -0.0188451 0.00334369 0.042826 
788 -0.0191278 -0.007 0.0356466 
789 -0.0295824 0.00594907 0.0216833 
790 -0.00749627 0.0015452 0.0179347 
791 -0.0201049 -0.00326235 0.0199471 
792 -0.0149917 0.0021584 0.045519 
793 -0.00591537 0.000491148 0.0347461 
794 -0.0363138 -0.00290357 0.0242609 
795 0.0301422 -0.00230504 0.0173497 
796 -0.0260281 -0.000508168 0.0444707 
797 0.00662531 -0.00698881 0.00605655 
798 0.00630743 -0.00623554 0.0448589 
799 -0.0318945 -0.00238923 0.0242791 
800 0.0394691 0.000824167 0.0108036 
801 -0.0107987 0.00525888 0.0174848 
802 -0.00460263 0.00250549 0.0124421 
803 -0.0326222 -0.00646776 0.0513864 
804 0.0363217 -0.00484731 0.039261 