ITEM: TIMESTEP
4012000
ITEM: NUMBER OF ATOMS
60000
ITEM: BOX BOUNDS ff ff ff
-0.04 0.04
-0.0075 0.0075
0 0.25
ITEM: ATOMS id x y z 
1 0.0357897 -0.00349558 0.0037783 
2 0.0172626 0.00343148 0.0276877 
3 0.022525 0.00698239 0.0234707 
4 0.00868156 9.65719e-05 0.0213148 
5 0.0159257 -0.00483537 0.0405512 
6 -0.0313246 -0.00377127 0.0650278 
7 -0.0275388 -0.00038815 0.040807 
8 0.0207144 -0.00375084 0.0494565 
9 -0.0370154 0.000694499 0.0324599 
10 -0.0163304 -0.00384222 0.0399068 
11 -0.00673917 -0.00156586 0.0224782 
12 0.023264 0.00588921 0.0329868 
13 -0.00031329 -1.493e-05 0.0120649 
14 0.0357042 0.002072 0.0533342 
15 -0.0224074 -0.00698599 0.0136987 
16 -0.0371633 0.00694439 0.0469998 
17 -0.0315263 -0.00445624 0.0301743 
18 0.0171318 0.00545719 0.00672019 
19 -0.0385637 -0.00699525 0.0186646 
20 -0.021819 -0.0017581 0.050492 
21 -0.00129619 0.00503851 0.0211218 
22 -0.0166015 -0.00677176 0.0500952 
23 0.0216703 0.00360762 0.0081152 
24 0.0348601 -0.00060731 0.051562 
25 0.0189499 0.000851013 0.0522944 
26 -0.032173 -0.000628564 0.0194613 
27 -0.0336429 0.0059432 0.0471528 
28 0.0208123 -0.00143967 0.0186328 
29 -0.0110177 -0.00126216 0.0180287 
30 -0.0139691 -0.00221007 0.0332461 
31 0.0319399 0.00350902 0.0532746 
32 -0.0245135 0.00278471 0.0105433 
33 -0.0368993 -0.00266032 0.00793547 
34 -0.0207657 0.00613159 0.0306294 
35 0.0130119 -0.00147057 0.0105503 
36 -0.0111813 -0.00159709 0.00607097 
37 -0.012155 -0.000178026 0.0103503 
38 0.0208131 -0.00212006 0.0535257 
39 0.00782701 0.00299209 0.0437629 
40 0.0112574 0.00347443 0.0348454 
41 -0.0326267 0.00228595 0.0533231 
42 -0.0104779 0.00277801 0.0175871 
43 0.00518518 0.0044413 0.0316059 
44 -0.00166579 -0.000182335 0.0165755 
45 -0.0386235 0.00570243 0.0598537 
46 -0.0157018 -0.00287419 0.0211378 
47 0.00269929 -0.00224581 0.00498156 
48 -0.0395 0.00242315 0.0343713 
49 0.00865014 -0.00437787 0.0303944 
50 0.0172454 0.000186698 0.00662632 
51 -0.0213539 0.00369365 0.054593 
52 -0.0268415 0.00602051 0.0252505 
53 0.015957 0.00180804 0.0131133 
54 0.0361677 0.000284897 0.000510266 
55 -0.0214941 0.00559886 0.0567698 
56 0.0232437 -0.00512376 0.02205 
57 0.0214017 0.000914895 0.0459218 
58 -0.0255572 0.00515568 0.0703954 
59 -0.0259973 -0.00686624 0.0285878 
60 -0.0327463 -0.00601808 0.0553032 
61 -0.0345371 -0.00171943 0.0222877 
62 0.021908 0.00448545 0.0565933 
63 0.0242684 0.00177999 0.0115709 
64 0.0162821 0.00699888 0.0238211 
65 -0.0193343 0.00486034 0.0612453 
66 0.0130685 0.00522294 0.0374298 
67 0.010068 0.00134504 0.0297737 
68 -0.0249959 -0.00693934 0.028524 
69 0.039494 0.00543014 0.0463712 
70 0.0255199 0.00146489 0.0500931 
71 -0.0329762 -0.00340957 0.052563 
72 0.0326773 0.00331741 0.0486362 
73 0.0220835 0.0067272 0.0310947 
74 -0.0254227 -0.00440549 0.0152108 
75 0.0110249 0.00625275 0.0109552 
76 0.0136562 0.00405944 0.0472693 
77 0.0182878 0.00688495 0.0358585 
78 0.0328467 -0.003549 0.0161813 
79 -0.0225978 0.00148378 0.0359538 
80 -0.0213233 0.00699664 0.0215748 
81 -0.00517463 -0.0052367 0.00711101 
82 -0.0297564 0.0012006 0.0150864 
83 0.028718 -0.00467224 0.0514018 
84 -0.0274775 -0.00230817 0.0237344 
85 0.0394443 -0.00212588 0.0475213 
86 0.0218549 -0.00698622 0.0187112 
87 0.030298 0.00566312 0.00691856 
88 -0.00183099 0.001467 0.00626086 
89 -0.0236115 -0.00244447 0.00831277 
90 -0.0187411 0.00267421 0.0622412 
91 -0.0255478 -0.00237465 0.00538269 
92 0.0292478 0.00077812 0.0333814 
93 -0.0149044 0.00689666 0.052934 
94 0.0357548 -0.00221792 0.0224585 
95 -0.0325962 0.00346474 0.000500225 
96 -0.0123589 0.00449176 0.025186 
97 0.0019418 0.00174269 0.0218109 
98 0.00345592 -0.000285947 0.0150844 
99 0.0322804 0.00607883 0.046393 
100 0.00853231 0.000917885 0.024851 
101 -0.0297894 0.00145616 0.0396854 
102 0.00699184 -0.00100374 0.025785 
103 -0.0126987 0.00524451 0.0416962 
104 0.00181738 -0.00329987 0.00469807 
105 -0.00575918 0.000870621 0.000500829 
106 -0.0122825 -0.00445162 0.0197415 
107 -0.00402271 0.000586535 0.0140072 
108 0.0276592 -0.00165697 0.0465678 
109 -0.0271288 -0.000179407 0.0224861 
110 0.0101274 -0.00499664 0.0293272 
111 0.00200743 -0.00203353 0.0274521 
112 -0.0260684 -0.00699948 0.0376515 
113 -0.00603581 -0.000342297 0.0386786 
114 0.0338852 -0.00151575 0.0548064 
115 -0.0107053 0.00299524 0.00482315 
116 0.019871 -0.000410543 0.0491873 
117 0.0366519 0.00603761 0.0504564 
118 -0.0297398 0.00355317 0.072993 
119 0.0108456 -0.00415664 0.0319199 
120 0.0300528 0.00323307 0.0610615 
121 0.00981971 0.00628503 0.0210522 
122 0.00604981 0.00246109 0.0383707 
123 -0.00778803 -0.00177253 0.0320018 
124 0.000433196 -0.00219386 0.0299474 
125 0.0292415 0.00613259 0.046194 
126 0.0305005 -0.00698586 0.0224417 
127 0.0386654 -0.00504091 0.00463453 
128 -0.0141695 0.00556873 0.0321449 
129 -0.0181339 -0.00484873 0.0617758 
130 -0.00701798 0.00174755 0.0191839 
131 -0.0357471 -0.000509842 0.0170758 
132 0.0256748 0.00681552 0.00147527 
133 -0.0362003 0.00122884 0.0223328 
134 0.0337114 -0.00306023 0.0493286 
135 -0.022769 0.00607383 0.0354331 
136 0.0340152 0.00410531 0.00218962 
137 0.0371077 -0.00658978 0.0570656 
138 0.0102876 0.00502225 0.00784894 
139 -0.0302443 0.00412663 0.0302477 
140 0.0368081 -0.00677944 0.0494884 
141 0.013481 -0.00272147 0.0440608 
142 0.00342278 -0.00301427 0.00136941 
143 -0.0151663 -0.00448612 0.043883 
144 0.0345263 -0.00607959 0.0213523 
145 0.0359343 0.000224762 0.0615654 
146 -0.024226 0.00509862 0.0315492 
147 -0.0322104 -0.00360331 0.0607782 
148 0.010638 0.000377581 0.0206636 
149 0.00285927 -0.00265524 0.016346 
150 0.0344384 -0.00037487 0.00486333 
151 0.0394661 -0.00316496 0.0537405 
152 -0.0220772 0.00326194 0.0645028 
153 0.0270435 -0.004353 0.00539278 
154 0.0348443 0.00441663 0.0176616 
155 -0.0120096 -0.00700007 0.0256237 
156 -0.0259136 -0.00267652 0.0716873 
157 0.0330565 -0.00457841 0.016872 
158 -0.0339335 0.00309544 0.0203138 
159 0.0196031 0.00125165 0.033682 
160 -0.0394984 -0.00051243 0.0277962 
161 0.0318209 0.00222077 0.0556568 
162 0.0238064 0.0025899 0.0349982 
163 -0.0242465 0.00572958 0.0564076 
164 0.0363426 4.07354e-05 0.0353814 
165 0.0154112 -0.00677346 0.034223 
166 -0.0382571 0.00083734 0.0539092 
167 0.0278029 -0.00198768 0.00217732 
168 -0.00480587 -0.00545179 0.0260197 
169 0.0294418 0.000169945 0.0452322 
170 -0.0386433 0.00157908 0.0370381 
171 0.00522239 -0.00148235 0.03267 
172 -0.00337335 0.002581 0.002035 
173 0.0361921 -0.00595114 0.00961211 
174 -0.0347991 -0.00186307 0.0733962 
175 0.0191261 -0.00152185 0.0113927 
176 0.0346326 -0.000907129 0.00787655 
177 -0.0306481 0.00174966 0.0314093 
178 -0.0371694 -0.00191603 0.0158248 
179 0.0275455 0.00456589 0.00298193 
180 -0.0364553 -0.00469955 0.0337604 
181 -0.0394827 0.00477325 0.0301632 
182 -0.0376718 -0.00394253 0.0294577 
183 -0.0109967 -3.76338e-05 0.026312 
184 0.027968 -0.00428856 0.000513543 
185 -0.0366113 -0.00510085 0.0284804 
186 -0.0257463 0.00324391 0.0105178 
187 -0.0166057 0.00442543 0.0281584 
188 0.00505837 0.00308173 0.0266009 
189 0.0185912 0.00620964 0.0519876 
190 -0.00848382 -0.000632601 0.0368266 
191 -0.0367808 -0.0006308 0.0164245 
192 -0.0254414 -0.0031057 0.0555954 
193 -0.0160938 -0.00699462 0.0221663 
194 0.0336079 0.00138322 0.0425348 
195 -0.0276128 0.000601868 0.0530074 
196 0.00710471 -0.00304893 0.04104 
197 -0.0122468 -0.00346971 0.0284598 
198 -0.0226519 -0.000141464 0.0337009 
199 0.0352681 0.00463203 0.0541535 
200 -0.0188925 0.00448825 0.0246318 
201 0.00851014 -0.00550297 0.028957 
202 0.0301101 0.00604643 0.0466927 
203 -0.00160143 -0.000874196 0.0217149 
204 -0.0175891 0.00180113 0.00785414 
205 -0.024237 -0.00165725 0.013581 
206 -0.0277596 0.00193289 0.00874703 
207 -0.00079621 0.00330768 0.012412 
208 -0.00572818 -0.002667 0.00050008 
209 -0.0132713 0.00344151 0.0410516 
210 -0.0301529 -0.00607301 0.0595661 
211 -0.00982761 -0.00124837 0.0335579 
212 -0.0307552 0.0032092 0.0382021 
213 0.0211273 -0.00106575 0.00337116 
214 -0.00356442 -0.00352569 0.00148824 
215 0.0376723 0.00595936 0.0136289 
216 -0.0373872 -0.0056788 0.0402172 
217 0.0375042 0.00155193 0.0241727 
218 -0.0126372 0.000680781 0.0611423 
219 0.0370816 -0.00237912 0.00324303 
220 0.0313685 -0.000273492 0.020983 
221 0.032808 4.35272e-05 0.00764661 
222 -0.0290317 -0.00218194 0.0378211 
223 0.0164252 0.00214793 0.00569584 
224 -0.0172102 0.00173714 0.000544121 
225 0.0371968 -0.00697657 0.0312663 
226 0.0228808 0.00695952 0.00683938 
227 0.0311263 -0.00153164 0.0409193 
228 -0.0322407 -0.00103989 0.0185502 
229 0.0215875 0.00608969 0.0418529 
230 -0.00586054 -0.00161635 0.0300528 
231 -0.0226333 -0.004459 0.0639685 
232 -0.0121761 0.00175133 0.000646608 
233 0.00686007 -0.00697871 0.00822501 
234 0.0348848 0.00367391 0.0544634 
235 -0.00562434 -0.00361976 0.024321 
236 0.00883813 0.000611398 0.0204678 
237 0.0220895 0.00453439 0.0546284 
238 0.0287528 0.000532938 0.0311131 
239 0.0312765 0.00562458 0.0293704 
240 -0.0248939 -0.0049509 0.00984341 
241 -0.0249775 0.000833137 0.0296052 
242 -0.00974649 0.00598216 0.0300656 
243 0.00175799 -0.00121513 0.0167952 
244 0.00869597 -0.00523209 0.0166026 
245 -0.028666 -0.00198236 0.0169767 
246 0.0179576 0.00150522 0.045928 
247 -0.0306333 -0.00699174 0.038824 
248 -0.00852616 0.00236141 0.0426426 
249 0.0215372 -0.0015859 0.0148599 
250 -0.0169135 -0.00324097 0.00871082 
251 0.0390297 0.0060958 0.000500151 
252 0.0308388 0.000577941 0.0343588 
253 -0.00682991 -0.00504812 0.0365311 
254 -0.0196712 -0.00614952 0.0426049 
255 0.0151672 -0.000563974 0.0119023 
256 0.0301909 0.0027226 0.0579502 
257 -0.0211512 0.00564139 0.0156753 
258 0.024266 -0.00481246 0.0205195 
259 0.0294596 0.00111953 0.0277428 
260 0.0168933 -0.00697362 0.0168389 
261 -0.00429151 -0.00624419 0.00999914 
262 -0.0124404 0.00499581 0.0517558 
263 -0.0345275 0.00536016 0.0177626 
264 0.0218199 -0.00347044 0.0196322 
265 -0.031234 0.00179931 0.0360866 
266 0.018073 0.00309438 0.0210362 
267 -0.0205384 -0.00509765 0.0358495 
268 -0.0217786 0.00496705 0.0189272 
269 0.0111597 -0.00612248 0.0181306 
270 0.00314429 -0.00622699 0.0179638 
271 0.0082469 0.00699835 0.00054832 
272 0.034619 -0.00256601 0.0138492 
273 0.0343066 0.00322754 0.0240754 
274 -0.00322191 -0.00166167 0.0306251 
275 -0.0242142 0.00319457 0.0248706 
276 0.0261511 0.000383629 0.0524545 
277 -0.0255915 0.00530899 0.0306377 
278 0.0155937 -0.000771155 0.0182834 
279 0.0244719 0.00485278 0.0466696 
280 -0.0385929 0.00306152 0.0163971 
281 0.0018483 0.00160542 0.00140758 
282 -0.0281573 -0.00539796 0.0170023 
283 0.0228355 -0.00103543 0.00515505 
284 0.00722817 -0.00667744 0.0380966 
285 -0.0156805 0.00090078 0.0227108 
286 -0.00831417 -0.00542586 0.0303285 
287 0.0251703 0.00144034 0.0200598 
288 -0.0321703 -0.00536167 0.0529089 
289 0.018402 -0.00243773 0.0165144 
290 -0.0394237 0.00362255 0.0159091 
291 -0.0179563 -9.67864e-06 0.0289688 
292 -0.0307974 -0.00526017 0.00519285 
293 -0.0175285 0.00422073 0.0105045 
294 0.0325672 -0.00191292 0.0484742 
295 0.0238687 0.00119019 0.00715796 
296 0.0303136 0.00340355 0.020835 
297 0.0275739 0.00436574 0.0408396 
298 -0.00804937 0.000231531 0.0209063 
299 0.0274253 -0.00402117 0.00981287 
300 0.0143227 -0.00458444 0.00140611 
301 -0.0271256 0.000867785 0.00597042 
302 0.0138464 0.0045763 0.0445478 
303 -0.0313368 0.00608925 0.0455688 
304 0.0287234 -0.00353889 0.0232607 
305 -0.0149624 0.00174054 0.0200086 
306 -0.00590878 0.00186972 0.0246149 
307 0.029647 0.00568973 0.0304048 
308 -0.0212541 -0.00698717 0.000501958 
309 0.0247916 0.00697721 0.0424016 
310 0.0372484 0.00349778 0.0564899 
311 0.0112587 0.00591058 0.040473 
312 -0.0211368 -0.0047786 0.0434453 
313 -0.00208404 -0.00479675 0.0193493 
314 0.0344242 0.00625298 0.015199 
315 -0.034043 0.00606163 0.00791774 
316 -0.0285501 -0.00418936 0.0194328 
317 -0.00200913 -0.00116268 0.0180058 
318 -0.0309549 0.00318825 0.0637859 
319 0.0143104 0.00352727 0.0389275 
320 0.0131813 -0.0034528 0.0349975 
321 0.0329159 0.00697474 0.00473392 
322 0.0242859 0.00432609 0.0477155 
323 -0.00854168 -0.00215382 0.0374902 
324 0.0112816 0.00346472 0.0317815 
325 -0.0325092 -0.00131427 0.006081 
326 -0.0321997 0.00275702 0.0191977 
327 0.0357413 -0.00699477 0.0191853 
328 -0.0314998 -0.00691347 0.0609115 
329 0.0214847 0.0029123 0.0530717 
330 -0.0240637 -0.00179614 0.0706798 
331 0.012738 0.000855617 0.0133801 
332 -0.0246644 0.00100826 0.0237961 
333 0.0224524 0.00448489 0.00645365 
334 -0.0216834 0.000230985 0.0160859 
335 -0.0140962 0.0033864 0.0256655 
336 0.0145655 0.000729174 0.045146 
337 0.0336017 0.00171537 0.059768 
338 0.0227371 0.000113607 0.0422011 
339 0.0228338 -0.00227239 0.0191716 
340 0.000610811 0.00619447 0.00288639 
341 -0.0393179 0.00401084 0.014985 
342 0.000529408 0.00438204 0.0163998 
343 -0.0328751 -0.000773635 0.0363374 
344 -0.00724937 0.00123432 0.0112549 
345 -0.00551675 -0.00398197 0.0259853 
346 0.0259299 -0.00699984 0.0239142 
347 0.0131165 0.00137087 0.0317102 
348 0.0304574 -0.00442657 0.0496768 
349 -0.0342557 -0.00509019 0.0187415 
350 -0.0365166 -0.00692337 0.00835235 
351 -0.028833 -0.00689999 0.0659606 
352 -0.0286968 -0.0046487 0.00480806 
353 0.0299342 0.000193633 0.0279502 
354 -0.0200894 0.00329919 0.0619897 
355 -0.0146774 -0.00286849 0.0223066 
356 -0.0217674 -0.00436512 0.000500846 
357 0.02163 0.00214929 0.0229259 
358 0.0144787 0.00234729 0.0260711 
359 0.0254078 0.00230409 0.0450388 
360 -0.023897 -0.00537445 0.0415459 
361 0.022709 -0.00016703 0.0291986 
362 -0.0168838 0.00425944 0.0507519 
363 -0.000753918 0.00699994 0.014335 
364 0.0243217 -0.000245505 0.0545146 
365 -0.0312115 0.00407704 0.0630511 
366 -0.0338826 -0.00147615 0.0277705 
367 0.0200351 0.00435932 0.0229819 
368 -0.0380859 0.00177564 0.0405921 
369 0.0272715 0.00209713 0.021269 
370 0.0173873 -0.00348277 0.000518314 
371 -0.0300914 -0.00519866 0.022499 
372 -0.0384669 -0.00323263 0.0374326 
373 -0.0140266 0.00301995 0.0540592 
374 -0.037918 0.000621759 0.0328906 
375 0.0380301 -0.00238734 0.0314916 
376 -0.0220478 0.00387075 0.0525461 
377 -0.026312 0.00169217 0.0047606 
378 -0.0363586 0.0061393 0.0659488 
379 0.0239992 0.00420774 0.022215 
380 0.0315222 0.00547582 0.00556707 
381 -0.0296588 0.00599538 0.00791338 
382 -0.0176197 -0.00097495 0.039837 
383 -0.0394954 -0.00699543 0.0211269 
384 -0.0239546 -0.00699957 0.0365882 
385 -0.0242925 -0.00364113 0.0402081 
386 -0.0227456 -0.00697196 0.0659883 
387 -0.0191398 -0.00300615 0.0634458 
388 -0.00271325 0.00636293 0.0175325 
389 0.0275678 -0.00608536 0.0104712 
390 0.0107695 0.00696901 0.0368097 
391 0.0340486 0.0031578 0.00454167 
392 -0.0287525 0.007 0.0307561 
393 0.0240867 -0.00619621 0.0208115 
394 -0.0284853 0.00472305 0.0218568 
395 -0.00365964 0.000651028 0.0359004 
396 -0.0394999 -0.00389043 0.000504249 
397 -0.0234883 -0.00491638 0.0321103 
398 -0.0332478 -0.0010048 0.0685218 
399 -0.0345399 -0.000442094 0.0444743 
400 -0.0361967 0.00176678 0.0629307 
401 0.0286623 -0.00173719 0.0584834 
402 -0.006201 -0.00527279 0.000628583 
403 -0.00374449 -0.000667459 0.0184487 
404 -0.0183339 -0.00243246 0.0558243 
405 -0.0342234 0.000568205 0.0614681 
406 -0.00390632 0.000997902 0.0248666 
407 0.0375281 0.000773089 0.0482469 
408 0.0206742 0.00415892 0.0480118 
409 -0.0208255 0.00143015 0.0407636 
410 0.0320954 0.00269494 0.0425758 
411 -0.00299254 -0.00232242 0.0168351 
412 -0.0225586 0.00700018 0.0289684 
413 0.0390785 -0.00101719 0.0116735 
414 0.0244195 -0.00696066 0.0111036 
415 0.0310868 -0.00522949 0.0519046 
416 -0.0281637 -8.9276e-05 0.0346911 
417 0.00637733 -0.00171664 0.0161105 
418 -0.0266871 -0.00358241 0.0128704 
419 0.0383568 -0.0023932 0.0264466 
420 -0.0156087 0.000244811 0.0291835 
421 -0.0255418 -0.00520761 0.0673665 
422 -0.0224687 -0.00252788 0.0664679 
423 -0.00876537 0.00523069 0.0259265 
424 -0.00393731 0.00212962 0.027494 
425 -0.0042002 0.00699987 0.0168689 
426 -0.0259743 0.00691587 0.0220154 
427 0.0182593 -0.00588841 0.0194842 
428 0.0171864 0.00227539 0.0325075 
429 0.0351629 -0.00442398 0.0385427 
430 -0.0174787 0.00200122 0.0456032 
431 0.022075 -0.000506388 0.0280541 
432 -0.00368532 -0.00317911 0.00536847 
433 0.0347404 -0.000972273 0.025404 
434 -0.0300394 -0.00691557 0.041258 
435 -0.00806607 0.000142685 0.0196665 
436 0.0320209 0.00256023 0.0535837 
437 -0.0363962 -0.00599897 0.0639963 
438 -0.0379608 0.00193642 0.024431 
439 -0.0367015 -0.00699806 0.0223044 
440 0.0304552 -0.00247707 0.0355357 
441 -0.00270453 0.00254669 0.00285907 
442 -0.00663647 -0.00509743 0.010726 
443 -0.0337617 -0.00240333 0.0585787 
444 -0.0258094 -0.00612277 0.000513594 
445 -0.000815469 0.00558728 0.014044 
446 -0.00223922 0.00284295 0.0272738 
447 -0.0321347 0.00116204 0.0643079 
448 -0.0122059 -0.00520278 0.0297045 
449 0.0276603 -0.00428882 0.054213 
450 0.0209756 -0.000351798 0.0544607 
451 0.0142884 -0.000527414 0.0526221 
452 0.0368942 0.000972797 0.000504734 
453 0.0363538 0.000969277 0.0291212 
454 -0.00678571 0.0064015 0.0269969 
455 -0.0394508 -0.0033421 0.0425611 
456 0.00737137 0.00242923 0.0178659 
457 -0.0138463 -0.00435415 0.0250437 
458 -0.0246001 -0.0031093 0.0622286 
459 0.0376122 0.00534368 0.0264371 
460 -0.0326403 -0.00362998 0.0434406 
461 -0.0382719 -7.93e-05 0.0120463 
462 -0.0166625 -0.000688259 0.0465383 
463 -0.010829 0.00432685 0.0125864 
464 0.0241504 -0.000422332 0.0516049 
465 -0.0207805 -0.00697577 0.0323459 
466 0.00294932 0.00139151 0.0156291 
467 0.00760517 -0.00349388 0.00849922 
468 0.00960826 3.04734e-05 0.0209092 
469 0.00954836 -0.00696858 0.0177768 
470 -0.00381615 0.00533861 0.0316341 
471 0.038605 0.00652201 0.0204361 
472 -0.00969133 0.000926986 0.000525316 
473 0.0298042 -0.00186434 0.0484078 
474 0.0277758 -0.00696485 0.0252497 
475 0.0314481 -0.00247718 0.0587562 
476 0.00078425 0.00356708 0.0158709 
477 0.0394936 0.00698838 0.0281683 
478 -0.0111116 0.00256348 0.0229678 
479 -0.00824718 0.000851188 0.0220481 
480 0.0315096 0.0069612 0.0458915 
481 0.00914583 0.00537099 0.0279635 
482 -0.0125918 0.000478402 0.0506403 
483 -0.0308311 -0.00316077 0.0406211 
484 -0.0288577 -0.00697262 0.00918476 
485 -0.00979341 -0.00698646 0.0254883 
486 0.0275472 -0.00139673 0.0491162 
487 -0.0289968 0.00454762 0.0396064 
488 -0.0109394 0.00352189 0.0170669 
489 -0.0169844 -0.00120675 0.0184141 
490 -0.0153993 0.00130282 0.0308053 
491 -0.0284359 -0.00351124 0.0393798 
492 -0.0351899 0.00368452 0.029016 
493 0.0328116 -0.00613081 0.0232208 
494 0.00368772 -0.00699916 0.0151219 
495 -0.0287862 0.00238221 0.0108579 
496 -0.0194591 0.00188884 0.041895 
497 -0.0246486 0.000664973 0.0225989 
498 0.0225555 -0.00016645 0.0449214 
499 0.0201848 -0.0010538 0.00474036 
500 -0.027173 0.00180995 0.0687682 
501 -0.00794793 0.00697997 0.0120891 
502 -0.0260891 -0.00519906 0.0124102 
503 -0.0207871 -0.00055795 0.0254407 
504 0.0344968 -0.00692385 0.0509841 
505 -0.0146492 0.00196495 0.0308071 
506 0.00980829 0.00624494 0.0192014 
507 0.0299189 0.00511881 0.0346828 
508 -0.0302232 -0.00121459 0.0626295 
509 0.00757674 0.00444943 0.0115948 
510 -0.0284636 -0.00403186 0.00145147 
511 0.022835 -0.00509898 0.0251465 
512 0.0251344 0.000261921 0.0447249 
513 -0.0165903 -0.00697127 0.0439351 
514 0.0366842 0.00366343 0.0139205 
515 -0.0251189 -0.00691179 0.0599 
516 0.0363789 -0.00292898 0.0282477 
517 -0.00523438 -0.000581813 0.00135994 
518 -0.0128889 -0.00236862 0.0563704 
519 0.0154148 -0.00121591 0.0295513 
520 0.0366128 -0.00408064 0.0601818 
521 0.00292497 -0.00113418 0.0150181 
522 -0.0138066 -0.00119655 0.0106509 
523 -0.0244257 -0.0037648 0.0692246 
524 -0.0184945 -0.0017056 0.0544096 
525 0.020326 0.000581832 0.0199199 
526 0.0210255 0.00503478 0.00504507 
527 -0.0311651 -0.00324662 0.0709565 
528 0.0044908 0.00277154 0.0118411 
529 0.0208584 -0.000857852 0.000506553 
530 -0.0288228 0.0037592 0.00137457 
531 0.000636787 0.00219173 0.00146582 
532 0.0193628 -0.00173068 0.000519385 
533 -0.010693 -0.000584265 0.0376568 
534 -0.0262073 0.00441566 0.0676601 
535 0.0131339 -0.00699832 0.0466116 
536 -0.0312878 0.00699829 0.0191714 
537 0.032932 0.00699911 0.0174041 
538 0.0289127 -0.00513949 0.0457948 
539 0.0272613 -0.0044974 0.0152535 
540 -0.0309354 -0.000604393 0.00965371 
541 -0.0394116 -0.000683591 0.0110553 
542 0.0265638 0.00436473 0.0136688 
543 0.00779939 -0.00114687 0.0107448 
544 -0.0246747 -0.000822486 0.0663309 
545 -0.00264495 -0.000551502 0.0130855 
546 -0.017225 0.00325923 0.0294683 
547 -0.0394439 -0.00162933 0.032114 
548 -0.027213 -0.00141727 0.0179399 
549 -0.0234634 0.000393725 0.0423378 
550 -0.0126272 0.00536685 0.0247754 
551 -0.0109028 0.00689055 0.025278 
552 0.0226172 -0.00275997 0.0461806 
553 -0.00267901 -0.00698633 0.0102195 
554 0.0350938 -7.70675e-05 0.0505331 
555 0.0228801 -0.0033232 0.0150679 
556 -0.0129132 -0.0053532 0.0218571 
557 0.014254 0.006989 0.029271 
558 -0.0339053 -0.00278542 0.0626032 
559 0.0132919 0.00504772 0.0337195 
560 0.0126145 -0.000721352 0.0071676 
561 0.00582523 -0.00137957 0.0133667 
562 -0.0393711 -0.00344263 0.057145 
563 -0.016719 0.0043635 0.000502775 
564 0.0116373 0.00536183 0.0357696 
565 0.0211909 -0.00329149 0.0550608 
566 0.00418982 0.00481824 0.041843 
567 0.0377954 0.00492358 0.00664646 
568 0.0142523 0.00699826 0.000501716 
569 -0.0394978 0.00700016 0.0289962 
570 -0.00303418 0.00127157 0.0304229 
571 0.0144272 -0.00465377 0.0279924 
572 0.0364298 0.00137838 0.0198092 
573 -0.0270549 -0.00699933 0.0378157 
574 0.00688474 -0.00346862 0.00730824 
575 0.0111089 -0.00699021 0.0209017 
576 -0.0351011 -0.00470335 0.0232281 
577 -0.0324574 0.00241691 0.0650977 
578 -0.0394371 0.00137268 0.0253001 
579 -0.00775115 -0.00156022 0.0154622 
580 -0.0181245 0.000507238 0.0261859 
581 -0.0288262 0.00357592 0.0407027 
582 -0.0112705 -0.00520321 0.0322587 
583 0.0291247 -0.0048071 0.0572416 
584 0.0301934 2.11002e-05 0.00933326 
585 0.035944 -0.00527487 0.0212626 
586 0.0170215 -0.000238108 0.0198386 
587 -0.0257707 -0.00525363 0.0256807 
588 0.00300293 0.00315768 0.00400224 
589 0.0394798 -0.00308119 0.0525618 
590 0.0263217 -0.00354011 0.0279226 
591 0.0190315 -0.00652479 0.019566 
592 0.0394012 -0.00217815 0.0441763 
593 -0.0101088 -0.00196072 0.0202688 
594 0.0393931 -0.00698952 0.0393418 
595 -0.0366765 -0.000899336 0.0421346 
596 0.0323373 -0.00609465 0.0437209 
597 -0.0277631 0.00136794 0.0130637 
598 0.0237344 -0.00445139 0.0247174 
599 0.0359523 0.000627593 0.0177469 
600 -0.00307015 -0.000169185 0.0289015 
601 0.0305547 0.000145288 0.0187773 
602 0.0311785 -0.00423841 0.0244215 
603 0.0264758 -0.00518165 0.00626428 
604 0.038417 -0.000703274 0.0363627 
605 -0.0182281 -0.00223949 0.0170455 
606 0.035806 0.00699707 0.0193863 
607 0.0340795 0.0043405 0.000662789 
608 0.00550858 -0.00109237 0.0317462 
609 -0.036858 0.00113871 0.0188388 
610 -0.0109193 0.00178491 0.0306614 
611 -0.0355756 4.90476e-05 0.00997777 
612 -0.0319101 -0.00638345 0.0374262 
613 0.0101982 0.00103143 0.0343342 
614 -0.0101827 0.00699523 0.0334435 
615 0.00329009 0.00313293 0.0326432 
616 -0.0377782 0.00323356 0.0169712 
617 0.0158051 -0.00444668 0.0481686 
618 -0.0163803 -0.00429845 0.0389851 
619 -0.0214777 -0.00465003 0.0697235 
620 -0.0145475 0.00421133 0.0474545 
621 0.0113313 -0.00341141 0.03483 
622 -0.0299048 -0.00349627 0.0689499 
623 -0.0117362 0.00195149 0.0144497 
624 -0.0267103 0.00214113 0.0415753 
625 -0.00832992 0.00293014 0.0163093 
626 -0.0217451 -0.00298722 0.0343907 
627 0.0249953 0.00227298 0.0555956 
628 0.0354613 -0.00340341 0.0119219 
629 -0.00218883 0.00268298 0.0112262 
630 -0.0031733 0.00699912 0.0199126 
631 0.0304444 -0.00164313 0.0255978 
632 0.0381225 0.00442785 0.0247578 
633 0.0380861 -0.00130336 0.0482368 
634 -0.00104356 -0.00366798 0.00954051 
635 0.0133749 0.0038313 0.0294191 
636 -0.0371097 -0.00694911 0.0645272 
637 0.0210408 -0.00684371 0.0160411 
638 0.00327642 0.00212078 0.0276245 
639 0.0334094 0.00358565 0.0570024 
640 0.0384195 -0.00519834 0.0215989 
641 -0.0266763 -0.00405049 0.0215727 
642 0.0354334 0.00253462 0.0176055 
643 -0.00481811 -0.00121715 0.0232212 
644 0.0100628 0.00478899 0.0143678 
645 -0.0115923 -0.00494106 0.0145665 
646 -0.0193458 -0.00255762 0.052279 
647 -0.0142391 -0.00505853 0.012808 
648 0.0103424 -0.00699954 0.0150525 
649 -0.00361308 -0.000916736 0.00156442 
650 -0.0117177 -0.000830582 0.0261728 
651 0.0380187 -0.00233222 0.0514637 
652 -0.0136778 -0.00613022 0.0290479 
653 0.0260623 0.00183558 0.0548347 
654 -0.0372817 -0.00398442 0.0466067 
655 0.0324201 0.00483059 0.029528 
656 -0.00627414 0.00267572 0.0122708 
657 -0.0349073 -0.00106073 0.0081207 
658 0.029637 -0.00388167 0.0206705 
659 0.0233063 0.00184788 0.0489253 
660 -0.0296946 0.00157762 0.0713017 
661 -0.0266948 0.00134304 0.0400588 
662 -0.0377804 0.00160353 0.071067 
663 -0.0184002 0.00582271 0.0352406 
664 0.0304576 -0.000422602 0.0205982 
665 -0.0242113 -0.00408632 0.00290836 
666 0.00602341 0.000566611 0.0245795 
667 -0.0148875 0.0022424 0.0174522 
668 -0.0344432 0.00426001 0.0217455 
669 -0.0391102 0.00433891 0.0013138 
670 0.00433673 -0.00430065 0.0299331 
671 0.0210854 -0.00335959 0.0446854 
672 -0.018922 -0.00139744 0.0442492 
673 0.000530122 -0.0048516 0.0197701 
674 -0.0386069 -0.00185337 0.00144187 
675 -0.0126659 -0.00343085 0.0445926 
676 -0.0354974 -9.61823e-06 0.0365567 
677 -0.0175784 0.00493708 0.0166653 
678 0.0325836 0.00680914 0.0509069 
679 -0.0276015 -0.000104472 0.0697413 
680 -0.0153204 -0.00466597 0.030325 
681 0.0148129 -0.00695886 0.0376444 
682 0.0103481 0.00429699 0.0316333 
683 0.0384616 -0.00188952 0.0470584 
684 0.0138996 0.00378867 0.0424275 
685 -0.0393221 -0.00329759 0.00847183 
686 -0.00985929 -0.00046215 0.0391176 
687 0.0394196 -0.0042086 0.0505197 
688 -0.0326387 0.00699929 0.0256377 
689 -0.0257835 -0.00601205 0.0663464 
690 -0.0255163 -0.00598007 0.0610382 
691 -0.0296356 -0.0021961 0.016593 
692 0.0104614 -0.0052613 0.000543362 
693 -0.010871 0.000267236 0.0102537 
694 0.0345945 -0.00526268 0.0265754 
695 -0.0340532 -0.004213 0.00893098 
696 0.0167172 0.00490141 0.0534079 
697 -0.0154018 0.00402358 0.0229515 
698 -0.00745458 -0.00697365 0.0114594 
699 -0.00169308 -0.000508663 0.00386754 
700 -0.00537596 0.00188374 0.00400799 
701 0.0193978 0.00532358 0.0556082 
702 -0.00447174 0.00312584 0.0284606 
703 -0.0299374 0.00414845 0.0375663 
704 -0.0368982 -0.00138105 0.0365292 
705 0.0336326 -0.00140201 0.0598213 
706 -0.0282209 -0.00598063 0.0340006 
707 -0.00955907 -0.000328102 0.0433869 
708 0.0275804 -0.000159649 0.0453171 
709 0.0168264 -0.00446102 0.0097485 
710 -0.0386178 0.00300321 0.0441165 
711 0.0255707 -0.00696253 0.00399407 
712 0.0345174 0.00118427 0.0620477 
713 -0.0358736 0.00434882 0.0346854 
714 -0.0194933 -0.00227098 0.0341099 
715 -0.0196863 -0.000785475 0.0351824 
716 -0.0338849 -0.00589886 0.0143286 
717 -0.0226367 0.00415408 0.00669173 
718 -0.0193499 0.00613295 0.0351125 
719 0.014245 -0.00310276 0.0379527 
720 0.0156643 0.00698368 0.044937 
721 -0.0166573 0.00313843 0.0129288 
722 -0.00307525 0.00695171 0.024779 
723 0.0222985 -0.00613989 0.0278985 
724 0.00981928 -0.00405789 0.0148314 
725 -0.0144158 -0.00215524 0.0182451 
726 -0.0307598 0.000717077 0.0287764 
727 -0.0319674 -0.00405952 0.0193912 
728 0.0307414 0.0031213 0.0529142 
729 -0.0369963 0.00570639 0.034543 
730 -0.0355076 0.00268349 0.0333636 
731 -0.0160339 -0.00403971 0.0413589 
732 -0.0353971 0.00219354 0.0383283 
733 -0.00175426 -0.00667527 0.0330579 
734 0.0149627 0.00616344 0.0249908 
735 -0.0057663 0.00360647 0.0310014 
736 0.011329 0.000457191 0.0249405 
737 -0.00393844 -0.00523626 0.00874823 
738 0.0254406 0.0020447 0.0540793 
739 0.025382 0.0062464 0.0186968 
740 0.0237338 0.00630669 0.0297774 
741 0.00879659 0.00322319 0.0119569 
742 -0.0350403 -0.00515982 0.0430447 
743 0.00754325 -0.00168412 0.0237755 
744 -0.0337709 -0.00699925 0.0387497 
745 0.0163627 0.00698654 0.0258067 
746 0.00372142 0.00525383 0.0304436 
747 0.0207415 -0.00290246 0.0287385 
748 -0.0342183 -0.00399111 0.0128823 
749 0.0309901 -0.00612483 0.000535398 
750 -0.0340875 0.00142726 0.0357666 
751 0.00873074 -0.0062311 0.0181474 
752 -0.0134604 -0.00345793 0.0317954 
753 0.0323482 -0.00345565 0.031342 
754 -0.00237136 0.00372654 0.0125264 
755 0.0293971 0.00525712 0.0210299 
756 -0.0160637 0.00360825 0.0115105 
757 -0.00509124 -0.00271491 0.0067141 
758 -0.0121523 -0.00203847 0.0165513 
759 -0.0214629 0.00604428 0.00187495 
760 -0.0142523 -0.00390333 0.00998806 
761 0.026707 -0.000192622 0.0257107 
762 0.0372936 0.003097 0.0527293 
763 -0.0228463 -0.00608414 0.0574472 
764 -0.00574298 -0.00699966 0.0169033 
765 -0.0360635 0.0038238 0.0212104 
766 0.0234639 0.00440214 0.0253855 
767 -0.0190382 0.00279457 0.0595787 
768 0.0316979 -0.00501402 0.0409797 
769 0.0156991 -0.00281701 0.0458145 
770 -0.0391882 0.0021829 0.0101728 
771 0.0320224 0.00335388 0.0383649 
772 0.0185393 0.0069953 0.0472289 
773 0.0215351 0.00444307 0.0505006 
774 0.0207933 -0.00156242 0.0576868 
775 -0.0285757 -0.00538711 0.0436083 
776 0.00415922 0.000619047 0.00237002 
777 0.0313632 -0.000553396 0.0132628 
778 0.0374816 -0.00606635 0.0299484 
779 0.0316038 0.00156832 0.0182168 
780 -0.0164039 -0.0028447 0.024506 
781 -0.0248215 -0.00605951 0.0316417 
782 -0.0124101 -0.0039153 0.0159943 
783 0.002864 -0.00601114 0.00525833 
784 -0.0190233 0.00427989 0.0160463 
785 -0.0332011 0.000953114 0.000540424 
786 -0.0372841 -0.00350616 0.0188813 
787 -0.0205762 0.0035993 0.0405822 
788 -0.0203685 -0.00699972 0.0334219 
789 -0.031112 0.00583652 0.0177647 
790 -0.0087871 0.00162419 0.0152402 
791 -0.020539 -0.00316087 0.0149905 
792 -0.01711 0.0025834 0.0447499 
793 -0.00980963 0.000657245 0.0314124 
794 -0.0367752 -0.00296963 0.0204891 
795 0.0310113 -0.00231414 0.0143582 
796 -0.0270184 -0.00079497 0.0416352 
797 0.00594083 -0.00695689 0.00616679 
798 0.01184 -0.00605079 0.0447878 
799 -0.0324698 -0.00244307 0.0199959 
800 0.0393963 0.000937265 0.009654 
801 -0.0122977 0.00516577 0.0140663 
802 -0.00613823 0.00270206 0.0112639 
803 -0.0331499 -0.00681619 0.056271 
804 0.0365013 -0.00478222 0.0391825 