ITEM: TIMESTEP
4008000
ITEM: NUMBER OF ATOMS
60000
ITEM: BOX BOUNDS ff ff ff
-0.04 0.04
-0.0075 0.0075
0 0.25
ITEM: ATOMS id x y z 
1 0.0357553 -0.00340144 0.00327597 
2 0.0181975 0.00345257 0.0258991 
3 0.0225736 0.00699982 0.0215 
4 0.010034 3.74413e-05 0.0199604 
5 0.0174451 -0.00505024 0.0404998 
6 -0.0313811 -0.00365833 0.0656077 
7 -0.027607 -0.000341593 0.0400867 
8 0.0215431 -0.00366337 0.0492267 
9 -0.0372772 0.000663971 0.0319853 
10 -0.0172926 -0.00393319 0.0399789 
11 -0.0087215 -0.00146869 0.0215576 
12 0.0240091 0.00582356 0.033773 
13 -0.000521856 1.68534e-05 0.0119116 
14 0.0357352 0.0022475 0.0530824 
15 -0.0224358 -0.0069869 0.011697 
16 -0.0373432 0.00690205 0.0494524 
17 -0.0318709 -0.00453438 0.0292785 
18 0.0166932 0.00535628 0.00577614 
19 -0.0385958 -0.00689863 0.0175673 
20 -0.0220968 -0.00181264 0.0522604 
21 -0.00211757 0.00502433 0.0213315 
22 -0.0171582 -0.00687161 0.052631 
23 0.0212893 0.00369308 0.00679143 
24 0.0350426 -0.000733742 0.0512921 
25 0.0198331 0.000811225 0.0522456 
26 -0.0324535 -0.000681787 0.0175865 
27 -0.0336552 0.00599477 0.0498601 
28 0.0213336 -0.00136516 0.0159401 
29 -0.0123041 -0.00127802 0.0162693 
30 -0.0156403 -0.00241903 0.0333109 
31 0.03208 0.00358814 0.0529849 
32 -0.0243942 0.00265028 0.00888427 
33 -0.0368714 -0.00278158 0.00718478 
34 -0.0214867 0.00613755 0.0299117 
35 0.0126077 -0.00150098 0.00869345 
36 -0.0111228 -0.00151308 0.00531641 
37 -0.0120667 -0.000240482 0.00877785 
38 0.0215604 -0.00202136 0.0536076 
39 0.00982378 0.00237596 0.0456064 
40 0.0131854 0.00350846 0.0352955 
41 -0.0327085 0.00234404 0.0549844 
42 -0.0114431 0.00277494 0.0160539 
43 0.00724568 0.00471029 0.0328553 
44 -0.00222595 -0.000122143 0.0164526 
45 -0.0385517 0.00555489 0.0617923 
46 -0.0171827 -0.00279223 0.0190669 
47 0.00245324 -0.00218743 0.00465223 
48 -0.0394986 0.00245213 0.0340591 
49 0.01072 -0.00421232 0.0303276 
50 0.0163776 0.000270466 0.00572229 
51 -0.0218021 0.00355671 0.0562601 
52 -0.0273046 0.00607782 0.0239214 
53 0.0155576 0.0017884 0.0106465 
54 0.0361883 0.000287741 0.000605421 
55 -0.0217447 0.00556396 0.0583099 
56 0.0237744 -0.00511673 0.0195446 
57 0.0222321 0.000963297 0.0453916 
58 -0.0259288 0.00479119 0.0709065 
59 -0.026473 -0.0069965 0.0279204 
60 -0.0327178 -0.00598259 0.0571538 
61 -0.0346628 -0.00174953 0.0204629 
62 0.0226456 0.00439319 0.0566763 
63 0.0240883 0.00165479 0.00954614 
64 0.0168175 0.00699764 0.0220911 
65 -0.0198869 0.00511444 0.0627086 
66 0.0148155 0.00529756 0.0378692 
67 0.0121324 0.0012083 0.0294705 
68 -0.0254741 -0.00699812 0.0278601 
69 0.0394831 0.00542622 0.046781 
70 0.0260851 0.00148599 0.0496599 
71 -0.0330909 -0.00345731 0.0544167 
72 0.0328723 0.00339796 0.0481895 
73 0.0223814 0.00698596 0.0301864 
74 -0.0257412 -0.0044351 0.0132208 
75 0.0109486 0.00617843 0.00949073 
76 0.0148557 0.00394636 0.0481204 
77 0.0196976 0.00678206 0.0362805 
78 0.0331027 -0.00347155 0.0140383 
79 -0.0231436 0.00145762 0.0351647 
80 -0.0222932 0.00698888 0.0200868 
81 -0.00562784 -0.00533091 0.00663755 
82 -0.0304517 0.00114595 0.0131259 
83 0.0290565 -0.00478689 0.0512399 
84 -0.0278631 -0.00222685 0.0220106 
85 0.0394053 -0.00217853 0.047732 
86 0.0220957 -0.00699853 0.0168093 
87 0.0300434 0.00566814 0.00607401 
88 -0.00220649 0.00145388 0.00590094 
89 -0.023725 -0.00232779 0.00685967 
90 -0.0189874 0.00256758 0.0628927 
91 -0.0255761 -0.00246175 0.00461333 
92 0.0298599 0.00080451 0.0339956 
93 -0.0155431 0.00686357 0.0552872 
94 0.0358089 -0.00230848 0.020251 
95 -0.0326539 0.00344978 0.000566302 
96 -0.0142532 0.00449249 0.0240075 
97 0.00290293 0.00170462 0.0212295 
98 0.00369401 -0.000389349 0.0146491 
99 0.0325424 0.0060701 0.0462708 
100 0.0103828 0.00102389 0.0237708 
101 -0.0299929 0.0014308 0.0390661 
102 0.00890177 -0.00108246 0.0249559 
103 -0.0139121 0.00510241 0.0429309 
104 0.00150969 -0.00337831 0.00430966 
105 -0.00599001 0.000870885 0.00050009 
106 -0.0135754 -0.00434428 0.0181256 
107 -0.00442452 0.000638636 0.0134757 
108 0.0281039 -0.00155653 0.0459882 
109 -0.0274365 -0.000174741 0.0205978 
110 0.0117494 -0.00501317 0.0292517 
111 0.00333675 -0.00166258 0.0280389 
112 -0.02632 -0.00699403 0.0371225 
113 -0.00786329 -0.00019034 0.0410498 
114 0.0340139 -0.00149331 0.0545999 
115 -0.0106505 0.00304642 0.00413694 
116 0.0206333 -0.000363377 0.0489145 
117 0.0367753 0.00610583 0.0507291 
118 -0.0297667 0.00336524 0.0732757 
119 0.0130267 -0.00422347 0.0320995 
120 0.030052 0.00296783 0.061076 
121 0.0111037 0.00625299 0.0195136 
122 0.00818415 0.00244487 0.0399482 
123 -0.00986646 -0.00193242 0.0326855 
124 0.000833254 -0.00334298 0.0323865 
125 0.0295943 0.00608959 0.0459423 
126 0.0307148 -0.00700002 0.0202783 
127 0.0387336 -0.00499127 0.00404931 
128 -0.0157231 0.00537479 0.0319104 
129 -0.0187415 -0.00495935 0.0631024 
130 -0.00845675 0.00182145 0.0182541 
131 -0.0359446 -0.000479243 0.0152972 
132 0.0257388 0.00695736 0.00159046 
133 -0.0362222 0.00130851 0.0205272 
134 0.0338155 -0.00308138 0.0488879 
135 -0.0233526 0.00613348 0.0346879 
136 0.0338726 0.00422503 0.00216071 
137 0.0370662 -0.00659792 0.057472 
138 0.0100961 0.00524462 0.00669202 
139 -0.030594 0.00403668 0.0293462 
140 0.036907 -0.00691328 0.0499772 
141 0.014971 -0.00272494 0.0445097 
142 0.00342677 -0.00296742 0.00135238 
143 -0.0160369 -0.00492181 0.0453619 
144 0.0346123 -0.0061671 0.0192826 
145 0.035562 0.000320895 0.0617013 
146 -0.024773 0.00504425 0.0306114 
147 -0.0324058 -0.00354511 0.0617167 
148 0.0119598 0.000249829 0.0191087 
149 0.00310042 -0.00258261 0.0157135 
150 0.034165 -0.000288683 0.00417993 
151 0.0394091 -0.00317386 0.0538547 
152 -0.0223671 0.00323332 0.064988 
153 0.0269809 -0.00437587 0.00457276 
154 0.0349932 0.00452026 0.0154141 
155 -0.0136094 -0.00699674 0.0249011 
156 -0.0260794 -0.00248244 0.0717451 
157 0.0335058 -0.00469054 0.0147067 
158 -0.0340477 0.00308936 0.0185578 
159 0.0209379 0.0011931 0.0340645 
160 -0.0394828 -0.000499753 0.027049 
161 0.0320236 0.00221536 0.0554262 
162 0.0247467 0.00260434 0.0352664 
163 -0.0243787 0.00572583 0.0578973 
164 0.0364563 1.76893e-05 0.0358623 
165 0.0171438 -0.00677736 0.0349312 
166 -0.0383022 0.000799744 0.0561591 
167 0.0279135 -0.0020455 0.00230444 
168 -0.00753432 -0.00519582 0.0261941 
169 0.0298569 0.000226954 0.0446219 
170 -0.0386157 0.00158266 0.036696 
171 0.00702262 -0.00146118 0.0341895 
172 -0.00363676 0.00259998 0.00195596 
173 0.0364444 -0.00600025 0.00880869 
174 -0.0344625 -0.00177766 0.0739136 
175 0.0185364 -0.00140827 0.00915987 
176 0.0344452 -0.00123214 0.00697528 
177 -0.0312166 0.00158954 0.0305476 
178 -0.0373165 -0.00183864 0.014119 
179 0.0276346 0.00458502 0.00274951 
180 -0.0366322 -0.00461736 0.0332556 
181 -0.0394849 0.00501226 0.0297554 
182 -0.0377519 -0.00393559 0.0288799 
183 -0.013482 -4.34335e-05 0.0253461 
184 0.0279652 -0.00427679 0.000503277 
185 -0.0365303 -0.00533811 0.0276417 
186 -0.0257836 0.00318927 0.00891415 
187 -0.0180456 0.00437472 0.0270484 
188 0.00737491 0.00322611 0.0265923 
189 0.0192358 0.00627288 0.0520402 
190 -0.0104424 -0.000494965 0.0379365 
191 -0.0369371 -0.000485738 0.014743 
192 -0.0255094 -0.00310464 0.0568499 
193 -0.0172907 -0.00699713 0.020504 
194 0.0337971 0.00137931 0.0421684 
195 -0.027801 0.00058267 0.0544478 
196 0.00916203 -0.00284079 0.0430488 
197 -0.0141396 -0.00324792 0.0276489 
198 -0.0232468 -0.000154276 0.0328966 
199 0.0352999 0.00462174 0.0540907 
200 -0.0202208 0.00432344 0.0230541 
201 0.0106117 -0.00531975 0.0287717 
202 0.0304972 0.00600025 0.0464207 
203 -0.00253834 -0.000456943 0.0215721 
204 -0.0173288 0.0018605 0.00658049 
205 -0.0240688 -0.00162103 0.0114691 
206 -0.0276411 0.00185278 0.00735713 
207 -0.0010272 0.00321441 0.0120911 
208 -0.00599454 -0.00268353 0.000527486 
209 -0.0144688 0.00341329 0.0421344 
210 -0.0301336 -0.00611627 0.0607626 
211 -0.0118185 -0.00113922 0.0339922 
212 -0.0309118 0.00315987 0.0376252 
213 0.0206201 -0.00112556 0.00296001 
214 -0.00383412 -0.00352425 0.00149426 
215 0.0377719 0.00603764 0.0121554 
216 -0.0374986 -0.00583595 0.0403055 
217 0.0374832 0.00163026 0.0221908 
218 -0.0135225 0.000671347 0.0627413 
219 0.0367191 -0.00236269 0.00267858 
220 0.0315616 -0.000266303 0.0184491 
221 0.0325194 -6.2127e-05 0.00668373 
222 -0.0293523 -0.0021871 0.0371242 
223 0.0159148 0.00230102 0.00482683 
224 -0.0173995 0.00174673 0.000530627 
225 0.0377111 -0.00697998 0.0319811 
226 0.022826 0.00698292 0.00590057 
227 0.0313163 -0.00146613 0.0405695 
228 -0.0325359 -0.00106651 0.0166644 
229 0.022558 0.00606066 0.0414741 
230 -0.00818279 -0.00185005 0.0311697 
231 -0.0230547 -0.00439093 0.0646884 
232 -0.0123879 0.00174121 0.000640059 
233 0.00707045 -0.00699762 0.00739426 
234 0.034994 0.00362866 0.0543297 
235 -0.00782407 -0.0035838 0.0238164 
236 0.010071 0.000375364 0.0190176 
237 0.0227976 0.00453586 0.0547994 
238 0.0290488 0.000267964 0.0301781 
239 0.0315556 0.0056592 0.0286251 
240 -0.0250913 -0.00508021 0.00816703 
241 -0.025653 0.000720702 0.0285879 
242 -0.0117656 0.0061079 0.0296941 
243 0.00177142 -0.00127189 0.0164591 
244 0.00936819 -0.00530118 0.0151813 
245 -0.029209 -0.00201669 0.0150386 
246 0.0189544 0.00143099 0.0457085 
247 -0.0307903 -0.00698865 0.0384788 
248 -0.00925868 0.00232682 0.0462343 
249 0.0212531 -0.00156249 0.0123545 
250 -0.0164213 -0.00307505 0.00721612 
251 0.0390448 0.00609677 0.000499997 
252 0.0311348 0.000606209 0.0348479 
253 -0.00847663 -0.00491307 0.0388367 
254 -0.0200226 -0.0060919 0.0426993 
255 0.014683 -0.000672738 0.00967026 
256 0.0303594 0.00266389 0.0578138 
257 -0.0215399 0.00565243 0.0135383 
258 0.0246132 -0.0048555 0.0180569 
259 0.029355 0.000909973 0.0250691 
260 0.0174123 -0.00698813 0.0147789 
261 -0.00454892 -0.00624341 0.00955935 
262 -0.0131973 0.00493579 0.0543776 
263 -0.0346912 0.00552704 0.0158596 
264 0.0224032 -0.00339229 0.0171621 
265 -0.0314522 0.00182697 0.0354118 
266 0.0186632 0.00317295 0.0185841 
267 -0.0210181 -0.00525051 0.0351893 
268 -0.0223044 0.00514832 0.0170385 
269 0.0118931 -0.0061351 0.01656 
270 0.00327333 -0.00649751 0.017342 
271 0.00825089 0.00699701 0.00057966 
272 0.0351355 -0.0024371 0.0121719 
273 0.034377 0.00319123 0.0217464 
274 -0.00566556 -0.00178041 0.033287 
275 -0.0249394 0.00334728 0.0234092 
276 0.0265895 0.000391613 0.052085 
277 -0.0261568 0.00526729 0.02974 
278 0.0162138 -0.000594198 0.0159364 
279 0.0251606 0.00484207 0.0461945 
280 -0.0386621 0.0031107 0.0148309 
281 0.00183271 0.00162399 0.00140698 
282 -0.0285128 -0.00537384 0.0151596 
283 0.0225509 -0.00100409 0.00447077 
284 0.0091876 -0.00677267 0.0399984 
285 -0.0172588 0.0010268 0.0205885 
286 -0.0106704 -0.00514479 0.0307305 
287 0.0255907 0.00136708 0.017388 
288 -0.0321935 -0.00522266 0.0547873 
289 0.0186091 -0.00237505 0.0139622 
290 -0.0394716 0.00369058 0.0145929 
291 -0.0192853 0.000129493 0.0278127 
292 -0.0308711 -0.00528364 0.00464157 
293 -0.0171876 0.00411292 0.00857811 
294 0.0327724 -0.00194171 0.0480031 
295 0.0235293 0.00114365 0.00606255 
296 0.0304746 0.00341085 0.0183384 
297 0.0280143 0.00427919 0.0403613 
298 -0.00986025 0.000262941 0.0197909 
299 0.027047 -0.00406027 0.00810018 
300 0.0141813 -0.00486914 0.00165498 
301 -0.0272472 0.000830842 0.0051907 
302 0.0152319 0.00448169 0.0451356 
303 -0.0312004 0.00525203 0.0467534 
304 0.0288151 -0.00357069 0.0206498 
305 -0.0162324 0.00197091 0.0181462 
306 -0.00842414 0.00171343 0.0240311 
307 0.029727 0.0054621 0.030193 
308 -0.0215004 -0.00699997 0.000504459 
309 0.0254599 0.00696758 0.0421626 
310 0.037375 0.00349433 0.0565527 
311 0.0130206 0.00604738 0.0409263 
312 -0.0213275 -0.00507151 0.04397 
313 -0.00262523 -0.00486029 0.0190768 
314 0.0344514 0.00642147 0.0133639 
315 -0.0340817 0.00608979 0.00708101 
316 -0.0290731 -0.00412938 0.0174037 
317 -0.00280261 -0.0012461 0.0176218 
318 -0.0308177 0.00321931 0.0644322 
319 0.0161664 0.00351186 0.0388309 
320 0.0151295 -0.0033665 0.0354548 
321 0.0328004 0.00690684 0.00420065 
322 0.0248567 0.00436173 0.0472749 
323 -0.0103268 -0.00234107 0.0387585 
324 0.0131852 0.00357224 0.0320177 
325 -0.0324377 -0.00141313 0.00537819 
326 -0.0323637 0.00276432 0.0173526 
327 0.0359568 -0.00694092 0.0174634 
328 -0.0315284 -0.00699083 0.0620876 
329 0.0221224 0.00289261 0.0530086 
330 -0.0242776 -0.00174375 0.070809 
331 0.0126876 0.000913049 0.0112257 
332 -0.0251452 0.00115917 0.0219439 
333 0.0222277 0.00436381 0.00554003 
334 -0.0218609 0.000194204 0.0136746 
335 -0.0160512 0.00355418 0.0242863 
336 0.0157207 0.000795437 0.0453928 
337 0.0334985 0.00173501 0.05967 
338 0.0235333 2.74467e-05 0.0416016 
339 0.023399 -0.00216332 0.016377 
340 0.000402763 0.00616 0.00264336 
341 -0.0394364 0.00403391 0.0135691 
342 9.69502e-05 0.00428241 0.0162102 
343 -0.0330998 -0.000723639 0.0356206 
344 -0.00756956 0.00130453 0.0101634 
345 -0.00841483 -0.00408214 0.0261722 
346 0.0261891 -0.00700016 0.0219569 
347 0.0151994 0.0011841 0.0315848 
348 0.0308406 -0.00444196 0.0493385 
349 -0.0343164 -0.00527347 0.0169979 
350 -0.0365157 -0.00696163 0.00742922 
351 -0.0288794 -0.00684683 0.0671158 
352 -0.028947 -0.00467709 0.00436548 
353 0.0300232 -0.000163759 0.0252523 
354 -0.020455 0.00323906 0.0626727 
355 -0.0163329 -0.00288915 0.0205754 
356 -0.0219666 -0.00437792 0.000502084 
357 0.0221832 0.00218636 0.0205241 
358 0.0158066 0.00236608 0.024427 
359 0.0259675 0.00230639 0.044412 
360 -0.0242182 -0.00569008 0.0414238 
361 0.0230146 -0.000172749 0.0270016 
362 -0.0174095 0.00428026 0.0526995 
363 -0.000974583 0.00699546 0.0139925 
364 0.0247442 -0.00018447 0.0541786 
365 -0.0310959 0.00400979 0.0638298 
366 -0.0338411 -0.0015007 0.0266271 
367 0.0204221 0.00446694 0.0205894 
368 -0.0383359 0.00162828 0.0405006 
369 0.0274927 0.00213003 0.0185384 
370 0.0174017 -0.00348232 0.00051638 
371 -0.0302271 -0.00526961 0.0207798 
372 -0.03845 -0.00323384 0.0370665 
373 -0.0148092 0.00288135 0.0558058 
374 -0.0381327 0.000663056 0.0325124 
375 0.0382468 -0.00257177 0.0324698 
376 -0.0223678 0.00391198 0.0542895 
377 -0.0265297 0.00175305 0.00418513 
378 -0.0361276 0.00615263 0.0672864 
379 0.0242841 0.00423684 0.0197491 
380 0.0312558 0.00547917 0.00488707 
381 -0.0297489 0.0061238 0.0068573 
382 -0.0183289 -0.00113544 0.0399987 
383 -0.039499 -0.00699916 0.0200703 
384 -0.0241895 -0.00699832 0.0359189 
385 -0.0246569 -0.00375295 0.0395235 
386 -0.0231155 -0.00694454 0.0672456 
387 -0.0195213 -0.00312576 0.0641227 
388 -0.00330133 0.00651352 0.0171579 
389 0.0274435 -0.00613295 0.00906459 
390 0.0127077 0.00698565 0.0374337 
391 0.0339146 0.00311205 0.00403762 
392 -0.0288854 0.00699935 0.0302165 
393 0.0243244 -0.00627014 0.0184869 
394 -0.0286381 0.00475726 0.0202035 
395 -0.00622669 0.000216883 0.0389591 
396 -0.0394995 -0.00387526 0.000503142 
397 -0.0242808 -0.00496072 0.0313931 
398 -0.0331488 -0.000981464 0.068815 
399 -0.0345831 -0.000136795 0.0460358 
400 -0.0363796 0.00163297 0.0639813 
401 0.0289035 -0.00173458 0.0582831 
402 -0.00647725 -0.00527569 0.000785147 
403 -0.00493839 -0.000667515 0.0179509 
404 -0.0188414 -0.00249912 0.0571157 
405 -0.0344678 0.00056969 0.0622972 
406 -0.00685359 0.000569544 0.0246924 
407 0.0376494 0.000798063 0.0481791 
408 0.021454 0.00421202 0.0478567 
409 -0.0212803 0.00157762 0.0403511 
410 0.0323117 0.00264581 0.0421654 
411 -0.00378754 -0.00218966 0.0165777 
412 -0.0233509 0.00699584 0.0280749 
413 0.0392186 -0.000948342 0.0107424 
414 0.0242094 -0.00699293 0.00950623 
415 0.0312363 -0.00515904 0.0517183 
416 -0.0285953 -5.40828e-05 0.0339238 
417 0.00679961 -0.00169934 0.0150959 
418 -0.0267488 -0.00348856 0.011043 
419 0.0386161 -0.00225921 0.0247104 
420 -0.0171381 0.000178041 0.0281733 
421 -0.0258323 -0.00513172 0.0678218 
422 -0.022702 -0.00241453 0.0666834 
423 -0.0110406 0.00543202 0.0254474 
424 -0.00641757 0.00203678 0.0281209 
425 -0.00474919 0.00699871 0.016375 
426 -0.0265284 0.00697231 0.0205436 
427 0.0187358 -0.00599274 0.0172042 
428 0.0187963 0.00235036 0.0330501 
429 0.035244 -0.00456108 0.0388895 
430 -0.0180913 0.00206335 0.0479856 
431 0.0223581 -0.000594528 0.0259413 
432 -0.00432828 -0.00331226 0.00501716 
433 0.0348168 -0.00100801 0.0230412 
434 -0.0301232 -0.00682077 0.0409404 
435 -0.00962084 0.000105437 0.0183235 
436 0.0322151 0.00261954 0.0532401 
437 -0.0362951 -0.00603013 0.0654607 
438 -0.0379782 0.00200594 0.0226436 
439 -0.036657 -0.00693075 0.0213036 
440 0.0307862 -0.00239292 0.0359603 
441 -0.00294978 0.00247746 0.00267311 
442 -0.00692307 -0.00495637 0.00984827 
443 -0.0338312 -0.00249337 0.0597582 
444 -0.0259615 -0.00609367 0.000687703 
445 -0.00107437 0.00561882 0.0136424 
446 -0.0046569 0.00265216 0.0282235 
447 -0.0321907 0.00124147 0.0645913 
448 -0.0138585 -0.00528476 0.0292161 
449 0.0278579 -0.00435261 0.0540241 
450 0.0217048 -0.000261757 0.0542835 
451 0.0155409 -0.000333026 0.053631 
452 0.0368936 0.000999283 0.000596598 
453 0.0364958 0.00119964 0.0289232 
454 -0.00888761 0.00621949 0.0267628 
455 -0.0393933 -0.00329746 0.0428887 
456 0.00813978 0.00247231 0.0164678 
457 -0.0153788 -0.00443207 0.0238336 
458 -0.0247322 -0.00314882 0.0627056 
459 0.0377753 0.00526703 0.0252067 
460 -0.0327169 -0.00368131 0.0434168 
461 -0.0384809 -5.07584e-05 0.011068 
462 -0.0173373 -0.000865454 0.0487296 
463 -0.0112504 0.00436528 0.0109787 
464 0.0246626 -0.000379509 0.0512126 
465 -0.0213281 -0.0069989 0.0316896 
466 0.00296608 0.0011846 0.0152395 
467 0.0075497 -0.0036119 0.00757242 
468 0.0108909 -2.53816e-05 0.0194433 
469 0.0102776 -0.00699436 0.0164444 
470 -0.00568421 0.00510514 0.0345249 
471 0.0387243 0.00653639 0.0192094 
472 -0.00990851 0.000893356 0.000596296 
473 0.0301432 -0.00182501 0.0479065 
474 0.0279721 -0.00699233 0.0231988 
475 0.0315062 -0.00244733 0.0586188 
476 0.000618599 0.003609 0.0156246 
477 0.0394513 0.00699863 0.0275943 
478 -0.0129307 0.00258989 0.0216281 
479 -0.0101151 0.000926782 0.0210619 
480 0.0316381 0.00699145 0.0458735 
481 0.0111448 0.0052289 0.0273229 
482 -0.013201 0.00046863 0.0526732 
483 -0.0310453 -0.00320522 0.0401195 
484 -0.0291207 -0.00699923 0.00820057 
485 -0.0117376 -0.00700036 0.0244527 
486 0.0279463 -0.0013457 0.0486042 
487 -0.0291494 0.00467286 0.0390789 
488 -0.0118481 0.003548 0.0155105 
489 -0.0180474 -0.00139018 0.0158837 
490 -0.0169969 0.00125158 0.0302827 
491 -0.0286779 -0.00354546 0.0387242 
492 -0.0353165 0.00398423 0.0281056 
493 0.0328448 -0.00611864 0.0211241 
494 0.00386708 -0.00699934 0.0146438 
495 -0.0289034 0.00226881 0.00947687 
496 -0.0197612 0.00187724 0.0420272 
497 -0.0250666 0.000842276 0.0206308 
498 0.0233013 -9.71442e-07 0.0443291 
499 0.0196296 -0.00104484 0.00416312 
500 -0.0272404 0.00177571 0.0688152 
501 -0.00849599 0.00699718 0.0111508 
502 -0.0262351 -0.00508504 0.0105585 
503 -0.0219492 -0.000560323 0.023904 
504 0.0345683 -0.00693294 0.0511473 
505 -0.016297 0.00196709 0.0303407 
506 0.0106352 0.00611584 0.0178421 
507 0.0302304 0.00514728 0.035275 
508 -0.0303241 -0.00125809 0.0630619 
509 0.00748544 0.00451195 0.0104447 
510 -0.0287867 -0.00410689 0.0017183 
511 0.0228948 -0.00521045 0.0232096 
512 0.025682 0.000267574 0.0441313 
513 -0.0170317 -0.00693881 0.0446068 
514 0.0368765 0.00359709 0.012232 
515 -0.0251909 -0.00685577 0.0611976 
516 0.0362399 -0.0030347 0.0264598 
517 -0.00540805 -0.000541312 0.0013717 
518 -0.0135373 -0.00232092 0.0582027 
519 0.0165607 -0.00113676 0.028614 
520 0.036191 -0.00411131 0.0601975 
521 0.00284631 -0.000958681 0.0144476 
522 -0.0136841 -0.00126292 0.00869621 
523 -0.0246313 -0.00363413 0.0694941 
524 -0.0188959 -0.00187976 0.0556877 
525 0.0209505 0.000485171 0.0173757 
526 0.0208107 0.00505915 0.00449393 
527 -0.0310522 -0.00305092 0.0712086 
528 0.00426403 0.00282214 0.0112694 
529 0.0208727 -0.00086152 0.000546683 
530 -0.0290391 0.00376893 0.00145475 
531 0.00039246 0.00213753 0.00149088 
532 0.0193749 -0.00172384 0.000545779 
533 -0.0122834 -0.000667508 0.0384974 
534 -0.0264011 0.00439404 0.0680961 
535 0.0143081 -0.00699257 0.0474693 
536 -0.0313821 0.00699938 0.017787 
537 0.0331212 0.00697264 0.0155949 
538 0.0293122 -0.00518547 0.0454435 
539 0.0277132 -0.00442815 0.0129031 
540 -0.0310323 -0.000580676 0.00843749 
541 -0.0394716 -0.000599515 0.0103703 
542 0.0266054 0.00440528 0.0117782 
543 0.0077912 -0.00116262 0.00963477 
544 -0.024887 -0.00075748 0.0663444 
545 -0.00291142 -0.00048887 0.0126587 
546 -0.0183342 0.00328727 0.0286316 
547 -0.0394522 -0.00151879 0.0317087 
548 -0.0277022 -0.00146648 0.0158254 
549 -0.0234549 0.000317479 0.0417946 
550 -0.0145832 0.0052449 0.02342 
551 -0.0126292 0.0064291 0.0243492 
552 0.0232661 -0.00272689 0.0456926 
553 -0.00293472 -0.0069436 0.00993988 
554 0.0352213 -0.000106822 0.0502425 
555 0.0227305 -0.00331522 0.0128259 
556 -0.0144813 -0.00534524 0.0202035 
557 0.0156412 0.00699256 0.0287563 
558 -0.0339869 -0.0027005 0.0636311 
559 0.0151376 0.00513325 0.0342155 
560 0.0122051 -0.000821597 0.00613537 
561 0.00579528 -0.00140065 0.0125007 
562 -0.0393599 -0.00340173 0.05919 
563 -0.0168996 0.0043569 0.000516665 
564 0.0137333 0.005298 0.0362189 
565 0.0219387 -0.00325347 0.0553147 
566 0.00636815 0.00470066 0.0448287 
567 0.037723 0.00512556 0.00593307 
568 0.0142802 0.0069974 0.000519659 
569 -0.0394994 0.00699897 0.0285854 
570 -0.00582759 0.0011481 0.0325013 
571 0.0156416 -0.00471054 0.0270971 
572 0.0364934 0.00131171 0.0177035 
573 -0.0272679 -0.0069995 0.0374424 
574 0.00721809 -0.00342245 0.00663582 
575 0.0122592 -0.00699495 0.0195139 
576 -0.0351071 -0.00489163 0.0214954 
577 -0.0325765 0.00245468 0.0656526 
578 -0.0393713 0.00141404 0.0239177 
579 -0.00856897 -0.00160741 0.0143335 
580 -0.0194355 0.000431981 0.0247945 
581 -0.0291308 0.00353398 0.0402779 
582 -0.0129765 -0.00516347 0.032231 
583 0.0293022 -0.00466231 0.0570731 
584 0.0298815 -1.71593e-05 0.00819026 
585 0.036024 -0.00519902 0.0193351 
586 0.0177664 -0.000200208 0.0172606 
587 -0.026212 -0.00527068 0.024444 
588 0.00287094 0.0032032 0.00397707 
589 0.0394976 -0.00307379 0.0527261 
590 0.0264483 -0.00348324 0.0258086 
591 0.0194959 -0.00660192 0.0174858 
592 0.0394448 -0.00212741 0.0443818 
593 -0.0116922 -0.00187853 0.0187427 
594 0.0394509 -0.00699359 0.0401918 
595 -0.036884 -0.00073517 0.0421322 
596 0.0325337 -0.00613578 0.0436337 
597 -0.0278031 0.00133277 0.0113279 
598 0.0238812 -0.00462607 0.0225542 
599 0.0361929 0.000576973 0.0156215 
600 -0.00555488 -0.000470007 0.030739 
601 0.0307713 0.00011797 0.0162481 
602 0.0311043 -0.00424885 0.0219847 
603 0.026366 -0.00528496 0.00526968 
604 0.0384056 -0.000786778 0.0370024 
605 -0.0189554 -0.00218979 0.0146093 
606 0.035958 0.0069927 0.0178283 
607 0.034095 0.00435373 0.000809207 
608 0.00753108 -0.00155671 0.0332354 
609 -0.0369928 0.00119034 0.0171908 
610 -0.0129997 0.00175281 0.0303726 
611 -0.035783 0.000124059 0.00908538 
612 -0.0319928 -0.00647526 0.0368321 
613 0.012062 0.00101634 0.0346993 
614 -0.0118157 0.00699878 0.033878 
615 0.00502676 0.00285452 0.0345682 
616 -0.0378638 0.00330531 0.01541 
617 0.016801 -0.00442134 0.0488115 
618 -0.0173449 -0.00431035 0.0390389 
619 -0.0219205 -0.00436848 0.0702584 
620 -0.0150788 0.00405355 0.0498847 
621 0.0134783 -0.0033455 0.0351883 
622 -0.0298729 -0.00338848 0.0691791 
623 -0.0122574 0.00211644 0.0126554 
624 -0.0268487 0.00196363 0.0416068 
625 -0.00913404 0.00293632 0.01518 
626 -0.0225081 -0.00305578 0.033593 
627 0.0254297 0.00223314 0.0553694 
628 0.0358156 -0.00358723 0.0107722 
629 -0.00257643 0.00271406 0.0109237 
630 -0.00399388 0.00687173 0.0195781 
631 0.0304083 -0.00171545 0.0228888 
632 0.037966 0.00439115 0.0232764 
633 0.0382803 -0.00144072 0.0483371 
634 -0.00131654 -0.00362057 0.009185 
635 0.0146419 0.00359941 0.0290231 
636 -0.0369358 -0.00682796 0.0659587 
637 0.0211729 -0.00678085 0.0143421 
638 0.00525096 0.00158355 0.0282391 
639 0.0335159 0.00356083 0.0567823 
640 0.0385939 -0.00520542 0.0200303 
641 -0.0269294 -0.00409537 0.0198381 
642 0.0356655 0.00255326 0.0155074 
643 -0.00706103 -0.00136938 0.0221674 
644 0.0102006 0.00481126 0.0128863 
645 -0.0121403 -0.00493563 0.0129123 
646 -0.0198405 -0.00252046 0.0539065 
647 -0.0144361 -0.00512955 0.0105084 
648 0.0107169 -0.00696079 0.0136288 
649 -0.00376932 -0.000854372 0.00153743 
650 -0.0139847 -0.000961983 0.0254913 
651 0.0381753 -0.00237344 0.0515609 
652 -0.0153029 -0.00614456 0.0286163 
653 0.0264958 0.00182199 0.0545448 
654 -0.0371795 -0.00416634 0.0494373 
655 0.0329338 0.00511798 0.0294394 
656 -0.0065247 0.00290794 0.011359 
657 -0.0348403 -0.00111876 0.00715691 
658 0.029698 -0.00390229 0.0180851 
659 0.0239263 0.00190537 0.0485519 
660 -0.029698 0.00147882 0.0713247 
661 -0.026877 0.00133622 0.0394184 
662 -0.0371972 0.00136678 0.0719768 
663 -0.0192694 0.00590467 0.0349297 
664 0.0306348 -0.000427823 0.0181084 
665 -0.0247581 -0.00399996 0.00268188 
666 0.00807275 0.000869256 0.0234704 
667 -0.0158576 0.00249861 0.0151865 
668 -0.0344762 0.00432504 0.0199953 
669 -0.0391189 0.00433459 0.00132032 
670 0.00697135 -0.00423264 0.0309253 
671 0.0218824 -0.0033815 0.0441922 
672 -0.0193928 -0.00141258 0.0459889 
673 0.00034168 -0.00477328 0.0195824 
674 -0.0385751 -0.00179244 0.00165729 
675 -0.0135393 -0.00357686 0.0473367 
676 -0.0356591 2.58789e-05 0.0360018 
677 -0.0180996 0.00496099 0.0142621 
678 0.0328068 0.0067877 0.0509536 
679 -0.0277018 -7.51776e-05 0.0697322 
680 -0.0166178 -0.00455334 0.0299244 
681 0.016613 -0.0069585 0.0381171 
682 0.0123303 0.00419545 0.0317519 
683 0.0384512 -0.00201011 0.0472522 
684 0.0152161 0.00384624 0.0426016 
685 -0.0393384 -0.00338494 0.00759501 
686 -0.0111996 -0.00039444 0.0405138 
687 0.0394449 -0.00417584 0.0507718 
688 -0.0327667 0.00687114 0.0247139 
689 -0.025891 -0.00605531 0.0672801 
690 -0.0257019 -0.00593274 0.0621176 
691 -0.0301567 -0.00212032 0.0146275 
692 0.010478 -0.00525473 0.000738435 
693 -0.0109661 0.000127056 0.00858783 
694 0.0342061 -0.0053255 0.0245196 
695 -0.0342388 -0.00435047 0.00783195 
696 0.0178104 0.00476235 0.0541072 
697 -0.0171393 0.00407312 0.0210747 
698 -0.00770048 -0.0069756 0.0106949 
699 -0.00193554 -0.000506506 0.00374877 
700 -0.0059394 0.00206091 0.00363397 
701 0.0202062 0.00492567 0.0564525 
702 -0.00711866 0.00271928 0.0294496 
703 -0.0302674 0.00418937 0.0369575 
704 -0.0368669 -0.00147188 0.0361783 
705 0.0336006 -0.00138358 0.0597042 
706 -0.0286877 -0.00592183 0.0331344 
707 -0.0104398 -0.000112395 0.04599 
708 0.0280486 -0.000135062 0.0447213 
709 0.0163028 -0.00450655 0.00776506 
710 -0.0392922 0.00326742 0.0454792 
711 0.0254378 -0.00696982 0.00367685 
712 0.0341073 0.00110804 0.0622236 
713 -0.0359012 0.00415647 0.0342487 
714 -0.0202849 -0.00235125 0.0332663 
715 -0.0204912 -0.000775276 0.0346932 
716 -0.0343401 -0.00585852 0.0129423 
717 -0.0227919 0.00415681 0.00593517 
718 -0.0201996 0.00616128 0.0346672 
719 0.0159129 -0.00308922 0.0380655 
720 0.0169309 0.00699992 0.0452434 
721 -0.016553 0.00313839 0.0105942 
722 -0.00530956 0.00696627 0.0244294 
723 0.0228642 -0.0059008 0.0265263 
724 0.0101011 -0.00405372 0.0133042 
725 -0.0152695 -0.00216795 0.0161044 
726 -0.0311225 0.000712343 0.0275703 
727 -0.032255 -0.00427045 0.0177258 
728 0.0310332 0.00316588 0.0526128 
729 -0.037055 0.00582025 0.0342054 
730 -0.0356757 0.00274051 0.0328601 
731 -0.0168389 -0.00409913 0.0419815 
732 -0.0355589 0.00210036 0.038111 
733 -0.0022491 -0.0060145 0.0363244 
734 0.0156549 0.0061968 0.0232701 
735 -0.00838135 0.00315277 0.0319989 
736 0.0126882 9.12396e-05 0.0237582 
737 -0.00412167 -0.00529278 0.00829667 
738 0.0258843 0.00202689 0.053778 
739 0.0257436 0.0061486 0.0162714 
740 0.0239911 0.00592965 0.0292918 
741 0.00886534 0.00320161 0.0105743 
742 -0.0355869 -0.00525626 0.0437586 
743 0.00941985 -0.00171692 0.0225412 
744 -0.033778 -0.00697804 0.0383963 
745 0.016824 0.00699687 0.0243972 
746 0.00519207 0.00578061 0.0326431 
747 0.0216076 -0.00307062 0.0269606 
748 -0.0347456 -0.00397993 0.0115309 
749 0.0310009 -0.00613687 0.000626205 
750 -0.0342927 0.00150144 0.0351838 
751 0.0095028 -0.00634298 0.0169718 
752 -0.0151156 -0.00340633 0.0317077 
753 0.0324256 -0.00284103 0.0316374 
754 -0.00267893 0.003747 0.0122823 
755 0.0297441 0.00526153 0.0185509 
756 -0.0157632 0.00363062 0.00954366 
757 -0.00558955 -0.00280339 0.00629238 
758 -0.0130437 -0.00202491 0.0147057 
759 -0.0219271 0.00610997 0.00193718 
760 -0.0139611 -0.00383816 0.00805636 
761 0.0267752 -0.000243697 0.0231559 
762 0.037381 0.00312619 0.0526878 
763 -0.0230126 -0.00605445 0.0589122 
764 -0.00651867 -0.00699455 0.0160731 
765 -0.0361594 0.00394103 0.0195707 
766 0.0236437 0.00447707 0.0229611 
767 -0.0194784 0.0027415 0.060392 
768 0.0318618 -0.00501711 0.0409356 
769 0.0169391 -0.00291833 0.0458353 
770 -0.0392833 0.00217844 0.00946029 
771 0.0321452 0.00339986 0.0384132 
772 0.019528 0.00700002 0.0473162 
773 0.022222 0.00433716 0.0503383 
774 0.021467 -0.00160293 0.0581503 
775 -0.029047 -0.00536257 0.0439272 
776 0.00408148 0.000645038 0.00233098 
777 0.0319657 -0.000548786 0.0115537 
778 0.0376389 -0.00598843 0.0296325 
779 0.0316413 0.00156838 0.0157368 
780 -0.0178939 -0.00286431 0.0229255 
781 -0.0253774 -0.00605917 0.0308376 
782 -0.0131735 -0.0038885 0.01416 
783 0.00263731 -0.00605087 0.0050438 
784 -0.01944 0.00422675 0.0137415 
785 -0.0332724 0.000974614 0.000560779 
786 -0.0374332 -0.0035026 0.0173367 
787 -0.0211537 0.00377839 0.040364 
788 -0.0209619 -0.00699923 0.0329749 
789 -0.0315589 0.00580611 0.0160684 
790 -0.00964705 0.00164479 0.0138583 
791 -0.0205678 -0.00331197 0.0127275 
792 -0.0177964 0.00300667 0.0455381 
793 -0.0121628 0.000786398 0.0312633 
794 -0.0368103 -0.00294507 0.0187546 
795 0.0316104 -0.002456 0.0125022 
796 -0.0271865 -0.000773864 0.0408961 
797 0.0059012 -0.00696236 0.00570867 
798 0.0135319 -0.00613686 0.0457113 
799 -0.0326368 -0.00252325 0.0182275 
800 0.0394722 0.00095309 0.00906025 
801 -0.0127763 0.00520025 0.0122165 
802 -0.00657519 0.00281183 0.0103206 
803 -0.0330268 -0.0066614 0.0581547 
804 0.0365291 -0.00493073 0.0396421 