ITEM: TIMESTEP
4024000
ITEM: NUMBER OF ATOMS
60000
ITEM: BOX BOUNDS ff ff ff
-0.04 0.04
-0.0075 0.0075
0 0.25
ITEM: ATOMS id x y z 
1 0.036199 -0.00398321 0.00313005 
2 0.0141447 0.00317742 0.0374415 
3 0.0209331 0.00698812 0.0332041 
4 0.00846015 0.000351335 0.0266544 
5 0.00906588 -0.00451117 0.0443559 
6 -0.0313409 -0.00383371 0.0580058 
7 -0.0257177 -0.000495164 0.0458465 
8 0.0152468 -0.00378733 0.0498967 
9 -0.0358087 0.000413337 0.0367492 
10 -0.0129354 -0.00387131 0.0437169 
11 -0.00407491 -0.00158241 0.0264149 
12 0.0192375 0.00605604 0.0415185 
13 0.00153692 -0.000116838 0.0131192 
14 0.0353316 0.0022484 0.0525741 
15 -0.0214408 -0.00697845 0.0186445 
16 -0.0367016 0.0069997 0.0475191 
17 -0.0301269 -0.00443689 0.0358867 
18 0.0181721 0.00565875 0.00688851 
19 -0.0384793 -0.00693651 0.0215555 
20 -0.0182225 -0.00271669 0.0505545 
21 8.11777e-05 0.0050784 0.0235064 
22 -0.0133423 -0.00699932 0.0487606 
23 0.0230368 0.00343177 0.0100923 
24 0.0341528 -0.000395775 0.0514451 
25 0.01332 0.000929132 0.0521901 
26 -0.0304611 -0.00073813 0.0265991 
27 -0.0327325 0.00612191 0.0476859 
28 0.0195198 -0.00157336 0.0299417 
29 -0.00869166 -0.00125108 0.0230008 
30 -0.00937444 -0.00194341 0.0388457 
31 0.0305659 0.00344457 0.0531247 
32 -0.024191 0.0026312 0.0130366 
33 -0.0371596 -0.00201611 0.00857745 
34 -0.018147 0.00618508 0.0365181 
35 0.0147203 -0.00113226 0.0142231 
36 -0.0107735 -0.00174463 0.00447864 
37 -0.0118 -0.000307765 0.0129141 
38 0.0159005 -0.00221912 0.0529637 
39 -0.000213002 0.00274227 0.0523795 
40 0.00611756 0.00359888 0.0406947 
41 -0.0301417 0.00178344 0.0507655 
42 -0.00816536 0.00271482 0.0227025 
43 0.00228569 0.0043607 0.0368466 
44 0.000203287 -0.000400853 0.0185727 
45 -0.0383574 0.00542425 0.0536803 
46 -0.0125033 -0.00282856 0.0280257 
47 0.004314 -0.00236756 0.00455164 
48 -0.0394963 0.00201188 0.0368357 
49 0.00568188 -0.00424494 0.0358884 
50 0.0196491 -2.18443e-05 0.00680035 
51 -0.018663 0.0030177 0.0513257 
52 -0.0245232 0.00612863 0.0311235 
53 0.0179177 0.00189434 0.0219174 
54 0.036116 0.000329485 0.00050358 
55 -0.0192212 0.00574407 0.0519887 
56 0.021057 -0.00512857 0.0327849 
57 0.0160189 0.00108365 0.0477161 
58 -0.0247273 0.00542625 0.0636136 
59 -0.0241624 -0.00660874 0.033443 
60 -0.0321628 -0.00580739 0.0509148 
61 -0.0336285 -0.00181613 0.0290375 
62 0.0172536 0.00469086 0.0551119 
63 0.0257524 0.00234721 0.0171855 
64 0.0146066 0.0069671 0.0325012 
65 -0.0168519 0.00469038 0.0536313 
66 0.00763636 0.0052667 0.042055 
67 0.00699861 0.00132445 0.0363563 
68 -0.0232442 -0.00699972 0.0333438 
69 0.0394991 0.00524009 0.0460972 
70 0.0217502 0.00164053 0.0510043 
71 -0.0319401 -0.00233459 0.0503719 
72 0.0314564 0.00340347 0.0490545 
73 0.0194839 0.00699651 0.0396254 
74 -0.0242564 -0.00477913 0.0208911 
75 0.0115411 0.00640662 0.0131446 
76 0.00567175 0.00445231 0.0493647 
77 0.0143589 0.00641148 0.0406005 
78 0.0308801 -0.00388987 0.0220813 
79 -0.0200165 0.00131728 0.0415563 
80 -0.0185983 0.00699587 0.0281443 
81 -0.00330063 -0.0046896 0.00651964 
82 -0.0273787 0.00131509 0.0199147 
83 0.0262754 -0.00489726 0.0517408 
84 -0.0254547 -0.00217562 0.0303345 
85 0.0392521 -0.00213265 0.0471378 
86 0.0204805 -0.00688611 0.0268938 
87 0.0312969 0.00544445 0.00787911 
88 -0.000106453 0.00163876 0.00584136 
89 -0.0225822 -0.00282201 0.0102453 
90 -0.0164962 0.00341822 0.0557231 
91 -0.0245971 -0.00267619 0.00392505 
92 0.0272026 0.0014195 0.041708 
93 -0.0116752 0.0069577 0.0492842 
94 0.0348818 -0.00223938 0.0307791 
95 -0.0323524 0.00343481 0.000505512 
96 -0.00894435 0.00424139 0.031388 
97 0.00314968 0.00185962 0.025142 
98 0.00457251 -0.000186001 0.0164971 
99 0.031437 0.00604562 0.0472475 
100 0.0073829 0.000940867 0.0307173 
101 -0.0280904 0.00153632 0.0443985 
102 0.0056626 -0.00115518 0.0314854 
103 -0.00765926 0.00525947 0.0449283 
104 0.00317967 -0.00329225 0.00445313 
105 -0.00561463 0.000818143 0.000500768 
106 -0.00941886 -0.00441615 0.0252458 
107 -0.00171996 0.00037243 0.0163529 
108 0.0248786 -0.00220258 0.047747 
109 -0.0251034 -0.000377344 0.029592 
110 0.00707802 -0.00532476 0.0345991 
111 0.00221561 -0.00188819 0.0321285 
112 -0.0241895 -0.00699817 0.0419394 
113 -0.00114221 -0.000919834 0.0468161 
114 0.0331295 -0.00153735 0.0539694 
115 -0.00999929 0.00304672 0.00379552 
116 0.0143124 -0.000742668 0.0500516 
117 0.0362788 0.00609929 0.0498295 
118 -0.0296714 0.00413628 0.0664049 
119 0.0072073 -0.00451812 0.0381416 
120 0.0294412 0.00391633 0.0586753 
121 0.00943817 0.00614405 0.0264426 
122 0.000429585 0.00342411 0.0460299 
123 -0.00380512 -0.00181823 0.0371545 
124 0.00133483 -0.00197484 0.0356653 
125 0.0273883 0.00639597 0.047228 
126 0.0293046 -0.00693528 0.0313485 
127 0.0385635 -0.00515708 0.00434985 
128 -0.0103122 0.00582795 0.0379989 
129 -0.0159296 -0.00512802 0.0545095 
130 -0.00436107 0.00177557 0.0227972 
131 -0.0356972 -0.00074619 0.0231461 
132 0.026022 0.00674328 0.00135815 
133 -0.0354014 0.00103877 0.0288556 
134 0.0331394 -0.00343476 0.0493681 
135 -0.0205091 0.00580442 0.0404782 
136 0.0337464 0.00401407 0.00186239 
137 0.0370721 -0.00677459 0.0566067 
138 0.0114697 0.00438111 0.00927354 
139 -0.0283105 0.00444003 0.035713 
140 0.0364786 -0.006571 0.0485979 
141 0.00536643 -0.00300751 0.0470718 
142 0.00417056 -0.00313402 0.00130507 
143 -0.0106464 -0.00467817 0.0462851 
144 0.0337648 -0.00594695 0.028918 
145 0.036326 0.000324079 0.0594417 
146 -0.0219838 0.00531369 0.0371861 
147 -0.0315408 -0.00391274 0.054421 
148 0.0102373 0.000436665 0.0275573 
149 0.00407064 -0.00272388 0.0180949 
150 0.0354515 -0.000675965 0.0045787 
151 0.0394229 -0.00309465 0.0532676 
152 -0.0205754 0.00378275 0.057942 
153 0.0271254 -0.00425243 0.0042969 
154 0.0347373 0.00456824 0.0247262 
155 -0.00876273 -0.00698991 0.030159 
156 -0.0253885 -0.00326468 0.0659774 
157 0.0314362 -0.00449409 0.0231533 
158 -0.0326894 0.00289455 0.0273624 
159 0.0144641 0.00118897 0.0416904 
160 -0.0394997 -0.000439655 0.0312588 
161 0.0301922 0.0025864 0.05541 
162 0.020606 0.00258388 0.042602 
163 -0.0224999 0.00487586 0.052134 
164 0.035581 7.6329e-06 0.0396701 
165 0.0113865 -0.00607469 0.040377 
166 -0.0372888 0.00101244 0.0506905 
167 0.0278953 -0.00217168 0.00138642 
168 -0.00232637 -0.00507654 0.0296953 
169 0.0270927 1.01302e-05 0.0467938 
170 -0.0381802 0.00151511 0.0403911 
171 0.00200669 -0.00221437 0.039228 
172 -0.00318812 0.00265154 0.00199529 
173 0.0373842 -0.0058427 0.0119667 
174 -0.0357874 -0.00219431 0.0663147 
175 0.0214505 -0.00157449 0.0174163 
176 0.0360633 -0.000637293 0.009292 
177 -0.0285213 0.00155426 0.0369006 
178 -0.0362654 -0.00236028 0.0201309 
179 0.0271408 0.00432896 0.00222038 
180 -0.0357035 -0.00494539 0.0379659 
181 -0.0394955 0.00466954 0.0336044 
182 -0.0370525 -0.00344848 0.0341906 
183 -0.00720413 1.50752e-05 0.0322974 
184 0.0281227 -0.0043453 0.000500099 
185 -0.0362241 -0.00521882 0.0331077 
186 -0.0252857 0.0035861 0.0134828 
187 -0.0132305 0.00450053 0.034434 
188 0.00425756 0.00263478 0.031476 
189 0.0125474 0.00600328 0.0518309 
190 -0.00258205 -0.00075945 0.0430885 
191 -0.0361988 -0.000945269 0.0213968 
192 -0.0243432 -0.00218595 0.0519907 
193 -0.0134017 -0.00699475 0.02798 
194 0.0329496 0.00103352 0.0446319 
195 -0.0250087 0.000724535 0.0516005 
196 2.63697e-05 -0.00367217 0.0495405 
197 -0.00823673 -0.00351286 0.0346334 
198 -0.0199521 -0.000172253 0.0394034 
199 0.034589 0.00466504 0.0535625 
200 -0.0157056 0.00462753 0.0316007 
201 0.00636449 -0.00548328 0.0337995 
202 0.0283178 0.00623257 0.0476055 
203 0.000267344 -0.000977387 0.0248517 
204 -0.0179767 0.00157248 0.00937054 
205 -0.0243001 -0.00181718 0.018469 
206 -0.0275675 0.00224336 0.0103151 
207 0.00121528 0.00315084 0.0130109 
208 -0.00560512 -0.00266071 0.000500432 
209 -0.00767809 0.0031912 0.0449708 
210 -0.0298015 -0.00584509 0.0535476 
211 -0.00492553 -0.00101042 0.039063 
212 -0.0290451 0.00301987 0.043053 
213 0.0221701 -0.000890436 0.00221413 
214 -0.0032388 -0.00363371 0.00146664 
215 0.0370622 0.00598904 0.0154948 
216 -0.0372059 -0.00546275 0.0429117 
217 0.037113 0.00124444 0.031574 
218 -0.00912602 0.00123923 0.0523036 
219 0.0376378 -0.00258996 0.00244005 
220 0.0301526 -6.98252e-05 0.0314712 
221 0.0343193 5.38015e-05 0.009374 
222 -0.0270918 -0.00218239 0.0429679 
223 0.0184654 0.0020771 0.0048842 
224 -0.0170988 0.00174958 0.000512135 
225 0.0375298 -0.0069989 0.0352396 
226 0.0227595 0.00696944 0.00759132 
227 0.0299601 -0.00188434 0.0435753 
228 -0.0304933 -0.00112035 0.0255919 
229 0.0162185 0.00609153 0.0446023 
230 -0.00215367 -0.00138591 0.0352082 
231 -0.021227 -0.00484796 0.0565248 
232 -0.0120919 0.0017269 0.000501836 
233 0.00707603 -0.00699488 0.00820036 
234 0.0343973 0.00369753 0.0537422 
235 -0.00305535 -0.00363902 0.0282993 
236 0.00862403 0.000233714 0.0256389 
237 0.017697 0.0044035 0.0535143 
238 0.0262635 0.000449635 0.0415198 
239 0.0302623 0.0056388 0.0383501 
240 -0.0240556 -0.00477352 0.0126076 
241 -0.0224002 0.000968316 0.0354678 
242 -0.00594559 0.00593654 0.0350694 
243 0.00280178 -0.00139533 0.018778 
244 0.00863846 -0.00487562 0.0201678 
245 -0.0265333 -0.00194432 0.024197 
246 0.0116479 0.00163005 0.0478223 
247 -0.0295241 -0.00699941 0.0427829 
248 -0.00134299 0.00465068 0.0512024 
249 0.0229376 -0.00166068 0.0231388 
250 -0.0172705 -0.00319099 0.0109581 
251 0.0390208 0.00612125 0.000501833 
252 0.0279561 0.000764364 0.041443 
253 -0.00175623 -0.00508654 0.0413878 
254 -0.0170263 -0.00615489 0.0460946 
255 0.0174305 -0.000104468 0.0182612 
256 0.0289696 0.0028827 0.0569449 
257 -0.0193802 0.00593155 0.023564 
258 0.0222383 -0.00517782 0.0318868 
259 0.0280036 0.000960575 0.0385189 
260 0.0162227 -0.00698168 0.0244361 
261 -0.0022501 -0.00615469 0.00991709 
262 -0.00598285 0.00539395 0.0487455 
263 -0.0335673 0.00520725 0.024561 
264 0.0197516 -0.00338255 0.0310915 
265 -0.0295087 0.00162151 0.0408647 
266 0.0162202 0.00299716 0.0316766 
267 -0.0179383 -0.00494463 0.0407894 
268 -0.0190362 0.00457051 0.0264577 
269 0.0104306 -0.00607618 0.0228109 
270 0.00401059 -0.00607388 0.0194635 
271 0.00850446 0.00699947 0.000502371 
272 0.0325719 -0.00280254 0.0167278 
273 0.0329804 0.00301439 0.0331466 
274 -0.000400461 -0.00186644 0.0366595 
275 -0.0214251 0.00299379 0.0318634 
276 0.0232065 0.000160845 0.0527328 
277 -0.0232038 0.0053373 0.0359444 
278 0.0143523 -0.00081609 0.0270536 
279 0.0205581 0.00495412 0.0484361 
280 -0.0382041 0.00307924 0.0206696 
281 0.00227358 0.00171307 0.00133739 
282 -0.0261702 -0.00524898 0.0232245 
283 0.023921 -0.00104872 0.00388573 
284 0.00309559 -0.00699881 0.0414075 
285 -0.0118811 0.000625532 0.0298153 
286 -0.0047756 -0.0054663 0.0353981 
287 0.023035 0.00142127 0.0322789 
288 -0.0304012 -0.00455043 0.0504562 
289 0.0177177 -0.00242978 0.0267266 
290 -0.0393832 0.00439289 0.01862 
291 -0.0140534 -4.48229e-05 0.0356184 
292 -0.0300954 -0.00519234 0.00328686 
293 -0.0179882 0.00434965 0.0143529 
294 0.031539 -0.002219 0.0490546 
295 0.0246092 0.00126693 0.00852888 
296 0.0287682 0.00331871 0.032119 
297 0.0257249 0.00466829 0.0446579 
298 -0.00531526 0.000180755 0.025346 
299 0.0291855 -0.00377808 0.0130975 
300 0.014894 -0.00479672 0.00147788 
301 -0.0262732 0.0010944 0.00456059 
302 0.00601706 0.00513118 0.0473598 
303 -0.0296318 0.00614273 0.0485355 
304 0.0272284 -0.00348422 0.0337562 
305 -0.0118093 0.00149866 0.0266936 
306 -0.0030616 0.00184195 0.028987 
307 0.0281395 0.00611304 0.039529 
308 -0.0211157 -0.00699822 0.000504645 
309 0.0211798 0.00699196 0.0453964 
310 0.0370856 0.00367456 0.0551862 
311 0.00458316 0.00608166 0.0441767 
312 -0.0182994 -0.00499813 0.0476813 
313 -0.000431517 -0.00467219 0.0217872 
314 0.0339838 0.00645631 0.0185088 
315 -0.0344071 0.00609878 0.0086794 
316 -0.0270988 -0.00444335 0.0265128 
317 -0.000371328 -0.00130204 0.0203113 
318 -0.0312968 0.0032828 0.0571996 
319 0.00766153 0.0034539 0.0437618 
320 0.00824065 -0.00360951 0.0408372 
321 0.0334967 0.00686585 0.00378815 
322 0.0201384 0.00416871 0.0489464 
323 -0.00292988 -0.00174439 0.0433267 
324 0.0072321 0.00330601 0.0382424 
325 -0.0324558 -0.000829064 0.00477067 
326 -0.0306332 0.00264026 0.0261892 
327 0.0355036 -0.00695626 0.0263181 
328 -0.0311567 -0.00693179 0.0540094 
329 0.0168168 0.00322562 0.0530588 
330 -0.0233234 -0.00201348 0.0649739 
331 0.0132484 0.000800899 0.0197909 
332 -0.0215611 0.000648152 0.0309763 
333 0.0230162 0.00468997 0.00646677 
334 -0.0202175 0.000340543 0.0244898 
335 -0.0102976 0.00350545 0.0321534 
336 0.0067796 0.000959311 0.0481011 
337 0.033728 0.00175911 0.0577908 
338 0.0181893 0.000485698 0.0454816 
339 0.0204956 -0.0027055 0.0313237 
340 0.00136449 0.00633846 0.00280644 
341 -0.0388076 0.00380248 0.0171174 
342 0.00187559 0.00437099 0.017939 
343 -0.0315651 -0.000790819 0.0412457 
344 -0.00530489 0.00116629 0.0133513 
345 -0.00281113 -0.00418527 0.0301209 
346 0.0238627 -0.00698868 0.0332613 
347 0.00911651 0.00125525 0.0389156 
348 0.0285774 -0.00445067 0.0502684 
349 -0.0335327 -0.00527485 0.0253542 
350 -0.0372307 -0.00683621 0.00960851 
351 -0.0287241 -0.00692309 0.058521 
352 -0.0275785 -0.00454851 0.00317738 
353 0.0286125 0.00015641 0.0385477 
354 -0.0180771 0.00381513 0.0551935 
355 -0.0112944 -0.00300795 0.0289636 
356 -0.0216177 -0.00435487 0.000500787 
357 0.0194675 0.00205125 0.0346448 
358 0.0118384 0.00264944 0.0347851 
359 0.0218201 0.00266891 0.0473269 
360 -0.0219314 -0.00534166 0.045829 
361 0.0195862 0.000148435 0.0405707 
362 -0.0127655 0.00389873 0.0491483 
363 0.000398468 0.00699891 0.0151258 
364 0.0210203 -0.00017554 0.0542298 
365 -0.0313694 0.00413261 0.0562472 
366 -0.0328694 -0.00154738 0.0333764 
367 0.017918 0.00434734 0.0343507 
368 -0.0380104 0.00161073 0.0431704 
369 0.0249218 0.00177536 0.0333071 
370 0.0176382 -0.00346883 0.000499996 
371 -0.0288203 -0.00525322 0.029031 
372 -0.0386592 -0.00297259 0.0406714 
373 -0.00937818 0.00324334 0.0496404 
374 -0.0367867 0.000426028 0.0372448 
375 0.0370204 -0.00260934 0.0372548 
376 -0.0199083 0.00292152 0.0508971 
377 -0.0251768 0.00156912 0.00326443 
378 -0.0375429 0.00601401 0.0579597 
379 0.0220461 0.00401997 0.0337426 
380 0.0324543 0.00523907 0.00481031 
381 -0.0298008 0.00589438 0.00910746 
382 -0.014137 -0.00146328 0.0443899 
383 -0.0395 -0.00696144 0.0235216 
384 -0.0220573 -0.0070001 0.0410563 
385 -0.0219399 -0.00365789 0.0451843 
386 -0.0212291 -0.00673187 0.0583414 
387 -0.0174443 -0.00350208 0.0563115 
388 -0.00109446 0.00615778 0.019183 
389 0.0294571 -0.00596753 0.0136635 
390 0.00628919 0.00697318 0.0404313 
391 0.0347013 0.00308662 0.00386217 
392 -0.0270736 0.00700002 0.0356841 
393 0.0219979 -0.00611505 0.031384 
394 -0.0265942 0.0045728 0.0288638 
395 -9.67129e-05 0.00069057 0.0439704 
396 -0.0394783 -0.00390985 0.000503472 
397 -0.0207835 -0.00498711 0.0380691 
398 -0.0337039 -0.00135397 0.0623276 
399 -0.0333258 -0.00112822 0.0472178 
400 -0.0358036 0.00156599 0.0557058 
401 0.0270194 -0.00195131 0.0572363 
402 -0.00610614 -0.00526096 0.00050083 
403 -0.00183312 -0.000538549 0.021205 
404 -0.0155762 -0.0025802 0.0511768 
405 -0.0336841 0.000668197 0.0552008 
406 -0.00137431 0.00105124 0.0285813 
407 0.0370646 0.00117475 0.0483454 
408 0.0152174 0.00391269 0.0488166 
409 -0.0182273 0.00101699 0.0452366 
410 0.0311262 0.00261459 0.0446295 
411 -0.0010754 -0.00241621 0.0191838 
412 -0.0196974 0.0070001 0.0345258 
413 0.0388818 -0.000970088 0.0130345 
414 0.0260085 -0.00689633 0.0147844 
415 0.02937 -0.00537379 0.0519901 
416 -0.0260469 -9.03011e-05 0.0399168 
417 0.00681321 -0.00171057 0.0192385 
418 -0.0265081 -0.00359214 0.0166658 
419 0.0381169 -0.00231761 0.0332448 
420 -0.0115511 0.000289045 0.0357761 
421 -0.0249042 -0.005214 0.0599093 
422 -0.0214868 -0.00282178 0.060486 
423 -0.00599446 0.00508976 0.0305863 
424 -0.00121025 0.00205489 0.0321568 
425 -0.00290129 0.00699632 0.0186092 
426 -0.0237137 0.00696363 0.027944 
427 0.0166227 -0.00610706 0.0284282 
428 0.0124385 0.00240284 0.0404641 
429 0.0345354 -0.0045303 0.0413862 
430 -0.0140554 0.00118114 0.0476389 
431 0.018834 -0.000144521 0.0399719 
432 -0.00207581 -0.00274955 0.00491408 
433 0.0335523 -0.0009103 0.0341288 
434 -0.0285563 -0.00699509 0.0441858 
435 -0.00567015 0.000341941 0.0239482 
436 0.030595 0.0025111 0.0534987 
437 -0.0369899 -0.00580741 0.0563578 
438 -0.0378722 0.0018229 0.0300171 
439 -0.0364823 -0.00699872 0.027232 
440 0.0293933 -0.0019757 0.0420355 
441 -0.0022517 0.00260446 0.00288404 
442 -0.00431084 -0.00544899 0.011341 
443 -0.0328645 -0.00197218 0.0530506 
444 -0.0256344 -0.00612546 0.000501905 
445 0.000771472 0.00549397 0.0146877 
446 -1.03496e-06 0.00317362 0.0311894 
447 -0.0320579 0.00105605 0.0583396 
448 -0.00843631 -0.00526276 0.0351547 
449 0.0251554 -0.00458501 0.0536695 
450 0.016134 -0.000319668 0.0542157 
451 0.00809581 -0.00150914 0.0519501 
452 0.0368685 0.00101901 0.000505572 
453 0.0355894 0.000816406 0.0356527 
454 -0.00414092 0.00630974 0.0308195 
455 -0.0394998 -0.00322649 0.0444953 
456 0.00730399 0.00254832 0.0214447 
457 -0.0101448 -0.0044339 0.0313966 
458 -0.02363 -0.00297833 0.0557628 
459 0.0376504 0.00522604 0.0328069 
460 -0.0315747 -0.00365663 0.0467644 
461 -0.0375544 -0.000386695 0.012812 
462 -0.0122277 -0.000171333 0.0479638 
463 -0.00888948 0.00426554 0.016281 
464 0.0200713 -0.000457349 0.0517408 
465 -0.0187433 -0.00699882 0.036667 
466 0.00397949 0.00153597 0.0175807 
467 0.00824013 -0.00317711 0.00908576 
468 0.00942268 0.000205426 0.0269907 
469 0.00936775 -0.0068859 0.0212349 
470 -0.000804308 0.00524882 0.0358858 
471 0.0385386 0.00590924 0.0257317 
472 -0.00959796 0.000836093 0.000503419 
473 0.0280079 -0.00206793 0.0492806 
474 0.0265828 -0.00699332 0.0340549 
475 0.0304802 -0.00304054 0.0573602 
476 0.00219476 0.00350999 0.0175192 
477 0.0394862 0.00699521 0.0311943 
478 -0.00802878 0.0025059 0.0284353 
479 -0.00553589 0.000734012 0.0268271 
480 0.0306909 0.00698646 0.0462329 
481 0.0070561 0.00530044 0.0337676 
482 -0.00783503 -0.000476712 0.0484751 
483 -0.0290563 -0.00286888 0.0452042 
484 -0.0278758 -0.00689583 0.0100538 
485 -0.00726255 -0.0069998 0.0294173 
486 0.0251506 -0.00167916 0.0500578 
487 -0.027049 0.00439331 0.0443534 
488 -0.00843628 0.0034852 0.0221229 
489 -0.0138365 -0.00113511 0.0257169 
490 -0.0112738 0.00158581 0.0369191 
491 -0.0266303 -0.0034642 0.044257 
492 -0.0344658 0.00359403 0.0341899 
493 0.0321613 -0.00601617 0.0313447 
494 0.00450365 -0.00697199 0.015889 
495 -0.0289957 0.002274 0.0133232 
496 -0.0161545 0.00172355 0.0458934 
497 -0.0222031 1.29962e-05 0.0302941 
498 0.0181392 -0.000593935 0.0471631 
499 0.0220539 -0.000963789 0.00353489 
500 -0.026944 0.0019923 0.0633344 
501 -0.00607482 0.00689669 0.0136908 
502 -0.025374 -0.00506415 0.0159703 
503 -0.0175389 -0.000599133 0.032649 
504 0.0338475 -0.00698826 0.05037 
505 -0.0106329 0.0023387 0.0367698 
506 0.00941417 0.006026 0.0244312 
507 0.0282366 0.00531618 0.0411604 
508 -0.0299353 -0.00124156 0.0563709 
509 0.00819619 0.0045056 0.0130349 
510 -0.0281652 -0.00411672 0.00139532 
511 0.0207901 -0.00509722 0.0356372 
512 0.021814 0.000119762 0.0471259 
513 -0.014028 -0.00681858 0.0461234 
514 0.035657 0.00403826 0.0165373 
515 -0.0237844 -0.00693823 0.0529227 
516 0.0363282 -0.00277074 0.0354689 
517 -0.00512165 -0.000626235 0.00131665 
518 -0.00821154 -0.00314132 0.050532 
519 0.0119833 -0.0012699 0.0383895 
520 0.0372371 -0.00455018 0.0589967 
521 0.00401582 -0.00109071 0.016717 
522 -0.0137174 -0.000881226 0.014356 
523 -0.0235121 -0.00401226 0.0629193 
524 -0.0171455 -0.00229579 0.050824 
525 0.0184584 0.000369338 0.031428 
526 0.0215582 0.00488537 0.00388378 
527 -0.0315586 -0.00364321 0.0645594 
528 0.00570497 0.00281896 0.0128521 
529 0.0211382 -0.000869067 0.000518595 
530 -0.0286165 0.00376612 0.00137429 
531 0.000996081 0.00213303 0.00141535 
532 0.0196389 -0.00173691 0.000542567 
533 -0.00475659 -0.000952776 0.0426945 
534 -0.0255159 0.00470371 0.0610731 
535 0.00607816 -0.00698358 0.0485165 
536 -0.0295922 0.00699073 0.0248563 
537 0.0326965 0.0069631 0.0241469 
538 0.0268684 -0.00528114 0.0472647 
539 0.0267116 -0.00416713 0.0215471 
540 -0.0311525 -0.000608975 0.011127 
541 -0.0393958 -0.00100473 0.0107721 
542 0.0271608 0.0045672 0.0188738 
543 0.00808649 -0.000935018 0.0121123 
544 -0.0239196 -0.000997626 0.0609795 
545 -0.000432444 -0.000612806 0.0146573 
546 -0.01351 0.00358081 0.0358233 
547 -0.0387262 -0.00173848 0.0356974 
548 -0.0249083 -0.00122477 0.0258358 
549 -0.0208847 0.000205005 0.0472677 
550 -0.009189 0.00547044 0.0306322 
551 -0.00833357 0.00699999 0.030142 
552 0.018267 -0.00354262 0.0479541 
553 -0.000912434 -0.00699368 0.00976565 
554 0.0346186 -0.000160364 0.050592 
555 0.0233648 -0.00379437 0.0225303 
556 -0.00994848 -0.0052049 0.0277097 
557 0.0116186 0.00699928 0.0358945 
558 -0.0341017 -0.00296094 0.0555055 
559 0.00918493 0.00536178 0.0400884 
560 0.0146032 -0.000462947 0.00815949 
561 0.00653706 -0.00125508 0.0151523 
562 -0.0394999 -0.00322418 0.0517557 
563 -0.0165811 0.00435612 0.00050179 
564 0.00710925 0.00526414 0.0412032 
565 0.0163676 -0.00374626 0.0541803 
566 -2.84854e-05 0.00653729 0.0536122 
567 0.0383756 0.00475262 0.00857078 
568 0.0145047 0.00699873 0.000500789 
569 -0.0394838 0.00693788 0.0313813 
570 2.18994e-05 0.00126754 0.0351714 
571 0.0118187 -0.00442574 0.0362127 
572 0.0362209 0.00126135 0.0278434 
573 -0.0252489 -0.00699993 0.0421266 
574 0.00811495 -0.00354276 0.00700835 
575 0.0103459 -0.00699682 0.0252676 
576 -0.0343763 -0.00483722 0.0296422 
577 -0.0324582 0.00222781 0.0583949 
578 -0.0394939 0.00168976 0.0289059 
579 -0.00526059 -0.00155935 0.0186857 
580 -0.0144484 0.000355766 0.0331236 
581 -0.0272399 0.00364424 0.0453066 
582 -0.00676293 -0.00515366 0.0379186 
583 0.0269998 -0.00517892 0.0563731 
584 0.0316996 0.000215895 0.0115366 
585 0.0353145 -0.00502825 0.0289373 
586 0.0150558 -0.000420822 0.0299042 
587 -0.023725 -0.00511106 0.031974 
588 0.00502988 0.00315302 0.00356107 
589 0.0394829 -0.00321318 0.0518996 
590 0.0245165 -0.00306478 0.0388766 
591 0.0171561 -0.0069333 0.0280387 
592 0.0390645 -0.00205779 0.0444199 
593 -0.00734393 -0.0020088 0.0250353 
594 0.0394995 -0.00699997 0.0405707 
595 -0.0364369 -0.00064163 0.0449504 
596 0.0315878 -0.00614576 0.0450314 
597 -0.0278108 0.00136166 0.0168129 
598 0.0214112 -0.00436065 0.0360275 
599 0.0358909 0.000901669 0.0247562 
600 -0.000721707 0.000600384 0.0334391 
601 0.0299179 0.000312072 0.0291724 
602 0.0297373 -0.00403979 0.0341814 
603 0.0267362 -0.00513286 0.00562412 
604 0.0384981 -0.00100417 0.039236 
605 -0.0156485 -0.00229969 0.0249535 
606 0.0357534 0.00693246 0.0251158 
607 0.0340351 0.00413054 0.000517692 
608 0.00272035 -0.00163076 0.0381692 
609 -0.0364561 0.00112987 0.0247591 
610 -0.00649575 0.00172678 0.0364139 
611 -0.0356456 -0.0001566 0.010697 
612 -0.0308808 -0.0065382 0.0415194 
613 0.0052692 0.00123208 0.0401701 
614 -0.00635865 0.00699983 0.0381291 
615 0.00139513 0.00357649 0.0380074 
616 -0.0375301 0.00314145 0.0218034 
617 0.00869512 -0.00450127 0.0493198 
618 -0.0130282 -0.00447962 0.0429264 
619 -0.0200031 -0.00552889 0.0624185 
620 -0.0101949 0.00366682 0.0481367 
621 0.00632915 -0.00318416 0.0402723 
622 -0.0298605 -0.00369223 0.0624583 
623 -0.00964863 0.00193508 0.0195588 
624 -0.0246272 0.00217914 0.0465229 
625 -0.00624797 0.00295722 0.0201277 
626 -0.0190547 -0.00275827 0.0401697 
627 0.0217143 0.00230122 0.0551115 
628 0.0350813 -0.00333715 0.0144615 
629 0.00012998 0.00260972 0.0115574 
630 -0.00176507 0.00699558 0.0217963 
631 0.0288831 -0.00124376 0.0360868 
632 0.0377733 0.00432831 0.031328 
633 0.0377897 -0.0010288 0.0481673 
634 0.00123169 -0.00357352 0.00940984 
635 0.0100311 0.0035193 0.0367349 
636 -0.0379196 -0.00690757 0.0567003 
637 0.0214975 -0.00686628 0.0230028 
638 0.00268655 0.002306 0.0321173 
639 0.032695 0.00357215 0.0559246 
640 0.0378814 -0.00518315 0.0280318 
641 -0.0246098 -0.00413478 0.0287493 
642 0.0352624 0.00280455 0.0250698 
643 -0.00254663 -0.00127497 0.0267588 
644 0.0102469 0.00466642 0.0183713 
645 -0.00899825 -0.00508715 0.0186556 
646 -0.0168182 -0.00255344 0.0498887 
647 -0.0127445 -0.00523246 0.0185826 
648 0.0102058 -0.00695092 0.0184001 
649 -0.00342671 -0.000919639 0.00148376 
650 -0.00785797 -0.000738062 0.0322247 
651 0.037799 -0.00225718 0.0508763 
652 -0.00985312 -0.00589852 0.034853 
653 0.0231157 0.00187032 0.0543911 
654 -0.0365715 -0.00351037 0.047294 
655 0.0309268 0.00495571 0.0380425 
656 -0.00393398 0.00251773 0.0134828 
657 -0.0353836 -0.000509849 0.00890182 
658 0.0279996 -0.00393548 0.0315356 
659 0.0189242 0.00189307 0.0496853 
660 -0.0297244 0.0018704 0.0655884 
661 -0.0248069 0.00137828 0.0453424 
662 -0.0394359 0.00221841 0.0632011 
663 -0.014689 0.00572394 0.0402463 
664 0.0287788 -0.000425013 0.0318259 
665 -0.0230184 -0.00408039 0.00219584 
666 0.0055131 0.000499458 0.0295658 
667 -0.0121599 0.00217223 0.0241657 
668 -0.0334481 0.00410594 0.0283861 
669 -0.0390783 0.00416855 0.00128204 
670 0.00204077 -0.00471518 0.0354696 
671 0.0161813 -0.00378557 0.0471004 
672 -0.0157653 -0.00125392 0.0477075 
673 0.00214047 -0.00494265 0.0221007 
674 -0.0385671 -0.00183566 0.00140157 
675 -0.00688183 -0.00415715 0.0470723 
676 -0.0348512 1.50937e-05 0.0407523 
677 -0.0149266 0.00514566 0.0241564 
678 0.0307801 0.00698747 0.0506693 
679 -0.0273295 -0.000175416 0.0641995 
680 -0.0117999 -0.00490649 0.0362209 
681 0.0103583 -0.00700032 0.0420909 
682 0.00675119 0.00419057 0.0381586 
683 0.0382559 -0.00167809 0.0472033 
684 0.0062442 0.00367943 0.0459383 
685 -0.039417 -0.00307114 0.00907688 
686 -0.00405586 -0.000512448 0.0443871 
687 0.0394967 -0.00436258 0.0500202 
688 -0.031299 0.00680081 0.0304049 
689 -0.0251492 -0.00578142 0.0580718 
690 -0.0250095 -0.00601235 0.0537029 
691 -0.0272282 -0.00242398 0.0232688 
692 0.0105098 -0.00526664 0.000500097 
693 -0.0101085 0.000274803 0.0123409 
694 0.0338722 -0.00521111 0.0339863 
695 -0.0346663 -0.00398724 0.0101037 
696 0.0099346 0.00479448 0.0530517 
697 -0.0118065 0.0038675 0.0293551 
698 -0.00591247 -0.00678177 0.0122238 
699 -0.000666113 -0.000676771 0.0035772 
700 -0.00512795 0.00187307 0.00308856 
701 0.0140384 0.00576019 0.0538308 
702 -0.00127053 0.0033531 0.0330988 
703 -0.0280582 0.00411969 0.0423673 
704 -0.0361909 -0.00157995 0.0404126 
705 0.0334909 -0.00152585 0.0580948 
706 -0.0263523 -0.00581375 0.0390682 
707 -0.00206014 0.000121591 0.0473373 
708 0.0248912 -0.000219361 0.0471478 
709 0.0187016 -0.00420705 0.0136003 
710 -0.038517 0.0033087 0.0457129 
711 0.0255809 -0.00697437 0.00236473 
712 0.0345332 0.00118967 0.0596614 
713 -0.0350261 0.00418563 0.0385878 
714 -0.0156461 -0.00231366 0.0399232 
715 -0.0163354 -0.000827235 0.0408301 
716 -0.032264 -0.00599632 0.0166036 
717 -0.0219181 0.00435973 0.00601648 
718 -0.0162727 0.00605483 0.0401011 
719 0.00800852 -0.0030238 0.0425303 
720 0.0091043 0.00700006 0.0468559 
721 -0.0166723 0.00370469 0.0204698 
722 -0.00141973 0.00699897 0.0277878 
723 0.0199613 -0.00606512 0.0376615 
724 0.0100867 -0.00370748 0.0192126 
725 -0.0116282 -0.00216829 0.0247219 
726 -0.0290497 0.000645209 0.0352145 
727 -0.0305586 -0.00385509 0.0262781 
728 0.0288264 0.00319604 0.0530633 
729 -0.035948 0.00530151 0.0378577 
730 -0.0343851 0.00258178 0.0377562 
731 -0.01302 -0.00440724 0.0445582 
732 -0.0346569 0.00219534 0.0419866 
733 0.00107011 -0.00699992 0.036254 
734 0.0131574 0.00628538 0.0334094 
735 -0.00220146 0.00362318 0.0364513 
736 0.00970642 0.000570275 0.0318314 
737 -0.00157975 -0.00485969 0.00869541 
738 0.0224148 0.00209807 0.0537104 
739 0.0236051 0.00593906 0.028759 
740 0.0217254 0.0060273 0.0399846 
741 0.00915337 0.00351818 0.0141654 
742 -0.0342983 -0.00516771 0.0455893 
743 0.00715155 -0.00150143 0.0294064 
744 -0.0336143 -0.00699961 0.0421496 
745 0.0146563 0.00679714 0.0344911 
746 0.00161213 0.0057018 0.035643 
747 0.0172922 -0.0028723 0.0398318 
748 -0.0323832 -0.00451698 0.0150617 
749 0.0310082 -0.00612845 0.000502247 
750 -0.0328709 0.0013294 0.0402872 
751 0.00876689 -0.0061266 0.021696 
752 -0.00910228 -0.00351331 0.0378963 
753 0.0310063 -0.00376005 0.0390583 
754 -0.000392495 0.00356868 0.0130776 
755 0.0273705 0.00529353 0.0323416 
756 -0.0163509 0.00395369 0.0162601 
757 -0.00317397 -0.00251161 0.00652815 
758 -0.00974438 -0.00200342 0.0217795 
759 -0.0205523 0.00596463 0.00166901 
760 -0.0145711 -0.00392209 0.0131198 
761 0.0246674 -0.00013459 0.0375656 
762 0.0368198 0.00306662 0.0521512 
763 -0.021553 -0.00611422 0.0515588 
764 -0.00417012 -0.00699442 0.0190989 
765 -0.0351835 0.00373484 0.0275218 
766 0.021277 0.00437835 0.0368593 
767 -0.0165387 0.00280834 0.0530475 
768 0.031046 -0.00476341 0.0435031 
769 0.00865502 -0.00216742 0.0478534 
770 -0.039465 0.00212989 0.0103589 
771 0.0310824 0.00345589 0.0423707 
772 0.0128667 0.00698236 0.048478 
773 0.0166094 0.00471129 0.0508711 
774 0.0169539 -0.00248423 0.0551836 
775 -0.0273492 -0.00517643 0.0469502 
776 0.00553765 0.00063444 0.00225732 
777 0.0316279 0.000178705 0.0170218 
778 0.0374646 -0.00600594 0.0351055 
779 0.0317593 0.00163002 0.0273827 
780 -0.0127027 -0.00317177 0.0311884 
781 -0.0225516 -0.00613567 0.03687 
782 -0.00998745 -0.00373329 0.0214409 
783 0.00468252 -0.00620416 0.00462302 
784 -0.0165584 0.00449136 0.024265 
785 -0.0328307 0.000909181 0.000500812 
786 -0.0371765 -0.00318561 0.024688 
787 -0.0177621 0.0030489 0.0448974 
788 -0.0183051 -0.00699972 0.0375661 
789 -0.0285372 0.00590229 0.0238515 
790 -0.00652571 0.00157016 0.0192854 
791 -0.019837 -0.00346626 0.0221479 
792 -0.0138784 0.00221831 0.0475296 
793 -0.00510993 0.000465454 0.0371953 
794 -0.0362736 -0.00306438 0.0266312 
795 0.0302802 -0.00189999 0.0185272 
796 -0.0250391 -0.000379697 0.0466035 
797 0.00748643 -0.00695969 0.00555332 
798 0.00341399 -0.00600706 0.0482022 
799 -0.0314079 -0.00235223 0.0269311 
800 0.0394391 0.000662497 0.011101 
801 -0.00976845 0.00525102 0.0188611 
802 -0.00350746 0.00239051 0.0125361 
803 -0.0318052 -0.00620406 0.0517638 