ITEM: TIMESTEP
4004000
ITEM: NUMBER OF ATOMS
60000
ITEM: BOX BOUNDS ff ff ff
-0.04 0.04
-0.0075 0.0075
0 0.25
ITEM: ATOMS id x y z 
1 0.0353734 -0.00358648 0.00267548 
2 0.0189749 0.00372203 0.0249566 
3 0.0225642 0.00698554 0.0200423 
4 0.0112905 -2.6131e-05 0.0190684 
5 0.0183881 -0.00514397 0.0399457 
6 -0.0314513 -0.00356994 0.0652773 
7 -0.0274591 -0.000319103 0.0395345 
8 0.022081 -0.00357491 0.0484663 
9 -0.0375676 0.000713305 0.0316291 
10 -0.0179177 -0.00389545 0.0400334 
11 -0.0104759 -0.0013801 0.021181 
12 0.0245318 0.00586557 0.0339428 
13 -0.000755463 2.01883e-05 0.0126719 
14 0.0357978 0.00252694 0.0522934 
15 -0.0222852 -0.00699634 0.0101329 
16 -0.0372925 0.00690894 0.051627 
17 -0.032247 -0.00456989 0.028545 
18 0.0162934 0.00538985 0.00472449 
19 -0.0386242 -0.00688386 0.0168096 
20 -0.0222925 -0.00210335 0.0532437 
21 -0.00361457 0.00451328 0.0241152 
22 -0.017558 -0.00696462 0.0542242 
23 0.0208407 0.00378596 0.00556673 
24 0.0350961 -0.000709715 0.0504483 
25 0.0203575 0.000876318 0.0517026 
26 -0.0325584 -0.00070415 0.0158928 
27 -0.0336286 0.00604825 0.0517074 
28 0.0215401 -0.00130785 0.013994 
29 -0.0130354 -0.00131634 0.0148288 
30 -0.0164317 -0.00247821 0.0335212 
31 0.0321084 0.00364541 0.0520594 
32 -0.0242029 0.00251797 0.00737744 
33 -0.0370613 -0.00276961 0.00651043 
34 -0.0220871 0.00606752 0.0293286 
35 0.0119696 -0.00142321 0.0072677 
36 -0.0107518 -0.00146883 0.00429186 
37 -0.0115475 -0.000282679 0.00756616 
38 0.0220255 -0.00203253 0.0529182 
39 0.0115415 0.00255579 0.0466253 
40 0.0143562 0.00344951 0.0352235 
41 -0.0327657 0.00237583 0.0557334 
42 -0.0120281 0.00281458 0.015037 
43 0.00852656 0.00459527 0.0344212 
44 -0.00295703 4.2056e-05 0.0178303 
45 -0.0386137 0.0055405 0.0629157 
46 -0.0178019 -0.0028434 0.017241 
47 0.00234832 -0.00220034 0.0044349 
48 -0.0394998 0.00244613 0.033964 
49 0.0118424 -0.00416388 0.030736 
50 0.0154045 0.000423769 0.00450196 
51 -0.0221727 0.00343971 0.0570271 
52 -0.0276384 0.00615036 0.0229406 
53 0.014922 0.0016857 0.00879399 
54 0.0361939 0.000301029 0.000580905 
55 -0.0218777 0.00554654 0.0589641 
56 0.0240615 -0.00524091 0.0177496 
57 0.0227498 0.00098483 0.0443218 
58 -0.0260113 0.00437566 0.0705344 
59 -0.0267832 -0.00699965 0.0274199 
60 -0.0326439 -0.00603585 0.0581097 
61 -0.0344596 -0.00178276 0.0191433 
62 0.0232071 0.00425204 0.0561034 
63 0.0236062 0.00182824 0.00778716 
64 0.0173148 0.00699966 0.0210062 
65 -0.0203649 0.0053538 0.0632441 
66 0.0158364 0.00529201 0.0377749 
67 0.0137187 0.00112439 0.0293749 
68 -0.0257717 -0.00699742 0.0273835 
69 0.0394822 0.00536821 0.0467995 
70 0.0264618 0.00148954 0.0486889 
71 -0.0332055 -0.00346848 0.0553228 
72 0.033037 0.00342893 0.0472055 
73 0.0232315 0.00695987 0.0308751 
74 -0.02569 -0.00438509 0.0115922 
75 0.0106179 0.00608241 0.00820433 
76 0.015543 0.00381076 0.048061 
77 0.0207736 0.00670119 0.0361388 
78 0.0332932 -0.00347947 0.0123234 
79 -0.0235536 0.00136887 0.0344682 
80 -0.0230438 0.00699958 0.0193125 
81 -0.00562076 -0.00536624 0.00622107 
82 -0.0309027 0.00117308 0.011429 
83 0.0291656 -0.00487238 0.0505055 
84 -0.02812 -0.00223444 0.0204354 
85 0.0392599 -0.00224714 0.0475279 
86 0.0222709 -0.00699225 0.0154304 
87 0.0299406 0.00556855 0.00514321 
88 -0.00255675 0.00150589 0.00571217 
89 -0.0235745 -0.0023419 0.00549341 
90 -0.0192283 0.00254965 0.0628756 
91 -0.0254374 -0.00260125 0.00359262 
92 0.030291 0.000831894 0.0338652 
93 -0.0159406 0.00690156 0.0568636 
94 0.0356776 -0.0022919 0.0185843 
95 -0.0327287 0.00343896 0.000596814 
96 -0.015604 0.00446867 0.0233379 
97 0.0042118 0.00147172 0.0235323 
98 0.00398785 -0.000789932 0.0149841 
99 0.0327628 0.00600467 0.045597 
100 0.011676 0.000998058 0.0236364 
101 -0.0302039 0.00155124 0.038632 
102 0.0104238 -0.000902419 0.0247957 
103 -0.0145962 0.00487239 0.043973 
104 0.0014395 -0.00344558 0.00403186 
105 -0.00624042 0.000818243 0.000502854 
106 -0.0144049 -0.00430354 0.016867 
107 -0.0045962 0.000445073 0.0142686 
108 0.0284129 -0.00151503 0.0449272 
109 -0.0275751 -0.000242083 0.0188387 
110 0.0131873 -0.00506414 0.0294078 
111 0.00489617 -0.0019528 0.030308 
112 -0.0263798 -0.00699795 0.0368281 
113 -0.00886457 -0.000454311 0.0431463 
114 0.034115 -0.00150696 0.0537308 
115 -0.0104581 0.00311705 0.00333485 
116 0.0211151 -0.000304119 0.0480996 
117 0.0369808 0.00586184 0.0504272 
118 -0.0297786 0.00317664 0.0725929 
119 0.0144745 -0.00424729 0.0322295 
120 0.0300942 0.00276281 0.060332 
121 0.012201 0.00628905 0.0184596 
122 0.00946879 0.00249889 0.0413115 
123 -0.010913 -0.00205639 0.0336476 
124 0.000869308 -0.00419154 0.0369442 
125 0.0298118 0.00603554 0.0451597 
126 0.0306559 -0.00699812 0.0188607 
127 0.0388194 -0.00504305 0.00339319 
128 -0.016617 0.0052959 0.0316932 
129 -0.0192581 -0.00506833 0.0635075 
130 -0.00934009 0.00196304 0.0176515 
131 -0.0361362 -0.000505886 0.0138518 
132 0.0259654 0.00699715 0.00153198 
133 -0.0361273 0.00126454 0.0190906 
134 0.0339024 -0.00314748 0.0479236 
135 -0.0238006 0.00609184 0.0343633 
136 0.0336688 0.00431923 0.00183912 
137 0.0367243 -0.00657931 0.0574159 
138 0.00976218 0.00539942 0.00576803 
139 -0.0310627 0.00407346 0.0287062 
140 0.0369864 -0.00698801 0.0502061 
141 0.0157655 -0.0026367 0.0444208 
142 0.0036606 -0.00294294 0.00137123 
143 -0.0165999 -0.00524686 0.0467591 
144 0.0345168 -0.00610278 0.0176471 
145 0.0351421 0.000390104 0.0609654 
146 -0.0252321 0.00510269 0.0298149 
147 -0.0325999 -0.00350477 0.0617623 
148 0.0129069 0.000123176 0.0179173 
149 0.00338203 -0.00304434 0.0163761 
150 0.0339853 -0.000234356 0.00350158 
151 0.0394381 -0.00316647 0.0536582 
152 -0.0226301 0.00325784 0.0645134 
153 0.0268717 -0.00437358 0.00358299 
154 0.0349791 0.0046359 0.0139265 
155 -0.0149332 -0.0069936 0.0241054 
156 -0.0262284 -0.00230998 0.0709615 
157 0.0337468 -0.00483878 0.0130707 
158 -0.0340614 0.00306596 0.017179 
159 0.0219277 0.00113942 0.0337182 
160 -0.0394925 -0.000483599 0.02698 
161 0.0321222 0.00216899 0.0545639 
162 0.0254538 0.00261634 0.0348044 
163 -0.0244508 0.00572268 0.05849 
164 0.0365423 1.55036e-05 0.0356273 
165 0.0182919 -0.00679197 0.0351145 
166 -0.0383449 0.000765053 0.0575137 
167 0.0279202 -0.00208983 0.00200511 
168 -0.00932475 -0.00563622 0.0276155 
169 0.0301243 0.000260615 0.0435258 
170 -0.0384902 0.00158885 0.0364091 
171 0.00814751 -0.00134205 0.0356827 
172 -0.00397863 0.00269821 0.00189197 
173 0.0366228 -0.00594437 0.00792581 
174 -0.034114 -0.00162183 0.0735753 
175 0.017781 -0.00146769 0.0072287 
176 0.0343171 -0.00145816 0.00629937 
177 -0.031747 0.00157153 0.0298354 
178 -0.0374352 -0.00174516 0.0128063 
179 0.0276233 0.00458964 0.00230045 
180 -0.0367116 -0.00461187 0.0329495 
181 -0.0394983 0.00502396 0.0296606 
182 -0.0378339 -0.00382363 0.0284925 
183 -0.0150867 0.000157225 0.0243897 
184 0.0281381 -0.00430878 0.000562642 
185 -0.0367334 -0.0052908 0.0272844 
186 -0.0256547 0.00332005 0.00756139 
187 -0.0193487 0.00426729 0.0265079 
188 0.00894572 0.00350176 0.0275446 
189 0.0199411 0.00625591 0.0519917 
190 -0.0115181 -0.000418263 0.0388166 
191 -0.0370938 -0.000362744 0.0134032 
192 -0.0255304 -0.00311073 0.0571924 
193 -0.0180728 -0.00699938 0.0190569 
194 0.0340026 0.00150486 0.0413241 
195 -0.0279085 0.000565686 0.055029 
196 0.0104819 -0.0033163 0.0446906 
197 -0.0155213 -0.00324813 0.0270344 
198 -0.023693 -0.00018608 0.0321498 
199 0.0353018 0.00461843 0.053527 
200 -0.020984 0.00421045 0.0217913 
201 0.0120586 -0.00549505 0.0290603 
202 0.0307417 0.00598572 0.045663 
203 -0.00366497 -0.000115919 0.0242909 
204 -0.0168879 0.00193897 0.00531832 
205 -0.0237535 -0.00157472 0.00951485 
206 -0.0274426 0.00172258 0.00620761 
207 -0.00101247 0.00312736 0.0127071 
208 -0.00625525 -0.00266183 0.000518488 
209 -0.0148994 0.00336988 0.043007 
210 -0.030166 -0.00613709 0.0610242 
211 -0.0127753 -0.00109435 0.0343417 
212 -0.0309774 0.0031342 0.0372909 
213 0.0200011 -0.00118085 0.00230764 
214 -0.00403086 -0.00358334 0.00145634 
215 0.0377557 0.00609354 0.0108913 
216 -0.0375564 -0.00618793 0.0408147 
217 0.0373943 0.00169547 0.0207504 
218 -0.0143878 0.000662203 0.0633884 
219 0.0363987 -0.00233607 0.00226117 
220 0.0315748 -0.000119093 0.0164934 
221 0.0322734 -8.93554e-05 0.00575623 
222 -0.0295474 -0.0021948 0.0364764 
223 0.0149456 0.00225063 0.00377224 
224 -0.0177397 0.0016783 0.000592383 
225 0.037604 -0.00695334 0.0327859 
226 0.0225788 0.00695522 0.00486296 
227 0.0315322 -0.00144202 0.0395996 
228 -0.0327988 -0.00114015 0.0149486 
229 0.0231813 0.00604771 0.0407841 
230 -0.00944441 -0.00181323 0.0321641 
231 -0.0233821 -0.00439031 0.0646404 
232 -0.0127232 0.00168199 0.000636238 
233 0.00709288 -0.00699442 0.00685927 
234 0.035008 0.00358523 0.0536879 
235 -0.00928401 -0.00403261 0.0245214 
236 0.0111661 0.000658703 0.0179267 
237 0.0231327 0.00464242 0.0541784 
238 0.0295847 0.000324078 0.0307632 
239 0.0318266 0.00570065 0.0297117 
240 -0.0250952 -0.00521968 0.00675963 
241 -0.0262619 0.000772718 0.0277808 
242 -0.0130237 0.00597133 0.0297859 
243 0.00190923 -0.00177261 0.0174766 
244 0.00983068 -0.00530805 0.0142379 
245 -0.0295483 -0.00194661 0.0133934 
246 0.0196073 0.00143803 0.0448717 
247 -0.0308555 -0.00699991 0.0381544 
248 -0.00977199 0.00207346 0.0489409 
249 0.0208623 -0.00163566 0.0104265 
250 -0.0156904 -0.00292725 0.00599126 
251 0.0390612 0.0061014 0.000500794 
252 0.0313329 0.000638821 0.0346012 
253 -0.00965979 -0.00452368 0.0411236 
254 -0.0203777 -0.00601043 0.0429049 
255 0.0139838 -0.000765511 0.00799414 
256 0.0304419 0.0026137 0.0569494 
257 -0.0215434 0.00572884 0.0116585 
258 0.0248764 -0.00487934 0.0162819 
259 0.0288843 0.000934881 0.0234881 
260 0.0176696 -0.00699671 0.0133431 
261 -0.0045477 -0.00618797 0.00924377 
262 -0.0137602 0.00476524 0.0560561 
263 -0.0347893 0.00567071 0.0145948 
264 0.0226579 -0.00339503 0.0151248 
265 -0.0315781 0.00190013 0.034831 
266 0.0190209 0.00317925 0.0166393 
267 -0.0213865 -0.00530192 0.0347728 
268 -0.0225834 0.00519033 0.0151442 
269 0.0125696 -0.00617421 0.0153027 
270 0.00370391 -0.00674404 0.0180746 
271 0.00843445 0.00699273 0.000555024 
272 0.0354377 -0.00231869 0.010676 
273 0.0342823 0.00326459 0.0199765 
274 -0.00672262 -0.00176028 0.0357946 
275 -0.0253232 0.00335833 0.0219723 
276 0.02685 0.000419419 0.0511446 
277 -0.0265709 0.00529625 0.0291406 
278 0.0164303 -0.000450541 0.0140457 
279 0.025674 0.00479689 0.0453845 
280 -0.0386482 0.00325241 0.0136823 
281 0.00190072 0.00160084 0.00140126 
282 -0.0285499 -0.00548923 0.0136473 
283 0.0220917 -0.0010161 0.00354392 
284 0.0105294 -0.00676468 0.0415965 
285 -0.0181015 0.00101012 0.0188857 
286 -0.0118533 -0.00522211 0.0312581 
287 0.0256858 0.00133291 0.0153574 
288 -0.032101 -0.00523199 0.0558204 
289 0.0184959 -0.00235962 0.0118806 
290 -0.03949 0.00381698 0.0134293 
291 -0.0202602 0.000233809 0.0269252 
292 -0.0308773 -0.00532175 0.00387134 
293 -0.0168219 0.00412548 0.00700127 
294 0.0329214 -0.00197035 0.0470179 
295 0.0230828 0.000969038 0.00497527 
296 0.0304598 0.00342896 0.0165 
297 0.0283009 0.0042543 0.0393296 
298 -0.0111772 0.00051715 0.0189768 
299 0.0267265 -0.00405947 0.00675429 
300 0.0141136 -0.00531455 0.00148929 
301 -0.0271796 0.000796974 0.00421377 
302 0.0160938 0.00449662 0.0450848 
303 -0.0312718 0.00545903 0.0487317 
304 0.0286656 -0.0036369 0.0187635 
305 -0.0169513 0.00200856 0.0164648 
306 -0.0101785 0.00184624 0.0241444 
307 0.0300052 0.00545595 0.0309813 
308 -0.0217572 -0.0069967 0.000537352 
309 0.0258039 0.00696043 0.0414698 
310 0.0374488 0.00353869 0.0558861 
311 0.0140876 0.00607662 0.0412762 
312 -0.0214638 -0.00529404 0.0452836 
313 -0.00323222 -0.00539601 0.021538 
314 0.0345338 0.0065551 0.0118452 
315 -0.034167 0.00610138 0.00641404 
316 -0.0291725 -0.00408369 0.0157973 
317 -0.00398448 -0.00109108 0.018741 
318 -0.0307478 0.00319827 0.0642712 
319 0.0174055 0.00346546 0.0382929 
320 0.0163924 -0.00329734 0.0353919 
321 0.0327527 0.00687717 0.00364178 
322 0.0252448 0.00439095 0.0463911 
323 -0.0110924 -0.00230984 0.0399532 
324 0.0148648 0.00358228 0.0320952 
325 -0.03241 -0.00147404 0.00443164 
326 -0.0323878 0.00279656 0.0159389 
327 0.0359188 -0.00687201 0.0164941 
328 -0.0314134 -0.00698393 0.0624172 
329 0.0226326 0.0028378 0.052298 
330 -0.024484 -0.00169526 0.0699181 
331 0.0123242 0.00090919 0.00973771 
332 -0.0254212 0.00125669 0.0205266 
333 0.0218866 0.00436087 0.00448492 
334 -0.0216714 0.000249054 0.011513 
335 -0.0172188 0.00357825 0.0233179 
336 0.0165203 0.000773169 0.0451475 
337 0.0334088 0.00174993 0.0588425 
338 0.0240447 -2.53422e-05 0.0405128 
339 0.0237037 -0.00218826 0.0140936 
340 0.000390849 0.00618808 0.00246055 
341 -0.0394969 0.00414413 0.0123717 
342 0.000369841 0.00436594 0.0178957 
343 -0.0332209 -0.000662461 0.0350387 
344 -0.00748935 0.00124951 0.00977173 
345 -0.00966668 -0.00404148 0.0269151 
346 0.0261983 -0.00699895 0.0205803 
347 0.0167614 0.00109308 0.0314719 
348 0.031059 -0.00445239 0.0484827 
349 -0.0344397 -0.00524344 0.0155939 
350 -0.0365025 -0.00699773 0.00660097 
351 -0.0289749 -0.00694766 0.0674571 
352 -0.0290457 -0.00459789 0.00359599 
353 0.0294451 -0.000445858 0.0233621 
354 -0.0207465 0.00322074 0.0624624 
355 -0.0174485 -0.00286166 0.0190204 
356 -0.0222563 -0.00439234 0.000507428 
357 0.0221981 0.0022026 0.0185808 
358 0.0167438 0.0025818 0.0234261 
359 0.0263888 0.00232453 0.0432173 
360 -0.0239213 -0.00545455 0.0415663 
361 0.0233037 -1.68169e-05 0.0255406 
362 -0.0177462 0.00429632 0.0537846 
363 -0.00110725 0.00696149 0.0142443 
364 0.0249895 -0.000130985 0.0532464 
365 -0.0310222 0.00402619 0.0636581 
366 -0.0342849 -0.00151096 0.026084 
367 0.020584 0.0043627 0.018737 
368 -0.0386729 0.00136852 0.0406926 
369 0.0274404 0.00220139 0.0165208 
370 0.017563 -0.00347838 0.000573669 
371 -0.0301411 -0.00528765 0.0194668 
372 -0.0385316 -0.00313532 0.0368006 
373 -0.0154129 0.00268404 0.0565979 
374 -0.038337 0.000695838 0.0322686 
375 0.0382625 -0.00251852 0.03319 
376 -0.0226037 0.00395204 0.0551433 
377 -0.02658 0.00172452 0.00322873 
378 -0.035922 0.00613772 0.0678807 
379 0.0243738 0.00432177 0.0180506 
380 0.0311617 0.00539397 0.00394901 
381 -0.0298255 0.00618016 0.00592593 
382 -0.0186524 -0.00106015 0.0402215 
383 -0.0394858 -0.00698321 0.0193004 
384 -0.0243235 -0.00699981 0.0356002 
385 -0.0249135 -0.00375941 0.0390699 
386 -0.0234431 -0.00682684 0.0678483 
387 -0.0197582 -0.00298573 0.0638874 
388 -0.00400839 0.00673723 0.0173832 
389 0.027278 -0.00609915 0.00798669 
390 0.0140124 0.00699522 0.0376937 
391 0.0337269 0.00312645 0.00335512 
392 -0.0290269 0.00697998 0.0297769 
393 0.0245437 -0.00621761 0.0168717 
394 -0.0287159 0.00474227 0.0188073 
395 -0.00764054 0.000424862 0.042232 
396 -0.0395 -0.00386959 0.000525815 
397 -0.0248045 -0.00484866 0.0307258 
398 -0.0330687 -0.00099842 0.0681901 
399 -0.0347515 -0.000141211 0.0477615 
400 -0.0364923 0.00158375 0.0640895 
401 0.0290059 -0.00170474 0.0573586 
402 -0.00673693 -0.00526687 0.000607303 
403 -0.00623093 -0.000804405 0.018786 
404 -0.0192338 -0.00259474 0.0575288 
405 -0.034688 0.000550004 0.0622382 
406 -0.00808456 0.000395174 0.0253825 
407 0.037682 0.000764313 0.0477405 
408 0.0220726 0.00426982 0.0469369 
409 -0.0214444 0.00182372 0.0405292 
410 0.032493 0.00259438 0.0412458 
411 -0.00476461 -0.00241226 0.0177287 
412 -0.0238426 0.00699922 0.0274579 
413 0.0392918 -0.000789058 0.00960938 
414 0.0240667 -0.00699627 0.00819603 
415 0.031267 -0.00516443 0.0508944 
416 -0.0289227 -6.79323e-06 0.0332298 
417 0.00725738 -0.00177394 0.0146516 
418 -0.0265733 -0.00338242 0.00957901 
419 0.0385341 -0.00261184 0.0244445 
420 -0.018237 0.000267854 0.027462 
421 -0.0261163 -0.00506446 0.0674667 
422 -0.0229197 -0.0022999 0.0659624 
423 -0.0127593 0.00529639 0.0254098 
424 -0.0077332 0.00203646 0.029532 
425 -0.00523607 0.0069886 0.0161336 
426 -0.0268324 0.00699016 0.0193568 
427 0.0190225 -0.00602927 0.0153989 
428 0.0198959 0.00230604 0.0328536 
429 0.0352843 -0.00472702 0.0386179 
430 -0.0185711 0.00213415 0.0495086 
431 0.0228185 -0.000862316 0.0250196 
432 -0.00452407 -0.00332693 0.00474837 
433 0.0345828 -0.00088628 0.021422 
434 -0.030015 -0.00671491 0.0407427 
435 -0.0105785 0.000258823 0.0173525 
436 0.0323352 0.00268241 0.0523183 
437 -0.0362114 -0.00608552 0.0660217 
438 -0.0378116 0.00197406 0.0218572 
439 -0.0365051 -0.00699955 0.0206924 
440 0.0309988 -0.00231838 0.0356473 
441 -0.00316602 0.00252302 0.00245354 
442 -0.006793 -0.00480706 0.00936403 
443 -0.0338868 -0.00242667 0.0599739 
444 -0.0262676 -0.00612524 0.000637453 
445 -0.000948622 0.00570156 0.0139862 
446 -0.00612998 0.00268376 0.0303471 
447 -0.0322439 0.00133047 0.0640091 
448 -0.0150151 -0.00539854 0.029264 
449 0.0279454 -0.00443599 0.0531972 
450 0.0222604 -0.000292275 0.0536283 
451 0.0168448 -0.000132179 0.0541011 
452 0.0368694 0.00103843 0.00057792 
453 0.036475 0.00117942 0.0296604 
454 -0.0101812 0.00605588 0.0271626 
455 -0.0394975 -0.00327358 0.044232 
456 0.00860474 0.00252321 0.0157247 
457 -0.0166906 -0.00465979 0.0230067 
458 -0.0247764 -0.00319525 0.06233 
459 0.0374661 0.0051209 0.0249748 
460 -0.0328761 -0.00369767 0.0450418 
461 -0.0386489 -2.95113e-05 0.0100017 
462 -0.0179085 -0.00108277 0.0500912 
463 -0.01102 0.00445502 0.00979194 
464 0.0249777 -0.000315731 0.0502095 
465 -0.0217371 -0.00699159 0.0313152 
466 0.0029193 0.000998899 0.0155613 
467 0.00707905 -0.00363179 0.00691821 
468 0.0119531 -5.69331e-05 0.0183143 
469 0.0109157 -0.00696352 0.0154344 
470 -0.00700333 0.00532162 0.0371249 
471 0.0387691 0.00654949 0.01837 
472 -0.010229 0.000819368 0.000548285 
473 0.0303735 -0.00179349 0.0468677 
474 0.0278428 -0.00699969 0.0218128 
475 0.0315273 -0.00242575 0.0577435 
476 0.000882099 0.00427145 0.0170114 
477 0.0394091 0.00699327 0.0285909 
478 -0.014485 0.00269286 0.0208294 
479 -0.0119756 0.000928791 0.0205209 
480 0.0317723 0.00699369 0.0454574 
481 0.0126995 0.00521283 0.027462 
482 -0.0137254 0.000432955 0.0537451 
483 -0.0311515 -0.00292557 0.0397949 
484 -0.0292608 -0.00699929 0.00721427 
485 -0.0133516 -0.00699605 0.0239246 
486 0.0282169 -0.0012983 0.0475685 
487 -0.0291804 0.00440507 0.038913 
488 -0.012287 0.00355907 0.014288 
489 -0.0183695 -0.00144847 0.0136837 
490 -0.0181361 0.00120003 0.0298697 
491 -0.0287721 -0.00354912 0.0380383 
492 -0.0356331 0.00390249 0.0276874 
493 0.0326088 -0.00599595 0.0193367 
494 0.00399571 -0.00681313 0.0147086 
495 -0.0288693 0.00229518 0.00817996 
496 -0.0196967 0.00202254 0.0421902 
497 -0.0252887 0.000747957 0.0189655 
498 0.023737 0.000104572 0.0432195 
499 0.0188895 -0.00113257 0.00332794 
500 -0.0273755 0.00181102 0.0679313 
501 -0.00847628 0.00698219 0.0106566 
502 -0.0262276 -0.00498237 0.00902418 
503 -0.0226922 -0.000460935 0.0226095 
504 0.0346456 -0.00695336 0.0509122 
505 -0.0174287 0.00192643 0.029925 
506 0.0114338 0.00613128 0.0168797 
507 0.0304282 0.00512396 0.0351584 
508 -0.030418 -0.00131329 0.0625889 
509 0.00697035 0.00430816 0.00974654 
510 -0.0290065 -0.00416048 0.00161446 
511 0.0228569 -0.00524308 0.0216482 
512 0.0260295 0.000289134 0.0430634 
513 -0.017292 -0.00695627 0.0462844 
514 0.0370842 0.00365503 0.0108082 
515 -0.0252125 -0.0069288 0.0616997 
516 0.0362588 -0.00305128 0.0273774 
517 -0.00561276 -0.000523414 0.00137134 
518 -0.0141177 -0.00227264 0.0591203 
519 0.0176302 -0.00116785 0.0282429 
520 0.0357827 -0.00420862 0.05955 
521 0.00301554 -0.000765089 0.0145753 
522 -0.0130603 -0.0012913 0.00712261 
523 -0.0248012 -0.00351181 0.0688294 
524 -0.0191901 -0.00206333 0.0560606 
525 0.0212095 0.000491675 0.0153821 
526 0.0203203 0.00507282 0.00379722 
527 -0.0309595 -0.0028913 0.0705061 
528 0.00383967 0.00297332 0.0112946 
529 0.0210717 -0.000872546 0.000595922 
530 -0.0292133 0.00375229 0.00146814 
531 0.00030483 0.00210542 0.00148532 
532 0.0195618 -0.00173928 0.000599349 
533 -0.0131765 -0.000680841 0.0393347 
534 -0.0265406 0.00442823 0.0676459 
535 0.0152876 -0.00699426 0.0480422 
536 -0.0314696 0.00699908 0.0166996 
537 0.0333242 0.00699922 0.0143634 
538 0.0295482 -0.0052216 0.0446072 
539 0.0280755 -0.00435537 0.0111001 
540 -0.0310103 -0.000599087 0.00735452 
541 -0.0394993 -0.000563781 0.00953653 
542 0.0265867 0.00441291 0.0102022 
543 0.00740129 -0.00115634 0.00899976 
544 -0.0250076 -0.000743106 0.065382 
545 -0.00311901 -0.000452813 0.0134864 
546 -0.0192152 0.00320326 0.0281061 
547 -0.0394646 -0.00148786 0.0314506 
548 -0.0278937 -0.00141404 0.0140534 
549 -0.0238233 6.87158e-05 0.0414698 
550 -0.0159002 0.00517989 0.022552 
551 -0.0142208 0.00674782 0.0238739 
552 0.0236479 -0.00265303 0.0446678 
553 -0.00295974 -0.00698467 0.00976626 
554 0.035348 -9.15391e-05 0.0494741 
555 0.0224443 -0.00330981 0.0111111 
556 -0.0156351 -0.00534657 0.0187987 
557 0.0166221 0.006943 0.0283605 
558 -0.0339929 -0.00277899 0.063604 
559 0.0164001 0.00523145 0.0342884 
560 0.0117122 -0.000868836 0.00505679 
561 0.00557822 -0.00145613 0.0122306 
562 -0.0394312 -0.00334324 0.0603174 
563 -0.0171651 0.00431213 0.000544653 
564 0.0151104 0.00531064 0.0362948 
565 0.0224546 -0.00316052 0.0547503 
566 0.00854258 0.00458205 0.0471401 
567 0.037753 0.00522842 0.00534155 
568 0.0144704 0.00699765 0.000533255 
569 -0.039495 0.00699784 0.0284826 
570 -0.00739694 0.00115164 0.0348786 
571 0.0164515 -0.00453421 0.0268938 
572 0.0365249 0.00139519 0.0161701 
573 -0.0273426 -0.00699938 0.0371507 
574 0.00704753 -0.00342561 0.00587831 
575 0.0132217 -0.00699067 0.0184335 
576 -0.0349944 -0.00482213 0.0203887 
577 -0.0326089 0.00260097 0.0653755 
578 -0.0394449 0.00134811 0.0238861 
579 -0.00876708 -0.00167733 0.0135858 
580 -0.0202624 0.00044773 0.0234922 
581 -0.0292806 0.00348203 0.0397829 
582 -0.0141195 -0.00526309 0.0324809 
583 0.029318 -0.00456126 0.0562721 
584 0.0295894 -0.000131778 0.00724124 
585 0.0361976 -0.00513296 0.017766 
586 0.0181675 -0.000118942 0.0153055 
587 -0.0266695 -0.00534474 0.0234205 
588 0.00272157 0.00329735 0.00383434 
589 0.0394802 -0.00308675 0.0525648 
590 0.0260667 -0.00332554 0.0245406 
591 0.0197272 -0.00671345 0.0160246 
592 0.0394977 -0.0019817 0.0441908 
593 -0.0127119 -0.00179297 0.0175185 
594 0.039496 -0.0069995 0.0404663 
595 -0.0373179 -0.000869761 0.0435798 
596 0.0327552 -0.00615889 0.0431501 
597 -0.0277043 0.00129609 0.00994117 
598 0.0239017 -0.0047132 0.0209509 
599 0.0363206 0.000578577 0.0139625 
600 -0.0068054 -0.000515458 0.0327531 
601 0.0308271 0.000157801 0.0143155 
602 0.0307486 -0.00416703 0.0199858 
603 0.0262704 -0.00532806 0.00411795 
604 0.0384557 -0.00082715 0.0369632 
605 -0.0190257 -0.00219283 0.0124995 
606 0.0361257 0.00699957 0.0168288 
607 0.0340802 0.00435781 0.000624829 
608 0.00882738 -0.00175479 0.0341517 
609 -0.0372017 0.00122254 0.0160145 
610 -0.0143271 0.00177749 0.03025 
611 -0.0359859 0.000149575 0.00819802 
612 -0.0320742 -0.00657749 0.0365983 
613 0.0133721 0.00108292 0.0346346 
614 -0.0129493 0.00699287 0.0345116 
615 0.00660653 0.00227669 0.0361195 
616 -0.037873 0.00356699 0.0142578 
617 0.0174729 -0.00438662 0.0486637 
618 -0.0178982 -0.00429233 0.0390917 
619 -0.0223218 -0.00409178 0.0697882 
620 -0.0154312 0.00391457 0.0514464 
621 0.0148915 -0.00322863 0.0350962 
622 -0.0298685 -0.00331244 0.0684393 
623 -0.0120939 0.00216839 0.011235 
624 -0.0271154 0.00199704 0.0413678 
625 -0.00956901 0.00295302 0.014484 
626 -0.0230041 -0.00297642 0.0330469 
627 0.0257045 0.00222682 0.0544964 
628 0.0360204 -0.00367555 0.00945007 
629 -0.00258579 0.00263009 0.0115063 
630 -0.00513823 0.0070006 0.0205726 
631 0.0300925 -0.00174713 0.020898 
632 0.0376226 0.00460979 0.0221555 
633 0.038411 -0.00148372 0.048069 
634 -0.00113419 -0.00346439 0.0093925 
635 0.0157018 0.00331775 0.0287156 
636 -0.0366441 -0.00669173 0.0667509 
637 0.021119 -0.00664763 0.0129395 
638 0.0059356 0.00119962 0.0304825 
639 0.0335966 0.00350459 0.0559197 
640 0.0386479 -0.00516978 0.018839 
641 -0.0270003 -0.00436734 0.0183774 
642 0.0356426 0.00258173 0.0138271 
643 -0.00886464 -0.00132145 0.0224592 
644 0.0103113 0.0047906 0.0116871 
645 -0.0120329 -0.00501939 0.0115281 
646 -0.0202353 -0.00249184 0.054655 
647 -0.0141185 -0.005275 0.00880434 
648 0.0110097 -0.00697652 0.0126437 
649 -0.00390988 -0.000796699 0.0014463 
650 -0.0153638 -0.00105811 0.0249778 
651 0.0383108 -0.00243424 0.05122 
652 -0.0165409 -0.00607931 0.0283786 
653 0.0267274 0.00183103 0.053653 
654 -0.0371597 -0.0042702 0.0514818 
655 0.0331751 0.00508436 0.0302899 
656 -0.00649658 0.00283799 0.0110073 
657 -0.0348391 -0.00128574 0.00637114 
658 0.0296183 -0.00382179 0.0160994 
659 0.0243332 0.00194848 0.047577 
660 -0.0296901 0.00137212 0.0704071 
661 -0.0269358 0.00136333 0.0388173 
662 -0.0366333 0.00113853 0.0719574 
663 -0.0197545 0.00592928 0.034794 
664 0.0306548 -0.000429447 0.0162421 
665 -0.0250809 -0.0039141 0.00210495 
666 0.00980003 0.000880094 0.023636 
667 -0.0161401 0.00245948 0.0132667 
668 -0.034394 0.00425067 0.0186846 
669 -0.0391386 0.00429083 0.00132194 
670 0.00829237 -0.00439337 0.0323268 
671 0.0223778 -0.0033849 0.0432732 
672 -0.0198247 -0.00138709 0.0478525 
673 0.000870396 -0.00466027 0.0234172 
674 -0.0384778 -0.0017643 0.00169044 
675 -0.0139407 -0.00364368 0.0493907 
676 -0.0357666 4.50786e-05 0.0356648 
677 -0.0180654 0.00487615 0.0122611 
678 0.0329353 0.00683569 0.0505611 
679 -0.0278186 -5.15041e-05 0.0687387 
680 -0.0177865 -0.00448253 0.0297201 
681 0.0177474 -0.00699462 0.0380699 
682 0.0140683 0.00419144 0.0320073 
683 0.0384938 -0.00203405 0.0469146 
684 0.016051 0.0040081 0.042356 
685 -0.0394337 -0.00337458 0.00687917 
686 -0.0120232 -0.000484151 0.041973 
687 0.0394929 -0.00414818 0.0506258 
688 -0.0328749 0.00693808 0.0239735 
689 -0.0261343 -0.00608318 0.0674404 
690 -0.025865 -0.00599578 0.0623411 
691 -0.0304857 -0.00206599 0.012954 
692 0.0105722 -0.00521697 0.000628764 
693 -0.0105567 2.54895e-05 0.00740553 
694 0.0339037 -0.00564238 0.022526 
695 -0.0344034 -0.00440544 0.00677731 
696 0.0186561 0.00472571 0.0540279 
697 -0.0182705 0.00409572 0.0195545 
698 -0.00771558 -0.00698705 0.0102662 
699 -0.0020923 -0.000448101 0.00364473 
700 -0.00618942 0.00220907 0.00325197 
701 0.0210098 0.00451709 0.0566215 
702 -0.00826586 0.00257793 0.0309468 
703 -0.0304478 0.00412217 0.0364228 
704 -0.0367774 -0.00140383 0.035856 
705 0.0335486 -0.0013709 0.0589464 
706 -0.029052 -0.00595831 0.0325174 
707 -0.0108745 -0.000231579 0.0482586 
708 0.0283543 -0.000146438 0.043624 
709 0.0155996 -0.00459918 0.00618855 
710 -0.039264 0.00345391 0.0475737 
711 0.0252146 -0.00699394 0.00301359 
712 0.0335944 0.00101392 0.0615018 
713 -0.0359969 0.00392218 0.0338811 
714 -0.0207037 -0.00244374 0.0327016 
715 -0.0209985 -0.000915839 0.034167 
716 -0.034639 -0.0058361 0.0117924 
717 -0.0227061 0.00418265 0.0050685 
718 -0.020635 0.00611806 0.034357 
719 0.0170495 -0.00313474 0.0377348 
720 0.0177812 0.0069963 0.0452357 
721 -0.0161216 0.00324634 0.00876433 
722 -0.00660355 0.00697286 0.0264025 
723 0.0231404 -0.00587264 0.0257621 
724 0.0101182 -0.00411486 0.012194 
725 -0.0155798 -0.00224045 0.0144728 
726 -0.0314991 0.000647384 0.0267694 
727 -0.03238 -0.00440077 0.0163193 
728 0.0312158 0.00323563 0.0517203 
729 -0.0371713 0.00592789 0.0340909 
730 -0.0359043 0.00276598 0.0323954 
731 -0.0172513 -0.00439209 0.0427016 
732 -0.0358122 0.00192928 0.0379077 
733 -0.00342141 -0.00650068 0.0398541 
734 0.0163363 0.00615389 0.0223824 
735 -0.00970338 0.00315003 0.0329897 
736 0.0137996 2.92373e-05 0.0230735 
737 -0.0039198 -0.00525041 0.00812685 
738 0.0261404 0.00204633 0.0528664 
739 0.0258716 0.00612454 0.014585 
740 0.024604 0.00597109 0.0299558 
741 0.00837927 0.00331402 0.00960863 
742 -0.0356062 -0.00558266 0.0455872 
743 0.0111124 -0.00204764 0.0224096 
744 -0.033776 -0.00681045 0.03825 
745 0.0172875 0.00699584 0.0236557 
746 0.00647802 0.00592741 0.034732 
747 0.0221408 -0.00348037 0.0264333 
748 -0.0350174 -0.00388543 0.0103381 
749 0.0309994 -0.00613282 0.000605718 
750 -0.0345019 0.00150755 0.0347125 
751 0.01013 -0.00649931 0.0161462 
752 -0.0163025 -0.00330072 0.0316361 
753 0.0326446 -0.00285544 0.0319781 
754 -0.00275551 0.00351519 0.0129595 
755 0.0298003 0.00531884 0.0167501 
756 -0.0152003 0.00362813 0.00796168 
757 -0.005487 -0.0028904 0.00619162 
758 -0.0132665 -0.00202705 0.013099 
759 -0.0221429 0.0060534 0.00170125 
760 -0.0133605 -0.00378553 0.00654071 
761 0.0264472 -0.000300438 0.0213248 
762 0.0375563 0.00318425 0.0522566 
763 -0.0231685 -0.0060973 0.0594983 
764 -0.00705956 -0.00695564 0.0156132 
765 -0.0361217 0.00391536 0.0183291 
766 0.0235927 0.00452987 0.021354 
767 -0.0197423 0.00283635 0.060452 
768 0.0319028 -0.00497887 0.0403271 
769 0.0178171 -0.00297982 0.0453847 
770 -0.0393772 0.00216233 0.00862852 
771 0.0322255 0.00342827 0.0377366 
772 0.0201103 0.00699942 0.0470742 
773 0.0226509 0.00441852 0.0496657 
774 0.0221832 -0.00170951 0.0578882 
775 -0.0292482 -0.00522708 0.0461285 
776 0.00408849 0.000545624 0.00233655 
777 0.0324936 -0.000327278 0.0100912 
778 0.0376218 -0.00602096 0.0308775 
779 0.0316451 0.00169835 0.0138261 
780 -0.018999 -0.00258474 0.0216389 
781 -0.025785 -0.00603405 0.0302952 
782 -0.0133291 -0.00398479 0.0126581 
783 0.00268392 -0.00600733 0.00490581 
784 -0.0193933 0.00425132 0.0117401 
785 -0.0334003 0.000971295 0.000581389 
786 -0.03762 -0.00347152 0.0161228 
787 -0.0213886 0.00394981 0.0401792 
788 -0.0213394 -0.00699128 0.0326558 
789 -0.0317593 0.00581911 0.0145912 
790 -0.00992141 0.00164961 0.0129709 
791 -0.0203487 -0.00328265 0.0107605 
792 -0.018125 0.00321606 0.0468168 
793 -0.0134671 0.000883114 0.0311522 
794 -0.0368179 -0.00289102 0.0174645 
795 0.0320704 -0.00252762 0.0108403 
796 -0.0269207 -0.000970937 0.0400711 
797 0.00595673 -0.00697656 0.0051129 
798 0.0143557 -0.00611491 0.0464979 
799 -0.0325974 -0.00257787 0.0168417 
800 0.039496 0.000979487 0.00827593 
801 -0.0126707 0.00521784 0.0107732 
802 -0.00634307 0.00298132 0.0100083 
803 -0.0331084 -0.00643145 0.05906 
804 0.0365763 -0.00495322 0.0394121 