ITEM: TIMESTEP
4028000
ITEM: NUMBER OF ATOMS
60000
ITEM: BOX BOUNDS ff ff ff
-0.04 0.04
-0.0075 0.0075
0 0.25
ITEM: ATOMS id x y z 
1 0.0360387 -0.0037534 0.00268755 
2 0.0129115 0.00316887 0.0413253 
3 0.0198626 0.00699978 0.0368693 
4 0.00813347 0.000472358 0.0288069 
5 0.00735719 -0.0047734 0.0482019 
6 -0.031265 -0.0039976 0.0575152 
7 -0.0249131 -0.000651199 0.0481361 
8 0.0127473 -0.00388232 0.0532965 
9 -0.0354102 0.000539056 0.0386349 
10 -0.0117665 -0.00407684 0.0467416 
11 -0.00337555 -0.00160296 0.0284211 
12 0.0179529 0.00610079 0.0455983 
13 0.00246511 -0.000156451 0.0124786 
14 0.0351542 0.00243152 0.053941 
15 -0.0211184 -0.00694887 0.0193039 
16 -0.0365977 0.00699966 0.0481018 
17 -0.0294017 -0.00444598 0.0381143 
18 0.0186013 0.00572348 0.00578494 
19 -0.0385478 -0.0065961 0.0218077 
20 -0.0167886 -0.00291255 0.0527282 
21 0.00058181 0.00504354 0.0247245 
22 -0.012127 -0.00699633 0.0513473 
23 0.0233758 0.00336457 0.00945812 
24 0.0339443 -0.000642513 0.0533373 
25 0.0103168 0.000945361 0.0555512 
26 -0.0295646 -0.000906706 0.0294991 
27 -0.0322816 0.00612191 0.0487763 
28 0.0185101 -0.00169096 0.0341089 
29 -0.0076454 -0.00122825 0.0250113 
30 -0.00840218 -0.00183327 0.0418392 
31 0.0298471 0.00326609 0.0546869 
32 -0.0240814 0.00264751 0.0127603 
33 -0.0371618 -0.00175988 0.00797097 
34 -0.0169838 0.00600444 0.0391081 
35 0.0154918 -0.000975653 0.0144945 
36 -0.0103183 -0.00180155 0.00346335 
37 -0.0117279 -0.00047803 0.0125468 
38 0.0132923 -0.00243535 0.0561062 
39 -0.000524082 0.00327024 0.0619398 
40 0.00529625 0.00362705 0.0441747 
41 -0.0297266 0.00172917 0.0523519 
42 -0.00706692 0.00261883 0.0247331 
43 0.00217422 0.00465033 0.0397374 
44 0.000995969 -0.00021381 0.0191861 
45 -0.038364 0.00555049 0.0542875 
46 -0.0113537 -0.00284529 0.0307305 
47 0.00502048 -0.00238137 0.00424062 
48 -0.0394977 0.00214901 0.0380873 
49 0.00517185 -0.00423634 0.0386394 
50 0.0204243 -9.92343e-05 0.0056652 
51 -0.0174421 0.00293524 0.053282 
52 -0.023505 0.00599684 0.0335516 
53 0.0189202 0.00202306 0.0246214 
54 0.0360487 0.000411517 0.000506205 
55 -0.0182281 0.00609272 0.0536256 
56 0.020086 -0.00517548 0.0369664 
57 0.0132633 0.000945643 0.0516562 
58 -0.0247816 0.00541132 0.0608448 
59 -0.0232174 -0.00652523 0.0355284 
60 -0.0321864 -0.00567603 0.0520621 
61 -0.0332067 -0.00185751 0.0318299 
62 0.0148549 0.00506085 0.0578171 
63 0.0262764 0.002371 0.0179117 
64 0.0135907 0.00699374 0.0359838 
65 -0.0152186 0.00534607 0.0547997 
66 0.00656954 0.00531063 0.0458946 
67 0.0061649 0.00151562 0.0394478 
68 -0.0222496 -0.00699782 0.0354323 
69 0.0394991 0.00517349 0.0477904 
70 0.0197627 0.00173629 0.0537003 
71 -0.0316634 -0.00227978 0.0517774 
72 0.031077 0.00351493 0.0515632 
73 0.0182496 0.00699994 0.043276 
74 -0.02398 -0.00486212 0.021862 
75 0.0115934 0.00640993 0.0126614 
76 0.00308374 0.00462097 0.0544849 
77 0.0129771 0.00630824 0.0442316 
78 0.0301122 -0.00396223 0.0229777 
79 -0.018974 0.00136699 0.0442383 
80 -0.0176232 0.00699988 0.0306329 
81 -0.0027821 -0.00468608 0.00591564 
82 -0.0271918 0.00118167 0.0205024 
83 0.0253949 -0.00463899 0.0539174 
84 -0.0245078 -0.00214754 0.0330509 
85 0.039307 -0.00214837 0.0490013 
86 0.0201201 -0.00680358 0.0294219 
87 0.0316077 0.00539685 0.00710993 
88 0.000226741 0.00158008 0.00539485 
89 -0.0221619 -0.00294376 0.00957734 
90 -0.0136689 0.0037521 0.0563665 
91 -0.0244083 -0.00286966 0.00364305 
92 0.0268708 0.00146833 0.0456262 
93 -0.0102794 0.00699914 0.0513774 
94 0.0349063 -0.00224558 0.0337105 
95 -0.0321865 0.00348527 0.000534486 
96 -0.00798672 0.00435628 0.0339395 
97 0.00347397 0.00203458 0.0266778 
98 0.00522776 0.000128796 0.0164859 
99 0.0314031 0.00609258 0.0495574 
100 0.00714751 0.00112403 0.0332353 
101 -0.027346 0.00150034 0.0464619 
102 0.00554922 -0.0011949 0.0339729 
103 -0.00694767 0.00540455 0.0483095 
104 0.00360603 -0.00337491 0.00417005 
105 -0.00558581 0.000829889 0.00050011 
106 -0.00832729 -0.0044084 0.0273503 
107 -0.000506499 0.000328908 0.016598 
108 0.0237039 -0.00217133 0.05123 
109 -0.0241497 -0.000474304 0.0322925 
110 0.00659838 -0.00535526 0.037543 
111 0.00213477 -0.00183016 0.034451 
112 -0.0231449 -0.00699992 0.0439593 
113 -0.00133684 -0.000483697 0.0532121 
114 0.0329558 -0.00145253 0.0553327 
115 -0.00996237 0.0028819 0.00317681 
116 0.0111067 -0.000876796 0.0537533 
117 0.0360473 0.00601068 0.0519812 
118 -0.0297208 0.00405488 0.0630862 
119 0.00640778 -0.00438445 0.0414235 
120 0.0291724 0.00411758 0.0597538 
121 0.009066 0.00611986 0.0286859 
122 -0.000150396 0.00357545 0.0507729 
123 -0.00322367 -0.00184506 0.0400465 
124 0.00160486 -0.00210838 0.0382732 
125 0.0268496 0.00647841 0.049769 
126 0.028947 -0.00691826 0.0344494 
127 0.0385182 -0.00513124 0.00407102 
128 -0.00937055 0.00578988 0.0409528 
129 -0.013706 -0.00530853 0.0558222 
130 -0.0033972 0.00164289 0.0243847 
131 -0.0358535 -0.000766364 0.0246457 
132 0.0259998 0.00676686 0.00133984 
133 -0.035203 0.000966832 0.0315725 
134 0.0334197 -0.00376047 0.0514274 
135 -0.0194574 0.00558083 0.0429568 
136 0.0335449 0.00400124 0.00168251 
137 0.0369256 -0.00699689 0.0573503 
138 0.0121445 0.00407887 0.00856545 
139 -0.0273793 0.00438393 0.0380121 
140 0.0366877 -0.00658977 0.0505637 
141 0.00331833 -0.00298953 0.0517787 
142 0.00418095 -0.00304302 0.0013562 
143 -0.00930584 -0.00482395 0.0495093 
144 0.0336595 -0.00601947 0.0316655 
145 0.0364566 0.000460582 0.0602679 
146 -0.0210273 0.00523858 0.039657 
147 -0.0313161 -0.00426322 0.0551864 
148 0.00997538 0.000427426 0.0301204 
149 0.00468275 -0.00269007 0.0183147 
150 0.035365 -0.000662756 0.00375251 
151 0.0394954 -0.0034484 0.0546185 
152 -0.0186193 0.00461319 0.0576867 
153 0.026958 -0.00431495 0.00349491 
154 0.0346664 0.00470388 0.0261719 
155 -0.00797789 -0.00693475 0.0321666 
156 -0.0251818 -0.00348608 0.0624887 
157 0.0306236 -0.00440885 0.0242023 
158 -0.0321335 0.0027894 0.0298255 
159 0.0127279 0.00110759 0.0455669 
160 -0.0394902 -0.000452615 0.0325391 
161 0.0295819 0.00250897 0.0569665 
162 0.0188812 0.00250712 0.0469044 
163 -0.0216168 0.00522419 0.053802 
164 0.0353478 5.68205e-05 0.0424165 
165 0.0100206 -0.00606494 0.0442485 
166 -0.0373188 0.00106852 0.0516518 
167 0.0280164 -0.0021144 0.00137747 
168 -0.00172758 -0.00510764 0.0314427 
169 0.0263948 -0.000200957 0.0500428 
170 -0.0382605 0.0017855 0.0420212 
171 0.0014571 -0.0021564 0.0426837 
172 -0.00323174 0.0026918 0.00198119 
173 0.0378998 -0.00547844 0.0123538 
174 -0.0361714 -0.00252173 0.0624234 
175 0.0222941 -0.00153094 0.0185561 
176 0.0362261 -0.000653908 0.00900194 
177 -0.0275314 0.00156919 0.0393355 
178 -0.035931 -0.00256837 0.0204697 
179 0.027468 0.00428762 0.00222063 
180 -0.0354343 -0.0048629 0.039659 
181 -0.0394908 0.00466377 0.035268 
182 -0.0368884 -0.00325712 0.0360436 
183 -0.00638026 7.17828e-05 0.0350708 
184 0.0281403 -0.00433813 0.00050932 
185 -0.0357558 -0.00493808 0.0350345 
186 -0.0251375 0.00378267 0.0133581 
187 -0.0121865 0.00451958 0.0371256 
188 0.00426067 0.00255005 0.0337414 
189 0.00935357 0.00604916 0.0556264 
190 -0.00232326 -0.000878506 0.0472858 
191 -0.0359103 -0.00115196 0.0221031 
192 -0.0231414 -0.00185298 0.053693 
193 -0.0123762 -0.00698564 0.030397 
194 0.0327756 0.00111265 0.0476854 
195 -0.0240009 0.000624611 0.0535601 
196 -0.00105442 -0.00360278 0.057142 
197 -0.00722334 -0.00350968 0.0374316 
198 -0.0188443 -0.000113528 0.042058 
199 0.0345098 0.0046277 0.0554115 
200 -0.0146366 0.00456099 0.0342784 
201 0.00598892 -0.00550638 0.0363488 
202 0.0277751 0.00608178 0.0503095 
203 0.000951718 -0.00102517 0.0264357 
204 -0.0180186 0.00151115 0.00856545 
205 -0.0243012 -0.00189462 0.0190493 
206 -0.0274153 0.00221166 0.00953437 
207 0.00214602 0.00317879 0.0123419 
208 -0.00560879 -0.00265223 0.000499991 
209 -0.00659428 0.00334532 0.0484881 
210 -0.029654 -0.00598026 0.0540873 
211 -0.00411718 -0.00106487 0.0424808 
212 -0.0282107 0.00304069 0.0451676 
213 0.0221575 -0.000931679 0.00225929 
214 -0.00331936 -0.00369303 0.00143746 
215 0.0371796 0.00595524 0.0148557 
216 -0.0369809 -0.0053551 0.0439385 
217 0.0372261 0.00126866 0.0341831 
218 -0.00523264 0.00230542 0.0560934 
219 0.0376151 -0.00244015 0.0024141 
220 0.0298065 -0.000203444 0.0354917 
221 0.0349108 0.000156627 0.00907265 
222 -0.0263011 -0.00211552 0.0452285 
223 0.0186238 0.00238607 0.00390804 
224 -0.0170905 0.00173966 0.000500074 
225 0.0375174 -0.00699329 0.0374414 
226 0.0226718 0.00695026 0.00674254 
227 0.0297858 -0.0019751 0.0468487 
228 -0.0296236 -0.00128969 0.0282488 
229 0.0145101 0.0061212 0.0479661 
230 -0.00175718 -0.00132011 0.0379415 
231 -0.0200379 -0.00537856 0.0567346 
232 -0.0120882 0.00172696 0.000501397 
233 0.00785963 -0.00699969 0.00758807 
234 0.0343885 0.00364743 0.055251 
235 -0.00246837 -0.00367577 0.0300766 
236 0.00844767 0.0002836 0.0275945 
237 0.0153829 0.00443733 0.0564307 
238 0.025269 0.000528836 0.0456442 
239 0.029878 0.00564542 0.0416129 
240 -0.0237826 -0.00480071 0.0124083 
241 -0.0213014 0.000971026 0.0380902 
242 -0.00517437 0.00614354 0.0376706 
243 0.00342617 -0.00132942 0.0191735 
244 0.00834941 -0.00474978 0.0209099 
245 -0.0257432 -0.00198053 0.0263419 
246 0.00894869 0.00132842 0.0522494 
247 -0.0290857 -0.00697499 0.0444997 
248 -0.0017418 0.00525775 0.0600384 
249 0.0234748 -0.00151834 0.0252085 
250 -0.0172541 -0.00309928 0.0103768 
251 0.0390506 0.00610457 0.000499899 
252 0.027465 0.0007983 0.045179 
253 -0.00138792 -0.00518709 0.0449716 
254 -0.0158984 -0.00615914 0.0482346 
255 0.0184298 0.000136758 0.0196887 
256 0.0283056 0.00294276 0.0582493 
257 -0.0185638 0.00609263 0.026121 
258 0.0210773 -0.00530108 0.0361524 
259 0.0274983 0.000987896 0.0427045 
260 0.0154855 -0.00694908 0.026969 
261 -0.00146236 -0.0060382 0.00909728 
262 -0.00408176 0.00524946 0.0534137 
263 -0.0333269 0.00533676 0.026774 
264 0.0186756 -0.00342839 0.0353592 
265 -0.0286986 0.00156287 0.0430734 
266 0.015271 0.00292038 0.035666 
267 -0.0168736 -0.0048635 0.0433345 
268 -0.0179683 0.0045319 0.029087 
269 0.0100856 -0.00595618 0.0242146 
270 0.00416812 -0.00603346 0.0199826 
271 0.00850223 0.00699502 0.000506102 
272 0.0332405 -0.00271638 0.0173784 
273 0.0327243 0.00278836 0.0364261 
274 -0.000243163 -0.00186111 0.0393068 
275 -0.0202812 0.00296231 0.0345536 
276 0.0214041 0.000105561 0.0551896 
277 -0.0221508 0.00521108 0.0383581 
278 0.013668 -0.000943487 0.0301942 
279 0.0186709 0.00470436 0.0516051 
280 -0.0381138 0.00304447 0.0210258 
281 0.00224488 0.0017845 0.00131186 
282 -0.0253103 -0.00525041 0.024852 
283 0.0242069 -0.00133123 0.0031286 
284 0.00262933 -0.00699864 0.0437801 
285 -0.010785 0.000632226 0.0325319 
286 -0.00429716 -0.00556609 0.0377675 
287 0.0221605 0.00142393 0.0370085 
288 -0.0298392 -0.0045087 0.0515532 
289 0.0171959 -0.00237323 0.0301653 
290 -0.0393913 0.00448097 0.0181527 
291 -0.0129518 -4.53766e-05 0.0384217 
292 -0.0296102 -0.0055662 0.00302984 
293 -0.0182184 0.00425842 0.0144859 
294 0.0311936 -0.00237744 0.0512455 
295 0.0248265 0.00127318 0.00787047 
296 0.0282348 0.00319614 0.0364 
297 0.0249615 0.00445623 0.048224 
298 -0.00427486 0.000109233 0.0271528 
299 0.0299617 -0.00366701 0.013374 
300 0.015077 -0.00488992 0.00136803 
301 -0.026512 0.000953847 0.00392314 
302 0.00365486 0.00524208 0.0519912 
303 -0.0291328 0.00615509 0.049971 
304 0.0262705 -0.00347096 0.0379286 
305 -0.010697 0.00148656 0.0293468 
306 -0.0022788 0.00168694 0.0311134 
307 0.0274003 0.00617804 0.0429823 
308 -0.0211303 -0.00699104 0.000511396 
309 0.020081 0.00699336 0.0484376 
310 0.0370455 0.00371323 0.0560798 
311 0.00366508 0.00619282 0.0477414 
312 -0.017038 -0.0049755 0.0500496 
313 0.000279059 -0.00458526 0.02283 
314 0.033689 0.00650831 0.0183496 
315 -0.0345253 0.00619361 0.00772636 
316 -0.0263714 -0.00447002 0.0292867 
317 0.00037182 -0.00129942 0.0213255 
318 -0.0309595 0.00358411 0.0571449 
319 0.00606526 0.00339407 0.0479978 
320 0.00702326 -0.00350717 0.0446229 
321 0.033444 0.00689716 0.00274304 
322 0.0182201 0.00405652 0.0522231 
323 -0.0022929 -0.00187922 0.0472747 
324 0.00644541 0.00325372 0.0416654 
325 -0.0325415 -0.000760601 0.00364492 
326 -0.0298772 0.00270952 0.0289408 
327 0.0353587 -0.00689714 0.0281256 
328 -0.031121 -0.00699868 0.054517 
329 0.0140254 0.00331151 0.0560806 
330 -0.0228879 -0.00247585 0.0617999 
331 0.0132971 0.00069981 0.0213661 
332 -0.0204289 0.000649567 0.0337288 
333 0.0231339 0.00468455 0.0051806 
334 -0.0195767 0.00036216 0.0272375 
335 -0.00930217 0.00359481 0.0348217 
336 0.00420393 0.00114942 0.0529571 
337 0.0335433 0.00172356 0.0589293 
338 0.0159818 0.000518775 0.0492348 
339 0.0194889 -0.00269708 0.0356013 
340 0.00153177 0.00617892 0.00252578 
341 -0.0386423 0.00371205 0.016549 
342 0.00251644 0.00449185 0.018151 
343 -0.0309842 -0.000801777 0.0433174 
344 -0.00428299 0.00119299 0.0129174 
345 -0.00220074 -0.00413935 0.0322693 
346 0.0230192 -0.006987 0.0367953 
347 0.00795727 0.00152763 0.0424975 
348 0.0279111 -0.00434192 0.0527273 
349 -0.0332558 -0.00530437 0.0277785 
350 -0.0374346 -0.00684019 0.00911054 
351 -0.0286848 -0.00699954 0.0584718 
352 -0.0274605 -0.00445023 0.00308852 
353 0.0280993 9.49737e-05 0.0425554 
354 -0.016588 0.0041375 0.0559626 
355 -0.0102709 -0.00308363 0.0316269 
356 -0.0216246 -0.00435942 0.000503825 
357 0.0184291 0.00200662 0.0390933 
358 0.010918 0.00264354 0.0384153 
359 0.0200093 0.00237983 0.0505437 
360 -0.0208328 -0.00526849 0.0479287 
361 0.0180473 0.000163412 0.0448904 
362 -0.0111519 0.00386754 0.0519639 
363 0.000980508 0.00698771 0.0147784 
364 0.0188233 -0.000311021 0.0567277 
365 -0.0312593 0.00433806 0.0562725 
366 -0.0321611 -0.00157692 0.035704 
367 0.0168107 0.00433157 0.0385563 
368 -0.0379651 0.0016571 0.0444094 
369 0.0241237 0.0018566 0.0379145 
370 0.0176381 -0.0034704 0.000516724 
371 -0.0279068 -0.00525132 0.0318364 
372 -0.0387517 -0.00275373 0.0420473 
373 -0.00650926 0.00345862 0.0528042 
374 -0.0364805 0.000501555 0.0390616 
375 0.0367773 -0.00252421 0.0397874 
376 -0.0184493 0.00272738 0.0527811 
377 -0.0248768 0.00180423 0.00257465 
378 -0.0378402 0.00609438 0.0581556 
379 0.0209938 0.00409014 0.0381524 
380 0.0324636 0.00533104 0.00398805 
381 -0.0298036 0.00593628 0.00832617 
382 -0.0126849 -0.00156983 0.0474236 
383 -0.0394803 -0.00694852 0.0239433 
384 -0.0212994 -0.00699994 0.0430595 
385 -0.0208984 -0.00363393 0.0474756 
386 -0.0198019 -0.00699254 0.0574838 
387 -0.0156183 -0.00404137 0.0559489 
388 -0.000187477 0.00605638 0.0197064 
389 0.0302502 -0.00598702 0.0139006 
390 0.00529135 0.00699823 0.0435119 
391 0.0347817 0.00298105 0.00303483 
392 -0.0261513 0.00699982 0.0379373 
393 0.020979 -0.00603012 0.0354479 
394 -0.0255999 0.00445608 0.0314958 
395 -0.000580511 0.000839844 0.0484201 
396 -0.0394677 -0.00392334 0.000520401 
397 -0.0196768 -0.00507072 0.0407519 
398 -0.0334884 -0.00114733 0.0601895 
399 -0.0328869 -0.00113893 0.0488485 
400 -0.0359043 0.00140587 0.0562117 
401 0.0259333 -0.00180933 0.0582637 
402 -0.00612195 -0.00526159 0.000504095 
403 -0.000882873 -0.00054828 0.0223723 
404 -0.0137413 -0.00285597 0.0533493 
405 -0.0338588 0.00100135 0.0553764 
406 -0.000745533 0.00101888 0.0303788 
407 0.0369905 0.00111987 0.0504518 
408 0.0127735 0.00372323 0.0523292 
409 -0.017025 0.00106309 0.0476287 
410 0.0312145 0.00269762 0.0477689 
411 -0.000143804 -0.00249443 0.019877 
412 -0.0188021 0.00698879 0.0368265 
413 0.0394453 -0.00109149 0.0131098 
414 0.0265946 -0.00674129 0.0149127 
415 0.0288094 -0.00537879 0.0539927 
416 -0.0251602 -5.93519e-05 0.0423194 
417 0.0068637 -0.00173833 0.0197261 
418 -0.0267404 -0.0035543 0.0168638 
419 0.0380338 -0.00233709 0.0358236 
420 -0.010492 0.000314164 0.0386513 
421 -0.0247496 -0.00515261 0.0586082 
422 -0.0207725 -0.00360238 0.0584592 
423 -0.00529635 0.00498827 0.0328634 
424 -0.000723986 0.00195474 0.0344846 
425 -0.00206045 0.00696135 0.0192003 
426 -0.0227192 0.00696444 0.0304364 
427 0.0156855 -0.00602659 0.0317322 
428 0.0109793 0.00246146 0.0444204 
429 0.0344255 -0.00449586 0.0439898 
430 -0.0125877 0.000998164 0.0504971 
431 0.0173082 -0.000213472 0.044328 
432 -0.00202852 -0.00282118 0.00479414 
433 0.0332232 -0.00088923 0.0373804 
434 -0.0280837 -0.00699461 0.0457694 
435 -0.00469451 0.000190254 0.0258567 
436 0.0299626 0.00247838 0.0552952 
437 -0.0372061 -0.00567024 0.056697 
438 -0.0380417 0.00174267 0.0323996 
439 -0.036329 -0.006965 0.0290068 
440 0.0289923 -0.00189811 0.04553 
441 -0.00236539 0.00261967 0.00287807 
442 -0.00321045 -0.00547011 0.010293 
443 -0.0328041 -0.00209031 0.0537314 
444 -0.0256419 -0.00613236 0.00049945 
445 0.00165745 0.00543229 0.0142287 
446 0.000444678 0.00301153 0.0332764 
447 -0.0319367 0.00141248 0.0574122 
448 -0.00753568 -0.00527894 0.037742 
449 0.0239535 -0.00470747 0.0554633 
450 0.013592 -0.000502651 0.057107 
451 0.00509378 -0.00132072 0.0565739 
452 0.0368356 0.00103079 0.000508982 
453 0.0353614 0.000684446 0.0384409 
454 -0.00374534 0.00620092 0.0328183 
455 -0.0395001 -0.003199 0.0452621 
456 0.00726786 0.00238423 0.0224299 
457 -0.00914862 -0.00441884 0.0339488 
458 -0.0224836 -0.00239803 0.0560628 
459 0.0376342 0.00517885 0.035408 
460 -0.031371 -0.00367986 0.0482055 
461 -0.0374327 -0.000619174 0.01217 
462 -0.0105431 -0.000248534 0.051202 
463 -0.00809608 0.00425843 0.016516 
464 0.0178651 -0.00021488 0.0545499 
465 -0.0178209 -0.00700005 0.0389641 
466 0.00453229 0.00154925 0.0176556 
467 0.00919953 -0.00300879 0.00808804 
468 0.00906373 0.000139217 0.0293482 
469 0.00934384 -0.00697942 0.0221577 
470 -0.00058618 0.00534725 0.0381913 
471 0.0384897 0.00557013 0.0271112 
472 -0.00958827 0.000847404 0.000505723 
473 0.0272962 -0.00199095 0.0520066 
474 0.0257144 -0.00699143 0.0376442 
475 0.0297177 -0.00310718 0.0586106 
476 0.00282506 0.00360103 0.0177602 
477 0.0394575 0.00698005 0.0326625 
478 -0.00708946 0.00253764 0.0307347 
479 -0.00474217 0.000662939 0.0289657 
480 0.0303272 0.0069937 0.0488581 
481 0.00664303 0.00530946 0.0365439 
482 -0.00587036 -0.000583712 0.0526054 
483 -0.0284615 -0.00283288 0.0471913 
484 -0.0274648 -0.00684422 0.00912473 
485 -0.00658367 -0.00699839 0.0312307 
486 0.0243449 -0.00118494 0.0527211 
487 -0.0263491 0.00428842 0.0465353 
488 -0.00699937 0.00339985 0.0239423 
489 -0.012649 -0.00114132 0.0284079 
490 -0.0103445 0.00162006 0.0398462 
491 -0.0258353 -0.00345946 0.0465339 
492 -0.0340745 0.00354303 0.0363593 
493 0.0321004 -0.00626799 0.0343804 
494 0.00486283 -0.00689766 0.0155428 
495 -0.0292461 0.00222166 0.0130414 
496 -0.0147594 0.00165588 0.0485198 
497 -0.0211949 -4.82113e-05 0.0330679 
498 0.0156155 -0.00044695 0.0509982 
499 0.0225544 -0.00107943 0.00325475 
500 -0.0265095 0.00254171 0.0608562 
501 -0.00513453 0.00699117 0.0132517 
502 -0.0252824 -0.00488283 0.0160121 
503 -0.0164194 -0.000619075 0.0354109 
504 0.0338596 -0.00699905 0.0520092 
505 -0.00963207 0.00230634 0.0396998 
506 0.00906595 0.00611637 0.0262726 
507 0.0278264 0.00530771 0.0446932 
508 -0.0290639 -0.00110521 0.0564198 
509 0.00859375 0.00449997 0.012294 
510 -0.0281875 -0.00404039 0.001404 
511 0.0195949 -0.00496145 0.039699 
512 0.0200295 7.88645e-05 0.0506791 
513 -0.012716 -0.00696616 0.0485797 
514 0.0352425 0.00420085 0.0160941 
515 -0.0233958 -0.00698933 0.0542614 
516 0.0361767 -0.00283274 0.0380816 
517 -0.00514347 -0.000597659 0.00133323 
518 -0.00533256 -0.0032583 0.0550944 
519 0.0106243 -0.00127545 0.042113 
520 0.0370925 -0.00500858 0.0599915 
521 0.00470665 -0.00101143 0.0166035 
522 -0.0137434 -0.000764377 0.0143669 
523 -0.0232014 -0.00429387 0.0599526 
524 -0.0155612 -0.00250191 0.0530777 
525 0.01759 0.000263453 0.0356511 
526 0.0220311 0.00501554 0.00338056 
527 -0.0315426 -0.00368653 0.0613813 
528 0.00634078 0.00264753 0.0120312 
529 0.0211395 -0.000871343 0.000513977 
530 -0.0285662 0.00379634 0.00135 
531 0.00109141 0.00208175 0.00135665 
532 0.0196398 -0.00173863 0.000512094 
533 -0.0038848 -0.00099413 0.0466059 
534 -0.025204 0.004718 0.0591614 
535 0.004242 -0.00698252 0.0526122 
536 -0.0288098 0.00698709 0.0269664 
537 0.0325523 0.00692912 0.0255377 
538 0.026242 -0.00523289 0.0500913 
539 0.0271684 -0.004337 0.022696 
540 -0.0311874 -0.000657935 0.0104929 
541 -0.0394017 -0.000910985 0.0102437 
542 0.027846 0.0046237 0.019834 
543 0.00859879 -0.00109713 0.0112457 
544 -0.0234531 -0.00150727 0.0586886 
545 0.00062793 -0.000718031 0.0143965 
546 -0.012494 0.00369518 0.0385957 
547 -0.0385328 -0.00153502 0.0373534 
548 -0.0240667 -0.00129973 0.028768 
549 -0.0197072 0.000123319 0.0495744 
550 -0.00819061 0.00547815 0.0330402 
551 -0.00766394 0.00699991 0.0320404 
552 0.0161485 -0.00356728 0.0515759 
553 -0.000481249 -0.00698517 0.00941619 
554 0.0347546 -0.000271367 0.052876 
555 0.0237125 -0.00377616 0.0245685 
556 -0.00893458 -0.00520021 0.0300815 
557 0.0106835 0.00700006 0.0391849 
558 -0.0340525 -0.00319773 0.0560694 
559 0.00813901 0.0053465 0.0437013 
560 0.0154338 -0.000374601 0.00754614 
561 0.00693927 -0.00137323 0.0148794 
562 -0.0394952 -0.00336592 0.0524831 
563 -0.0165819 0.00434863 0.000538116 
564 0.00606885 0.00526229 0.0450148 
565 0.0135525 -0.00434168 0.0567901 
566 -0.00211859 0.00698432 0.0620732 
567 0.0385361 0.00466953 0.00842968 
568 0.0145038 0.00699985 0.000506334 
569 -0.039499 0.00699652 0.0319051 
570 0.000377509 0.00138772 0.0379191 
571 0.0107013 -0.00431149 0.0397426 
572 0.036226 0.000996133 0.0304417 
573 -0.0244591 -0.00699991 0.0440708 
574 0.00975644 -0.00338016 0.00627731 
575 0.0101878 -0.00698732 0.0266901 
576 -0.0338263 -0.00485339 0.0320321 
577 -0.0321095 0.00240598 0.0579729 
578 -0.0393984 0.00181831 0.030466 
579 -0.00386994 -0.00149053 0.0195951 
580 -0.0134599 0.000367692 0.0358778 
581 -0.0266189 0.00366701 0.0473683 
582 -0.00603997 -0.00516732 0.0409585 
583 0.0257772 -0.00541486 0.0578558 
584 0.0325046 0.000174987 0.0116756 
585 0.0352025 -0.00498681 0.0315717 
586 0.0140655 -0.000349129 0.0336663 
587 -0.0227525 -0.00518092 0.0344621 
588 0.00588414 0.00312964 0.00330184 
589 0.0395003 -0.00336944 0.0536144 
590 0.0235131 -0.00296182 0.0433495 
591 0.0159984 -0.0068781 0.0307689 
592 0.0389952 -0.0019527 0.0463455 
593 -0.00637739 -0.0018905 0.0268587 
594 0.0394994 -0.00695857 0.0420435 
595 -0.0363228 -0.00055631 0.0464244 
596 0.0312992 -0.00616689 0.0477512 
597 -0.0278257 0.00120083 0.0168767 
598 0.0202101 -0.00441035 0.0403563 
599 0.0360071 0.000990456 0.0263332 
600 -0.000313954 0.000738266 0.035799 
601 0.0297827 0.000310855 0.0326433 
602 0.0290182 -0.00409184 0.03813 
603 0.0265433 -0.00512113 0.00414283 
604 0.0385113 -0.00099004 0.0414734 
605 -0.0144005 -0.00242276 0.0277939 
606 0.0358534 0.00684219 0.0263212 
607 0.0340591 0.00390662 0.000500472 
608 0.00217337 -0.00162587 0.0412829 
609 -0.0365569 0.00120676 0.0267893 
610 -0.00575115 0.00188742 0.0393896 
611 -0.0359698 -2.16658e-06 0.0101654 
612 -0.0304586 -0.0064579 0.0431784 
613 0.00431923 0.00129047 0.0440054 
614 -0.00577619 0.007 0.0408539 
615 0.00146416 0.00356132 0.0409877 
616 -0.0374747 0.00305162 0.0225802 
617 0.00565374 -0.00460391 0.0539458 
618 -0.0118472 -0.0044366 0.0457744 
619 -0.0189311 -0.00593142 0.0597607 
620 -0.00824637 0.00358872 0.0514452 
621 0.0053148 -0.00324716 0.0439125 
622 -0.0292128 -0.00426805 0.0600614 
623 -0.00861834 0.00200187 0.0206696 
624 -0.0237624 0.0021203 0.0487675 
625 -0.0051969 0.00291198 0.0212219 
626 -0.0179138 -0.00252995 0.0427781 
627 0.0198742 0.00220982 0.0573941 
628 0.0354775 -0.00312358 0.0145047 
629 0.0011419 0.00272476 0.0106424 
630 -0.00102408 0.00699859 0.0224897 
631 0.0281019 -0.00122886 0.040194 
632 0.0376813 0.00417907 0.0339289 
633 0.0379911 -0.00115073 0.0502419 
634 0.00207331 -0.00353619 0.0088172 
635 0.00888149 0.00343143 0.0402239 
636 -0.0378373 -0.0069972 0.0568458 
637 0.0222134 -0.00683937 0.0249626 
638 0.00281819 0.00228162 0.0343481 
639 0.0323482 0.00346012 0.0573137 
640 0.0377717 -0.0052037 0.0299783 
641 -0.0235889 -0.00412647 0.0314984 
642 0.0353356 0.00300936 0.0266633 
643 -0.00189966 -0.00134628 0.0284576 
644 0.0100405 0.00469223 0.0189709 
645 -0.00774147 -0.00522816 0.0195621 
646 -0.0153468 -0.00273865 0.0521124 
647 -0.0121469 -0.00533833 0.0195209 
648 0.00986639 -0.00691106 0.0188824 
649 -0.00345962 -0.000935263 0.00149487 
650 -0.00703293 -0.000679813 0.0349727 
651 0.037861 -0.00229552 0.0527645 
652 -0.00894295 -0.00587326 0.0375085 
653 0.0215276 0.00176916 0.0564586 
654 -0.0363823 -0.00349256 0.0484991 
655 0.0305766 0.00493845 0.0413844 
656 -0.00275064 0.00246386 0.0128708 
657 -0.0356645 -0.00035669 0.00800444 
658 0.0272722 -0.00418324 0.0354861 
659 0.0164436 0.00184855 0.0531468 
660 -0.0296639 0.00198642 0.0623118 
661 -0.0240107 0.00130205 0.0475806 
662 -0.0394106 0.00289163 0.0610032 
663 -0.0134805 0.00565523 0.0429291 
664 0.028206 -0.000695464 0.0363256 
665 -0.0226031 -0.00434687 0.00226785 
666 0.005569 0.000452621 0.0317315 
667 -0.010861 0.00219373 0.0266827 
668 -0.0329858 0.00382895 0.0308764 
669 -0.0390522 0.0042096 0.00121876 
670 0.00214151 -0.00489647 0.0376905 
671 0.0139457 -0.00373773 0.0506891 
672 -0.0144662 -0.0012635 0.0503686 
673 0.00259661 -0.00490045 0.0230191 
674 -0.0385869 -0.00181204 0.00141387 
675 -0.00560779 -0.00435997 0.0508248 
676 -0.0344113 0.000111875 0.0424641 
677 -0.013694 0.00537485 0.0267088 
678 0.0305106 0.00697325 0.0523501 
679 -0.0274746 -1.89939e-05 0.0608447 
680 -0.0106942 -0.00496195 0.0389098 
681 0.00905967 -0.00699735 0.0454786 
682 0.00605569 0.00417957 0.041585 
683 0.03839 -0.00170703 0.0492234 
684 0.00402509 0.00368886 0.0499903 
685 -0.0394379 -0.00302924 0.00837625 
686 -0.00328993 -0.000524704 0.0488422 
687 0.0394977 -0.00441644 0.0518043 
688 -0.0304626 0.00679723 0.0326842 
689 -0.0240924 -0.00608965 0.0573304 
690 -0.0243493 -0.00593196 0.0546572 
691 -0.026435 -0.00258113 0.0247336 
692 0.0105061 -0.00526585 0.000524258 
693 -0.00987568 0.000224881 0.0117421 
694 0.0335114 -0.00512123 0.0371435 
695 -0.0350711 -0.00387054 0.00958566 
696 0.00635561 0.00564298 0.0565926 
697 -0.0107812 0.00390082 0.0319873 
698 -0.00497226 -0.00679785 0.0112845 
699 -0.00056785 -0.000704821 0.00345044 
700 -0.00511877 0.00206322 0.00307858 
701 0.0109733 0.00627658 0.0570075 
702 -0.000834467 0.00348313 0.0353951 
703 -0.0272251 0.00404431 0.0444882 
704 -0.0359047 -0.0015943 0.0421527 
705 0.0330251 -0.0016057 0.0590127 
706 -0.0255251 -0.00584939 0.0412665 
707 -0.00181985 0.000781636 0.0533055 
708 0.0237507 -0.000340592 0.0505789 
709 0.0193987 -0.00408112 0.0138114 
710 -0.0384937 0.00302344 0.0465693 
711 0.025622 -0.00699382 0.00238557 
712 0.0342083 0.000886583 0.0601711 
713 -0.0345718 0.00419929 0.0403829 
714 -0.0145371 -0.00228133 0.0428029 
715 -0.0150839 -0.000803046 0.0436681 
716 -0.0316964 -0.00614929 0.0161716 
717 -0.0216028 0.00446108 0.00488411 
718 -0.0150983 0.0061232 0.0426763 
719 0.00661302 -0.00307691 0.0462998 
720 0.00709984 0.00699768 0.0505325 
721 -0.0165253 0.00383969 0.0221455 
722 -0.00102225 0.00699871 0.0294249 
723 0.0186191 -0.00610783 0.0416555 
724 0.00995789 -0.00368273 0.0199199 
725 -0.0104363 -0.00218595 0.0271357 
726 -0.0282615 0.000637013 0.0377153 
727 -0.0297878 -0.00383848 0.0290773 
728 0.0282636 0.00340605 0.0548667 
729 -0.0355814 0.00534781 0.0396264 
730 -0.0336281 0.00256566 0.0398715 
731 -0.0118784 -0.0046213 0.0475725 
732 -0.0342102 0.00214096 0.0434351 
733 0.00109635 -0.00699979 0.0380348 
734 0.0121067 0.00636118 0.0368254 
735 -0.00188191 0.00346368 0.039353 
736 0.00920515 0.000515696 0.0347291 
737 -0.000990693 -0.00480801 0.00789407 
738 0.0207266 0.00226901 0.0561081 
739 0.0228342 0.00585752 0.0319409 
740 0.020511 0.00605858 0.0440548 
741 0.00928343 0.00362338 0.0138324 
742 -0.0340592 -0.00508865 0.0469117 
743 0.0071711 -0.00134375 0.0320492 
744 -0.0333105 -0.00699989 0.0434009 
745 0.0135422 0.0069994 0.0379656 
746 0.00139326 0.00539189 0.0379559 
747 0.015648 -0.00284949 0.0439352 
748 -0.0323821 -0.00459166 0.0146514 
749 0.0310055 -0.00613026 0.000508889 
750 -0.0322491 0.00139947 0.0419677 
751 0.00852356 -0.00609088 0.0226365 
752 -0.00819087 -0.00348054 0.0406567 
753 0.0306495 -0.00377519 0.0425407 
754 0.000840022 0.0035056 0.0123996 
755 0.0269062 0.00530949 0.0366415 
756 -0.0166003 0.0039378 0.0167157 
757 -0.00316125 -0.00262588 0.00632915 
758 -0.00839388 -0.00195724 0.0234919 
759 -0.0207583 0.00601 0.00160374 
760 -0.0146955 -0.00392087 0.0129832 
761 0.0235527 -0.00023492 0.0420646 
762 0.0368304 0.00298606 0.0536219 
763 -0.0206742 -0.00619439 0.0531373 
764 -0.00342332 -0.00698585 0.0196223 
765 -0.0349031 0.00372207 0.0299641 
766 0.0200785 0.00432722 0.0412717 
767 -0.0142062 0.0034658 0.054993 
768 0.030766 -0.004799 0.046443 
769 0.00581393 -0.00214188 0.0524321 
770 -0.0394944 0.00202223 0.00994729 
771 0.0308113 0.00353726 0.0456681 
772 0.0107354 0.00699318 0.0520713 
773 0.0141744 0.00476976 0.0542845 
774 0.0145649 -0.00283989 0.0577125 
775 -0.0264819 -0.00509081 0.0488665 
776 0.00624593 0.000484928 0.0020571 
777 0.0325444 -1.40778e-05 0.0176179 
778 0.0374527 -0.00600901 0.0376103 
779 0.0319229 0.00166856 0.0300672 
780 -0.0116773 -0.00318572 0.0339859 
781 -0.0215465 -0.00615695 0.039054 
782 -0.00875352 -0.00365137 0.0231061 
783 0.00565985 -0.00620494 0.00420049 
784 -0.0154738 0.00461494 0.0269423 
785 -0.0326518 0.000895682 0.000514683 
786 -0.037313 -0.00323431 0.0265524 
787 -0.0166644 0.00289793 0.0474188 
788 -0.0174202 -0.00699361 0.0399195 
789 -0.0275649 0.0060159 0.0256766 
790 -0.00516324 0.00171515 0.0204415 
791 -0.0198574 -0.00371778 0.0240285 
792 -0.0121326 0.0020088 0.0503197 
793 -0.00428046 0.000434696 0.0400354 
794 -0.0362859 -0.0030734 0.0290699 
795 0.0307283 -0.00177141 0.0191211 
796 -0.0241568 -0.000423123 0.0487892 
797 0.00861888 -0.00680382 0.00519481 
798 0.00188862 -0.00607909 0.0535592 
799 -0.0308761 -0.00242967 0.0296912 
800 0.0392946 0.000603495 0.0109495 
801 -0.00850665 0.00520856 0.0198298 
802 -0.0023682 0.00236777 0.0119345 