ITEM: TIMESTEP
4016000
ITEM: NUMBER OF ATOMS
60000
ITEM: BOX BOUNDS ff ff ff
-0.04 0.04
-0.0075 0.0075
0 0.25
ITEM: ATOMS id x y z 
1 0.0359535 -0.00362641 0.00397745 
2 0.0162754 0.00339227 0.0303446 
3 0.0222431 0.00699621 0.0262277 
4 0.0082335 6.62535e-05 0.0229951 
5 0.0135282 -0.00460912 0.0402508 
6 -0.031298 -0.00376107 0.0635063 
7 -0.0271778 -0.000384775 0.041825 
8 0.0194411 -0.00366759 0.0492646 
9 -0.0366812 0.000601399 0.0334594 
10 -0.0152992 -0.0038718 0.0401279 
11 -0.00554438 -0.00153851 0.0235654 
12 0.0217465 0.00616282 0.034445 
13 0.00013793 -4.59099e-06 0.0124921 
14 0.0356152 0.00210285 0.0531561 
15 -0.0222012 -0.00699171 0.015528 
16 -0.0368536 0.00689108 0.0464037 
17 -0.0312655 -0.00447012 0.0315924 
18 0.0174626 0.00554263 0.0072311 
19 -0.0385419 -0.00699239 0.0196845 
20 -0.0214339 -0.00171902 0.0478781 
21 -0.000930692 0.00517132 0.0216713 
22 -0.016118 -0.00697542 0.0473936 
23 0.0221623 0.00354006 0.00931542 
24 0.0347095 -0.000519827 0.0513896 
25 0.0176897 0.000892419 0.0519034 
26 -0.0317769 -0.000617614 0.0215862 
27 -0.0336583 0.00598771 0.0463135 
28 0.0202369 -0.0014548 0.0219146 
29 -0.0102155 -0.00131212 0.0194971 
30 -0.0122668 -0.00209786 0.0341483 
31 0.0317198 0.00350669 0.0532257 
32 -0.0243995 0.00268924 0.0117726 
33 -0.0370523 -0.00252281 0.00862621 
34 -0.0199243 0.00620844 0.0319399 
35 0.0134534 -0.00139131 0.0122121 
36 -0.0111201 -0.00166475 0.00626695 
37 -0.0120666 -0.000197531 0.0117341 
38 0.0196784 -0.00212693 0.0530235 
39 0.00517185 0.00318772 0.0420898 
40 0.00894001 0.0033563 0.0356846 
41 -0.0325151 0.00213557 0.0507343 
42 -0.00967518 0.00281266 0.0191797 
43 0.00293649 0.00426541 0.0328046 
44 -0.00112466 -0.000258746 0.0170876 
45 -0.0386804 0.00576985 0.0570287 
46 -0.0145254 -0.00287917 0.0233535 
47 0.00299247 -0.00234384 0.00490836 
48 -0.0394933 0.00225675 0.034915 
49 0.00651317 -0.00438387 0.0317786 
50 0.0181054 0.000114201 0.00711888 
51 -0.0207957 0.00384753 0.0520542 
52 -0.0262119 0.00602942 0.0267025 
53 0.0163898 0.00183192 0.0160032 
54 0.0361605 0.000287908 0.000505411 
55 -0.0211352 0.00564767 0.0543533 
56 0.0227412 -0.00504611 0.0251341 
57 0.0201833 0.000878617 0.0460449 
58 -0.0251656 0.0055457 0.0688866 
59 -0.0255417 -0.00676076 0.0298191 
60 -0.0327379 -0.00605972 0.0525843 
61 -0.034323 -0.00173314 0.0243041 
62 0.0208699 0.00456004 0.0557625 
63 0.0245866 0.00193883 0.0136368 
64 0.0157672 0.00699457 0.0263136 
65 -0.0187566 0.00482946 0.0591741 
66 0.010748 0.0051488 0.0373957 
67 0.00853374 0.001317 0.0313107 
68 -0.0244338 -0.00693304 0.0296597 
69 0.0394565 0.00543483 0.0457598 
70 0.0246876 0.00144891 0.0502005 
71 -0.0328524 -0.00330438 0.0498944 
72 0.0323845 0.00329465 0.0487209 
73 0.0212088 0.00698622 0.0330595 
74 -0.0250405 -0.00449615 0.0173683 
75 0.0112789 0.00632082 0.0120738 
76 0.0115796 0.00403602 0.0463089 
77 0.0166622 0.00673322 0.0355324 
78 0.0323798 -0.00367788 0.0185129 
79 -0.0218829 0.00142019 0.0372472 
80 -0.0204464 0.0069974 0.0235282 
81 -0.00465646 -0.00498153 0.00748073 
82 -0.0288805 0.00133232 0.0170016 
83 0.0281559 -0.00467672 0.0513166 
84 -0.0269212 -0.0023364 0.0255982 
85 0.0393232 -0.00208166 0.0470085 
86 0.0213174 -0.00699746 0.0211756 
87 0.030652 0.00562536 0.00768127 
88 -0.0012294 0.00145596 0.00636779 
89 -0.0233571 -0.00256234 0.00955491 
90 -0.018411 0.00282393 0.0607409 
91 -0.0252928 -0.00247326 0.00555742 
92 0.0288471 0.00114751 0.0348957 
93 -0.0140718 0.00699912 0.0497106 
94 0.0355368 -0.00211799 0.0250533 
95 -0.0325656 0.00349219 0.000502747 
96 -0.0109151 0.00435422 0.0271051 
97 0.00229737 0.00190656 0.0227396 
98 0.00366719 -0.000283964 0.0155896 
99 0.0320169 0.00609434 0.0461406 
100 0.00739821 0.000661687 0.0265474 
101 -0.0293639 0.00155346 0.0408103 
102 0.00593854 -0.00113292 0.0276441 
103 -0.0110836 0.00518104 0.0410006 
104 0.00219805 -0.00328296 0.00473615 
105 -0.0056482 0.000864226 0.000500811 
106 -0.0111702 -0.00448008 0.0215893 
107 -0.00348529 0.000523301 0.0146726 
108 0.0269928 -0.0017786 0.0467801 
109 -0.0266465 -0.000268424 0.0245781 
110 0.00844891 -0.00499444 0.0305066 
111 0.00201478 -0.00218909 0.0288941 
112 -0.0255697 -0.00699983 0.0386284 
113 -0.00311413 -0.000729453 0.0386361 
114 0.0336616 -0.0015511 0.0546105 
115 -0.0105502 0.0029999 0.00511204 
116 0.0186392 -0.000437453 0.0490265 
117 0.036497 0.0059596 0.0498914 
118 -0.0297149 0.00374094 0.0717438 
119 0.00904754 -0.00449652 0.0331771 
120 0.0300005 0.00347762 0.0603979 
121 0.00935023 0.00624853 0.0226681 
122 0.0030705 0.00252594 0.0379866 
123 -0.00556534 -0.00177222 0.0328842 
124 0.00109279 -0.00150904 0.0316261 
125 0.0287423 0.00608259 0.0460761 
126 0.0302951 -0.00697533 0.0250333 
127 0.0386218 -0.00506936 0.0049036 
128 -0.0125757 0.00564952 0.0335509 
129 -0.0174207 -0.00477564 0.0595911 
130 -0.00612427 0.00183517 0.0201973 
131 -0.0356438 -0.000641388 0.0190348 
132 0.0257181 0.00666328 0.0013709 
133 -0.0360824 0.00107793 0.0242084 
134 0.0334714 -0.00305477 0.049411 
135 -0.0221944 0.00600285 0.0366083 
136 0.0339168 0.00411567 0.00214292 
137 0.0370687 -0.00666133 0.0566489 
138 0.0104187 0.00482752 0.00885749 
139 -0.0297739 0.00435468 0.0316561 
140 0.0366722 -0.00658883 0.0487321 
141 0.0111279 -0.00278619 0.0436389 
142 0.00360817 -0.00302358 0.00138061 
143 -0.0139249 -0.00440722 0.0433348 
144 0.0342485 -0.00601737 0.0237932 
145 0.0362451 0.000267635 0.0608743 
146 -0.0234611 0.00511347 0.0329205 
147 -0.0320148 -0.00366424 0.0589796 
148 0.0101572 0.000374343 0.0227597 
149 0.00314749 -0.00267614 0.016875 
150 0.0348108 -0.000447579 0.00532971 
151 0.0394609 -0.00314493 0.0534006 
152 -0.0216551 0.00347971 0.063192 
153 0.0270822 -0.00430714 0.00571245 
154 0.0348375 0.004445 0.0202 
155 -0.0105905 -0.00699995 0.0268567 
156 -0.0257469 -0.0028713 0.0707079 
157 0.0326721 -0.00455234 0.0192407 
158 -0.0336406 0.00302403 0.0223746 
159 0.0181206 0.00124407 0.034675 
160 -0.0394989 -0.000426628 0.0289301 
161 0.0315343 0.00230335 0.0553894 
162 0.0226651 0.00257622 0.0355529 
163 -0.0239759 0.00571895 0.0540617 
164 0.0363133 6.04049e-05 0.0350994 
165 0.0140318 -0.00635455 0.035241 
166 -0.0381452 0.000968929 0.0508638 
167 0.0276895 -0.00192983 0.00187352 
168 -0.00336348 -0.00518739 0.0268936 
169 0.0289389 9.49014e-05 0.0454367 
170 -0.0385515 0.00154682 0.0378171 
171 0.00336435 -0.00209013 0.0338686 
172 -0.00325762 0.00259585 0.00200584 
173 0.0360943 -0.00601666 0.0102968 
174 -0.0351307 -0.00193021 0.07194 
175 0.0198067 -0.00157894 0.0136603 
176 0.0350025 -0.000803288 0.00874913 
177 -0.0300194 0.00168371 0.0327262 
178 -0.0368494 -0.00202794 0.017581 
179 0.0274107 0.00451526 0.0026592 
180 -0.0361553 -0.00485682 0.0348024 
181 -0.0394998 0.00463724 0.0308642 
182 -0.037505 -0.00368723 0.0308319 
183 -0.00896105 -4.9976e-05 0.027896 
184 0.0279896 -0.00435361 0.000517024 
185 -0.0366206 -0.00529872 0.0298722 
186 -0.0255735 0.00327461 0.0119042 
187 -0.0153711 0.00444415 0.0298258 
188 0.00415208 0.00298356 0.028087 
189 0.0174292 0.00623459 0.0514684 
190 -0.00553097 -0.000984965 0.0371335 
191 -0.0365997 -0.000671145 0.0182857 
192 -0.0253027 -0.00310905 0.0534581 
193 -0.0152212 -0.00699981 0.0238567 
194 0.0333955 0.00131345 0.042367 
195 -0.0273177 0.000620861 0.0507582 
196 0.00348371 -0.00301774 0.039553 
197 -0.010447 -0.00353545 0.0299793 
198 -0.0218122 -0.000229988 0.0350086 
199 0.0351474 0.00458138 0.0538979 
200 -0.0177376 0.00458385 0.0266835 
201 0.00687952 -0.00552707 0.0301573 
202 0.0296591 0.00603734 0.0466207 
203 -0.000939855 -0.000967195 0.0226565 
204 -0.0177652 0.00172034 0.0089057 
205 -0.0243002 -0.0016385 0.0156373 
206 -0.0277573 0.00202792 0.00984136 
207 -0.000323775 0.00324263 0.0127089 
208 -0.00561433 -0.00267055 0.000500122 
209 -0.0113891 0.00323394 0.0407615 
210 -0.0301408 -0.00598889 0.0574615 
211 -0.00736921 -0.00084709 0.0341877 
212 -0.0303725 0.0031571 0.0393492 
213 0.0215454 -0.000960752 0.00327124 
214 -0.00334838 -0.00356262 0.00147364 
215 0.0375274 0.00598679 0.0148731 
216 -0.0373357 -0.00561102 0.0409315 
217 0.0374827 0.00157983 0.0265782 
218 -0.011724 0.000690164 0.0586072 
219 0.0374291 -0.00243417 0.00345637 
220 0.0310414 -0.000252884 0.024075 
221 0.0332309 -6.05859e-05 0.00845603 
222 -0.0285309 -0.00219611 0.0389973 
223 0.0170885 0.00214403 0.00607756 
224 -0.0171268 0.00176329 0.000518206 
225 0.0372453 -0.00700035 0.0321693 
226 0.0228721 0.0069617 0.00751722 
227 0.0309349 -0.00162581 0.040689 
228 -0.0318263 -0.000991693 0.0206573 
229 0.0201735 0.00609493 0.0417311 
230 -0.00355385 -0.00161813 0.0312882 
231 -0.0222314 -0.00446674 0.0622991 
232 -0.0121184 0.00176191 0.00050185 
233 0.00665315 -0.0069972 0.00868897 
234 0.0348718 0.00364815 0.0542524 
235 -0.00431091 -0.00353639 0.0254882 
236 0.00846788 0.000423245 0.0220907 
237 0.0211347 0.00459896 0.054043 
238 0.0278666 0.000609658 0.0339282 
239 0.0309107 0.00530966 0.0318029 
240 -0.0246036 -0.00482622 0.0112554 
241 -0.0241551 0.000918272 0.0310016 
242 -0.00791318 0.00595951 0.0312574 
243 0.00197448 -0.00122384 0.0172938 
244 0.00859516 -0.00511267 0.0178392 
245 -0.0280267 -0.00190988 0.0191805 
246 0.0163374 0.00156889 0.0458144 
247 -0.0304718 -0.00698498 0.0396625 
248 -0.00610564 0.00250169 0.0417847 
249 0.0219759 -0.00169235 0.017761 
250 -0.0172225 -0.00332437 0.0100317 
251 0.0390199 0.00610335 0.000500098 
252 0.0297325 0.000599189 0.034812 
253 -0.00371359 -0.00518118 0.0362194 
254 -0.0189795 -0.00602 0.042848 
255 0.0157358 -0.000460271 0.0142687 
256 0.0299068 0.0027312 0.0577109 
257 -0.0207556 0.00563857 0.0183176 
258 0.0238019 -0.00501417 0.0238774 
259 0.0292489 0.000982832 0.0305721 
260 0.0167195 -0.00699477 0.0192136 
261 -0.00382136 -0.00621194 0.010292 
262 -0.0115665 0.00507997 0.0482635 
263 -0.0343375 0.00524199 0.0197718 
264 0.0210261 -0.00343698 0.0229415 
265 -0.0309032 0.00173079 0.0372111 
266 0.0173586 0.00305363 0.0242581 
267 -0.0198578 -0.00495142 0.0368212 
268 -0.0209724 0.00474679 0.0212448 
269 0.0108473 -0.0061685 0.0197646 
270 0.00335694 -0.00616413 0.0183242 
271 0.00833045 0.00699979 0.000500006 
272 0.0339356 -0.0026962 0.0152726 
273 0.0340387 0.00325699 0.0269255 
274 -0.00075696 -0.001632 0.0321311 
275 -0.0233975 0.0031008 0.0268001 
276 0.0255221 0.000324537 0.0524555 
277 -0.0248946 0.00537948 0.0319407 
278 0.0150044 -0.000809595 0.0211178 
279 0.0234914 0.00494251 0.0468922 
280 -0.038497 0.00302066 0.0180947 
281 0.00200194 0.00164748 0.00136859 
282 -0.0275767 -0.0053891 0.0190147 
283 0.0231766 -0.00107217 0.00536876 
284 0.00459378 -0.00691271 0.036926 
285 -0.0140489 0.000699661 0.0250345 
286 -0.00636971 -0.00538781 0.0314797 
287 0.0245489 0.00152156 0.0235304 
288 -0.0320901 -0.00548748 0.0501716 
289 0.0181287 -0.00248135 0.0197382 
290 -0.0393665 0.00380284 0.0171388 
291 -0.0164085 -0.000101257 0.030642 
292 -0.0306394 -0.00523577 0.00519231 
293 -0.0177687 0.00434459 0.0122259 
294 0.0322588 -0.00194041 0.0485397 
295 0.0241311 0.00121144 0.00804337 
296 0.0299633 0.00338307 0.0241072 
297 0.0269531 0.00451363 0.0407468 
298 -0.00693354 0.000258036 0.022225 
299 0.0278614 -0.00408521 0.0113259 
300 0.0145778 -0.0046949 0.00137944 
301 -0.0268818 0.00093797 0.00619556 
302 0.0115775 0.00467693 0.0438669 
303 -0.0305878 0.0058604 0.045824 
304 0.0284859 -0.00342857 0.0263591 
305 -0.0138222 0.00160292 0.0221886 
306 -0.00438537 0.00200434 0.0257953 
307 0.0290626 0.00602084 0.0328229 
308 -0.0211482 -0.00699857 0.000500945 
309 0.0239697 0.00699621 0.0422151 
310 0.0372492 0.00359635 0.0560478 
311 0.00889942 0.00592001 0.0397871 
312 -0.0202584 -0.00485025 0.044237 
313 -0.00157086 -0.00476243 0.0200909 
314 0.0343242 0.00628699 0.0167723 
315 -0.0341133 0.0060603 0.00863282 
316 -0.0283069 -0.00425435 0.0215572 
317 -0.00156121 -0.00121841 0.0185909 
318 -0.0310916 0.00319107 0.0623642 
319 0.0117832 0.00345469 0.0389144 
320 0.0112247 -0.00355946 0.0356476 
321 0.0331333 0.006977 0.00494584 
322 0.0232758 0.00425014 0.0478392 
323 -0.00595556 -0.00182206 0.0374965 
324 0.00936653 0.00317069 0.0332855 
325 -0.0325339 -0.00119279 0.006301 
326 -0.0318347 0.00272135 0.021265 
327 0.0356348 -0.00699115 0.0215128 
328 -0.0314363 -0.00692978 0.0588116 
329 0.0205777 0.00305095 0.0527741 
330 -0.0238355 -0.00186181 0.0697046 
331 0.0128554 0.000815734 0.0157481 
332 -0.0237345 0.000686483 0.0258634 
333 0.0226431 0.00458137 0.00693687 
334 -0.0212972 0.000324412 0.0188332 
335 -0.0123569 0.00342818 0.0276185 
336 0.0127009 0.000768649 0.0446607 
337 0.0337046 0.00177073 0.0591225 
338 0.0216108 0.000228786 0.0425103 
339 0.0221194 -0.00241781 0.0227421 
340 0.00096859 0.00620519 0.00298485 
341 -0.0391927 0.00399676 0.0161603 
342 0.000894056 0.00435535 0.0167996 
343 -0.0325082 -0.000799706 0.0375183 
344 -0.00682495 0.00113463 0.0122448 
345 -0.00402877 -0.00403577 0.0270758 
346 0.0254077 -0.00699522 0.0262397 
347 0.0115607 0.0012695 0.0333057 
348 0.0299621 -0.00434831 0.0496194 
349 -0.0339749 -0.00497803 0.0206044 
350 -0.0366323 -0.00690629 0.00923609 
351 -0.0287545 -0.00698912 0.063997 
352 -0.0283578 -0.00458824 0.00469439 
353 0.0296289 0.000169393 0.0310378 
354 -0.0195662 0.00340859 0.0604078 
355 -0.0133569 -0.00298988 0.0243758 
356 -0.0216476 -0.0043648 0.000501631 
357 0.0210236 0.00210708 0.0263042 
358 0.0131624 0.0023901 0.0286657 
359 0.0246563 0.00230483 0.0453353 
360 -0.0234329 -0.00519904 0.0424873 
361 0.0219826 -6.66065e-05 0.0322711 
362 -0.0160959 0.00430853 0.0480307 
363 -0.000492267 0.00699942 0.0146205 
364 0.0237372 -0.000280812 0.0543638 
365 -0.0313293 0.00415008 0.0614029 
366 -0.0337771 -0.00147216 0.0292908 
367 0.0194276 0.00428416 0.0262647 
368 -0.0381065 0.00166831 0.0411327 
369 0.0268168 0.00201564 0.0246517 
370 0.0174771 -0.00349747 0.000503381 
371 -0.0297752 -0.00513562 0.0244213 
372 -0.0385022 -0.0033005 0.0382704 
373 -0.0131361 0.00301253 0.0514226 
374 -0.0375625 0.000400347 0.033892 
375 0.0374686 -0.00255514 0.0328868 
376 -0.0216215 0.00382225 0.0499403 
377 -0.0260137 0.00166008 0.00480642 
378 -0.0367769 0.00603561 0.0637696 
379 0.0235352 0.00412714 0.0255648 
380 0.0318944 0.00546152 0.0059761 
381 -0.0296584 0.00589899 0.0088116 
382 -0.0165637 -0.000989221 0.0404164 
383 -0.0394999 -0.00699928 0.0220884 
384 -0.0235044 -0.00699934 0.0377121 
385 -0.0236906 -0.0037096 0.041281 
386 -0.022431 -0.00686373 0.0641806 
387 -0.0188105 -0.00308027 0.0618588 
388 -0.00225793 0.00643859 0.0179161 
389 0.0279571 -0.00593076 0.0116917 
390 0.00866068 0.00699375 0.0367093 
391 0.0341976 0.00314286 0.00482243 
392 -0.0283389 0.00699955 0.0319212 
393 0.0235465 -0.00613242 0.0238762 
394 -0.0280746 0.00470899 0.0238529 
395 -0.000575297 0.00030481 0.0369769 
396 -0.0394968 -0.00389172 0.000502048 
397 -0.0226968 -0.00492565 0.0335739 
398 -0.0333644 -0.00111622 0.0673362 
399 -0.0342666 -0.000594857 0.0446786 
400 -0.0361119 0.00182648 0.0609832 
401 0.0283673 -0.00180849 0.0582073 
402 -0.00609919 -0.00526943 0.000502922 
403 -0.00325498 -0.000546769 0.0191443 
404 -0.017756 -0.00249682 0.0537423 
405 -0.0339963 0.000571367 0.0597771 
406 -0.00259546 0.00105452 0.0259146 
407 0.037393 0.000781009 0.0479577 
408 0.0194748 0.00414015 0.0479964 
409 -0.0201157 0.0012086 0.0416641 
410 0.0318813 0.00276215 0.0425108 
411 -0.00253691 -0.00228523 0.017464 
412 -0.0218091 0.00699903 0.03036 
413 0.0388934 -0.000998808 0.0122076 
414 0.0248972 -0.00690211 0.0127923 
415 0.0306941 -0.00525495 0.0517838 
416 -0.0275691 -0.0001044 0.0359396 
417 0.00650285 -0.00183046 0.017182 
418 -0.0265953 -0.00357618 0.0145635 
419 0.0383628 -0.00246849 0.028638 
420 -0.0140269 0.000262586 0.0308878 
421 -0.0252213 -0.0051802 0.0658953 
422 -0.0222242 -0.00262892 0.0652766 
423 -0.00742433 0.00522607 0.0271953 
424 -0.0023007 0.00223321 0.0287739 
425 -0.00388657 0.00699814 0.0172439 
426 -0.0254131 0.00698848 0.0235373 
427 0.0176849 -0.00585912 0.0221874 
428 0.0149446 0.00265434 0.0338331 
429 0.0349824 -0.00425278 0.0375949 
430 -0.0164159 0.00144697 0.0456468 
431 0.0214809 -0.000439947 0.031485 
432 -0.0030085 -0.00294297 0.00532615 
433 0.0345378 -0.00105838 0.028121 
434 -0.0296276 -0.00699667 0.041891 
435 -0.00714716 0.000262566 0.020834 
436 0.0317198 0.00253561 0.053526 
437 -0.0365248 -0.0059999 0.0616709 
438 -0.0379444 0.00186589 0.0261995 
439 -0.0367292 -0.00699827 0.0235749 
440 0.029925 -0.00206981 0.0358303 
441 -0.00248866 0.00256961 0.00294538 
442 -0.00617437 -0.00530414 0.0114665 
443 -0.033628 -0.00227147 0.0565311 
444 -0.0256768 -0.00611343 0.000515666 
445 -0.000466691 0.0055508 0.0143103 
446 -0.000846267 0.00323292 0.0284285 
447 -0.032089 0.00109562 0.0631456 
448 -0.0104838 -0.00520725 0.0309745 
449 0.0270627 -0.00422505 0.0539465 
450 0.0199583 -0.000360739 0.0542724 
451 0.01288 -0.000842421 0.0513369 
452 0.0368999 0.000965277 0.000500929 
453 0.0363329 0.000986449 0.0309079 
454 -0.00530203 0.00642383 0.0279834 
455 -0.0394995 -0.00320884 0.0429669 
456 0.00721219 0.00242219 0.0190889 
457 -0.0123316 -0.00443255 0.0269207 
458 -0.0244372 -0.00312537 0.0608534 
459 0.0377221 0.00510776 0.0283378 
460 -0.0322255 -0.0035361 0.0439846 
461 -0.038047 -0.000126433 0.0126652 
462 -0.0158466 -0.000226496 0.0452075 
463 -0.0101492 0.00432253 0.0141588 
464 0.0233248 -0.000466615 0.0516186 
465 -0.0202596 -0.00699995 0.0333043 
466 0.00318531 0.00148471 0.0163043 
467 0.00760302 -0.00336438 0.0093548 
468 0.0092075 6.01178e-05 0.0227682 
469 0.00948503 -0.00700003 0.0189717 
470 -0.00177518 0.00536466 0.0323941 
471 0.0386272 0.00658604 0.0220726 
472 -0.00961005 0.000890392 0.000503232 
473 0.0293677 -0.00186864 0.04856 
474 0.027594 -0.00699936 0.0276197 
475 0.0312769 -0.00265438 0.0583644 
476 0.0011609 0.00351347 0.0163297 
477 0.0394994 0.00699971 0.0288578 
478 -0.0098051 0.00250453 0.0246965 
479 -0.00714285 0.000843438 0.0233773 
480 0.0313095 0.00697662 0.0456368 
481 0.00802545 0.00530368 0.0296606 
482 -0.0118385 0.000495317 0.0477171 
483 -0.0302815 -0.00315834 0.0416925 
484 -0.0284904 -0.00695217 0.0100213 
485 -0.00862606 -0.00699997 0.0268597 
486 0.0269279 -0.00151061 0.0492399 
487 -0.0284212 0.00447398 0.0405606 
488 -0.0102075 0.00345766 0.0186306 
489 -0.0157873 -0.00114788 0.0208522 
490 -0.0137842 0.00146555 0.0321573 
491 -0.027935 -0.00348316 0.0404096 
492 -0.0350129 0.00374261 0.0303476 
493 0.0325734 -0.00606923 0.0257394 
494 0.00394527 -0.00699999 0.0154411 
495 -0.0287231 0.00244357 0.0120766 
496 -0.0185674 0.00173046 0.0423227 
497 -0.0237988 0.000474041 0.024883 
498 0.0215082 -0.000242389 0.0451253 
499 0.0207925 -0.000992886 0.0048624 
500 -0.0271129 0.00185055 0.0678425 
501 -0.0075815 0.00695422 0.0127395 
502 -0.0259357 -0.00521335 0.0141608 
503 -0.0195739 -0.000673897 0.0275082 
504 0.0343073 -0.00691249 0.050545 
505 -0.0130975 0.00218692 0.0320405 
506 0.00956152 0.006165 0.0207202 
507 0.0296361 0.00513766 0.0350497 
508 -0.0301198 -0.00118257 0.0613175 
509 0.00778624 0.00440147 0.0125085 
510 -0.0281618 -0.0039889 0.00142971 
511 0.022597 -0.00516166 0.0280003 
512 0.0243486 0.000262385 0.0450141 
513 -0.0161085 -0.00695796 0.0437413 
514 0.0364346 0.00379711 0.0153953 
515 -0.0249618 -0.00696044 0.0577239 
516 0.0365627 -0.00278024 0.0305751 
517 -0.00516592 -0.000600535 0.00131609 
518 -0.0121381 -0.00241094 0.0537014 
519 0.0142898 -0.00133214 0.0318015 
520 0.0368967 -0.00416488 0.0595994 
521 0.00318941 -0.00116197 0.0156212 
522 -0.01377 -0.00110627 0.0123899 
523 -0.0242077 -0.00390817 0.0680357 
524 -0.0179873 -0.00159309 0.0522323 
525 0.0195817 0.000648054 0.0233072 
526 0.0211565 0.00494052 0.00521425 
527 -0.031314 -0.00339571 0.0697808 
528 0.00489605 0.00288608 0.0124748 
529 0.0209623 -0.000891556 0.000503654 
530 -0.0287181 0.00375575 0.00136745 
531 0.000710409 0.00211148 0.00153328 
532 0.0194691 -0.00175219 0.000515984 
533 -0.00824106 -0.000476743 0.037584 
534 -0.0259938 0.00446649 0.0663309 
535 0.0112333 -0.00692469 0.045858 
536 -0.030817 0.00698136 0.0206917 
537 0.0328526 0.00699919 0.0197295 
538 0.0283281 -0.00516333 0.045899 
539 0.0268983 -0.00448244 0.0175574 
540 -0.0308578 -0.000555037 0.0105632 
541 -0.0393373 -0.00079124 0.0113409 
542 0.0265443 0.00445597 0.0155924 
543 0.00778333 -0.00108953 0.0117063 
544 -0.0244383 -0.000858385 0.0653819 
545 -0.00211961 -0.000517434 0.0137227 
546 -0.0159266 0.0034406 0.0310613 
547 -0.0392974 -0.001621 0.0329452 
548 -0.0266128 -0.00135945 0.0202509 
549 -0.0226663 0.00043409 0.0433817 
550 -0.0111229 0.00531461 0.0265337 
551 -0.00978379 0.00699994 0.0267026 
552 0.0217472 -0.00281436 0.0464272 
553 -0.00222403 -0.00698124 0.0103152 
554 0.034929 -2.27418e-05 0.0504961 
555 0.0229551 -0.00335466 0.0176542 
556 -0.0116283 -0.00534756 0.0237711 
557 0.0132323 0.00700014 0.0309496 
558 -0.0338916 -0.00286813 0.0607116 
559 0.0112888 0.00505989 0.0348168 
560 0.0131092 -0.00063582 0.00791958 
561 0.00608702 -0.0014033 0.0141432 
562 -0.0393656 -0.00347606 0.054257 
563 -0.0166215 0.00438689 0.000505253 
564 0.00973621 0.00511078 0.0361912 
565 0.0200317 -0.00342016 0.0545547 
566 0.00160073 0.00517503 0.039453 
567 0.0377825 0.00480056 0.00747216 
568 0.0143311 0.00699951 0.000501426 
569 -0.0394984 0.00699389 0.0294936 
570 -0.0010211 0.00140284 0.0313935 
571 0.0132876 -0.00458982 0.0302304 
572 0.0363913 0.00135426 0.0224091 
573 -0.0265989 -0.00699983 0.0387652 
574 0.00689408 -0.00359724 0.00764752 
575 0.0106325 -0.0070003 0.0224548 
576 -0.0348776 -0.00471195 0.0251245 
577 -0.032346 0.00229276 0.063644 
578 -0.0394987 0.00139846 0.0263437 
579 -0.00714579 -0.00153915 0.0165407 
580 -0.0168634 0.000433054 0.028078 
581 -0.0283606 0.00369695 0.0416383 
582 -0.00924657 -0.00526552 0.0331939 
583 0.0287964 -0.00505837 0.0568388 
584 0.0305739 0.000227332 0.0103414 
585 0.0357414 -0.00525952 0.0234877 
586 0.0162877 -0.000267882 0.0229638 
587 -0.025197 -0.0053488 0.0273825 
588 0.00338681 0.00315787 0.00390708 
589 0.0394802 -0.00311413 0.0522127 
590 0.0261314 -0.00337341 0.0307082 
591 0.0183549 -0.00659915 0.0222674 
592 0.0393169 -0.00212043 0.0435471 
593 -0.009053 -0.00195662 0.021755 
594 0.0393025 -0.00696886 0.0384697 
595 -0.0369103 -0.00061323 0.0426274 
596 0.0320595 -0.00608403 0.043414 
597 -0.0276549 0.00142528 0.0147106 
598 0.0230881 -0.00426458 0.0277691 
599 0.03583 0.000662186 0.020069 
600 -0.00143957 0.000223885 0.0300283 
601 0.0302978 0.000199518 0.0218921 
602 0.0308619 -0.00419031 0.0273553 
603 0.0265422 -0.00509688 0.00677887 
604 0.0385313 -0.000884277 0.0359173 
605 -0.0174274 -0.00232805 0.0195734 
606 0.0358131 0.00699266 0.0213465 
607 0.034046 0.00432766 0.000510917 
608 0.00346867 -0.00136994 0.0331712 
609 -0.036701 0.00109776 0.0206902 
610 -0.00878419 0.00177504 0.0318879 
611 -0.0353858 -0.000108571 0.010654 
612 -0.031668 -0.00641127 0.0383587 
613 0.0077429 0.00112298 0.0349234 
614 -0.00856038 0.00698996 0.0340536 
615 0.00141512 0.00313665 0.0330191 
616 -0.0376906 0.00319768 0.0187618 
617 0.0140255 -0.00460781 0.0473763 
618 -0.0152273 -0.00451861 0.0393674 
619 -0.0210261 -0.00493281 0.0682299 
620 -0.0137013 0.00407671 0.0458433 
621 0.00897342 -0.0031291 0.0352287 
622 -0.0298977 -0.00356626 0.0676751 
623 -0.0111798 0.00192329 0.0162253 
624 -0.0261037 0.00212229 0.0425334 
625 -0.00781892 0.00297908 0.0174584 
626 -0.0209811 -0.00294081 0.0357992 
627 0.0243161 0.00232534 0.0553399 
628 0.0349889 -0.0031604 0.0127269 
629 -0.0016738 0.00266471 0.0115401 
630 -0.00274208 0.00699949 0.0203616 
631 0.0301785 -0.00154064 0.0287 
632 0.0379876 0.00429889 0.0267321 
633 0.0379554 -0.00122175 0.0478035 
634 -0.000493956 -0.00364581 0.00984401 
635 0.0121051 0.00368888 0.0311584 
636 -0.0373854 -0.00674406 0.0624126 
637 0.0208564 -0.00699232 0.0183471 
638 0.00260218 0.00240312 0.0288659 
639 0.0333037 0.00358833 0.0566889 
640 0.0383598 -0.00519348 0.0235266 
641 -0.0261576 -0.00398524 0.0235489 
642 0.035219 0.00253874 0.0201603 
643 -0.00362079 -0.00115521 0.0241548 
644 0.0101723 0.00467209 0.015892 
645 -0.010929 -0.00502987 0.0159759 
646 -0.018706 -0.00260709 0.0497979 
647 -0.0138989 -0.00521122 0.0150574 
648 0.0103971 -0.00699972 0.0162539 
649 -0.00348407 -0.00094183 0.00148539 
650 -0.009657 -0.000764107 0.0278155 
651 0.0379141 -0.00230489 0.0511142 
652 -0.0119949 -0.00603475 0.0305275 
653 0.0254396 0.001844 0.0546704 
654 -0.0369036 -0.00356573 0.0455512 
655 0.0318983 0.0050085 0.0318279 
656 -0.00573314 0.00260666 0.0129237 
657 -0.0349548 -0.000942515 0.00895139 
658 0.0292712 -0.00381631 0.0238916 
659 0.0223477 0.00177908 0.0489115 
660 -0.0296953 0.00167841 0.0703273 
661 -0.026227 0.00132939 0.0412786 
662 -0.0383752 0.00182908 0.0692092 
663 -0.0172353 0.00577791 0.0361267 
664 0.0300877 -0.000398058 0.0237903 
665 -0.0235324 -0.00416023 0.00255843 
666 0.00542758 0.000668761 0.0262253 
667 -0.0140319 0.00217469 0.0196961 
668 -0.0342025 0.00425272 0.0237338 
669 -0.039113 0.00433607 0.00131233 
670 0.00265959 -0.0045028 0.0315327 
671 0.0199389 -0.00348184 0.0448417 
672 -0.0184801 -0.00144897 0.0443834 
673 0.00104098 -0.00485905 0.0204168 
674 -0.0385454 -0.00187878 0.00136775 
675 -0.0112147 -0.00386708 0.0434004 
676 -0.0352269 6.33053e-05 0.0375293 
677 -0.0166621 0.00511517 0.0192384 
678 0.0322341 0.00690483 0.0506577 
679 -0.0275204 -0.000109683 0.068809 
680 -0.0140659 -0.00466075 0.0315962 
681 0.0129966 -0.00699832 0.0376056 
682 0.00863807 0.0043629 0.0331804 
683 0.0384222 -0.00175051 0.0466412 
684 0.0118237 0.00371016 0.0421254 
685 -0.0393796 -0.00316414 0.00916093 
686 -0.0078123 -0.000633775 0.0388026 
687 0.0394818 -0.00426712 0.0500523 
688 -0.0324706 0.00698605 0.0267717 
689 -0.0256453 -0.00589709 0.0644284 
690 -0.0252846 -0.00603599 0.0590808 
691 -0.0289599 -0.00227669 0.0188482 
692 0.0105006 -0.00526421 0.000508111 
693 -0.010612 0.000300201 0.0115268 
694 0.0346926 -0.00530954 0.0287438 
695 -0.0341876 -0.00410842 0.00968863 
696 0.0152095 0.00498117 0.0525288 
697 -0.0138772 0.00389098 0.0249434 
698 -0.00723837 -0.00690953 0.0121852 
699 -0.00131209 -0.000554169 0.00383317 
700 -0.00503197 0.0018597 0.00398501 
701 0.0182391 0.00559316 0.0544973 
702 -0.00252795 0.00350495 0.0297573 
703 -0.0294421 0.00411486 0.0386057 
704 -0.0368716 -0.00138823 0.0373825 
705 0.0336894 -0.00144951 0.0593402 
706 -0.0277334 -0.00586904 0.0352252 
707 -0.00701203 -0.000337688 0.0417798 
708 0.0269318 -0.000251249 0.0455623 
709 0.0173759 -0.00439961 0.0115065 
710 -0.0384851 0.00290222 0.0440397 
711 0.0256862 -0.00693782 0.0038005 
712 0.0347513 0.00122466 0.0614175 
713 -0.0357838 0.00431874 0.0355472 
714 -0.0181197 -0.00227776 0.0353539 
715 -0.0187048 -0.000777869 0.0362193 
716 -0.0333291 -0.00592171 0.0155957 
717 -0.022455 0.0042413 0.00702433 
718 -0.0183359 0.00613374 0.0360063 
719 0.0117479 -0.00294142 0.0376811 
720 0.0137949 0.00699985 0.0445223 
721 -0.0166923 0.00324979 0.0155524 
722 -0.00234322 0.00699396 0.0256348 
723 0.0218702 -0.00612987 0.0304 
724 0.0100145 -0.00386443 0.0162922 
725 -0.0133678 -0.00219326 0.0203604 
726 -0.030337 0.000722566 0.0304236 
727 -0.0316168 -0.00402323 0.0213779 
728 0.0303003 0.00314092 0.0528761 
729 -0.0368061 0.00568043 0.0352397 
730 -0.0352037 0.00260832 0.0343281 
731 -0.0150993 -0.00440059 0.0409903 
732 -0.0352283 0.00221478 0.0391465 
733 0.000250188 -0.00693992 0.0334316 
734 0.0143199 0.00609961 0.0274203 
735 -0.00359213 0.00364221 0.032081 
736 0.0101928 0.000567191 0.0269466 
737 -0.00345778 -0.0050744 0.00913289 
738 0.0248207 0.00203969 0.0539076 
739 0.0248943 0.0062431 0.0218039 
740 0.0232386 0.00632945 0.0322384 
741 0.00886313 0.00320092 0.0130345 
742 -0.0348962 -0.00523357 0.0433752 
743 0.00687905 -0.00173265 0.025511 
744 -0.0337093 -0.00699942 0.0394367 
745 0.0157475 0.00699482 0.0283043 
746 0.00181182 0.00580467 0.0321755 
747 0.0197824 -0.00294928 0.0317251 
748 -0.0335626 -0.00405354 0.0140845 
749 0.0309997 -0.00612662 0.000505044 
750 -0.0338689 0.0013745 0.0368254 
751 0.00866157 -0.0061519 0.0193183 
752 -0.0117592 -0.00352426 0.0330872 
753 0.0320107 -0.00393837 0.0329887 
754 -0.00192171 0.00367932 0.0128096 
755 0.0290831 0.00522432 0.0242053 
756 -0.0161504 0.00368987 0.0135064 
757 -0.00423908 -0.00246226 0.00679923 
758 -0.0114492 -0.00208006 0.0182597 
759 -0.020967 0.00600037 0.00167825 
760 -0.0143254 -0.0038734 0.0115761 
761 0.0263348 -0.000187931 0.0289427 
762 0.03721 0.00306819 0.0523899 
763 -0.022629 -0.0061139 0.0550664 
764 -0.00530654 -0.00699426 0.0175314 
765 -0.0358914 0.00372058 0.0230904 
766 0.0227911 0.00436047 0.0286125 
767 -0.0185126 0.0028162 0.0577347 
768 0.0315164 -0.00505103 0.0405678 
769 0.0138647 -0.00272473 0.0455386 
770 -0.0391232 0.00215998 0.0106094 
771 0.0317711 0.00337762 0.0378462 
772 0.0170687 0.00699849 0.0470439 
773 0.0205301 0.00462808 0.0502455 
774 0.0201469 -0.00168386 0.056568 
775 -0.0281705 -0.00504223 0.0439991 
776 0.00437444 0.000607788 0.00238631 
777 0.0311506 -0.000492087 0.0148157 
778 0.0375034 -0.00612221 0.0311678 
779 0.0316206 0.00154802 0.0212448 
780 -0.0148808 -0.00319442 0.026521 
781 -0.0242556 -0.00604724 0.0327916 
782 -0.0116873 -0.00400821 0.0177725 
783 0.00330886 -0.00600953 0.00527857 
784 -0.0183981 0.00440919 0.0187949 
785 -0.0331445 0.000947429 0.000500333 
786 -0.0371388 -0.00335672 0.0206046 
787 -0.0197397 0.00345625 0.0414144 
788 -0.0197395 -0.00699954 0.0341985 
789 -0.0304543 0.00598508 0.0195765 
790 -0.00815507 0.00163327 0.0165026 
791 -0.0203715 -0.00317914 0.0174994 
792 -0.0160898 0.00222784 0.0446319 
793 -0.00743186 0.000637238 0.0326572 
794 -0.0365913 -0.00285695 0.0222547 
795 0.0304483 -0.00238688 0.0159638 
796 -0.0268474 -0.000630558 0.0427733 
797 0.00613063 -0.00694682 0.00633747 
798 0.00917746 -0.00613884 0.0438298 
799 -0.0322383 -0.00242366 0.0219933 
800 0.0393546 0.000909872 0.0101793 
801 -0.0116329 0.00520926 0.0159089 
802 -0.00546933 0.0026607 0.0119561 
803 -0.0332752 -0.00695268 0.0535051 