/*--------------------------------*- C++ -*----------------------------------*\
| =========                 |                                                 |
| \\      /  F ield         | OpenFOAM: The Open Source CFD Toolbox           |
|  \\    /   O peration     | Version:  2.3.x                                 |
|   \\  /    A nd           | Web:      www.OpenFOAM.org                      |
|    \\/     M anipulation  |                                                 |
\*---------------------------------------------------------------------------*/
FoamFile
{
    version     2.0;
    format      ascii;
    class       volScalarField;
    location    "0";
    object      alpha2Rec;
}
// * * * * * * * * * * * * * * * * * * * * * * * * * * * * * * * * * * * * * //

dimensions      [0 0 0 0 0 0 0];

internalField   nonuniform List<scalar> 
44000
(
1
1
1
1
1
1
1
1
1
1
1
1
1
1
1
1
1
1
1
1
1
1
1
1
1
1
1
1
1
1
1
1
1
1
1
1
1
1
1
1
1
1
1
1
1
1
1
1
1
1
1
1
1
1
1
1
1
1
1
1
1
1
1
1
1
1
1
0.999992
1
1
1
1
1
1
1
1
1
1
1
1
1
1
1
1
1
1
1
1
1
1
1
1
1
1
1
1
1
1
1
1
1
1
1
1
1
1
1
1
1
1
1
1
1
1
1
1
1
1
1
1
1
1
1
1
1
1
1
1
1
1
1
1
1
1
1
0.999998
0.999999
0.999999
0.999999
0.999999
0.999999
0.999999
0.999999
0.999999
0.999999
0.999999
0.999999
0.999999
0.999999
0.999999
0.999999
0.999999
0.999999
0.999999
0.999999
0.999999
0.999999
0.999999
0.999999
0.999999
0.999999
0.999999
0.999999
0.999999
0.999999
0.999999
0.999999
0.999999
0.999999
0.999999
0.999999
0.999999
0.999999
0.999999
0.999999
0.999999
0.999999
0.999999
0.999999
0.999999
0.999999
0.999999
0.999999
0.999999
0.999999
0.999999
0.999999
0.999999
0.999999
0.999999
0.999999
0.999999
0.999999
0.999999
0.999999
0.999999
0.999999
0.999999
0.999999
0.999999
0.999999
0.999999
0.999999
0.999996
0.999999
0.999999
0.999999
0.999999
0.999999
0.999999
0.999999
0.999999
0.999999
0.999999
0.999999
0.999999
0.999999
0.999999
0.999999
0.999999
0.999999
0.999999
0.999999
0.999999
0.999999
0.999999
0.999999
0.999999
0.999999
0.999999
0.999999
0.999999
0.999999
0.999999
0.999999
0.999999
0.999999
0.999999
0.999999
0.999999
0.999999
0.999999
0.999999
0.999999
0.999999
0.999999
0.999999
0.999999
0.999999
0.999999
0.999999
0.999999
0.999999
0.999999
0.999999
0.999999
0.999999
0.999999
0.999999
0.999999
0.999999
0.999999
0.999999
0.999999
0.999999
0.999999
0.999999
0.999999
0.999999
0.999999
0.999999
0.999997
0.999998
0.999998
0.999998
0.999998
0.999998
0.999998
0.999998
0.999998
0.999998
0.999998
0.999998
0.999998
0.999998
0.999998
0.999998
0.999998
0.999998
0.999998
0.999998
0.999998
0.999998
0.999998
0.999998
0.999998
0.999998
0.999998
0.999998
0.999998
0.999998
0.999998
0.999998
0.999998
0.999998
0.999998
0.999998
0.999998
0.999998
0.999998
0.999998
0.999998
0.999998
0.999998
0.999998
0.999998
0.999998
0.999998
0.999998
0.999998
0.999998
0.999998
0.999998
0.999998
0.999998
0.999998
0.999998
0.999998
0.999998
0.999998
0.999998
0.999998
0.999998
0.999998
0.999998
0.999998
0.999998
0.999998
0.999998
0.999998
0.999996
0.999996
0.999996
0.999996
0.999996
0.999996
0.999996
0.999996
0.999996
0.999996
0.999997
0.999997
0.999997
0.999997
0.999997
0.999998
0.999998
0.999996
0.999996
0.999996
0.999996
0.999996
0.999996
0.999996
0.999996
0.999996
0.999996
0.999996
0.999996
0.999997
0.999997
0.999997
0.999997
0.999997
0.999996
0.999996
0.999996
0.999996
0.999995
0.999995
0.999995
0.999995
0.999996
0.999996
0.999996
0.999996
0.999996
0.999997
0.999997
0.999997
0.999997
0.999995
0.999995
0.999995
0.999995
0.999995
0.999995
0.999995
0.999995
0.999995
0.999995
0.999996
0.999996
0.999996
0.999996
0.999997
0.999997
0.999997
0.999993
0.999993
0.999993
0.999993
0.999993
0.999993
0.999993
0.999993
0.999993
0.999993
0.999994
0.999994
0.999994
0.999995
0.999995
0.999996
0.999996
0.999992
0.999993
0.999992
0.999992
0.999992
0.999992
0.999992
0.999992
0.999992
0.999992
0.999993
0.999993
0.999994
0.999994
0.999995
0.999995
0.999996
0.999992
0.999992
0.999992
0.999991
0.999991
0.999991
0.999991
0.999991
0.999991
0.999992
0.999992
0.999993
0.999993
0.999994
0.999994
0.999995
0.999996
0.999991
0.999991
0.999991
0.99999
0.99999
0.99999
0.99999
0.99999
0.99999
0.999991
0.999991
0.999992
0.999992
0.999993
0.999994
0.999994
0.999995
0.999987
0.999988
0.999988
0.999987
0.999987
0.999987
0.999987
0.999988
0.999988
0.999989
0.999989
0.99999
0.999991
0.999992
0.999992
0.999993
0.999994
0.999986
0.999987
0.999986
0.999986
0.999986
0.999986
0.999986
0.999986
0.999986
0.999987
0.999988
0.999988
0.999989
0.99999
0.999991
0.999992
0.999993
0.999984
0.999985
0.999985
0.999984
0.999984
0.999984
0.999984
0.999984
0.999984
0.999985
0.999986
0.999987
0.999988
0.999989
0.99999
0.999991
0.999992
0.999982
0.999983
0.999982
0.999982
0.999982
0.999981
0.999982
0.999982
0.999982
0.999983
0.999984
0.999985
0.999987
0.999988
0.999989
0.99999
0.999992
0.99998
0.99998
0.999981
0.99998
0.99998
0.99998
0.999981
0.999981
0.999982
0.999983
0.999984
0.999985
0.999986
0.999987
0.999988
0.99999
0.999991
0.999977
0.999978
0.999977
0.999977
0.999977
0.999977
0.999977
0.999977
0.999978
0.999979
0.99998
0.999982
0.999983
0.999985
0.999986
0.999988
0.999989
0.999974
0.999975
0.999975
0.999974
0.999974
0.999974
0.999974
0.999975
0.999975
0.999976
0.999978
0.999979
0.999981
0.999982
0.999984
0.999986
0.999988
0.99997
0.999972
0.999972
0.999971
0.999971
0.999971
0.999971
0.999972
0.999972
0.999973
0.999975
0.999977
0.999978
0.99998
0.999982
0.999984
0.999987
0.999973
0.999973
0.999974
0.999974
0.999974
0.999974
0.999974
0.999974
0.999975
0.999976
0.999977
0.999978
0.99998
0.999981
0.999983
0.999985
0.999987
0.999965
0.999966
0.999966
0.999966
0.999965
0.999965
0.999966
0.999966
0.999968
0.999969
0.999971
0.999973
0.999975
0.999977
0.999979
0.999982
0.999984
0.999962
0.999963
0.999964
0.999963
0.999963
0.999963
0.999964
0.999964
0.999965
0.999966
0.999968
0.99997
0.999972
0.999974
0.999977
0.999979
0.999982
0.999958
0.99996
0.99996
0.99996
0.99996
0.99996
0.99996
0.99996
0.999961
0.999962
0.999964
0.999966
0.999968
0.999971
0.999974
0.999977
0.99998
0.999968
0.999968
0.999969
0.999969
0.999968
0.999968
0.999969
0.999969
0.999969
0.99997
0.999971
0.999972
0.999974
0.999975
0.999977
0.99998
0.999982
0.999952
0.999953
0.999954
0.999954
0.999953
0.999953
0.999954
0.999955
0.999956
0.999957
0.999959
0.999962
0.999965
0.999968
0.999971
0.999974
0.999977
0.999951
0.999953
0.999954
0.999954
0.999953
0.999953
0.999953
0.999954
0.999954
0.999956
0.999957
0.999959
0.999962
0.999965
0.999968
0.999971
0.999975
0.999948
0.99995
0.999951
0.999951
0.99995
0.999949
0.999949
0.999949
0.99995
0.999951
0.999953
0.999955
0.999958
0.999961
0.999964
0.999968
0.999971
0.999966
0.999966
0.999966
0.999966
0.999965
0.999965
0.999965
0.999965
0.999965
0.999965
0.999966
0.999967
0.999968
0.99997
0.999972
0.999974
0.999977
0.999942
0.999943
0.999944
0.999943
0.999942
0.999942
0.999942
0.999943
0.999944
0.999945
0.999948
0.99995
0.999954
0.999957
0.999961
0.999965
0.99997
0.999945
0.999946
0.999946
0.999946
0.999944
0.999944
0.999943
0.999943
0.999943
0.999945
0.999946
0.999949
0.999951
0.999955
0.999958
0.999962
0.999966
0.999943
0.999944
0.999945
0.999943
0.999942
0.99994
0.999939
0.999938
0.999939
0.99994
0.999941
0.999943
0.999946
0.99995
0.999953
0.999958
0.999962
0.999966
0.999965
0.999965
0.999965
0.999964
0.999963
0.999962
0.999962
0.999961
0.999961
0.999962
0.999962
0.999963
0.999965
0.999966
0.999969
0.999971
0.999937
0.999936
0.999936
0.999934
0.999933
0.999932
0.999931
0.999931
0.999932
0.999933
0.999936
0.999938
0.999942
0.999946
0.999951
0.999956
0.999961
0.999941
0.999941
0.99994
0.999938
0.999936
0.999933
0.999932
0.999931
0.999931
0.999932
0.999934
0.999937
0.99994
0.999944
0.999948
0.999953
0.999957
0.999942
0.999941
0.99994
0.999937
0.999933
0.99993
0.999928
0.999926
0.999926
0.999927
0.999928
0.999931
0.999934
0.999938
0.999942
0.999947
0.999953
0.999967
0.999965
0.999965
0.999963
0.999962
0.999961
0.99996
0.999959
0.999959
0.999959
0.999959
0.999959
0.99996
0.999961
0.999962
0.999964
0.999966
0.999934
0.999931
0.99993
0.999927
0.999923
0.999921
0.999919
0.999918
0.999919
0.99992
0.999923
0.999926
0.99993
0.999935
0.99994
0.999945
0.999951
0.99994
0.999937
0.999934
0.99993
0.999925
0.999921
0.999918
0.999916
0.999916
0.999917
0.99992
0.999923
0.999927
0.999932
0.999937
0.999942
0.999948
0.999941
0.999938
0.999934
0.999928
0.999923
0.999918
0.999914
0.999911
0.999911
0.999911
0.999913
0.999916
0.99992
0.999925
0.99993
0.999936
0.999942
0.999967
0.999965
0.999964
0.999962
0.99996
0.999958
0.999957
0.999957
0.999957
0.999957
0.999957
0.999957
0.999958
0.999958
0.999959
0.99996
0.999962
0.999933
0.999927
0.999923
0.999917
0.999912
0.999907
0.999904
0.999902
0.999903
0.999905
0.999908
0.999912
0.999917
0.999922
0.999928
0.999935
0.999941
0.999938
0.999933
0.999927
0.999919
0.999911
0.999905
0.9999
0.999897
0.999897
0.999899
0.999902
0.999906
0.999912
0.999918
0.999924
0.999931
0.999938
0.99994
0.999933
0.999926
0.999917
0.999908
0.9999
0.999895
0.999891
0.999891
0.999892
0.999895
0.999899
0.999904
0.99991
0.999917
0.999924
0.999931
0.999967
0.999964
0.999962
0.999959
0.999957
0.999956
0.999956
0.999955
0.999955
0.999956
0.999956
0.999956
0.999956
0.999957
0.999957
0.999958
0.999959
0.999933
0.999923
0.999914
0.999905
0.999896
0.999888
0.999884
0.999881
0.999882
0.999884
0.999889
0.999894
0.999901
0.999908
0.999916
0.999923
0.999931
0.999937
0.999927
0.999917
0.999904
0.999893
0.999884
0.999878
0.999874
0.999874
0.999876
0.99988
0.999886
0.999893
0.999901
0.99991
0.999918
0.999927
0.999939
0.999928
0.999916
0.999902
0.999889
0.999878
0.999871
0.999866
0.999866
0.999868
0.999872
0.999878
0.999885
0.999893
0.999902
0.99991
0.999919
0.999967
0.999963
0.99996
0.999957
0.999955
0.999954
0.999954
0.999955
0.999955
0.999955
0.999956
0.999956
0.999956
0.999956
0.999956
0.999957
0.999957
0.999931
0.999916
0.999902
0.999887
0.999874
0.999864
0.999857
0.999854
0.999855
0.999859
0.999865
0.999873
0.999882
0.999891
0.999901
0.999911
0.99992
0.999935
0.99992
0.999903
0.999886
0.99987
0.999858
0.999851
0.999846
0.999846
0.999849
0.999855
0.999863
0.999872
0.999882
0.999893
0.999904
0.999914
0.999937
0.99992
0.999902
0.999882
0.999864
0.99985
0.999842
0.999836
0.999836
0.999839
0.999845
0.999853
0.999862
0.999873
0.999884
0.999895
0.999906
0.999967
0.999961
0.999957
0.999954
0.999953
0.999953
0.999954
0.999954
0.999955
0.999956
0.999956
0.999956
0.999956
0.999956
0.999956
0.999956
0.999956
0.999929
0.999907
0.999886
0.999865
0.999846
0.999833
0.999824
0.999822
0.999824
0.999829
0.999836
0.999847
0.999859
0.999872
0.999884
0.999897
0.999909
0.999934
0.999911
0.999887
0.999863
0.999842
0.999827
0.999818
0.999812
0.999814
0.999818
0.999826
0.999836
0.999847
0.99986
0.999874
0.999887
0.9999
0.999935
0.999911
0.999885
0.999857
0.999834
0.999817
0.999807
0.9998
0.999802
0.999806
0.999814
0.999824
0.999837
0.99985
0.999864
0.999878
0.999891
0.999967
0.999959
0.999955
0.999953
0.999952
0.999953
0.999954
0.999955
0.999956
0.999957
0.999957
0.999958
0.999958
0.999957
0.999957
0.999956
0.999956
0.999927
0.999896
0.999866
0.999837
0.999813
0.999798
0.999788
0.999788
0.99979
0.999796
0.999806
0.999818
0.999833
0.999849
0.999865
0.999881
0.999896
0.999932
0.9999
0.999867
0.999835
0.999808
0.99979
0.999779
0.999775
0.999777
0.999783
0.999793
0.999806
0.99982
0.999836
0.999853
0.999869
0.999885
0.999933
0.999899
0.999863
0.999827
0.999798
0.999779
0.999767
0.999762
0.999764
0.99977
0.99978
0.999793
0.999808
0.999825
0.999842
0.999859
0.999876
0.999966
0.999956
0.999952
0.999951
0.999951
0.999952
0.999954
0.999956
0.999957
0.999958
0.999959
0.999959
0.999959
0.999959
0.999958
0.999957
0.999956
0.999925
0.999882
0.999841
0.999804
0.999777
0.999762
0.999755
0.999756
0.999759
0.999766
0.999776
0.99979
0.999806
0.999825
0.999844
0.999863
0.999881
0.99993
0.999887
0.999843
0.999801
0.999769
0.999749
0.999736
0.999734
0.999738
0.999746
0.999758
0.999773
0.999791
0.99981
0.99983
0.99985
0.999869
0.999932
0.999885
0.999837
0.999791
0.999758
0.999738
0.999726
0.999725
0.999727
0.999734
0.999746
0.999761
0.999779
0.999798
0.999819
0.999839
0.999859
1
1
1
1
1
1
1
1
1
1
1
1
0.999822
0.999882
0.999944
0.999977
0.999992
0.999997
0.975281
0.986561
0.995076
0.999071
0.998172
0.995202
1
1
1
1
1
1
1
1
1
1
1
1
0.999774
0.999838
0.999915
0.999963
0.999986
0.999995
0.975713
0.977323
0.988455
0.997591
0.994288
0.987866
0.999999
0.999999
0.999999
0.999999
0.999999
0.999999
0.999999
0.999999
0.999999
0.999999
0.999999
0.999999
0.99975
0.999506
0.999657
0.99982
0.999918
0.999918
0.985207
0.957682
0.947051
0.966259
0.976787
0.972929
0.999999
0.999999
0.999999
0.999999
0.999999
0.999999
0.999999
0.999998
0.999996
0.999995
0.999996
0.999997
0.999862
0.999041
0.998238
0.997522
0.998461
0.99917
0.994267
0.967494
0.915526
0.886996
0.907231
0.932423
0.999999
0.999999
0.999999
0.999999
0.999999
0.999999
0.999998
0.999997
0.999986
0.999948
0.999951
0.999972
0.999964
0.999126
0.996276
0.989676
0.987035
0.991525
0.998291
0.982121
0.93021
0.843468
0.819348
0.846344
0.999998
0.999998
0.999998
0.999998
0.999998
0.999998
0.999998
0.999996
0.999975
0.999877
0.999455
0.999599
0.999993
0.999435
0.99626
0.985492
0.955037
0.959391
0.999609
0.992317
0.955275
0.864618
0.766925
0.774715
0.999997
0.999997
0.999997
0.999997
0.999996
0.999992
0.999996
0.999996
0.999973
0.999815
0.99867
0.996713
0.999996
0.999784
0.997126
0.986536
0.944517
0.902662
0.999954
0.997253
0.976517
0.902603
0.781192
0.736072
0.999995
0.999995
0.999996
0.999996
0.999994
0.99993
0.999994
0.999995
0.99998
0.999808
0.99838
0.987266
0.999994
0.999956
0.998392
0.989506
0.952143
0.859008
0.999991
0.999132
0.989246
0.938535
0.817682
0.739053
0.999992
0.999993
0.999994
0.999995
0.999992
0.999852
0.99999
0.999992
0.999987
0.999848
0.998499
0.983578
0.99999
0.999987
0.999291
0.993202
0.963966
0.867423
0.999989
0.999793
0.995538
0.964745
0.864591
0.751049
0.999988
0.99999
0.999991
0.999993
0.999991
0.999864
0.999986
0.999989
0.999988
0.999914
0.9988
0.985789
0.999985
0.999986
0.99977
0.996272
0.9751
0.888895
0.999984
0.999964
0.998323
0.981351
0.906468
0.777597
0.999984
0.999986
0.999988
0.999991
0.99999
0.999894
0.999981
0.999984
0.999987
0.99996
0.999165
0.989355
0.999978
0.999983
0.999945
0.998234
0.984066
0.916061
0.999977
0.999977
0.999422
0.990831
0.939203
0.817474
0.999979
0.999982
0.999985
0.999988
0.999988
0.999923
0.999974
0.999977
0.999983
0.999976
0.999493
0.992667
0.99997
0.999976
0.999974
0.999241
0.990544
0.940547
0.999967
0.999973
0.999834
0.995766
0.962745
0.860107
0.999974
0.999977
0.99998
0.999984
0.999986
0.999947
0.999966
0.999971
0.999978
0.999977
0.999738
0.995222
0.999962
0.999968
0.999972
0.999708
0.994751
0.959634
0.999958
0.999966
0.999946
0.998174
0.978505
0.898152
0.999969
0.999973
0.999976
0.99998
0.999984
0.999963
0.999957
0.999963
0.99997
0.999975
0.999883
0.997036
0.999954
0.99996
0.999968
0.999898
0.99729
0.973599
0.999948
0.999958
0.999957
0.999238
0.988231
0.92909
0.999965
0.999968
0.999972
0.999975
0.999981
0.999971
0.999948
0.999955
0.999962
0.999971
0.999944
0.998274
0.999945
0.999951
0.999961
0.999949
0.998676
0.98336
0.999938
0.999947
0.999954
0.999687
0.993764
0.952549
0.999961
0.999964
0.999967
0.999971
0.999978
0.999974
0.999939
0.999947
0.999954
0.999965
0.99996
0.999019
0.999935
0.999943
0.999954
0.999953
0.999348
0.9898
0.999928
0.999937
0.999948
0.999866
0.996781
0.969248
0.999958
0.999961
0.999964
0.999967
0.999974
0.999973
0.999929
0.999938
0.999947
0.999959
0.999959
0.999434
0.999925
0.999934
0.999945
0.999952
0.99968
0.993864
0.999917
0.999927
0.999941
0.999921
0.998372
0.980586
0.999957
0.999958
0.999961
0.999964
0.999971
0.999971
0.999919
0.99993
0.999939
0.999951
0.999958
0.999677
0.999913
0.999924
0.999936
0.999948
0.999837
0.996337
0.999905
0.999916
0.999932
0.99993
0.999146
0.987867
0.999956
0.999956
0.999958
0.999961
0.999967
0.99997
0.999909
0.999921
0.999932
0.999943
0.999955
0.999814
0.9999
0.999914
0.999927
0.999942
0.999901
0.997791
0.999891
0.999905
0.999923
0.999928
0.999518
0.992352
0.999956
0.999956
0.999956
0.999958
0.999963
0.999968
0.999897
0.999912
0.999924
0.999936
0.999951
0.999883
0.999887
0.999903
0.999917
0.999935
0.999922
0.998644
0.999877
0.999893
0.999912
0.999924
0.999711
0.995078
1
1
1
1
1
1
1
1
1
1
1
1
1
1
1
1
1
1
1
1
1
1
1
1
1
1
1
1
1
1
1
1
1
1
0.999999
1
1
1
1
1
1
1
1
1
1
1
1
1
1
1
1
0.998315
0.999734
0.999968
0.999994
0.999998
0.999999
0.999999
1
1
1
1
1
1
1
1
1
1
1
1
1
1
1
1
1
1
1
1
1
1
1
1
1
1
1
1
1
1
1
1
1
1
1
1
1
1
1
1
1
1
1
1
0.999998
0.999999
1
1
1
1
1
1
1
1
1
1
1
1
1
1
1
0.99474
0.999192
0.999933
0.999992
0.999998
0.999999
0.999999
1
1
1
1
1
1
1
1
1
1
0.999999
0.999999
0.999999
0.999999
1
1
1
1
1
1
1
1
0.999999
0.999999
0.999999
0.999999
0.999999
0.999999
0.999999
0.999999
1
1
1
1
1
1
1
1
1
0.999999
0.999999
0.999999
0.999999
0.999999
0.999938
0.999968
0.999989
0.999997
0.999999
1
1
1
1
1
1
1
0.999999
0.999999
0.999999
0.999999
0.999999
0.983005
0.996075
0.999697
0.999979
0.999997
0.999999
1
1
1
1
1
1
0.999999
0.999999
0.999999
0.999999
0.999999
0.999999
0.999999
0.999999
0.999999
0.999999
0.999999
0.999999
1
1
1
0.999999
0.999999
0.999999
0.999999
0.999999
0.999999
0.999999
0.999998
0.999999
0.999999
0.999999
0.999999
0.999999
1
1
1
1
0.999999
0.999999
0.999999
0.999999
0.999999
0.999999
0.999999
0.999628
0.999869
0.999964
0.99999
0.999997
0.999999
0.999999
1
1
1
0.999999
0.999999
0.999999
0.999999
0.999999
0.999999
0.999999
0.963356
0.990361
0.999142
0.999947
0.999994
0.999999
0.999999
1
1
1
0.999999
0.999999
0.999999
0.999999
0.999999
0.999999
0.999999
0.999999
0.999999
0.999999
0.999999
0.999999
0.999999
0.999999
0.999999
0.999999
0.999999
0.999999
0.999999
0.999999
0.999999
0.999999
0.999999
0.999999
0.999988
0.999995
0.999997
0.999998
0.999999
0.999999
0.999999
0.999999
0.999999
0.999999
0.999999
0.999999
0.999999
0.999999
0.999999
0.999999
0.999999
0.996944
0.999389
0.999907
0.999982
0.999994
0.999998
0.999999
0.999999
0.999999
0.999999
0.999999
0.999999
0.999999
0.999999
0.999999
0.999999
0.999999
0.916853
0.977969
0.997878
0.999883
0.999988
0.999998
0.999999
0.999999
0.999999
0.999999
0.999999
0.999999
0.999999
0.999999
0.999999
0.999999
0.999999
0.999998
0.999998
0.999998
0.999999
0.999999
0.999999
0.999999
0.999999
0.999999
0.999999
0.999999
0.999999
0.999999
0.999999
0.999999
0.999999
0.999999
0.999851
0.999966
0.999992
0.999997
0.999998
0.999999
0.999999
0.999999
0.999999
0.999999
0.999999
0.999999
0.999999
0.999999
0.999999
0.999999
0.999999
0.979285
0.995626
0.99962
0.999968
0.999992
0.999997
0.999999
0.999999
0.999999
0.999999
0.999999
0.999999
0.999999
0.999999
0.999999
0.999999
0.999999
0.839764
0.946134
0.994079
0.999755
0.999982
0.999997
0.999999
0.999999
0.999999
0.999999
0.999999
0.999999
0.999999
0.999999
0.999999
0.999999
0.999999
0.999993
0.999995
0.999996
0.999997
0.999998
0.999999
0.999999
0.999999
0.999999
0.999999
0.999999
0.999999
0.999999
0.999999
0.999998
0.999998
0.999998
0.998208
0.999572
0.999944
0.999991
0.999997
0.999999
0.999999
0.999999
0.999999
0.999999
0.999999
0.999999
0.999999
0.999999
0.999998
0.999998
0.999998
0.925454
0.97444
0.997171
0.999882
0.99999
0.999996
0.999998
0.999999
0.999999
0.999999
0.999999
0.999999
0.999999
0.999999
0.999998
0.999998
0.999998
0.771855
0.886368
0.980876
0.999219
0.999972
0.999996
0.999999
0.999999
0.999999
0.999999
0.999999
0.999999
0.999999
0.999999
0.999998
0.999998
0.999998
0.999941
0.999967
0.999984
0.999992
0.999996
0.999998
0.999999
0.999999
0.999999
0.999999
0.999999
0.999999
0.999998
0.999998
0.999998
0.999998
0.999998
0.988853
0.995404
0.9993
0.999946
0.999994
0.999998
0.999999
0.999999
0.999999
0.999999
0.999999
0.999999
0.999998
0.999998
0.999998
0.999998
0.999998
0.861854
0.916962
0.982416
0.999039
0.999973
0.999996
0.999998
0.999999
0.999999
0.999999
0.999999
0.999999
0.999998
0.999998
0.999998
0.999998
0.999998
0.749524
0.826681
0.949547
0.996568
0.999922
0.999995
0.999999
0.999999
0.999999
0.999999
0.999999
0.999999
0.999998
0.999998
0.999998
0.999998
0.999998
0.999647
0.999783
0.999921
0.999974
0.99999
0.999996
0.999998
0.999999
0.999999
0.999999
0.999999
0.999998
0.999998
0.999998
0.999998
0.999998
0.999998
0.966322
0.977046
0.99392
0.999471
0.999973
0.999997
0.999999
0.999999
0.999999
0.999999
0.999999
0.999998
0.999998
0.999998
0.999998
0.999998
0.999998
0.815196
0.849642
0.941678
0.993566
0.999816
0.999995
0.999999
0.999999
0.999999
0.999999
0.999999
0.999998
0.999998
0.999998
0.999998
0.999998
0.999998
0.753487
0.792158
0.904718
0.986864
0.999623
0.999992
0.999999
0.999999
0.999999
0.999999
0.999999
0.999998
0.999998
0.999998
0.999998
0.999998
0.999998
0.99857
0.998817
0.999509
0.999893
0.999976
0.999992
0.999997
0.999999
0.999999
0.999999
0.999998
0.999998
0.999998
0.999998
0.999997
0.999997
0.999997
0.93909
0.944453
0.973841
0.996071
0.999818
0.999993
0.999999
0.999999
0.999999
0.999999
0.999998
0.999998
0.999998
0.999997
0.999997
0.999997
0.999997
0.802353
0.810772
0.885007
0.974848
0.998738
0.999977
0.999999
0.999999
0.999999
0.999999
0.999998
0.999998
0.999998
0.999997
0.999997
0.999997
0.999997
0.762722
0.783454
0.864559
0.965698
0.99815
0.99997
0.999999
0.999999
0.999999
0.999999
0.999998
0.999998
0.999998
0.999997
0.999997
0.999997
0.999997
0.997332
0.995368
0.997192
0.99929
0.999907
0.999984
0.999995
0.999998
0.999999
0.999999
0.999998
0.999998
0.999997
0.999997
0.999997
0.999996
0.999996
0.937589
0.908899
0.935602
0.982383
0.998725
0.999963
0.999998
0.999999
0.999999
0.999999
0.999998
0.999998
0.999997
0.999997
0.999997
0.999996
0.999996
0.810888
0.798147
0.840439
0.939427
0.993673
0.999842
0.999997
0.999999
0.999999
0.999999
0.999998
0.999998
0.999997
0.999997
0.999997
0.999996
0.999996
0.772324
0.787731
0.841376
0.937418
0.992985
0.999838
0.999998
0.999999
0.999999
0.999998
0.999998
0.999998
0.999997
0.999997
0.999997
0.999996
0.999996
0.997446
0.98919
0.990762
0.996408
0.999497
0.999955
0.999993
0.999998
0.999999
0.999998
0.999998
0.999997
0.999997
0.999996
0.999996
0.999995
0.999995
0.944943
0.884432
0.897068
0.952537
0.993446
0.999765
0.999995
0.999999
0.999999
0.999999
0.999998
0.999997
0.999997
0.999996
0.999996
0.999995
0.999995
0.830155
0.799582
0.818204
0.898445
0.979727
0.999105
0.999987
0.999999
0.999999
0.999998
0.999998
0.999997
0.999997
0.999996
0.999996
0.999995
0.999995
0.785693
0.794206
0.830331
0.910233
0.981723
0.999236
0.999991
0.999999
0.999998
0.999998
0.999998
0.999997
0.999997
0.999996
0.999996
0.999995
0.999995
0.997823
0.982075
0.97999
0.987946
0.997385
0.999804
0.999986
0.999998
0.999998
0.999998
0.999998
0.999997
0.999996
0.999995
0.999995
0.999995
0.999995
0.957208
0.878207
0.874077
0.915548
0.9789
0.998738
0.999973
0.999998
0.999999
0.999998
0.999998
0.999997
0.999996
0.999995
0.999995
0.999994
0.999994
0.857167
0.8042
0.813088
0.866798
0.956127
0.996181
0.999915
0.999998
0.999998
0.999998
0.999998
0.999997
0.999996
0.999995
0.999995
0.999994
0.999994
0.803884
0.805185
0.830607
0.891363
0.9653
0.997151
0.999944
0.999998
0.999998
0.999998
0.999998
0.999997
0.999996
0.999995
0.999995
0.999994
0.999994
0.998297
0.980939
0.965685
0.973071
0.990797
0.999076
0.999957
0.999997
0.999998
0.999998
0.999997
0.999996
0.999995
0.999995
0.999994
0.999993
0.999994
0.969169
0.886339
0.859146
0.885929
0.95477
0.995014
0.999856
0.999997
0.999998
0.999998
0.999998
0.999996
0.999995
0.999995
0.999994
0.999993
0.999993
0.886732
0.812848
0.815441
0.848469
0.929107
0.988729
0.999597
0.999995
0.999998
0.999998
0.999997
0.999996
0.999995
0.999995
0.999994
0.999993
0.999993
0.827783
0.814219
0.834431
0.88063
0.948762
0.992248
0.99975
0.999997
0.999998
0.999998
0.999997
0.999996
0.999995
0.999995
0.999994
0.999993
0.999993
0.998736
0.982375
0.952888
0.955444
0.977273
0.996353
0.999825
0.999994
0.999998
0.999998
0.999997
0.999996
0.999994
0.999994
0.999993
0.999992
0.999992
0.97867
0.902157
0.855672
0.868665
0.927858
0.986405
0.999402
0.99999
0.999998
0.999998
0.999997
0.999996
0.999995
0.999994
0.999993
0.999992
0.999992
0.914006
0.825709
0.819962
0.839225
0.904868
0.975856
0.998504
0.999974
0.999998
0.999998
0.999997
0.999996
0.999995
0.999994
0.999993
0.999992
0.999992
0.855855
0.821765
0.838018
0.875005
0.934269
0.984388
0.99913
0.999986
0.999998
0.999998
0.999997
0.999996
0.999994
0.999994
0.999993
0.999992
0.999992
0.999058
0.984793
0.943167
0.937282
0.957898
0.989438
0.999325
0.999982
0.999998
0.999998
0.999997
0.999995
0.999994
0.999993
0.999992
0.999991
0.999991
0.985524
0.920698
0.858845
0.862837
0.905854
0.972555
0.998005
0.999957
0.999998
0.999998
0.999997
0.999995
0.999994
0.999993
0.999992
0.999991
0.999991
0.936531
0.842601
0.824402
0.839511
0.888545
0.9599
0.995648
0.999881
0.999997
0.999998
0.999997
0.999995
0.999994
0.999993
0.999992
0.999991
0.999991
0.884516
0.829528
0.843456
0.874846
0.924322
0.974959
0.997555
0.999941
0.999997
0.999997
0.999996
0.999995
0.999994
0.999993
0.999992
0.999991
0.999991
0.999291
0.98732
0.943597
0.921184
0.936952
0.97707
0.997766
0.999935
0.999997
0.999997
0.999996
0.999994
0.999993
0.999992
0.999991
0.99999
0.99999
0.990229
0.9378
0.866225
0.864193
0.892571
0.956457
0.994786
0.999838
0.999997
0.999998
0.999997
0.999995
0.999993
0.999992
0.999991
0.99999
0.99999
0.953947
0.862337
0.82866
0.8411
0.878851
0.94434
0.990328
0.999604
0.999994
0.999997
0.999996
0.999994
0.999993
0.999992
0.999991
0.99999
0.99999
0.910702
0.839276
0.847692
0.875579
0.917997
0.965843
0.994579
0.999793
0.999996
0.999997
0.999996
0.999994
0.999993
0.999992
0.999991
0.99999
0.99999
0.99947
0.989429
0.94555
0.908786
0.917724
0.960119
0.994073
0.999781
0.999995
0.999997
0.999996
0.999994
0.999992
0.99999
0.999989
0.999989
0.999989
0.993418
0.951784
0.877114
0.866954
0.885919
0.941694
0.989363
0.999534
0.999992
0.999997
0.999996
0.999994
0.999992
0.999991
0.99999
0.999989
0.999989
0.966856
0.882735
0.833517
0.843441
0.874027
0.931471
0.982867
0.998915
0.99998
0.999997
0.999996
0.999994
0.999992
0.999991
0.99999
0.999989
0.999989
0.932254
0.851286
0.852485
0.876786
0.914086
0.958241
0.990313
0.999446
0.99999
0.999996
0.999995
0.999994
0.999992
0.999991
0.99999
0.999989
0.999989
0.999603
0.991025
0.948202
0.899891
0.902406
0.941222
0.987407
0.999383
0.999988
0.999997
0.999996
0.999993
0.999991
0.999989
0.999988
0.999987
0.999987
0.995533
0.962525
0.889725
0.870923
0.886257
0.931121
0.982272
0.998859
0.999977
0.999997
0.999996
0.999994
0.999991
0.99999
0.999989
0.999987
0.999987
0.976119
0.901669
0.839383
0.846003
0.872101
0.921869
0.974458
0.997464
0.999933
0.999996
0.999996
0.999993
0.999991
0.999989
0.999988
0.999987
0.999987
0.949037
0.8661
0.85634
0.877963
0.912035
0.952457
0.985379
0.998722
0.99997
0.999996
0.999995
0.999993
0.999991
0.999989
0.999988
0.999987
0.999987
0.999695
0.992153
0.950734
0.894155
0.889034
0.9227
0.977812
0.998485
0.999969
0.999996
0.999995
0.999993
0.99999
0.999988
0.999987
0.999986
0.999985
0.996917
0.970494
0.902429
0.875866
0.888394
0.925636
0.9752
0.997609
0.999934
0.999996
0.999995
0.999993
0.99999
0.999989
0.999987
0.999986
0.999986
0.982659
0.917851
0.846298
0.849022
0.871604
0.91532
0.966352
0.995066
0.999813
0.999995
0.999995
0.999993
0.99999
0.999988
0.999987
0.999986
0.999986
0.961654
0.882236
0.859115
0.878808
0.91116
0.948171
0.980568
0.997418
0.999911
0.999995
0.999994
0.999992
0.99999
0.999988
0.999987
0.999986
0.999986
1
1
1
1
1
1
1
1
1
1
1
1
1
1
1
1
0.99956
1
1
1
1
1
1
1
1
1
1
1
1
1
1
1
1
0.999618
1
1
1
1
1
1
1
1
1
1
1
1
1
1
1
1
0.99956
1
1
1
1
1
1
1
1
1
1
1
1
1
1
1
1
0.999875
1
1
1
1
1
1
1
1
1
1
1
1
1
1
1
1
0.999894
1
1
1
1
1
1
1
1
1
1
1
1
1
1
1
1
0.999875
0.999999
0.999999
0.999999
0.999999
0.999999
0.999999
0.999999
0.999999
0.999999
0.999999
0.999999
0.999999
0.999999
0.999999
0.999999
0.999999
0.999814
0.999999
0.999999
0.999999
0.999999
0.999999
0.999999
0.999999
0.999999
0.999999
0.999999
0.999999
0.999999
0.999999
0.999999
0.999999
0.999999
0.999807
0.999999
0.999999
0.999999
0.999999
0.999999
0.999999
0.999999
0.999999
0.999999
0.999999
0.999999
0.999999
0.999999
0.999999
0.999999
0.999999
0.999814
0.999999
0.999999
0.999999
0.999999
0.999999
0.999999
0.999999
0.999999
0.999999
0.999999
0.999999
0.999999
0.999999
0.999999
0.999999
0.999999
0.999915
0.999999
0.999999
0.999999
0.999999
0.999999
0.999999
0.999999
0.999999
0.999999
0.999999
0.999999
0.999999
0.999999
0.999999
0.999999
0.999999
0.999921
0.999999
0.999999
0.999999
0.999999
0.999999
0.999999
0.999999
0.999999
0.999999
0.999999
0.999999
0.999999
0.999999
0.999999
0.999999
0.999999
0.999915
0.999998
0.999998
0.999998
0.999998
0.999998
0.999998
0.999997
0.999998
0.999998
0.999998
0.999998
0.999998
0.999998
0.999998
0.999998
0.999998
0.999985
0.999998
0.999998
0.999998
0.999998
0.999998
0.999997
0.999997
0.999997
0.999998
0.999998
0.999998
0.999998
0.999998
0.999998
0.999998
0.999998
0.999988
0.999998
0.999998
0.999998
0.999998
0.999998
0.999998
0.999997
0.999998
0.999998
0.999998
0.999998
0.999998
0.999998
0.999998
0.999998
0.999998
0.999985
0.999995
0.999995
0.999995
0.999995
0.999995
0.999995
0.999995
0.999995
0.999995
0.999995
0.999995
0.999996
0.999996
0.999996
0.999997
0.999997
0.999996
0.999995
0.999995
0.999995
0.999995
0.999995
0.999994
0.999994
0.999994
0.999995
0.999995
0.999995
0.999995
0.999996
0.999996
0.999996
0.999997
0.999996
0.999995
0.999995
0.999995
0.999995
0.999995
0.999995
0.999995
0.999995
0.999995
0.999995
0.999995
0.999996
0.999996
0.999996
0.999997
0.999997
0.999996
0.99999
0.99999
0.99999
0.999989
0.999989
0.999989
0.999989
0.999989
0.999989
0.99999
0.99999
0.999991
0.999992
0.999993
0.999993
0.999994
0.999995
0.99999
0.99999
0.999989
0.999989
0.999989
0.999988
0.999988
0.999989
0.999989
0.999989
0.99999
0.999991
0.999992
0.999992
0.999993
0.999994
0.999995
0.99999
0.99999
0.99999
0.999989
0.999989
0.999989
0.999989
0.999989
0.999989
0.99999
0.99999
0.999991
0.999992
0.999993
0.999993
0.999994
0.999995
0.999981
0.999981
0.999981
0.99998
0.99998
0.99998
0.99998
0.99998
0.999981
0.999982
0.999983
0.999984
0.999985
0.999987
0.999988
0.99999
0.999992
0.99998
0.99998
0.99998
0.99998
0.999979
0.999979
0.999979
0.99998
0.99998
0.999981
0.999982