/*--------------------------------*- C++ -*----------------------------------*\
| =========                 |                                                 |
| \\      /  F ield         | OpenFOAM: The Open Source CFD Toolbox           |
|  \\    /   O peration     | Version:  2.3.x                                 |
|   \\  /    A nd           | Web:      www.OpenFOAM.org                      |
|    \\/     M anipulation  |                                                 |
\*---------------------------------------------------------------------------*/
FoamFile
{
    version     2.0;
    format      ascii;
    class       volScalarField;
    location    "0";
    object      voidfractionRec;
}
// * * * * * * * * * * * * * * * * * * * * * * * * * * * * * * * * * * * * * //

dimensions      [ 0 0 0 0 0 0 0 ];

internalField   nonuniform List<scalar> 
44000
(
1.8958e-07
1.89616e-07
1.89661e-07
1.89779e-07
1.89873e-07
1.89946e-07
1.89768e-07
1.89464e-07
1.88796e-07
1.87789e-07
1.8657e-07
1.84838e-07
1.82703e-07
1.80273e-07
1.7706e-07
1.74934e-07
1.74903e-07
1.89648e-07
1.91422e-07
1.92465e-07
1.93987e-07
1.95455e-07
1.97022e-07
1.97976e-07
1.98022e-07
1.97519e-07
1.96705e-07
1.95496e-07
1.93628e-07
1.9123e-07
1.88373e-07
1.85164e-07
1.81727e-07
1.77558e-07
1.91932e-07
1.94094e-07
1.94919e-07
1.96424e-07
1.98045e-07
1.99625e-07
2.009e-07
2.01256e-07
2.01047e-07
2.00235e-07
1.99207e-07
1.97691e-07
1.95561e-07
1.92895e-07
1.89505e-07
1.8699e-07
1.79474e-07
1.94065e-07
1.96156e-07
1.96838e-07
1.98287e-07
1.99915e-07
2.0148e-07
2.0295e-07
2.03488e-07
2.03472e-07
2.02912e-07
2.02042e-07
2.00764e-07
1.98974e-07
1.9676e-07
1.94507e-07
1.90477e-07
8.23124e-06
4.17036e-07
4.22883e-07
4.28265e-07
4.34025e-07
4.39619e-07
4.44819e-07
4.47677e-07
4.4711e-07
4.45013e-07
4.41027e-07
4.35035e-07
4.26991e-07
4.16956e-07
4.05142e-07
3.92068e-07
3.77497e-07
3.62625e-07
4.4621e-07
4.48165e-07
4.52352e-07
4.58324e-07
4.6459e-07
4.70074e-07
4.75189e-07
4.75412e-07
4.74158e-07
4.70896e-07
4.65494e-07
4.57999e-07
4.48461e-07
4.37036e-07
4.2389e-07
4.10372e-07
3.96033e-07
4.60626e-07
4.60434e-07
4.63416e-07
4.68732e-07
4.74603e-07
4.79735e-07
4.8479e-07
4.85477e-07
4.84423e-07
4.81592e-07
4.76775e-07
4.69996e-07
4.61299e-07
4.50927e-07
4.3839e-07
4.28408e-07
4.04922e-07
4.69192e-07
4.68221e-07
4.70741e-07
4.75702e-07
4.81454e-07
4.86464e-07
4.91326e-07
4.9304e-07
4.92215e-07
4.89783e-07
4.8552e-07
4.79442e-07
4.71697e-07
4.62261e-07
4.52641e-07
4.3991e-07
2.07286e-06
8.17541e-07
8.11579e-07
8.13922e-07
8.1852e-07
8.23196e-07
8.28005e-07
8.29407e-07
8.28019e-07
8.24163e-07
8.17471e-07
8.07863e-07
7.95405e-07
7.80298e-07
7.62917e-07
7.43946e-07
7.24249e-07
7.05811e-07
8.26388e-07
8.16493e-07
8.21114e-07
8.29239e-07
8.37946e-07
8.44819e-07
8.5184e-07
8.52598e-07
8.50717e-07
8.45863e-07
8.37823e-07
8.26758e-07
8.1296e-07
7.97007e-07
7.78909e-07
7.62595e-07
7.37551e-07
8.4745e-07
8.36329e-07
8.40436e-07
8.47667e-07
8.55206e-07
8.61146e-07
8.6689e-07
8.66703e-07
8.64418e-07
8.59123e-07
8.50776e-07
8.39672e-07
8.26166e-07
8.10907e-07
7.93694e-07
7.80023e-07
7.4986e-07
8.59109e-07
8.46739e-07
8.50519e-07
8.57393e-07
8.64689e-07
8.70316e-07
8.76111e-07
8.76216e-07
8.74317e-07
8.69543e-07
8.61796e-07
8.51298e-07
8.38527e-07
8.23508e-07
8.09439e-07
7.86331e-07
3.53099e-06
1.28045e-06
1.26262e-06
1.26483e-06
1.27079e-06
1.27654e-06
1.28225e-06
1.28132e-06
1.2767e-06
1.26695e-06
1.25185e-06
1.23188e-06
1.20792e-06
1.18105e-06
1.15234e-06
1.12301e-06
1.09451e-06
1.06873e-06
1.28172e-06
1.26041e-06
1.26843e-06
1.28245e-06
1.29614e-06
1.30656e-06
1.31462e-06
1.31305e-06
1.3066e-06
1.29399e-06
1.27543e-06
1.25186e-06
1.22459e-06
1.1954e-06
1.1648e-06
1.13875e-06
1.10032e-06
1.32227e-06
1.29743e-06
1.30472e-06
1.3176e-06
1.3294e-06
1.33922e-06
1.34387e-06
1.34112e-06
1.33285e-06
1.31823e-06
1.29767e-06
1.2723e-06
1.24353e-06
1.2133e-06
1.18216e-06
1.15712e-06
1.11185e-06
1.34175e-06
1.3164e-06
1.32389e-06
1.33717e-06
1.34925e-06
1.35932e-06
1.36457e-06
1.3619e-06
1.35367e-06
1.33897e-06
1.31818e-06
1.29233e-06
1.26313e-06
1.23125e-06
1.20324e-06
1.15822e-06
2.53968e-06
2.07084e-06
2.03781e-06
2.04808e-06
2.07008e-06
2.08988e-06
2.10486e-06
2.10013e-06
2.08292e-06
2.04999e-06
2.00154e-06
1.93982e-06
1.86845e-06
1.79205e-06
1.71489e-06
1.63947e-06
1.5688e-06
1.50635e-06
2.11548e-06
2.0793e-06
2.10181e-06
2.14114e-06
2.17421e-06
2.20488e-06
2.21216e-06
2.20255e-06
2.17626e-06
2.13151e-06
2.06981e-06
1.99464e-06
1.91065e-06
1.82371e-06
1.73834e-06
1.66262e-06
1.58231e-06
2.2196e-06
2.17363e-06
2.19759e-06
2.23941e-06
2.274e-06
2.31003e-06
2.31313e-06
2.30144e-06
2.27062e-06
2.21931e-06
2.14966e-06
2.0658e-06
1.97287e-06
1.87743e-06
1.78317e-06
1.70665e-06
1.59131e-06
2.28791e-06
2.2459e-06
2.27452e-06
2.32394e-06
2.36481e-06
2.40749e-06
2.41397e-06
2.40164e-06
2.36843e-06
2.31264e-06
2.23664e-06
2.14495e-06
2.04368e-06
1.93732e-06
1.84159e-06
1.71159e-06
1.88886e-06
3.8361e-06
3.77783e-06
3.81054e-06
3.87496e-06
3.93678e-06
3.96728e-06
3.94996e-06
3.89698e-06
3.80231e-06
3.66756e-06
3.49862e-06
3.30386e-06
3.09316e-06
2.87647e-06
2.66275e-06
2.45938e-06
2.27671e-06
3.98963e-06
3.92463e-06
3.98369e-06
4.08699e-06
4.16746e-06
4.24907e-06
4.24717e-06
4.21545e-06
4.13859e-06
4.0143e-06
3.84724e-06
3.64575e-06
3.42032e-06
3.18243e-06
2.94468e-06
2.71243e-06
2.51537e-06
4.29695e-06
4.22331e-06
4.2981e-06
4.42448e-06
4.52459e-06
4.62712e-06
4.62498e-06
4.58649e-06
4.49381e-06
4.34551e-06
4.14821e-06
3.91276e-06
3.6518e-06
3.38087e-06
3.10575e-06
2.87266e-06
2.52009e-06
4.58282e-06
4.5246e-06
4.62046e-06
4.77737e-06
4.90273e-06
5.0264e-06
5.02423e-06
4.97966e-06
4.87212e-06
4.70079e-06
4.47416e-06
4.20506e-06
3.90849e-06
3.60045e-06
3.29316e-06
3.01789e-06
2.66412e-06
7.23075e-06
7.12159e-06
7.18543e-06
7.30934e-06
7.43795e-06
7.45503e-06
7.40174e-06
7.26815e-06
7.04993e-06
6.7534e-06
6.39068e-06
5.97682e-06
5.52775e-06
5.0605e-06
4.59537e-06
4.14759e-06
3.73594e-06
7.56352e-06
7.45185e-06
7.57689e-06
7.79247e-06
7.96196e-06
8.10049e-06
8.08127e-06
7.99002e-06
7.80385e-06
7.52256e-06
7.15708e-06
6.72393e-06
6.24257e-06
5.7324e-06
5.2146e-06
4.70083e-06
4.25587e-06
8.43482e-06
8.31465e-06
8.48639e-06
8.76246e-06
8.98042e-06
9.15386e-06
9.1299e-06
9.01696e-06
8.78853e-06
8.44581e-06
8.00315e-06
7.4817e-06
6.90582e-06
6.30338e-06
5.68706e-06
5.13418e-06
4.35034e-06
9.35828e-06
9.24838e-06
9.46358e-06
9.79598e-06
1.00629e-05
1.02448e-05
1.02084e-05
1.00647e-05
9.78755e-06
9.38039e-06
8.86088e-06
8.25383e-06
7.58709e-06
6.89368e-06
6.18424e-06
5.56025e-06
4.62206e-06
1.26737e-05
1.24283e-05
1.24762e-05
1.26416e-05
1.28031e-05
1.27665e-05
1.2623e-05
1.23449e-05
1.19306e-05
1.13913e-05
1.07456e-05
1.00161e-05
9.22867e-06
8.41122e-06
7.59135e-06
6.79404e-06
6.04359e-06
1.35709e-05
1.3338e-05
1.35422e-05
1.3895e-05
1.41927e-05
1.43257e-05
1.42513e-05
1.40263e-05
1.36295e-05
1.30693e-05
1.23669e-05
1.15511e-05
1.06554e-05
9.7147e-06
8.76612e-06
7.83415e-06
6.96757e-06
1.55218e-05
1.52124e-05
1.54671e-05
1.58866e-05
1.62366e-05
1.6381e-05
1.6291e-05
1.60269e-05
1.55653e-05
1.49138e-05
1.40938e-05
1.3136e-05
1.20782e-05
1.09622e-05
9.83212e-06
8.72103e-06
7.72556e-06
1.76811e-05
1.72957e-05
1.75652e-05
1.80235e-05
1.8419e-05
1.85174e-05
1.83906e-05
1.80605e-05
1.75081e-05
1.67433e-05
1.57904e-05
1.46838e-05
1.3464e-05
1.21831e-05
1.08611e-05
9.67302e-06
7.93565e-06
1.99515e-05
1.95084e-05
1.93657e-05
1.95316e-05
1.96258e-05
1.95234e-05
1.92589e-05
1.88206e-05
1.8207e-05
1.74229e-05
1.64806e-05
1.54012e-05
1.42149e-05
1.29594e-05
1.16763e-05
1.04074e-05
9.18938e-06
2.28945e-05
2.23581e-05
2.25211e-05
2.29382e-05
2.3333e-05
2.33298e-05
2.31362e-05
2.26808e-05
2.19652e-05
2.1006e-05
1.98303e-05
1.84769e-05
1.69933e-05
1.54317e-05
1.38462e-05
1.22901e-05
1.07899e-05
2.59345e-05
2.5141e-05
2.52368e-05
2.56596e-05
2.60598e-05
2.60403e-05
2.58404e-05
2.53826e-05
2.46528e-05
2.36577e-05
2.24151e-05
2.09553e-05
1.9321e-05
1.75638e-05
1.57537e-05
1.39072e-05
1.23e-05
2.95406e-05
2.84924e-05
2.84562e-05
2.88637e-05
2.92665e-05
2.92091e-05
2.89608e-05
2.84381e-05
2.76194e-05
2.65051e-05
2.51105e-05
2.34675e-05
2.16212e-05
1.96337e-05
1.75587e-05
1.55093e-05
1.34708e-05
2.7223e-05
2.67579e-05
2.62854e-05
2.64309e-05
2.64411e-05
2.63083e-05
2.60219e-05
2.55643e-05
2.49136e-05
2.4054e-05
2.2974e-05
2.16771e-05
2.01858e-05
1.85395e-05
1.67912e-05
1.50031e-05
1.32346e-05
3.52633e-05
3.42491e-05
3.4006e-05
3.4379e-05
3.47297e-05
3.46092e-05
3.42245e-05
3.35237e-05
3.2488e-05
3.11194e-05
2.94402e-05
2.74914e-05
2.53286e-05
2.30193e-05
2.06374e-05
1.82691e-05
1.5941e-05
3.80864e-05
3.66389e-05
3.61433e-05
3.65007e-05
3.68326e-05
3.67622e-05
3.64815e-05
3.59228e-05
3.50427e-05
3.38262e-05
3.22746e-05
3.04067e-05
2.82597e-05
2.58852e-05
2.33638e-05
2.07251e-05
1.82714e-05
4.22514e-05
4.04597e-05
3.96992e-05
4.00897e-05
4.0454e-05
4.04577e-05
4.02499e-05
3.97174e-05
3.88451e-05
3.75863e-05
3.59341e-05
3.39085e-05
3.15492e-05
2.89154e-05
2.60932e-05
2.3122e-05
2.0405e-05
3.20189e-05
3.19481e-05
3.13203e-05
3.14577e-05
3.15662e-05
3.15676e-05
3.14961e-05
3.12619e-05
3.08238e-05
3.01566e-05
2.92149e-05
2.79762e-05
2.64397e-05
2.46259e-05
2.25801e-05
2.03719e-05
1.80854e-05
4.81845e-05
4.68816e-05
4.59968e-05
4.63706e-05
4.66895e-05
4.65842e-05
4.61764e-05
4.54132e-05
4.42282e-05
4.26041e-05
4.05537e-05
3.81107e-05
3.53289e-05
3.22833e-05
2.90641e-05
2.57851e-05
2.25169e-05
4.869e-05
4.69255e-05
4.59276e-05
4.63559e-05
4.67994e-05
4.69876e-05
4.69178e-05
4.64977e-05
4.56984e-05
4.44716e-05
4.28006e-05
4.0698e-05
3.81968e-05
3.53463e-05
3.22196e-05
2.8885e-05
2.54845e-05
5.17752e-05
4.98833e-05
4.88551e-05
4.94512e-05
5.01369e-05
5.0676e-05
5.08638e-05
5.06892e-05
5.00727e-05
4.89395e-05
4.72818e-05
4.51078e-05
4.24478e-05
3.93552e-05
3.59269e-05
3.21729e-05
2.86451e-05
3.37586e-05
3.43233e-05
3.38379e-05
3.41415e-05
3.45703e-05
3.49676e-05
3.52941e-05
3.54249e-05
3.53346e-05
3.50068e-05
3.43868e-05
3.34425e-05
3.21433e-05
3.0469e-05
2.8425e-05
2.60531e-05
2.34346e-05
5.81013e-05
5.73064e-05
5.63221e-05
5.69036e-05
5.75547e-05
5.78668e-05
5.77955e-05
5.72664e-05
5.61969e-05
5.45599e-05
5.23589e-05
4.96182e-05
4.63869e-05
4.27406e-05
3.87763e-05
3.46172e-05
3.03915e-05
5.54369e-05
5.42359e-05
5.35467e-05
5.445e-05
5.55568e-05
5.64807e-05
5.70936e-05
5.70518e-05
5.65549e-05
5.54564e-05
5.37539e-05
5.14812e-05
4.86891e-05
4.54421e-05
4.18117e-05
3.78897e-05
3.3691e-05
5.65577e-05
5.56687e-05
5.53429e-05
5.66926e-05
5.83757e-05
5.98836e-05
6.09522e-05
6.15938e-05
6.12987e-05
6.04425e-05
5.8913e-05
5.66971e-05
5.3839e-05
5.04081e-05
4.65004e-05
4.21597e-05
3.76787e-05
3.39354e-05
3.48955e-05
3.4806e-05
3.54839e-05
3.64177e-05
3.72937e-05
3.80128e-05
3.84741e-05
3.87035e-05
3.85995e-05
3.82797e-05
3.76806e-05
3.67484e-05
3.54279e-05
3.36695e-05
3.14534e-05
2.88075e-05
6.3459e-05
6.4266e-05
6.41236e-05
6.55086e-05
6.71218e-05
6.83202e-05
6.91218e-05
6.89488e-05
6.81888e-05
6.67024e-05
6.44806e-05
6.15563e-05
5.79945e-05
5.38806e-05
4.93067e-05
4.43847e-05
3.92714e-05
5.87775e-05
5.90549e-05
5.95733e-05
6.17792e-05
6.42984e-05
6.65263e-05
6.80567e-05
6.90167e-05
6.86989e-05
6.76718e-05
6.58345e-05
6.32371e-05
5.99843e-05
5.61942e-05
5.19679e-05
4.74216e-05
4.2527e-05
5.83008e-05
5.92297e-05
6.03832e-05
6.3415e-05
6.67729e-05
6.97795e-05
7.19953e-05
7.37559e-05
7.37523e-05
7.31255e-05
7.15937e-05
6.91703e-05
6.5958e-05
6.20739e-05
5.7626e-05
5.27055e-05
4.73815e-05
3.33199e-05
3.49007e-05
3.53514e-05
3.66616e-05
3.8187e-05
3.94775e-05
4.04058e-05
4.09519e-05
4.13076e-05
4.12805e-05
4.11185e-05
4.07576e-05
4.01466e-05
3.92184e-05
3.78855e-05
3.6063e-05
3.36955e-05
6.55942e-05
6.87434e-05
7.02998e-05
7.34919e-05
7.6738e-05
7.93407e-05
8.11617e-05
8.17593e-05
8.12163e-05
7.97759e-05
7.73884e-05
7.41374e-05
7.01359e-05
6.54973e-05
6.03299e-05
5.47242e-05
4.88136e-05
6.04686e-05
6.29569e-05
6.55667e-05
7.02022e-05
7.49157e-05
7.90201e-05
8.17366e-05
8.3914e-05
8.36723e-05
8.25223e-05
8.02683e-05
7.70062e-05
7.29126e-05
6.81924e-05
6.30257e-05
5.75753e-05
5.18719e-05
5.90939e-05
6.24319e-05
6.59504e-05
7.16389e-05
7.74076e-05
8.24439e-05
8.60587e-05
8.88254e-05
8.9288e-05
8.85229e-05
8.66156e-05
8.35963e-05
7.96273e-05
7.49032e-05
6.95945e-05
6.38529e-05
5.76529e-05
3.27875e-05
3.49081e-05
3.628e-05
3.84327e-05
4.04363e-05
4.18388e-05
4.26426e-05
4.3059e-05
4.32527e-05
4.32077e-05
4.30646e-05
4.2811e-05
4.24253e-05
4.18428e-05
4.09544e-05
3.9627e-05
3.77343e-05
6.6517e-05
7.25499e-05
7.68339e-05
8.28099e-05
8.84765e-05
9.30722e-05
9.60339e-05
9.77541e-05
9.71963e-05
9.54629e-05
9.24761e-05
8.83993e-05
8.34677e-05
7.78999e-05
7.18659e-05
6.54624e-05
5.8761e-05
6.17831e-05
6.73606e-05
7.3219e-05
8.13089e-05
8.89654e-05
9.5418e-05
9.95218e-05
0.000102839
0.000102552
0.00010104
9.80522e-05
9.37285e-05
8.8348e-05
8.2215e-05
7.56163e-05
6.87974e-05
6.19106e-05
6.00142e-05
6.66294e-05
7.36596e-05
8.2996e-05
9.19301e-05
9.95234e-05
0.00010463
0.000108693
0.000109005
0.000107882
0.000105197
0.000101069
9.57962e-05
8.96846e-05
8.3002e-05
7.59841e-05
6.86225e-05
3.26156e-05
3.57222e-05
3.80789e-05
4.08723e-05
4.29243e-05
4.40056e-05
4.44659e-05
4.4605e-05
4.45082e-05
4.43069e-05
4.4073e-05
4.38411e-05
4.3607e-05
4.33244e-05
4.28738e-05
4.21033e-05
4.08134e-05
6.74168e-05
7.73047e-05
8.56074e-05
9.54845e-05
0.000104482
0.000111582
0.000116168
0.00011896
0.000118173
0.000115701
0.000111483
0.00010584
9.92054e-05
9.19629e-05
8.44156e-05
7.67339e-05
6.89799e-05
6.32246e-05
7.30458e-05
8.34439e-05
9.59451e-05
0.000107184
0.000116304
0.000121877
0.000126179
0.000125728
0.000123629
0.000119592
0.000113843
0.000106772
9.87869e-05
9.02792e-05
8.15953e-05
7.30276e-05
6.14013e-05
7.24163e-05
8.42673e-05
9.83456e-05
0.000111266
0.000121889
0.000128551
0.000133978
0.000133742
0.000131891
0.000127972
0.00012223
0.000115107
0.000107044
9.84184e-05
8.9569e-05
8.05981e-05
3.26136e-05
3.71707e-05
4.04808e-05
4.3472e-05
4.5103e-05
4.56378e-05
4.56572e-05
4.54226e-05
4.50099e-05
4.46219e-05
4.43183e-05
4.40898e-05
4.39262e-05
4.38097e-05
4.36996e-05
4.34527e-05
4.28336e-05
6.88026e-05
8.40219e-05
9.78316e-05
0.000112873
0.000126193
0.0001362
0.000142922
0.000146246
0.000144969
0.000141324
0.000135328
0.000127474
0.000118387
0.000108658
9.87794e-05
8.90843e-05
7.97137e-05
6.47969e-05
8.02334e-05
9.65136e-05
0.000114386
0.000129932
0.000142009
0.000149287
0.000154376
0.000153579
0.000150551
0.000145059
0.00013747
0.000128301
0.000118061
0.00010723
9.62467e-05
8.55268e-05
6.30661e-05
7.99019e-05
9.80904e-05
0.000118175
0.000135941
0.000149798
0.000158127
0.000164413
0.000163724
0.000160709
0.000155054
0.000147191
0.000137715
0.000127197
0.000116125
0.000104931
9.3867e-05
3.26136e-05
3.90477e-05
4.30298e-05
4.57204e-05
4.66575e-05
4.66599e-05
4.62998e-05
4.56606e-05
4.50401e-05
4.44586e-05
4.40085e-05
4.37021e-05
4.36662e-05
4.3732e-05
4.38747e-05
4.39513e-05
4.3823e-05
7.05944e-05
9.30183e-05
0.000113967
0.000135488
0.000153964
0.000166986
0.000175823
0.000178387
0.000176475
0.000171489
0.000163537
0.000153209
0.000141257
0.000128469
0.000115562
0.000103096
9.14016e-05
6.6494e-05
8.90739e-05
0.000112799
0.00013724
0.000157958
0.000173128
0.00018243
0.000187635
0.000186215
0.000181817
0.000174387
0.000164494
0.000152794
0.000139907
0.000126397
0.000112763
9.95068e-05
6.47965e-05
8.92164e-05
0.000115475
0.000142941
0.000166243
0.00018313
0.000193262
0.000199559
0.000198237
0.000193784
0.000186063
0.000175684
0.000163421
0.000150009
0.000136069
0.000122115
0.000108534
3.26136e-05
4.13156e-05
4.54184e-05
4.74377e-05
4.77066e-05
4.73202e-05
4.64792e-05
4.54675e-05
4.43366e-05
4.33318e-05
4.26735e-05
4.22993e-05
4.24061e-05
4.2739e-05
4.32433e-05
4.37427e-05
4.41744e-05
7.2555e-05
0.0001043
0.000134177
0.000163389
0.00018705
0.00020226
0.000211685
0.000212273
0.000209706
0.0002036
0.000194093
0.000181664
0.000167029
0.000151098
0.00013482
0.000119051
0.000104393
6.83318e-05
9.99861e-05
0.000132905
0.000165253
0.000191835
0.000209826
0.000221381
0.000225314
0.000222983
0.000216846
0.000207092
0.000194487
0.000179864
0.000163976
0.000147477
0.000130924
0.000114871
6.65459e-05
0.000100706
0.000136946
0.000173146
0.000201981
0.000221155
0.000232805
0.000237636
0.000235541
0.000229627
0.000219842
0.000206876
0.000191641
0.000175059
0.000157937
0.000140912
0.000124494
3.35257e-05
4.38054e-05
4.75247e-05
4.87326e-05
4.85507e-05
4.75689e-05
4.61666e-05
4.44351e-05
4.2834e-05
4.16628e-05
4.10027e-05
4.06278e-05
4.07308e-05
4.10942e-05
4.17892e-05
4.27779e-05
4.37667e-05
7.45878e-05
0.000118085
0.000158658
0.00019605
0.00022316
0.000238114
0.00024512
0.00024421
0.000240645
0.000233868
0.000223756
0.000210341
0.000193975
0.000175481
0.000156009
0.000136776
0.000118761
7.028e-05
0.000113378
0.000157333
0.000198874
0.000231365
0.000251341
0.000264414
0.000265708
0.000262273
0.000254232
0.000242024
0.000226562
0.000208827
0.000189721
0.000170018
0.000150355
0.000131317
6.83486e-05
0.000114826
0.000163005
0.000208786
0.000241867
0.000262111
0.000273581
0.000275451
0.000272606
0.000265574
0.000254286
0.000239247
0.000221338
0.000201644
0.000181227
0.000160946
0.000141472
1.74904e-07
1.74925e-07
1.75109e-07
1.7534e-07
1.75363e-07
1.74964e-07
2.08776e-07
2.01285e-07
1.90071e-07
1.79486e-07
1.72266e-07
1.7179e-07
0.00017793
0.000117627
5.64695e-05
2.27704e-05
8.25049e-06
2.73578e-06
0.024719
0.0134389
0.00492358
0.000928506
0.00182805
0.00479816
3.51271e-07
3.40426e-07
3.40394e-07
3.4192e-07
3.44452e-07
3.45828e-07
3.90942e-07
3.80917e-07
3.61756e-07
3.39288e-07
3.18415e-07
2.99783e-07
0.000225611
0.000162274
8.51828e-05
3.67933e-05
1.43496e-05
5.15766e-06
0.0242869
0.0226768
0.011545
0.00240904
0.00571214
0.0121339
6.91651e-07
6.80027e-07
6.80753e-07
6.84047e-07
6.86711e-07
6.82915e-07
8.03894e-07
9.54523e-07
9.34886e-07
8.70629e-07
7.85676e-07
7.06076e-07
0.000249577
0.000494409
0.000343145
0.000180142
8.22949e-05
8.24326e-05
0.0147926
0.0423181
0.0529493
0.0337415
0.0232135
0.0270707
1.04744e-06
1.03149e-06
1.02401e-06
1.02039e-06
1.0111e-06
9.93773e-07
1.15665e-06
2.20695e-06
3.63583e-06
5.44799e-06
4.4553e-06
3.08648e-06
0.000137792
0.00095941
0.00176201
0.00247757
0.00153884
0.000829574
0.00573279
0.0325059
0.0844737
0.113004
0.0927685
0.0675766
1.45279e-06
1.41163e-06
1.38012e-06
1.36172e-06
1.34305e-06
1.3042e-06
1.53615e-06
3.18351e-06
1.36937e-05
5.20828e-05
4.89292e-05
2.76918e-05
3.57452e-05
0.000874218
0.00372421
0.0103238
0.0129649
0.0084745
0.00170908
0.0178786
0.0697897
0.156532
0.180652
0.153656
2.11283e-06
1.9902e-06
1.8627e-06
1.82828e-06
2.05689e-06
2.01875e-06
2.24137e-06
3.72239e-06
2.46883e-05
0.000123307
0.00054499
0.000400731
6.85923e-06
0.000564628
0.00373955
0.0145084
0.0449633
0.0406094
0.000391429
0.00768277
0.0447245
0.135382
0.233075
0.225285
3.3564e-06
3.05115e-06
2.70342e-06
2.60498e-06
3.66594e-06
8.31187e-06
3.63532e-06
4.02594e-06
2.71003e-05
0.000185003
0.00132965
0.00328666
4.38155e-06
0.000216439
0.00287395
0.0134644
0.0554834
0.0973383
4.59334e-05
0.00274696
0.0234834
0.0973967
0.218808
0.263928
5.35108e-06
4.74506e-06
4.13812e-06
3.75247e-06
5.73e-06
6.96147e-05
6.16015e-06
5.27031e-06
1.97256e-05
0.000192354
0.00162041
0.0127339
6.3119e-06
4.3845e-05
0.00160824
0.0104943
0.0478567
0.140992
9.26467e-06
0.000867807
0.0107536
0.0614655
0.182318
0.260947
8.06008e-06
7.03152e-06
6.12827e-06
5.25275e-06
7.68902e-06
0.000147938
9.50588e-06
7.69666e-06
1.28148e-05
0.000151591
0.00150067
0.0164224
9.88155e-06
1.32804e-05
0.000708749
0.00679843
0.0360339
0.132577
1.11759e-05
0.000207073
0.00446206
0.0352552
0.135409
0.248951
1.15572e-05
9.98076e-06
8.65143e-06
7.04284e-06
9.20774e-06
0.000136003
1.3945e-05
1.10596e-05
1.16563e-05
8.55068e-05
0.00119952
0.0142109
1.52919e-05
1.35657e-05
0.000230493
0.00372787
0.0249002
0.111105
1.61782e-05
3.56659e-05
0.00167734
0.0186488
0.0935319
0.222403
1.58232e-05
1.36406e-05
1.17663e-05
9.28171e-06
1.04997e-05
0.000106232
1.94895e-05
1.64919e-05
1.34225e-05
4.02042e-05
0.000835088
0.0106455
2.21773e-05
1.74948e-05
5.46663e-05
0.00176579
0.0159344
0.0839391
2.29066e-05
2.31933e-05
0.000578214
0.00916908
0.0607973
0.182526
2.06916e-05
1.79219e-05
1.54712e-05
1.19766e-05
1.21507e-05
7.67744e-05
2.62331e-05
2.25306e-05
1.74009e-05
2.37097e-05
0.000507199
0.00733298
2.97722e-05
2.35111e-05
2.64421e-05
0.000758887
0.00945574
0.0594527
3.26996e-05
2.67495e-05
0.000166376
0.00423421
0.037255
0.139893
2.58302e-05
2.26329e-05
1.95797e-05
1.59995e-05
1.36177e-05
5.29778e-05
3.40461e-05
2.93963e-05
2.24762e-05
2.30461e-05
0.000261961
0.00477839
3.78596e-05
3.15051e-05
2.79201e-05
0.000292433
0.00524918
0.0403658
4.21905e-05
3.38627e-05
5.42553e-05
0.00182628
0.021495
0.101848
3.08022e-05
2.74558e-05
2.39528e-05
2.02836e-05
1.59072e-05
3.73941e-05
4.2658e-05
3.68552e-05
3.02234e-05
2.47304e-05
0.000117248
0.0029643
4.62333e-05
4.0199e-05
3.23897e-05
0.000102161
0.00271018
0.0264013
5.17834e-05
4.18917e-05
4.31066e-05
0.000762263
0.0117691
0.0709097
3.52033e-05
3.20249e-05
2.83576e-05
2.4546e-05
1.89313e-05
2.9039e-05
5.17728e-05
4.48256e-05
3.80277e-05
2.90497e-05
5.63138e-05
0.00172613
5.50533e-05
4.86569e-05
3.88124e-05
5.11168e-05
0.00132447
0.0166399
6.16137e-05
5.26853e-05
4.56173e-05
0.000313251
0.00623601
0.0474511
3.88254e-05
3.60469e-05
3.25129e-05
2.86645e-05
2.23306e-05
2.63435e-05
6.11175e-05
5.31605e-05
4.57144e-05
3.4791e-05
4.04511e-05
0.000981493
6.46053e-05
5.72054e-05
4.56782e-05
4.66939e-05
0.000651799
0.0102001
7.19852e-05
6.31861e-05
5.15486e-05
0.0001335
0.00321891
0.0307521
4.15599e-05
3.93968e-05
3.62313e-05
3.25039e-05
2.58164e-05
2.70959e-05
7.06355e-05
6.16252e-05
5.3413e-05
4.07987e-05
4.10615e-05
0.000566251
7.51523e-05
6.61178e-05
5.48717e-05
4.82195e-05
0.000320486
0.00613611
8.32124e-05
7.34808e-05
5.92651e-05
7.85373e-05
0.001628
0.0194139
4.32826e-05
4.19264e-05
3.9407e-05
3.59981e-05
2.92279e-05
2.87407e-05
8.05472e-05
7.0196e-05
6.09532e-05
4.88317e-05
4.22583e-05
0.000323054
8.68258e-05
7.56448e-05
6.42374e-05
5.22819e-05
0.000162623
0.00366271
9.5486e-05
8.40953e-05
6.75131e-05
7.04344e-05
0.000854276
0.0121334
4.40971e-05
4.35325e-05
4.18837e-05
3.90394e-05
3.30249e-05
3.03669e-05
9.11361e-05
7.89919e-05
6.83698e-05
5.66955e-05
4.52184e-05
0.000185671
9.96061e-05
8.59063e-05
7.34752e-05
5.80385e-05
9.93881e-05
0.00220911
0.000108785
9.52784e-05
7.72239e-05
7.21623e-05
0.000482024
0.00764772
4.44772e-05
4.43808e-05
4.35737e-05
4.15041e-05
3.65548e-05
3.23135e-05
0.00010258
8.81591e-05
7.57712e-05
6.38716e-05
4.94345e-05
0.000117159
0.000113301
9.68801e-05
8.27881e-05
6.45454e-05
7.8242e-05
0.0013558
0.000122939
0.00010692
8.83578e-05
7.56976e-05
0.000288684
0.00492215
1.74311e-07
1.72137e-07
1.71771e-07
1.71759e-07
1.71759e-07
1.71759e-07
1.71759e-07
1.80958e-07
2.19804e-07
2.65747e-07
2.85331e-07
2.8748e-07
2.88876e-07
2.90725e-07
2.92447e-07
2.93638e-07
2.94364e-07
1.71777e-07
1.71765e-07
1.71759e-07
1.71759e-07
1.71759e-07
1.71759e-07
1.71759e-07
1.79833e-07
2.1787e-07
2.70213e-07
2.97549e-07
3.05733e-07
3.07389e-07
3.08575e-07
3.08955e-07
3.08776e-07
3.08968e-07
8.21753e-07
3.27032e-07
2.00691e-07
1.72128e-07
1.71761e-07
1.71759e-07
1.71759e-07
1.79544e-07
2.19046e-07
2.76731e-07
3.03703e-07
3.07338e-07
3.08926e-07
3.10567e-07
3.11813e-07
3.12591e-07
3.14107e-07
0.0016854
0.000265659
3.24942e-05
5.60751e-06
2.07791e-06
1.19452e-06
7.07242e-07
3.83877e-07
3.00046e-07
3.00516e-07
3.05309e-07
3.10088e-07
3.11982e-07
3.13741e-07
3.15137e-07
3.16158e-07
3.18304e-07
3.42404e-07
3.33711e-07
3.18809e-07
3.00825e-07
2.83108e-07
2.5865e-07
2.3193e-07
2.33468e-07
2.60424e-07
3.10113e-07
3.43254e-07
3.57916e-07
3.68395e-07
3.78032e-07
3.86154e-07
3.92516e-07
3.94495e-07
2.84907e-07
2.73237e-07
2.63232e-07
2.55347e-07
2.47729e-07
2.34677e-07
2.19252e-07
2.23028e-07
2.54094e-07
3.12085e-07
3.54542e-07
3.74413e-07
3.86524e-07
3.96123e-07
4.0334e-07
4.09843e-07
4.10645e-07
1.6854e-06
6.0094e-07
3.18475e-07
2.6064e-07
2.45342e-07
2.20672e-07
2.06278e-07
2.13704e-07
2.52418e-07
3.17153e-07
3.59582e-07
3.76892e-07
3.88178e-07
3.98168e-07
4.06337e-07
4.13709e-07
4.15561e-07
0.00525955
0.000808111
6.72965e-05
7.65984e-06
2.0047e-06
9.47887e-07
5.60699e-07
3.68008e-07
3.3664e-07
3.42754e-07
3.59261e-07
3.77427e-07
3.91047e-07
4.01481e-07
4.09794e-07
4.17452e-07
4.19851e-07
6.69471e-07
6.43104e-07
6.03172e-07
5.517e-07
4.96828e-07
4.39697e-07
3.69164e-07
3.27711e-07
3.37466e-07
3.82612e-07
4.38437e-07
4.7851e-07
5.08586e-07
5.3359e-07
5.53212e-07
5.69676e-07
5.70022e-07
6.3714e-07
5.75594e-07
5.19593e-07
4.69629e-07
4.27065e-07
3.82893e-07
3.28358e-07
3.05235e-07
3.21765e-07
3.79859e-07
4.47338e-07
4.93454e-07
5.26296e-07
5.52599e-07
5.72604e-07
5.91558e-07
5.91631e-07
6.21672e-05
3.15949e-05
1.06618e-05
3.24229e-06
1.11351e-06
4.98424e-07
3.0941e-07
2.96465e-07
3.19728e-07
3.84103e-07
4.51792e-07
4.96498e-07
5.28445e-07
5.54771e-07
5.75285e-07
5.9503e-07
5.96094e-07
0.0169953
0.00392523
0.000303181
2.11261e-05
3.09981e-06
1.00698e-06
4.91446e-07
3.84653e-07
3.87062e-07
4.09045e-07
4.50713e-07
4.95145e-07
5.3054e-07
5.57682e-07
5.78419e-07
5.98627e-07
6.00125e-07
9.65529e-07
9.24191e-07
8.67908e-07
7.90037e-07
6.97099e-07
6.10766e-07
5.20089e-07
4.43812e-07
4.41574e-07
4.82824e-07
5.64407e-07
6.38413e-07
6.93971e-07
7.36926e-07
7.69111e-07
7.96459e-07
7.9442e-07
2.03766e-06
1.39592e-06
1.01777e-06
7.99479e-07
6.57539e-07
5.55347e-07
4.57275e-07
4.01252e-07
4.09914e-07
4.70816e-07
5.6844e-07
6.498e-07
7.09199e-07
7.55265e-07
7.89377e-07
8.22154e-07
8.21042e-07
0.000372419
0.000131165
3.62564e-05
9.73378e-06
3.07027e-06
1.20974e-06
5.45707e-07
4.08929e-07
4.19112e-07
4.78171e-07
5.71851e-07
6.52645e-07
7.11807e-07
7.57273e-07
7.91054e-07
8.24452e-07
8.24724e-07
0.0366436
0.00963873
0.000858054
5.32904e-05
6.20409e-06
1.43571e-06
5.47937e-07
4.50367e-07
4.60098e-07
4.99623e-07
5.72432e-07
6.50731e-07
7.12954e-07
7.59422e-07
7.93559e-07
8.27693e-07
8.28334e-07
1.25416e-06
1.19183e-06
1.11211e-06
1.00918e-06
8.81661e-07
7.58869e-07
6.51396e-07
5.64619e-07
5.59039e-07
6.05434e-07
7.14929e-07
8.24031e-07
9.03862e-07
9.62098e-07
1.00488e-06
1.04172e-06
1.03784e-06
1.18973e-05
5.21012e-06
2.6809e-06
1.58041e-06
1.03384e-06
7.57852e-07
5.83726e-07
5.01616e-07
5.0889e-07
5.80455e-07
7.12057e-07
8.30261e-07
9.1512e-07
9.78565e-07
1.0248e-06
1.07026e-06
1.0679e-06
0.00305557
0.000611454
9.34016e-05
1.81903e-05
5.77742e-06
2.34485e-06
9.39442e-07
5.51884e-07
5.4433e-07
5.97148e-07
7.14143e-07
8.31847e-07
9.17842e-07
9.80088e-07
1.02513e-06
1.07094e-06
1.07065e-06
0.0831468
0.0220311
0.00212177
0.000116826
1.17163e-05
2.29122e-06
7.14208e-07
5.53209e-07
5.62795e-07
6.14479e-07
7.17454e-07
8.305e-07
9.18272e-07
9.81468e-07
1.02702e-06
1.07392e-06
1.07394e-06
1.91718e-06
1.77634e-06
1.58219e-06
1.34257e-06
1.0958e-06
8.93031e-07
7.54816e-07
6.78054e-07
6.79743e-07
7.41455e-07
8.81176e-07
1.02037e-06
1.12092e-06
1.19418e-06
1.24873e-06
1.29667e-06
1.29185e-06
0.000148976
3.36602e-05
7.98762e-06
2.87131e-06
1.5205e-06
9.97698e-07
7.12494e-07
6.03345e-07
6.13042e-07
7.02168e-07
8.69752e-07
1.021e-06
1.12846e-06
1.20937e-06
1.26922e-06
1.32959e-06
1.32633e-06
0.0207154
0.00437435
0.00038011
3.22887e-05
7.53531e-06
3.33815e-06
1.42113e-06
7.3304e-07
6.85853e-07
7.3615e-07
8.71273e-07
1.02048e-06
1.13094e-06
1.21032e-06
1.26807e-06
1.32859e-06
1.32828e-06
0.160236
0.0538658
0.00592129
0.000245081
1.83422e-05
3.3852e-06
9.83464e-07
6.85506e-07
6.9163e-07
7.50238e-07
8.77554e-07
1.02033e-06
1.13108e-06
1.21124e-06
1.26969e-06
1.33178e-06
1.33163e-06
6.91002e-06
5.26915e-06
3.89847e-06
2.76834e-06
1.85302e-06
1.21277e-06
8.72781e-07
7.83527e-07
7.95537e-07
8.82674e-07
1.05429e-06
1.22137e-06
1.34603e-06
1.44054e-06
1.513e-06
1.57762e-06
1.57344e-06
0.0017919
0.000428414
5.61109e-05
8.79848e-06
2.63237e-06
1.30523e-06
8.29043e-07
7.03226e-07
7.1816e-07
8.28706e-07
1.03254e-06
1.21655e-06
1.3511e-06
1.45635e-06
1.53626e-06
1.61764e-06
1.61486e-06
0.0745461
0.0255602
0.00282913
0.000118313
9.77511e-06
3.57909e-06
1.73704e-06
9.32333e-07
8.36144e-07
8.85925e-07
1.03521e-06
1.21344e-06
1.35314e-06
1.45657e-06
1.53327e-06
1.61499e-06
1.61626e-06
0.228145
0.113632
0.0191241
0.000780965
2.84084e-05
4.21628e-06
1.27114e-06
8.3929e-07
8.39174e-07
8.99956e-07
1.04454e-06
1.21478e-06
1.35338e-06
1.45744e-06
1.53517e-06
1.61908e-06
1.62006e-06
5.93544e-05
3.31061e-05
1.60099e-05
7.98988e-06
4.15328e-06
2.12404e-06
1.13413e-06
8.9401e-07
9.07773e-07
1.02058e-06
1.23011e-06
1.43389e-06
1.59314e-06
1.71906e-06
1.81944e-06
1.91071e-06
1.90935e-06
0.0111471
0.00459607
0.000700111
5.35267e-05
6.02587e-06
1.79695e-06
9.5207e-07
8.02348e-07
8.22188e-07
9.54263e-07
1.19689e-06
1.42339e-06
1.59636e-06
1.7368e-06
1.84763e-06
1.96176e-06
1.96159e-06
0.138146
0.0830378
0.0175841
0.00096106
2.70376e-05
3.72167e-06
1.63396e-06
1.02629e-06
9.75168e-07
1.03319e-06
1.20365e-06
1.41832e-06
1.59811e-06
1.73639e-06
1.84236e-06
1.95748e-06
1.96246e-06
0.250476
0.173319
0.0504529
0.00343222
7.83251e-05
5.01429e-06
1.3767e-06
9.85848e-07
9.90321e-07
1.05604e-06
1.21657e-06
1.42091e-06
1.59873e-06
1.73753e-06
1.84505e-06
1.96337e-06
1.96709e-06
0.000353233
0.000216986
7.9408e-05
2.58445e-05
9.90414e-06
4.22376e-06
1.76816e-06
1.04355e-06
1.02854e-06
1.1509e-06
1.41011e-06
1.66818e-06
1.87833e-06
2.05479e-06
2.20406e-06
2.34376e-06
2.34679e-06
0.033678
0.0229541
0.00608021
0.000529092
2.6743e-05
2.97244e-06
1.10501e-06
9.03302e-07
9.25692e-07
1.07648e-06
1.36585e-06
1.651e-06
1.87934e-06
2.07562e-06
2.2407e-06
2.4153e-06
2.41863e-06
0.184804
0.150358
0.0583222
0.00643434
0.000183653
5.41576e-06
1.40102e-06
1.07589e-06
1.0837e-06
1.17151e-06
1.38164e-06
1.64627e-06
1.88149e-06
2.07502e-06
2.23226e-06
2.40842e-06
2.41793e-06
0.246513
0.207842
0.095282
0.0131356
0.000377446
7.97445e-06
1.35482e-06
1.12263e-06
1.13676e-06
1.21347e-06
1.39915e-06
1.64985e-06
1.88284e-06
2.07683e-06
2.23643e-06
2.41773e-06
2.42383e-06
0.0014302
0.00118278
0.000490689
0.000106971
2.38352e-05
7.97139e-06
2.97032e-06
1.30996e-06
1.16072e-06
1.28259e-06
1.59767e-06
1.93589e-06
2.22924e-06
2.49507e-06
2.72837e-06
2.94239e-06
2.94761e-06
0.0609104
0.055547
0.026159
0.00392903
0.0001822
7.44736e-06