/*--------------------------------*- C++ -*----------------------------------*\
| =========                 |                                                 |
| \\      /  F ield         | OpenFOAM: The Open Source CFD Toolbox           |
|  \\    /   O peration     | Version:  2.3.x                                 |
|   \\  /    A nd           | Web:      www.OpenFOAM.org                      |
|    \\/     M anipulation  |                                                 |
\*---------------------------------------------------------------------------*/
FoamFile
{
    version     2.0;
    format      ascii;
    class       surfaceScalarField;
    location    "0";
    object      phi2Rec;
}
// * * * * * * * * * * * * * * * * * * * * * * * * * * * * * * * * * * * * * //

dimensions      [0 3 -1 0 0 0 0];

internalField   nonuniform List<scalar> 
126460
(
3.90056e-14
7.60164e-18
-5.30896e-14
7.0387e-14
-1.93856e-15
-5.79433e-14
1.11858e-13
-1.90239e-15
-5.92092e-14
1.52374e-13
-2.68276e-15
-6.1444e-14
1.93631e-13
-3.50736e-15
-6.33396e-14
2.3541e-13
-4.1945e-15
-6.42405e-14
2.76815e-13
-4.62994e-15
-6.36176e-14
3.16834e-13
-4.91212e-15
-6.14456e-14
3.54552e-13
-5.08578e-15
-5.8043e-14
3.89479e-13
-5.18815e-15
-5.3601e-14
4.20944e-13
-5.26572e-15
-4.84115e-14
4.48424e-13
-5.37719e-15
-4.27759e-14
4.7206e-13
-5.64684e-15
-3.70153e-14
4.91497e-13
-6.30715e-15
-3.14064e-14
5.09557e-13
-7.85079e-15
-2.62277e-14
5.32262e-13
-1.07139e-14
-2.26418e-14
-1.35739e-14
-2.40174e-14
5.61244e-13
4.1245e-14
-1.18637e-16
-5.91329e-14
7.42467e-14
-1.05954e-15
-6.26766e-14
1.17481e-13
-8.08405e-16
-6.37696e-14
1.60076e-13
-9.0912e-16
-6.64547e-14
2.03998e-13
-1.19334e-15
-6.87933e-14
2.48801e-13
-1.51829e-15
-7.00673e-14
2.92931e-13
-1.82102e-15
-6.98912e-14
3.3527e-13
-2.09058e-15
-6.78448e-14
3.75326e-13
-2.3392e-15
-6.44274e-14
4.12503e-13
-2.58568e-15
-5.98447e-14
4.4585e-13
-2.87295e-15
-5.43705e-14
4.74772e-13
-3.27832e-15
-4.83186e-14
4.99257e-13
-3.97776e-15
-4.20081e-14
5.19629e-13
-5.35688e-15
-3.57123e-14
5.37202e-13
-8.31657e-15
-2.99118e-14
5.53416e-13
-1.30503e-14
-2.7361e-14
-1.58734e-14
-3.36467e-14
6.31842e-13
4.27276e-14
-1.97908e-16
-6.22073e-14
7.65852e-14
-9.07617e-16
-6.50677e-14
1.20702e-13
-1.16657e-15
-6.5878e-14
1.64126e-13
-1.53476e-15
-6.87323e-14
2.08934e-13
-2.07762e-15
-7.135e-14
2.54768e-13
-2.69131e-15
-7.29545e-14
3.00183e-13
-3.27722e-15
-7.32045e-14
3.43911e-13
-3.78788e-15
-7.16151e-14
3.85171e-13
-4.23298e-15
-6.85864e-14
4.23496e-13
-4.63904e-15
-6.43223e-14
4.58363e-13
-5.07028e-15
-5.90872e-14
4.88831e-13
-5.63898e-15
-5.31382e-14
5.1437e-13
-6.5903e-15
-4.67134e-14
5.34615e-13
-8.46724e-15
-4.00277e-14
5.52912e-13
-1.25736e-14
-3.38661e-14
5.6662e-13
-1.81629e-14
-3.5639e-14
-6.4224e-13
-5.28416e-14
3.32564e-10
4.38194e-14
-6.43867e-14
-2.07999e-16
7.82597e-14
-6.69574e-14
-5.52737e-16
1.23109e-13
-6.75565e-14
-8.44767e-16
1.67197e-13
-7.04517e-14
-1.0678e-15
2.1266e-13
-7.32071e-14
-1.4006e-15
2.59262e-13
-7.49842e-14
-1.80084e-15
3.05583e-13
-7.54406e-14
-2.19666e-15
3.50256e-13
-7.41595e-14
-2.55152e-15
3.92558e-13
-7.1319e-14
-2.8651e-15
4.31899e-13
-6.72068e-14
-3.16455e-15
4.67722e-13
-6.20526e-14
-3.50364e-15
4.99181e-13
-5.60993e-14
-3.98596e-15
5.25521e-13
-4.95165e-14
-4.82891e-15
5.47147e-13
-4.24354e-14
-6.50139e-15
5.6396e-13
-3.67781e-14
-1.02647e-14
1.35918e-11
-4.89013e-14
-1.41415e-14
-1.4902e-13
5.61544e-08
-1.76833e-11
9.414e-14
4.27181e-15
-2.06101e-13
1.66993e-13
-7.18539e-17
-2.14956e-13
2.66102e-13
2.51783e-16
-2.19514e-13
3.64273e-13
-1.522e-15
-2.25533e-13
4.65925e-13
-3.11832e-15
-2.30287e-13
5.69205e-13
-4.3349e-15
-2.32305e-13
6.69463e-13
-4.95442e-15
-2.29839e-13
7.64064e-13
-5.15803e-15
-2.22742e-13
8.51481e-13
-5.13431e-15
-2.11569e-13
9.29181e-13
-5.00627e-15
-1.9686e-13
9.95251e-13
-4.87559e-15
-1.79508e-13
1.04856e-12
-4.86236e-15
-1.60638e-13
1.0891e-12
-5.10825e-15
-1.41558e-13
1.11845e-12
-5.70963e-15
-1.23807e-13
1.13863e-12
-6.5438e-15
-1.09356e-13
1.15153e-12
-5.83904e-15
-1.01341e-13
-2.13367e-15
-1.05034e-13
1.16639e-12
1.03246e-13
1.66898e-15
-2.1949e-13
1.82922e-13
-6.03376e-16
-2.26439e-13
2.90069e-13
1.61012e-17
-2.31525e-13
3.95166e-13
-2.4561e-16
-2.3896e-13
5.03503e-13
-6.30134e-16
-2.45184e-13
6.14421e-13
-8.79218e-16
-2.48004e-13
7.22832e-13
-9.32992e-16
-2.46909e-13
8.25067e-13
-8.33905e-16
-2.40027e-13
9.20355e-13
-6.75865e-16
-2.28697e-13
1.00585e-12
-5.66269e-16
-2.13496e-13
1.07957e-12
-6.18534e-16
-1.9533e-13
1.14038e-12
-9.77782e-16
-1.75422e-13
1.1882e-12
-1.83218e-15
-1.55192e-13
1.22434e-12
-3.26396e-15
-1.3642e-13
1.25288e-12
-4.77308e-15
-1.21554e-13
1.27445e-12
-3.15162e-15
-1.15967e-13
3.17113e-15
-1.24959e-13
1.30674e-12
1.07673e-13
8.1367e-16
-2.2953e-13
1.90327e-13
-9.30862e-16
-2.35778e-13
3.01305e-13
-1.59051e-15
-2.40599e-13
4.095e-13
-2.51496e-15
-2.48186e-13
5.20738e-13
-3.66781e-15
-2.54615e-13
6.3442e-13
-4.76593e-15
-2.57705e-13
7.45916e-13
-5.62363e-15
-2.56875e-13
8.51345e-13
-6.17329e-15
-2.50279e-13
9.49858e-13
-6.50751e-15
-2.39234e-13
1.039e-12
-6.7562e-15
-2.24215e-13
1.11674e-12
-7.09048e-15
-2.06132e-13
1.18191e-12
-7.74062e-15
-1.86203e-13
1.23459e-12
-8.99752e-15
-1.65826e-13
1.27571e-12
-1.09747e-14
-1.46908e-13
1.31374e-12
-1.2994e-14
-1.32638e-13
1.32923e-12
-1.17317e-14
-1.32234e-13
-6.12159e-14
-1.4976e-13
4.01387e-10
1.10782e-13
-2.36569e-13
-5.32815e-17
1.95374e-13
-2.42316e-13
-8.98153e-16
3.09068e-13
-2.46944e-13
-1.62532e-15
4.1969e-13
-2.54678e-13
-2.1754e-15
5.33276e-13
-2.61412e-13
-2.89434e-15
6.49071e-13
-2.6483e-13
-3.61764e-15
7.63363e-13
-2.6442e-13
-4.18874e-15
8.71801e-13
-2.58339e-13
-4.55442e-15
9.72797e-13
-2.47644e-13
-4.76404e-15
1.06465e-12
-2.32873e-13
-4.93067e-15
1.14536e-12
-2.14918e-13
-5.2053e-15
1.21394e-12
-1.94946e-13
-5.79666e-15
1.27051e-12
-1.74423e-13
-6.97004e-15
1.31948e-12
-1.55475e-13
-8.82356e-15
1.36071e-12
-1.43196e-13
-1.08165e-14
4.10394e-12
-1.50905e-13
-1.04621e-14
-2.1574e-13
4.68362e-08
-1.70381e-12
1.91532e-13
6.85429e-15
-5.37345e-13
3.35436e-13
-1.43604e-15
-5.49393e-13
5.31819e-13
-5.11392e-16
-5.60245e-13
7.20474e-13
-4.54041e-15
-5.73273e-13
9.12742e-13
-8.00906e-15
-5.82527e-13
1.10575e-12
-1.06165e-14
-5.85253e-13
1.29345e-12
-1.1976e-14
-5.77346e-13
1.47175e-12
-1.2306e-14
-5.59155e-13
1.63652e-12
-1.20507e-14
-5.3103e-13
1.78379e-12
-1.15525e-14
-4.94363e-13
1.9107e-12
-1.10001e-14
-4.51374e-13
2.01578e-12
-1.06456e-14
-4.0486e-13
2.09925e-12
-1.08128e-14
-3.58068e-13
2.16346e-12
-1.19031e-14
-3.14716e-13
2.21301e-12
-1.43842e-14
-2.79345e-13
2.25365e-12
-1.7312e-14
-2.57562e-13
-2.02036e-14
-2.56709e-13
2.29665e-12
1.9855e-13
4.30199e-16
-5.55418e-13
3.5002e-13
-3.6734e-15
-5.6643e-13
5.55823e-13
-2.27016e-15
-5.80483e-13
7.53272e-13
-2.98181e-15
-5.97494e-13
9.54012e-13
-3.80994e-15
-6.10751e-13
1.15713e-12
-4.21842e-15
-6.15609e-13
1.35562e-12
-4.10763e-15
-6.11052e-13
1.5431e-12
-3.51706e-15
-5.93259e-13
1.71754e-12
-2.68735e-15
-5.64908e-13
1.87472e-12
-1.87194e-15
-5.27177e-13
2.0115e-12
-1.32424e-15
-4.8239e-13
2.1264e-12
-1.34429e-15
-4.33606e-13
2.21988e-12
-2.33752e-15
-3.84427e-13
2.29371e-12
-4.80547e-15
-3.3915e-13
2.35619e-12
-9.16259e-15
-3.02927e-13
2.3966e-12
-1.47384e-14
-2.84368e-13
-2.39419e-14
-2.87266e-13
2.57143e-12
2.05551e-13
6.66304e-16
-5.80149e-13
3.63265e-13
-2.52617e-15
-5.91269e-13
5.77328e-13
-3.6219e-15
-6.057e-13
7.81024e-13
-5.39841e-15
-6.22972e-13
9.87139e-13
-7.549e-15
-6.35975e-13
1.19443e-12
-9.47426e-15
-6.40731e-13
1.39601e-12
-1.08253e-14
-6.35153e-13
1.58642e-12
-1.14679e-14
-6.16742e-13
1.76367e-12
-1.16128e-14
-5.87509e-13
1.92333e-12
-1.15064e-14
-5.48712e-13
2.06268e-12
-1.15192e-14
-5.02831e-13
2.18049e-12
-1.21162e-14
-4.53043e-13
2.27739e-12
-1.39235e-14
-4.03025e-13
2.35486e-12
-1.76894e-14
-3.57409e-13
2.42295e-12
-2.42862e-14
-3.22437e-13
2.45778e-12
-3.50354e-14
-3.09835e-13
-2.3497e-13
-3.20013e-13
4.34814e-10
2.10181e-13
-5.97043e-13
-5.05263e-16
3.71167e-13
-6.08324e-13
-2.0523e-15
5.90183e-13
-6.23164e-13
-3.37617e-15
7.98279e-13
-6.41047e-13
-4.38431e-15
1.00843e-12
-6.54664e-13
-5.67328e-15
1.21949e-12
-6.59914e-13
-6.87764e-15
1.42474e-12
-6.54927e-13
-7.70603e-15
1.61867e-12
-6.36817e-13
-8.04088e-15
1.79933e-12
-6.07663e-13
-8.02517e-15
1.96232e-12
-5.68719e-13
-7.86481e-15
2.10476e-12
-5.22437e-13
-7.87223e-15
2.22535e-12
-4.71933e-13
-8.46215e-15
2.32383e-12
-4.21135e-13
-1.02182e-14
2.40542e-12
-3.75081e-13
-1.38675e-14
2.45954e-12
-3.43042e-13
-2.04463e-14
6.98492e-12
-3.35922e-13
-3.28847e-14
-5.76338e-13
2.64372e-08
-6.12385e-12
3.22093e-13
1.1044e-14
-1.14294e-12
5.58638e-13
-1.31948e-15
-1.15766e-12
8.85008e-13
1.88322e-15
-1.1799e-12
1.19349e-12
-4.42191e-15
-1.20581e-12
1.50488e-12
-1.04508e-14
-1.22172e-12
1.81343e-12
-1.54094e-14
-1.22178e-12
2.10954e-12
-1.86136e-14
-1.19692e-12
2.38635e-12
-2.00441e-14
-1.14942e-12
2.63563e-12
-2.03194e-14
-1.07968e-12
2.8517e-12
-1.98922e-14
-9.91409e-13
3.03151e-12
-1.91699e-14
-8.90308e-13
3.17484e-12
-1.8661e-14
-7.83214e-13
3.28391e-12
-1.89537e-14
-6.77513e-13
3.36334e-12
-2.08349e-14
-5.81843e-13
3.42041e-12
-2.54322e-14
-5.01311e-13
3.46365e-12
-3.35622e-14
-4.42842e-13
-4.62425e-14
-4.14147e-13
3.50469e-12
3.31167e-13
-4.06889e-15
-1.18399e-12
5.7892e-13
-1.02838e-14
-1.20002e-12
9.20463e-13
-7.37551e-15
-1.23163e-12
1.24467e-12
-8.69073e-15
-1.26837e-12
1.57186e-12
-1.05574e-14
-1.29335e-12
1.89839e-12
-1.19329e-14
-1.30081e-12
2.21213e-12
-1.2461e-14
-1.28153e-12
2.50353e-12
-1.20187e-14
-1.23473e-12
2.76767e-12
-1.09001e-14
-1.16367e-12
2.99709e-12
-9.5096e-15
-1.07148e-12
3.18779e-12
-8.30177e-15
-9.64168e-13
3.3392e-12
-7.82109e-15
-8.49294e-13
3.45442e-12
-8.79125e-15
-7.35013e-13
3.53782e-12
-1.2318e-14
-6.29705e-13
3.60248e-12
-2.01225e-14
-5.42876e-13
3.63272e-12
-3.47155e-14
-4.83345e-13
-6.09546e-14
-4.52949e-13
3.7893e-12
3.44633e-13
-2.79863e-15
-1.25056e-12
6.03604e-13
-7.86184e-15
-1.26693e-12
9.60956e-13
-9.41026e-15
-1.30149e-12
1.29756e-12
-1.25224e-14
-1.3409e-12
1.6362e-12
-1.65415e-14
-1.36691e-12
1.97105e-12
-2.03774e-14
-1.37592e-12
2.29072e-12
-2.32247e-14
-1.35337e-12
2.58725e-12
-2.47446e-14
-1.30355e-12
2.85413e-12
-2.51634e-14
-1.22773e-12
3.08456e-12
-2.48864e-14
-1.12968e-12
3.27513e-12
-2.44901e-14
-1.01608e-12
3.42562e-12
-2.47249e-14
-8.94974e-13
3.53928e-12
-2.66593e-14
-7.75016e-13
3.62036e-12
-3.19277e-14
-6.65164e-13
3.68274e-12
-4.335e-14
-5.74207e-13
3.69756e-12
-6.58547e-14
-5.15957e-13
-2.05869e-13
-4.85155e-13
2.38858e-10
3.53049e-13
-1.29963e-12
-4.39233e-15
6.18184e-13
-1.32024e-12
-6.885e-15
9.85245e-13
-1.35869e-12
-9.08065e-15
1.33104e-12
-1.40272e-12
-1.09594e-14
1.67867e-12
-1.4323e-12
-1.35031e-14
2.02227e-12
-1.44415e-12
-1.6e-14
2.3497e-12
-1.42249e-12
-1.781e-14
2.65253e-12
-1.37105e-12
-1.86554e-14
2.92456e-12
-1.29216e-12
-1.87025e-14
3.15884e-12
-1.18978e-12
-1.82745e-14
3.35154e-12
-1.07075e-12
-1.78602e-14
3.50236e-12
-9.43581e-13
-1.81267e-14
3.61258e-12
-8.17572e-13
-2.00659e-14
3.69238e-12
-7.01839e-13
-2.52352e-14
3.71813e-12
-6.08888e-13
-3.65477e-14
6.01807e-12
-5.4119e-13
-5.95294e-14
-5.93334e-13
9.80216e-09
-3.61305e-12
5.55131e-13
1.10294e-14
-2.44603e-12
9.69715e-13
-8.78017e-15
-2.47278e-12
1.54679e-12
-8.11623e-16
-2.52501e-12
2.09168e-12
-1.05069e-14
-2.5849e-12
2.63996e-12
-2.13159e-14
-2.61909e-12
3.17355e-12
-3.07102e-14
-2.60588e-12
3.66933e-12
-3.74594e-14
-2.53015e-12
4.11127e-12
-4.11066e-14
-2.39895e-12
4.48064e-12
-4.2418e-14
-2.21478e-12
4.76647e-12
-4.20274e-14
-1.9885e-12
4.96607e-12
-4.06682e-14
-1.7357e-12
5.08526e-12
-3.91417e-14
-1.47388e-12
5.1363e-12
-3.84815e-14
-1.22092e-12
5.13297e-12
-4.00857e-14
-1.00061e-12
5.09068e-12
-4.56869e-14
-8.12887e-13
5.02786e-12
-5.7556e-14
-6.66355e-13
-7.87181e-14
-5.67903e-13
4.96267e-12
5.82842e-13
-1.95812e-14
-2.57322e-12
1.02681e-12
-3.11184e-14
-2.60599e-12
1.64664e-12
-2.53523e-14
-2.68271e-12
2.23523e-12
-2.8092e-14
-2.77196e-12
2.83214e-12
-3.24013e-14
-2.82423e-12
3.41645e-12
-3.63156e-14
-2.83817e-12
3.95859e-12
-3.85221e-14
-2.76931e-12
4.44358e-12
-3.87131e-14
-2.63997e-12
4.85228e-12
-3.71328e-14
-2.45036e-12
5.16881e-12
-3.44331e-14
-2.21043e-12
5.38707e-12
-3.145e-14
-1.93694e-12
5.51068e-12
-2.91553e-14
-1.64957e-12
5.55266e-12
-2.88314e-14
-1.36796e-12
5.5315e-12
-3.23726e-14
-1.1099e-12
5.47404e-12
-4.26792e-14
-8.98892e-13
5.37802e-12
-6.48106e-14
-7.38353e-13
-1.04852e-13
-6.30332e-13
5.29937e-12
6.16319e-13
-1.63445e-14
-2.78329e-12
1.0877e-12
-2.64302e-14
-2.82247e-12
1.74891e-12
-2.91748e-14
-2.91503e-12
2.37487e-12
-3.54672e-14
-3.02167e-12
3.01152e-12
-4.38842e-14
-3.08617e-12
3.62957e-12
-5.26247e-14
-3.10944e-12
4.19669e-12
-5.91496e-14
-3.03358e-12
4.70152e-12
-6.28869e-14
-2.89078e-12
5.12063e-12
-6.39009e-14
-2.68012e-12
5.43833e-12
-6.28222e-14
-2.41371e-12
5.64946e-12
-6.0645e-14
-2.11088e-12
5.75879e-12
-5.87119e-14
-1.79404e-12
5.78103e-12
-5.88818e-14
-1.48514e-12
5.73413e-12
-6.38826e-14
-1.20399e-12
5.65644e-12
-7.82649e-14
-9.65133e-13
5.48928e-12
-1.08838e-13
-7.95707e-13
-1.89063e-13
-6.7053e-13
6.42815e-11
6.42384e-13
-2.97388e-12
-1.74354e-14
1.13561e-12
-3.03264e-12
-2.27086e-14
1.83173e-12
-3.14455e-12
-2.72398e-14
2.49396e-12
-3.27382e-12
-3.14253e-14
3.16985e-12
-3.35507e-12
-3.72735e-14
3.82666e-12
-3.38917e-12
-4.3466e-14
4.42576e-12
-3.30917e-12
-4.79311e-14
4.95441e-12
-3.15381e-12
-5.02217e-14
5.38918e-12
-2.92305e-12
-5.04427e-14
5.71278e-12
-2.63036e-12
-4.90945e-14
5.91964e-12
-2.29758e-12
-4.70174e-14
6.01573e-12
-1.94976e-12
-4.5412e-14
6.01325e-12
-1.61129e-12
-4.5987e-14
5.94453e-12
-1.30307e-12
-5.12268e-14
5.76397e-12
-1.04273e-12
-6.57193e-14
5.96846e-12
-8.42929e-13
-9.5126e-14
-6.96179e-13
2.89708e-09
-6.95233e-13
1.0837e-12
-3.0113e-15
-5.3086e-12
1.9283e-12
-4.10224e-14
-5.37781e-12
3.10633e-12
-2.06618e-14
-5.49247e-12
4.21991e-12
-3.80383e-14
-5.61316e-12
5.33286e-12
-5.90991e-14
-5.67221e-12
6.39228e-12
-7.78818e-14
-5.59082e-12
7.34611e-12
-9.15387e-14
-5.37449e-12
8.15257e-12
-9.92853e-14
-5.02806e-12
8.76839e-12
-1.01879e-13
-4.56428e-12
9.17005e-12
-1.00355e-13
-4.01243e-12
9.35388e-12
-9.59375e-14
-3.41053e-12
9.33492e-12
-9.0155e-14
-2.79879e-12
9.14335e-12
-8.50838e-14
-2.21564e-12
8.819e-12
-8.3348e-14
-1.70203e-12
8.40563e-12
-8.74967e-14
-1.26645e-12
7.95351e-12
-1.0076e-13
-9.21035e-13
-1.28023e-13
-6.70452e-13
7.50189e-12
1.15842e-12
-7.24991e-14
-5.64288e-12
2.0771e-12
-9.95716e-14
-5.73319e-12
3.36726e-12
-8.74754e-14
-5.90896e-12
4.59103e-12
-9.44408e-14
-6.10493e-12
5.83822e-12
-1.05135e-13
-6.20311e-12
7.0347e-12
-1.15592e-13
-6.19636e-12
8.10736e-12
-1.21282e-13
-5.98984e-12
9.03539e-12
-1.2231e-13
-5.64257e-12
9.7605e-12
-1.1853e-13
-5.15693e-12
1.02478e-11
-1.11127e-13
-4.56143e-12
1.04862e-11
-1.01744e-13
-3.89827e-12
1.04868e-11
-9.24467e-14
-3.214e-12
1.02795e-11
-8.58852e-14
-2.55316e-12
9.91065e-12
-8.55672e-14
-1.9531e-12
9.42639e-12
-9.58278e-14
-1.4523e-12
8.90825e-12
-1.24196e-13
-1.05673e-12
-1.74437e-13
-7.70642e-13
8.2419e-12
1.26109e-12
-6.59086e-14
-6.28595e-12
2.26907e-12
-9.1969e-14
-6.40919e-12
3.69754e-12
-9.91216e-14
-6.63966e-12
5.05797e-12
-1.1431e-13
-6.8931e-12
6.45143e-12
-1.34578e-13
-7.03074e-12
7.78094e-12
-1.56292e-13
-7.04172e-12
8.9574e-12
-1.71496e-13
-6.81047e-12
9.96096e-12
-1.80118e-13
-6.4135e-12
1.07255e-11
-1.81379e-13
-5.85498e-12
1.12141e-11
-1.76355e-13
-5.1695e-12
1.14185e-11
-1.67079e-13
-4.40749e-12
1.13558e-11
-1.5645e-13
-3.62436e-12
1.10667e-11
-1.48271e-13
-2.87195e-12
1.05943e-11
-1.47495e-13
-2.19333e-12
1.00434e-11
-1.6061e-13
-1.61644e-12
9.23783e-12
-1.99473e-13
-1.17756e-12
-2.70531e-13
-8.42761e-13
1.63333e-11
1.3625e-12
-6.94584e-12
-6.2869e-14
2.45951e-12
-7.12335e-12
-7.83379e-14
4.02742e-12
-7.41236e-12
-9.05491e-14
5.53196e-12
-7.72716e-12
-1.01909e-13
7.07851e-12
-7.90806e-12
-1.17238e-13
8.54751e-12
-7.92664e-12
-1.33814e-13
9.83538e-12
-7.66724e-12
-1.44684e-13
1.09227e-11
-7.21656e-12
-1.50238e-13
1.17342e-11
-6.58139e-12
-1.49843e-13
1.22302e-11
-5.80246e-12
-1.44402e-13
1.24045e-11
-4.93857e-12
-1.35708e-13
1.22792e-11
-4.05322e-12
-1.2642e-13
1.18996e-11
-3.20493e-12
-1.19987e-13
1.13204e-11
-2.44142e-12
-1.20809e-13
1.0631e-11
-1.7923e-12
-1.35568e-13
9.71606e-12
-1.28707e-12
-1.71763e-13
-8.95087e-13
6.76141e-10
-2.87229e-13
2.15879e-12
-4.56756e-14
-1.07806e-11
3.88506e-12
-1.2733e-13
-1.09407e-11
6.28689e-12
-8.13289e-14
-1.11374e-11
8.54364e-12
-1.14275e-13
-1.13191e-11
1.07609e-11
-1.53397e-13
-1.13546e-11
1.28303e-11
-1.88876e-13
-1.10757e-11
1.46629e-11
-2.14179e-13
-1.0534e-11
1.61524e-11
-2.28523e-13
-9.72958e-12
1.72202e-11
-2.32497e-13
-8.70033e-12
1.78261e-11
-2.27592e-13
-7.51115e-12
1.79672e-11
-2.15988e-13
-6.24059e-12
1.76739e-11
-2.00664e-13
-4.96895e-12
1.70049e-11
-1.85156e-13
-3.76957e-12
1.60467e-11
-1.73376e-13
-2.70278e-12
1.48984e-11
-1.6997e-13
-1.80491e-12
1.3665e-11
-1.80029e-13
-1.09465e-12
-2.10401e-13
-5.73049e-13
1.24238e-11
2.31889e-12
-2.16033e-13
-1.16575e-11
4.21106e-12
-2.83865e-13
-1.18844e-11
6.87529e-12
-2.60872e-13
-1.22334e-11
9.3936e-12
-2.78142e-13
-1.25851e-11
1.19357e-11
-3.02491e-13
-1.27251e-11
1.43401e-11
-3.24829e-13
-1.25698e-11
1.64551e-11
-3.35488e-13
-1.20345e-11
1.8222e-11
-3.35323e-13
-1.11934e-11
1.95279e-11
-3.23815e-13
-1.00724e-11
2.03104e-11
-3.03035e-13
-8.7425e-12
2.05543e-11
-2.7622e-13
-7.2961e-12
2.02881e-11
-2.47759e-13
-5.83113e-12
1.95749e-11
-2.22944e-13
-4.43788e-12
1.85056e-11
-2.07851e-13
-3.18863e-12
1.71764e-11
-2.09422e-13
-2.13563e-12
1.57716e-11
-2.38749e-13
-1.30043e-12
-2.95493e-13
-6.85283e-13
1.40301e-11
2.61896e-12
-2.13544e-13
-1.32947e-11
4.77654e-12
-2.8258e-13
-1.35966e-11
7.84536e-12
-3.01408e-13
-1.40621e-11
1.07572e-11
-3.36249e-13
-1.4524e-11
1.37044e-11
-3.81481e-13
-1.47312e-11
1.64734e-11
-4.26796e-13
-1.45755e-11
1.88806e-11
-4.56843e-13
-1.39667e-11
2.08624e-11
-4.71503e-13
-1.29953e-11
2.22866e-11
-4.68882e-13
-1.16934e-11
2.3083e-11
-4.50808e-13
-1.01444e-11
2.32409e-11
-4.21386e-13
-8.45838e-12
2.28021e-11
-3.86779e-13
-6.75189e-12
2.18547e-11
-3.54538e-13
-5.13218e-12
2.04957e-11
-3.33605e-13
-3.68484e-12
1.89283e-11
-3.33866e-13
-2.46559e-12
1.6821e-11
-3.73486e-13
-1.50595e-12
-4.42434e-13
-7.92874e-13
1.55877e-11
2.94168e-12
-1.50511e-11
-1.97437e-13
5.37523e-12
-1.54551e-11
-2.43025e-13
8.86212e-12
-1.60301e-11
-2.74718e-13
1.21813e-11
-1.65952e-11
-3.02144e-13
1.55279e-11
-1.68697e-11
-3.37624e-13
1.86483e-11
-1.66774e-11
-3.72814e-13
2.13434e-11
-1.59813e-11
-3.94643e-13
2.35316e-11
-1.4862e-11
-4.03543e-13
2.50665e-11
-1.33616e-11
-3.98065e-13
2.58738e-11
-1.15793e-11
-3.79818e-13
2.5948e-11
-9.64363e-12
-3.5259e-13
2.53417e-11
-7.68897e-12
-3.21965e-13
2.41605e-11
-5.83727e-12
-2.94701e-13
2.25114e-11
-4.1858e-12
-2.78811e-13
2.06414e-11
-2.79386e-12
-2.83736e-13
1.80781e-11
-1.69226e-12
-3.25303e-13
-9.00947e-13
8.94335e-11
-4.01682e-13
3.99718e-12
-1.35369e-13
-1.96974e-11
7.21125e-12
-3.06149e-13
-2.00206e-11
1.16769e-11
-2.10691e-13
-2.02359e-11
1.57874e-11
-2.63608e-13
-2.04333e-11
1.97709e-11
-3.25025e-13
-2.02999e-11
2.34414e-11
-3.80917e-13
-1.96376e-11
2.66408e-11
-4.19677e-13
-1.84947e-11
2.91801e-11
-4.4059e-13
-1.68938e-11
3.09337e-11
-4.43691e-13
-1.49134e-11
3.18379e-11
-4.31335e-13
-1.26697e-11
3.18927e-11
-4.07183e-13
-1.03002e-11
3.11581e-11
-3.7607e-13
-7.94736e-12
2.97461e-11
-3.43414e-13
-5.74174e-12
2.78075e-11
-3.15281e-13
-3.78745e-12
2.5512e-11
-2.98434e-13
-2.15434e-12
2.30364e-11
-3.00066e-13
-8.73569e-13
-3.28254e-13
5.75907e-14
2.05376e-11
4.39552e-12
-5.32745e-13
-2.22007e-11
8.0263e-12
-6.92555e-13
-2.26602e-11
1.3151e-11
-6.48526e-13
-2.32153e-11
1.79413e-11
-6.80629e-13
-2.37047e-11
2.26833e-11
-7.25e-13
-2.38012e-11
2.70956e-11
-7.57012e-13
-2.32087e-11
3.09405e-11
-7.67792e-13
-2.19958e-11
3.40429e-11
-7.56645e-13
-2.0192e-11
3.62206e-11
-7.23439e-13
-1.78854e-11
3.73788e-11
-6.71775e-13
-1.52241e-11
3.75069e-11
-6.07821e-13
-1.23867e-11
3.66742e-11
-5.39794e-13
-9.55786e-12
3.50153e-11
-4.76796e-13
-6.90398e-12
3.27153e-11
-4.2859e-13
-4.55513e-12
2.9972e-11
-4.06122e-13
-2.59527e-12
2.70219e-11
-4.21752e-13
-1.06081e-12
-4.9412e-13
5.12141e-14
2.4053e-11
5.09049e-12
-5.51003e-13
-2.5422e-11
9.29872e-12
-7.16713e-13
-2.59785e-11
1.5291e-11
-7.54151e-13
-2.66793e-11
2.08784e-11
-8.16629e-13
-2.73133e-11
2.64073e-11
-8.98602e-13
-2.74843e-11
3.15303e-11
-9.68873e-13
-2.685e-11
3.59787e-11
-1.01364e-12
-2.54991e-11
3.95497e-11
-1.02801e-12
-2.34654e-11
4.20292e-11
-1.0094e-12
-2.08394e-11
4.33015e-11
-9.60725e-13
-1.77865e-11
4.33482e-11
-8.89705e-13
-1.45108e-11
4.2245e-11
-8.07357e-13
-1.12267e-11
4.01497e-11
-7.26504e-13
-8.13205e-12
3.72827e-11
-6.61565e-13
-5.38529e-12
3.38849e-11
-6.2791e-13
-3.09137e-12
3.03121e-11
-6.48416e-13
-1.29921e-12
-7.20856e-13
2.78366e-14
2.58861e-11
5.86563e-12
-2.90124e-11
-5.06782e-13
1.06797e-11
-2.97215e-11
-6.20865e-13
1.75761e-11
-3.05483e-11
-6.8557e-13
2.39843e-11
-3.13201e-11
-7.33405e-13
3.02811e-11
-3.15621e-11
-7.96389e-13
3.60781e-11
-3.08425e-11
-8.49625e-13
4.11051e-11
-2.931e-11
-8.81666e-13
4.50972e-11
-2.69861e-11
-8.87792e-13
4.78199e-11
-2.3976e-11
-8.66163e-13
4.9149e-11
-2.04709e-11
-8.19574e-13
4.90694e-11
-1.67073e-11
-7.5508e-13
4.76684e-11
-1.29333e-11
-6.82421e-13
4.51345e-11
-9.37697e-12
-6.1298e-13
4.16749e-11
-6.2208e-12
-5.59844e-13
3.77609e-11
-3.58409e-12
-5.3626e-13
3.25777e-11
-1.50981e-12
-5.67235e-13
-4.7854e-14
3.16421e-11
-6.23391e-13
6.69156e-12
-2.81445e-13
-3.20138e-11
1.19804e-11
-6.07277e-13
-3.26504e-11
1.93581e-11
-4.27522e-13
-3.27316e-11
2.59803e-11
-4.93126e-13
-3.28829e-11
3.23554e-11
-5.72514e-13
-3.24146e-11
3.82367e-11
-6.39017e-13
-3.11845e-11
4.33301e-11
-6.87695e-13
-2.91893e-11
4.73826e-11
-7.10949e-13
-2.64823e-11
5.02035e-11
-7.08596e-13
-2.31784e-11
5.16711e-11
-6.84582e-13
-1.94507e-11
5.17516e-11
-6.44577e-13
-1.55095e-11
5.05096e-11
-5.94771e-13
-1.15838e-11
4.8104e-11
-5.42038e-13
-7.89355e-12
4.4769e-11
-4.94033e-13
-4.62214e-12
4.07872e-11
-4.59466e-13
-1.89713e-12
3.64536e-11
-4.47724e-13
2.20282e-13
-4.67446e-13
1.7301e-12
3.20594e-11
7.86763e-12
-1.11078e-12
-3.87351e-11
1.42615e-11
-1.44669e-12
-3.95303e-11
2.33283e-11
-1.35161e-12
-4.01543e-11
3.16312e-11
-1.38957e-12
-4.06815e-11
3.96877e-11
-1.44906e-12
-4.05063e-11
4.70913e-11
-1.47234e-12
-3.91181e-11
5.35225e-11
-1.46605e-12
-3.67072e-11
5.85855e-11
-1.42255e-12
-3.33025e-11
6.2023e-11
-1.3437e-12
-2.90763e-11
6.36919e-11
-1.23607e-12
-2.42855e-11
6.35797e-11
-1.11053e-12
-1.92394e-11
6.18061e-11
-9.79587e-13
-1.42565e-11
5.86031e-11
-8.56425e-13
-9.62351e-12
5.42861e-11
-7.54621e-13
-5.56447e-12
4.92213e-11
-6.89101e-13
-2.22386e-12
4.37469e-11
-6.74219e-13
3.43033e-13
-7.3597e-13
2.13993e-12
3.84068e-11
9.03128e-12
-1.14146e-12
-4.35666e-11
1.62541e-11
-1.48596e-12
-4.44216e-11
2.65962e-11
-1.52876e-12
-4.51333e-11
3.60003e-11
-1.60764e-12
-4.58584e-11
4.51442e-11
-1.72122e-12
-4.57818e-11
5.35742e-11
-1.80257e-12
-4.43777e-11
6.09607e-11
-1.8481e-12
-4.18421e-11
6.68653e-11
-1.8456e-12
-3.81822e-11
7.09768e-11
-1.79271e-12
-3.35568e-11
7.31033e-11
-1.69432e-12
-2.82369e-11
7.3185e-11
-1.56226e-12
-2.25572e-11
7.1306e-11
-1.41206e-12
-1.68738e-11
6.76845e-11
-1.26161e-12
-1.15222e-11
6.26703e-11
-1.13086e-12
-6.77937e-12
5.66056e-11
-1.04176e-12
-2.83594e-12
5.02573e-11
-1.01853e-12
2.01695e-13
-1.09501e-12
2.42576e-12
4.23641e-11
1.04253e-11
-4.93899e-11
-1.04055e-12
1.8584e-11
-5.04566e-11
-1.27795e-12
3.03726e-11
-5.127e-11
-1.37051e-12
4.10163e-11
-5.22283e-11
-1.42597e-12
5.13662e-11
-5.22578e-11
-1.50741e-12
6.09092e-11
-5.07961e-11
-1.56722e-12
6.92728e-11
-4.80268e-11
-1.59774e-12
7.59591e-11
-4.39316e-11
-1.58803e-12
8.06061e-11
-3.87071e-11
-1.53615e-12
8.29839e-11
-3.2653e-11
-1.44664e-12
8.3016e-11
-2.61552e-11
-1.32969e-12
8.07909e-11
-1.96303e-11
-1.19892e-12
7.65585e-11
-1.34707e-11
-1.07019e-12
7.06754e-11
-8.00047e-12
-9.6165e-13
6.36605e-11
-3.44508e-12
-8.92001e-13
5.59315e-11
8.44878e-14
-8.89181e-13
2.65327e-12
4.71768e-11
-9.45318e-13
9.80549e-12
-4.91757e-13
-4.62457e-11
1.73786e-11
-1.03374e-12
-4.74865e-11
2.80282e-11
-7.28526e-13
-4.7379e-11
3.74396e-11
-7.83703e-13
-4.74539e-11
4.65005e-11
-8.6521e-13
-4.66607e-11
5.4986e-11
-9.15311e-13
-4.48202e-11
6.24779e-11
-9.49673e-13
-4.19241e-11
6.86341e-11
-9.62345e-13
-3.79896e-11
7.31565e-11
-9.49261e-13
-3.31455e-11
7.58069e-11
-9.12801e-13
-2.76192e-11
7.64459e-11
-8.58541e-13
-2.16993e-11
7.50744e-11
-7.94216e-13
-1.57226e-11
7.18458e-11
-7.27156e-13
-1.00319e-11
6.70529e-11
-6.65493e-13
-4.93211e-12
6.10964e-11
-6.18613e-13
-6.57703e-13
5.44284e-11
-5.9718e-13
2.65839e-12
-6.10194e-13
4.98714e-12
4.7529e-11
1.29528e-11
-1.94018e-12
-6.15258e-11
2.30297e-11
-2.55367e-12
-6.28145e-11
3.75148e-11
-2.34742e-12
-6.32557e-11
5.04687e-11
-2.36539e-12
-6.37716e-11
6.29711e-11
-2.41364e-12
-6.30865e-11
7.44287e-11
-2.40342e-12
-6.0604e-11
8.43428e-11
-2.3469e-12
-5.64765e-11
9.21685e-11
-2.24119e-12
-5.08036e-11
9.74893e-11
-2.08992e-12
-4.38423e-11
1.00055e-10
-1.90432e-12
-3.59994e-11
9.98169e-11
-1.69991e-12
-2.77668e-11
9.69274e-11
-1.49319e-12
-1.96574e-11
9.17194e-11
-1.30014e-12
-1.21395e-11
8.46657e-11
-1.13657e-12
-5.58591e-12
7.63492e-11
-1.01977e-12
-2.46033e-13
6.72952e-11
-9.66326e-13
3.78225e-12
-1.00263e-12
6.50198e-12
5.84293e-11
1.42241e-11
-1.88392e-12
-6.70593e-11
2.49546e-11
-2.49297e-12
-6.82819e-11
4.06163e-11
-2.49684e-12
-6.88128e-11
5.45678e-11
-2.56348e-12
-6.96728e-11
6.81444e-11
-2.67806e-12
-6.92656e-11
8.0777e-11
-2.75125e-12
-6.70235e-11
9.19363e-11
-2.771e-12
-6.29884e-11
1.01028e-10
-2.72858e-12
-5.72001e-11
1.07572e-10
-2.62558e-12
-4.99068e-11
1.11238e-10
-2.47014e-12
-4.15104e-11
1.11872e-10
-2.27607e-12
-3.25202e-11
1.09522e-10
-2.06103e-12
-2.34898e-11
1.04427e-10
-1.84516e-12
-1.49499e-11
9.70292e-11
-1.6511e-12
-7.35074e-12
8.7812e-11
-1.50542e-12
-1.024e-12
7.77546e-11
-1.43372e-12
3.83435e-12
-1.48632e-12
7.26762e-12
6.63851e-11
1.60732e-11
-7.47737e-11
-1.68615e-12
2.78416e-11
-7.63237e-11
-2.09916e-12
4.53064e-11
-7.70856e-11
-2.18981e-12
6.0829e-11
-7.8401e-11
-2.22991e-12
7.60463e-11
-7.8315e-11
-2.30224e-12
9.03695e-11
-7.62317e-11
-2.35274e-12
1.03096e-10
-7.20126e-11
-2.36162e-12
1.1354e-10
-6.5712e-11
-2.31917e-12
1.21155e-10
-5.76157e-11
-2.22749e-12
1.25502e-10
-4.81557e-11
-2.0924e-12
1.26376e-10
-3.79335e-11
-1.92553e-12
1.23812e-10
-2.75982e-11
-1.74233e-12
1.18069e-10
-1.77754e-11
-1.56069e-12
1.09627e-10
-8.99914e-12
-1.40101e-12
9.90329e-11
-1.66336e-12
-1.28674e-12
8.75235e-11
3.97836e-12
-1.2428e-12
8.14951e-12
7.27593e-11
-1.30997e-12
1.24692e-11
-7.64248e-13
-6.02905e-11
2.20149e-11
-1.53311e-12
-6.25163e-11
3.55278e-11
-1.0737e-12
-6.24114e-11
4.74904e-11
-1.09524e-12
-6.25582e-11
5.91792e-11
-1.14641e-12
-6.17165e-11
7.0399e-11
-1.1497e-12
-5.95191e-11
8.06471e-11
-1.13178e-12
-5.59057e-11
8.94168e-11
-1.11424e-12
-5.08017e-11
9.62908e-11
-1.07663e-12
-4.4362e-11
1.00893e-10
-1.02563e-12
-3.6876e-11
1.02928e-10
-9.60977e-13
-2.87097e-11
1.0227e-10
-8.93202e-13
-2.03111e-11
9.89726e-11
-8.27237e-13
-1.21542e-11
9.32854e-11
-7.68535e-13
-4.69304e-12
8.56477e-11
-7.24398e-13
1.67675e-12
7.66438e-11
-7.04722e-13
6.68572e-12
-7.21708e-13
1.02116e-11
6.69529e-11
1.90774e-11
-2.80781e-12
-8.9041e-11
3.32044e-11
-3.76503e-12
-9.1227e-11
5.40048e-11
-3.40422e-12
-9.16088e-11
7.23947e-11
-3.37074e-12
-9.2263e-11
9.02027e-11
-3.37491e-12
-9.11417e-11
1.06727e-10
-3.30437e-12
-8.7515e-11
1.21174e-10
-3.17151e-12
-8.13629e-11
1.32764e-10
-2.98012e-12
-7.28496e-11
1.4085e-10
-2.73651e-12
-6.23292e-11
1.45031e-10
-2.46245e-12
-5.04373e-11
1.45172e-10
-2.17838e-12
-3.79251e-11
1.41418e-10
-1.90473e-12
-2.55712e-11
1.34167e-10
-1.65696e-12
-1.40938e-11
1.24039e-10
-1.44924e-12
-4.07725e-12
1.11836e-10
-1.29746e-12
4.05645e-12
9.83751e-11
-1.21893e-12
1.01208e-11
-1.23441e-12
1.41102e-11
8.4708e-11
1.9671e-11
-2.48659e-12
-9.38065e-11
3.3812e-11
-3.39034e-12
-9.57763e-11
5.50379e-11
-3.33531e-12
-9.65625e-11
7.39021e-11
-3.34883e-12
-9.79442e-11
9.25571e-11
-3.42866e-12
-9.76219e-11
1.103e-10
-3.47047e-12
-9.47904e-11
1.26162e-10
-3.44254e-12
-8.92234e-11
1.39339e-10
-3.34518e-12
-8.08349e-11
1.49174e-10
-3.18232e-12
-7.01844e-11
1.55139e-10
-2.97346e-12
-5.78029e-11
1.56969e-10
-2.73612e-12
-4.44675e-11
1.54668e-10
-2.4875e-12
-3.10143e-11
1.48488e-10
-2.24475e-12
-1.82284e-11
1.38915e-10
-2.02741e-12
-6.78284e-12
1.26596e-10
-1.86056e-12
2.79851e-12
1.12401e-10
-1.77081e-12
1.0211e-11
-1.80693e-12
1.53224e-11
9.74081e-11
2.14428e-11
-1.02367e-10
-2.17861e-12
3.65291e-11
-1.04999e-10
-2.77727e-12
5.96321e-11
-1.06486e-10
-2.86019e-12
8.03145e-11
-1.08785e-10
-2.85391e-12
1.01146e-10
-1.09311e-10
-2.89248e-12
1.2125e-10
-1.07026e-10
-2.91271e-12
1.39405e-10
-1.01418e-10
-2.87872e-12
1.54725e-10
-9.2644e-11
-2.78939e-12
1.66339e-10
-8.08993e-11
-2.6531e-12
1.73597e-10
-6.70892e-11
-2.47916e-12
1.76167e-10
-5.20526e-11
-2.2819e-12
1.73996e-10
-3.67417e-11
-2.07613e-12
1.67317e-10
-2.20767e-11
-1.87736e-12
1.5668e-10
-8.8746e-12
-1.70346e-12
1.42687e-10
2.24151e-12
-1.57709e-12
1.26979e-10
1.08538e-11
-1.52133e-12
1.70984e-11
1.06216e-10
-1.58926e-12
1.41901e-11
-9.99003e-13
-7.3287e-11
2.5121e-11
-1.94863e-12
-7.66263e-11
4.07557e-11
-1.35631e-12
-7.69606e-11
5.4862e-11
-1.32943e-12
-7.76013e-11
6.90229e-11
-1.32623e-12
-7.71952e-11
8.29684e-11
-1.26084e-12
-7.50311e-11
9.59868e-11
-1.17706e-12
-7.08912e-11
1.07418e-10
-1.09066e-12
-6.46538e-11
1.16777e-10
-9.76002e-13
-5.65832e-11
1.23624e-10
-8.70714e-13
-4.70078e-11
1.27593e-10
-8.08431e-13
-3.64525e-11
1.28451e-10
-7.60314e-13
-2.54251e-11
1.26082e-10
-7.26957e-13
-1.44901e-11
1.20562e-10
-7.08658e-13
-4.2319e-12
1.12198e-10
-7.07059e-13
4.78341e-12
1.01553e-10
-7.22843e-13
1.20929e-11
-7.64001e-13
1.73802e-11
8.9423e-11
2.49325e-11
-3.37673e-12
-1.18599e-10
4.29906e-11
-4.65623e-12
-1.22742e-10
7.0223e-11
-4.17449e-12
-1.23978e-10
9.44668e-11
-4.06981e-12
-1.25425e-10
1.1838e-10
-4.01823e-12
-1.2451e-10
1.41001e-10
-3.87621e-12
-1.2003e-10
1.61023e-10
-3.65641e-12
-1.11833e-10
1.77341e-10
-3.35821e-12
-9.98309e-11
1.89077e-10
-3.00747e-12
-8.48991e-11
1.95674e-10
-2.64215e-12
-6.78834e-11