/*--------------------------------*- C++ -*----------------------------------*\
| =========                 |                                                 |
| \\      /  F ield         | OpenFOAM: The Open Source CFD Toolbox           |
|  \\    /   O peration     | Version:  2.3.x                                 |
|   \\  /    A nd           | Web:      www.OpenFOAM.org                      |
|    \\/     M anipulation  |                                                 |
\*---------------------------------------------------------------------------*/
FoamFile
{
    version     2.0;
    format      ascii;
    class       volVectorField;
    location    "0";
    object      URec;
}
// * * * * * * * * * * * * * * * * * * * * * * * * * * * * * * * * * * * * * //

dimensions      [ 0 1 -1 0 0 0 0 ];

internalField   nonuniform List<vector> 
44000
(
(0.00698405 1.83191e-05 -0.00526837)
(0.0118249 -0.000601235 -0.00608958)
(0.0221089 -0.000731834 -0.00634325)
(0.031794 -0.00111163 -0.00682524)
(0.0415936 -0.00147595 -0.00725782)
(0.0516247 -0.00177886 -0.007546)
(0.0617454 -0.00197846 -0.00763356)
(0.0717367 -0.00211043 -0.00755209)
(0.0814433 -0.00219347 -0.00732792)
(0.0907404 -0.00224 -0.00698685)
(0.099531 -0.00226279 -0.00655578)
(0.107753 -0.00227858 -0.00606179)
(0.115389 -0.0023125 -0.00552203)
(0.122469 -0.00240625 -0.00493771)
(0.129103 -0.00264575 -0.00431094)
(0.135646 -0.00312942 -0.00384079)
(0.142564 -0.00382642 -0.00430275)
(0.00733838 -1.51059e-05 -0.00558118)
(0.0124294 -0.000214608 -0.00622566)
(0.0229081 -6.95752e-05 -0.00644361)
(0.0326421 -1.88502e-05 -0.00693624)
(0.0424825 -1.77013e-06 -0.00737316)
(0.0525214 1.18117e-05 -0.00767227)
(0.0626319 2.55262e-05 -0.00777936)
(0.0726317 3.47489e-05 -0.00772347)
(0.082375 3.67362e-05 -0.00752402)
(0.091736 2.84453e-05 -0.00720445)
(0.100614 4.66145e-06 -0.00678924)
(0.10894 -4.65187e-05 -0.00630037)
(0.116686 -0.000152938 -0.0057464)
(0.123863 -0.000375796 -0.00511762)
(0.130568 -0.000861974 -0.00444097)
(0.137234 -0.00170404 -0.00436599)
(0.14451 -0.00234662 -0.00634614)
(0.00752439 -3.45236e-05 -0.0057403)
(0.0126864 -0.000225058 -0.00631516)
(0.0232903 -0.000263092 -0.00651442)
(0.0330707 -0.000351652 -0.00703269)
(0.0429698 -0.000480302 -0.007499)
(0.0530624 -0.000620115 -0.00783789)
(0.0632182 -0.000750301 -0.00799321)
(0.0732636 -0.000865203 -0.00798856)
(0.083058 -0.000966897 -0.00784141)
(0.0924768 -0.001061 -0.00757213)
(0.101415 -0.00115833 -0.00719768)
(0.109792 -0.00128108 -0.00673166)
(0.11755 -0.00147767 -0.00617133)
(0.124627 -0.00185469 -0.00549071)
(0.131074 -0.00266863 -0.00481734)
(0.137509 -0.00392722 -0.00618131)
(0.145383 -0.00475395 -0.012145)
(0.0076565 -4.74402e-05 -0.00586378)
(0.0128494 -0.000147469 -0.00641129)
(0.0235457 -0.000213596 -0.0065817)
(0.0333909 -0.000270859 -0.00709621)
(0.0433466 -0.000355591 -0.00756469)
(0.0534919 -0.000454211 -0.00791269)
(0.0636927 -0.000549113 -0.00808391)
(0.0737763 -0.000633469 -0.00809681)
(0.0836027 -0.000708928 -0.00796886)
(0.0930465 -0.000781985 -0.00771698)
(0.101997 -0.000865538 -0.00735515)
(0.110356 -0.000985539 -0.0068895)
(0.118025 -0.00119739 -0.00630182)
(0.124841 -0.00162441 -0.00555494)
(0.130901 -0.00257147 -0.00511422)
(0.137029 -0.00377304 -0.0100612)
(0.1478 -0.00613832 -0.00238424)
(0.00790494 0.000638018 -0.00924411)
(0.0125577 2.13257e-05 -0.00979701)
(0.0232507 -8.15941e-05 -0.00983117)
(0.0331129 -0.000463588 -0.00995899)
(0.0430671 -0.000803872 -0.0100382)
(0.0532031 -0.00108468 -0.00998177)
(0.0633846 -0.00126987 -0.00975672)
(0.073432 -0.0013861 -0.00936467)
(0.0832001 -0.00145688 -0.00881617)
(0.0925671 -0.00149699 -0.00813694)
(0.101438 -0.00151837 -0.00736282)
(0.109757 -0.00153507 -0.00653525)
(0.117526 -0.00156316 -0.00569691)
(0.124824 -0.00161813 -0.00489041)
(0.131832 -0.00171078 -0.00416934)
(0.138851 -0.00173705 -0.00370392)
(0.145789 -0.00158009 -0.00398018)
(0.00809355 0.00016958 -0.00974424)
(0.0130046 -3.2949e-05 -0.0101273)
(0.0240877 0.000121778 -0.0101474)
(0.0340904 0.000173346 -0.0103209)
(0.0441358 0.000223707 -0.0104362)
(0.0543095 0.000288666 -0.0104123)
(0.0644926 0.000362252 -0.0102063)
(0.0745486 0.000435615 -0.00983049)
(0.0843462 0.000501069 -0.00928882)
(0.0937645 0.000551526 -0.00860989)
(0.102708 0.000581097 -0.0078277)
(0.111121 0.000581818 -0.00698205)
(0.119007 0.000542096 -0.00611392)
(0.126456 0.000454887 -0.00526525)
(0.133699 0.000347349 -0.00451174)
(0.141031 0.000459603 -0.00416247)
(0.148083 0.00101579 -0.00492247)
(0.00820883 0.00012559 -0.00995553)
(0.0131685 -7.2765e-05 -0.0102584)
(0.0244663 -0.000116091 -0.0102572)
(0.0345823 -0.000211416 -0.0104595)
(0.0447325 -0.000325204 -0.0106158)
(0.0549891 -0.00042947 -0.0106423)
(0.0652322 -0.00050904 -0.0104935)
(0.0753364 -0.000564 -0.0101754)
(0.08518 -0.000602067 -0.00969043)
(0.0946466 -0.000633343 -0.00906304)
(0.103641 -0.000671134 -0.00832348)
(0.112104 -0.000733399 -0.00750551)
(0.120034 -0.000844753 -0.00664226)
(0.127527 -0.00101994 -0.00576711)
(0.134883 -0.00120688 -0.00498054)
(0.142346 -0.00102878 -0.00490789)
(0.149528 -0.000366974 -0.00654823)
(0.00831894 1.54384e-05 -0.0101213)
(0.013296 -8.74917e-05 -0.0103887)
(0.0247212 -0.000156015 -0.0103689)
(0.0349386 -0.000214629 -0.0105827)
(0.0451784 -0.000288879 -0.010761)
(0.0555136 -0.000360238 -0.0108157)
(0.0658183 -0.000413397 -0.0106992)
(0.0759674 -0.000446321 -0.0104103)
(0.0858416 -0.000465134 -0.00995328)
(0.0953258 -0.000480791 -0.00934854)
(0.104323 -0.000509266 -0.00862442)
(0.112772 -0.000572655 -0.00781308)
(0.120673 -0.000699851 -0.00693947)
(0.128153 -0.000904375 -0.00602866)
(0.135645 -0.00112768 -0.00523111)
(0.143232 -0.00113159 -0.00580699)
(0.150617 -0.00229088 0.00289483)
(0.00840656 0.000707257 -0.0183335)
(0.0131088 9.22812e-05 -0.0191111)
(0.0246088 8.84358e-06 -0.0194853)
(0.0349336 -0.000423276 -0.0199112)
(0.0452846 -0.000804572 -0.0202161)
(0.0557637 -0.00112451 -0.0202888)
(0.0662213 -0.0013455 -0.0200697)
(0.0764884 -0.00148061 -0.0195381)
(0.0864226 -0.00156135 -0.0187101)
(0.0959035 -0.00160839 -0.0176276)
(0.104833 -0.00163235 -0.0163506)
(0.113152 -0.00164854 -0.0149564)
(0.120849 -0.00167617 -0.0135424)
(0.127974 -0.00173984 -0.0122401)
(0.134645 -0.00187608 -0.0112422)
(0.141062 -0.00205388 -0.0108626)
(0.147184 -0.00222573 -0.0115609)
(0.00858025 -3.6143e-05 -0.0190222)
(0.0135488 -0.000232429 -0.0197972)
(0.0255011 -5.85903e-05 -0.0201894)
(0.0360316 -2.02269e-05 -0.0206424)
(0.0465326 2.57718e-05 -0.0209659)
(0.0570917 9.68012e-05 -0.021046)
(0.0675742 0.000185349 -0.0208075)
(0.0778558 0.000283247 -0.0202578)
(0.0878129 0.000379388 -0.0194014)
(0.097331 0.000461791 -0.0182834)
(0.106316 0.00052363 -0.0169666)
(0.114707 0.000555918 -0.0155315)
(0.122489 0.000544788 -0.0140808)
(0.129713 0.000470641 -0.0127622)
(0.136509 0.0003145 -0.0118127)
(0.143058 0.000134491 -0.0116635)
(0.149172 -6.14813e-05 -0.012847)
(0.00867247 7.58559e-05 -0.019352)
(0.0136833 -0.000124467 -0.0201279)
(0.0259021 -0.00015885 -0.0205182)
(0.0365889 -0.000261626 -0.0209854)
(0.0472315 -0.000381651 -0.0213291)
(0.0578996 -0.000486855 -0.021432)
(0.0684577 -0.000561199 -0.0212237)
(0.0787923 -0.000603275 -0.0207023)
(0.0887929 -0.000622083 -0.019873)
(0.0983509 -0.000628975 -0.0187807)
(0.107375 -0.000640178 -0.0174875)
(0.115802 -0.000675446 -0.0160738)
(0.123611 -0.000762428 -0.0146425)
(0.130835 -0.000936657 -0.0133567)
(0.137593 -0.00123218 -0.0125281)
(0.143996 -0.00164307 -0.012804)
(0.149883 -0.00249381 -0.0147238)
(0.00877025 -1.27804e-05 -0.0196486)
(0.0137964 -0.000115736 -0.02042)
(0.0261644 -0.00018371 -0.0208069)
(0.0369799 -0.000245046 -0.0212862)
(0.0477388 -0.000320959 -0.0216489)
(0.0585072 -0.000389155 -0.0217755)
(0.0691422 -0.000433193 -0.021594)
(0.07953 -0.000450317 -0.0210985)
(0.0895635 -0.000447534 -0.0202931)
(0.0991359 -0.000437176 -0.0192199)
(0.108157 -0.000437328 -0.017942)
(0.116558 -0.000472389 -0.0165368)
(0.124307 -0.000577189 -0.0151145)
(0.131425 -0.000796118 -0.0138773)
(0.13799 -0.00119209 -0.0132492)
(0.143932 -0.00193455 -0.0142974)
(0.148809 -0.00479401 -0.0072856)
(0.00921036 0.000915795 -0.0266627)
(0.0139829 0.000327273 -0.0274984)
(0.0264228 0.00032096 -0.0279586)
(0.0373741 -0.000112585 -0.02842)
(0.0482745 -0.000521029 -0.0286852)
(0.0592431 -0.000882144 -0.0286291)
(0.070111 -0.00115654 -0.0282053)
(0.0807065 -0.00134055 -0.0273712)
(0.0908817 -0.00146465 -0.0261503)
(0.100515 -0.00154509 -0.0245947)
(0.109505 -0.00159539 -0.0227777)
(0.117781 -0.00163371 -0.0207956)
(0.125313 -0.00168129 -0.0187719)
(0.132116 -0.00176583 -0.0168664)
(0.138256 -0.00192798 -0.0152951)
(0.143864 -0.00219146 -0.0143272)
(0.148977 -0.00256733 -0.0143261)
(0.00940917 -0.000225562 -0.0273549)
(0.0144542 -0.000411596 -0.0282635)
(0.0273658 -0.000201274 -0.0287717)
(0.0385551 -0.00016428 -0.0292491)
(0.0496499 -0.000131889 -0.0295275)
(0.0607394 -7.77771e-05 -0.0294699)
(0.071661 -5.47074e-06 -0.0290144)
(0.0822856 8.22168e-05 -0.0281551)
(0.0924913 0.000176094 -0.026897)
(0.102161 0.00026495 -0.0252968)
(0.111197 0.000338504 -0.0234346)
(0.119527 0.00038384 -0.0214107)
(0.127118 0.000383307 -0.0193538)
(0.133985 0.000307881 -0.0174305)
(0.140189 0.000112092 -0.0158784)
(0.145842 -0.000251505 -0.0150207)
(0.150917 -0.000868491 -0.0152583)
(0.00951607 -2.75311e-05 -0.0277117)
(0.0145877 -0.000234254 -0.0286916)
(0.0277915 -0.00025656 -0.0292278)
(0.0391611 -0.000367773 -0.0297274)
(0.0504253 -0.00050673 -0.0300177)
(0.0616477 -0.000636949 -0.0299615)
(0.0726639 -0.000736449 -0.0295211)
(0.0833533 -0.000797434 -0.0286664)
(0.0936052 -0.000826868 -0.0274123)
(0.103311 -0.000837191 -0.0258172)
(0.112378 -0.000844498 -0.0239623)
(0.120735 -0.00086945 -0.0219479)
(0.128335 -0.000943036 -0.0199037)
(0.135171 -0.00111554 -0.0180057)
(0.141268 -0.00147219 -0.0165261)
(0.146663 -0.00215262 -0.01585)
(0.15142 -0.00352633 -0.0163849)
(0.00962815 -0.000139733 -0.0281025)
(0.0147069 -0.0002469 -0.0291156)
(0.0280684 -0.000315798 -0.0296689)
(0.0395762 -0.000386798 -0.0301827)
(0.0509727 -0.000481509 -0.0304876)
(0.0623131 -0.00057174 -0.0304442)
(0.0734222 -0.000636305 -0.030017)
(0.0841763 -0.000668266 -0.0291772)
(0.0944671 -0.00067297 -0.0279353)
(0.104193 -0.000662673 -0.0263521)
(0.11326 -0.000654942 -0.024506)
(0.121586 -0.00067459 -0.0224946)
(0.129113 -0.000760059 -0.0204491)
(0.135802 -0.000975213 -0.0185706)
(0.141603 -0.00143582 -0.0171532)
(0.146398 -0.00239811 -0.0168106)
(0.149886 -0.00494109 -0.0106188)
(0.00984429 0.000932257 -0.0339753)
(0.0149027 0.000366123 -0.0349016)
(0.0284612 0.000434263 -0.0354055)
(0.0401579 2.08219e-05 -0.0358102)
(0.0517301 -0.000407936 -0.0359267)
(0.0633096 -0.000797471 -0.03563)
(0.0747075 -0.00111435 -0.0348991)
(0.0857385 -0.00134406 -0.0336762)
(0.0962451 -0.0015118 -0.0319916)
(0.106097 -0.00163014 -0.0299041)
(0.115183 -0.00171184 -0.0274975)
(0.123421 -0.001771 -0.0248809)
(0.130762 -0.00182785 -0.0221944)
(0.137194 -0.00191387 -0.0196871)
(0.142746 -0.00206728 -0.0174798)
(0.147505 -0.00233339 -0.0158128)
(0.151548 -0.00277073 -0.0149727)
(0.0100663 -0.000495492 -0.034597)
(0.0153866 -0.00069663 -0.0356332)
(0.0294445 -0.000454054 -0.0362123)
(0.0414092 -0.000412704 -0.0366417)
(0.0532153 -0.000392205 -0.0367847)
(0.0649636 -0.000352967 -0.0364767)
(0.0764521 -0.000296756 -0.0357231)
(0.0875366 -0.000221998 -0.0344694)
(0.0980886 -0.000135216 -0.0327392)
(0.107985 -4.66348e-05 -0.0306026)
(0.117115 3.24689e-05 -0.0281491)
(0.125399 8.90831e-05 -0.0254916)
(0.132786 0.000103149 -0.0227675)
(0.139257 4.12472e-05 -0.0201439)
(0.144835 -0.00015285 -0.0179132)
(0.14959 -0.000567693 -0.0162916)
(0.153569 -0.00134219 -0.0155617)
(0.0101885 -0.000233506 -0.0350039)
(0.01552 -0.000478909 -0.0361646)
(0.0299018 -0.000488647 -0.0367945)
(0.0420596 -0.000608956 -0.0372542)
(0.0540644 -0.000764895 -0.0374096)
(0.0659715 -0.000920767 -0.0370876)
(0.0775788 -0.00104849 -0.036342)
(0.0887478 -0.00113324 -0.035081)
(0.0993587 -0.00117869 -0.0333445)
(0.109298 -0.00119643 -0.0312045)
(0.118462 -0.00120168 -0.0287503)
(0.126764 -0.00121508 -0.0260925)
(0.134144 -0.00126901 -0.0233709)
(0.140566 -0.00141951 -0.0207564)
(0.14601 -0.00176575 -0.0184853)
(0.15047 -0.00248498 -0.0168944)
(0.15401 -0.00393664 -0.0164264)
(0.0103162 -0.000344974 -0.0354546)
(0.0156417 -0.000477957 -0.0366803)
(0.0302029 -0.000554023 -0.0373463)
(0.0425035 -0.000634126 -0.037819)
(0.0546527 -0.000749052 -0.037981)
(0.0666966 -0.000865208 -0.0376545)
(0.0784164 -0.000955552 -0.0369083)
(0.0896661 -0.00100884 -0.0356491)
(0.100332 -0.00102841 -0.033915)
(0.110305 -0.00102503 -0.0317796)
(0.119472 -0.0010142 -0.029327)
(0.127746 -0.00101953 -0.0266672)
(0.135051 -0.00107989 -0.023937)
(0.14132 -0.00126235 -0.0213197)
(0.146459 -0.00169015 -0.0190218)
(0.150313 -0.00260929 -0.0175333)
(0.152692 -0.004691 -0.0144422)
(0.0102988 0.000827147 -0.0399571)
(0.0157694 0.000270162 -0.0410183)
(0.0306329 0.00042184 -0.0415545)
(0.0431694 3.0681e-05 -0.0418594)
(0.0555126 -0.000398919 -0.0417543)
(0.0678134 -0.000795039 -0.0411506)
(0.0798495 -0.00113009 -0.0400094)
(0.0914149 -0.00138754 -0.0382829)
(0.102342 -0.00158422 -0.0360074)
(0.112485 -0.00172957 -0.0332513)
(0.121722 -0.0018319 -0.0301126)
(0.129955 -0.00190226 -0.026716)
(0.137117 -0.0019612 -0.0232298)
(0.143175 -0.00204039 -0.0200673)
(0.148144 -0.00217107 -0.017149)
(0.152089 -0.00239951 -0.0146853)
(0.155107 -0.00279255 -0.0128995)
(0.0105489 -0.000855699 -0.0406245)
(0.0162631 -0.00109626 -0.0418307)
(0.031649 -0.000818432 -0.0424643)
(0.0444787 -0.000773663 -0.0428143)
(0.0571013 -0.000757649 -0.042769)
(0.0696182 -0.000724018 -0.0421417)
(0.0817863 -0.000673222 -0.0410082)
(0.0934381 -0.000601503 -0.0392481)
(0.104434 -0.000513844 -0.0369168)
(0.114635 -0.000419777 -0.0340947)
(0.123923 -0.000329035 -0.0308867)
(0.132203 -0.000254432 -0.0274213)
(0.139406 -0.00021647 -0.0238486)
(0.145496 -0.000250979 -0.020343)
(0.15047 -0.000413872 -0.0173347)
(0.154384 -0.000796141 -0.0149017)
(0.157318 -0.0015441 -0.0131221)
(0.0107073 -0.000555279 -0.0411402)
(0.0164067 -0.000867404 -0.0424893)
(0.0321462 -0.000869605 -0.0431953)
(0.0451789 -0.000992956 -0.0435847)
(0.0580273 -0.00116106 -0.0435608)
(0.0707341 -0.00133365 -0.0429248)
(0.0830501 -0.00147963 -0.041793)
(0.0948127 -0.00158056 -0.0400226)
(0.105892 -0.00163687 -0.0376801)
(0.116156 -0.00165804 -0.0348474)
(0.125483 -0.00165702 -0.031626)
(0.133779 -0.00165309 -0.0281449)
(0.140971 -0.00167874 -0.0245569)
(0.147008 -0.00178849 -0.0210332)
(0.151851 -0.00207599 -0.0177987)
(0.15548 -0.00270698 -0.0152881)
(0.157915 -0.00399628 -0.0139543)
(0.0108615 -0.000629892 -0.0416295)
(0.0165308 -0.000816471 -0.0430733)
(0.0324804 -0.000907286 -0.0438391)
(0.0456625 -0.000994579 -0.0442569)
(0.0586678 -0.00112446 -0.0442471)
(0.0715315 -0.00125983 -0.0436126)
(0.0839812 -0.00136865 -0.0424855)
(0.0958487 -0.00143789 -0.0407121)
(0.107007 -0.00146846 -0.0383663)
(0.117318 -0.00146856 -0.0355249)
(0.126662 -0.00145115 -0.03229)
(0.134938 -0.00143823 -0.0287901)
(0.142063 -0.00146636 -0.0251755)
(0.147957 -0.00159785 -0.0216181)
(0.152527 -0.00194382 -0.0183123)
(0.155632 -0.00271103 -0.015593)
(0.157142 -0.00434345 -0.0136523)
(0.0108452 0.000779574 -0.0459259)
(0.0167036 0.00018722 -0.0472823)
(0.0328789 0.000412107 -0.0478501)
(0.0463178 3.50069e-05 -0.0480207)
(0.059503 -0.000375523 -0.0476239)
(0.0726052 -0.000768813 -0.0466671)
(0.0853558 -0.00110886 -0.0450362)
(0.097525 -0.00138532 -0.0427235)
(0.108932 -0.0016058 -0.0397727)
(0.119415 -0.00177457 -0.0362631)
(0.128837 -0.00189719 -0.0323076)
(0.13709 -0.00198387 -0.0280456)
(0.144098 -0.0020494 -0.0236479)
(0.149826 -0.00211459 -0.0193441)
(0.154272 -0.00221102 -0.0152601)
(0.157489 -0.00238255 -0.0115952)
(0.159577 -0.00269004 -0.00854672)
(0.0111072 -0.00122839 -0.046783)
(0.0171774 -0.00154588 -0.0483111)
(0.0339199 -0.00124952 -0.0489757)
(0.0476859 -0.00120602 -0.0491736)
(0.0611976 -0.00119049 -0.0488452)
(0.0745645 -0.00115778 -0.0478318)
(0.0874965 -0.00110463 -0.0462147)
(0.0997975 -0.00102792 -0.0438602)
(0.111307 -0.000932739 -0.0408397)
(0.121872 -0.000827245 -0.0372451)
(0.131361 -0.000720226 -0.0331957)
(0.139664 -0.000624028 -0.0288343)
(0.146706 -0.000558088 -0.0243269)
(0.152446 -0.000552853 -0.0198571)
(0.156879 -0.000659144 -0.0156746)
(0.160047 -0.000961627 -0.0119544)
(0.162041 -0.00159362 -0.00880003)
(0.0113075 -0.000947468 -0.047178)
(0.0173274 -0.00134576 -0.0488941)
(0.0344836 -0.0013436 -0.0496556)
(0.0484623 -0.00146688 -0.049916)
(0.0622316 -0.00163919 -0.049632)
(0.0758271 -0.00181429 -0.0486348)
(0.0889412 -0.00196193 -0.0470301)
(0.101387 -0.00206419 -0.0446729)
(0.113013 -0.00211938 -0.0416435)
(0.123661 -0.00213358 -0.0380319)
(0.133201 -0.00211703 -0.033959)
(0.141526 -0.0020884 -0.0295716)
(0.148557 -0.00207819 -0.0250371)
(0.154241 -0.00213519 -0.0205323)
(0.158544 -0.00234156 -0.0162669)
(0.161455 -0.00283969 -0.0124159)
(0.162972 -0.00387491 -0.00962829)
(0.0114964 -0.000971523 -0.0474732)
(0.0174481 -0.00123447 -0.0493479)
(0.0348793 -0.00134308 -0.0502077)
(0.0490168 -0.0014339 -0.0505362)
(0.0629593 -0.00156991 -0.0502928)
(0.0767354 -0.00171169 -0.0493428)
(0.0900094 -0.00182548 -0.0477595)
(0.102591 -0.00189847 -0.0454129)
(0.11432 -0.00192942 -0.0423806)
(0.125035 -0.00192368 -0.0387527)
(0.134606 -0.00189236 -0.034653)
(0.142923 -0.00185581 -0.0302303)
(0.149898 -0.00184675 -0.025652)
(0.155457 -0.00191908 -0.021089)
(0.15952 -0.00216561 -0.0167462)
(0.16199 -0.00275157 -0.0127004)
(0.162731 -0.00401066 -0.00983655)
(0.0115302 0.000877252 -0.0515695)
(0.0176473 0.000222118 -0.0533917)
(0.0352662 0.00052298 -0.0540595)
(0.049647 0.000175936 -0.0540982)
(0.0637192 -0.000199189 -0.0534179)
(0.0776896 -0.000581312 -0.0520686)
(0.0912138 -0.000919379 -0.0498901)
(0.104038 -0.00121011 -0.0469053)
(0.115967 -0.00145129 -0.0431717)
(0.126822 -0.0016446 -0.038787)
(0.136449 -0.00179393 -0.0338837)
(0.144735 -0.00190584 -0.028622)
(0.151599 -0.00198982 -0.0231807)
(0.157003 -0.00206189 -0.0177406)
(0.160948 -0.00214768 -0.0125003)
(0.163483 -0.00228436 -0.0076523)
(0.164716 -0.0025219 -0.0033859)
(0.0118183 -0.00161725 -0.0524643)
(0.0181055 -0.00204322 -0.0544732)
(0.0363561 -0.00172646 -0.0551902)
(0.0511001 -0.00167778 -0.0552322)
(0.0655488 -0.00165238 -0.0545727)
(0.0798277 -0.00160914 -0.0531753)
(0.093586 -0.00154153 -0.0510002)
(0.106594 -0.00144789 -0.0479778)
(0.118667 -0.00133391 -0.0441835)
(0.129634 -0.00120685 -0.0397218)
(0.139345 -0.00107527 -0.0347288)
(0.147686 -0.000951987 -0.0293697)
(0.154582 -0.00085494 -0.023827)
(0.159991 -0.000811091 -0.0182922)
(0.163909 -0.000863661 -0.01295)
(0.166381 -0.00108311 -0.00800356)
(0.167508 -0.00158147 -0.00361714)
(0.0120869 -0.00133181 -0.0526727)
(0.0182618 -0.00185059 -0.0549934)
(0.0370052 -0.00184275 -0.0558785)
(0.0519728 -0.00195999 -0.0560547)
(0.066714 -0.0021278 -0.0555005)
(0.0812634 -0.00228978 -0.0541738)
(0.0952422 -0.00242186 -0.0520271)
(0.108436 -0.00250972 -0.0490009)
(0.120658 -0.0025502 -0.0451728)
(0.13173 -0.00254592 -0.0406523)
(0.141509 -0.00250663 -0.0355872)
(0.149883 -0.00245029 -0.0301515)
(0.156773 -0.00240383 -0.024534)
(0.162129 -0.00240898 -0.0189266)
(0.165927 -0.00253443 -0.0135184)
(0.168172 -0.00289586 -0.00847852)
(0.168888 -0.00369042 -0.00396153)
(0.0123471 -0.00132391 -0.052702)
(0.0183847 -0.00168742 -0.0553116)
(0.0374864 -0.00181211 -0.0563877)
(0.0526257 -0.00189712 -0.0567163)
(0.067558 -0.00202725 -0.0562616)
(0.082312 -0.00216018 -0.0550445)
(0.0964821 -0.00226402 -0.05294)
(0.109843 -0.00232651 -0.0499291)
(0.122192 -0.00234504 -0.046083)
(0.133352 -0.00232264 -0.0415189)
(0.14318 -0.00227027 -0.0363922)
(0.15156 -0.00220662 -0.0308827)
(0.158406 -0.00216031 -0.0251834)
(0.163653 -0.00217658 -0.0194795)
(0.167246 -0.0023307 -0.0139835)
(0.169125 -0.00275182 -0.00869461)
(0.169184 -0.00367429 -0.00465081)
(0.0124445 0.00117731 -0.0575061)
(0.0186337 0.000449708 -0.0598145)
(0.0377905 0.000817274 -0.0607096)
(0.0531468 0.000517739 -0.0606351)
(0.0681401 0.0001833 -0.0597213)
(0.0830236 -0.000170556 -0.0579155)
(0.097359 -0.000506662 -0.0551007)
(0.110867 -0.000810071 -0.0513021)
(0.123334 -0.0010727 -0.0466002)
(0.134564 -0.0012961 -0.0411263)
(0.144395 -0.00148243 -0.0350494)
(0.152706 -0.00163354 -0.028565)
(0.159422 -0.00175412 -0.0218807)
(0.164507 -0.00185432 -0.015206)
(0.167969 -0.00195326 -0.00874199)
(0.169866 -0.00208121 -0.00267878)
(0.170309 -0.00227764 0.0027998)
(0.0127984 -0.00200942 -0.0575592)
(0.0190675 -0.0025653 -0.0601673)
(0.0389677 -0.00222142 -0.0610601)
(0.0547242 -0.00216069 -0.0610264)
(0.0701461 -0.00211711 -0.0600684)
(0.085379 -0.00204852 -0.0583018)
(0.0999997 -0.00195615 -0.0555072)
(0.113747 -0.00183547 -0.0517256)
(0.126405 -0.00169163 -0.0470308)
(0.137778 -0.00153217 -0.0415491)
(0.147708 -0.00136835 -0.0354513)
(0.156082 -0.00121358 -0.0289339)
(0.162825 -0.00108445 -0.0222049)
(0.167905 -0.00100389 -0.0154724)
(0.171328 -0.00100753 -0.00893822)
(0.173147 -0.00115198 -0.00278985)
(0.17347 -0.00152602 0.00276973)
(0.0131815 -0.00165254 -0.0580971)
(0.0192459 -0.00232211 -0.0611987)
(0.0397128 -0.00230219 -0.0624077)
(0.0557073 -0.00240078 -0.0626159)
(0.071452 -0.00255282 -0.0618468)
(0.0869975 -0.00268796 -0.0601928)
(0.101886 -0.00278736 -0.0574207)
(0.115858 -0.00284345 -0.0535829)
(0.128692 -0.00285318 -0.0487646)
(0.140195 -0.00281943 -0.0431111)
(0.150213 -0.00275294 -0.0368119)
(0.158631 -0.00266967 -0.0300817)
(0.165377 -0.00259229 -0.0231445)
(0.17041 -0.00255514 -0.0162204)
(0.173725 -0.00261384 -0.00950413)
(0.175345 -0.00286036 -0.00322446)
(0.175317 -0.00344813 0.00269513)
(0.0135658 -0.00164042 -0.0582498)
(0.0193886 -0.00212325 -0.0617969)
(0.0402963 -0.00225614 -0.0633438)
(0.0564807 -0.00232154 -0.0637938)
(0.0724316 -0.00243184 -0.0631914)
(0.0882096 -0.00254066 -0.0616452)
(0.103323 -0.00261808 -0.0589131)
(0.11749 -0.00265398 -0.0550515)
(0.130475 -0.00264588 -0.0501554)
(0.142088 -0.00259741 -0.0443863)
(0.152169 -0.00251979 -0.0379473)
(0.160605 -0.00242978 -0.0310643)
(0.167317 -0.00235154 -0.0239697)
(0.172257 -0.00232208 -0.0168811)
(0.175395 -0.00240127 -0.0100128)
(0.176712 -0.00268891 -0.0034777)
(0.176163 -0.00335457 0.002415)
(0.0135776 0.00163917 -0.0653728)
(0.0196906 0.000846088 -0.0679537)
(0.0404036 0.00127269 -0.0691227)
(0.0567726 0.00103187 -0.0689395)
(0.0727087 0.000729091 -0.0677558)
(0.0885262 0.000425266 -0.0653956)
(0.103694 0.000113756 -0.0617771)
(0.117897 -0.000195997 -0.0569428)
(0.130899 -0.000487829 -0.0510051)
(0.142489 -0.000753309 -0.0441426)
(0.152498 -0.00098555 -0.0365795)
(0.160808 -0.00118476 -0.0285628)
(0.16735 -0.00135251 -0.0203442)
(0.172101 -0.00149562 -0.0121651)
(0.175085 -0.0016279 -0.00425091)
(0.176368 -0.00177327 0.00320062)
(0.176072 -0.00196245 0.010008)
(0.0140916 -0.00238105 -0.0630601)
(0.0200688 -0.00307566 -0.0662491)
(0.0417054 -0.00269762 -0.0675208)
(0.058515 -0.00261699 -0.0674719)
(0.0749385 -0.0025481 -0.0662793)
(0.091154 -0.00243903 -0.0640391)
(0.106653 -0.00230636 -0.0605373)
(0.121144 -0.00214705 -0.0558299)
(0.134377 -0.00196341 -0.0500297)
(0.146136 -0.0017643 -0.0433043)
(0.156257 -0.00156389 -0.03587)
(0.164629 -0.00137698 -0.0279666)
(0.171192 -0.00121882 -0.0198404)
(0.175927 -0.00110826 -0.0117287)
(0.178857 -0.00107352 -0.00385535)
(0.18005 -0.00115878 0.00359353)
(0.179622 -0.00143299 0.0103987)
(0.0146136 -0.00187076 -0.0650236)
(0.0203037 -0.00270082 -0.0688559)
(0.0425433 -0.0026577 -0.070594)
(0.0596109 -0.00271945 -0.0708498)
(0.0763785 -0.00283979 -0.0698851)
(0.0929521 -0.00293401 -0.0677313)
(0.108773 -0.00298283 -0.0641912)
(0.123526 -0.00298746 -0.059318)
(0.136961 -0.00295087 -0.0532454)
(0.14887 -0.00288065 -0.0461699)
(0.159091 -0.00278706 -0.0383345)
(0.167518 -0.00268362 -0.0300057)
(0.17409 -0.00258814 -0.0214541)
(0.178786 -0.00252708 -0.0129393)
(0.18162 -0.00254356 -0.00468932)
(0.182638 -0.00270861 0.00305349)
(0.181913 -0.00313972 0.010324)
(0.0151546 -0.00188073 -0.0661496)
(0.0204957 -0.00248352 -0.0705007)
(0.0432318 -0.00261188 -0.0726719)
(0.060515 -0.00263949 -0.0731818)
(0.0775074 -0.00271044 -0.07239)
(0.0943533 -0.00277423 -0.070286)
(0.110436 -0.00280402 -0.0667046)
(0.125407 -0.00279395 -0.061712)
(0.139013 -0.00274527 -0.0554426)
(0.151041 -0.00266507 -0.0481279)
(0.161333 -0.00256398 -0.0400305)
(0.169781 -0.0024561 -0.0314307)
(0.176326 -0.00236053 -0.0226107)
(0.180938 -0.00230582 -0.0138346)
(0.183618 -0.00233802 -0.00533345)
(0.184381 -0.00253271 0.00266678)
(0.183234 -0.00301587 0.0102942)
(0.0148186 0.00213509 -0.0764716)
(0.0208326 0.00130538 -0.0789819)
(0.0430147 0.00179755 -0.0802954)
(0.0604311 0.00161176 -0.0799966)
(0.0773283 0.00135415 -0.0783935)
(0.0940745 0.00110014 -0.0753114)
(0.11007 0.000834888 -0.0706597)
(0.124966 0.000515695 -0.0645396)
(0.138483 0.000200445 -0.0570897)
(0.150387 -0.000110551 -0.0485261)
(0.160512 -0.00039237 -0.0391429)
(0.16876 -0.000646284 -0.029251)
(0.175083 -0.000868715 -0.0191582)
(0.179477 -0.00106121 -0.00915301)
(0.181982 -0.00123123 0.000498005)
(0.182677 -0.0013962 0.00957367)
(0.181691 -0.00159122 0.0178882)
(0.0156418 -0.00268765 -0.0705935)
(0.0211282 -0.0035057 -0.0741031)
(0.0444663 -0.00309143 -0.0758154)
(0.062373 -0.00298296 -0.0757146)
(0.0798182 -0.00287984 -0.0742362)
(0.0970378 -0.00271991 -0.0713674)
(0.113423 -0.00253025 -0.0669543)
(0.128626 -0.00231784 -0.0610677)
(0.142378 -0.00208711 -0.0538814)
(0.15446 -0.00184763 -0.0456241)
(0.164703 -0.00161305 -0.0365603)
(0.173011 -0.00140054 -0.0269847)
(0.179345 -0.00122309 -0.0171919)
(0.183707 -0.00109498 -0.00745664)
(0.186143 -0.00103738 0.00196359)
(0.186734 -0.00108336 0.010865)
(0.185609 -0.00128609 0.0190391)
(0.0162617 -0.00195362 -0.075059)
(0.0214534 -0.00291632 -0.0792769)
(0.0453903 -0.00283362 -0.0814315)
(0.0635813 -0.00283324 -0.0816296)
(0.0813984 -0.00289607 -0.0803174)
(0.0990255 -0.00292939 -0.0774228)
(0.115769 -0.0029175 -0.0728327)
(0.131257 -0.00286356 -0.0666453)
(0.145223 -0.0027706 -0.0590183)
(0.157455 -0.00265967 -0.0502228)
(0.167798 -0.00254331 -0.0405613)
(0.176165 -0.00243262 -0.030352)
(0.182516 -0.00233911 -0.0199116)
(0.186851 -0.00228 -0.00953795)
(0.18921 -0.00228576 0.000494661)
(0.189657 -0.00240886 0.00994583)
(0.188287 -0.0027387 0.0186715)
(0.0169338 -0.00200493 -0.0780593)
(0.0217253 -0.00269384 -0.0827076)
(0.0461789 -0.00279773 -0.0852073)
(0.0646294 -0.0027617 -0.0856249)
(0.0827143 -0.00276759 -0.0844042)
(0.100652 -0.00276251 -0.0814221)
(0.117668 -0.00272336 -0.0766587)
(0.133372 -0.00265275 -0.070171)
(0.1475 -0.00255575 -0.0621905)
(0.159838 -0.00244377 -0.0530013)
(0.170242 -0.0023272 -0.0429286)
(0.178625 -0.00221685 -0.0323115)
(0.184953 -0.00212576 -0.0214812)
(0.189219 -0.00207351 -0.0107418)
(0.191453 -0.00209309 -0.000359395)
(0.191695 -0.00224055 0.00938911)
(0.189986 -0.00260988 0.0186784)
(0.0160347 0.00257408 -0.0907543)
(0.022028 0.00174832 -0.0930113)
(0.0455318 0.00231942 -0.0943116)
(0.064014 0.00217757 -0.0938184)
(0.0818744 0.00197955 -0.0916414)
(0.0995276 0.00178696 -0.0876339)
(0.116321 0.00154976 -0.0817665)
(0.131842 0.0012554 -0.0741596)
(0.145765 0.000982923 -0.0649853)
(0.15786 0.000699823 -0.0545077)
(0.167989 0.000357449 -0.0430784)
(0.176095 3.17021e-05 -0.0310587)
(0.182153 -0.000269876 -0.0188127)
(0.186174 -0.000544201 -0.00668471)
(0.188223 -0.000792565 0.00499763)
(0.188378 -0.00101309 0.0159763)
(0.186777 -0.00122432 0.0260349)
(0.0172787 -0.00287115 -0.081571)
(0.0222598 -0.00376744 -0.0849239)
(0.0471385 -0.00332 -0.0867936)
(0.0661724 -0.00317555 -0.0865418)
(0.0846415 -0.00303245 -0.0845613)
(0.102853 -0.00282291 -0.0808197)
(0.120074 -0.00257567 -0.0752167)
(0.135897 -0.00230022 -0.0678802)
(0.150039 -0.00200743 -0.0589995)
(0.162305 -0.00172573 -0.0488937)
(0.172557 -0.00146997 -0.0379072)
(0.18072 -0.00124723 -0.0263922)
(0.18678 -0.00106672 -0.0146853)
(0.190756 -0.000938485 -0.00308962)
(0.192721 -0.000877755 0.00809272)
(0.192758 -0.000908025 0.0186375)
(0.19101 -0.00106703 0.0283426)
(0.0179228 -0.00186375 -0.0887851)
(0.0226858 -0.00288739 -0.0928644)
(0.0481493 -0.0027447 -0.0950314)
(0.0675055 -0.00266088 -0.0949657)
(0.086389 -0.00264462 -0.0929971)
(0.105023 -0.00259813 -0.0890328)
(0.122583 -0.00251606 -0.0830289)
(0.13867 -0.00240012 -0.0752258)
(0.15302 -0.00225951 -0.0657735)
(0.165436 -0.00211366 -0.0550225)
(0.175786 -0.00198695 -0.0433374)
(0.184008 -0.0018865 -0.0310857)
(0.190091 -0.00181735 -0.0186087)
(0.194054 -0.00178767 -0.00622801)
(0.195971 -0.00181538 0.00573826)
(0.195904 -0.00193853 0.0170572)
(0.193971 -0.00222016 0.0274574)
(0.0186629 -0.00196838 -0.0940231)
(0.0230527 -0.00266964 -0.098335)
(0.0490391 -0.00272598 -0.1007)
(0.068718 -0.00260833 -0.100751)
(0.0878987 -0.00252891 -0.0987125)
(0.106832 -0.00243809 -0.0945021)
(0.124638 -0.00232231 -0.0881573)
(0.14091 -0.00218844 -0.0797709)
(0.155383 -0.0020474 -0.0698622)
(0.167873 -0.00191191 -0.0585682)
(0.178263 -0.00179397 -0.0463286)
(0.186497 -0.00169967 -0.0335421)
(0.192565 -0.00163491 -0.0205541)
(0.196481 -0.0016105 -0.00771)
(0.198314 -0.00164653 0.0046849)
(0.198101 -0.0017868 0.0163729)
(0.195918 -0.00209812 0.0272896)
(0.017148 0.00295748 -0.107168)
(0.0232157 0.00217135 -0.10928)
(0.0478845 0.00282001 -0.110472)
(0.0674074 0.00273213 -0.10968)
(0.0861898 0.00258583 -0.10681)
(0.104689 0.00249959 -0.101777)
(0.12217 0.00228108 -0.0945893)
(0.138099 0.00214432 -0.0853589)
(0.152204 0.00182542 -0.0743367)
(0.164348 0.00150606 -0.0619105)
(0.174404 0.00119053 -0.048367)
(0.182307 0.000839907 -0.0341264)
(0.188064 0.000479074 -0.0195957)
(0.191705 0.000130105 -0.0051722)
(0.193342 -0.000189525 0.00877003)
(0.193003 -0.000506633 0.0219184)
(0.190878 -0.000813155 0.0339818)
(0.0188185 -0.00288818 -0.0961881)
(0.0234416 -0.00379614 -0.0988926)
(0.0496273 -0.00332177 -0.100536)
(0.0697777 -0.00314044 -0.099878)
(0.0892197 -0.00296138 -0.09709)
(0.108313 -0.00270316 -0.0921742)
(0.126213 -0.00239991 -0.0850312)
(0.142479 -0.00205902 -0.0760005)
(0.156861 -0.00172641 -0.0652103)
(0.169157 -0.00141959 -0.0530543)
(0.179283 -0.00114962 -0.0399948)