/*--------------------------------*- C++ -*----------------------------------*\
| =========                 |                                                 |
| \\      /  F ield         | OpenFOAM: The Open Source CFD Toolbox           |
|  \\    /   O peration     | Version:  2.3.x                                 |
|   \\  /    A nd           | Web:      www.OpenFOAM.org                      |
|    \\/     M anipulation  |                                                 |
\*---------------------------------------------------------------------------*/
FoamFile
{
    version     2.0;
    format      ascii;
    class       volVectorField;
    location    "0";
    object      UsRec;
}
// * * * * * * * * * * * * * * * * * * * * * * * * * * * * * * * * * * * * * //

dimensions      [ 0 1 -1 0 0 0 0 ];

internalField   nonuniform List<vector> 
44000
(
(0.00702975 1.83208e-05 -0.00693439)
(0.0118671 -0.000602633 -0.00776247)
(0.0221 -0.00074133 -0.00802677)
(0.031782 -0.00112604 -0.00851597)
(0.0415791 -0.00149417 -0.00895425)
(0.0516049 -0.00179978 -0.0092466)
(0.0617203 -0.00200069 -0.00933388)
(0.0717074 -0.00213295 -0.00924748)
(0.0814106 -0.00221562 -0.00901492)
(0.0907053 -0.00226134 -0.00866204)
(0.0994943 -0.00228304 -0.00821631)
(0.107716 -0.00229756 -0.00770351)
(0.115351 -0.00233009 -0.00714148)
(0.122432 -0.00242243 -0.0065323)
(0.129066 -0.00266045 -0.00587682)
(0.135609 -0.00314255 -0.00538305)
(0.142523 -0.00383875 -0.00583139)
(0.00738359 -1.51432e-05 -0.00727712)
(0.0124643 -0.000213434 -0.00793231)
(0.0228893 -7.68958e-05 -0.00816342)
(0.0326245 -2.98401e-05 -0.00866976)
(0.0424646 -1.52456e-05 -0.00911966)
(0.0525004 -3.28231e-06 -0.00943048)
(0.0626078 9.89434e-06 -0.00954491)
(0.0726048 1.93073e-05 -0.00948687)
(0.0823457 2.19115e-05 -0.00928094)
(0.0917048 1.4468e-05 -0.00895136)
(0.100581 -8.35134e-06 -0.00852229)
(0.108907 -5.84964e-05 -0.00801471)
(0.116652 -0.000163808 -0.00743802)
(0.12383 -0.000385328 -0.00678334)
(0.130535 -0.000869138 -0.00607922)
(0.137201 -0.00170701 -0.00597847)
(0.144469 -0.00234822 -0.00793053)
(0.00757232 -3.47717e-05 -0.00746272)
(0.0127237 -0.000221792 -0.00804767)
(0.0232724 -0.000260452 -0.00825731)
(0.0330557 -0.000347851 -0.00878833)
(0.0429545 -0.00047502 -0.00926794)
(0.0530437 -0.000613557 -0.00961833)
(0.0631959 -0.000742816 -0.00978241)
(0.0732382 -0.000857129 -0.00977748)
(0.0830298 -0.000958501 -0.00962532)
(0.0924464 -0.0010525 -0.00934637)
(0.101383 -0.00114985 -0.00895939)
(0.109759 -0.00127266 -0.00847688)
(0.117516 -0.00146911 -0.00789595)
(0.124595 -0.00184514 -0.00719191)
(0.131045 -0.00265522 -0.00649312)
(0.13748 -0.00390737 -0.00784453)
(0.144936 -0.00471725 -0.0137929)
(0.00770571 -4.75691e-05 -0.00760476)
(0.0128877 -0.000146872 -0.00816124)
(0.0235275 -0.000212602 -0.00834086)
(0.0333758 -0.000270115 -0.00886745)
(0.0433314 -0.000354626 -0.00934924)
(0.0534733 -0.000452887 -0.00970879)
(0.0636704 -0.00054749 -0.00988971)
(0.0737507 -0.000631629 -0.00990441)
(0.0835743 -0.000706922 -0.00977276)
(0.0930158 -0.000779834 -0.00951288)
(0.101965 -0.000863212 -0.0091398)
(0.110323 -0.00098289 -0.00865945)
(0.117993 -0.00119396 -0.00805375)
(0.124813 -0.00161877 -0.00728744)
(0.130878 -0.00255968 -0.00683437)
(0.136851 -0.00375519 -0.0117578)
(0.145455 -0.00548906 -0.0237943)
(0.00799173 0.000640019 -0.0118795)
(0.0126295 2.08366e-05 -0.012435)
(0.0232229 -9.68721e-05 -0.0124911)
(0.0330872 -0.000489402 -0.0126382)
(0.0430395 -0.00083926 -0.012735)
(0.0531679 -0.00112774 -0.0126944)
(0.0633416 -0.00131768 -0.0124759)
(0.0733825 -0.00143608 -0.012079)
(0.083145 -0.00150732 -0.0115193)
(0.0925078 -0.00154655 -0.0108217)
(0.101376 -0.00156606 -0.0100218)
(0.109694 -0.00158019 -0.00916036)
(0.117462 -0.00160537 -0.00828056)
(0.124759 -0.00165755 -0.00742586)
(0.131766 -0.0017482 -0.00665103)
(0.138781 -0.00177484 -0.00612806)
(0.145715 -0.00162102 -0.00634777)
(0.00818368 0.000166717 -0.0124475)
(0.0130662 -3.29607e-05 -0.0128244)
(0.0240377 0.000107354 -0.0128648)
(0.0340483 0.000151276 -0.013062)
(0.0440947 0.000194621 -0.0132021)
(0.0542652 0.000253906 -0.0131997)
(0.0644451 0.00032416 -0.013013)
(0.0744979 0.000396269 -0.0126384)
(0.0842924 0.000461825 -0.0120912)
(0.0937082 0.000513379 -0.0113988)
(0.10265 0.000544696 -0.0105949)
(0.111062 0.000547507 -0.00971909)
(0.118947 0.000509937 -0.00881277)
(0.126394 0.000424481 -0.00791873)
(0.133632 0.000317118 -0.00711328)
(0.140955 0.000424368 -0.0067119)
(0.148002 0.000969886 -0.00740732)
(0.00830565 0.000118161 -0.0127132)
(0.0132365 -7.28141e-05 -0.0130045)
(0.0244182 -0.000115968 -0.0130198)
(0.0345442 -0.00020844 -0.0132434)
(0.044695 -0.000319582 -0.0134228)
(0.0549476 -0.000421969 -0.0134692)
(0.0651868 -0.000500445 -0.0133389)
(0.0752873 -0.000554924 -0.0130227)
(0.0851274 -0.000592859 -0.0125324)
(0.0945911 -0.000624231 -0.0118922)
(0.103583 -0.000662228 -0.0111322)
(0.112045 -0.000724727 -0.0102862)
(0.119973 -0.000836295 -0.0093876)
(0.127463 -0.00101219 -0.0084711)
(0.13481 -0.00120294 -0.00763644)
(0.142258 -0.00103974 -0.00752632)
(0.149081 -0.000434006 -0.00907928)
(0.008419 1.40703e-05 -0.0129108)
(0.0133667 -8.73693e-05 -0.0131641)
(0.0246724 -0.000154954 -0.0131591)
(0.0349003 -0.000213956 -0.0133928)
(0.0451406 -0.000288099 -0.0135938)
(0.0554714 -0.000359547 -0.013668)
(0.0657718 -0.000413154 -0.01357)
(0.075917 -0.000446707 -0.0132862)
(0.0857877 -0.000466151 -0.0128255)
(0.0952692 -0.000482287 -0.01221)
(0.104265 -0.000510927 -0.0114678)
(0.112713 -0.000574039 -0.0106312)
(0.120612 -0.000700477 -0.00972588)
(0.128087 -0.000904687 -0.00877758)
(0.13556 -0.00113194 -0.00794543)
(0.143043 -0.00114652 -0.00845264)
(0.149486 -0.00196998 -0.0110877)
(0.00856001 0.000731569 -0.022398)
(0.0132371 0.000109616 -0.0231428)
(0.024559 3.86296e-06 -0.0235335)
(0.034888 -0.000444046 -0.0239821)
(0.0452352 -0.000840881 -0.0243095)
(0.0557016 -0.00117429 -0.0244048)
(0.0661466 -0.00140486 -0.0241941)
(0.0764033 -0.00154599 -0.0236586)
(0.0863291 -0.00163006 -0.0228157)
(0.0958037 -0.00167797 -0.0217056)
(0.10473 -0.00170107 -0.0203883)
(0.113047 -0.00171512 -0.0189415)
(0.120743 -0.00173971 -0.0174636)
(0.127869 -0.00179987 -0.0160876)
(0.13454 -0.00193244 -0.0150081)
(0.140956 -0.00210772 -0.0145467)
(0.147076 -0.00227871 -0.0151664)
(0.00872945 -1.68158e-05 -0.0231141)
(0.0136533 -0.00021252 -0.0238433)
(0.0254192 -6.11207e-05 -0.0242588)
(0.0359608 -3.45377e-05 -0.0247474)
(0.0464603 -1.759e-07 -0.0251086)
(0.057012 6.07059e-05 -0.025221)
(0.0674884 0.000142286 -0.025014)
(0.0777647 0.000236092 -0.0244709)
(0.0877177 0.000330294 -0.0236101)
(0.0972329 0.000412569 -0.022474)
(0.106217 0.000475467 -0.0211248)
(0.114607 0.000509521 -0.0196435)
(0.12239 0.000500504 -0.0181341)
(0.129615 0.00042861 -0.0167463)
(0.13641 0.00027472 -0.0157165)
(0.142955 9.54181e-05 -0.0154883)
(0.149063 -0.00010334 -0.01656)
(0.00883051 6.66827e-05 -0.0235359)
(0.0137959 -0.000123868 -0.0242587)
(0.0258224 -0.000158661 -0.0246698)
(0.0365239 -0.000257328 -0.0251697)
(0.0471648 -0.000373208 -0.0255469)
(0.0578247 -0.000475159 -0.0256792)
(0.0683759 -0.000547285 -0.0254966)
(0.0787047 -0.000588064 -0.0249789)
(0.0887004 -0.000606171 -0.0241427)
(0.0982549 -0.000612909 -0.0230299)
(0.107276 -0.000624186 -0.021702)
(0.115703 -0.000659576 -0.0202408)
(0.123512 -0.000746511 -0.0187507)
(0.130736 -0.00092032 -0.0173971)
(0.137492 -0.00121519 -0.0164894)
(0.14389 -0.00162611 -0.0166922)
(0.149466 -0.00245762 -0.0184792)
(0.00893168 -1.50324e-05 -0.0238785)
(0.0139118 -0.000116409 -0.0245942)
(0.0260841 -0.000182924 -0.0250011)
(0.036915 -0.000244736 -0.025512)
(0.047672 -0.000320388 -0.0259074)
(0.0584315 -0.000388609 -0.0260624)
(0.0690589 -0.000433225 -0.0259066)
(0.0794406 -0.000451285 -0.0254163)
(0.0894692 -0.000449537 -0.024605)
(0.0990383 -0.000440081 -0.0235127)
(0.108058 -0.000440712 -0.0222021)
(0.116459 -0.000475498 -0.0207515)
(0.12421 -0.000578902 -0.0192729)
(0.131328 -0.000795065 -0.0179676)
(0.137892 -0.00118652 -0.0172693)
(0.14376 -0.00191602 -0.0181765)
(0.148026 -0.00414676 -0.0209143)
(0.00942535 0.000961087 -0.0327588)
(0.0141617 0.000362334 -0.0335122)
(0.0263449 0.000325948 -0.0339967)
(0.0373029 -0.000128707 -0.0345016)
(0.0481974 -0.00055854 -0.0348081)
(0.0591473 -0.000939322 -0.0347895)
(0.0699976 -0.00122862 -0.0343664)
(0.0805791 -0.00142266 -0.0335103)
(0.0907439 -0.00155288 -0.0322379)
(0.100371 -0.00163602 -0.0306001)
(0.109358 -0.00168621 -0.0286726)
(0.117635 -0.00172216 -0.0265571)
(0.12517 -0.00176565 -0.0243832)
(0.131979 -0.00184496 -0.0223173)
(0.138124 -0.00200152 -0.0205803)
(0.143737 -0.00226042 -0.0194662)
(0.148851 -0.00263341 -0.019339)
(0.00961653 -0.000186687 -0.0334862)
(0.0145994 -0.000372309 -0.0342976)
(0.0272446 -0.000192235 -0.0348525)
(0.0384489 -0.000171126 -0.0354096)
(0.0495389 -0.000155106 -0.0357615)
(0.060615 -0.000116068 -0.0357685)
(0.0715264 -5.49882e-05 -0.035353)
(0.0821436 2.5313e-05 -0.0344907)
(0.0923443 0.000114848 -0.0332001)
(0.102012 0.000201967 -0.0315325)
(0.111049 0.000275851 -0.0295686)
(0.119382 0.000323037 -0.0274134)
(0.12698 0.000325349 -0.0252027)
(0.133854 0.000253378 -0.0231123)
(0.140064 6.14498e-05 -0.0213845)
(0.14572 -0.000298629 -0.0203673)
(0.150794 -0.00091404 -0.0204103)
(0.00973884 -4.24833e-05 -0.0340552)
(0.0147465 -0.000236107 -0.0349186)
(0.0276711 -0.000259219 -0.035502)
(0.0390607 -0.000364835 -0.0360803)
(0.05032 -0.00049793 -0.0364415)
(0.0615281 -0.000623066 -0.0364531)
(0.072533 -0.000718789 -0.0360402)
(0.0832141 -0.000777417 -0.0351772)
(0.0934603 -0.000805496 -0.0338824)
(0.103163 -0.000815187 -0.032209)
(0.112231 -0.000822316 -0.0302402)
(0.120591 -0.000847312 -0.0280819)
(0.128196 -0.000920874 -0.0258717)
(0.135039 -0.00109274 -0.0237959)
(0.141142 -0.00144713 -0.0221308)
(0.146542 -0.00212227 -0.0212973)
(0.151056 -0.00346197 -0.0215744)
(0.00985619 -0.000139534 -0.0345623)
(0.0148698 -0.0002455 -0.0354602)
(0.0279462 -0.000312573 -0.0360653)
(0.0394757 -0.000383912 -0.0366649)
(0.050867 -0.000477589 -0.0370456)
(0.062192 -0.000567166 -0.0370751)
(0.0732886 -0.000631953 -0.0366792)
(0.0840337 -0.000664855 -0.0358306)
(0.0943185 -0.000670848 -0.0345463)
(0.104042 -0.000661825 -0.0328814)
(0.11311 -0.000654974 -0.0309163)
(0.12144 -0.000674693 -0.0287545)
(0.128975 -0.000758845 -0.0265362)
(0.135673 -0.000970341 -0.0244674)
(0.141485 -0.00142309 -0.0228743)
(0.14626 -0.0023672 -0.0222484)
(0.149454 -0.00456193 -0.0225664)
(0.0101808 0.00100131 -0.0436627)
(0.0151864 0.000419784 -0.0444643)
(0.0283231 0.000444779 -0.0450177)
(0.0400298 -1.55658e-06 -0.045516)
(0.0515897 -0.000462801 -0.0457195)
(0.0631375 -0.000884104 -0.0454881)
(0.0745064 -0.00122593 -0.0447475)
(0.0855157 -0.00147283 -0.043466)
(0.0960084 -0.00165082 -0.0416612)
(0.105854 -0.0017732 -0.0393912)
(0.114942 -0.00185374 -0.0367469)
(0.123189 -0.00190766 -0.0338491)
(0.130544 -0.00195638 -0.030848)
(0.136993 -0.00203245 -0.0279246)
(0.142563 -0.00217541 -0.0252992)
(0.147339 -0.00243188 -0.0232362)
(0.151397 -0.00286158 -0.0220384)
(0.0103975 -0.000423153 -0.0444504)
(0.0156263 -0.000621107 -0.0453461)
(0.0292372 -0.000424224 -0.0460119)
(0.0412223 -0.000407158 -0.0465951)
(0.0530162 -0.000412381 -0.0468682)
(0.0647363 -0.000398361 -0.0466853)
(0.0762047 -0.000362049 -0.0459683)
(0.0872767 -0.000301378 -0.0446893)
(0.0978227 -0.000223581 -0.0428701)
(0.10772 -0.00013932 -0.0405726)
(0.116859 -6.05435e-05 -0.03789)
(0.125157 -1.1527e-06 -0.0349465)
(0.132563 1.78425e-05 -0.0318949)
(0.139055 -3.77345e-05 -0.0289222)
(0.144654 -0.000224514 -0.0262631)
(0.149426 -0.000631221 -0.0242058)
(0.153418 -0.00139806 -0.0230418)
(0.0105507 -0.000257702 -0.0452637)
(0.0157855 -0.000479286 -0.0462518)
(0.0296899 -0.000492847 -0.046979)
(0.0418768 -0.000604142 -0.0476061)
(0.0538677 -0.000751313 -0.0479018)
(0.0657451 -0.000898666 -0.0477263)
(0.0773304 -0.00101972 -0.0470049)
(0.0884849 -0.00110023 -0.0457116)
(0.0990885 -0.00114338 -0.0438696)
(0.109029 -0.00116022 -0.0415441)
(0.118201 -0.00116552 -0.0388305)
(0.126517 -0.00117947 -0.035853)
(0.133916 -0.00123389 -0.0327684)
(0.140361 -0.00138385 -0.0297706)
(0.145828 -0.0017269 -0.0271052)
(0.150309 -0.00243778 -0.025079)
(0.153736 -0.00385503 -0.0239316)
(0.0106931 -0.000342114 -0.0459991)
(0.0159188 -0.000472151 -0.0470656)
(0.0299833 -0.000545357 -0.0478476)
(0.0423166 -0.000626021 -0.0485165)
(0.0544514 -0.000738266 -0.0488417)
(0.0664625 -0.000852077 -0.0486844)
(0.0781572 -0.000941805 -0.0479714)
(0.0893904 -0.000996004 -0.046677)
(0.100049 -0.00101735 -0.0448278)
(0.110022 -0.001016 -0.04249)
(0.119199 -0.00100692 -0.0397548)
(0.12749 -0.00101307 -0.0367468)
(0.134819 -0.0010724 -0.0336236)
(0.141115 -0.00125059 -0.0305842)
(0.146285 -0.00166841 -0.0278858)
(0.150171 -0.00256787 -0.0258379)
(0.152407 -0.00449534 -0.0244908)
(0.0108227 0.000896108 -0.0551404)
(0.0162355 0.000318441 -0.0560732)
(0.0303862 0.000405679 -0.0566858)
(0.0429362 -3.34676e-05 -0.05713)
(0.0552568 -0.000511767 -0.0571591)
(0.0675032 -0.000955551 -0.0566231)
(0.0794909 -0.001329 -0.0554553)
(0.0910204 -0.00161369 -0.0536272)
(0.101924 -0.001827 -0.0511617)
(0.112058 -0.0019793 -0.0481265)
(0.121299 -0.00208036 -0.0446271)
(0.129549 -0.00214284 -0.0408008)
(0.136741 -0.00218871 -0.0368109)
(0.142843 -0.00224625 -0.032847)
(0.14786 -0.00235281 -0.0291246)
(0.151851 -0.00255776 -0.0258832)
(0.154909 -0.00293181 -0.0233833)
(0.0110637 -0.000729166 -0.0561177)
(0.0166647 -0.00095944 -0.0571814)
(0.0313005 -0.00075326 -0.0579374)
(0.0441594 -0.000744674 -0.0584999)
(0.0567574 -0.000768217 -0.0586224)
(0.0692234 -0.000774706 -0.0581604)
(0.0813554 -0.000757368 -0.0570359)
(0.092985 -0.000711401 -0.0552216)
(0.10397 -0.000642159 -0.0527457)
(0.114173 -0.000559486 -0.0496797)
(0.123475 -0.000473827 -0.0461328)
(0.131781 -0.000399 -0.0422447)
(0.139018 -0.000356337 -0.0381816)
(0.14515 -0.000380248 -0.0341387)
(0.150176 -0.000527561 -0.0303398)
(0.154139 -0.000891981 -0.0270345)
(0.157114 -0.00162315 -0.0244809)
(0.0112624 -0.00058564 -0.0572663)
(0.016843 -0.000855548 -0.0584585)
(0.0317879 -0.00086741 -0.0593159)
(0.044864 -0.000979304 -0.0599558)
(0.0576854 -0.00113499 -0.0601305)
(0.0703392 -0.00129528 -0.0596933)
(0.0826164 -0.00143127 -0.0585693)
(0.0943538 -0.00152555 -0.0567356)
(0.10542 -0.00157808 -0.0542252)
(0.115685 -0.0015975 -0.0511129)
(0.125027 -0.0015962 -0.0475064)
(0.133349 -0.00159282 -0.0435489)
(0.140577 -0.00161877 -0.0394117)
(0.146656 -0.00172697 -0.0352926)
(0.151549 -0.0020093 -0.0314163)
(0.155236 -0.00262921 -0.0280308)
(0.157689 -0.00388284 -0.0253594)
(0.0114394 -0.000623101 -0.0583262)
(0.0169887 -0.000799655 -0.0596399)
(0.0321088 -0.000886295 -0.0605908)
(0.0453408 -0.000975038 -0.061305)
(0.0583191 -0.00110018 -0.0615312)
(0.0711255 -0.00123083 -0.0611221)
(0.0835318 -0.00133777 -0.0600039)
(0.095371 -0.00140757 -0.0581581)
(0.106515 -0.00144031 -0.055624)
(0.116828 -0.00144332 -0.0524715)
(0.126187 -0.00142893 -0.0488113)
(0.134493 -0.00141809 -0.0447875)
(0.141659 -0.00144587 -0.0405719)
(0.147604 -0.00157237 -0.0363609)
(0.152233 -0.00190513 -0.0323753)
(0.155411 -0.00264611 -0.0288462)
(0.156895 -0.00419361 -0.0258912)
(0.0114831 0.000778204 -0.0670867)
(0.0173239 0.000169582 -0.0682662)
(0.0325268 0.000317221 -0.0689351)
(0.0459801 -0.000117842 -0.0692912)
(0.05913 -0.000588766 -0.0690828)
(0.0721553 -0.00103815 -0.0681629)
(0.0848413 -0.00142329 -0.0664671)
(0.0969648 -0.00173058 -0.0639744)
(0.108346 -0.00196732 -0.0607176)
(0.118824 -0.00213888 -0.056778)
(0.128262 -0.00225286 -0.0522779)
(0.136548 -0.00232198 -0.04737)
(0.143605 -0.00236358 -0.0422328)
(0.14939 -0.00240126 -0.0370643)
(0.153899 -0.00246858 -0.0320788)
(0.157179 -0.00261123 -0.0275011)
(0.159326 -0.00289332 -0.0235672)
(0.0117399 -0.00105764 -0.0684457)
(0.0177317 -0.00135 -0.0697917)
(0.0334443 -0.00114402 -0.0706361)
(0.0472413 -0.00114413 -0.071138)
(0.0607122 -0.00117775 -0.0710498)
(0.0740029 -0.00119627 -0.0702286)
(0.086881 -0.00118803 -0.0685958)
(0.0991506 -0.00114783 -0.0661278)
(0.110649 -0.0010801 -0.0628613)
(0.121223 -0.000992808 -0.0588815)
(0.130741 -0.000895443 -0.0543139)
(0.13909 -0.000801382 -0.0493148)
(0.146192 -0.000731111 -0.0440684)
(0.152001 -0.000716257 -0.0387786)
(0.156506 -0.00080832 -0.0336648)
(0.159742 -0.00109181 -0.0289571)
(0.161796 -0.00170221 -0.0248942)
(0.0119977 -0.00097378 -0.0700378)
(0.0179372 -0.00131074 -0.071562)
(0.0339773 -0.0013266 -0.0725554)
(0.0480089 -0.00143793 -0.0731812)
(0.061733 -0.00159496 -0.073185)
(0.0752473 -0.00175565 -0.0724145)
(0.0883032 -0.00189155 -0.070793)
(0.100714 -0.00198594 -0.0683051)
(0.112326 -0.00203682 -0.0649938)
(0.122984 -0.00204949 -0.0609426)
(0.132554 -0.00203371 -0.0562805)
(0.140928 -0.00200705 -0.0511703)
(0.148024 -0.00199853 -0.0458002)
(0.153782 -0.00205509 -0.0403761)
(0.158165 -0.00225627 -0.0351157)
(0.161156 -0.00273984 -0.0302404)
(0.162751 -0.00374977 -0.0259671)
(0.0122261 -0.000957748 -0.0715384)
(0.0181055 -0.0011987 -0.0732326)
(0.0343418 -0.00130269 -0.0743647)
(0.0485428 -0.00139667 -0.0751077)
(0.0624408 -0.00152617 -0.0751958)
(0.0761287 -0.00166116 -0.0744715)
(0.0893382 -0.00177195 -0.0728591)
(0.10188 -0.0018453 -0.0703541)
(0.113594 -0.00187894 -0.0669975)
(0.124319 -0.00187747 -0.0628749)
(0.133923 -0.00185107 -0.0581197)
(0.142294 -0.00181864 -0.0528984)
(0.149341 -0.00181111 -0.0474007)
(0.154986 -0.00187992 -0.0418304)
(0.159145 -0.00211432 -0.0363971)
(0.161718 -0.00267382 -0.0313022)
(0.162542 -0.0038549 -0.0267072)
(0.0122597 0.000723836 -0.0795267)
(0.0184662 6.0152e-05 -0.0810437)
(0.0347731 0.000270301 -0.0817764)
(0.0491706 -0.000144914 -0.0820139)
(0.0631921 -0.000591583 -0.0815216)
(0.077057 -0.00103349 -0.0801551)
(0.0904973 -0.00141715 -0.0778414)
(0.103266 -0.00173572 -0.0745718)
(0.115168 -0.00198589 -0.0703945)
(0.126024 -0.00217085 -0.0654098)
(0.135683 -0.0022974 -0.0597587)
(0.144025 -0.00237559 -0.0536149)
(0.150965 -0.00241843 -0.0471754)
(0.15646 -0.0024451 -0.0406514)
(0.160501 -0.00248412 -0.0342622)
(0.163133 -0.00257517 -0.0282284)
(0.164454 -0.00277142 -0.0227745)
(0.0125458 -0.00138459 -0.0814555)
(0.0188666 -0.00176109 -0.0831675)
(0.0357091 -0.00155829 -0.0841066)
(0.050488 -0.00156149 -0.0845264)
(0.0648766 -0.00159587 -0.0841855)
(0.0790487 -0.00161594 -0.0829379)
(0.0927311 -0.00160611 -0.0807039)
(0.105696 -0.0015619 -0.0774669)
(0.117759 -0.00148696 -0.0732753)
(0.128746 -0.00138792 -0.0682314)
(0.138506 -0.00127381 -0.0624801)
(0.146922 -0.00115808 -0.0562029)
(0.153912 -0.00105956 -0.0496044)
(0.159427 -0.00100619 -0.0429025)
(0.163456 -0.0010421 -0.0363217)
(0.166034 -0.00123833 -0.0300861)
(0.167253 -0.00170815 -0.0244247)
(0.0128774 -0.00135627 -0.0836286)
(0.0191072 -0.00178274 -0.0855821)
(0.0363038 -0.00180531 -0.0867254)
(0.0513389 -0.00191117 -0.0873239)
(0.0660144 -0.00206053 -0.0871201)
(0.080448 -0.00220755 -0.0859518)
(0.0943457 -0.0023275 -0.0837415)
(0.107493 -0.0024071 -0.0804845)
(0.119702 -0.00244305 -0.0762285)
(0.130794 -0.00243789 -0.0710786)
(0.140625 -0.00240057 -0.065189)
(0.149079 -0.00234757 -0.0587481)
(0.156069 -0.00230417 -0.051966)
(0.161541 -0.00231004 -0.0450637)
(0.165461 -0.00243104 -0.0382645)
(0.167826 -0.00277887 -0.0317841)
(0.168653 -0.00354608 -0.0258335)
(0.0131765 -0.00130062 -0.0857055)
(0.0193111 -0.00162217 -0.0878874)
(0.036733 -0.00174354 -0.0892216)
(0.0519562 -0.00183576 -0.0899883)
(0.0668252 -0.00195857 -0.0899076)
(0.0814552 -0.00208357 -0.0888077)
(0.0955362 -0.0021836 -0.086614)
(0.108845 -0.00224634 -0.0833305)
(0.121179 -0.00226823 -0.0790017)
(0.13236 -0.00225187 -0.0737411)
(0.142243 -0.00220677 -0.0677103)
(0.150709 -0.00214983 -0.0611037)
(0.157666 -0.00210753 -0.054135)
(0.163042 -0.00212238 -0.0470249)
(0.166776 -0.002266 -0.0399897)
(0.168801 -0.00266208 -0.0332271)
(0.169015 -0.00353396 -0.0269154)
(0.013187 0.000772068 -0.0925976)
(0.0196686 4.41395e-05 -0.0944677)
(0.037132 0.000313767 -0.0952663)
(0.0525077 -5.90873e-05 -0.0953672)
(0.0674365 -0.000469354 -0.0945635)
(0.082182 -0.000880928 -0.092697)
(0.0964126 -0.00125263 -0.0896843)
(0.109856 -0.00157052 -0.08553)
(0.122297 -0.00182582 -0.0803033)
(0.133541 -0.00202174 -0.0741286)
(0.143422 -0.00216369 -0.0671735)
(0.151818 -0.00225757 -0.0596382)
(0.158644 -0.00231249 -0.0517435)
(0.163857 -0.00234294 -0.0437192)
(0.167455 -0.00237191 -0.035797)
(0.169485 -0.00243303 -0.0282025)
(0.170049 -0.00256898 -0.0211569)
(0.013525 -0.0016905 -0.0952289)
(0.020082 -0.00216432 -0.0973274)
(0.0381087 -0.00196201 -0.098368)
(0.0539069 -0.00196008 -0.0986976)
(0.0692485 -0.00198583 -0.098077)
(0.0843412 -0.00199249 -0.096343)
(0.0988625 -0.00196969 -0.0934178)
(0.112556 -0.00191139 -0.0892954)
(0.125206 -0.00181989 -0.0840389)
(0.136614 -0.00170145 -0.0777729)
(0.146621 -0.00156655 -0.0706742)
(0.155105 -0.00142853 -0.0629531)
(0.161985 -0.00130449 -0.05484)
(0.167218 -0.00121828 -0.0465723)
(0.170799 -0.00120647 -0.0383877)
(0.172768 -0.00132665 -0.0305156)
(0.173221 -0.00166859 -0.0231815)
(0.0139495 -0.00168473 -0.0981351)
(0.0203677 -0.00221779 -0.100544)
(0.0387854 -0.00224415 -0.101848)
(0.0548665 -0.00233447 -0.102415)
(0.0705263 -0.00246512 -0.101976)
(0.0859189 -0.00258497 -0.100348)
(0.100701 -0.00267359 -0.0974568)
(0.114616 -0.00272235 -0.0933027)
(0.127439 -0.00272849 -0.0879492)
(0.138976 -0.00269506 -0.0815327)
(0.149071 -0.00263158 -0.0742401)
(0.157605 -0.00255267 -0.0662916)
(0.164495 -0.00247936 -0.0579254)
(0.169692 -0.00244391 -0.0493844)
(0.173177 -0.00249905 -0.0409068)
(0.174964 -0.00273287 -0.0327143)
(0.175089 -0.00329355 -0.0250183)
(0.014339 -0.00160844 -0.100943)
(0.0206202 -0.00202123 -0.103643)
(0.0393009 -0.00215476 -0.105195)
(0.0555938 -0.00223395 -0.105984)
(0.0714656 -0.00233715 -0.105705)
(0.087081 -0.00243733 -0.104162)
(0.102079 -0.00251093 -0.101293)
(0.116182 -0.00254726 -0.0970912)
(0.129152 -0.0025437 -0.0916289)
(0.140799 -0.00250321 -0.0850526)
(0.150962 -0.00243522 -0.0775597)
(0.15952 -0.00235454 -0.0693802)
(0.166389 -0.00228306 -0.0607591)
(0.171508 -0.00225492 -0.0519417)
(0.174838 -0.00232622 -0.0431624)
(0.176348 -0.00259173 -0.0346279)
(0.175985 -0.00321654 -0.0265233)
(0.0142313 0.000920289 -0.106448)
(0.0209123 0.000127926 -0.108623)
(0.0395746 0.000461434 -0.109485)
(0.0559631 0.000149638 -0.10945)
(0.0718238 -0.000226151 -0.108318)
(0.0874709 -0.000582439 -0.105899)
(0.102511 -0.000914848 -0.10211)
(0.11664 -0.00121978 -0.0969679)
(0.129618 -0.00148328 -0.0905632)
(0.141235 -0.00169868 -0.0830517)
(0.151318 -0.00186106 -0.0746359)
(0.159743 -0.00197465 -0.0655505)
(0.166433 -0.00204656 -0.0560477)
(0.171355 -0.00208955 -0.0463821)
(0.174517 -0.00212285 -0.0368047)
(0.175975 -0.00217509 -0.0275515)
(0.175836 -0.0022808 -0.0188467)
(0.0146396 -0.00195521 -0.109869)
(0.0213546 -0.00252954 -0.112312)
(0.0406096 -0.00232099 -0.113461)
(0.0574661 -0.00230346 -0.113702)
(0.0737888 -0.00231121 -0.112783)
(0.089827 -0.00228768 -0.110507)
(0.105205 -0.00223444 -0.106797)
(0.119632 -0.00214888 -0.101664)
(0.132859 -0.00203153 -0.0951953)
(0.144672 -0.00188882 -0.0875487)
(0.154901 -0.00173189 -0.0789363)
(0.163428 -0.00157423 -0.0696044)
(0.170178 -0.00143111 -0.0598165)
(0.175119 -0.00132223 -0.0498371)
(0.17826 -0.00127687 -0.0399254)
(0.179653 -0.00134048 -0.0303216)
(0.179399 -0.00158303 -0.0212515)
(0.0151737 -0.00192333 -0.113655)
(0.0216953 -0.00256569 -0.116476)
(0.0413857 -0.00258562 -0.117949)
(0.0585555 -0.00264471 -0.118484)
(0.0752223 -0.00274135 -0.11778)
(0.0916031 -0.0028192 -0.115632)
(0.107292 -0.00286043 -0.111964)
(0.121975 -0.0028617 -0.106776)
(0.1354 -0.00282467 -0.100167)
(0.14736 -0.00275621 -0.0923109)
(0.157689 -0.00266603 -0.0834346)
(0.166272 -0.00256671 -0.0737988)
(0.173037 -0.00247477 -0.063678)
(0.177948 -0.0024149 -0.0533442)
(0.181006 -0.00242756 -0.0430604)
(0.182243 -0.00258032 -0.0330618)
(0.181714 -0.00298566 -0.0235615)
(0.0156672 -0.00184264 -0.117354)
(0.0220065 -0.00234429 -0.120523)
(0.0420027 -0.00247838 -0.122299)
(0.0594113 -0.00252746 -0.123103)
(0.0763108 -0.00259349 -0.122592)
(0.0929523 -0.00265113 -0.120552)
(0.108892 -0.00267984 -0.1169)
(0.123785 -0.0026727 -0.111632)
(0.137375 -0.00263079 -0.104863)
(0.149454 -0.00256008 -0.0967828)
(0.159856 -0.00246984 -0.0876336)
(0.168469 -0.00237237 -0.0776892)
(0.175219 -0.00228464 -0.0672344)
(0.180065 -0.00223253 -0.0565472)
(0.182991 -0.00225855 -0.0458905)
(0.184 -0.00243399 -0.0354887)
(0.183083 -0.00287984 -0.0255331)
(0.0153115 0.00113196 -0.121192)
(0.0221623 0.000284655 -0.123601)
(0.0420344 0.000692992 -0.124531)
(0.059463 0.000443523 -0.12438)
(0.0762728 0.000115387 -0.122905)
(0.0928197 -0.0001874 -0.119884)
(0.108665 -0.000469342 -0.115239)
(0.123475 -0.000773654 -0.109006)
(0.136968 -0.00104002 -0.101294)
(0.148912 -0.00127728 -0.0922914)
(0.159135 -0.00146308 -0.0822501)
(0.167531 -0.00160203 -0.0714527)
(0.174043 -0.00169623 -0.0601904)
(0.178652 -0.00175443 -0.0487469)
(0.181381 -0.00179132 -0.037399)
(0.182294 -0.00183107 -0.0263966)
(0.181503 -0.00191491 -0.0159696)
(0.0157991 -0.00215384 -0.125462)
(0.0226418 -0.00281567 -0.128183)
(0.043139 -0.00259017 -0.129454)
(0.0610842 -0.0025461 -0.129621)
(0.0784061 -0.00252246 -0.128387)
(0.0954043 -0.00245638 -0.125524)
(0.111641 -0.00235713 -0.120943)
(0.126775 -0.00223137 -0.114673)
(0.140531 -0.00207874 -0.106839)
(0.152688 -0.00190858 -0.0976429)
(0.163075 -0.00173146 -0.0873426)
(0.171586 -0.00156117 -0.0762308)
(0.178164 -0.00140981 -0.0646097)
(0.182793 -0.00129212 -0.0527743)
(0.185499 -0.00123011 -0.0410132)
(0.186345 -0.0012587 -0.0295834)
(0.18544 -0.00143289 -0.0187181)
(0.0164445 -0.00203533 -0.130254)
(0.0230431 -0.00276634 -0.133411)
(0.0440243 -0.00276074 -0.135068)
(0.0623158 -0.00276668 -0.135576)
(0.0800137 -0.00280781 -0.134588)
(0.0974048 -0.00282696 -0.13187)
(0.113987 -0.00280884 -0.127312)
(0.129392 -0.00275385 -0.120942)
(0.143353 -0.00266529 -0.112902)
(0.155655 -0.00255859 -0.10342)
(0.166141 -0.0024457 -0.0927762)
(0.17471 -0.00233739 -0.081279)
(0.181308 -0.00224477 -0.0692434)
(0.185916 -0.00218403 -0.0569734)
(0.188557 -0.00218347 -0.044763)
(0.189274 -0.00229298 -0.0328648)
(0.188146 -0.00259747 -0.0215029)
(0.0170395 -0.00196152 -0.134983)
(0.0234174 -0.00252668 -0.138532)
(0.0447484 -0.00264062 -0.140541)
(0.0633182 -0.0026364 -0.141366)
(0.0812914 -0.00264376 -0.140605)
(0.0989794 -0.00263873 -0.137996)
(0.115821 -0.00260404 -0.133414)
(0.131432 -0.0025404 -0.126902)
(0.145548 -0.00245259 -0.118626)
(0.157956 -0.00235072 -0.108837)
(0.168506 -0.00224449 -0.0978368)
(0.177101 -0.0021435 -0.0859516)
(0.183689 -0.00205908 -0.0735071)
(0.188247 -0.00200851 -0.0608136)
(0.190787 -0.00202154 -0.0481668)
(0.191327 -0.00215067 -0.0358077)
(0.189896 -0.00248465 -0.0239436)
(0.0163387 0.00136525 -0.136895)
(0.0233752 0.000486269 -0.13949)
(0.0444284 0.0009787 -0.140517)
(0.0629037 0.000772876 -0.140288)
(0.0806564 0.00049951 -0.138463)
(0.0980816 0.000253992 -0.134788)
(0.114705 -4.63079e-06 -0.129202)
(0.130131 -0.000278372 -0.121744)
(0.144029 -0.000489112 -0.112562)
(0.156177 -0.000671824 -0.101902)
(0.166433 -0.000888585 -0.0900827)
(0.174725 -0.00106881 -0.0774294)
(0.181014 -0.00121091 -0.064274)
(0.185296 -0.00131822 -0.0509313)
(0.187616 -0.00139946 -0.0377117)
(0.188033 -0.00146104 -0.0248742)
(0.186666 -0.00152944 -0.0126637)
(0.0169017 -0.00225279 -0.142062)
(0.0238976 -0.00296882 -0.145016)
(0.0456067 -0.00271476 -0.146446)
(0.064647 -0.00263509 -0.146572)
(0.0829637 -0.00257057 -0.145012)
(0.100902 -0.00245653 -0.141512)
(0.117945 -0.00230731 -0.13596)
(0.133691 -0.00212691 -0.128411)
(0.147852 -0.00192266 -0.119027)
(0.160224 -0.00171676 -0.108088)
(0.170663 -0.0015263 -0.0959249)
(0.179082 -0.00135587 -0.08288)
(0.185448 -0.00121232 -0.0692917)
(0.189755 -0.00110492 -0.0554826)
(0.192056 -0.00104811 -0.0417748)
(0.192405 -0.00106762 -0.0284328)
(0.190927 -0.00120283 -0.0157078)
(0.0176379 -0.00197772 -0.147945)
(0.0243619 -0.00274812 -0.151385)
(0.0466027 -0.00269291 -0.15326)
(0.0660295 -0.00262669 -0.153768)
(0.0847664 -0.00259594 -0.152479)
(0.103116 -0.00254023 -0.14909)
(0.120481 -0.00245322 -0.143487)
(0.136475 -0.0023364 -0.135749)
(0.150829 -0.00220049 -0.126082)
(0.163342 -0.00206176 -0.114783)
(0.173877 -0.00193816 -0.102198)
(0.182355 -0.00183702 -0.0886889)
(0.188746 -0.00176408 -0.0746099)
(0.193046 -0.00172761 -0.0602956)
(0.195307 -0.00174351 -0.0460755)
(0.195567 -0.00184954 -0.0322066)
(0.193922 -0.00210483 -0.0189318)
(0.0183077 -0.0019192 -0.153798)
(0.0247993 -0.00249427 -0.157653)
(0.0474391 -0.00256322 -0.159924)
(0.0671989 -0.00248751 -0.160787)
(0.0862376 -0.00241906 -0.159723)
(0.104872 -0.00233603 -0.156384)
(0.122468 -0.00223033 -0.15067)
(0.138635 -0.0021073 -0.14269)
(0.153106 -0.00197741 -0.13269)
(0.165693 -0.00185266 -0.120998)
(0.176274 -0.00174335 -0.107981)
(0.184773 -0.00165543 -0.0940163)
(0.191164 -0.00159418 -0.0794693)
(0.195438 -0.00156879 -0.0646796)
(0.19764 -0.001596 -0.0499799)
(0.197782 -0.00171772 -0.0356113)
(0.195921 -0.00199599 -0.0218032)
(0.0172394 0.00157973 -0.15359)
(0.0245142 0.000706204 -0.156379)
(0.046675 0.00127083 -0.15756)
(0.0661571 0.00110614 -0.157291)
(0.0848 0.000867595 -0.15511)
(0.103041 0.000725949 -0.150722)
(0.120333 0.000487851 -0.144073)
(0.136164 0.000390085 -0.135204)
(0.150261 0.000144628 -0.124389)
(0.162478 -5.41717e-05 -0.11194)
(0.17269 -0.00021454 -0.0982163)
(0.180818 -0.00038497 -0.0835949)
(0.18685 -0.000550218 -0.0684422)
(0.190799 -0.000697724 -0.0531062)
(0.192765 -0.000814765 -0.037928)
(0.192727 -0.00093887 -0.0231655)
(0.190875 -0.00107136 -0.00910638)
(0.0178661 -0.00222201 -0.159693)
(0.0250829 -0.00294373 -0.162894)
(0.0479211 -0.00265403 -0.164541)
(0.0680153 -0.00253466 -0.164665)
(0.0872667 -0.00243043 -0.162763)
(0.106035 -0.00226067 -0.15852)
(0.123722 -0.0020561 -0.151848)
(0.139901 -0.00180845 -0.142823)
(0.154308 -0.00157 -0.131723)
(0.166752 -0.00134626 -0.118889)
(0.177124 -0.00114527 -0.104716)
(0.18537 -0.000976312 -0.0896004)
(0.191479 -0.000845053 -0.0739265)
(0.195462 -0.000755402 -0.0580567)
(0.197427 -0.000709015 -0.0423318)