/*--------------------------------*- C++ -*----------------------------------*\
| =========                 |                                                 |
| \\      /  F ield         | OpenFOAM: The Open Source CFD Toolbox           |
|  \\    /   O peration     | Version:  4.x                                   |
|   \\  /    A nd           | Web:      www.OpenFOAM.org                      |
|    \\/     M anipulation  |                                                 |
\*---------------------------------------------------------------------------*/
FoamFile
{
    version     2.0;
    format      ascii;
    class       volScalarField;
    location    "6000";
    object      CO;
}
// * * * * * * * * * * * * * * * * * * * * * * * * * * * * * * * * * * * * * //

dimensions      [0 0 0 0 0 0 0];

internalField   nonuniform List<scalar> 
1175
(
0.3719638836
0.3719638837
0.3719638838
0.3719638839
0.3719638837
0.3719638839
0.3719638836
0.3719638825
0.3719638786
0.3719638678
0.3719638369
0.3719637554
0.3719635557
0.3719631135
0.3719622422
0.3719638836
0.3719638836
0.3719638837
0.3719638835
0.3719638839
0.3719638836
0.371963883
0.3719638814
0.3719638761
0.3719638599
0.3719638114
0.3719636772
0.3719633383
0.371962571
0.371961059
0.3719638839
0.3719638839
0.3719638836
0.3719638839
0.371963884
0.3719638839
0.3719638831
0.3719638807
0.3719638723
0.3719638453
0.371963761
0.3719635167
0.3719628719
0.3719613714
0.3719584063
0.3719638839
0.3719638842
0.3719638843
0.371963884
0.3719638838
0.3719638836
0.3719638826
0.3719638793
0.3719638675
0.3719638276
0.3719636976
0.3719633044
0.3719622207
0.3719596104
0.3719544157
0.3719638841
0.371963884
0.371963884
0.3719638837
0.3719638838
0.3719638836
0.3719638826
0.3719638789
0.3719638656
0.3719638185
0.3719636625
0.3719631761
0.3719617917
0.371958351
0.3719514155
0.3719638841
0.3719638841
0.3719638839
0.3719638839
0.3719638839
0.3719638837
0.3719638825
0.3719638796
0.3719638677
0.3719638279
0.371963698
0.3719633045
0.3719622209
0.3719596108
0.3719544158
0.3719638839
0.3719638837
0.3719638838
0.3719638838
0.3719638837
0.3719638838
0.3719638828
0.3719638806
0.3719638725
0.3719638453
0.371963761
0.3719635168
0.371962872
0.3719613715
0.3719584065
0.3719638838
0.3719638839
0.3719638837
0.3719638838
0.371963884
0.3719638838
0.3719638833
0.3719638816
0.3719638765
0.3719638601
0.3719638116
0.3719636778
0.3719633384
0.3719625712
0.3719610591
0.3719638841
0.3719638839
0.3719638841
0.3719638842
0.3719638841
0.371963884
0.3719638835
0.3719638823
0.3719638787
0.3719638679
0.3719638372
0.3719637556
0.3719635556
0.3719631138
0.3719622424
0.3719638839
0.371963884
0.371963884
0.3719638837
0.3719638837
0.3719638837
0.3719638831
0.3719638817
0.3719638766
0.37196386
0.3719638117
0.3719636775
0.3719633382
0.3719625709
0.3719638839
0.3719638841
0.3719638837
0.3719638837
0.3719638838
0.3719638835
0.3719638829
0.3719638807
0.3719638726
0.3719638461
0.3719637623
0.371963518
0.3719628681
0.3719613458
0.371958335
0.3719638838
0.3719638837
0.3719638837
0.3719638839
0.3719638839
0.3719638835
0.3719638826
0.3719638788
0.371963865
0.3719638171
0.3719636567
0.3719631561
0.3719617399
0.3719582589
0.3719513018
0.3719638841
0.371963884
0.3719638842
0.371963884
0.3719638839
0.3719638835
0.371963882
0.3719638766
0.3719638559
0.37196378
0.37196351
0.3719626109
0.3719598862
0.3719527626
0.3719381716
0.3719638842
0.3719638843
0.3719638842
0.3719638841
0.3719638838
0.3719638835
0.3719638817
0.3719638756
0.3719638514
0.3719637584
0.3719634157
0.3719622168
0.3719583571
0.3719475667
0.3719244391
0.3719638842
0.3719638841
0.3719638838
0.3719638838
0.3719638838
0.3719638833
0.371963882
0.3719638768
0.3719638562
0.3719637803
0.3719635104
0.371962611
0.3719598861
0.3719527627
0.371938172
0.3719638839
0.3719638839
0.3719638839
0.3719638839
0.371963884
0.3719638839
0.3719638831
0.3719638789
0.3719638652
0.3719638173
0.3719636569
0.3719631566
0.3719617401
0.3719582592
0.3719513023
0.3719638837
0.3719638839
0.3719638837
0.3719638837
0.3719638839
0.3719638839
0.3719638832
0.3719638806
0.3719638728
0.3719638462
0.3719637625
0.3719635184
0.3719628684
0.3719613461
0.3719583355
0.3719638841
0.3719638842
0.3719638839
0.3719638838
0.3719638838
0.3719638836
0.3719638831
0.3719638815
0.3719638767
0.3719638602
0.3719638117
0.3719636778
0.3719633384
0.3719625712
0.3719610593
0.3719638839
0.3719638838
0.3719638837
0.3719638839
0.3719638837
0.3719638835
0.3719638828
0.3719638805
0.3719638722
0.3719638451
0.3719637607
0.3719635166
0.371962872
0.3719613712
0.3719638836
0.3719638837
0.3719638839
0.3719638838
0.3719638836
0.3719638835
0.3719638826
0.3719638788
0.3719638649
0.3719638169
0.3719636565
0.3719631563
0.3719617398
0.3719582583
0.3719638838
0.3719638839
0.3719638839
0.3719638838
0.3719638839
0.3719638833
0.3719638817
0.3719638751
0.3719638502
0.3719637554
0.371963413
0.3719622478
0.3719586523
0.3719491231
0.3719295221
0.3719638839
0.371963884
0.371963884
0.3719638842
0.371963884
0.3719638834
0.3719638808
0.3719638711
0.3719638312
0.3719636682
0.3719630311
0.3719606592
0.3719525614
0.3719287686
0.371876543
0.3719638838
0.3719638839
0.371963884
0.3719638839
0.371963884
0.3719638832
0.3719638805
0.371963869
0.3719638194
0.3719636107
0.3719627426
0.3719592523
0.3719460641
0.3719020607
0.3717924563
0.3719638839
0.3719638842
0.3719638842
0.3719638839
0.3719638837
0.3719638832
0.3719638808
0.371963871
0.3719638309
0.3719636684
0.3719630309
0.3719606593
0.3719525617
0.3719287696
0.3718765454
0.3719638842
0.3719638839
0.371963884
0.371963884
0.371963884
0.3719638836
0.371963882
0.3719638751
0.3719638504
0.3719637558
0.371963413
0.3719622482
0.3719586527
0.3719491239
0.3719295246
0.3719638839
0.3719638839
0.3719638837
0.371963884
0.371963884
0.3719638839
0.3719638825
0.3719638789
0.3719638649
0.3719638171
0.3719636568
0.3719631567
0.3719617402
0.3719582591
0.3719513025
0.371963884
0.3719638839
0.3719638839
0.371963884
0.371963884
0.3719638836
0.3719638829
0.3719638807
0.3719638723
0.3719638454
0.3719637611
0.3719635169
0.371962872
0.3719613714
0.3719584066
0.3719638839
0.3719638838
0.3719638839
0.3719638838
0.371963884
0.3719638838
0.3719638828
0.3719638793
0.3719638675
0.3719638275
0.3719636979
0.3719633045
0.3719622208
0.3719596102
0.3719638837
0.3719638838
0.3719638839
0.371963884
0.371963884
0.3719638836
0.3719638822
0.3719638766
0.371963856
0.3719637797
0.3719635099
0.3719626109
0.371959886
0.3719527617
0.3719638836
0.3719638837
0.3719638838
0.3719638837
0.3719638837
0.3719638829
0.3719638806
0.3719638711
0.371963831
0.3719636685
0.3719630311
0.3719606591
0.3719525611
0.3719287664
0.3719638835
0.3719638839
0.3719638841
0.3719638839
0.3719638837
0.3719638828
0.3719638794
0.3719638641
0.3719637953
0.3719634932
0.3719621803
0.3719566536
0.3719348039
0.3718588864
0.3716646769
0.3719638839
0.371963884
0.371963884
0.3719638839
0.3719638835
0.3719638828
0.3719638785
0.3719638598
0.3719637723
0.3719633611
0.3719614141
0.3719521841
0.3719091809
0.3717215681
0.3710699396
0.3719638841
0.3719638839
0.3719638839
0.3719638839
0.3719638836
0.371963883
0.3719638793
0.371963864
0.3719637955
0.3719634933
0.3719621807
0.3719566533
0.3719348046
0.3718588908
0.3716646941
0.3719638838
0.3719638838
0.371963884
0.3719638841
0.3719638839
0.3719638832
0.3719638809
0.3719638711
0.3719638308
0.3719636683
0.3719630308
0.3719606591
0.3719525617
0.3719287692
0.3718765452
0.3719638837
0.3719638839
0.371963884
0.3719638843
0.3719638838
0.3719638835
0.3719638822
0.3719638766
0.371963856
0.3719637797
0.3719635102
0.3719626109
0.3719598864
0.3719527628
0.3719381719
0.3719638838
0.371963884
0.3719638838
0.3719638837
0.3719638838
0.3719638836
0.3719638826
0.3719638796
0.3719638679
0.3719638275
0.3719636978
0.3719633045
0.3719622208
0.3719596106
0.3719544157
0.371963884
0.3719638839
0.3719638839
0.3719638841
0.3719638843
0.3719638836
0.3719638823
0.3719638786
0.3719638654
0.3719638183
0.3719636622
0.3719631758
0.3719617913
0.3719583504
0.3719638842
0.371963884
0.3719638839
0.371963884
0.3719638837
0.3719638834
0.3719638817
0.3719638756
0.371963851
0.371963758
0.3719634153
0.3719622163
0.3719583564
0.3719475652
0.3719638839
0.3719638839
0.3719638842
0.371963884
0.3719638838
0.3719638833
0.3719638803
0.3719638689
0.3719638196
0.3719636106
0.3719627426
0.371959252
0.3719460625
0.3719020548
0.3719638838
0.3719638839
0.3719638842
0.3719638839
0.3719638835
0.3719638825
0.3719638785
0.3719638596
0.3719637721
0.371963361
0.371961414
0.3719521837
0.3719091782
0.3717215499
0.371963884
0.3719638841
0.3719638839
0.3719638839
0.3719638833
0.3719638824
0.3719638775
0.3719638542
0.3719637386
0.3719631487
0.3719599943
0.3719421422
0.3718341506
0.3711313648
0.3661863527
0.3719638838
0.3719638839
0.3719638839
0.3719638841
0.3719638836
0.3719638827
0.3719638785
0.3719638597
0.3719637723
0.371963361
0.3719614139
0.3719521838
0.3719091802
0.3717215664
0.3710699384
0.3719638838
0.371963884
0.3719638841
0.3719638839
0.3719638839
0.371963883
0.3719638806
0.3719638691
0.3719638195
0.3719636104
0.3719627421
0.3719592517
0.3719460633
0.3719020598
0.3717924555
0.3719638839
0.3719638839
0.3719638839
0.3719638838
0.3719638837
0.3719638832
0.3719638819
0.3719638757
0.3719638513
0.3719637584
0.3719634158
0.3719622166
0.3719583572
0.3719475666
0.3719244389
0.3719638841
0.371963884
0.3719638839
0.3719638839
0.3719638836
0.3719638835
0.3719638826
0.371963879
0.3719638653
0.3719638184
0.3719636626
0.3719631763
0.3719617918
0.3719583511
0.3719514156
0.3719638839
0.371963884
0.3719638839
0.3719638839
0.3719638838
0.3719638834
0.3719638828
0.3719638792
0.3719638674
0.3719638276
0.3719636977
0.3719633044
0.3719622205
0.3719596102
0.3719638839
0.371963884
0.3719638837
0.3719638838
0.3719638838
0.3719638835
0.3719638821
0.3719638766
0.3719638558
0.3719637795
0.3719635098
0.3719626107
0.3719598855
0.3719527614
0.3719638839
0.3719638839
0.3719638837
0.3719638836
0.3719638838
0.371963883
0.3719638806
0.371963871
0.3719638308
0.3719636679
0.3719630308
0.371960659
0.3719525606
0.3719287659
0.3719638841
0.3719638839
0.3719638839
0.3719638839
0.3719638836
0.3719638827
0.3719638794
0.371963864
0.3719637953
0.3719634933
0.3719621802
0.3719566529
0.3719348027
0.3718588815
0.3719638841
0.3719638842
0.371963884
0.3719638841
0.3719638839
0.3719638829
0.3719638785
0.3719638596
0.3719637723
0.3719633611
0.3719614139
0.3719521833
0.3719091776
0.371721548
0.371963884
0.371963884
0.3719638838
0.371963884
0.371963884
0.3719638829
0.3719638794
0.3719638642
0.3719637956
0.3719634932
0.3719621805
0.3719566533
0.3719348029
0.3718588827
0.3719638839
0.371963884
0.371963884
0.371963884
0.3719638836
0.371963883
0.3719638809
0.3719638712
0.3719638311
0.3719636682
0.371963031
0.3719606592
0.3719525614
0.3719287676
0.37187654
0.3719638839
0.371963884
0.3719638839
0.3719638838
0.3719638839
0.3719638836
0.3719638822
0.3719638767
0.3719638562
0.3719637799
0.3719635101
0.3719626111
0.3719598859
0.3719527624
0.3719381713
0.371963884
0.3719638839
0.3719638837
0.3719638838
0.3719638839
0.3719638837
0.3719638829
0.3719638796
0.3719638677
0.3719638277
0.3719636976
0.3719633043
0.3719622208
0.3719596105
0.3719544157
0.3719638837
0.3719638838
0.3719638841
0.3719638838
0.3719638835
0.3719638834
0.3719638827
0.3719638802
0.3719638722
0.3719638451
0.3719637608
0.3719635163
0.3719628715
0.3719613711
0.3719638836
0.3719638838
0.3719638838
0.3719638839
0.3719638837
0.3719638834
0.3719638824
0.3719638785
0.371963865
0.3719638171
0.3719636567
0.3719631562
0.3719617395
0.3719582583
0.371963884
0.3719638839
0.3719638838
0.3719638837
0.3719638835
0.3719638831
0.3719638817
0.3719638752
0.3719638502
0.3719637558
0.3719634131
0.3719622478
0.3719586521
0.3719491224
0.371963884
0.3719638838
0.3719638837
0.3719638838
0.3719638838
0.371963883
0.3719638809
0.3719638711
0.3719638307
0.3719636684
0.3719630308
0.3719606589
0.3719525608
0.3719287659
0.3719638839
0.3719638841
0.3719638842
0.3719638842
0.371963884
0.3719638829
0.3719638804
0.3719638688
0.3719638193
0.3719636105
0.3719627422
0.3719592515
0.3719460624
0.3719020549
0.3719638839
0.3719638838
0.3719638838
0.371963884
0.371963884
0.3719638832
0.3719638811
0.3719638712
0.371963831
0.3719636683
0.3719630312
0.3719606594
0.3719525607
0.3719287661
0.3719638842
0.3719638839
0.3719638839
0.371963884
0.3719638838
0.3719638835
0.3719638818
0.3719638755
0.3719638506
0.3719637562
0.3719634133
0.3719622479
0.3719586519
0.3719491224
0.3719638839
0.3719638841
0.3719638841
0.371963884
0.3719638838
0.3719638837
0.3719638824
0.3719638789
0.3719638651
0.3719638172
0.3719636567
0.3719631563
0.3719617398
0.3719582585
0.3719513018
0.3719638838
0.3719638839
0.3719638841
0.371963884
0.3719638842
0.371963884
0.3719638832
0.3719638806
0.3719638724
0.3719638453
0.3719637611
0.3719635167
0.371962872
0.3719613712
0.3719584064
0.3719638834
0.3719638838
0.3719638837
0.3719638837
0.3719638839
0.3719638838
0.3719638833
0.3719638815
0.3719638761
0.3719638597
0.3719638115
0.3719636773
0.3719633381
0.3719625708
0.3719638837
0.3719638837
0.3719638838
0.3719638839
0.3719638836
0.3719638833
0.3719638828
0.3719638803
0.3719638722
0.3719638458
0.3719637622
0.371963518
0.371962868
0.3719613456
0.3719638837
0.3719638835
0.3719638838
0.3719638837
0.3719638835
0.3719638832
0.3719638824
0.3719638787
0.3719638652
0.3719638171
0.3719636569
0.3719631565
0.3719617399
0.3719582584
0.3719638842
0.3719638839
0.3719638837
0.371963884
0.3719638837
0.3719638833
0.3719638822
0.3719638768
0.3719638563
0.37196378
0.3719635102
0.3719626109
0.371959886
0.3719527615
0.3719638842
0.3719638841
0.3719638839
0.3719638839
0.371963884
0.3719638834
0.371963882
0.3719638761
0.3719638514
0.3719637583
0.3719634155
0.3719622167
0.3719583567
0.3719475653
0.371963884
0.371963884
0.3719638841
0.3719638839
0.3719638838
0.3719638834
0.3719638821
0.3719638768
0.3719638562
0.3719637801
0.3719635101
0.3719626111
0.3719598859
0.3719527619
0.3719638841
0.3719638839
0.3719638842
0.371963884
0.3719638838
0.3719638834
0.3719638824
0.3719638791
0.3719638654
0.3719638172
0.3719636568
0.3719631566
0.37196174
0.3719582586
0.3719638842
0.3719638842
0.3719638844
0.3719638844
0.371963884
0.3719638839
0.3719638833
0.3719638808
0.3719638727
0.3719638462
0.3719637625
0.3719635185
0.3719628684
0.3719613459
0.371963884
0.3719638842
0.3719638841
0.3719638841
0.3719638843
0.371963884
0.3719638835
0.3719638817
0.3719638765
0.3719638602
0.371963812
0.3719636779
0.3719633385
0.3719625712
0.3719610591
0.3719638834
0.3719638834
0.3719638834
0.3719638837
0.3719638838
0.3719638835
0.3719638831
0.3719638819
0.3719638785
0.3719638675
0.3719638371
0.3719637553
0.3719635554
0.3719631132
0.3719638836
0.3719638838
0.3719638838
0.3719638835
0.3719638836
0.3719638834
0.3719638831
0.3719638816
0.3719638763
0.37196386
0.3719638115
0.3719636776
0.3719633381
0.3719625709
0.3719638839
0.3719638838
0.3719638838
0.3719638838
0.3719638834
0.3719638835
0.3719638826
0.3719638803
0.3719638722
0.371963845
0.371963761
0.3719635166
0.3719628718
0.3719613708
0.3719638838
0.3719638838
0.3719638839
0.3719638838
0.3719638837
0.3719638837
0.3719638828
0.3719638794
0.3719638679
0.3719638276
0.3719636979
0.3719633043
0.3719622207
0.3719596099
0.3719638842
0.3719638841
0.3719638838
0.3719638839
0.3719638838
0.3719638835
0.3719638827
0.3719638789
0.3719638655
0.3719638188
0.3719636627
0.3719631761
0.3719617917
0.3719583505
0.371963884
0.371963884
0.3719638841
0.3719638841
0.3719638841
0.3719638836
0.3719638828
0.3719638796
0.3719638678
0.3719638277
0.3719636979
0.3719633044
0.3719622206
0.3719596105
0.3719638841
0.3719638841
0.3719638842
0.3719638841
0.3719638841
0.3719638837
0.3719638831
0.3719638807
0.3719638724
0.3719638454
0.3719637612
0.3719635168
0.3719628721
0.3719613714
0.3719638841
0.371963884
0.3719638838
0.3719638841
0.371963884
0.371963884
0.3719638836
0.3719638818
0.3719638767
0.3719638603
0.3719638117
0.3719636777
0.3719633382
0.3719625712
0.3719638841
0.3719638843
0.3719638843
0.3719638841
0.3719638842
0.3719638839
0.3719638836
0.3719638822
0.3719638786
0.3719638681
0.3719638376
0.3719637557
0.3719635558
0.3719631137
)
;

boundaryField
{
    top
    {
        type            zeroGradient;
    }
    bottom
    {
        type            zeroGradient;
    }
    side-walls
    {
        type            zeroGradient;
    }
    inlet
    {
        type            zeroGradient;
    }
    outlet
    {
        type            zeroGradient;
    }
    procBoundary0to1
    {
        type            processor;
        value           nonuniform List<scalar> 
97
(
0.3719607236
0.371961059
0.3719584982
0.3719535761
0.3719463517
0.3719411836
0.3719463519
0.3719535762
0.3719584983
0.3719607237
0.371961059
0.371961059
0.3719534714
0.3719513014
0.3719408053
0.3719182542
0.3718969349
0.3719182546
0.3719408061
0.3719534721
0.3719584984
0.3719584061
0.3719513014
0.3719513014
0.3719033215
0.3718765388
0.3718197943
0.3717101808
0.3718197969
0.3719033233
0.3719408061
0.3719535762
0.3719544152
0.3719381706
0.3718765388
0.3718765388
0.3715329703
0.371069888
0.3709690493
0.3715329793
0.3718197963
0.3719182545
0.3719463523
0.371951415
0.3719244373
0.3717924483
0.371069888
0.371069888
0.3685375849
0.3710698898
0.3709690507
0.3716646791
0.3717101808
0.3718969347
0.3719411841
0.3719544151
0.371938171
0.3718765416
0.3716646815
0.3710698898
0.3716646791
0.3716646791
0.3718197946
0.3719295223
0.371918254
0.371946352
0.3719584062
0.371951302
0.3719295235
0.3718765419
0.3717924489
0.371876542
0.3719295223
0.3719295223
0.3719408054
0.3719583351
0.3719535762
0.3719610589
0.3719583353
0.3719513023
0.3719381709
0.3719244378
0.3719381708
0.371951302
0.3719583351
0.3719583351
0.3719584983
0.3719622423
0.3719622421
0.3719610588
0.3719584063
0.3719544153
0.3719514151
0.3719544154
0.3719584065
0.3719610592
0.3719622423
)
;
    }
}


// ************************************************************************* //
