/*--------------------------------*- C++ -*----------------------------------*\
| =========                 |                                                 |
| \\      /  F ield         | OpenFOAM: The Open Source CFD Toolbox           |
|  \\    /   O peration     | Version:  4.x                                   |
|   \\  /    A nd           | Web:      www.OpenFOAM.org                      |
|    \\/     M anipulation  |                                                 |
\*---------------------------------------------------------------------------*/
FoamFile
{
    version     2.0;
    format      ascii;
    class       volScalarField;
    location    "6000";
    object      CO2;
}
// * * * * * * * * * * * * * * * * * * * * * * * * * * * * * * * * * * * * * //

dimensions      [0 0 0 0 0 0 0];

internalField   nonuniform List<scalar> 
1175
(
0.006506720934
0.006506720667
0.006506720427
0.006506720049
0.006506720465
0.006506719812
0.006506720125
0.006506721673
0.006506726988
0.006506741044
0.006506781111
0.006506886463
0.006507144555
0.006507716321
0.006508843279
0.006506720845
0.006506720905
0.006506720547
0.006506720995
0.006506719962
0.006506720454
0.006506721563
0.006506723757
0.006506730737
0.00650675136
0.006506814195
0.006506987826
0.006507425734
0.006508417961
0.006510373379
0.006506720104
0.006506720134
0.006506720952
0.006506719924
0.006506719583
0.006506719718
0.006506720756
0.006506724082
0.006506735001
0.006506769889
0.006506878979
0.006507194813
0.006508028726
0.006509969023
0.006513803713
0.006506719919
0.00650671933
0.006506719063
0.006506719861
0.006506720302
0.006506720324
0.006506721833
0.006506726173
0.006506741547
0.006506792908
0.006506961222
0.00650746944
0.006508870818
0.006512246468
0.006518963663
0.006506719576
0.006506719716
0.006506719697
0.00650672051
0.006506720217
0.006506720307
0.006506721723
0.00650672637
0.006506743449
0.006506804595
0.006507006271
0.00650763532
0.006509425435
0.006513874526
0.006522843043
0.006506719462
0.006506719467
0.00650671992
0.006506719982
0.00650671987
0.006506720178
0.006506722017
0.006506725203
0.006506740837
0.006506792218
0.00650696011
0.006507469355
0.006508870237
0.006512245357
0.006518963256
0.00650672009
0.006506720553
0.006506720281
0.006506720172
0.00650672051
0.006506719897
0.006506721622
0.006506724179
0.006506734656
0.00650677001
0.00650687887
0.006507194631
0.006508028619
0.006509968832
0.006513803103
0.006506720217
0.006506719941
0.00650672061
0.006506720159
0.006506719741
0.006506719987
0.006506720839
0.006506723154
0.006506729568
0.006506750779
0.006506813682
0.006506986454
0.006507425263
0.006508417554
0.006510373071
0.006506719549
0.006506719986
0.006506719518
0.006506719249
0.006506719432
0.006506719699
0.006506720431
0.00650672213
0.006506726841
0.006506740846
0.006506780367
0.006506885886
0.006507144833
0.006507715746
0.006508842691
0.006506720087
0.006506719828
0.006506719668
0.006506720515
0.006506720445
0.006506720287
0.006506721236
0.006506722959
0.006506729258
0.006506751222
0.006506813516
0.006506987113
0.006507425884
0.006508418225
0.006506719988
0.006506719518
0.006506720492
0.006506720429
0.00650672022
0.006506720648
0.006506721598
0.006506724146
0.006506734655
0.006506768868
0.006506877559
0.006507193686
0.006508033913
0.006510002409
0.006513896233
0.006506720201
0.006506720457
0.006506720502
0.006506720084
0.006506719836
0.006506720525
0.006506721572
0.006506726634
0.006506744796
0.006506806492
0.006507014125
0.006507661671
0.006509492522
0.006513993612
0.006522990816
0.006506719627
0.006506719729
0.006506719334
0.006506719809
0.006506719969
0.006506720385
0.0065067225
0.006506729497
0.006506756463
0.006506854492
0.00650720355
0.006508366347
0.006511889088
0.0065211004
0.006539968059
0.006506719307
0.00650671907
0.006506719301
0.006506719475
0.006506720027
0.006506720446
0.006506722901
0.006506730736
0.006506761709
0.006506882214
0.006507325304
0.006508875493
0.006513866298
0.006527818568
0.006557723685
0.006506719284
0.006506719498
0.006506720339
0.006506720332
0.006506720007
0.00650672108
0.00650672265
0.006506728989
0.006506755616
0.006506853533
0.006507202661
0.006508365996
0.006511889393
0.006521100196
0.006539967505
0.006506719997
0.006506719993
0.00650672008
0.006506719887
0.006506719543
0.006506719527
0.006506720181
0.006506726344
0.006506744189
0.006506806087
0.006507013494
0.006507660366
0.006509491873
0.006513993008
0.006522989645
0.006506720579
0.006506720141
0.006506720459
0.006506720426
0.006506719953
0.006506719611
0.006506720684
0.006506724369
0.006506734103
0.006506768621
0.006506877032
0.006507192547
0.006508033136
0.006510001579
0.006513894937
0.006506719403
0.00650671911
0.006506719919
0.006506720388
0.006506720155
0.006506720515
0.006506721407
0.006506723375
0.006506729105
0.006506750648
0.006506813303
0.006506986235
0.006507425446
0.006508417508
0.006510372437
0.006506720019
0.006506720228
0.006506720431
0.006506719937
0.00650672041
0.006506720839
0.006506721645
0.006506724484
0.006506735378
0.006506770498
0.006506879729
0.006507195024
0.006508028486
0.006509969483
0.006506720745
0.00650672056
0.006506720093
0.006506720206
0.00650672083
0.006506720587
0.006506721566
0.006506726703
0.006506744976
0.006506807137
0.006507014525
0.006507660955
0.0065094928
0.006513995098
0.006506720273
0.006506720108
0.00650672003
0.006506720328
0.006506719906
0.006506721011
0.006506722899
0.006506731629
0.006506763652
0.006506886517
0.006507328928
0.006508835694
0.006513484658
0.00652580674
0.006551154253
0.006506719944
0.006506719868
0.006506719646
0.006506719243
0.006506719402
0.006506720378
0.006506723972
0.006506736652
0.006506787842
0.006506999054
0.006507822417
0.006510889604
0.006521359938
0.006552123971
0.00661965475
0.006506720301
0.006506719913
0.006506719772
0.006506720015
0.006506719633
0.006506720681
0.006506724302
0.006506739092
0.006506803522
0.006507073043
0.006508195465
0.006512708346
0.006529759838
0.006586654152
0.006728369508
0.006506719967
0.006506719261
0.006506719094
0.006506719874
0.006506720201
0.006506720908
0.006506724098
0.006506736988
0.006506788555
0.006506998524
0.006507822928
0.006510889294
0.006521359372
0.006552121919
0.006619650026
0.006506719314
0.006506720003
0.006506719669
0.006506719644
0.006506719476
0.006506720069
0.006506722073
0.006506731752
0.006506763267
0.006506885488
0.006507328932
0.006508834732
0.006513483957
0.006525805133
0.006551149013
0.006506720022
0.006506720132
0.006506720497
0.006506719723
0.006506719676
0.00650671964
0.006506721774
0.006506726479
0.006506744871
0.006506806413
0.006507013838
0.006507659958
0.006509491822
0.006513993209
0.006522989235
0.00650671987
0.00650672008
0.006506720102
0.006506719738
0.006506719783
0.006506720442
0.00650672142
0.006506723966
0.006506734995
0.006506769569
0.006506878566
0.006507194296
0.006508028618
0.006509968943
0.006513802931
0.00650672011
0.006506720323
0.006506720041
0.006506720155
0.006506719553
0.006506719943
0.006506721393
0.006506726033
0.006506741478
0.006506793129
0.006506960493
0.006507469192
0.006508870434
0.006512246674
0.006506720469
0.006506720338
0.006506719937
0.006506719619
0.006506719588
0.006506720282
0.006506722094
0.006506729432
0.006506756367
0.006506855153
0.006507203931
0.006508366104
0.006511889581
0.006521102429
0.006506720854
0.006506720482
0.006506720387
0.006506720484
0.006506720222
0.006506721626
0.006506724541
0.006506736666
0.006506788208
0.006506998375
0.006507822374
0.006510889634
0.006521360613
0.006552128953
0.006506720965
0.006506720023
0.006506719519
0.006506719999
0.00650672024
0.006506721479
0.00650672587
0.00650674553
0.006506834687
0.00650722521
0.006508922804
0.006516068366
0.006544319264
0.006642478893
0.006893594941
0.006506720127
0.006506719741
0.006506719642
0.006506719859
0.006506720875
0.006506721373
0.006506727186
0.006506751079
0.006506864093
0.006507395792
0.006509913176
0.006521846746
0.006577446017
0.006820009544
0.007662495724
0.006506719474
0.006506719931
0.006506720101
0.00650671988
0.0065067205
0.00650672112
0.006506726171
0.00650674569
0.006506834131
0.006507225068
0.006508921908
0.006516069249
0.00654431815
0.006642470167
0.006893559135
0.006506720177
0.00650672023
0.006506719883
0.006506719554
0.006506719767
0.006506720789
0.006506723748
0.006506736655
0.006506788739
0.006506998866
0.006507823316
0.006510889949
0.006521359372
0.006552122982
0.006619650289
0.006506720638
0.006506719992
0.006506719839
0.006506718892
0.006506720135
0.006506720369
0.00650672212
0.006506729619
0.006506756177
0.006506855204
0.006507203178
0.006508366193
0.00651188872
0.006521099987
0.006539967505
0.006506720237
0.006506719772
0.006506720272
0.006506720468
0.006506720305
0.006506720496
0.006506721683
0.006506725392
0.006506740438
0.006506793114
0.006506960673
0.006507469104
0.0065088705
0.006512245913
0.006518963594
0.006506719783
0.006506720039
0.006506719983
0.006506719522
0.006506718902
0.006506720398
0.006506722332
0.006506727249
0.006506744017
0.006506804998
0.006507007147
0.006507635931
0.006509426357
0.006513875919
0.006506719097
0.006506719675
0.006506719984
0.006506719688
0.006506720463
0.006506720731
0.006506723069
0.006506730715
0.00650676296
0.006506883141
0.006507326254
0.006508876784
0.006513867911
0.006527821833
0.006506720161
0.006506720147
0.006506719141
0.006506719665
0.00650672007
0.006506720411
0.006506724795
0.006506739392
0.006506803046
0.006507073278
0.006508195381
0.006512708812
0.00652976352
0.006586667602
0.006506720255
0.006506719992
0.006506719207
0.006506720012
0.006506720795
0.006506722206
0.00650672727
0.006506751785
0.006506864661
0.006507396141
0.006509913468
0.006521847552
0.006577451877
0.006820049516
0.006506719891
0.006506719572
0.006506719964
0.006506719928
0.006506721234
0.00650672229
0.006506728494
0.006506758519
0.006506908011
0.00650767046
0.006511748883
0.006534829853
0.006674449994
0.007583051984
0.0139761712
0.006506720363
0.006506720039
0.006506720072
0.006506719503
0.006506720395
0.006506721728
0.006506727264
0.006506751443
0.006506864083
0.006507396013
0.006509913643
0.00652184759
0.006577448166
0.006820014569
0.007662500126
0.006506720329
0.006506719866
0.006506719536
0.006506719929
0.006506719747
0.006506721209
0.006506723879
0.006506738886
0.006506803127
0.006507073805
0.006508196848
0.006512709778
0.006529761861
0.006586656108
0.00672837121
0.006506720112
0.006506720042
0.006506720087
0.006506720197
0.006506720293
0.006506721224
0.006506722419
0.006506730434
0.00650676216
0.006506882186
0.006507324946
0.006508875895
0.006513865779
0.006527818771
0.006557723875
0.006506719554
0.006506719772
0.006506720105
0.006506719968
0.00650672059
0.006506720708
0.006506721604
0.006506725981
0.0065067442
0.006506804953
0.006507006154
0.006507634801
0.006509425003
0.006513874171
0.00652284262
0.006506719918
0.006506719719
0.006506720099
0.006506720051
0.006506720176
0.006506721047
0.006506721321
0.006506726233
0.006506741697
0.006506792941
0.006506961057
0.006507469448
0.006508871379
0.006512246814
0.006506719979
0.006506719749
0.006506720454
0.006506720281
0.006506720185
0.006506720434
0.006506722414
0.006506729554
0.006506756726
0.006506855656
0.006507204027
0.006508366722
0.006511890798
0.006521103317
0.006506719912
0.006506719905
0.00650672045
0.006506720743
0.006506720115
0.006506721362
0.006506724529
0.006506736833
0.006506788831
0.006506999766
0.006507823101
0.006510890023
0.00652136185
0.006552130635
0.00650671946
0.006506719997
0.00650671991
0.006506719943
0.006506720441
0.006506721832
0.006506725792
0.006506745719
0.006506834622
0.006507224993
0.006508923021
0.00651607004
0.006544322207
0.006642491177
0.006506719456
0.006506719168
0.006506719739
0.006506719331
0.006506719647
0.006506721192
0.006506727291
0.006506751611
0.006506864172
0.006507395864
0.006509913623
0.006521848661
0.006577453549
0.00682005461
0.006506719738
0.006506719659
0.006506720312
0.006506719815
0.006506719492
0.006506721426
0.006506725735
0.006506745253
0.006506833885
0.006507225128
0.006508922196
0.006516069044
0.006544321805
0.006642487891
0.006506720086
0.006506719669
0.0065067197
0.006506719822
0.006506720669
0.006506721361
0.006506723896
0.006506736223
0.006506788087
0.006506998937
0.006507822789
0.006510889627
0.006521360029
0.006552126676
0.006619662021
0.006506720036
0.006506719828
0.00650672005
0.006506720174
0.006506719975
0.006506720243
0.006506722061
0.00650672934
0.006506755654
0.006506854554
0.006507203331
0.006508365815
0.006511889873
0.006521100751
0.006539968804
0.006506719874
0.00650671991
0.006506720435
0.006506720375
0.006506719953
0.006506720167
0.00650672101
0.006506725366
0.00650674098
0.006506792698
0.006506961381
0.006507469717
0.006508870536
0.006512246018
0.006518963367
0.006506720569
0.006506720286
0.006506719526
0.006506720332
0.006506720982
0.006506721148
0.00650672184
0.006506725306
0.006506735401
0.006506770455
0.006506879462
0.006507195873
0.006508029895
0.006509969875
0.00650672091
0.00650672041
0.006506720353
0.00650671987
0.00650672051
0.006506720943
0.006506722086
0.006506727486
0.006506744784
0.006506806655
0.006507013906
0.006507661374
0.006509493516
0.006513995172
0.006506719671
0.006506720108
0.006506720199
0.006506720655
0.006506721049
0.006506721461
0.006506723042
0.006506731355
0.006506763812
0.00650688553
0.006507328642
0.006508835834
0.006513485148
0.006525808476
0.0065067197
0.006506720347
0.006506720459
0.00650672017
0.006506720012
0.00650672142
0.006506723921
0.006506736555
0.006506789138
0.006506998538
0.00650782323
0.006510890401
0.006521361327
0.006552130543
0.006506720134
0.00650671962
0.006506719211
0.006506719201
0.006506719486
0.006506721448
0.006506724495
0.006506739518
0.00650680373
0.006507073641
0.006508196453
0.00651271011
0.00652976384
0.00658666738
0.006506720134
0.00650672021
0.006506720311
0.006506719763
0.006506719469
0.006506720964
0.006506723341
0.006506736303
0.006506788359
0.006506998746
0.00650782225
0.006510889062
0.00652136169
0.0065521301
0.006506719095
0.006506720059
0.006506719917
0.006506719647
0.006506720085
0.006506720422
0.006506722612
0.00650673056
0.006506762823
0.006506884593
0.006507328142
0.006508835607
0.006513485777
0.006525808436
0.006506720114
0.00650671939
0.006506719365
0.006506719844
0.006506720207
0.006506719955
0.006506722109
0.006506726264
0.006506744304
0.006506806158
0.006507013958
0.006507661013
0.006509492799
0.006513994512
0.006522990705
0.006506720339
0.006506719992
0.006506719513
0.006506719798
0.006506719175
0.006506719374
0.006506720668
0.006506724215
0.006506734793
0.006506769818
0.006506878793
0.006507194937
0.006508028493
0.006509969498
0.006513803318
0.006506721423
0.006506720305
0.006506720686
0.006506720541
0.006506720055
0.00650672015
0.006506720642
0.00650672337
0.006506730646
0.006506751832
0.006506813882
0.006506987683
0.006507426291
0.006508418587
0.006506720678
0.006506720436
0.006506720249
0.006506719891
0.006506720638
0.006506721421
0.006506721809
0.006506725268
0.006506735853
0.006506769711
0.006506877888
0.006507193643
0.006508034034
0.006510002762
0.006506720692
0.006506721161
0.006506720267
0.006506720427
0.006506720986
0.006506721346
0.006506722282
0.006506726962
0.006506744051
0.006506806498
0.006507013475
0.006507660582
0.006509492366
0.006513994864
0.006506719293
0.00650672002
0.006506720587
0.006506719765
0.006506720443
0.006506721097
0.006506721993
0.006506729082
0.006506755528
0.006506854254
0.00650720318
0.006508366087
0.006511889502
0.006521103028
0.006506719361
0.006506719588
0.006506719887
0.006506720073
0.00650671971
0.00650672054
0.006506722108
0.00650672948
0.006506761879
0.006506882362
0.00650732589
0.006508875726
0.006513866975
0.006527821783
0.006506719735
0.006506719804
0.006506719512
0.006506719923
0.006506720013
0.0065067206
0.006506722421
0.006506729113
0.006506755686
0.006506854168
0.006507203323
0.006508365664
0.006511889929
0.006521101986
0.006506719598
0.006506719963
0.006506719261
0.006506719601
0.006506720048
0.006506720829
0.006506722266
0.006506725955
0.00650674357
0.006506806405
0.006507013826
0.006507660133
0.006509492267
0.006513994284
0.00650671936
0.006506719285
0.006506718619
0.006506718549
0.006506719711
0.006506719797
0.006506720282
0.006506723817
0.006506734465
0.00650676858
0.006506876961
0.006507192224
0.006508032984
0.006510002048
0.006506719662
0.006506719324
0.00650671939
0.006506719455
0.006506718878
0.006506719442
0.006506720127
0.006506722946
0.006506729618
0.006506750634
0.006506812649
0.00650698613
0.006507425146
0.006508417475
0.006510372963
0.006506721236
0.006506721315
0.006506721344
0.006506720602
0.006506720172
0.006506720935
0.006506721511
0.006506723175
0.006506727353
0.00650674172
0.00650678069
0.006506886505
0.006507145226
0.006507717106
0.00650672078
0.006506720418
0.006506720258
0.006506721056
0.006506720842
0.006506721053
0.006506721391
0.006506723085
0.00650673016
0.006506751077
0.006506813907
0.00650698691
0.006507426142
0.006508418377
0.006506720113
0.006506720324
0.006506720411
0.006506720227
0.006506721278
0.006506720837
0.006506722134
0.006506724968
0.006506735359
0.006506770569
0.006506879021
0.006507195141
0.006508029067
0.00650997068
0.006506720194
0.006506720313
0.006506720063
0.006506720377
0.006506720542
0.006506720122
0.006506721411
0.00650672584
0.006506740465
0.006506792981
0.006506960408
0.006507469675
0.006508870687
0.006512247631
0.006506719259
0.006506719449
0.006506720296
0.006506720011
0.006506720265
0.006506720687
0.006506721419
0.006506726291
0.006506743523
0.006506803776
0.006507005706
0.006507635306
0.006509425222
0.006513875744
0.006506719884
0.006506719635
0.006506719368
0.006506719413
0.006506719256
0.006506720412
0.006506721258
0.00650672535
0.006506740725
0.006506792652
0.006506960368
0.006507469588
0.006508871072
0.006512245933
0.006506719617
0.006506719594
0.006506719358
0.00650671952
0.006506719408
0.006506720113
0.006506720832
0.006506724049
0.00650673482
0.006506769506
0.006506878416
0.006507194461
0.006508028289
0.006509969087
0.006506719616
0.006506719741
0.006506720241
0.006506719552
0.006506719646
0.006506719535
0.006506720019
0.006506722455
0.006506729005
0.006506750459
0.006506813475
0.006506986675
0.006507425844
0.006508417533
0.00650671943
0.006506718996
0.006506718956
0.0065067194
0.006506719109
0.006506719869
0.006506720292
0.006506722297
0.006506727105
0.00650674027
0.006506779315
0.006506885434
0.006507144281
0.006507715948
)
;

boundaryField
{
    top
    {
        type            zeroGradient;
    }
    bottom
    {
        type            zeroGradient;
    }
    side-walls
    {
        type            zeroGradient;
    }
    inlet
    {
        type            zeroGradient;
    }
    outlet
    {
        type            zeroGradient;
    }
    procBoundary0to1
    {
        type            processor;
        value           nonuniform List<scalar> 
97
(
0.006510807159
0.006510373255
0.006513685026
0.006520050088
0.006529392285
0.006536075186
0.006529391894
0.00652004987
0.006513685039
0.006510806955
0.006510373255
0.006510373255
0.00652018587
0.006522991682
0.006536564618
0.006565724264
0.006593290125
0.006565723629
0.006536562691
0.006520184165
0.006513684671
0.006513804154
0.006522991682
0.006522991682
0.006585033954
0.006619664225
0.006693036833
0.006834763219
0.00669303197
0.00658503074
0.00653656288
0.006520049758
0.006518964707
0.006539970301
0.006619664225
0.006619664225
0.007063900585
0.007662625236
0.007793016461
0.007063883975
0.006693033372
0.006565723579
0.006529390845
0.006522844342
0.006557727717
0.006728388434
0.007662625236
0.007662625236
0.01093673126
0.007662621934
0.007793014572
0.006893594301
0.006834763468
0.006593290345
0.006536073717
0.006518965017
0.006539969557
0.006619658614
0.006893589132
0.007662621934
0.006893594301
0.006893594301
0.006693036573
0.006551153989
0.006565724565
0.006529391335
0.006513803826
0.006522990442
0.006551151457
0.006619658086
0.006728387605
0.006619657888
0.006551153989
0.006551153989
0.006536564373
0.006513896088
0.006520049736
0.006510373743
0.006513895558
0.006522989662
0.006539969915
0.006557726573
0.006539970379
0.006522990349
0.006513896088
0.006513896088
0.006513684894
0.006508842955
0.00650884361
0.006510373982
0.006513803748
0.006518964522
0.006522844063
0.006518964455
0.006513803286
0.006510372842
0.006508842955
)
;
    }
}


// ************************************************************************* //
