/*--------------------------------*- C++ -*----------------------------------*\
| =========                 |                                                 |
| \\      /  F ield         | OpenFOAM: The Open Source CFD Toolbox           |
|  \\    /   O peration     | Version:  4.x                                   |
|   \\  /    A nd           | Web:      www.OpenFOAM.org                      |
|    \\/     M anipulation  |                                                 |
\*---------------------------------------------------------------------------*/
FoamFile
{
    version     2.0;
    format      ascii;
    class       volScalarField;
    location    "6000";
    object      molarConc;
}
// * * * * * * * * * * * * * * * * * * * * * * * * * * * * * * * * * * * * * //

dimensions      [0 -3 0 0 1 0 0];

internalField   nonuniform List<scalar> 
1175
(
9.963283116
9.963282604
9.963282185
9.963281566
9.963281297
9.963280515
9.963280609
9.963280856
9.963281259
9.963281492
9.963281571
9.963281265
9.963281574
9.963280577
9.963280704
9.963276063
9.963275372
9.963274783
9.963274513
9.963274852
9.963275384
9.963276251
9.963277273
9.963277651
9.963277376
9.963277414
9.963277609
9.96327508
9.963275209
9.963274841
9.963299362
9.96329929
9.963298936
9.963298495
9.963299776
9.963300354
9.963299597
9.963299577
9.963299505
9.963299059
9.963300118
9.963300239
9.963299597
9.963300155
9.963299151
9.96328829
9.963287312
9.963287827
9.963288638
9.963289448
9.963289069
9.96329071
9.963291984
9.96329213
9.963292946
9.963292491
9.963291175
9.963291819
9.963292758
9.963292906
9.96324539
9.963246301
9.963246335
9.96324683
9.963246679
9.963246317
9.963246658
9.963244837
9.963244099
9.963246094
9.963246988
9.963246706
9.963246911
9.963247112
9.963247298
9.963254629
9.963255326
9.963254626
9.963255133
9.963254103
9.963254886
9.963254837
9.9632535
9.963252489
9.963251319
9.963252092
9.963251823
9.963250616
9.963249858
9.963249688
9.963294177
9.963294229
9.963293138
9.963294124
9.963294742
9.963292922
9.963294842
9.963293384
9.963293512
9.963292791
9.963293471
9.96329469
9.963294843
9.963295584
9.963295023
9.963276173
9.963275983
9.963276778
9.963276643
9.963276374
9.963276144
9.963277391
9.963277329
9.963277674
9.963278219
9.963277733
9.963276477
9.963276244
9.963277001
9.963276906
9.96325288
9.963254066
9.963254192
9.963252626
9.963253146
9.963252014
9.963252724
9.963252315
9.963252792
9.963252669
9.963251864
9.963253063
9.963254145
9.963252415
9.96325299
9.963287643
9.963285849
9.963285591
9.96328637
9.963285991
9.963285326
9.963285348
9.963284628
9.963285316
9.963286252
9.963285395
9.963284835
9.963285449
9.963285241
9.963259275
9.963259629
9.963260632
9.963261326
9.963260525
9.963260012
9.963260492
9.963259555
9.963259027
9.963257951
9.963258611
9.96325972
9.963257535
9.963257855
9.963257526
9.963252854
9.963252924
9.963252489
9.963252924
9.963252083
9.963251739
9.963251713
9.963250008
9.963250442
9.96325012
9.963250936
9.963251376
9.963250901
9.963250812
9.963252413
9.963299037
9.963298369
9.963298205
9.963298408
9.963298946
9.963298532
9.963299398
9.963299643
9.963300828
9.963301178
9.963300985
9.963302513
9.963302273
9.96330254
9.963301564
9.963286686
9.963288514
9.963289202
9.963290219
9.963290586
9.963292009
9.963294145
9.963294229
9.963293463
9.963294256
9.963293229
9.96329432
9.96329326
9.963292334
9.9632907
9.963310832
9.963310355
9.963311527
9.963311189
9.963310353
9.963309964
9.963309367
9.963309779
9.963309055
9.963306896
9.963308254
9.963309252
9.963309822
9.963308897
9.96330917
9.963233138
9.963233626
9.963233428
9.963232743
9.963231846
9.96323174
9.963230947
9.963231688
9.963233454
9.963233665
9.963233995
9.963233652
9.963233007
9.963234407
9.963235285
9.963304555
9.963305584
9.963305085
9.963304847
9.963304266
9.963304706
9.963305149
9.963305922
9.96330681
9.963307367
9.96330594
9.963305344
9.963306894
9.963305475
9.963304894
9.963224959
9.963225093
9.963225152
9.963225475
9.963225421
9.963226452
9.963226715
9.963226266
9.96322688
9.963226437
9.963226194
9.9632251
9.963226287
9.963225993
9.963225801
9.963285432
9.963286379
9.963286136
9.963285461
9.963285768
9.963286334
9.963286502
9.963286498
9.963286896
9.963286171
9.963285864
9.963285642
9.963284964
9.963285358
9.963276217
9.963275754
9.963276185
9.963274751
9.963276146
9.963275829
9.963275963
9.963276408
9.963276923
9.963277833
9.963280461
9.963279
9.963280266
9.963281129
9.963280169
9.96327907
9.963277944
9.963277485
9.963277544
9.963277812
9.963277347
9.963276944
9.963276764
9.963275765
9.963276267
9.96327732
9.96327562
9.96327622
9.963276127
9.96326716
9.963267915
9.963268419
9.963267367
9.963267541
9.963266642
9.963266649
9.963266937
9.963266917
9.963266637
9.963265662
9.963266921
9.963268634
9.963268485
9.963266887
9.963327083
9.963325623
9.963325816
9.963325596
9.963324241
9.963324624
9.963323987
9.963322749
9.963324306
9.96332377
9.963323717
9.963322524
9.963322933
9.963323646
9.963324101
9.963278277
9.963278416
9.963278629
9.963278005
9.963277724
9.963277051
9.963276881
9.96327756
9.963277313
9.963277532
9.963276537
9.963276342
9.963276131
9.963274221
9.963274101
9.96329164
9.963292696
9.963293457
9.963294086
9.963294159
9.963293416
9.963294605
9.963296096
9.963296318
9.963295978
9.963295929
9.963295266
9.963295739
9.963297156
9.96329632
9.963222352
9.963222872
9.963222349
9.963222064
9.963221197
9.963220646
9.963220987
9.963221592
9.963221684
9.96322176
9.963220935
9.963219859
9.96322132
9.963220833
9.963219468
9.963315239
9.963315837
9.963315762
9.963315593
9.963315477
9.963315126
9.963316469
9.963316961
9.963316493
9.963315322
9.963314658
9.963314934
9.963313476
9.963313725
9.963313722
9.963277413
9.963278491
9.963278325
9.963278194
9.963278443
9.963277692
9.963279835
9.963280867
9.963280061
9.963280436
9.963279465
9.963279789
9.963280721
9.963279938
9.963243522
9.963244303
9.963243486
9.963242809
9.963243319
9.963242417
9.963243355
9.963243335
9.963243212
9.963243371
9.963244147
9.963244371
9.963243471
9.963244524
9.963288395
9.963287565
9.963286979
9.963288907
9.963290098
9.963290635
9.963291719
9.963291167
9.963291272
9.963289558
9.963289637
9.963289264
9.963288801
9.963287973
9.96325314
9.963251932
9.963251481
9.963251885
9.963251692
9.963252322
9.963252164
9.963251288
9.963251532
9.963251431
9.963251349
9.963251917
9.963251214
9.963252478
9.963250136
9.963263558
9.963262138
9.963262542
9.963262065
9.963264093
9.963264392
9.963264889
9.963263572
9.963264011
9.963264875
9.963263709
9.963264071
9.963262725
9.963262876
9.963285914
9.963314378
9.963315214
9.963313943
9.963315863
9.963315937
9.963315227
9.963315327
9.963314876
9.963313928
9.963314407
9.963314609
9.9633145
9.963315715
9.963315785
9.963315391
9.96325916
9.963259715
9.96325958
9.963258984
9.963258136
9.963257166
9.963257629
9.963258087
9.963257878
9.963258952
9.963257954
9.963258905
9.963258309
9.963259081
9.963259133
9.963289239
9.963289232
9.963288312
9.963288067
9.963289188
9.963289737
9.963289038
9.963289449
9.963289244
9.963290368
9.963289274
9.963289592
9.963288468
9.963289212
9.963288561
9.96329635
9.963296462
9.963296195
9.963296536
9.963295364
9.963294385
9.963294095
9.963293353
9.963294524
9.96329543
9.963295203
9.963295657
9.963295711
9.963297072
9.963296423
9.963278081
9.963277399
9.963277721
9.963276661
9.963275839
9.963277034
9.963277591
9.963277909
9.963278211
9.96327815
9.963278753
9.96327831
9.963278119
9.963278384
9.963299514
9.963300191
9.963300074
9.963299923
9.963299543
9.963300463
9.963301456
9.963302891
9.96330263
9.963302742
9.963303056
9.96330362
9.963303527
9.963302711
9.963297766
9.963297715
9.963295996
9.963295292
9.963293739
9.963294635
9.963295041
9.963295161
9.963296244
9.96329577
9.963295823
9.963296169
9.963297091
9.963297222
9.963253068
9.963254068
9.963251807
9.963252995
9.963253462
9.963254028
9.963253059
9.9632528
9.963253213
9.963252359
9.963252489
9.963251498
9.963252016
9.96325259
9.963263024
9.96326233
9.963262588
9.963262992
9.963264403
9.963264451
9.963264622
9.963264485
9.96326437
9.963263424
9.963262976
9.963263246
9.963263979
9.963260783
10.00508889
9.963299815
9.963298312
9.963298234
9.96329736
9.963298332
9.963298352
9.963297588
9.963297555
9.963296341
9.963297006
9.963296981
9.963295491
9.963295
9.963293609
9.963317503
9.963257148
9.963257812
9.963256105
9.963257395
9.963258249
9.963258714
9.963258595
9.963260015
9.963260861
9.963261862
9.96326212
9.963262099
9.96326198
9.963260377
9.963260155
9.963282717
9.963282092
9.963282142
9.963282779
9.963282094
9.963281677
9.963280315
9.963278546
9.963279356
9.963279203
9.963279401
9.963279721
9.963279466
9.963279849
9.963278384
9.96322839
9.963229001
9.963229505
9.963229179
9.963230005
9.963230226
9.963228933
9.963228381
9.963227896
9.963228668
9.963228196
9.963226434
9.963226505
9.963225916
9.963225224
9.963257324
9.963256711
9.963257354
9.96325831
9.963257781
9.963257491
9.963256477
9.963257834
9.963257882
9.96325872
9.963257955
9.963257862
9.963256955
9.963257589
9.963302294
9.96330245
9.963302139
9.963303153
9.963301948
9.963301747
9.963301775
9.963302311
9.963302631
9.963303213
9.96330231
9.963301804
9.963300674
9.963298728
9.963257983
9.963257622
9.963258197
9.963257904
9.963257864
9.963257901
9.963258453
9.963256782
9.963256847
9.963256302
9.963255566
9.963254906
9.963255863
9.963256293
9.963311775
9.96331137
9.96331306
9.963313356
9.963315044
9.963314196
9.96331391
9.963312422
9.963312762
9.9633132
9.963313992
9.963314591
9.963313313
9.963312911
9.963257207
9.963256577
9.963258144
9.963257314
9.963257137
9.963257892
9.96325909
9.963259842
9.963257256
9.963257656
9.963258091
9.963257961
9.963256883
9.963257307
9.963249549
9.963249146
9.963247407
9.963247005
9.963246322
9.96324822
9.963246697
9.963245374
9.963246788
9.963246791
9.963247455
9.963248779
9.963249301
9.963250126
9.963328013
9.963328713
9.963329225
9.963328846
9.963328626
9.963329909
9.963328815
9.963329038
9.963328363
9.963328472
9.963329555
9.963329622
9.963328926
9.963328344
9.963328509
9.963258632
9.963258116
9.963257348
9.963257695
9.963258318
9.963258181
9.963258883
9.963260254
9.963257713
9.963258133
9.96325828
9.963258592
9.963259316
9.963258655
9.963257369
9.963254737
9.96325503
9.963255352
9.963256158
9.963254144
9.963254934
9.963253412
9.963254601
9.963254533
9.963255098
9.963254813
9.963254223
9.963254426
9.963254185
9.963253536
9.963265801
9.96326453
9.963264953
9.963265909
9.963265714
9.963265306
9.963264988
9.963266287
9.963266371
9.963266064
9.963264905
9.963265334
9.963265667
9.963265205
9.963249179
9.963249112
9.963248137
9.963248053
9.963248581
9.963249281
9.963249608
9.96324933
9.963248845
9.963249145
9.963249096
9.963249966
9.963252107
9.963252663
9.963280057
9.963282265
9.963281857
9.963282902
9.963282934
9.963284128
9.963282274
9.963282352
9.963281771
9.963282304
9.963282094
9.963281598
9.963281009
9.96328004
9.963243645
9.963244684
9.963244272
9.96324346
9.963243195
9.963244446
9.963245777
9.963245687
9.963246013
9.96324491
9.963244912
9.963245378
9.963247933
9.963248073
9.963313454
9.963312982
9.963312827
9.963312712
9.963314595
9.963315653
9.963315169
9.963315458
9.963316352
9.963315868
9.96331715
9.963318292
9.963317475
9.963316496
9.963284461
9.963284715
9.963283838
9.963284425
9.963283605
9.963283317
9.963282981
9.963285004
9.9632845
9.963284594
9.963282183
9.963280926
9.963282513
9.963282588
9.96324951
9.963249191
9.963248541
9.963248877
9.963249185
9.963249067
9.963248318
9.96324778
9.963247489
9.963247089
9.963247487
9.963248072
9.963248249
9.963248209
9.963302812
9.963302288
9.963302002
9.963301752
9.963302258
9.963302808
9.963303604
9.963303388
9.963302947
9.963302652
9.963302247
9.963303318
9.963303271
9.963303679
9.963303486
9.963283559
9.963283289
9.963283096
9.963282431
9.963282759
9.963283433
9.963283594
9.963283771
9.963283648
9.963284189
9.963284833
9.963285201
9.96328469
9.963285769
9.963285227
9.963297092
9.963296059
9.963296424
9.963296443
9.963295255
9.963295836
9.963295932
9.963297251
9.96329701
9.963296848
9.963297502
9.963297628
9.963297254
9.963297398
9.963313577
9.963313385
9.963313044
9.963313129
9.963314139
9.963314265
9.963314175
9.963314041
9.963314608
9.963314079
9.963314451
9.963314352
9.963312371
9.963312561
9.963287551
9.963287486
9.963287265
9.963286121
9.963286365
9.963285606
9.963286487
9.963285709
9.963285778
9.963286527
9.963285719
9.963283886
9.963283001
9.963281917
9.963282201
9.963282198
9.963282705
9.963282114
9.963281073
9.963280666
9.963279844
9.963279933
9.96328027
9.963280663
9.963281961
9.963282455
9.963283437
9.963285291
9.963271455
9.9632711
9.963271424
9.963271957
9.963273435
9.963273795
9.963273435
9.963272679
9.963272303
9.963272102
9.963271182
9.963271203
9.963270791
9.963270839
9.963301591
9.96330182
9.963301841
9.963301973
9.963301154
9.96330006
9.963302625
9.963301323
9.963301302
9.963301468
9.963300954
9.963300199
9.963300519
9.963299862
9.963285565
9.963284045
9.963284096
9.963284606
9.963283145
9.963283792
9.963283082
9.963283118
9.963283882
9.96328346
9.963284646
9.963283747
9.963284216
9.963284899
9.963303118
9.96330259
9.963301078
9.963299689
9.96330001
9.963299686
9.96329866
9.963299448
9.963300193
9.963300412
9.963300021
9.963298317
9.963298343
9.963297921
9.963258609
9.963257425
9.96325869
9.963259216
9.963258998
9.963259022
9.963260094
9.963261341
9.963261073
9.963261194
9.963261045
9.963260927
9.963260135
9.963260034
9.963260247
9.963264634
9.963264961
9.963265404
9.963264118
9.963263374
9.963263891
9.9632638
9.963263001
9.963262972
9.963263293
9.9632625
9.963262617
9.963262957
9.963262906
9.963274775
9.963274006
9.963275161
9.963275523
9.963275439
9.963276524
9.963276303
9.963275915
9.963276424
9.963276167
9.963275704
9.963275143
9.963275025
9.963276319
9.963261594
9.963262311
9.96326188
9.96326272
9.963262488
9.963262806
9.963262209
9.963261148
9.963260737
9.963260917
9.96326043
9.963260379
9.963260383
9.963260823
9.963342142
9.963341785
9.963340928
9.963341242
9.963342117
9.963340219
9.963341073
9.96334097
9.963339884
9.96334056
9.963340258
9.963340101
9.963339881
9.963340041
9.963327137
9.963328575
9.963329675
9.963329897
9.96332946
9.963329996
9.963330308
9.963330105
9.963329685
9.963328187
9.963329746
9.963330258
9.963330114
9.963330984
9.963301987
9.963301549
9.963302072
9.96330157
9.963302294
9.963303713
9.963302631
9.963302873
9.963301951
9.963303573
9.963302599
9.963302224
9.963301983
9.963301854
9.963267283
9.96326717
9.963266627
9.963265685
9.963265902
9.963266858
9.963266768
9.963266339
9.963267549
9.963267257
9.963268218
9.963269719
9.963270479
9.963270507
9.963294656
9.96329437
9.963295737
9.963295659
9.963295155
9.963295427
9.963293911
9.963293867
9.963294362
9.963293879
9.963294577
9.963294017
9.963293544
9.963292866
9.963278411
9.963277924
9.963277623
9.963277442
9.963278938
9.963278697
9.963279616
9.963279242
9.96327928
9.963278806
9.963278709
9.963279219
9.963279693
9.963280004
)
;

boundaryField
{
    top
    {
        type            calculated;
        value           nonuniform List<scalar> 
134
(
9.96325288
9.963224959
9.963315239
9.96329635
9.96322839
9.963254737
9.963283559
9.963258609
9.963278411
9.963254066
9.963225093
9.963315837
9.963296462
9.963229001
9.96325503
9.963283289
9.963257425
9.963277924
9.963254192
9.963225152
9.963315762
9.963296195
9.963229505
9.963255352
9.963283096
9.96325869
9.963277623
9.963252626
9.963225475
9.963315593
9.963296536
9.963229179
9.963256158
9.963282431
9.963259216
9.963277442
9.963253146
9.963225421
9.963315477
9.963295364
9.963230005
9.963254144
9.963282759
9.963258998
9.963278938
9.963252014
9.963226452
9.963315126
9.963294385
9.963230226
9.963254934
9.963283433
9.963259022
9.963278697
9.963252724
9.963226715
9.963316469
9.963294095
9.963228933
9.963253412
9.963283594
9.963260094
9.963279616
9.963252315
9.963226266
9.963316961
9.963293353
9.963228381
9.963254601
9.963283771
9.963261341
9.963279242
9.963252792
9.96322688
9.963316493
9.963294524
9.963227896
9.963254533
9.963283648
9.963261073
9.96327928
9.963252669
9.963226437
9.963315322
9.96329543
9.963228668
9.963255098
9.963284189
9.963261194
9.963278806
9.963251864
9.963226194
9.963314658
9.963295203
9.963228196
9.963254813
9.963284833
9.963261045
9.963278709
9.963253063
9.9632251
9.963314934
9.963295657
9.963226434
9.963254223
9.963285201
9.963260927
9.963279219
9.963254145
9.963226287
9.963313476
9.963295711
9.963226505
9.963254426
9.96328469
9.963260135
9.963279693
9.963252415
9.963225993
9.963313725
9.963297072
9.963225916
9.963254185
9.963285769
9.963260034
9.963280004
9.96325299
9.963225801
9.963313722
9.963296423
9.963225224
9.963253536
9.963285227
9.963260247
)
;
    }
    bottom
    {
        type            calculated;
        value           nonuniform List<scalar> 
127
(
9.963283116
9.963287643
9.963285432
9.963277413
9.963278081
9.963257324
9.963265801
9.963297092
9.963264634
9.963282604
9.963285849
9.963286379
9.963278491
9.963277399
9.963256711
9.96326453
9.963296059
9.963264961
9.963282185
9.963285591
9.963286136
9.963278325
9.963277721
9.963257354
9.963264953
9.963296424
9.963265404
9.963281566
9.96328637
9.963285461
9.963278194
9.963276661
9.96325831
9.963265909
9.963296443
9.963264118
9.963281297
9.963285991
9.963285768
9.963278443
9.963275839
9.963257781
9.963265714
9.963295255
9.963263374
9.963280515
9.963285326
9.963286334
9.963277692
9.963277034
9.963257491
9.963265306
9.963295836
9.963263891
9.963280609
9.963285348
9.963286502
9.963279835
9.963277591
9.963256477
9.963264988
9.963295932
9.9632638
9.963280856
9.963284628
9.963286498
9.963280867
9.963277909
9.963257834
9.963266287
9.963297251
9.963263001
9.963281259
9.963285316
9.963286896
9.963280061
9.963278211
9.963257882
9.963266371
9.96329701
9.963262972
9.963281492
9.963286252
9.963286171
9.963280436
9.96327815
9.96325872
9.963266064
9.963296848
9.963263293
9.963281571
9.963285395
9.963285864
9.963279465
9.963278753
9.963257955
9.963264905
9.963297502
9.9632625
9.963281265
9.963284835
9.963285642
9.963279789
9.96327831
9.963257862
9.963265334
9.963297628
9.963262617
9.963281574
9.963285449
9.963284964
9.963280721
9.963278119
9.963256955
9.963265667
9.963297254
9.963262957
9.963280577
9.963285241
9.963285358
9.963279938
9.963278384
9.963257589
9.963265205
9.963297398
9.963262906
9.963280704
)
;
    }
    side-walls
    {
        type            calculated;
        value           nonuniform List<scalar> 
261
(
9.963283116
9.963276063
9.963299362
9.96328829
9.96324539
9.963254629
9.963294177
9.963276173
9.96325288
9.963282604
9.963275372
9.96329929
9.963287312
9.963246301
9.963255326
9.963294229
9.963275983
9.963254066
9.963282185
9.963274783
9.963298936
9.963287827
9.963246335
9.963254626
9.963293138
9.963276778
9.963254192
9.963281566
9.963274513
9.963298495
9.963288638
9.96324683
9.963255133
9.963294124
9.963276643
9.963252626
9.963281297
9.963274852
9.963299776
9.963289448
9.963246679
9.963254103
9.963294742
9.963276374
9.963253146
9.963280515
9.963275384
9.963300354
9.963289069
9.963246317
9.963254886
9.963292922
9.963276144
9.963252014
9.963280609
9.963276251
9.963299597
9.96329071
9.963246658
9.963254837
9.963294842
9.963277391
9.963252724
9.963280856
9.963277273
9.963299577
9.963291984
9.963244837
9.9632535
9.963293384
9.963277329
9.963252315
9.963281259
9.963277651
9.963299505
9.96329213
9.963244099
9.963252489
9.963293512
9.963277674
9.963252792
9.963281492
9.963277376
9.963299059
9.963292946
9.963246094
9.963251319
9.963292791
9.963278219
9.963252669
9.963281571
9.963277414
9.963300118
9.963292491
9.963246988
9.963252092
9.963293471
9.963277733
9.963251864
9.963281265
9.963277609
9.963300239
9.963291175
9.963246706
9.963251823
9.96329469
9.963276477
9.963253063
9.963281574
9.96327508
9.963299597
9.963291819
9.963246911
9.963250616
9.963294843
9.963276244
9.963254145
9.963280577
9.963275209
9.963300155
9.963292758
9.963247112
9.963249858
9.963295584
9.963277001
9.963252415
9.963280704
9.963274841
9.963299151
9.963292906
9.963247298
9.963249688
9.963295023
9.963276906
9.96325299
9.963264634
9.963274775
9.963261594
9.963342142
9.963327137
9.963301987
9.963267283
9.963294656
9.963278411
9.963264961
9.963274006
9.963262311
9.963341785
9.963328575
9.963301549
9.96326717
9.96329437
9.963277924
9.963265404
9.963275161
9.96326188
9.963340928
9.963329675
9.963302072
9.963266627
9.963295737
9.963277623
9.963264118
9.963275523
9.96326272
9.963341242
9.963329897
9.96330157
9.963265685
9.963295659
9.963277442
9.963263374
9.963275439
9.963262488
9.963342117
9.96332946
9.963302294
9.963265902
9.963295155
9.963278938
9.963263891
9.963276524
9.963262806
9.963340219
9.963329996
9.963303713
9.963266858
9.963295427
9.963278697
9.9632638
9.963276303
9.963262209
9.963341073
9.963330308
9.963302631
9.963266768
9.963293911
9.963279616
9.963263001
9.963275915
9.963261148
9.96334097
9.963330105
9.963302873
9.963266339
9.963293867
9.963279242
9.963262972
9.963276424
9.963260737
9.963339884
9.963329685
9.963301951
9.963267549
9.963294362
9.96327928
9.963263293
9.963276167
9.963260917
9.96334056
9.963328187
9.963303573
9.963267257
9.963293879
9.963278806
9.9632625
9.963275704
9.96326043
9.963340258
9.963329746
9.963302599
9.963268218
9.963294577
9.963278709
9.963262617
9.963275143
9.963260379
9.963340101
9.963330258
9.963302224
9.963269719
9.963294017
9.963279219
9.963262957
9.963275025
9.963260383
9.963339881
9.963330114
9.963301983
9.963270479
9.963293544
9.963279693
9.963262906
9.963276319
9.963260823
9.963340041
9.963330984
9.963301854
9.963270507
9.963292866
9.963280004
)
;
    }
    inlet
    {
        type            calculated;
        value           nonuniform List<scalar> 
81
(
9.963283116
9.963276063
9.963299362
9.96328829
9.96324539
9.963254629
9.963294177
9.963276173
9.96325288
9.963287643
9.963259275
9.963252854
9.963299037
9.963286686
9.963310832
9.963233138
9.963304555
9.963224959
9.963285432
9.963276217
9.963280169
9.96326716
9.963327083
9.963278277
9.96329164
9.963222352
9.963315239
9.963277413
9.963243522
9.963288395
9.96325314
9.963263558
9.963314378
9.96325916
9.963289239
9.96329635
9.963278081
9.963299514
9.963297766
9.963253068
9.963263024
9.963299815
9.963257148
9.963282717
9.96322839
9.963257324
9.963302294
9.963257983
9.963311775
9.963257207
9.963249549
9.963328013
9.963258632
9.963254737
9.963265801
9.963249179
9.963280057
9.963243645
9.963313454
9.963284461
9.96324951
9.963302812
9.963283559
9.963297092
9.963313577
9.963287551
9.963282201
9.963271455
9.963301591
9.963285565
9.963303118
9.963258609
9.963264634
9.963274775
9.963261594
9.963342142
9.963327137
9.963301987
9.963267283
9.963294656
9.963278411
)
;
    }
    outlet
    {
        type            calculated;
        value           nonuniform 0();
    }
    procBoundary0to1
    {
        type            processor;
        value           nonuniform List<scalar> 
97
(
9.9632802
9.96328538
9.963273801
9.963299079
9.96329321
9.963246869
9.963251156
9.963294294
9.963277364
9.963252665
9.96328538
9.96328538
9.963256838
9.963280953
9.9632519
9.963303228
9.963290573
9.963310061
9.963235708
9.963304848
9.963224931
9.96328422
9.963280953
9.963280953
9.963276654
9.963289345
9.963266247
9.963323962
9.963273775
9.963298499
9.963220547
9.963315504
9.963280572
9.96324515
9.963289345
9.963289345
9.963250817
9.963277075
9.963284591
9.963313057
9.963257624
9.963288259
9.963296643
9.963277794
9.963302156
9.963296533
9.963277075
9.963277075
10.00508177
9.963280682
9.963316381
9.963249257
9.963259416
9.963278624
9.963224963
9.963258198
9.963297142
9.963256239
9.963312599
9.963280682
9.963249257
9.963249257
9.96332777
9.963249293
9.963257997
9.963253751
9.963263021
9.963251729
9.963279707
9.963247449
9.963316192
9.963282
9.963249293
9.963249293
9.963302451
9.963298515
9.963283281
9.9632978
9.963311456
9.963279942
9.963285641
9.963271096
9.963300754
9.963285248
9.963298515
9.963298515
9.963261952
9.963279939
9.96326195
9.963276192
9.963259532
9.963339337
9.963330058
9.963301899
9.963270092
9.963293018
9.963279939
)
;
    }
}


// ************************************************************************* //
