/*--------------------------------*- C++ -*----------------------------------*\
| =========                 |                                                 |
| \\      /  F ield         | OpenFOAM: The Open Source CFD Toolbox           |
|  \\    /   O peration     | Version:  4.x                                   |
|   \\  /    A nd           | Web:      www.OpenFOAM.org                      |
|    \\/     M anipulation  |                                                 |
\*---------------------------------------------------------------------------*/
FoamFile
{
    version     2.0;
    format      ascii;
    class       volScalarField;
    location    "6000";
    object      N2;
}
// * * * * * * * * * * * * * * * * * * * * * * * * * * * * * * * * * * * * * //

dimensions      [0 0 0 0 0 0 0];

internalField   nonuniform List<scalar> 
1175
(
0.6215293955
0.6215293957
0.6215293958
0.6215293961
0.6215293958
0.6215293963
0.6215293963
0.6215293959
0.6215293944
0.6215293912
0.6215293819
0.6215293582
0.6215292998
0.6215291701
0.6215289145
0.6215293956
0.6215293955
0.6215293957
0.6215293955
0.6215293961
0.6215293959
0.6215293954
0.6215293949
0.6215293932
0.6215293887
0.6215293744
0.6215293349
0.621529236
0.621529011
0.6215285676
0.621529396
0.621529396
0.6215293955
0.6215293961
0.6215293964
0.6215293964
0.6215293961
0.6215293953
0.6215293927
0.6215293848
0.62152936
0.6215292885
0.6215290994
0.6215286596
0.62152779
0.6215293961
0.6215293965
0.6215293967
0.6215293962
0.6215293959
0.6215293961
0.6215293956
0.6215293946
0.621529391
0.6215293795
0.6215293412
0.6215292261
0.6215289085
0.6215281432
0.6215266207
0.6215293964
0.6215293963
0.6215293963
0.6215293958
0.621529396
0.6215293961
0.6215293957
0.6215293947
0.621529391
0.6215293769
0.6215293312
0.6215291886
0.6215287829
0.6215277745
0.6215257414
0.6215293964
0.6215293964
0.6215293961
0.6215293961
0.6215293962
0.6215293961
0.6215293955
0.6215293952
0.6215293914
0.6215293799
0.6215293418
0.6215292262
0.6215289089
0.6215281439
0.6215266209
0.621529396
0.6215293957
0.6215293959
0.621529396
0.6215293958
0.6215293963
0.6215293956
0.6215293952
0.6215293929
0.6215293847
0.6215293601
0.6215292886
0.6215290994
0.6215286597
0.6215277904
0.621529396
0.6215293961
0.6215293957
0.621529396
0.6215293963
0.6215293962
0.6215293959
0.6215293953
0.6215293939
0.6215293891
0.6215293747
0.6215293358
0.6215292363
0.6215290113
0.6215285678
0.6215293964
0.6215293961
0.6215293964
0.6215293966
0.6215293965
0.6215293963
0.6215293961
0.6215293956
0.6215293945
0.6215293913
0.6215293824
0.6215293585
0.6215292996
0.6215291705
0.6215289149
0.621529396
0.6215293962
0.6215293963
0.6215293958
0.6215293958
0.621529396
0.6215293956
0.6215293954
0.6215293941
0.6215293888
0.6215293748
0.6215293354
0.6215292359
0.6215290109
0.6215293961
0.6215293964
0.6215293958
0.6215293958
0.621529396
0.6215293958
0.6215293956
0.6215293952
0.6215293927
0.621529385
0.6215293601
0.6215292884
0.621529098
0.6215286518
0.6215277688
0.621529396
0.6215293958
0.6215293958
0.621529396
0.6215293962
0.6215293959
0.6215293958
0.6215293946
0.6215293902
0.6215293764
0.6215293292
0.6215291823
0.6215287676
0.6215277475
0.6215257074
0.6215293963
0.6215293963
0.6215293965
0.6215293962
0.6215293962
0.6215293961
0.6215293955
0.6215293939
0.6215293876
0.6215293656
0.6215292864
0.6215290228
0.6215282247
0.621526137
0.6215218603
0.6215293965
0.6215293967
0.6215293965
0.6215293964
0.6215293961
0.6215293961
0.6215293953
0.6215293937
0.6215293868
0.6215293594
0.621529259
0.6215289077
0.6215277766
0.6215246147
0.6215178372
0.6215293965
0.6215293964
0.6215293959
0.6215293959
0.6215293961
0.6215293957
0.6215293954
0.6215293942
0.6215293881
0.6215293662
0.621529287
0.621529023
0.6215282245
0.6215261371
0.6215218605
0.6215293961
0.6215293961
0.621529396
0.6215293962
0.6215293964
0.6215293966
0.6215293967
0.6215293947
0.6215293906
0.6215293766
0.6215293296
0.6215291831
0.621528768
0.6215277478
0.621525708
0.6215293957
0.621529396
0.6215293958
0.6215293958
0.6215293962
0.6215293965
0.6215293961
0.621529395
0.6215293931
0.6215293852
0.6215293605
0.6215292891
0.6215290985
0.6215286523
0.6215277695
0.6215293965
0.6215293966
0.6215293961
0.6215293959
0.621529396
0.6215293959
0.6215293955
0.6215293951
0.6215293942
0.6215293892
0.621529375
0.6215293359
0.6215292362
0.6215290113
0.6215285682
0.6215293961
0.6215293959
0.6215293958
0.6215293961
0.6215293959
0.6215293957
0.6215293955
0.621529395
0.6215293924
0.6215293844
0.6215293596
0.6215292884
0.6215290995
0.6215286593
0.6215293956
0.6215293957
0.621529396
0.621529396
0.6215293956
0.6215293959
0.6215293958
0.6215293945
0.6215293901
0.621529376
0.621529329
0.6215291827
0.6215287674
0.6215277466
0.6215293959
0.621529396
0.6215293961
0.6215293959
0.6215293962
0.6215293957
0.6215293954
0.6215293932
0.6215293861
0.621529358
0.6215292581
0.6215289165
0.621527863
0.6215250702
0.6215193236
0.6215293961
0.6215293962
0.6215293963
0.6215293966
0.6215293966
0.6215293962
0.6215293952
0.6215293923
0.621529381
0.6215293327
0.6215291465
0.6215284512
0.6215260786
0.6215191074
0.6215038023
0.6215293959
0.6215293961
0.6215293962
0.6215293961
0.6215293964
0.6215293961
0.6215293952
0.6215293919
0.6215293771
0.6215293163
0.6215290619
0.6215280394
0.621524176
0.6215112852
0.6214791741
0.6215293961
0.6215293966
0.6215293967
0.6215293962
0.6215293961
0.6215293959
0.6215293951
0.6215293921
0.6215293805
0.6215293331
0.6215291462
0.6215284514
0.6215260789
0.6215191084
0.6215038046
0.6215293965
0.6215293961
0.6215293963
0.6215293963
0.6215293965
0.6215293963
0.6215293959
0.6215293932
0.6215293863
0.6215293587
0.6215292581
0.6215289171
0.6215278634
0.621525071
0.6215193264
0.6215293961
0.621529396
0.6215293958
0.6215293963
0.6215293963
0.6215293965
0.6215293957
0.6215293947
0.6215293902
0.6215293764
0.6215293294
0.6215291833
0.621528768
0.6215277477
0.6215257083
0.6215293962
0.621529396
0.621529396
0.6215293963
0.6215293963
0.6215293959
0.6215293957
0.6215293953
0.6215293927
0.621529385
0.6215293603
0.6215292888
0.6215290994
0.6215286596
0.6215277905
0.621529396
0.6215293959
0.6215293961
0.621529396
0.6215293964
0.6215293963
0.6215293958
0.6215293946
0.621529391
0.6215293793
0.6215293416
0.6215292263
0.6215289088
0.6215281431
0.6215293958
0.6215293959
0.6215293961
0.6215293963
0.6215293964
0.6215293962
0.6215293957
0.6215293939
0.6215293877
0.6215293651
0.6215292862
0.621529023
0.6215282244
0.6215261359
0.6215293956
0.6215293958
0.6215293959
0.6215293958
0.621529396
0.6215293954
0.6215293948
0.6215293923
0.6215293808
0.6215293332
0.6215291465
0.6215284512
0.6215260783
0.6215191046
0.6215293955
0.6215293961
0.6215293964
0.6215293961
0.6215293961
0.6215293957
0.6215293947
0.6215293904
0.62152937
0.6215292816
0.6215288969
0.6215272781
0.6215208769
0.6214986347
0.6214417282
0.621529396
0.6215293963
0.6215293963
0.6215293962
0.6215293957
0.6215293958
0.6215293943
0.6215293891
0.6215293636
0.6215292431
0.6215286727
0.6215259691
0.6215133731
0.6214584224
0.6212675647
0.6215293964
0.6215293961
0.621529396
0.6215293962
0.6215293959
0.6215293959
0.6215293946
0.6215293903
0.6215293703
0.6215292817
0.6215288974
0.6215272775
0.6215208773
0.6214986391
0.6214417468
0.621529396
0.6215293959
0.6215293962
0.6215293964
0.6215293963
0.621529396
0.6215293953
0.6215293923
0.6215293804
0.6215293329
0.6215291459
0.621528451
0.6215260789
0.6215191078
0.6215038045
0.6215293957
0.6215293961
0.6215293962
0.6215293968
0.6215293961
0.6215293961
0.6215293957
0.6215293938
0.6215293878
0.6215293651
0.6215292867
0.6215290229
0.6215282249
0.6215261372
0.6215218606
0.6215293959
0.6215293962
0.6215293959
0.6215293958
0.6215293959
0.6215293959
0.6215293957
0.621529395
0.6215293917
0.6215293794
0.6215293415
0.6215292264
0.6215289087
0.6215281435
0.6215266207
0.6215293962
0.6215293961
0.6215293961
0.6215293964
0.6215293968
0.621529396
0.6215293953
0.6215293942
0.6215293906
0.6215293767
0.6215293307
0.6215291882
0.6215287824
0.6215277737
0.6215293967
0.6215293963
0.6215293961
0.6215293963
0.6215293959
0.6215293959
0.6215293952
0.6215293937
0.6215293861
0.6215293588
0.6215292584
0.621528907
0.6215277757
0.6215246129
0.621529396
0.621529396
0.6215293966
0.6215293963
0.6215293961
0.6215293963
0.6215293949
0.6215293917
0.6215293774
0.6215293161
0.621529062
0.6215280392
0.621524174
0.6215112776
0.6215293959
0.6215293961
0.6215293966
0.6215293961
0.6215293957
0.6215293953
0.6215293943
0.6215293887
0.6215293632
0.6215292429
0.6215286726
0.6215259687
0.6215133699
0.6214584006
0.6215293962
0.6215293964
0.6215293961
0.6215293962
0.6215293955
0.6215293953
0.621529394
0.6215293873
0.6215293534
0.6215291808
0.6215282568
0.6215230279
0.6214913995
0.6212855832
0.6198374761
0.6215293959
0.6215293961
0.6215293961
0.6215293964
0.621529396
0.6215293956
0.6215293943
0.6215293889
0.6215293636
0.621529243
0.6215286724
0.6215259686
0.6215133717
0.6214584191
0.6212675615
0.6215293959
0.6215293962
0.6215293964
0.6215293962
0.6215293963
0.6215293958
0.6215293955
0.6215293921
0.6215293773
0.6215293158
0.6215290611
0.6215280385
0.6215241748
0.6215112841
0.6214791733
0.621529396
0.6215293961
0.621529396
0.621529396
0.621529396
0.6215293956
0.6215293957
0.6215293939
0.6215293866
0.6215293594
0.6215292592
0.6215289075
0.621527777
0.6215246147
0.6215178372
0.6215293964
0.6215293962
0.621529396
0.6215293961
0.6215293958
0.6215293958
0.6215293958
0.621529395
0.6215293905
0.6215293767
0.6215293313
0.6215291889
0.6215287832
0.6215277747
0.6215257417
0.6215293961
0.6215293963
0.621529396
0.6215293961
0.621529396
0.6215293956
0.6215293959
0.6215293945
0.6215293909
0.6215293795
0.6215293413
0.6215292261
0.6215289082
0.621528143
0.6215293961
0.6215293962
0.6215293958
0.6215293959
0.621529396
0.6215293961
0.6215293955
0.6215293938
0.6215293875
0.6215293648
0.6215292861
0.6215290226
0.6215282237
0.6215261353
0.6215293961
0.6215293961
0.6215293958
0.6215293956
0.6215293961
0.6215293956
0.6215293948
0.6215293922
0.6215293804
0.6215293323
0.6215291461
0.621528451
0.6215260775
0.6215191035
0.6215293964
0.6215293961
0.6215293962
0.6215293962
0.6215293959
0.6215293955
0.6215293948
0.6215293903
0.62152937
0.6215292817
0.6215288968
0.621527277
0.6215208751
0.6214986274
0.6215293964
0.6215293966
0.6215293963
0.6215293965
0.6215293964
0.6215293959
0.6215293942
0.6215293888
0.6215293635
0.6215292431
0.6215286725
0.621525968
0.6215133689
0.6214583973
0.6215293963
0.6215293963
0.6215293959
0.6215293962
0.6215293965
0.6215293957
0.6215293948
0.6215293906
0.6215293705
0.6215292816
0.6215288973
0.6215272777
0.6215208753
0.6214986295
0.621529396
0.6215293963
0.6215293963
0.6215293962
0.6215293958
0.6215293956
0.6215293952
0.6215293925
0.6215293808
0.6215293328
0.6215291462
0.6215284512
0.6215260786
0.6215191058
0.621503798
0.6215293961
0.6215293962
0.6215293961
0.621529396
0.6215293962
0.6215293962
0.6215293958
0.621529394
0.6215293881
0.6215293655
0.6215292866
0.6215290231
0.6215282242
0.6215261368
0.6215218599
0.6215293962
0.6215293961
0.6215293958
0.6215293959
0.6215293962
0.6215293962
0.6215293961
0.6215293951
0.6215293913
0.6215293796
0.6215293411
0.621529226
0.6215289087
0.6215281435
0.6215266209
0.6215293957
0.6215293959
0.6215293964
0.6215293959
0.6215293955
0.6215293955
0.6215293954
0.6215293945
0.6215293924
0.6215293845
0.6215293597
0.6215292878
0.6215290986
0.6215286591
0.6215293955
0.6215293958
0.6215293959
0.6215293962
0.6215293958
0.6215293957
0.6215293955
0.621529394
0.6215293903
0.6215293763
0.6215293293
0.6215291824
0.621528767
0.6215277466
0.6215293963
0.621529396
0.621529396
0.6215293957
0.6215293955
0.6215293954
0.6215293953
0.6215293934
0.621529386
0.6215293587
0.6215292583
0.6215289164
0.6215278627
0.6215250691
0.6215293963
0.6215293959
0.6215293958
0.621529396
0.6215293962
0.6215293956
0.6215293952
0.6215293923
0.6215293802
0.6215293331
0.621529146
0.6215284507
0.6215260779
0.6215191036
0.621529396
0.6215293963
0.6215293966
0.6215293966
0.6215293965
0.6215293956
0.6215293951
0.6215293917
0.621529377
0.6215293159
0.6215290613
0.6215280383
0.6215241738
0.6215112777
0.621529396
0.621529396
0.6215293959
0.6215293963
0.6215293965
0.6215293959
0.6215293956
0.6215293925
0.6215293807
0.6215293329
0.6215291466
0.6215284516
0.6215260776
0.6215191038
0.6215293967
0.6215293961
0.6215293961
0.6215293963
0.6215293961
0.6215293961
0.6215293956
0.6215293939
0.6215293866
0.6215293592
0.6215292586
0.6215289165
0.6215278623
0.6215250691
0.621529396
0.6215293965
0.6215293965
0.6215293962
0.621529396
0.6215293963
0.6215293955
0.6215293948
0.6215293906
0.6215293766
0.6215293293
0.6215291827
0.6215287674
0.621527747
0.6215257075
0.6215293959
0.6215293961
0.6215293964
0.6215293962
0.6215293966
0.6215293966
0.6215293962
0.6215293952
0.6215293928
0.6215293849
0.6215293601
0.6215292884
0.6215290995
0.6215286593
0.6215277903
0.6215293952
0.6215293959
0.6215293957
0.6215293958
0.6215293961
0.6215293961
0.621529396
0.6215293951
0.6215293933
0.6215293884
0.6215293746
0.621529335
0.6215292357
0.6215290106
0.6215293957
0.6215293958
0.6215293959
0.6215293962
0.6215293957
0.6215293953
0.6215293954
0.6215293945
0.621529392
0.6215293845
0.6215293599
0.6215292884
0.6215290979
0.6215286516
0.6215293957
0.6215293954
0.6215293959
0.6215293958
0.6215293955
0.6215293954
0.6215293954
0.6215293944
0.6215293907
0.6215293764
0.6215293296
0.6215291829
0.6215287677
0.6215277467
0.6215293965
0.6215293961
0.6215293957
0.6215293962
0.6215293959
0.6215293956
0.6215293958
0.6215293941
0.6215293882
0.6215293657
0.6215292867
0.621529023
0.6215282245
0.6215261355
0.6215293965
0.6215293963
0.6215293962
0.6215293961
0.6215293963
0.621529396
0.6215293958
0.6215293944
0.6215293867
0.6215293593
0.6215292587
0.6215289076
0.6215277763
0.621524613
0.6215293963
0.6215293962
0.6215293964
0.6215293962
0.6215293961
0.621529396
0.6215293955
0.6215293941
0.6215293881
0.6215293658
0.6215292866
0.6215290232
0.6215282242
0.6215261361
0.6215293963
0.6215293961
0.6215293966
0.6215293963
0.6215293961
0.6215293958
0.6215293954
0.621529395
0.621529391
0.6215293764
0.6215293294
0.6215291832
0.6215287678
0.6215277471
0.6215293965
0.6215293965
0.621529397
0.621529397
0.6215293963
0.6215293963
0.6215293964
0.6215293954
0.6215293928
0.6215293852
0.6215293605
0.6215292893
0.6215290986
0.6215286521
0.6215293963
0.6215293965
0.6215293965
0.6215293964
0.6215293968
0.6215293965
0.6215293963
0.6215293954
0.6215293939
0.6215293892
0.6215293754
0.621529336
0.6215292364
0.6215290113
0.6215285679
0.6215293953
0.6215293953
0.6215293952
0.6215293957
0.621529396
0.6215293956
0.6215293954
0.6215293949
0.6215293942
0.6215293907
0.6215293822
0.6215293582
0.6215292994
0.6215291697
0.6215293956
0.6215293958
0.6215293959
0.6215293954
0.6215293956
0.6215293955
0.6215293956
0.6215293953
0.6215293936
0.6215293889
0.6215293746
0.6215293355
0.6215292358
0.6215290108
0.621529396
0.6215293959
0.6215293958
0.621529396
0.6215293953
0.6215293957
0.6215293952
0.6215293947
0.6215293924
0.6215293844
0.62152936
0.6215292883
0.6215290992
0.6215286586
0.621529396
0.6215293959
0.6215293961
0.6215293959
0.6215293958
0.6215293962
0.6215293958
0.6215293948
0.6215293917
0.6215293794
0.6215293417
0.621529226
0.6215289086
0.6215281425
0.6215293966
0.6215293964
0.6215293959
0.6215293961
0.621529396
0.6215293958
0.6215293959
0.6215293948
0.6215293909
0.6215293774
0.6215293316
0.6215291886
0.6215287831
0.6215277738
0.6215293962
0.6215293963
0.6215293965
0.6215293965
0.6215293966
0.621529396
0.6215293959
0.6215293951
0.6215293915
0.6215293796
0.6215293417
0.6215292261
0.6215289083
0.6215281435
0.6215293963
0.6215293963
0.6215293965
0.6215293964
0.6215293965
0.6215293961
0.621529396
0.6215293953
0.6215293928
0.621529385
0.6215293604
0.6215292887
0.6215290996
0.6215286596
0.6215293963
0.6215293963
0.6215293959
0.6215293964
0.6215293963
0.6215293965
0.6215293964
0.6215293957
0.6215293943
0.6215293893
0.6215293748
0.6215293357
0.6215292359
0.6215290113
0.6215293964
0.6215293967
0.6215293967
0.6215293965
0.6215293967
0.6215293962
0.6215293962
0.6215293955
0.6215293943
0.6215293916
0.6215293831
0.6215293588
0.6215293
0.6215291704
)
;

boundaryField
{
    top
    {
        type            zeroGradient;
    }
    bottom
    {
        type            zeroGradient;
    }
    side-walls
    {
        type            zeroGradient;
    }
    inlet
    {
        type            zeroGradient;
    }
    outlet
    {
        type            zeroGradient;
    }
    procBoundary0to1
    {
        type            processor;
        value           nonuniform List<scalar> 
97
(
0.6215284692
0.6215285677
0.6215278167
0.6215263738
0.621524256
0.6215227412
0.6215242562
0.6215263739
0.6215278167
0.6215284693
0.6215285677
0.6215285677
0.6215263428
0.6215257069
0.6215226301
0.6215160216
0.621509775
0.6215160218
0.6215226312
0.6215263437
0.6215278169
0.6215277898
0.6215257069
0.6215257069
0.6215116445
0.621503797
0.6214871688
0.6214550559
0.6214871712
0.621511646
0.6215226311
0.621526374
0.6215266201
0.6215218591
0.621503797
0.621503797
0.6214031291
0.6212674867
0.6212379343
0.6214031368
0.6214871704
0.6215160219
0.6215242569
0.6215257407
0.621517835
0.6214791633
0.6212674867
0.6212674867
0.6205256838
0.6212674882
0.6212379347
0.6214417266
0.6214550558
0.6215097749
0.6215227421
0.6215266199
0.6215218594
0.6215037998
0.6214417293
0.6212674882
0.6214417266
0.6214417266
0.6214871688
0.6215193237
0.6215160214
0.6215242567
0.6215277899
0.6215257076
0.6215193251
0.6215038
0.6214791635
0.6215038001
0.6215193237
0.6215193237
0.6215226302
0.6215277689
0.6215263741
0.6215285674
0.6215277692
0.6215257081
0.6215218592
0.6215178356
0.6215218588
0.6215257076
0.6215277689
0.6215277689
0.6215278168
0.6215289147
0.6215289143
0.6215285673
0.62152779
0.6215266201
0.6215257408
0.6215266202
0.6215277903
0.621528568
0.6215289147
)
;
    }
}


// ************************************************************************* //
