/*--------------------------------*- C++ -*----------------------------------*\
| =========                 |                                                 |
| \\      /  F ield         | OpenFOAM: The Open Source CFD Toolbox           |
|  \\    /   O peration     | Version:  4.x                                   |
|   \\  /    A nd           | Web:      www.OpenFOAM.org                      |
|    \\/     M anipulation  |                                                 |
\*---------------------------------------------------------------------------*/
FoamFile
{
    version     2.0;
    format      ascii;
    class       volScalarField;
    location    "6000";
    object      rho;
}
// * * * * * * * * * * * * * * * * * * * * * * * * * * * * * * * * * * * * * //

dimensions      [1 -3 0 0 0 0 0];

internalField   nonuniform List<scalar> 
1175
(
0.2797544449
0.2797544243
0.279754414
0.2797543851
0.2797543995
0.2797543586
0.2797543487
0.279754349
0.2797543801
0.2797543859
0.279754406
0.2797544004
0.279754417
0.2797544664
0.2797545711
0.2797542357
0.2797542352
0.279754205
0.2797542262
0.279754181
0.2797542037
0.2797542359
0.2797542577
0.2797542894
0.2797542663
0.2797542766
0.2797543082
0.2797542957
0.2797543851
0.2797545748
0.2797548809
0.2797548845
0.2797549317
0.2797548833
0.279754878
0.2797548832
0.2797548783
0.2797548766
0.2797548837
0.2797548895
0.2797549101
0.2797549471
0.2797550409
0.2797552287
0.2797556228
0.2797545738
0.2797545539
0.2797545469
0.2797545955
0.2797546306
0.2797546193
0.2797546533
0.2797546887
0.2797547123
0.2797547089
0.2797547333
0.2797547505
0.2797549055
0.2797552903
0.2797559379
0.2797533917
0.2797534027
0.2797534062
0.2797534383
0.2797534112
0.2797533995
0.2797533959
0.2797533652
0.2797533425
0.2797533907
0.2797534267
0.2797534975
0.2797536765
0.2797541397
0.2797550623
0.2797536368
0.279753632
0.2797536471
0.2797536462
0.2797536249
0.2797536318
0.2797536594
0.2797536003
0.2797536071
0.2797535821
0.2797535813
0.2797536481
0.2797537524
0.2797540749
0.2797547385
0.2797547384
0.27975475
0.2797547281
0.2797547318
0.2797547665
0.2797547211
0.2797547554
0.2797547294
0.2797547183
0.2797547341
0.2797547587
0.2797547973
0.2797549079
0.2797550982
0.2797554761
0.2797542368
0.2797542305
0.2797542674
0.2797542563
0.2797542375
0.2797542448
0.2797542643
0.279754281
0.2797542755
0.279754283
0.2797542984
0.2797542805
0.2797543237
0.2797544429
0.2797546464
0.2797535894
0.2797536124
0.2797535913
0.2797535732
0.2797535824
0.279753577
0.2797535801
0.2797535772
0.279753578
0.2797535847
0.2797535845
0.2797536041
0.2797536617
0.279753678
0.2797538032
0.2797545455
0.2797545213
0.2797544969
0.2797545359
0.2797545311
0.2797545013
0.2797545068
0.2797544919
0.2797544658
0.2797545152
0.2797545035
0.2797545212
0.2797545712
0.2797546794
0.2797537556
0.2797537506
0.2797538147
0.2797538182
0.2797537977
0.2797537976
0.2797538103
0.2797537696
0.2797537532
0.2797537384
0.2797537775
0.2797538317
0.2797538829
0.2797540624
0.279754443
0.2797535903
0.2797536053
0.2797535989
0.2797535735
0.2797535517
0.279753562
0.2797535405
0.2797535218
0.2797535445
0.2797535252
0.2797535689
0.2797536594
0.2797538279
0.2797542686
0.2797552375
0.2797548852
0.2797548768
0.2797548498
0.2797548718
0.2797548664
0.2797548669
0.2797548879
0.2797549012
0.2797549408
0.2797549387
0.279754984
0.2797551464
0.2797554981
0.2797564513
0.2797583582
0.2797545452
0.2797545617
0.2797545887
0.2797546129
0.2797546488
0.2797546596
0.2797547148
0.2797547251
0.279754694
0.2797547431
0.2797547811
0.2797549374
0.2797554363
0.2797568592
0.2797598618
0.2797552108
0.2797552196
0.2797552487
0.2797552415
0.2797551967
0.2797552111
0.2797551929
0.2797551626
0.2797551619
0.2797551192
0.279755169
0.2797553314
0.2797557144
0.2797566486
0.279758562
0.279753049
0.2797530535
0.2797530466
0.2797530199
0.2797529986
0.2797529848
0.2797529573
0.2797530101
0.2797530332
0.2797530505
0.2797530838
0.2797531386
0.2797533252
0.2797537997
0.2797547642
0.2797550677
0.2797550504
0.2797550526
0.2797550479
0.2797550335
0.2797550145
0.2797550245
0.2797550762
0.2797550717
0.2797550904
0.2797551101
0.2797551271
0.279755221
0.2797553967
0.2797557826
0.2797527811
0.2797527713
0.2797528085
0.2797528364
0.2797528324
0.2797528543
0.2797528735
0.2797528758
0.2797528306
0.2797528451
0.2797528369
0.2797528186
0.2797528863
0.2797529949
0.279753169
0.2797544885
0.2797545115
0.2797545225
0.2797544991
0.2797545179
0.279754535
0.2797545346
0.2797545228
0.2797545311
0.2797545323
0.279754549
0.2797545497
0.2797546118
0.2797548128
0.2797542509
0.2797542459
0.2797542261
0.2797542145
0.2797542545
0.2797542315
0.2797542183
0.2797542403
0.2797542846
0.2797543053
0.2797543682
0.279754415
0.2797546308
0.279755115
0.279754346
0.2797543207
0.2797543029
0.2797543059
0.2797542741
0.279754288
0.2797542669
0.2797542829
0.2797542641
0.2797542907
0.2797542897
0.2797544661
0.2797549209
0.279756176
0.2797587861
0.2797539734
0.2797539912
0.2797539967
0.2797539702
0.2797539627
0.2797539752
0.2797539884
0.2797539793
0.2797539411
0.2797540074
0.2797540612
0.2797544069
0.279755508
0.2797586368
0.279765503
0.2797556865
0.2797556539
0.2797556372
0.2797556291
0.2797555744
0.2797555835
0.2797555776
0.2797555593
0.2797556145
0.2797555948
0.2797557064
0.279756162
0.2797578947
0.2797637304
0.2797781903
0.2797543008
0.2797542801
0.2797542701
0.2797543021
0.2797543071
0.2797542917
0.2797542839
0.2797542955
0.2797542851
0.2797542966
0.2797543769
0.2797546616
0.2797557237
0.279758804
0.2797657027
0.2797546792
0.2797547098
0.2797547182
0.2797547231
0.2797547263
0.2797547214
0.2797547246
0.2797548019
0.279754786
0.2797547987
0.2797548643
0.2797549862
0.2797554761
0.2797567611
0.2797593554
0.2797527248
0.279752732
0.2797527483
0.2797527158
0.2797527064
0.2797526802
0.279752714
0.2797527102
0.2797527331
0.2797527203
0.2797527465
0.2797527617
0.2797529637
0.2797534245
0.279754324
0.2797553328
0.2797553453
0.2797553446
0.2797553251
0.2797553243
0.2797553518
0.2797553789
0.2797553594
0.2797553785
0.2797553458
0.2797553412
0.2797553579
0.2797554499
0.2797556352
0.279756017
0.2797542848
0.2797543058
0.2797542985
0.2797543055
0.2797542781
0.2797542751
0.2797543103
0.2797543451
0.2797543562
0.2797543594
0.2797543535
0.2797544084
0.2797545493
0.2797549077
0.2797533443
0.2797533356
0.2797533168
0.2797533056
0.2797533055
0.2797532992
0.279753302
0.2797533176
0.2797533249
0.279753354
0.2797533826
0.2797534891
0.2797538363
0.2797547971
0.2797546024
0.2797545883
0.279754584
0.279754609
0.2797546111
0.2797546618
0.2797546802
0.2797546717
0.2797546537
0.2797546567
0.2797547205
0.2797550459
0.2797560908
0.2797592173
0.2797536008
0.2797535587
0.2797535364
0.279753553
0.2797535551
0.2797535599
0.2797535506
0.2797535326
0.2797535769
0.2797536092
0.2797537911
0.2797544929
0.2797573637
0.2797674089
0.2797929725
0.2797538762
0.2797538525
0.2797538485
0.2797538527
0.2797539076
0.2797538965
0.2797539314
0.2797539105
0.279753912
0.2797539769
0.2797542209
0.2797554165
0.2797610848
0.2797858164
0.2798723733
0.2797553129
0.2797553284
0.2797553214
0.2797553176
0.2797553458
0.2797553298
0.2797553519
0.2797553331
0.2797553205
0.2797553545
0.2797555001
0.279756306
0.2797591774
0.2797691928
0.2797947941
0.2797537644
0.2797537783
0.2797537614
0.2797537513
0.2797537255
0.2797537222
0.2797537185
0.2797537292
0.2797537392
0.2797537612
0.2797538605
0.2797541915
0.279755227
0.2797583641
0.2797652642
0.2797546343
0.2797546038
0.2797545882
0.2797545417
0.2797545955
0.279754598
0.2797545979
0.2797546233
0.2797546153
0.279754671
0.2797546422
0.2797547899
0.2797551025
0.2797560552
0.2797579792
0.2797548227
0.2797547986
0.2797548089
0.2797548201
0.27975479
0.2797547624
0.2797547528
0.2797547292
0.2797547354
0.2797547914
0.2797548098
0.2797548681
0.2797550251
0.279755386
0.2797560603
0.2797542968
0.27975429
0.2797542769
0.2797542519
0.2797542154
0.2797542702
0.2797542991
0.2797543086
0.2797542873
0.2797543051
0.2797543435
0.2797543935
0.2797545747
0.2797550313
0.2797548678
0.2797549038
0.279754918
0.2797548959
0.2797549234
0.2797549228
0.279754953
0.2797549527
0.2797549873
0.2797549967
0.2797550565
0.2797552376
0.279755738
0.2797571236
0.2797548398
0.2797548358
0.279754769
0.2797547687
0.279754763
0.2797547355
0.2797547711
0.2797547738
0.2797547873
0.2797548207
0.2797549176
0.2797553831
0.2797571785
0.2797629876
0.2797535886
0.2797535897
0.2797535489
0.2797535925
0.2797536159
0.2797536236
0.2797535929
0.2797535973
0.2797535918
0.2797536388
0.2797538883
0.2797550885
0.279760784
0.2797855148
0.2797538603
0.2797538471
0.2797538718
0.2797538686
0.2797539241
0.2797539174
0.2797539281
0.2797539192
0.2797539366
0.2797539838
0.2797543802
0.2797567356
0.2797709833
0.2798635801
0.2816948529
0.2797549095
0.2797548806
0.2797548708
0.2797548288
0.2797548595
0.2797548617
0.2797548607
0.2797548461
0.2797548263
0.2797548911
0.2797551606
0.2797563506
0.2797620199
0.2797866682
0.2798732642
0.2797537227
0.2797537107
0.2797536938
0.2797537263
0.2797537259
0.2797537638
0.2797537394
0.2797537694
0.2797538108
0.2797538753
0.2797540131
0.2797544701
0.2797562171
0.2797619576
0.2797764095
0.2797544202
0.2797544171
0.2797544156
0.2797544211
0.2797544123
0.2797544132
0.2797543637
0.2797543341
0.2797543428
0.2797543413
0.2797543756
0.2797545608
0.279755032
0.2797564999
0.2797595028
0.2797528773
0.2797528939
0.2797529234
0.2797529112
0.2797529558
0.2797529502
0.279752915
0.2797528854
0.279752907
0.2797529131
0.2797529073
0.2797529407
0.279753119
0.2797535679
0.2797544744
0.2797537181
0.2797536991
0.2797537281
0.2797537284
0.279753731
0.27975374
0.2797536874
0.2797537146
0.2797537375
0.2797537336
0.2797537573
0.2797537864
0.2797539391
0.27975427
0.2797549716
0.2797549601
0.279754986
0.2797549904
0.2797549689
0.2797549483
0.2797549604
0.2797549642
0.2797549965
0.2797550367
0.2797550297
0.2797551249
0.2797554721
0.2797563668
0.2797537181
0.2797537201
0.2797537487
0.2797537519
0.2797537175
0.2797537365
0.2797537469
0.2797537132
0.2797537093
0.2797537503
0.2797537863
0.2797540876
0.2797551753
0.2797583247
0.2797552267
0.279755243
0.2797552578
0.2797552704
0.2797552957
0.2797553183
0.2797552817
0.2797552689
0.2797553022
0.2797553285
0.2797555299
0.2797562806
0.279759115
0.2797691219
0.2797537173
0.2797537029
0.2797537355
0.2797536972
0.2797536948
0.2797537093
0.2797537638
0.2797537703
0.2797537311
0.2797537803
0.2797540516
0.2797552768
0.2797609199
0.2797856259
0.2797534779
0.2797534734
0.2797534796
0.2797534524
0.2797534112
0.2797534496
0.2797534326
0.2797533999
0.2797534104
0.279753472
0.279753637
0.2797544078
0.279757313
0.2797673384
0.2797557029
0.279755683
0.2797556947
0.2797556979
0.2797557344
0.279755743
0.2797557193
0.279755714
0.27975571
0.2797557649
0.279755844
0.2797561497
0.2797571867
0.279760351
0.2797672347
0.2797537389
0.2797537313
0.2797537353
0.2797537443
0.2797537293
0.2797537274
0.2797537373
0.2797537628
0.2797537325
0.2797537568
0.279753784
0.2797538983
0.2797542923
0.2797551979
0.279757097
0.2797536401
0.2797536448
0.2797536663
0.2797536674
0.2797536395
0.2797536345
0.2797536198
0.279753619
0.2797536471
0.2797536529
0.2797537023
0.2797537376
0.2797538471
0.279754196
0.2797548431
0.2797539392
0.2797539266
0.2797538927
0.2797539355
0.2797539592
0.2797539543
0.2797539373
0.2797539607
0.2797539422
0.2797539486
0.279753954
0.2797539929
0.2797540873
0.279754239
0.2797534871
0.279753469
0.2797534643
0.2797534406
0.2797534612
0.2797534727
0.2797534857
0.2797535016
0.279753477
0.2797534794
0.2797535162
0.2797536221
0.2797538556
0.2797543124
0.2797543518
0.2797543947
0.2797543999
0.2797544329
0.2797544505
0.2797544414
0.2797544154
0.2797544234
0.279754427
0.279754407
0.2797544527
0.2797546154
0.2797550456
0.2797562921
0.2797533271
0.2797533549
0.2797533503
0.279753329
0.2797533143
0.2797533637
0.27975337
0.2797533845
0.2797534187
0.2797533894
0.2797534847
0.2797538164
0.2797548902
0.2797580599
0.2797553111
0.2797552771
0.2797552534
0.2797552623
0.2797552778
0.2797553467
0.2797553289
0.2797553354
0.2797553695
0.2797554019
0.2797555416
0.2797560287
0.2797577388
0.279763523
0.2797544863
0.2797544928
0.279754493
0.2797544678
0.2797544335
0.2797544529
0.2797544186
0.279754465
0.2797544842
0.2797545037
0.2797545284
0.2797548075
0.2797559145
0.2797590654
0.2797534501
0.2797534862
0.2797534797
0.2797534641
0.2797534832
0.279753472
0.2797534682
0.2797534484
0.2797534361
0.27975341
0.2797534688
0.2797536648
0.2797541611
0.2797554071
0.2797549972
0.2797549615
0.2797549559
0.2797549772
0.2797549848
0.2797549711
0.2797550232
0.2797549951
0.2797549999
0.2797549929
0.2797550221
0.2797550989
0.2797552834
0.2797557418
0.2797566308
0.2797544602
0.2797544515
0.2797544294
0.2797544365
0.2797544137
0.2797544119
0.2797544317
0.279754459
0.2797544547
0.2797544684
0.2797544918
0.2797545415
0.279754617
0.2797548366
0.2797551987
0.2797548449
0.2797547972
0.2797548067
0.2797548036
0.2797547678
0.2797547678
0.2797547764
0.2797548129
0.2797548428
0.2797548509
0.2797548355
0.2797548624
0.2797548993
0.2797550113
0.279755305
0.2797552965
0.2797552857
0.2797552668
0.2797553022
0.2797553283
0.2797552964
0.2797553208
0.2797553344
0.2797553132
0.2797553273
0.2797553562
0.279755416
0.2797555918
0.2797545661
0.2797545826
0.2797545336
0.2797545096
0.2797545182
0.2797545202
0.2797545196
0.2797545154
0.2797544916
0.2797545371
0.2797545156
0.2797545473
0.2797547125
0.2797551469
0.2797543712
0.2797543958
0.2797544247
0.2797543827
0.2797543917
0.279754386
0.2797543397
0.2797543396
0.2797543382
0.279754379
0.279754441
0.2797545894
0.2797549587
0.2797559561
0.2797541079
0.279754107
0.2797541244
0.279754141
0.2797541337
0.2797541562
0.2797541382
0.2797540943
0.2797541261
0.2797541417
0.2797541888
0.279754317
0.2797548138
0.2797562504
0.27975496
0.2797549561
0.2797549399
0.2797549551
0.2797549475
0.279754941
0.2797549682
0.2797549511
0.2797549433
0.2797549536
0.2797549947
0.279755088
0.2797554656
0.279756369
0.2797544858
0.2797544881
0.2797544564
0.2797544644
0.2797544621
0.2797544774
0.2797544794
0.2797544267
0.2797544401
0.2797544831
0.2797545077
0.2797545379
0.2797547455
0.2797552205
0.279754974
0.2797549681
0.2797549116
0.2797548939
0.2797549291
0.2797549146
0.2797548781
0.2797549031
0.2797549218
0.2797549026
0.279754931
0.2797549145
0.2797550056
0.2797551997
0.2797537455
0.2797537277
0.2797537462
0.2797537636
0.2797537444
0.2797537636
0.2797537789
0.2797538187
0.2797538252
0.2797538332
0.2797538083
0.2797538285
0.2797538714
0.2797539687
0.2797541622
0.2797539152
0.2797539228
0.2797539322
0.2797538891
0.2797538651
0.2797538917
0.2797538928
0.2797538924
0.2797538625
0.2797538853
0.2797538613
0.2797538753
0.2797539132
0.2797539675
0.2797542165
0.2797541879
0.2797541959
0.2797542417
0.2797542298
0.2797542421
0.2797542338
0.2797542084
0.27975423
0.2797542279
0.2797542431
0.2797542372
0.2797542919
0.2797544027
0.2797538182
0.2797538374
0.2797538525
0.2797538456
0.279753889
0.2797538487
0.2797538562
0.2797538417
0.279753818
0.2797538178
0.2797538021
0.279753848
0.2797539324
0.279754162
0.2797560838
0.2797560802
0.2797560559
0.2797560697
0.279756077
0.2797560335
0.2797560501
0.2797560519
0.2797560199
0.2797560563
0.2797560494
0.2797561124
0.2797562256
0.2797566126
0.2797556689
0.2797556901
0.2797557462
0.2797557427
0.2797557519
0.2797557538
0.2797557331
0.2797557426
0.2797557345
0.2797557187
0.279755751
0.2797558483
0.2797560144
0.2797565032
0.2797549648
0.2797549534
0.2797549465
0.2797549473
0.2797549425
0.2797549902
0.2797549815
0.2797549811
0.2797549839
0.2797550098
0.2797550071
0.2797550651
0.2797552004
0.2797554992
0.279753985
0.2797539787
0.279753957
0.2797539557
0.279753947
0.2797539673
0.2797539642
0.2797539744
0.2797540037
0.2797540074
0.2797540274
0.2797540847
0.2797541915
0.2797544017
0.2797547514
0.2797547562
0.2797547958
0.2797547692
0.279754768
0.2797547592
0.2797547367
0.2797547474
0.2797547344
0.2797547487
0.2797547714
0.2797547785
0.2797548224
0.2797548895
0.2797543022
0.2797542862
0.2797542823
0.2797542947
0.2797542903
0.2797543199
0.2797543257
0.2797543438
0.2797543479
0.2797543175
0.2797542906
0.2797543215
0.2797543739
0.2797544297
)
;

boundaryField
{
    top
    {
        type            calculated;
        value           nonuniform List<scalar> 
134
(
0.2797535894
0.2797527811
0.2797553328
0.2797548227
0.2797528773
0.2797536401
0.2797544602
0.2797537455
0.2797543022
0.2797536124
0.2797527713
0.2797553453
0.2797547986
0.2797528939
0.2797536448
0.2797544515
0.2797537277
0.2797542862
0.2797535913
0.2797528085
0.2797553446
0.2797548089
0.2797529234
0.2797536663
0.2797544294
0.2797537462
0.2797542823
0.2797535732
0.2797528364
0.2797553251
0.2797548201
0.2797529112
0.2797536674
0.2797544365
0.2797537636
0.2797542947
0.2797535824
0.2797528324
0.2797553243
0.27975479
0.2797529558
0.2797536395
0.2797544137
0.2797537444
0.2797542903
0.279753577
0.2797528543
0.2797553518
0.2797547624
0.2797529502
0.2797536345
0.2797544119
0.2797537636
0.2797543199
0.2797535801
0.2797528735
0.2797553789
0.2797547528
0.279752915
0.2797536198
0.2797544317
0.2797537789
0.2797543257
0.2797535772
0.2797528758
0.2797553594
0.2797547292
0.2797528854
0.279753619
0.279754459
0.2797538187
0.2797543438
0.279753578
0.2797528306
0.2797553785
0.2797547354
0.279752907
0.2797536471
0.2797544547
0.2797538252
0.2797543479
0.2797535847
0.2797528451
0.2797553458
0.2797547914
0.2797529131
0.2797536529
0.2797544684
0.2797538332
0.2797543175
0.2797535845
0.2797528369
0.2797553412
0.2797548098
0.2797529073
0.2797537023
0.2797544918
0.2797538083
0.2797542906
0.2797536041
0.2797528186
0.2797553579
0.2797548681
0.2797529407
0.2797537376
0.2797545415
0.2797538285
0.2797543215
0.2797536617
0.2797528863
0.2797554499
0.2797550251
0.279753119
0.2797538471
0.279754617
0.2797538714
0.2797543739
0.279753678
0.2797529949
0.2797556352
0.279755386
0.2797535679
0.279754196
0.2797548366
0.2797539687
0.2797544297
0.2797538032
0.279753169
0.279756017
0.2797560603
0.2797544744
0.2797548431
0.2797551987
0.2797541622
)
;
    }
    bottom
    {
        type            calculated;
        value           nonuniform List<scalar> 
127
(
0.2797544449
0.2797545455
0.2797544885
0.2797542848
0.2797542968
0.2797537181
0.2797539392
0.2797548449
0.2797539152
0.2797544243
0.2797545213
0.2797545115
0.2797543058
0.27975429
0.2797536991
0.2797539266
0.2797547972
0.2797539228
0.279754414
0.2797544969
0.2797545225
0.2797542985
0.2797542769
0.2797537281
0.2797538927
0.2797548067
0.2797539322
0.2797543851
0.2797545359
0.2797544991
0.2797543055
0.2797542519
0.2797537284
0.2797539355
0.2797548036
0.2797538891
0.2797543995
0.2797545311
0.2797545179
0.2797542781
0.2797542154
0.279753731
0.2797539592
0.2797547678
0.2797538651
0.2797543586
0.2797545013
0.279754535
0.2797542751
0.2797542702
0.27975374
0.2797539543
0.2797547678
0.2797538917
0.2797543487
0.2797545068
0.2797545346
0.2797543103
0.2797542991
0.2797536874
0.2797539373
0.2797547764
0.2797538928
0.279754349
0.2797544919
0.2797545228
0.2797543451
0.2797543086
0.2797537146
0.2797539607
0.2797548129
0.2797538924
0.2797543801
0.2797544658
0.2797545311
0.2797543562
0.2797542873
0.2797537375
0.2797539422
0.2797548428
0.2797538625
0.2797543859
0.2797545152
0.2797545323
0.2797543594
0.2797543051
0.2797537336
0.2797539486
0.2797548509
0.2797538853
0.279754406
0.2797545035
0.279754549
0.2797543535
0.2797543435
0.2797537573
0.279753954
0.2797548355
0.2797538613
0.2797544004
0.2797545212
0.2797545497
0.2797544084
0.2797543935
0.2797537864
0.2797539929
0.2797548624
0.2797538753
0.279754417
0.2797545712
0.2797546118
0.2797545493
0.2797545747
0.2797539391
0.2797540873
0.2797548993
0.2797539132
0.2797544664
0.2797546794
0.2797548128
0.2797549077
0.2797550313
0.27975427
0.279754239
0.2797550113
0.2797539675
0.2797545711
)
;
    }
    side-walls
    {
        type            calculated;
        value           nonuniform List<scalar> 
261
(
0.2797544449
0.2797542357
0.2797548809
0.2797545738
0.2797533917
0.2797536368
0.2797547384
0.2797542368
0.2797535894
0.2797544243
0.2797542352
0.2797548845
0.2797545539
0.2797534027
0.279753632
0.27975475
0.2797542305
0.2797536124
0.279754414
0.279754205
0.2797549317
0.2797545469
0.2797534062
0.2797536471
0.2797547281
0.2797542674
0.2797535913
0.2797543851
0.2797542262
0.2797548833
0.2797545955
0.2797534383
0.2797536462
0.2797547318
0.2797542563
0.2797535732
0.2797543995
0.279754181
0.279754878
0.2797546306
0.2797534112
0.2797536249
0.2797547665
0.2797542375
0.2797535824
0.2797543586
0.2797542037
0.2797548832
0.2797546193
0.2797533995
0.2797536318
0.2797547211
0.2797542448
0.279753577
0.2797543487
0.2797542359
0.2797548783
0.2797546533
0.2797533959
0.2797536594
0.2797547554
0.2797542643
0.2797535801
0.279754349
0.2797542577
0.2797548766
0.2797546887
0.2797533652
0.2797536003
0.2797547294
0.279754281
0.2797535772
0.2797543801
0.2797542894
0.2797548837
0.2797547123
0.2797533425
0.2797536071
0.2797547183
0.2797542755
0.279753578
0.2797543859
0.2797542663
0.2797548895
0.2797547089
0.2797533907
0.2797535821
0.2797547341
0.279754283
0.2797535847
0.279754406
0.2797542766
0.2797549101
0.2797547333
0.2797534267
0.2797535813
0.2797547587
0.2797542984
0.2797535845
0.2797544004
0.2797543082
0.2797549471
0.2797547505
0.2797534975
0.2797536481
0.2797547973
0.2797542805
0.2797536041
0.279754417
0.2797542957
0.2797550409
0.2797549055
0.2797536765
0.2797537524
0.2797549079
0.2797543237
0.2797536617
0.2797544664
0.2797543851
0.2797552287
0.2797552903
0.2797541397
0.2797540749
0.2797550982
0.2797544429
0.279753678
0.2797545711
0.2797545748
0.2797556228
0.2797559379
0.2797550623
0.2797547385
0.2797554761
0.2797546464
0.2797538032
0.2797539152
0.2797542165
0.2797538182
0.2797560838
0.2797556689
0.2797549648
0.279753985
0.2797547514
0.2797543022
0.2797539228
0.2797541879
0.2797538374
0.2797560802
0.2797556901
0.2797549534
0.2797539787
0.2797547562
0.2797542862
0.2797539322
0.2797541959
0.2797538525
0.2797560559
0.2797557462
0.2797549465
0.279753957
0.2797547958
0.2797542823
0.2797538891
0.2797542417
0.2797538456
0.2797560697
0.2797557427
0.2797549473
0.2797539557
0.2797547692
0.2797542947
0.2797538651
0.2797542298
0.279753889
0.279756077
0.2797557519
0.2797549425
0.279753947
0.279754768
0.2797542903
0.2797538917
0.2797542421
0.2797538487
0.2797560335
0.2797557538
0.2797549902
0.2797539673
0.2797547592
0.2797543199
0.2797538928
0.2797542338
0.2797538562
0.2797560501
0.2797557331
0.2797549815
0.2797539642
0.2797547367
0.2797543257
0.2797538924
0.2797542084
0.2797538417
0.2797560519
0.2797557426
0.2797549811
0.2797539744
0.2797547474
0.2797543438
0.2797538625
0.27975423
0.279753818
0.2797560199
0.2797557345
0.2797549839
0.2797540037
0.2797547344
0.2797543479
0.2797538853
0.2797542279
0.2797538178
0.2797560563
0.2797557187
0.2797550098
0.2797540074
0.2797547487
0.2797543175
0.2797538613
0.2797542431
0.2797538021
0.2797560494
0.279755751
0.2797550071
0.2797540274
0.2797547714
0.2797542906
0.2797538753
0.2797542372
0.279753848
0.2797561124
0.2797558483
0.2797550651
0.2797540847
0.2797547785
0.2797543215
0.2797539132
0.2797542919
0.2797539324
0.2797562256
0.2797560144
0.2797552004
0.2797541915
0.2797548224
0.2797543739
0.2797539675
0.2797544027
0.279754162
0.2797566126
0.2797565032
0.2797554992
0.2797544017
0.2797548895
0.2797544297
)
;
    }
    inlet
    {
        type            calculated;
        value           nonuniform List<scalar> 
81
(
0.2797544449
0.2797542357
0.2797548809
0.2797545738
0.2797533917
0.2797536368
0.2797547384
0.2797542368
0.2797535894
0.2797545455
0.2797537556
0.2797535903
0.2797548852
0.2797545452
0.2797552108
0.279753049
0.2797550677
0.2797527811
0.2797544885
0.2797542509
0.279754346
0.2797539734
0.2797556865
0.2797543008
0.2797546792
0.2797527248
0.2797553328
0.2797542848
0.2797533443
0.2797546024
0.2797536008
0.2797538762
0.2797553129
0.2797537644
0.2797546343
0.2797548227
0.2797542968
0.2797548678
0.2797548398
0.2797535886
0.2797538603
0.2797549095
0.2797537227
0.2797544202
0.2797528773
0.2797537181
0.2797549716
0.2797537181
0.2797552267
0.2797537173
0.2797534779
0.2797557029
0.2797537389
0.2797536401
0.2797539392
0.2797534871
0.2797543518
0.2797533271
0.2797553111
0.2797544863
0.2797534501
0.2797549972
0.2797544602
0.2797548449
0.279755305
0.2797545661
0.2797543712
0.2797541079
0.27975496
0.2797544858
0.279754974
0.2797537455
0.2797539152
0.2797542165
0.2797538182
0.2797560838
0.2797556689
0.2797549648
0.279753985
0.2797547514
0.2797543022
)
;
    }
    outlet
    {
        type            calculated;
        value           nonuniform 0();
    }
    procBoundary0to1
    {
        type            processor;
        value           nonuniform List<scalar> 
97
(
0.2797547758
0.2797548563
0.279754896
0.2797562443
0.2797570428
0.2797564392
0.279755851
0.2797561125
0.2797549968
0.2797540041
0.2797548563
0.2797548563
0.2797550733
0.2797560158
0.2797566154
0.2797610014
0.2797634823
0.2797612009
0.2797561021
0.2797564147
0.2797535185
0.2797552144
0.2797560158
0.2797560158
0.2797622356
0.279766103
0.2797729621
0.2797890312
0.2797731201
0.2797628194
0.2797557091
0.2797566951
0.2797555952
0.2797567321
0.279766103
0.279766103
0.2798103213
0.279872132
0.2798856697
0.27981207
0.2797727263
0.2797605934
0.2797571064
0.2797559379
0.2797601777
0.2797773993
0.279872132
0.279872132
0.2813822113
0.2798722572
0.2798865606
0.2797929268
0.2797871967
0.2797631404
0.2797558095
0.2797549901
0.2797582197
0.2797652312
0.2797946824
0.2798722572
0.2797929268
0.2797929268
0.2797746842
0.2797580004
0.2797597168
0.2797559141
0.2797546015
0.2797552217
0.2797588674
0.2797649445
0.2797779613
0.2797659112
0.2797580004
0.2797580004
0.2797580553
0.2797555926
0.2797558086
0.2797552156
0.2797559672
0.2797560066
0.2797578988
0.2797592763
0.2797583466
0.2797561384
0.2797555926
0.2797555926
0.2797545402
0.2797545612
0.2797540679
0.2797546229
0.2797544928
0.2797572397
0.2797574035
0.2797562232
0.279754796
0.2797550657
0.2797545612
)
;
    }
}


// ************************************************************************* //
