/*--------------------------------*- C++ -*----------------------------------*\
| =========                 |                                                 |
| \\      /  F ield         | OpenFOAM: The Open Source CFD Toolbox           |
|  \\    /   O peration     | Version:  4.x                                   |
|   \\  /    A nd           | Web:      www.OpenFOAM.org                      |
|    \\/     M anipulation  |                                                 |
\*---------------------------------------------------------------------------*/
FoamFile
{
    version     2.0;
    format      ascii;
    class       volScalarField;
    location    "2000";
    object      CO;
}
// * * * * * * * * * * * * * * * * * * * * * * * * * * * * * * * * * * * * * //

dimensions      [0 0 0 0 0 0 0];

internalField   nonuniform List<scalar> 
1175
(
0.3315827254
0.3315827254
0.3315827254
0.3315827254
0.3315827253
0.3315827251
0.3315827245
0.3315827225
0.3315827162
0.3315826973
0.3315826436
0.3315825014
0.3315821547
0.3315813904
0.3315798886
0.3315827254
0.3315827254
0.3315827254
0.3315827254
0.3315827253
0.3315827251
0.3315827242
0.3315827214
0.3315827123
0.3315826838
0.3315825995
0.3315823671
0.3315817814
0.3315804614
0.3315778678
0.3315827254
0.3315827254
0.3315827254
0.3315827254
0.3315827253
0.3315827249
0.3315827237
0.3315827195
0.3315827051
0.331582658
0.331582512
0.3315820905
0.3315809825
0.3315784128
0.3315733509
0.3315827254
0.3315827254
0.3315827254
0.3315827253
0.3315827252
0.3315827248
0.3315827232
0.3315827174
0.331582697
0.3315826276
0.3315824034
0.331581727
0.3315798711
0.3315754174
0.3315665807
0.3315827254
0.3315827254
0.3315827254
0.3315827253
0.3315827252
0.3315827247
0.331582723
0.3315827165
0.331582693
0.3315826118
0.3315823429
0.331581508
0.3315791417
0.3315732837
0.3315615117
0.3315827254
0.3315827254
0.3315827254
0.3315827253
0.3315827252
0.3315827248
0.3315827232
0.3315827174
0.331582697
0.3315826276
0.3315824034
0.331581727
0.3315798711
0.3315754175
0.3315665809
0.3315827254
0.3315827254
0.3315827254
0.3315827254
0.3315827253
0.3315827249
0.3315827237
0.3315827195
0.3315827051
0.331582658
0.331582512
0.3315820905
0.3315809825
0.3315784129
0.331573351
0.3315827254
0.3315827254
0.3315827254
0.3315827254
0.3315827253
0.3315827251
0.3315827242
0.3315827214
0.3315827123
0.3315826838
0.3315825995
0.3315823672
0.3315817814
0.3315804615
0.331577868
0.3315827254
0.3315827254
0.3315827254
0.3315827254
0.3315827253
0.3315827251
0.3315827245
0.3315827225
0.3315827162
0.3315826973
0.3315826436
0.3315825014
0.3315821548
0.3315813905
0.3315798888
0.3315827254
0.3315827254
0.3315827254
0.3315827254
0.3315827253
0.3315827251
0.3315827242
0.3315827214
0.3315827123
0.3315826838
0.3315825995
0.3315823671
0.3315817813
0.3315804613
0.3315827254
0.3315827254
0.3315827254
0.3315827254
0.3315827253
0.3315827249
0.3315827238
0.3315827197
0.3315827057
0.3315826594
0.3315825148
0.3315820937
0.3315809774
0.3315783723
0.3315732362
0.3315827254
0.3315827254
0.3315827254
0.3315827253
0.3315827252
0.3315827248
0.331582723
0.3315827164
0.3315826927
0.3315826097
0.3315823333
0.3315814747
0.331579054
0.3315731266
0.331561318
0.3315827254
0.3315827254
0.3315827254
0.3315827253
0.3315827252
0.3315827246
0.3315827221
0.3315827127
0.3315826771
0.3315825457
0.3315820822
0.3315805453
0.3315759068
0.3315638262
0.3315391585
0.3315827254
0.3315827254
0.3315827254
0.3315827253
0.3315827252
0.3315827245
0.3315827217
0.3315827109
0.3315826687
0.3315825086
0.3315819212
0.3315798763
0.3315733229
0.3315550745
0.3315160763
0.3315827254
0.3315827254
0.3315827254
0.3315827253
0.3315827252
0.3315827246
0.3315827221
0.3315827127
0.3315826771
0.3315825457
0.3315820822
0.3315805454
0.3315759069
0.3315638264
0.3315391591
0.3315827254
0.3315827254
0.3315827254
0.3315827253
0.3315827252
0.3315827248
0.331582723
0.3315827164
0.3315826927
0.3315826097
0.3315823333
0.3315814747
0.3315790541
0.3315731268
0.3315613186
0.3315827254
0.3315827254
0.3315827254
0.3315827254
0.3315827253
0.3315827249
0.3315827238
0.3315827197
0.3315827057
0.3315826594
0.3315825148
0.3315820937
0.3315809775
0.3315783725
0.3315732368
0.3315827254
0.3315827254
0.3315827254
0.3315827254
0.3315827253
0.3315827251
0.3315827242
0.3315827214
0.3315827123
0.3315826838
0.3315825995
0.3315823672
0.3315817814
0.3315804615
0.331577868
0.3315827254
0.3315827254
0.3315827254
0.3315827254
0.3315827253
0.3315827249
0.3315827237
0.3315827195
0.3315827051
0.331582658
0.331582512
0.3315820904
0.3315809824
0.3315784126
0.3315827254
0.3315827254
0.3315827254
0.3315827253
0.3315827252
0.3315827248
0.331582723
0.3315827164
0.3315826927
0.3315826097
0.3315823333
0.3315814747
0.3315790539
0.3315731262
0.3315827254
0.3315827254
0.3315827254
0.3315827253
0.3315827252
0.3315827244
0.3315827216
0.3315827104
0.3315826671
0.3315825041
0.3315819163
0.3315799271
0.3315738132
0.3315576699
0.3315245679
0.3315827254
0.3315827254
0.3315827254
0.3315827253
0.3315827251
0.3315827241
0.33158272
0.3315827031
0.3315826338
0.3315823546
0.3315812656
0.3315772324
0.3315635204
0.3315233845
0.3314355564
0.3315827254
0.3315827254
0.3315827254
0.3315827253
0.331582725
0.3315827239
0.3315827192
0.3315826992
0.3315826141
0.3315822562
0.3315807766
0.3315748573
0.3315525937
0.3314786125
0.3312948311
0.3315827254
0.3315827254
0.3315827254
0.3315827253
0.3315827251
0.3315827241
0.33158272
0.3315827031
0.3315826338
0.3315823546
0.3315812657
0.3315772325
0.3315635207
0.3315233856
0.3314355596
0.3315827254
0.3315827254
0.3315827254
0.3315827253
0.3315827252
0.3315827244
0.3315827216
0.3315827104
0.3315826671
0.3315825041
0.3315819163
0.3315799272
0.3315738135
0.3315576709
0.331524571
0.3315827254
0.3315827254
0.3315827254
0.3315827253
0.3315827252
0.3315827248
0.331582723
0.3315827164
0.3315826927
0.3315826097
0.3315823333
0.3315814747
0.3315790541
0.3315731268
0.3315613186
0.3315827254
0.3315827254
0.3315827254
0.3315827254
0.3315827253
0.3315827249
0.3315827237
0.3315827195
0.3315827051
0.331582658
0.331582512
0.3315820905
0.3315809825
0.3315784128
0.331573351
0.3315827254
0.3315827254
0.3315827254
0.3315827253
0.3315827252
0.3315827248
0.3315827232
0.3315827174
0.331582697
0.3315826276
0.3315824034
0.331581727
0.331579871
0.331575417
0.3315827254
0.3315827254
0.3315827254
0.3315827253
0.3315827252
0.3315827246
0.3315827221
0.3315827127
0.3315826771
0.3315825457
0.3315820822
0.3315805453
0.3315759066
0.3315638252
0.3315827254
0.3315827254
0.3315827254
0.3315827253
0.3315827251
0.3315827241
0.33158272
0.3315827031
0.3315826338
0.3315823546
0.3315812656
0.3315772323
0.3315635198
0.3315233818
0.3315827254
0.3315827254
0.3315827254
0.3315827253
0.331582725
0.3315827236
0.3315827175
0.3315826908
0.331582573
0.3315820563
0.3315798228
0.331570465
0.331533634
0.3314061637
0.3310810734
0.3315827254
0.3315827254
0.3315827254
0.3315827253
0.3315827249
0.3315827233
0.3315827162
0.3315826837
0.3315825334
0.331581832
0.3315785292
0.3315629534
0.3314907328
0.3311769833
0.3300902788
0.3315827254
0.3315827254
0.3315827254
0.3315827253
0.331582725
0.3315827236
0.3315827175
0.3315826908
0.331582573
0.3315820563
0.3315798228
0.3315704652
0.331533635
0.3314061686
0.3310810938
0.3315827254
0.3315827254
0.3315827254
0.3315827253
0.3315827251
0.3315827241
0.33158272
0.3315827031
0.3315826338
0.3315823546
0.3315812656
0.3315772325
0.3315635206
0.3315233853
0.3314355593
0.3315827254
0.3315827254
0.3315827254
0.3315827253
0.3315827252
0.3315827246
0.3315827221
0.3315827127
0.3315826771
0.3315825457
0.3315820822
0.3315805453
0.3315759069
0.3315638263
0.3315391589
0.3315827254
0.3315827254
0.3315827254
0.3315827253
0.3315827252
0.3315827248
0.3315827232
0.3315827174
0.331582697
0.3315826276
0.3315824034
0.331581727
0.3315798711
0.3315754174
0.3315665808
0.3315827254
0.3315827254
0.3315827254
0.3315827253
0.3315827252
0.3315827247
0.331582723
0.3315827165
0.331582693
0.3315826118
0.3315823429
0.3315815079
0.3315791415
0.3315732831
0.3315827254
0.3315827254
0.3315827254
0.3315827253
0.3315827252
0.3315827245
0.3315827217
0.3315827109
0.3315826687
0.3315825086
0.3315819212
0.3315798762
0.3315733224
0.3315550729
0.3315827254
0.3315827254
0.3315827254
0.3315827253
0.331582725
0.3315827239
0.3315827192
0.3315826992
0.3315826141
0.3315822562
0.3315807766
0.331574857
0.3315525923
0.3314786064
0.3315827254
0.3315827254
0.3315827254
0.3315827253
0.3315827249
0.3315827233
0.3315827162
0.3315826837
0.3315825334
0.331581832
0.3315785292
0.3315629529
0.3314907295
0.3311769608
0.3315827254
0.3315827254
0.3315827254
0.3315827253
0.3315827249
0.331582723
0.3315827145
0.3315826741
0.3315824764
0.3315814731
0.3315761411
0.3315461383
0.3313655992
0.3301961885
0.3219902091
0.3315827254
0.3315827254
0.3315827254
0.3315827253
0.3315827249
0.3315827233
0.3315827162
0.3315826837
0.3315825334
0.331581832
0.3315785292
0.3315629532
0.3314907318
0.3311769797
0.330090272
0.3315827254
0.3315827254
0.3315827254
0.3315827253
0.331582725
0.3315827239
0.3315827192
0.3315826992
0.3315826141
0.3315822562
0.3315807766
0.3315748571
0.3315525933
0.3314786114
0.3312948294
0.3315827254
0.3315827254
0.3315827254
0.3315827253
0.3315827252
0.3315827245
0.3315827217
0.3315827109
0.3315826687
0.3315825086
0.3315819212
0.3315798763
0.3315733228
0.3315550742
0.331516076
0.3315827254
0.3315827254
0.3315827254
0.3315827253
0.3315827252
0.3315827247
0.331582723
0.3315827165
0.331582693
0.3315826118
0.3315823429
0.3315815079
0.3315791417
0.3315732836
0.3315615116
0.3315827254
0.3315827254
0.3315827254
0.3315827253
0.3315827252
0.3315827248
0.3315827232
0.3315827174
0.331582697
0.3315826276
0.3315824034
0.331581727
0.331579871
0.3315754171
0.3315827254
0.3315827254
0.3315827254
0.3315827253
0.3315827252
0.3315827246
0.3315827221
0.3315827127
0.3315826771
0.3315825457
0.3315820822
0.3315805452
0.3315759065
0.3315638253
0.3315827254
0.3315827254
0.3315827254
0.3315827253
0.3315827251
0.3315827241
0.33158272
0.3315827031
0.3315826338
0.3315823546
0.3315812656
0.3315772322
0.3315635196
0.331523382
0.3315827254
0.3315827254
0.3315827254
0.3315827253
0.331582725
0.3315827236
0.3315827175
0.3315826908
0.331582573
0.3315820562
0.3315798227
0.3315704647
0.3315336328
0.331406159
0.3315827254
0.3315827254
0.3315827254
0.3315827253
0.3315827249
0.3315827233
0.3315827162
0.3315826837
0.3315825334
0.331581832
0.3315785291
0.3315629527
0.3314907288
0.331176959
0.3315827254
0.3315827254
0.3315827254
0.3315827253
0.331582725
0.3315827236
0.3315827175
0.3315826908
0.331582573
0.3315820562
0.3315798227
0.3315704648
0.3315336331
0.3314061597
0.3315827254
0.3315827254
0.3315827254
0.3315827253
0.3315827251
0.3315827241
0.33158272
0.3315827031
0.3315826338
0.3315823546
0.3315812656
0.3315772323
0.33156352
0.3315233833
0.3314355531
0.3315827254
0.3315827254
0.3315827254
0.3315827253
0.3315827252
0.3315827246
0.3315827221
0.3315827127
0.3315826771
0.3315825457
0.3315820822
0.3315805453
0.3315759067
0.3315638259
0.331539158
0.3315827254
0.3315827254
0.3315827254
0.3315827253
0.3315827252
0.3315827248
0.3315827232
0.3315827174
0.331582697
0.3315826276
0.3315824034
0.331581727
0.3315798711
0.3315754173
0.3315665806
0.3315827254
0.3315827254
0.3315827254
0.3315827254
0.3315827253
0.3315827249
0.3315827237
0.3315827195
0.3315827051
0.331582658
0.331582512
0.3315820904
0.3315809824
0.3315784126
0.3315827254
0.3315827254
0.3315827254
0.3315827253
0.3315827252
0.3315827248
0.331582723
0.3315827164
0.3315826927
0.3315826097
0.3315823333
0.3315814746
0.3315790538
0.3315731262
0.3315827254
0.3315827254
0.3315827254
0.3315827253
0.3315827252
0.3315827244
0.3315827216
0.3315827104
0.3315826671
0.3315825041
0.3315819163
0.331579927
0.331573813
0.3315576694
0.3315827254
0.3315827254
0.3315827254
0.3315827253
0.3315827251
0.3315827241
0.33158272
0.3315827031
0.3315826338
0.3315823546
0.3315812656
0.3315772322
0.3315635196
0.331523382
0.3315827254
0.3315827254
0.3315827254
0.3315827253
0.331582725
0.3315827239
0.3315827192
0.3315826992
0.3315826141
0.3315822562
0.3315807765
0.3315748569
0.3315525921
0.3314786063
0.3315827254
0.3315827254
0.3315827254
0.3315827253
0.3315827251
0.3315827241
0.33158272
0.3315827031
0.3315826338
0.3315823546
0.3315812656
0.3315772322
0.3315635197
0.3315233823
0.3315827254
0.3315827254
0.3315827254
0.3315827253
0.3315827252
0.3315827244
0.3315827216
0.3315827104
0.3315826671
0.3315825041
0.3315819163
0.3315799271
0.3315738131
0.3315576694
0.3315827254
0.3315827254
0.3315827254
0.3315827253
0.3315827252
0.3315827248
0.331582723
0.3315827164
0.3315826927
0.3315826097
0.3315823333
0.3315814747
0.3315790539
0.3315731264
0.3315613175
0.3315827254
0.3315827254
0.3315827254
0.3315827254
0.3315827253
0.3315827249
0.3315827237
0.3315827195
0.3315827051
0.331582658
0.331582512
0.3315820905
0.3315809825
0.3315784127
0.3315733508
0.3315827254
0.3315827254
0.3315827254
0.3315827254
0.3315827253
0.3315827251
0.3315827242
0.3315827214
0.3315827123
0.3315826838
0.3315825995
0.3315823671
0.3315817813
0.3315804613
0.3315827254
0.3315827254
0.3315827254
0.3315827254
0.3315827253
0.3315827249
0.3315827238
0.3315827197
0.3315827057
0.3315826594
0.3315825148
0.3315820937
0.3315809774
0.3315783722
0.3315827254
0.3315827254
0.3315827254
0.3315827253
0.3315827252
0.3315827248
0.331582723
0.3315827164
0.3315826927
0.3315826097
0.3315823333
0.3315814746
0.3315790538
0.3315731262
0.3315827254
0.3315827254
0.3315827254
0.3315827253
0.3315827252
0.3315827246
0.3315827221
0.3315827127
0.3315826771
0.3315825457
0.3315820822
0.3315805452
0.3315759065
0.3315638253
0.3315827254
0.3315827254
0.3315827254
0.3315827253
0.3315827252
0.3315827245
0.3315827217
0.3315827109
0.3315826687
0.3315825086
0.3315819212
0.3315798762
0.3315733223
0.3315550729
0.3315827254
0.3315827254
0.3315827254
0.3315827253
0.3315827252
0.3315827246
0.3315827221
0.3315827127
0.3315826771
0.3315825457
0.3315820822
0.3315805452
0.3315759065
0.3315638254
0.3315827254
0.3315827254
0.3315827254
0.3315827253
0.3315827252
0.3315827248
0.331582723
0.3315827164
0.3315826927
0.3315826097
0.3315823333
0.3315814746
0.3315790539
0.3315731262
0.3315827254
0.3315827254
0.3315827254
0.3315827254
0.3315827253
0.3315827249
0.3315827238
0.3315827197
0.3315827057
0.3315826594
0.3315825148
0.3315820937
0.3315809774
0.3315783722
0.3315827254
0.3315827254
0.3315827254
0.3315827254
0.3315827253
0.3315827251
0.3315827242
0.3315827214
0.3315827123
0.3315826838
0.3315825995
0.3315823671
0.3315817813
0.3315804614
0.3315778677
0.3315827254
0.3315827254
0.3315827254
0.3315827254
0.3315827253
0.3315827251
0.3315827245
0.3315827225
0.3315827162
0.3315826973
0.3315826436
0.3315825014
0.3315821547
0.3315813904
0.3315827254
0.3315827254
0.3315827254
0.3315827254
0.3315827253
0.3315827251
0.3315827242
0.3315827214
0.3315827123
0.3315826838
0.3315825995
0.3315823671
0.3315817813
0.3315804613
0.3315827254
0.3315827254
0.3315827254
0.3315827254
0.3315827253
0.3315827249
0.3315827237
0.3315827195
0.3315827051
0.331582658
0.331582512
0.3315820904
0.3315809824
0.3315784126
0.3315827254
0.3315827254
0.3315827254
0.3315827253
0.3315827252
0.3315827248
0.3315827232
0.3315827174
0.331582697
0.3315826276
0.3315824034
0.331581727
0.331579871
0.331575417
0.3315827254
0.3315827254
0.3315827254
0.3315827253
0.3315827252
0.3315827247
0.331582723
0.3315827165
0.331582693
0.3315826118
0.3315823429
0.3315815079
0.3315791415
0.3315732831
0.3315827254
0.3315827254
0.3315827254
0.3315827253
0.3315827252
0.3315827248
0.3315827232
0.3315827174
0.331582697
0.3315826276
0.3315824034
0.331581727
0.331579871
0.3315754171
0.3315827254
0.3315827254
0.3315827254
0.3315827254
0.3315827253
0.3315827249
0.3315827237
0.3315827195
0.3315827051
0.331582658
0.331582512
0.3315820904
0.3315809824
0.3315784126
0.3315827254
0.3315827254
0.3315827254
0.3315827254
0.3315827253
0.3315827251
0.3315827242
0.3315827214
0.3315827123
0.3315826838
0.3315825995
0.3315823671
0.3315817813
0.3315804613
0.3315827254
0.3315827254
0.3315827254
0.3315827254
0.3315827253
0.3315827251
0.3315827245
0.3315827225
0.3315827162
0.3315826973
0.3315826436
0.3315825014
0.3315821547
0.3315813904
)
;

boundaryField
{
    top
    {
        type            zeroGradient;
    }
    bottom
    {
        type            zeroGradient;
    }
    side-walls
    {
        type            zeroGradient;
    }
    inlet
    {
        type            zeroGradient;
    }
    outlet
    {
        type            zeroGradient;
    }
    procBoundary0to1
    {
        type            processor;
        value           nonuniform List<scalar> 
97
(
0.3315772782
0.3315778677
0.331573487
0.3315651261
0.3315529005
0.3315441899
0.3315529007
0.3315651264
0.3315734872
0.3315772784
0.3315778677
0.3315778677
0.3315649608
0.3315613173
0.3315435494
0.3315055835
0.331469846
0.3315055842
0.3315435502
0.3315649614
0.3315734872
0.3315733506
0.3315613173
0.3315613173
0.3314804526
0.3314355515
0.3313404603
0.331157552
0.3313404633
0.3314804554
0.3315435502
0.3315651264
0.3315665803
0.3315391574
0.3314355515
0.3314355515
0.3308616346
0.3300902483
0.3299244726
0.3308616463
0.3313404633
0.3315055841
0.3315529007
0.3315615112
0.3315160747
0.3312948245
0.3300902483
0.3300902483
0.3258916584
0.3300902482
0.3299244711
0.3310810824
0.3311575513
0.331469846
0.3315441899
0.3315665805
0.331539158
0.3314355559
0.331081085
0.3300902482
0.3310810824
0.3310810824
0.3313404599
0.3315245682
0.3315055833
0.3315529005
0.3315733508
0.3315613181
0.3315245696
0.3314355562
0.3312948252
0.3314355566
0.3315245682
0.3315245682
0.3315435495
0.3315732363
0.3315651261
0.3315778679
0.3315732365
0.3315613181
0.3315391581
0.331516075
0.3315391582
0.331561318
0.3315732363
0.3315732363
0.331573487
0.3315798886
0.3315798887
0.3315778679
0.3315733508
0.3315665805
0.3315615113
0.3315665805
0.3315733508
0.3315778678
0.3315798886
)
;
    }
}


// ************************************************************************* //
