/*--------------------------------*- C++ -*----------------------------------*\
| =========                 |                                                 |
| \\      /  F ield         | OpenFOAM: The Open Source CFD Toolbox           |
|  \\    /   O peration     | Version:  4.x                                   |
|   \\  /    A nd           | Web:      www.OpenFOAM.org                      |
|    \\/     M anipulation  |                                                 |
\*---------------------------------------------------------------------------*/
FoamFile
{
    version     2.0;
    format      ascii;
    class       volScalarField;
    location    "2000";
    object      CO2;
}
// * * * * * * * * * * * * * * * * * * * * * * * * * * * * * * * * * * * * * //

dimensions      [0 0 0 0 0 0 0];

internalField   nonuniform List<scalar> 
1175
(
0.06314985492
0.06314985492
0.06314985492
0.06314985494
0.063149855
0.06314985522
0.06314985596
0.06314985839
0.06314986602
0.06314988893
0.06314995395
0.06315012618
0.06315054591
0.06315147139
0.0631532898
0.06314985492
0.06314985492
0.06314985492
0.06314985494
0.06314985502
0.06314985531
0.06314985631
0.06314985969
0.06314987073
0.06314990526
0.06315000734
0.06315028869
0.06315099798
0.06315259621
0.06315573658
0.06314985492
0.06314985492
0.06314985493
0.06314985495
0.06314985506
0.06314985546
0.06314985691
0.06314986202
0.06314987945
0.06314993649
0.06315011328
0.0631506237
0.06315196523
0.06315507667
0.06316120559
0.06314985492
0.06314985492
0.06314985493
0.06314985496
0.0631498551
0.06314985562
0.06314985754
0.06314986453
0.06314988925
0.06314997326
0.06315024473
0.06315106375
0.0631533109
0.06315870336
0.0631694026
0.06314985492
0.06314985492
0.06314985493
0.06314985497
0.06314985512
0.06314985568
0.06314985782
0.06314986572
0.06314989408
0.06314999245
0.06315031807
0.063151329
0.06315419402
0.06316128681
0.06317553991
0.06314985492
0.06314985492
0.06314985493
0.06314985496
0.0631498551
0.06314985562
0.06314985754
0.06314986453
0.06314988925
0.06314997326
0.06315024473
0.06315106374
0.06315331087
0.06315870328
0.06316940245
0.06314985492
0.06314985492
0.06314985493
0.06314985495
0.06314985506
0.06314985546
0.06314985691
0.06314986202
0.06314987945
0.06314993649
0.06315011328
0.06315062369
0.0631519652
0.06315507659
0.06316120541
0.06314985492
0.06314985492
0.06314985492
0.06314985494
0.06314985502
0.06314985531
0.06314985631
0.06314985969
0.06314987073
0.06314990526
0.06315000734
0.06315028868
0.06315099795
0.06315259613
0.06315573641
0.06314985492
0.06314985492
0.06314985492
0.06314985494
0.063149855
0.06314985522
0.06314985596
0.06314985839
0.06314986602
0.06314988893
0.06314995395
0.06315012618
0.06315054588
0.06315147133
0.06315328963
0.06314985492
0.06314985492
0.06314985492
0.06314985494
0.06314985502
0.06314985531
0.06314985631
0.06314985969
0.06314987073
0.06314990526
0.06315000734
0.06315028869
0.063150998
0.06315259631
0.06314985492
0.06314985492
0.06314985493
0.06314985495
0.06314985506
0.06314985544
0.06314985684
0.06314986179
0.0631498788
0.06314993482
0.06315010989
0.06315061981
0.06315197136
0.06315512565
0.06316134431
0.06314985492
0.06314985492
0.06314985493
0.06314985497
0.06314985511
0.06314985567
0.0631498578
0.06314986574
0.06314989449
0.06314999503
0.06315032962
0.06315136928
0.06315430023
0.06316147697
0.0631757743
0.06314985492
0.06314985492
0.06314985493
0.06314985498
0.06314985517
0.06314985591
0.06314985885
0.06314987023
0.06314991341
0.06315007244
0.06315063367
0.06315249451
0.06315811065
0.06317273731
0.06320260345
0.06314985492
0.06314985492
0.06314985493
0.06314985498
0.06314985519
0.06314985602
0.06314985935
0.06314987249
0.06314992355
0.06315011742
0.06315082857
0.06315330453
0.06316123916
0.06318333324
0.06323054926
0.06314985492
0.06314985492
0.06314985493
0.06314985498
0.06314985517
0.06314985591
0.06314985885
0.06314987023
0.06314991341
0.06315007244
0.06315063366
0.06315249448
0.06315811057
0.06317273704
0.06320260283
0.06314985492
0.06314985492
0.06314985493
0.06314985497
0.06314985511
0.06314985567
0.0631498578
0.06314986574
0.06314989449
0.06314999503
0.06315032962
0.06315136925
0.06315430015
0.0631614767
0.06317577365
0.06314985492
0.06314985492
0.06314985493
0.06314985495
0.06314985506
0.06314985544
0.06314985684
0.06314986179
0.0631498788
0.06314993482
0.06315010989
0.06315061979
0.06315197129
0.06315512544
0.06316134374
0.06314985492
0.06314985492
0.06314985492
0.06314985494
0.06314985502
0.06314985531
0.06314985631
0.06314985969
0.06314987073
0.06314990526
0.06315000734
0.06315028868
0.06315099795
0.06315259614
0.06315573641
0.06314985492
0.06314985492
0.06314985493
0.06314985495
0.06314985506
0.06314985546
0.06314985691
0.06314986202
0.06314987945
0.06314993649
0.06315011328
0.06315062372
0.0631519653
0.06315507689
0.06314985492
0.06314985492
0.06314985493
0.06314985497
0.06314985511
0.06314985567
0.0631498578
0.06314986574
0.06314989449
0.06314999503
0.06315032963
0.0631513693
0.06315430032
0.06316147736
0.06314985492
0.06314985492
0.06314985493
0.06314985499
0.0631498552
0.06314985605
0.06314985947
0.06314987301
0.06314992546
0.06315012284
0.06315083453
0.063153243
0.06316064543
0.06318019081
0.06322026821
0.06314985492
0.06314985492
0.06314985494
0.063149855
0.06314985528
0.06314985646
0.06314986139
0.06314988184
0.06314996582
0.0631503039
0.06315162236
0.06315650561
0.06317310736
0.06322170084
0.06332803498
0.06314985492
0.06314985492
0.06314985494
0.06314985501
0.06314985533
0.06314985666
0.06314986235
0.06314988661
0.06314998961
0.06315042297
0.06315221442
0.0631593813
0.06318633644
0.0632759063
0.06349840944
0.06314985492
0.06314985492
0.06314985494
0.06314985501
0.06314985528
0.06314985646
0.06314986139
0.06314988184
0.06314996582
0.06315030389
0.06315162234
0.06315650554
0.06317310705
0.06322169963
0.0633280316
0.06314985492
0.06314985492
0.06314985493
0.06314985499
0.0631498552
0.06314985605
0.06314985947
0.06314987301
0.06314992546
0.06315012284
0.06315083451
0.06315324293
0.06316064516
0.06318018976
0.06322026502
0.06314985492
0.06314985492
0.06314985493
0.06314985497
0.06314985511
0.06314985567
0.0631498578
0.06314986574
0.06314989449
0.06314999503
0.06315032962
0.06315136926
0.06315430016
0.06316147672
0.06317577367
0.06314985492
0.06314985492
0.06314985493
0.06314985495
0.06314985506
0.06314985546
0.06314985691
0.06314986202
0.06314987945
0.06314993649
0.06315011328
0.06315062369
0.0631519652
0.06315507661
0.06316120543
0.06314985492
0.06314985492
0.06314985493
0.06314985496
0.0631498551
0.06314985562
0.06314985754
0.06314986453
0.06314988925
0.06314997326
0.06315024475
0.06315106379
0.06315331103
0.06315870374
0.06314985492
0.06314985492
0.06314985493
0.06314985498
0.06314985517
0.06314985591
0.06314985885
0.06314987023
0.06314991341
0.06315007244
0.06315063369
0.06315249457
0.06315811092
0.06317273827
0.06314985492
0.06314985492
0.06314985494
0.06314985501
0.06314985528
0.06314985646
0.06314986139
0.06314988184
0.06314996582
0.0631503039
0.06315162238
0.06315650572
0.06317310791
0.06322170351
0.06314985492
0.06314985493
0.06314985495
0.06314985503
0.06314985541
0.06314985708
0.06314986442
0.06314989677
0.06315003943
0.06315066509
0.06315336932
0.06316469913
0.06320929107
0.06336361939
0.06375719975
0.06314985492
0.06314985493
0.06314985495
0.06314985504
0.06314985547
0.06314985739
0.06314986602
0.06314990544
0.06315008738
0.0631509366
0.06315493541
0.06317379349
0.06326123161
0.06364108472
0.06495672714
0.06314985492
0.06314985493
0.06314985495
0.06314985503
0.06314985541
0.06314985708
0.06314986442
0.06314989677
0.06315003943
0.06315066508
0.06315336929
0.06316469895
0.06320929005
0.06336361415
0.06375717845
0.06314985492
0.06314985492
0.06314985494
0.06314985501
0.06314985528
0.06314985646
0.06314986139
0.06314988184
0.06314996582
0.06315030389
0.06315162235
0.06315650556
0.06317310715
0.06322169989
0.0633280319
0.06314985492
0.06314985492
0.06314985493
0.06314985498
0.06314985517
0.06314985591
0.06314985885
0.06314987023
0.06314991341
0.06315007244
0.06315063367
0.0631524945
0.06315811063
0.0631727372
0.06320260302
0.06314985492
0.06314985492
0.06314985493
0.06314985496
0.0631498551
0.06314985562
0.06314985754
0.06314986453
0.06314988925
0.06314997326
0.06315024474
0.06315106375
0.0631533109
0.06315870335
0.06316940253
0.06314985492
0.06314985492
0.06314985493
0.06314985497
0.06314985512
0.06314985568
0.06314985782
0.06314986572
0.06314989408
0.06314999245
0.06315031808
0.06315132905
0.0631541942
0.06316128732
0.06314985492
0.06314985492
0.06314985493
0.06314985498
0.06314985519
0.06314985602
0.06314985935
0.06314987249
0.06314992355
0.06315011742
0.0631508286
0.06315330465
0.06316123963
0.06318333476
0.06314985492
0.06314985492
0.06314985494
0.06314985501
0.06314985533
0.06314985666
0.06314986235
0.06314988661
0.06314998961
0.06315042298
0.06315221448
0.0631593816
0.06318633786
0.06327591224
0.06314985492
0.06314985493
0.06314985495
0.06314985504
0.06314985547
0.06314985739
0.06314986602
0.06314990544
0.06315008738
0.06315093661
0.06315493549
0.06317379402
0.06326123498
0.06364110762
0.06314985492
0.06314985493
0.06314985495
0.06314985506
0.06314985554
0.06314985775
0.06314986805
0.06314991699
0.06315015642
0.06315137117
0.06315782672
0.06319415151
0.06341272836
0.06482850109
0.07476312107
0.06314985492
0.06314985493
0.06314985495
0.06314985504
0.06314985547
0.06314985739
0.06314986602
0.06314990544
0.06315008738
0.06315093661
0.06315493546
0.06317379373
0.06326123257
0.06364108808
0.06495673463
0.06314985492
0.06314985492
0.06314985494
0.06314985501
0.06314985533
0.06314985666
0.06314986235
0.06314988661
0.06314998961
0.06315042298
0.06315221445
0.06315938141
0.06318633684
0.06327590745
0.0634984113
0.06314985492
0.06314985492
0.06314985493
0.06314985498
0.06314985519
0.06314985602
0.06314985935
0.06314987249
0.06314992355
0.06315011742
0.06315082858
0.06315330456
0.06316123927
0.0631833335
0.06323054962
0.06314985492
0.06314985492
0.06314985493
0.06314985497
0.06314985512
0.06314985568
0.06314985782
0.06314986572
0.06314989408
0.06314999245
0.06315031807
0.06315132901
0.06315419405
0.06316128688
0.06317554
0.06314985492
0.06314985492
0.06314985493
0.06314985496
0.0631498551
0.06314985562
0.06314985754
0.06314986453
0.06314988925
0.06314997326
0.06315024475
0.06315106379
0.06315331102
0.06315870369
0.06314985492
0.06314985492
0.06314985493
0.06314985498
0.06314985517
0.06314985591
0.06314985885
0.06314987023
0.06314991341
0.06315007244
0.06315063369
0.06315249459
0.06315811094
0.06317273815
0.06314985492
0.06314985492
0.06314985494
0.063149855
0.06314985528
0.06314985646
0.06314986139
0.06314988184
0.06314996582
0.06315030391
0.0631516224
0.06315650579
0.06317310807
0.06322170305
0.06314985492
0.06314985493
0.06314985495
0.06314985503
0.06314985541
0.06314985708
0.06314986442
0.06314989677
0.06315003943
0.0631506651
0.06315336937
0.06316469939
0.06320929223
0.06336362345
0.06314985492
0.06314985493
0.06314985495
0.06314985504
0.06314985547
0.06314985739
0.06314986602
0.06314990544
0.06315008738
0.06315093662
0.06315493553
0.06317379418
0.06326123558
0.06364110899
0.06314985492
0.06314985493
0.06314985495
0.06314985503
0.06314985541
0.06314985708
0.06314986442
0.06314989677
0.06315003943
0.0631506651
0.06315336936
0.06316469931
0.0632092919
0.06336362307
0.06314985492
0.06314985492
0.06314985494
0.06314985501
0.06314985528
0.06314985646
0.06314986139
0.06314988184
0.06314996582
0.0631503039
0.06315162238
0.0631565057
0.06317310772
0.06322170194
0.06332803818
0.06314985492
0.06314985492
0.06314985493
0.06314985498
0.06314985517
0.06314985591
0.06314985885
0.06314987023
0.06314991341
0.06315007244
0.06315063368
0.06315249454
0.06315811075
0.0631727376
0.06320260394
0.06314985492
0.06314985492
0.06314985493
0.06314985496
0.0631498551
0.06314985562
0.06314985754
0.06314986453
0.06314988925
0.06314997326
0.06315024474
0.06315106376
0.06315331093
0.06315870345
0.06316940272
0.06314985492
0.06314985492
0.06314985493
0.06314985495
0.06314985506
0.06314985546
0.06314985691
0.06314986202
0.06314987945
0.06314993649
0.06315011329
0.06315062372
0.0631519653
0.06315507685
0.06314985492
0.06314985492
0.06314985493
0.06314985497
0.06314985511
0.06314985567
0.0631498578
0.06314986574
0.06314989449
0.06314999504
0.06315032964
0.06315136932
0.06315430036
0.06316147728
0.06314985492
0.06314985492
0.06314985493
0.06314985499
0.0631498552
0.06314985605
0.06314985947
0.06314987301
0.06314992546
0.06315012284
0.06315083455
0.06315324308
0.06316064566
0.06318019123
0.06314985492
0.06314985492
0.06314985494
0.06314985501
0.06314985528
0.06314985646
0.06314986139
0.06314988184
0.06314996582
0.06315030391
0.06315162241
0.06315650581
0.06317310811
0.06322170303
0.06314985492
0.06314985492
0.06314985494
0.06314985501
0.06314985533
0.06314985666
0.06314986235
0.06314988661
0.06314998961
0.06315042299
0.0631522145
0.06315938166
0.06318633806
0.0632759123
0.06314985492
0.06314985492
0.06314985494
0.06314985501
0.06314985528
0.06314985646
0.06314986139
0.06314988184
0.06314996582
0.06315030391
0.0631516224
0.06315650578
0.06317310802
0.06322170282
0.06314985492
0.06314985492
0.06314985493
0.06314985499
0.0631498552
0.06314985605
0.06314985947
0.06314987301
0.06314992546
0.06315012284
0.06315083454
0.06315324305
0.06316064559
0.06318019133
0.06314985492
0.06314985492
0.06314985493
0.06314985497
0.06314985511
0.06314985567
0.0631498578
0.06314986574
0.06314989449
0.06314999503
0.06315032963
0.06315136929
0.06315430029
0.06316147714
0.06317577475
0.06314985492
0.06314985492
0.06314985493
0.06314985495
0.06314985506
0.06314985546
0.06314985691
0.06314986202
0.06314987945
0.06314993649
0.06315011328
0.06315062371
0.06315196526
0.06315507675
0.06316120571
0.06314985492
0.06314985492
0.06314985492
0.06314985494
0.06314985502
0.06314985531
0.06314985631
0.06314985969
0.06314987073
0.06314990526
0.06315000735
0.0631502887
0.06315099801
0.06315259627
0.06314985492
0.06314985492
0.06314985493
0.06314985495
0.06314985506
0.06314985544
0.06314985684
0.06314986179
0.0631498788
0.06314993482
0.0631501099
0.06315061983
0.0631519714
0.0631551257
0.06314985492
0.06314985492
0.06314985493
0.06314985497
0.06314985511
0.06314985567
0.0631498578
0.06314986574
0.06314989449
0.06314999504
0.06315032964
0.06315136932
0.06315430036
0.06316147725
0.06314985492
0.06314985492
0.06314985493
0.06314985498
0.06314985517
0.06314985591
0.06314985885
0.06314987023
0.06314991341
0.06315007244
0.0631506337
0.0631524946
0.06315811096
0.06317273813
0.06314985492
0.06314985492
0.06314985493
0.06314985498
0.06314985519
0.06314985602
0.06314985935
0.06314987249
0.06314992355
0.06315011743
0.06315082861
0.06315330467
0.06316123969
0.06318333475
0.06314985492
0.06314985492
0.06314985493
0.06314985498
0.06314985517
0.06314985591
0.06314985885
0.06314987023
0.06314991341
0.06315007244
0.0631506337
0.0631524946
0.06315811095
0.06317273809
0.06314985492
0.06314985492
0.06314985493
0.06314985497
0.06314985511
0.06314985567
0.0631498578
0.06314986574
0.06314989449
0.06314999504
0.06315032963
0.06315136931
0.06315430034
0.06316147726
0.06314985492
0.06314985492
0.06314985493
0.06314985495
0.06314985506
0.06314985544
0.06314985684
0.06314986179
0.0631498788
0.06314993482
0.0631501099
0.06315061982
0.06315197139
0.06315512574
0.06314985492
0.06314985492
0.06314985492
0.06314985494
0.06314985502
0.06314985531
0.06314985631
0.06314985969
0.06314987073
0.06314990526
0.06315000734
0.06315028869
0.063150998
0.06315259626
0.06315573669
0.06314985492
0.06314985492
0.06314985492
0.06314985494
0.063149855
0.06314985522
0.06314985596
0.06314985839
0.06314986602
0.06314988893
0.06314995395
0.06315012619
0.06315054592
0.0631514714
0.06314985492
0.06314985492
0.06314985492
0.06314985494
0.06314985502
0.06314985531
0.06314985631
0.06314985969
0.06314987073
0.06314990526
0.06315000735
0.0631502887
0.06315099801
0.06315259627
0.06314985492
0.06314985492
0.06314985493
0.06314985495
0.06314985506
0.06314985546
0.06314985691
0.06314986202
0.06314987945
0.06314993649
0.06315011329
0.06315062372
0.0631519653
0.06315507685
0.06314985492
0.06314985492
0.06314985493
0.06314985496
0.0631498551
0.06314985562
0.06314985754
0.06314986454
0.06314988925
0.06314997326
0.06315024475
0.0631510638
0.06315331104
0.06315870371
0.06314985492
0.06314985492
0.06314985493
0.06314985497
0.06314985512
0.06314985568
0.06314985782
0.06314986572
0.06314989408
0.06314999245
0.06315031809
0.06315132906
0.06315419422
0.0631612873
0.06314985492
0.06314985492
0.06314985493
0.06314985496
0.0631498551
0.06314985562
0.06314985754
0.06314986454
0.06314988925
0.06314997326
0.06315024475
0.0631510638
0.06315331104
0.0631587037
0.06314985492
0.06314985492
0.06314985493
0.06314985495
0.06314985506
0.06314985546
0.06314985691
0.06314986202
0.06314987945
0.06314993649
0.06315011329
0.06315062372
0.0631519653
0.06315507685
0.06314985492
0.06314985492
0.06314985492
0.06314985494
0.06314985502
0.06314985531
0.06314985631
0.06314985969
0.06314987073
0.06314990526
0.06315000735
0.0631502887
0.06315099801
0.06315259627
0.06314985492
0.06314985492
0.06314985492
0.06314985494
0.063149855
0.06314985522
0.06314985596
0.06314985839
0.06314986602
0.06314988893
0.06314995395
0.06315012619
0.06315054592
0.06315147142
)
;

boundaryField
{
    top
    {
        type            zeroGradient;
    }
    bottom
    {
        type            zeroGradient;
    }
    side-walls
    {
        type            zeroGradient;
    }
    inlet
    {
        type            zeroGradient;
    }
    outlet
    {
        type            zeroGradient;
    }
    procBoundary0to1
    {
        type            processor;
        value           nonuniform List<scalar> 
97
(
0.0631564507
0.06315573674
0.06316104101
0.06317116417
0.06318596644
0.06319651274
0.0631859662
0.06317116388
0.06316104074
0.06315645048
0.06315573674
0.06315573674
0.06317136421
0.063175775
0.06319728802
0.06324325456
0.06328652221
0.06324325377
0.06319728714
0.06317136355
0.06316104074
0.06316120585
0.063175775
0.063175775
0.06327368095
0.06332803983
0.06344317059
0.06366461524
0.06344316721
0.0632736778
0.06319728712
0.06317116388
0.06316940299
0.0632026046
0.06332803983
0.06332803983
0.06402287834
0.0649567468
0.06515747138
0.06402286533
0.06344316722
0.06324325384
0.06318596624
0.06317554039
0.06323055076
0.06349841505
0.0649567468
0.0649567468
0.0700398118
0.06495674725
0.06515747302
0.06375718797
0.06366461594
0.06328652218
0.06319651266
0.0631694028
0.06320260388
0.06332803504
0.06375718525
0.06495674725
0.06375718797
0.06375718797
0.063443171
0.06322026778
0.06324325462
0.06318596641
0.06316120564
0.06317577417
0.06322026638
0.06332803468
0.06349841412
0.06332803423
0.06322026778
0.06322026778
0.06319728795
0.06316134425
0.06317116418
0.06315573652
0.06316134395
0.06317577408
0.0632026037
0.06323055034
0.0632026036
0.06317577424
0.06316134425
0.06316134425
0.063161041
0.06315328978
0.06315328969
0.06315573651
0.0631612056
0.06316940277
0.06317554023
0.06316940275
0.06316120562
0.06315573656
0.06315328978
)
;
    }
}


// ************************************************************************* //
