/*--------------------------------*- C++ -*----------------------------------*\
| =========                 |                                                 |
| \\      /  F ield         | OpenFOAM: The Open Source CFD Toolbox           |
|  \\    /   O peration     | Version:  4.x                                   |
|   \\  /    A nd           | Web:      www.OpenFOAM.org                      |
|    \\/     M anipulation  |                                                 |
\*---------------------------------------------------------------------------*/
FoamFile
{
    version     2.0;
    format      ascii;
    class       volScalarField;
    location    "2000";
    object      H2;
}
// * * * * * * * * * * * * * * * * * * * * * * * * * * * * * * * * * * * * * //

dimensions      [0 0 0 0 0 0 0];

internalField   nonuniform List<scalar> 
1175
(
0.002172513352
0.002172513352
0.002172513352
0.002172513352
0.002172513351
0.002172513347
0.002172513333
0.00217251329
0.002172513152
0.002172512739
0.002172511566
0.002172508458
0.002172500883
0.00217248418
0.002172451361
0.002172513352
0.002172513352
0.002172513352
0.002172513352
0.00217251335
0.002172513345
0.002172513327
0.002172513266
0.002172513067
0.002172512444
0.002172510601
0.002172505523
0.002172492717
0.002172463858
0.002172407156
0.002172513352
0.002172513352
0.002172513352
0.002172513352
0.00217251335
0.002172513342
0.002172513316
0.002172513224
0.00217251291
0.00217251188
0.002172508688
0.00217249947
0.002172475239
0.002172419034
0.002172308321
0.002172513352
0.002172513352
0.002172513352
0.002172513351
0.002172513349
0.00217251334
0.002172513305
0.002172513179
0.002172512733
0.002172511216
0.002172506313
0.002172491518
0.002172450917
0.002172353474
0.002172160134
0.002172513352
0.002172513352
0.002172513352
0.002172513351
0.002172513349
0.002172513338
0.0021725133
0.002172513157
0.002172512645
0.002172510869
0.002172504988
0.002172486723
0.002172434949
0.002172306755
0.002172049137
0.002172513352
0.002172513352
0.002172513352
0.002172513351
0.002172513349
0.00217251334
0.002172513305
0.002172513179
0.002172512733
0.002172511216
0.002172506313
0.002172491518
0.002172450917
0.002172353475
0.002172160136
0.002172513352
0.002172513352
0.002172513352
0.002172513352
0.00217251335
0.002172513342
0.002172513316
0.002172513224
0.00217251291
0.00217251188
0.002172508688
0.00217249947
0.00217247524
0.002172419035
0.002172308323
0.002172513352
0.002172513352
0.002172513352
0.002172513352
0.00217251335
0.002172513345
0.002172513327
0.002172513266
0.002172513067
0.002172512444
0.002172510602
0.002172505523
0.002172492717
0.002172463859
0.002172407158
0.002172513352
0.002172513352
0.002172513352
0.002172513352
0.002172513351
0.002172513347
0.002172513333
0.00217251329
0.002172513152
0.002172512739
0.002172511566
0.002172508458
0.002172500883
0.002172484181
0.002172451364
0.002172513352
0.002172513352
0.002172513352
0.002172513352
0.00217251335
0.002172513345
0.002172513327
0.002172513266
0.002172513067
0.002172512444
0.002172510601
0.002172505523
0.002172492716
0.002172463857
0.002172513352
0.002172513352
0.002172513352
0.002172513352
0.00217251335
0.002172513343
0.002172513318
0.002172513228
0.002172512921
0.00217251191
0.002172508749
0.00217249954
0.002172475126
0.002172418144
0.002172305803
0.002172513352
0.002172513352
0.002172513352
0.002172513351
0.002172513349
0.002172513339
0.0021725133
0.002172513157
0.002172512638
0.002172510822
0.002172504778
0.002172485995
0.002172433029
0.00217230332
0.002172044912
0.002172513352
0.002172513352
0.002172513352
0.002172513351
0.002172513348
0.002172513334
0.002172513281
0.002172513076
0.002172512296
0.002172509424
0.002172499283
0.002172465652
0.002172364127
0.002172099674
0.002171559661
0.002172513352
0.002172513352
0.002172513352
0.002172513351
0.002172513347
0.002172513332
0.002172513272
0.002172513035
0.002172512113
0.002172508611
0.002172495759
0.002172451003
0.002172307535
0.002171907967
0.002171053995
0.002172513352
0.002172513352
0.002172513352
0.002172513351
0.002172513348
0.002172513334
0.002172513281
0.002172513076
0.002172512296
0.002172509424
0.002172499283
0.002172465652
0.002172364128
0.002172099677
0.00217155967
0.002172513352
0.002172513352
0.002172513352
0.002172513351
0.002172513349
0.002172513339
0.0021725133
0.002172513157
0.002172512638
0.002172510822
0.002172504779
0.002172485995
0.00217243303
0.002172303324
0.002172044921
0.002172513352
0.002172513352
0.002172513352
0.002172513352
0.00217251335
0.002172513343
0.002172513318
0.002172513228
0.002172512921
0.00217251191
0.002172508749
0.00217249954
0.002172475127
0.002172418147
0.002172305811
0.002172513352
0.002172513352
0.002172513352
0.002172513352
0.00217251335
0.002172513345
0.002172513327
0.002172513266
0.002172513067
0.002172512444
0.002172510602
0.002172505523
0.002172492717
0.002172463859
0.002172407158
0.002172513352
0.002172513352
0.002172513352
0.002172513352
0.00217251335
0.002172513342
0.002172513316
0.002172513224
0.00217251291
0.00217251188
0.002172508688
0.00217249947
0.002172475238
0.002172419031
0.002172513352
0.002172513352
0.002172513352
0.002172513351
0.002172513349
0.002172513339
0.0021725133
0.002172513157
0.002172512638
0.002172510822
0.002172504778
0.002172485994
0.002172433028
0.002172303315
0.002172513352
0.002172513352
0.002172513352
0.002172513351
0.002172513347
0.002172513332
0.00217251327
0.002172513026
0.002172512078
0.002172508513
0.002172495652
0.002172452119
0.002172318292
0.002171964877
0.002171240173
0.002172513352
0.002172513352
0.002172513352
0.002172513351
0.002172513346
0.002172513324
0.002172513235
0.002172512866
0.002172511349
0.00217250524
0.002172481408
0.002172393115
0.002172092871
0.00217121388
0.002169290257
0.002172513352
0.002172513352
0.002172513352
0.002172513351
0.002172513345
0.002172513321
0.002172513218
0.00217251278
0.002172510919
0.002172503087
0.002172470699
0.00217234109
0.002171853487
0.002170232826
0.00216620625
0.002172513352
0.002172513352
0.002172513352
0.002172513351
0.002172513346
0.002172513324
0.002172513235
0.002172512866
0.002172511349
0.00217250524
0.002172481408
0.002172393116
0.002172092875
0.002171213896
0.002169290303
0.002172513352
0.002172513352
0.002172513352
0.002172513351
0.002172513347
0.002172513332
0.00217251327
0.002172513026
0.002172512078
0.002172508513
0.002172495652
0.00217245212
0.002172318295
0.002171964891
0.002171240217
0.002172513352
0.002172513352
0.002172513352
0.002172513351
0.002172513349
0.002172513339
0.0021725133
0.002172513157
0.002172512638
0.002172510822
0.002172504779
0.002172485995
0.00217243303
0.002172303323
0.002172044921
0.002172513352
0.002172513352
0.002172513352
0.002172513352
0.00217251335
0.002172513342
0.002172513316
0.002172513224
0.00217251291
0.00217251188
0.002172508688
0.00217249947
0.00217247524
0.002172419035
0.002172308323
0.002172513352
0.002172513352
0.002172513352
0.002172513351
0.002172513349
0.00217251334
0.002172513305
0.002172513179
0.002172512733
0.002172511216
0.002172506313
0.002172491517
0.002172450915
0.002172353468
0.002172513352
0.002172513352
0.002172513352
0.002172513351
0.002172513348
0.002172513334
0.002172513281
0.002172513076
0.002172512296
0.002172509423
0.002172499283
0.002172465651
0.002172364123
0.00217209966
0.002172513352
0.002172513352
0.002172513352
0.002172513351
0.002172513346
0.002172513324
0.002172513235
0.002172512866
0.002172511349
0.00217250524
0.002172481407
0.002172393113
0.002172092863
0.002171213842
0.002172513352
0.002172513352
0.002172513352
0.00217251335
0.002172513343
0.002172513313
0.002172513181
0.002172512596
0.002172510018
0.002172498709
0.002172449813
0.002172244895
0.002171438165
0.002168645521
0.002161522414
0.002172513352
0.002172513352
0.002172513352
0.00217251335
0.002172513342
0.002172513308
0.002172513152
0.00217251244
0.002172509152
0.002172493799
0.00217242148
0.002172080322
0.002170498029
0.002163622347
0.002139802887
0.002172513352
0.002172513352
0.002172513352
0.00217251335
0.002172513343
0.002172513313
0.002172513181
0.002172512596
0.002172510018
0.002172498709
0.002172449813
0.002172244897
0.002171438179
0.002168645592
0.002161522706
0.002172513352
0.002172513352
0.002172513352
0.002172513351
0.002172513346
0.002172513324
0.002172513235
0.002172512866
0.002172511349
0.00217250524
0.002172481408
0.002172393116
0.002172092873
0.002171213892
0.002169290298
0.002172513352
0.002172513352
0.002172513352
0.002172513351
0.002172513348
0.002172513334
0.002172513281
0.002172513076
0.002172512296
0.002172509424
0.002172499283
0.002172465652
0.002172364127
0.002172099675
0.002171559667
0.002172513352
0.002172513352
0.002172513352
0.002172513351
0.002172513349
0.00217251334
0.002172513305
0.002172513179
0.002172512733
0.002172511216
0.002172506313
0.002172491518
0.002172450917
0.002172353474
0.002172160134
0.002172513352
0.002172513352
0.002172513352
0.002172513351
0.002172513349
0.002172513338
0.0021725133
0.002172513157
0.002172512645
0.002172510869
0.002172504987
0.002172486722
0.002172434946
0.002172306747
0.002172513352
0.002172513352
0.002172513352
0.002172513351
0.002172513347
0.002172513332
0.002172513272
0.002172513035
0.002172512113
0.00217250861
0.002172495759
0.002172451001
0.002172307529
0.002171907945
0.002172513352
0.002172513352
0.002172513352
0.002172513351
0.002172513345
0.002172513321
0.002172513218
0.00217251278
0.002172510919
0.002172503087
0.002172470698
0.002172341086
0.002171853466
0.002170232739
0.002172513352
0.002172513352
0.002172513352
0.00217251335
0.002172513342
0.002172513308
0.002172513152
0.00217251244
0.002172509151
0.002172493798
0.002172421479
0.002172080314
0.002170497981
0.002163622021
0.002172513352
0.002172513352
0.002172513352
0.00217251335
0.002172513341
0.002172513301
0.002172513115
0.002172512231
0.002172507903
0.002172485937
0.002172369161
0.002171711843
0.002167755325
0.002142121015
0.00196220083
0.002172513352
0.002172513352
0.002172513352
0.00217251335
0.002172513342
0.002172513308
0.002172513152
0.00217251244
0.002172509151
0.002172493798
0.002172421479
0.002172080317
0.002170498012
0.002163622287
0.002139802761
0.002172513352
0.002172513352
0.002172513352
0.002172513351
0.002172513345
0.002172513321
0.002172513218
0.00217251278
0.002172510919
0.002172503087
0.002172470699
0.002172341089
0.00217185348
0.002170232807
0.002166206219
0.002172513352
0.002172513352
0.002172513352
0.002172513351
0.002172513347
0.002172513332
0.002172513272
0.002172513035
0.002172512113
0.002172508611
0.002172495759
0.002172451002
0.002172307534
0.002171907963
0.002171053989
0.002172513352
0.002172513352
0.002172513352
0.002172513351
0.002172513349
0.002172513338
0.0021725133
0.002172513157
0.002172512645
0.002172510869
0.002172504988
0.002172486723
0.002172434949
0.002172306754
0.002172049136
0.002172513352
0.002172513352
0.002172513352
0.002172513351
0.002172513349
0.00217251334
0.002172513305
0.002172513179
0.002172512733
0.002172511216
0.002172506313
0.002172491517
0.002172450915
0.002172353469
0.002172513352
0.002172513352
0.002172513352
0.002172513351
0.002172513348
0.002172513334
0.002172513281
0.002172513076
0.002172512296
0.002172509423
0.002172499283
0.00217246565
0.002172364123
0.002172099661
0.002172513352
0.002172513352
0.002172513352
0.002172513351
0.002172513346
0.002172513324
0.002172513235
0.002172512866
0.002172511349
0.00217250524
0.002172481407
0.002172393112
0.00217209286
0.002171213846
0.002172513352
0.002172513352
0.002172513352
0.00217251335
0.002172513343
0.002172513313
0.002172513181
0.002172512596
0.002172510018
0.002172498709
0.002172449812
0.002172244891
0.002171438148
0.002168645457
0.002172513352
0.002172513352
0.002172513352
0.00217251335
0.002172513342
0.002172513308
0.002172513152
0.00217251244
0.002172509151
0.002172493798
0.002172421478
0.002172080311
0.00217049797
0.002163621992
0.002172513352
0.002172513352
0.002172513352
0.00217251335
0.002172513343
0.002172513313
0.002172513181
0.002172512596
0.002172510018
0.002172498709
0.002172449812
0.002172244892
0.002171438152
0.002168645464
0.002172513352
0.002172513352
0.002172513352
0.002172513351
0.002172513346
0.002172513324
0.002172513235
0.002172512866
0.002172511349
0.00217250524
0.002172481407
0.002172393114
0.002172092865
0.002171213863
0.002169290209
0.002172513352
0.002172513352
0.002172513352
0.002172513351
0.002172513348
0.002172513334
0.002172513281
0.002172513076
0.002172512296
0.002172509424
0.002172499283
0.002172465651
0.002172364126
0.00217209967
0.002171559654
0.002172513352
0.002172513352
0.002172513352
0.002172513351
0.002172513349
0.00217251334
0.002172513305
0.002172513179
0.002172512733
0.002172511216
0.002172506313
0.002172491518
0.002172450916
0.002172353473
0.002172160132
0.002172513352
0.002172513352
0.002172513352
0.002172513352
0.00217251335
0.002172513342
0.002172513316
0.002172513224
0.00217251291
0.00217251188
0.002172508688
0.00217249947
0.002172475238
0.002172419031
0.002172513352
0.002172513352
0.002172513352
0.002172513351
0.002172513349
0.002172513339
0.0021725133
0.002172513157
0.002172512638
0.002172510822
0.002172504778
0.002172485994
0.002172433027
0.002172303315
0.002172513352
0.002172513352
0.002172513352
0.002172513351
0.002172513347
0.002172513332
0.00217251327
0.002172513026
0.002172512078
0.002172508513
0.002172495652
0.002172452118
0.002172318288
0.002171964869
0.002172513352
0.002172513352
0.002172513352
0.002172513351
0.002172513346
0.002172513324
0.002172513235
0.002172512866
0.002172511349
0.00217250524
0.002172481407
0.002172393112
0.002172092859
0.002171213846
0.002172513352
0.002172513352
0.002172513352
0.002172513351
0.002172513345
0.002172513321
0.002172513218
0.00217251278
0.002172510919
0.002172503087
0.002172470698
0.002172341085
0.002171853463
0.002170232737
0.002172513352
0.002172513352
0.002172513352
0.002172513351
0.002172513346
0.002172513324
0.002172513235
0.002172512866
0.002172511349
0.00217250524
0.002172481407
0.002172393112
0.002172092861
0.002171213849
0.002172513352
0.002172513352
0.002172513352
0.002172513351
0.002172513347
0.002172513332
0.00217251327
0.002172513026
0.002172512078
0.002172508513
0.002172495652
0.002172452119
0.002172318289
0.002171964869
0.002172513352
0.002172513352
0.002172513352
0.002172513351
0.002172513349
0.002172513339
0.0021725133
0.002172513157
0.002172512638
0.002172510822
0.002172504778
0.002172485994
0.002172433028
0.002172303318
0.002172044906
0.002172513352
0.002172513352
0.002172513352
0.002172513352
0.00217251335
0.002172513342
0.002172513316
0.002172513224
0.00217251291
0.00217251188
0.002172508688
0.00217249947
0.002172475239
0.002172419033
0.002172308319
0.002172513352
0.002172513352
0.002172513352
0.002172513352
0.00217251335
0.002172513345
0.002172513327
0.002172513266
0.002172513067
0.002172512444
0.002172510601
0.002172505522
0.002172492716
0.002172463857
0.002172513352
0.002172513352
0.002172513352
0.002172513352
0.00217251335
0.002172513343
0.002172513318
0.002172513228
0.002172512921
0.00217251191
0.002172508749
0.002172499539
0.002172475126
0.002172418143
0.002172513352
0.002172513352
0.002172513352
0.002172513351
0.002172513349
0.002172513339
0.0021725133
0.002172513157
0.002172512638
0.002172510822
0.002172504778
0.002172485994
0.002172433027
0.002172303316
0.002172513352
0.002172513352
0.002172513352
0.002172513351
0.002172513348
0.002172513334
0.002172513281
0.002172513076
0.002172512296
0.002172509423
0.002172499283
0.00217246565
0.002172364123
0.002172099661
0.002172513352
0.002172513352
0.002172513352
0.002172513351
0.002172513347
0.002172513332
0.002172513272
0.002172513035
0.002172512113
0.00217250861
0.002172495759
0.002172451
0.002172307528
0.002171907945
0.002172513352
0.002172513352
0.002172513352
0.002172513351
0.002172513348
0.002172513334
0.002172513281
0.002172513076
0.002172512296
0.002172509423
0.002172499283
0.00217246565
0.002172364123
0.002172099662
0.002172513352
0.002172513352
0.002172513352
0.002172513351
0.002172513349
0.002172513339
0.0021725133
0.002172513157
0.002172512638
0.002172510822
0.002172504778
0.002172485994
0.002172433027
0.002172303316
0.002172513352
0.002172513352
0.002172513352
0.002172513352
0.00217251335
0.002172513343
0.002172513318
0.002172513228
0.002172512921
0.00217251191
0.002172508749
0.00217249954
0.002172475126
0.002172418142
0.002172513352
0.002172513352
0.002172513352
0.002172513352
0.00217251335
0.002172513345
0.002172513327
0.002172513266
0.002172513067
0.002172512444
0.002172510601
0.002172505523
0.002172492716
0.002172463858
0.002172407154
0.002172513352
0.002172513352
0.002172513352
0.002172513352
0.002172513351
0.002172513347
0.002172513333
0.00217251329
0.002172513152
0.002172512739
0.002172511566
0.002172508458
0.002172500883
0.00217248418
0.002172513352
0.002172513352
0.002172513352
0.002172513352
0.00217251335
0.002172513345
0.002172513327
0.002172513266
0.002172513067
0.002172512444
0.002172510601
0.002172505522
0.002172492716
0.002172463858
0.002172513352
0.002172513352
0.002172513352
0.002172513352
0.00217251335
0.002172513342
0.002172513316
0.002172513224
0.00217251291
0.00217251188
0.002172508688
0.00217249947
0.002172475238
0.002172419031
0.002172513352
0.002172513352
0.002172513352
0.002172513351
0.002172513349
0.00217251334
0.002172513305
0.002172513179
0.002172512733
0.002172511216
0.002172506313
0.002172491517
0.002172450915
0.002172353468
0.002172513352
0.002172513352
0.002172513352
0.002172513351
0.002172513349
0.002172513338
0.0021725133
0.002172513157
0.002172512645
0.002172510869
0.002172504987
0.002172486722
0.002172434946
0.002172306747
0.002172513352
0.002172513352
0.002172513352
0.002172513351
0.002172513349
0.00217251334
0.002172513305
0.002172513179
0.002172512733
0.002172511216
0.002172506313
0.002172491517
0.002172450914
0.002172353469
0.002172513352
0.002172513352
0.002172513352
0.002172513352
0.00217251335
0.002172513342
0.002172513316
0.002172513224
0.00217251291
0.00217251188
0.002172508688
0.00217249947
0.002172475238
0.002172419031
0.002172513352
0.002172513352
0.002172513352
0.002172513352
0.00217251335
0.002172513345
0.002172513327
0.002172513266
0.002172513067
0.002172512444
0.002172510601
0.002172505522
0.002172492716
0.002172463858
0.002172513352
0.002172513352
0.002172513352
0.002172513352
0.002172513351
0.002172513347
0.002172513333
0.00217251329
0.002172513152
0.002172512739
0.002172511566
0.002172508458
0.002172500883
0.002172484179
)
;

boundaryField
{
    top
    {
        type            zeroGradient;
    }
    bottom
    {
        type            zeroGradient;
    }
    side-walls
    {
        type            zeroGradient;
    }
    inlet
    {
        type            zeroGradient;
    }
    outlet
    {
        type            zeroGradient;
    }
    procBoundary0to1
    {
        type            processor;
        value           nonuniform List<scalar> 
97
(
0.002172394319
0.002172407153
0.002172311389
0.002172128454
0.002171860873
0.002171670154
0.002171860876
0.002172128458
0.002172311393
0.002172394322
0.002172407153
0.002172407153
0.002172124817
0.002172044903
0.002171656151
0.002170824837
0.002170042021
0.002170824847
0.002171656162
0.002172124826
0.002172311393
0.002172308317
0.002172044903
0.002172044903
0.002170274574
0.002169290187
0.002167208187
0.002163200312
0.002167208232
0.002170274615
0.002171656163
0.002172128458
0.002172160128
0.002171559645
0.002169290187
0.002169290187
0.002156716979
0.002139802521
0.002136176554
0.002156717147
0.002167208231
0.002170824846
0.002171860875
0.00217204913
0.002171053973
0.002166206161
0.002139802521
0.002139802521
0.002047768664
0.002139802501
0.002136176516
0.002161522554
0.002163200295
0.00217004202
0.002171670155
0.002172160131
0.002171559654
0.002169290251
0.002161522597
0.002139802501
0.002161522554
0.002161522554
0.00216720818
0.002171240178
0.002170824836
0.002171860873
0.00217230832
0.002172044913
0.002171240197
0.002169290256
0.00216620617
0.002169290262
0.002171240178
0.002171240178
0.002171656152
0.002172305803
0.002172128454
0.002172407156
0.002172305807
0.002172044915
0.002171559656
0.002171053977
0.002171559658
0.002172044913
0.002172305803
0.002172305803
0.00217231139
0.002172451362
0.002172451363
0.002172407156
0.00217230832
0.002172160131
0.002172049132
0.002172160131
0.00217230832
0.002172407156
0.002172451362
)
;
    }
}


// ************************************************************************* //
