/*--------------------------------*- C++ -*----------------------------------*\
| =========                 |                                                 |
| \\      /  F ield         | OpenFOAM: The Open Source CFD Toolbox           |
|  \\    /   O peration     | Version:  4.x                                   |
|   \\  /    A nd           | Web:      www.OpenFOAM.org                      |
|    \\/     M anipulation  |                                                 |
\*---------------------------------------------------------------------------*/
FoamFile
{
    version     2.0;
    format      ascii;
    class       volScalarField;
    location    "2000";
    object      H2O;
}
// * * * * * * * * * * * * * * * * * * * * * * * * * * * * * * * * * * * * * //

dimensions      [0 0 0 0 0 0 0];

internalField   nonuniform List<scalar> 
1175
(
9.998278662e-07
9.998279914e-07
9.998286356e-07
9.998313314e-07
9.998408297e-07
9.998738441e-07
9.999857408e-07
1.000352114e-06
1.001504534e-06
1.004965683e-06
1.014789703e-06
1.040819811e-06
1.104265326e-06
1.244188321e-06
1.519150926e-06
9.998278752e-07
9.998280987e-07
9.998289502e-07
9.998321978e-07
9.998442862e-07
9.998873216e-07
1.000037876e-06
1.000548428e-06
1.002217004e-06
1.007434202e-06
1.022863823e-06
1.065397871e-06
1.172651592e-06
1.414367183e-06
1.889382728e-06
9.998280514e-07
9.99828302e-07
9.998294213e-07
9.998337099e-07
9.998499356e-07
9.999104145e-07
1.000129133e-06
1.000900941e-06
1.003535084e-06
1.012156845e-06
1.038885859e-06
1.116075316e-06
1.318996219e-06
1.789723966e-06
2.717100645e-06
9.99828113e-07
9.998283524e-07
9.99829694e-07
9.99835113e-07
9.998556637e-07
9.999336388e-07
1.000224054e-06
1.001281167e-06
1.005016187e-06
1.017717564e-06
1.058771595e-06
1.182657947e-06
1.522646086e-06
2.33867426e-06
3.958025423e-06
9.998282925e-07
9.99828574e-07
9.998299312e-07
9.998356963e-07
9.998580458e-07
9.999438561e-07
1.000267204e-06
1.001460479e-06
1.005747416e-06
1.020620196e-06
1.069867176e-06
1.222801886e-06
1.656330362e-06
2.729826059e-06
4.887411626e-06
9.998281626e-07
9.998284527e-07
9.998297815e-07
9.998351179e-07
9.998554554e-07
9.999334337e-07
1.000223932e-06
1.001281052e-06
1.005016124e-06
1.017717525e-06
1.058771412e-06
1.182656645e-06
1.522640437e-06
2.338654004e-06
3.957973183e-06
9.998280847e-07
9.998282806e-07
9.998293398e-07
9.998336913e-07
9.998499363e-07
9.999103808e-07
1.000129169e-06
1.00090099e-06
1.003535152e-06
1.012156732e-06
1.038885388e-06
1.116073117e-06
1.318987216e-06
1.789694537e-06
2.717028276e-06
9.99827995e-07
9.998281739e-07
9.998289192e-07
9.998322411e-07
9.998442299e-07
9.998873253e-07
1.000038009e-06
1.000548416e-06
1.00221685e-06
1.007434029e-06
1.022863215e-06
1.065395282e-06
1.172641445e-06
1.414335785e-06
1.88930954e-06
9.998277984e-07
9.99828013e-07
9.998287124e-07
9.998312563e-07
9.998407998e-07
9.998738211e-07
9.999858413e-07
1.000352121e-06
1.001504569e-06
1.004965621e-06
1.014789072e-06
1.040817195e-06
1.104255814e-06
1.244158078e-06
1.519076128e-06
9.998279538e-07
9.998280485e-07
9.998289323e-07
9.998321773e-07
9.99844234e-07
9.998873858e-07
1.000037915e-06
1.000548354e-06
1.002216998e-06
1.007434489e-06
1.022864878e-06
1.065401901e-06
1.172665989e-06
1.414422537e-06
9.99828055e-07
9.998282368e-07
9.998292089e-07
9.998332773e-07
9.998489707e-07
9.999071174e-07
1.000118361e-06
1.000866951e-06
1.00343634e-06
1.011905422e-06
1.038376931e-06
1.115498562e-06
1.319959775e-06
1.797235904e-06
2.73834148e-06
9.998281178e-07
9.998284878e-07
9.998296676e-07
9.998352627e-07
9.998572447e-07
9.999420075e-07
1.000263945e-06
1.001462916e-06
1.0058099e-06
1.021012813e-06
1.071620739e-06
1.228911853e-06
1.672446914e-06
2.758712737e-06
4.923094887e-06
9.998284327e-07
9.998286737e-07
9.998303405e-07
9.998372795e-07
9.998656482e-07
9.999784412e-07
1.000422308e-06
1.0021427e-06
1.008671545e-06
1.032723575e-06
1.117631261e-06
1.399228815e-06
2.249321272e-06
4.463781485e-06
8.986277757e-06
9.998283816e-07
9.9982871e-07
9.998304915e-07
9.998381279e-07
9.998693824e-07
9.999950715e-07
1.000497638e-06
1.002483874e-06
1.010205418e-06
1.039529826e-06
1.14713202e-06
1.52186652e-06
2.723084749e-06
6.068691081e-06
1.321982313e-05
9.998284623e-07
9.998287114e-07
9.998303282e-07
9.998372906e-07
9.998656355e-07
9.999783098e-07
1.000422193e-06
1.002142468e-06
1.008671392e-06
1.032723387e-06
1.117630433e-06
1.39922422e-06
2.249298849e-06
4.463694041e-06
8.986035845e-06
9.998282281e-07
9.998285355e-07
9.998298003e-07
9.998354343e-07
9.99857279e-07
9.999419996e-07
1.000263929e-06
1.001462976e-06
1.005810003e-06
1.021012711e-06
1.071619596e-06
1.228905231e-06
1.672416589e-06
2.758600864e-06
4.922800457e-06
9.998280335e-07
9.998281996e-07
9.998293116e-07
9.99833404e-07
9.998490084e-07
9.999072263e-07
1.000118568e-06
1.000867012e-06
1.003436353e-06
1.011905093e-06
1.038375462e-06
1.115491719e-06
1.319931635e-06
1.797137509e-06
2.738067811e-06
9.998278331e-07
9.998280085e-07
9.998287858e-07
9.998320649e-07
9.99844163e-07
9.998873931e-07
1.00003795e-06
1.000548389e-06
1.002217014e-06
1.007434257e-06
1.022863691e-06
1.065396159e-06
1.172643453e-06
1.414338966e-06
1.889312966e-06
9.998281186e-07
9.99828313e-07
9.998294146e-07
9.998336648e-07
9.998499607e-07
9.999103537e-07
1.000129237e-06
1.000901085e-06
1.003535514e-06
1.01215787e-06
1.038889381e-06
1.116088153e-06
1.319040625e-06
1.789868832e-06
9.998282915e-07
9.998285468e-07
9.998298838e-07
9.998353858e-07
9.998572408e-07
9.999420328e-07
1.000263975e-06
1.00146305e-06
1.005810256e-06
1.021013728e-06
1.071624292e-06
1.228926097e-06
1.672503736e-06
2.758947209e-06
9.998283676e-07
9.99828742e-07
9.998305037e-07
9.998383137e-07
9.998700398e-07
9.99999222e-07
1.000516774e-06
1.002563161e-06
1.010494583e-06
1.040350783e-06
1.148034369e-06
1.512551951e-06
2.633180033e-06
5.592782083e-06
1.166260985e-05
9.998286113e-07
9.998291163e-07
9.998312908e-07
9.998413535e-07
9.998835308e-07
1.000061404e-06
1.000805713e-06
1.003898844e-06
1.016600588e-06
1.067751025e-06
1.267290399e-06
2.006535934e-06
4.520420201e-06
1.188031213e-05
2.798875488e-05
9.998286501e-07
9.998290657e-07
9.998315432e-07
9.998425528e-07
9.998896344e-07
1.000090877e-06
1.000951101e-06
1.004619728e-06
1.020200874e-06
1.08577571e-06
1.356934904e-06
2.442046672e-06
6.5243347e-06
2.009286016e-05
5.380640312e-05
9.998286067e-07
9.998290438e-07
9.998313383e-07
9.99841278e-07
9.998834758e-07
1.000061414e-06
1.000805665e-06
1.003898726e-06
1.016600679e-06
1.067750945e-06
1.267287861e-06
2.006518076e-06
4.520318839e-06
1.187985254e-05
2.798726821e-05
9.99828483e-07
9.998288081e-07
9.998306916e-07
9.99838436e-07
9.998701905e-07
9.999992032e-07
1.000516815e-06
1.002563264e-06
1.010494492e-06
1.040350114e-06
1.148030347e-06
1.512528999e-06
2.633064631e-06
5.592292546e-06
1.166103425e-05
9.99828084e-07
9.9982838e-07
9.998298075e-07
9.998353983e-07
9.99857319e-07
9.999420542e-07
1.000264018e-06
1.001463046e-06
1.005810118e-06
1.021013144e-06
1.071620892e-06
1.228908776e-06
1.67242466e-06
2.758614846e-06
4.922809909e-06
9.998279616e-07
9.998281837e-07
9.998293083e-07
9.99833673e-07
9.998500259e-07
9.999103896e-07
1.000129133e-06
1.000900986e-06
1.003535394e-06
1.012157249e-06
1.038886838e-06
1.116076657e-06
1.318994758e-06
1.789706498e-06
2.717039916e-06
9.998282124e-07
9.998285484e-07
9.998298642e-07
9.99835036e-07
9.998555262e-07
9.999335023e-07
1.000224062e-06
1.001281218e-06
1.005016625e-06
1.017719588e-06
1.058779014e-06
1.182684555e-06
1.522736872e-06
2.338955749e-06
9.998283791e-07
9.998287025e-07
9.998303903e-07
9.998372579e-07
9.998655659e-07
9.999784282e-07
1.000422296e-06
1.002142845e-06
1.008672134e-06
1.032726112e-06
1.117642353e-06
1.399274189e-06
2.249500245e-06
4.464441364e-06
9.998286105e-07
9.998289312e-07
9.998311816e-07
9.998413005e-07
9.998835047e-07
1.000061455e-06
1.000805646e-06
1.003898916e-06
1.016601258e-06
1.067754254e-06
1.267304806e-06
2.006604111e-06
4.520744831e-06
1.188188583e-05
9.998288331e-07
9.998293836e-07
9.998322211e-07
9.998453162e-07
9.99902766e-07
1.000154836e-06
1.001264034e-06
1.006157524e-06
1.027740977e-06
1.122427674e-06
1.531808544e-06
3.247466774e-06
1.00017969e-05
3.338387923e-05
9.30294251e-05
9.998288958e-07
9.998295814e-07
9.998326123e-07
9.998472016e-07
9.999118641e-07
1.000201057e-06
1.001507357e-06
1.007469769e-06
1.034998845e-06
1.163536678e-06
1.768989067e-06
4.625099484e-06
1.787148737e-05
7.543158662e-05
0.0002748403168
9.998288456e-07
9.998293644e-07
9.998322871e-07
9.998453671e-07
9.999028311e-07
1.000154862e-06
1.001264132e-06
1.00615761e-06
1.027740948e-06
1.122426874e-06
1.5318009e-06
3.247407046e-06
1.000139329e-05
3.33815193e-05
9.301878748e-05
9.998286041e-07
9.998290076e-07
9.998313571e-07
9.998412857e-07
9.998835651e-07
1.000061409e-06
1.000805818e-06
1.003899019e-06
1.016601229e-06
1.067752669e-06
1.267294749e-06
2.006542251e-06
4.520390685e-06
1.18800046e-05
2.798737753e-05
9.998282454e-07
9.998286008e-07
9.998303122e-07
9.998373366e-07
9.998655438e-07
9.999784086e-07
1.000422403e-06
1.002142832e-06
1.00867213e-06
1.032725152e-06
1.117635979e-06
1.399240314e-06
2.249340062e-06
4.463771144e-06
8.98609892e-06
9.998281128e-07
9.99828459e-07
9.998297073e-07
9.998349957e-07
9.998555829e-07
9.99933583e-07
1.000224038e-06
1.001281231e-06
1.005016496e-06
1.017718699e-06
1.058774751e-06
1.182665929e-06
1.522661734e-06
2.338691168e-06
3.958008097e-06
9.998284507e-07
9.998286462e-07
9.998301029e-07
9.998357206e-07
9.998580774e-07
9.999438773e-07
1.000267217e-06
1.001460685e-06
1.005748173e-06
1.020623091e-06
1.069877828e-06
1.222840461e-06
1.656461434e-06
2.73022564e-06
9.99828557e-07
9.998288752e-07
9.998306696e-07
9.998382482e-07
9.998693748e-07
9.999951388e-07
1.000497808e-06
1.002484261e-06
1.010206436e-06
1.039534404e-06
1.147151382e-06
1.521947012e-06
2.723403967e-06
6.069838596e-06
9.998286627e-07
9.998291611e-07
9.998315767e-07
9.998425369e-07
9.998896885e-07
1.000091153e-06
1.0009513e-06
1.004620172e-06
1.020202424e-06
1.085783291e-06
1.356971888e-06
2.442228926e-06
6.525221303e-06
2.009693941e-05
9.998289193e-07
9.99829442e-07
9.99832669e-07
9.998471298e-07
9.999118965e-07
1.000201032e-06
1.00150751e-06
1.007470091e-06
1.035000271e-06
1.163544721e-06
1.769036059e-06
4.625387591e-06
1.787334507e-05
7.544426897e-05
9.998289738e-07
9.998296069e-07
9.998330798e-07
9.998492876e-07
9.99922296e-07
1.000256679e-06
1.001813403e-06
1.00921763e-06
1.04545144e-06
1.229351985e-06
2.20698667e-06
7.709773716e-06
4.083102592e-05
0.0002554179431
0.001761516045
9.998288797e-07
9.998294587e-07
9.998326514e-07
9.998471857e-07
9.99911718e-07
1.000201044e-06
1.001507363e-06
1.007470144e-06
1.035000292e-06
1.163543587e-06
1.769022179e-06
4.625254731e-06
1.787217015e-05
7.543408213e-05
0.0002748430865
9.998286705e-07
9.998290967e-07
9.998315653e-07
9.998425277e-07
9.998897482e-07
1.000091196e-06
1.000951279e-06
1.004620091e-06
1.020202229e-06
1.085781284e-06
1.356957389e-06
2.44213278e-06
6.524629637e-06
2.009363205e-05
5.380710726e-05
9.998284297e-07
9.998287848e-07
9.998305146e-07
9.99838106e-07
9.998692966e-07
9.999950878e-07
1.000497886e-06
1.00248417e-06
1.010206226e-06
1.039532835e-06
1.147142565e-06
1.521900699e-06
2.723180779e-06
6.068891509e-06
1.321999298e-05
9.998283688e-07
9.998285894e-07
9.998299458e-07
9.998356924e-07
9.998580538e-07
9.999437748e-07
1.000267207e-06
1.001460636e-06
1.005747882e-06
1.020622009e-06
1.0698725e-06
1.222817134e-06
1.656367088e-06
2.729892678e-06
4.887469019e-06
9.998283668e-07
9.998285591e-07
9.998298978e-07
9.99835175e-07
9.998555305e-07
9.999336179e-07
1.000224069e-06
1.001281327e-06
1.005016992e-06
1.017720408e-06
1.058781233e-06
1.18269111e-06
1.522750272e-06
2.338967797e-06
9.998284938e-07
9.998288392e-07
9.998304165e-07
9.998374077e-07
9.998657285e-07
9.999784276e-07
1.00042238e-06
1.002142916e-06
1.008672728e-06
1.032727949e-06
1.117648704e-06
1.399294456e-06
2.249550541e-06
4.464495595e-06
9.998287264e-07
9.998291486e-07
9.998313466e-07
9.99841365e-07
9.998836038e-07
1.000061401e-06
1.000805788e-06
1.003899122e-06
1.016602433e-06
1.06775871e-06
1.26732339e-06
2.006674657e-06
4.520968886e-06
1.188227499e-05
9.998289087e-07
9.998295014e-07
9.998322723e-07
9.998453633e-07
9.999027544e-07
1.000154864e-06
1.001264203e-06
1.006158126e-06
1.027743011e-06
1.122437052e-06
1.531853549e-06
3.247680227e-06
1.000277211e-05
3.338800799e-05
9.998288499e-07
9.998294562e-07
9.998326514e-07
9.99847041e-07
9.999117943e-07
1.000201072e-06
1.001507453e-06
1.00747037e-06
1.035001628e-06
1.163551021e-06
1.76906566e-06
4.625524127e-06
1.787392706e-05
7.544617087e-05
9.998288452e-07
9.998293838e-07
9.998322898e-07
9.998453292e-07
9.999027221e-07
1.000154797e-06
1.001264148e-06
1.006157975e-06
1.027742792e-06
1.122435839e-06
1.531845464e-06
3.247627514e-06
1.000248316e-05
3.338688734e-05
9.998285239e-07
9.99828921e-07
9.998312211e-07
9.998411994e-07
9.998835588e-07
1.000061465e-06
1.000805724e-06
1.003899172e-06
1.01660208e-06
1.067756865e-06
1.267313531e-06
2.006620744e-06
4.520707001e-06
1.188114961e-05
2.799105079e-05
9.998282918e-07
9.998287469e-07
9.998303349e-07
9.998373416e-07
9.998655888e-07
9.999783883e-07
1.000422246e-06
1.002142823e-06
1.008672395e-06
1.032726634e-06
1.117641954e-06
1.399262748e-06
2.249417289e-06
4.464005097e-06
8.986638629e-06
9.998282696e-07
9.998285391e-07
9.998297377e-07
9.998351183e-07
9.998554921e-07
9.999335336e-07
1.000224024e-06
1.001281243e-06
1.005016654e-06
1.017719347e-06
1.05877729e-06
1.182673704e-06
1.522684646e-06
2.338749362e-06
3.958117553e-06
9.998282996e-07
9.998284732e-07
9.998294655e-07
9.998338205e-07
9.998500193e-07
9.999103885e-07
1.000129288e-06
1.000901153e-06
1.003535816e-06
1.012158962e-06
1.038892589e-06
1.116096265e-06
1.319056907e-06
1.789881892e-06
9.998283636e-07
9.9982857e-07
9.998299691e-07
9.998354435e-07
9.998573734e-07
9.999420918e-07
1.000264106e-06
1.001463205e-06
1.005811037e-06
1.021016032e-06
1.071631873e-06
1.228948507e-06
1.672557644e-06
2.759010014e-06
9.998285869e-07
9.998289155e-07
9.998307858e-07
9.998384643e-07
9.99870172e-07
9.999992928e-07
1.000516907e-06
1.002563457e-06
1.010495852e-06
1.04035573e-06
1.148053046e-06
1.512617756e-06
2.633386641e-06
5.593329626e-06
9.998287308e-07
9.998290603e-07
9.998313238e-07
9.998412845e-07
9.998835868e-07
1.000061416e-06
1.00080587e-06
1.003899318e-06
1.016602846e-06
1.067760274e-06
1.267328919e-06
2.006691716e-06
4.521008856e-06
1.188230149e-05
9.998286667e-07
9.998292152e-07
9.998317038e-07
9.998426517e-07
9.998897543e-07
1.000091034e-06
1.000951267e-06
1.004620313e-06
1.020203449e-06
1.085787873e-06
1.356990007e-06
2.442294409e-06
6.525411889e-06
2.009718385e-05
9.998287107e-07
9.998291093e-07
9.998313498e-07
9.998412558e-07
9.998835808e-07
1.000061501e-06
1.00080579e-06
1.003899158e-06
1.016602528e-06
1.067759469e-06
1.267324948e-06
2.006673084e-06
4.520931641e-06
1.188205656e-05
9.998283331e-07
9.998287728e-07
9.998306382e-07
9.998383412e-07
9.998700955e-07
9.999992927e-07
1.000516835e-06
1.002563466e-06
1.010495574e-06
1.040354746e-06
1.148048324e-06
1.512597889e-06
2.633319085e-06
5.593202587e-06
9.998282077e-07
9.998285281e-07
9.998299458e-07
9.998354337e-07
9.998572454e-07
9.999420074e-07
1.000264018e-06
1.001463156e-06
1.005810625e-06
1.021015134e-06
1.071627965e-06
1.228933526e-06
1.672505163e-06
2.758850276e-06
4.923413231e-06
9.998280676e-07
9.998283331e-07
9.998294129e-07
9.998336103e-07
9.998499164e-07
9.999103026e-07
1.000129158e-06
1.000901049e-06
1.003535619e-06
1.012158219e-06
1.038890077e-06
1.11608674e-06
1.319023854e-06
1.789779564e-06
2.717181393e-06
9.998281751e-07
9.998283155e-07
9.998291402e-07
9.99832335e-07
9.998443273e-07
9.998875031e-07
1.00003808e-06
1.00054862e-06
1.002217371e-06
1.007435637e-06
1.022867733e-06
1.065408747e-06
1.172679632e-06
1.414433769e-06
9.998282359e-07
9.998285048e-07
9.998294986e-07
9.998335461e-07
9.998491685e-07
9.999073124e-07
1.000118556e-06
1.000867202e-06
1.003436968e-06
1.011907197e-06
1.038382477e-06
1.115514434e-06
1.319999971e-06
1.797322421e-06
9.998284472e-07
9.998286962e-07
9.998300929e-07
9.998355596e-07
9.998574037e-07
9.9994204e-07
1.000264096e-06
1.001463186e-06
1.005810953e-06
1.021016256e-06
1.071632697e-06
1.228950327e-06
1.672560453e-06
2.759008481e-06
9.998285172e-07
9.998287566e-07
9.998305017e-07
9.998373932e-07
9.998657055e-07
9.999783698e-07
1.000422404e-06
1.002143044e-06
1.008672974e-06
1.032729244e-06
1.117652547e-06
1.399304696e-06
2.249570299e-06
4.464504816e-06
9.998283591e-07
9.998287216e-07
9.998306827e-07
9.998382847e-07
9.998693767e-07
9.999951246e-07
1.000497821e-06
1.002484405e-06
1.010207215e-06
1.039536958e-06
1.147159896e-06
1.521971827e-06
2.723458775e-06
6.069874015e-06
9.998284274e-07
9.99828761e-07
9.998304485e-07
9.998373845e-07
9.998656406e-07
9.999783673e-07
1.000422374e-06
1.002142966e-06
1.008672977e-06
1.032728994e-06
1.117651332e-06
1.399299333e-06
2.249550328e-06
4.46444494e-06
9.998281756e-07
9.998284468e-07
9.998297622e-07
9.998353927e-07
9.998572732e-07
9.999420414e-07
1.00026398e-06
1.001463254e-06
1.00581085e-06
1.021015893e-06
1.071630935e-06
1.228943936e-06
1.672541431e-06
2.758973322e-06
9.998280347e-07
9.998281949e-07
9.998291893e-07
9.998333395e-07
9.998490899e-07
9.999071864e-07
1.000118531e-06
1.000867092e-06
1.003436827e-06
1.011906724e-06
1.038380981e-06
1.115509283e-06
1.319986549e-06
1.797306628e-06
9.998279914e-07
9.998280693e-07
9.998290293e-07
9.998322368e-07
9.998442328e-07
9.998873368e-07
1.000038036e-06
1.000548533e-06
1.002217295e-06
1.007435118e-06
1.022866362e-06
1.06540468e-06
1.172667577e-06
1.414401313e-06
1.889453631e-06
9.998281264e-07
9.998281688e-07
9.998288524e-07
9.998314947e-07
9.998410082e-07
9.998741605e-07
9.999861103e-07
1.0003523e-06
1.001504892e-06
1.004966592e-06
1.014792059e-06
1.040825739e-06
1.104279081e-06
1.244215671e-06
9.998282441e-07
9.998283709e-07
9.998291364e-07
9.998323663e-07
9.998444239e-07
9.998875058e-07
1.000038185e-06
1.000548662e-06
1.002217414e-06
1.007435572e-06
1.022867912e-06
1.065409342e-06
1.172680672e-06
1.414434601e-06
9.998282541e-07
9.998284956e-07
9.998294578e-07
9.998338041e-07
9.998501638e-07
9.999105013e-07
1.000129294e-06
1.000901143e-06
1.003535903e-06
1.012159214e-06
1.038893523e-06
1.116098444e-06
1.319060537e-06
1.789883886e-06
9.998283366e-07
9.998286774e-07
9.998299001e-07
9.998350664e-07
9.998556473e-07
9.999335779e-07
1.000224148e-06
1.001281341e-06
1.00501712e-06
1.017721193e-06
1.058783866e-06
1.182697425e-06
1.522761916e-06
2.338976546e-06
9.998283133e-07
9.998286688e-07
9.99829998e-07
9.998357347e-07
9.998581323e-07
9.999439387e-07
1.000267414e-06
1.001460948e-06
1.005748685e-06
1.020624506e-06
1.069882095e-06
1.222851098e-06
1.656480805e-06
2.730234674e-06
9.998283135e-07
9.998285797e-07
9.998299467e-07
9.998351136e-07
9.998556589e-07
9.999336227e-07
1.000224112e-06
1.001281378e-06
1.005017e-06
1.017721147e-06
1.058783617e-06
1.182695584e-06
1.52275543e-06
2.338957867e-06
9.998280692e-07
9.998283025e-07
9.998293085e-07
9.998336976e-07
9.998498621e-07
9.999103704e-07
1.000129181e-06
1.000901054e-06
1.003535857e-06
1.012159037e-06
1.038892734e-06
1.116096004e-06
1.319053528e-06
1.789868938e-06
9.998279949e-07
9.998281654e-07
9.998289341e-07
9.998322249e-07
9.9984435e-07
9.99887401e-07
1.000038058e-06
1.000548397e-06
1.002217249e-06
1.007435318e-06
1.022867076e-06
1.065407012e-06
1.172675408e-06
1.414427782e-06
9.998278249e-07
9.998278902e-07
9.998285924e-07
9.998313668e-07
9.998408615e-07
9.998739802e-07
9.999859445e-07
1.000352206e-06
1.001504767e-06
1.004966465e-06
1.014791435e-06
1.040824068e-06
1.104275483e-06
1.244213731e-06
)
;

boundaryField
{
    top
    {
        type            zeroGradient;
    }
    bottom
    {
        type            zeroGradient;
    }
    side-walls
    {
        type            zeroGradient;
    }
    inlet
    {
        type            zeroGradient;
    }
    outlet
    {
        type            zeroGradient;
    }
    procBoundary0to1
    {
        type            processor;
        value           nonuniform List<scalar> 
97
(
1.996971018e-06
1.889454067e-06
2.691563393e-06
4.223667495e-06
6.464524549e-06
8.061550627e-06
6.464460379e-06
4.223581876e-06
2.691484625e-06
1.996913473e-06
1.889454067e-06
1.889454067e-06
4.254174239e-06
4.923450997e-06
8.179131533e-06
1.514052203e-05
2.16951151e-05
1.514027023e-05
8.17885273e-06
4.253996401e-06
2.691490813e-06
2.717211382e-06
4.923450997e-06
4.923450997e-06
1.974891178e-05
2.799175373e-05
4.542543693e-05
7.898190179e-05
4.542428893e-05
1.974801967e-05
8.1788652e-06
4.223599576e-06
3.958231095e-06
8.986932673e-06
2.799175373e-05
2.799175373e-05
0.0001332706624
0.0002748807513
0.00030524268
0.000133266479
4.542439986e-05
1.514034838e-05
6.46451032e-06
4.88772506e-06
1.322097532e-05
5.381248943e-05
0.0002748807513
0.0002748807513
0.001045421203
0.0002748801014
0.0003052431964
9.30294845e-05
7.898237922e-05
2.169527937e-05
8.061623521e-06
3.958208476e-06
8.986734381e-06
2.798983357e-05
9.302809297e-05
0.0002748801014
9.30294845e-05
9.30294845e-05
4.542552526e-05
1.166261056e-05
1.514071481e-05
6.464616531e-06
2.717165776e-06
4.923129166e-06
1.166196949e-05
2.79898393e-05
5.381244614e-05
2.798972061e-05
1.166261056e-05
1.166261056e-05
8.179126362e-06
2.738340681e-06
4.223724724e-06
1.889378582e-06
2.738206752e-06
4.923122494e-06
8.986734789e-06
1.322096063e-05
8.986662111e-06
4.923168666e-06
2.738340681e-06
2.738340681e-06
2.691569172e-06
1.519152427e-06
1.519114774e-06
1.889380015e-06
2.717167835e-06
3.958218498e-06
4.887723248e-06
3.958190234e-06
2.717158712e-06
1.889395229e-06
1.519152427e-06
)
;
    }
}


// ************************************************************************* //
