/*--------------------------------*- C++ -*----------------------------------*\
| =========                 |                                                 |
| \\      /  F ield         | OpenFOAM: The Open Source CFD Toolbox           |
|  \\    /   O peration     | Version:  4.x                                   |
|   \\  /    A nd           | Web:      www.OpenFOAM.org                      |
|    \\/     M anipulation  |                                                 |
\*---------------------------------------------------------------------------*/
FoamFile
{
    version     2.0;
    format      ascii;
    class       volScalarField;
    location    "2000";
    object      molarConc;
}
// * * * * * * * * * * * * * * * * * * * * * * * * * * * * * * * * * * * * * //

dimensions      [0 -3 0 0 1 0 0];

internalField   nonuniform List<scalar> 
1175
(
9.96328087
9.963280453
9.963280182
9.963279527
9.963279592
9.963278752
9.963279662
9.963279838
9.963279469
9.963279881
9.963281253
9.963282326
9.963281247
9.963282133
9.963280817
9.963272928
9.963273315
9.963273556
9.96327373
9.963273912
9.963274171
9.963273665
9.963273584
9.963274204
9.963274463
9.963274431
9.963273325
9.963271817
9.963272396
9.963270731
9.963297475
9.963297165
9.963296707
9.963297012
9.963296746
9.963296679
9.963297012
9.963297933
9.963297774
9.963297563
9.963298379
9.963298029
9.963296546
9.963293916
9.963289441
9.963266924
9.963267237
9.963268144
9.963268844
9.963269379
9.96326981
9.963270741
9.963270166
9.963270489
9.963271565
9.963270933
9.96327111
9.963269813
9.963266084
9.963260252
9.963271993
9.963272049
9.963272374
9.963273209
9.963272789
9.963272207
9.963271426
9.963272055
9.963272319
9.963273011
9.963274018
9.963273531
9.963271469
9.963267623
9.96325958
9.963287292
9.96328729
9.963287156
9.963287016
9.963286684
9.963286291
9.963285886
9.963285663
9.963285561
9.963284645
9.963283924
9.963284129
9.963283064
9.963279998
9.963272356
9.963286136
9.963285736
9.963286189
9.96328639
9.963285665
9.963287046
9.96328721
9.963288354
9.963288468
9.963287622
9.963286831
9.963286691
9.963285497
9.963283374
9.963281185
9.963266462
9.963265076
9.963265636
9.963264016
9.963264619
9.963264222
9.963264156
9.963265406
9.963263726
9.963264346
9.963264087
9.963264771
9.963264026
9.96326251
9.963261812
9.963276492
9.963278023
9.963277652
9.963276419
9.96327693
9.96327605
9.963276535
9.963275757
9.963276366
9.963276054
9.963275861
9.963275126
9.963274399
9.963274752
9.963274236
9.963263177
9.963263649
9.963263583
9.963264361
9.963265862
9.963265337
9.963264618
9.963264864
9.963265901
9.963264685
9.96326519
9.963264618
9.963264236
9.963263047
9.963273531
9.963272836
9.96327344
9.963273187
9.963274197
9.963272924
9.963272493
9.963273126
9.963272778
9.963273981
9.96327277
9.963273224
9.96327376
9.963270784
9.963267046
9.963267919
9.963269318
9.963268773
9.963268971
9.963270244
9.963270703
9.963270325
9.963270374
9.963269406
9.963269847
9.963269457
9.963268908
9.963267475
9.963263935
9.963256307
9.963271363
9.963272186
9.963272114
9.963273612
9.963273577
9.963273825
9.963273626
9.963273816
9.96327345
9.963272582
9.963271986
9.963272486
9.963268517
9.963260593
9.963243151
9.963268701
9.963268393
9.963268408
9.963268782
9.963268866
9.963268165
9.963267319
9.963267464
9.963268205
9.963267499
9.963267775
9.963265798
9.963260577
9.963247318
9.963222055
9.963283574
9.96328276
9.963281496
9.963281838
9.963281941
9.963281857
9.963280545
9.96328018
9.963280777
9.963280859
9.963281413
9.963280199
9.963276619
9.963268234
9.963250688
9.96325637
9.96325688
9.963256464
9.963256157
9.963255559
9.96325416
9.963254311
9.963254794
9.963255036
9.963253911
9.963254651
9.96325479
9.963253145
9.963248166
9.963239726
9.963288354
9.963286641
9.963287203
9.963287158
9.963288584
9.963289716
9.963290318
9.963290306
9.963289539
9.963289227
9.963289961
9.963290053
9.963290296
9.963288435
9.963283336
9.963265583
9.963265533
9.963266168
9.963266723
9.963268251
9.963268869
9.963267942
9.963268293
9.963268638
9.963268418
9.963268621
9.963267811
9.963268239
9.963266121
9.96326396
9.963258664
9.963258266
9.963258012
9.963257845
9.963259046
9.963258635
9.963258926
9.96325828
9.963258794
9.963258634
9.963257542
9.963257698
9.963255175
9.963252613
9.96328638
9.963284843
9.96328475
9.963283728
9.963283379
9.963284936
9.963284497
9.96328542
9.963285891
9.963285488
9.963285764
9.963285272
9.963282968
9.96327856
9.963271378
9.963270523
9.963270408
9.963271052
9.963270591
9.963270783
9.963272385
9.963272417
9.963272635
9.963273248
9.963272481
9.963270922
9.963267698
9.963256666
9.963233057
9.963281727
9.963282601
9.963281235
9.963281601
9.963281871
9.963281823
9.963281447
9.963281215
9.963280167
9.963278986
9.96327877
9.96327563
9.963265823
9.963238062
9.963177252
9.963275814
9.963275079
9.963274983
9.963275434
9.963275042
9.963275338
9.963277089
9.963277349
9.963276214
9.963276935
9.963275912
9.963270825
9.963255398
9.96320587
9.963080053
9.963284437
9.963284621
9.963285325
9.963285519
9.963284188
9.963284255
9.963283783
9.96328502
9.963285968
9.963286028
9.963286277
9.963283308
9.963273534
9.963247203
9.963186411
9.963261628
9.963260281
9.963261365
9.963261912
9.963261519
9.963262558
9.963261763
9.963261678
9.963261102
9.963260601
9.963258242
9.963257696
9.963252271
9.963241537
9.963219678
9.963275383
9.96327605
9.963275923
9.9632763
9.963276466
9.963276665
9.96327831
9.963276403
9.963275027
9.963275026
9.96327545
9.963274143
9.963272025
9.963268156
9.963258805
9.963297065
9.963298647
9.963297958
9.963299482
9.963299392
9.963299821
9.963300179
9.96329974
9.963300246
9.963299408
9.963299408
9.963300066
9.963298739
9.963296556
9.963293416
9.963276095
9.963276173
9.963277612
9.963277368
9.963276844
9.963277323
9.963277572
9.963278179
9.963278717
9.963278869
9.963280189
9.963280067
9.963278438
9.963274884
9.963282035
9.963281632
9.963282302
9.963281939
9.96328194
9.963283265
9.963283757
9.963282618
9.963282071
9.96328106
9.963280775
9.963278838
9.963275707
9.963268005
9.963275943
9.963276134
9.963276274
9.963276923
9.963277001
9.963277457
9.963277334
9.963276993
9.963276777
9.963277286
9.963275523
9.963272437
9.963262174
9.963236108
9.963281511
9.963283076
9.963283239
9.963282238
9.963281336
9.963282783
9.963283315
9.963285331
9.963285185
9.963285477
9.96328485
9.963276561
9.963251277
9.963163235
9.962941704
9.963290015
9.963291768
9.963292352
9.963293767
9.963293603
9.963293375
9.963294022
9.963292292
9.963293484
9.963293808
9.963292178
9.963280886
9.963231746
9.963016835
9.962400613
9.963282847
9.96328289
9.963282613
9.9632835
9.963282267
9.963281955
9.963281143
9.963281283
9.963280133
9.96328155
9.963281069
9.963273499
9.963249166
9.963162984
9.962940258
9.963294884
9.963294948
9.963296693
9.963296208
9.963296348
9.963296495
9.963296228
9.963296097
9.963294086
9.963293593
9.963293257
9.963289292
9.963279358
9.963250625
9.963190962
9.963249993
9.963249488
9.963250256
9.96325134
9.963251223
9.963250642
9.963251101
9.963252171
9.963254045
9.9632546
9.96325382
9.963252593
9.963249265
9.963241203
9.963224936
9.963267755
9.963267617
9.963267956
9.9632689
9.96326812
9.963268047
9.963268224
9.963268666
9.963269218
9.963267512
9.963268458
9.963268545
9.963267146
9.963264649
9.963257948
9.963282703
9.963282773
9.963282686
9.963282792
9.963281064
9.963280852
9.963281026
9.963281907
9.963282128
9.963281516
9.963281054
9.963280158
9.963276761
9.963272618
9.963278371
9.963278884
9.963279296
9.9632791
9.963278906
9.963278412
9.963278713
9.963280194
9.963278614
9.963280064
9.963278985
9.963277993
9.963272856
9.9632599
9.963271567
9.963271079
9.963270375
9.963270485
9.963271222
9.963271401
9.963271053
9.963270884
9.963269813
9.963269558
9.963268497
9.963263736
9.963248024
9.963197967
9.963286934
9.963285947
9.96328609
9.963285941
9.963287861
9.963285588
9.963285649
9.963285201
9.963284357
9.96328476
9.963282731
9.963273155
9.963222429
9.963007891
9.963250535
9.963251021
9.96325179
9.963252864
9.96325295
9.963252117
9.96325358
9.96325462
9.963253581
9.9632519
9.963248371
9.963229411
9.963105535
9.962304432
10.04782866
9.963241512
9.963242512
9.963241833
9.963241287
9.963241251
9.96324201
9.963242108
9.963242949
9.963241352
9.963240603
9.963240129
9.963230458
9.963180544
9.962966112
9.962351167
9.96327968
9.96327904
9.963278126
9.963279233
9.963280877
9.963280316
9.963280376
9.963280546
9.96328154
9.963281298
9.963279351
9.963274409
9.963259633
9.963208783
9.963082961
9.963289102
9.963288298
9.963289172
9.96328938
9.963290151
9.963291186
9.963291791
9.963290681
9.963292115
9.963291592
9.963291957
9.963289869
9.963284064
9.963271531
9.963244513
9.963299481
9.963299687
9.96329931
9.963297763
9.963298484
9.963297891
9.963297352
9.96329705
9.963296613
9.963296877
9.963296914
9.963297656
9.963296317
9.963290825
9.963282659
9.963301549
9.963301298
9.963302209
9.963302242
9.963302783
9.963303128
9.963302299
9.963303299
9.963305191
9.963304304
9.963301898
9.963302527
9.963301475
9.963298578
9.963279389
9.963278719
9.963277471
9.963277205
9.963278483
9.963278142
9.963277973
9.963277307
9.963277132
9.96327744
9.963277235
9.963277327
9.963275626
9.963267145
9.963258944
9.963259659
9.963260138
9.963260121
9.963260528
9.963259445
9.96325975
9.96325871
9.963260186
9.963258259
9.963256602
9.963254503
9.963245032
9.963218134
9.963293968
9.963294017
9.963293628
9.963293678
9.963293442
9.963293779
9.963294944
9.963295442
9.963295764
9.963296087
9.963294318
9.963288203
9.963263482
9.96317692
9.963249935
9.963249938
9.963249652
9.96325085
9.96325046
9.96325044
9.963251953
9.963252409
9.963251812
9.963250992
9.963248439
9.963237531
9.963187881
9.962973991
9.963299414
9.963300035
9.963300178
9.963298604
9.96329936
9.963301219
9.963300054
9.963300831
9.963300606
9.963300914
9.963300847
9.963296509
9.963269904
9.963182493
9.963289778
9.963288929
9.963289394
9.963289496
9.963289106
9.963290255
9.963290051
9.963290406
9.96328955
9.963288861
9.963288807
9.963285954
9.963276632
9.963248544
9.963188488
9.963312706
9.96331225
9.963311751
9.963310674
9.963309183
9.963309916
9.963310742
9.963311901
9.963312274
9.963311803
9.963310503
9.963310372
9.963306432
9.963298458
9.963280688
9.963281743
9.96328239
9.963281131
9.963281811
9.96328108
9.963281965
9.963281986
9.963282365
9.963283313
9.963283045
9.963282325
9.963281379
9.963279847
9.963278145
9.96327143
9.963272519
9.96327211
9.963272023
9.963271547
9.963271266
9.96327126
9.963271473
9.963271186
9.963270748
9.963271083
9.963269763
9.963268688
9.963267255
9.96326592
9.963248646
9.963247421
9.963246758
9.963246047
9.963246754
9.963248436
9.963247997
9.963247285
9.963248848
9.9632493
9.963248735
9.963248248
9.963246413
9.96324136
9.963234103
9.963234645
9.963235981
9.963235758
9.963236256
9.963236185
9.963235087
9.963234814
9.963234511
9.963235333
9.963234493
9.963233952
9.963229375
9.963218875
9.963271306
9.963271035
9.963270414
9.963270474
9.963270538
9.963270022
9.963269885
9.963270661
9.963271352
9.963270826
9.963271052
9.963266771
9.963256315
9.963230224
9.963290405
9.963290138
9.96328818
9.963288442
9.963288412
9.963287491
9.963287422
9.963287937
9.963288565
9.963288006
9.963285852
9.963282256
9.963266511
9.96321583
9.963285887
9.963286085
9.963284322
9.963284544
9.96328517
9.963284716
9.963285569
9.963283562
9.963283776
9.96328275
9.963282195
9.963279353
9.963270071
9.963243173
9.963264966
9.963265482
9.963265315
9.963265691
9.963265303
9.963264816
9.963265294
9.963264593
9.963264366
9.963264741
9.963263478
9.96326205
9.963258527
9.963246983
9.963296507
9.9632959
9.963297187
9.963298007
9.963296661
9.963297633
9.963297077
9.963297
9.963297454
9.963297871
9.963298457
9.963299579
9.963295299
9.963291837
9.963282182
9.963283352
9.963284326
9.963284447
9.963283224
9.963283749
9.963282942
9.9632833
9.963283909
9.963284499
9.963285686
9.963286297
9.96328553
9.963284443
9.963282887
9.963280177
9.963268878
9.963268519
9.963269385
9.963269867
9.963269627
9.963269788
9.96326874
9.963268603
9.963267774
9.963267714
9.963266751
9.963265627
9.963265983
9.963265131
9.963271094
9.963271994
9.963271234
9.963270414
9.963270047
9.96326892
9.963269374
9.963269376
9.963270878
9.963270435
9.96327078
9.963269712
9.963268508
9.963267807
9.963283817
9.96328447
9.96328366
9.963283019
9.963282901
9.963281654
9.963282055
9.963281147
9.963279748
9.963279753
9.963279736
9.963279399
9.963277777
9.963275853
9.963285603
9.963285613
9.963286887
9.963286243
9.963286923
9.963286794
9.963287361
9.963286658
9.963285836
9.963285616
9.963283009
9.963283165
9.963280439
9.963272746
9.963267905
9.963269305
9.96327235
9.963272376
9.963272938
9.96327247
9.963272728
9.963273463
9.963272923
9.963271869
9.963271117
9.963268944
9.96326297
9.963251164
9.963264979
9.963264634
9.963265585
9.963263741
9.963262335
9.963262583
9.963263546
9.963262066
9.963261408
9.96326176
9.963262587
9.963261372
9.96325796
9.963249977
9.96329066
9.963290756
9.96329102
9.96329068
9.963289526
9.963289236
9.96328839
9.963288198
9.963288265
9.96328758
9.963286835
9.963284576
9.96328238
9.963278673
9.96327235
9.963271086
9.96327122
9.963272437
9.963273338
9.963271877
9.963271776
9.963272358
9.963273081
9.963272984
9.963272739
9.963272295
9.963271915
9.963268801
9.963271848
9.963271203
9.963271722
9.963273163
9.963272408
9.963272836
9.963273071
9.963272138
9.96327216
9.963271804
9.963271492
9.963271073
9.963271776
9.963270527
9.963269795
9.963281748
9.963281522
9.963281704
9.963281964
9.963281045
9.963280117
9.963279761
9.963280583
9.963280396
9.963279732
9.963279443
9.963278489
9.963278397
9.963277933
9.963282587
9.963281748
9.963280709
9.963280156
9.963281012
9.963280715
9.963281488
9.963281343
9.963280972
9.963280816
9.963279425
9.963279168
9.963280402
9.963280068
9.963279249
9.96328057
9.963279396
9.963280367
9.963281354
9.963280778
9.963280395
9.963279303
9.963278984
9.963278489
9.963278993
9.963278853
9.963278983
9.96327685
9.963268641
9.963269597
9.9632686
9.963268044
9.963267971
9.96326775
9.963268992
9.963268998
9.963269012
9.963267895
9.963267703
9.963266541
9.963266415
9.963262833
9.96328946
9.963289723
9.963289059
9.963289558
9.96328997
9.963289633
9.963289078
9.963290285
9.963291313
9.963290727
9.963291305
9.96329015
9.963289778
9.963286416
9.963248424
9.963248303
9.963249718
9.963249404
9.963249524
9.963249641
9.96324914
9.963249632
9.96325043
9.963250302
9.963250788
9.96325126
9.963250878
9.963247028
9.963277854
9.963277445
9.963277425
9.963277046
9.963277645
9.963277123
9.963276691
9.963275362
9.963276233
9.963276923
9.963274764
9.963275051
9.963274831
9.963273906
9.963305111
9.963305218
9.963304674
9.963304901
9.963304759
9.963304067
9.963304711
9.963305138
9.963304718
9.963305375
9.963304854
9.963304631
9.963304377
9.963302547
9.963274147
9.963274782
9.963274935
9.963275248
9.963275428
9.963275565
9.963275589
9.963275425
9.96327542
9.963275887
9.963276401
9.963276634
9.963276824
9.963275306
)
;

boundaryField
{
    top
    {
        type            calculated;
        value           nonuniform List<scalar> 
134
(
9.963276492
9.963265583
9.963297065
9.963267755
9.963299481
9.963281743
9.963283352
9.963271848
9.963274147
9.963278023
9.963265533
9.963298647
9.963267617
9.963299687
9.96328239
9.963284326
9.963271203
9.963274782
9.963277652
9.963266168
9.963297958
9.963267956
9.96329931
9.963281131
9.963284447
9.963271722
9.963274935
9.963276419
9.963266723
9.963299482
9.9632689
9.963297763
9.963281811
9.963283224
9.963273163
9.963275248
9.96327693
9.963268251
9.963299392
9.96326812
9.963298484
9.96328108
9.963283749
9.963272408
9.963275428
9.96327605
9.963268869
9.963299821
9.963268047
9.963297891
9.963281965
9.963282942
9.963272836
9.963275565
9.963276535
9.963267942
9.963300179
9.963268224
9.963297352
9.963281986
9.9632833
9.963273071
9.963275589
9.963275757
9.963268293
9.96329974
9.963268666
9.96329705
9.963282365
9.963283909
9.963272138
9.963275425
9.963276366
9.963268638
9.963300246
9.963269218
9.963296613
9.963283313
9.963284499
9.96327216
9.96327542
9.963276054
9.963268418
9.963299408
9.963267512
9.963296877
9.963283045
9.963285686
9.963271804
9.963275887
9.963275861
9.963268621
9.963299408
9.963268458
9.963296914
9.963282325
9.963286297
9.963271492
9.963276401
9.963275126
9.963267811
9.963300066
9.963268545
9.963297656
9.963281379
9.96328553
9.963271073
9.963276634
9.963274399
9.963268239
9.963298739
9.963267146
9.963296317
9.963279847
9.963284443
9.963271776
9.963276824
9.963274752
9.963266121
9.963296556
9.963264649
9.963290825
9.963278145
9.963282887
9.963270527
9.963275306
9.963274236
9.96326396
9.963293416
9.963257948
9.963282659
9.96327143
9.963280177
9.963269795
)
;
    }
    bottom
    {
        type            calculated;
        value           nonuniform List<scalar> 
127
(
9.96328087
9.963263177
9.963258664
9.963276095
9.963282703
9.963301549
9.963272519
9.963268878
9.963281748
9.963280453
9.963263649
9.963258266
9.963276173
9.963282773
9.963301298
9.96327211
9.963268519
9.963281522
9.963280182
9.963263583
9.963258012
9.963277612
9.963282686
9.963302209
9.963272023
9.963269385
9.963281704
9.963279527
9.963264361
9.963257845
9.963277368
9.963282792
9.963302242
9.963271547
9.963269867
9.963281964
9.963279592
9.963265862
9.963259046
9.963276844
9.963281064
9.963302783
9.963271266
9.963269627
9.963281045
9.963278752
9.963265337
9.963258635
9.963277323
9.963280852
9.963303128
9.96327126
9.963269788
9.963280117
9.963279662
9.963264618
9.963258926
9.963277572
9.963281026
9.963302299
9.963271473
9.96326874
9.963279761
9.963279838
9.963264864
9.96325828
9.963278179
9.963281907
9.963303299
9.963271186
9.963268603
9.963280583
9.963279469
9.963265901
9.963258794
9.963278717
9.963282128
9.963305191
9.963270748
9.963267774
9.963280396
9.963279881
9.963264685
9.963258634
9.963278869
9.963281516
9.963304304
9.963271083
9.963267714
9.963279732
9.963281253
9.96326519
9.963257542
9.963280189
9.963281054
9.963301898
9.963269763
9.963266751
9.963279443
9.963282326
9.963264618
9.963257698
9.963280067
9.963280158
9.963302527
9.963268688
9.963265627
9.963278489
9.963281247
9.963264236
9.963255175
9.963278438
9.963276761
9.963301475
9.963267255
9.963265983
9.963278397
9.963282133
9.963263047
9.963252613
9.963274884
9.963272618
9.963298578
9.96326592
9.963265131
9.963277933
9.963280817
)
;
    }
    side-walls
    {
        type            calculated;
        value           nonuniform List<scalar> 
261
(
9.96328087
9.963272928
9.963297475
9.963266924
9.963271993
9.963287292
9.963286136
9.963266462
9.963276492
9.963280453
9.963273315
9.963297165
9.963267237
9.963272049
9.96328729
9.963285736
9.963265076
9.963278023
9.963280182
9.963273556
9.963296707
9.963268144
9.963272374
9.963287156
9.963286189
9.963265636
9.963277652
9.963279527
9.96327373
9.963297012
9.963268844
9.963273209
9.963287016
9.96328639
9.963264016
9.963276419
9.963279592
9.963273912
9.963296746
9.963269379
9.963272789
9.963286684
9.963285665
9.963264619
9.96327693
9.963278752
9.963274171
9.963296679
9.96326981
9.963272207
9.963286291
9.963287046
9.963264222
9.96327605
9.963279662
9.963273665
9.963297012
9.963270741
9.963271426
9.963285886
9.96328721
9.963264156
9.963276535
9.963279838
9.963273584
9.963297933
9.963270166
9.963272055
9.963285663
9.963288354
9.963265406
9.963275757
9.963279469
9.963274204
9.963297774
9.963270489
9.963272319
9.963285561
9.963288468
9.963263726
9.963276366
9.963279881
9.963274463
9.963297563
9.963271565
9.963273011
9.963284645
9.963287622
9.963264346
9.963276054
9.963281253
9.963274431
9.963298379
9.963270933
9.963274018
9.963283924
9.963286831
9.963264087
9.963275861
9.963282326
9.963273325
9.963298029
9.96327111
9.963273531
9.963284129
9.963286691
9.963264771
9.963275126
9.963281247
9.963271817
9.963296546
9.963269813
9.963271469
9.963283064
9.963285497
9.963264026
9.963274399
9.963282133
9.963272396
9.963293916
9.963266084
9.963267623
9.963279998
9.963283374
9.96326251
9.963274752
9.963280817
9.963270731
9.963289441
9.963260252
9.96325958
9.963272356
9.963281185
9.963261812
9.963274236
9.963281748
9.963282587
9.963279249
9.963268641
9.96328946
9.963248424
9.963277854
9.963305111
9.963274147
9.963281522
9.963281748
9.96328057
9.963269597
9.963289723
9.963248303
9.963277445
9.963305218
9.963274782
9.963281704
9.963280709
9.963279396
9.9632686
9.963289059
9.963249718
9.963277425
9.963304674
9.963274935
9.963281964
9.963280156
9.963280367
9.963268044
9.963289558
9.963249404
9.963277046
9.963304901
9.963275248
9.963281045
9.963281012
9.963281354
9.963267971
9.96328997
9.963249524
9.963277645
9.963304759
9.963275428
9.963280117
9.963280715
9.963280778
9.96326775
9.963289633
9.963249641
9.963277123
9.963304067
9.963275565
9.963279761
9.963281488
9.963280395
9.963268992
9.963289078
9.96324914
9.963276691
9.963304711
9.963275589
9.963280583
9.963281343
9.963279303
9.963268998
9.963290285
9.963249632
9.963275362
9.963305138
9.963275425
9.963280396
9.963280972
9.963278984
9.963269012
9.963291313
9.96325043
9.963276233
9.963304718
9.96327542
9.963279732
9.963280816
9.963278489
9.963267895
9.963290727
9.963250302
9.963276923
9.963305375
9.963275887
9.963279443
9.963279425
9.963278993
9.963267703
9.963291305
9.963250788
9.963274764
9.963304854
9.963276401
9.963278489
9.963279168
9.963278853
9.963266541
9.96329015
9.96325126
9.963275051
9.963304631
9.963276634
9.963278397
9.963280402
9.963278983
9.963266415
9.963289778
9.963250878
9.963274831
9.963304377
9.963276824
9.963277933
9.963280068
9.96327685
9.963262833
9.963286416
9.963247028
9.963273906
9.963302547
9.963275306
)
;
    }
    inlet
    {
        type            calculated;
        value           nonuniform List<scalar> 
81
(
9.96328087
9.963272928
9.963297475
9.963266924
9.963271993
9.963287292
9.963286136
9.963266462
9.963276492
9.963263177
9.963273531
9.963267919
9.963271363
9.963268701
9.963283574
9.96325637
9.963288354
9.963265583
9.963258664
9.96328638
9.963271378
9.963281727
9.963275814
9.963284437
9.963261628
9.963275383
9.963297065
9.963276095
9.963282035
9.963275943
9.963281511
9.963290015
9.963282847
9.963294884
9.963249993
9.963267755
9.963282703
9.963278371
9.963271567
9.963286934
9.963250535
9.963241512
9.96327968
9.963289102
9.963299481
9.963301549
9.963279389
9.963258944
9.963293968
9.963249935
9.963299414
9.963289778
9.963312706
9.963281743
9.963272519
9.963248646
9.963234103
9.963271306
9.963290405
9.963285887
9.963264966
9.963296507
9.963283352
9.963268878
9.963271094
9.963283817
9.963285603
9.963267905
9.963264979
9.96329066
9.96327235
9.963271848
9.963281748
9.963282587
9.963279249
9.963268641
9.96328946
9.963248424
9.963277854
9.963305111
9.963274147
)
;
    }
    outlet
    {
        type            calculated;
        value           nonuniform 0();
    }
    procBoundary0to1
    {
        type            processor;
        value           nonuniform List<scalar> 
97
(
9.963278491
9.963260161
9.963267342
9.963285295
9.96325234
9.963247701
9.963262464
9.963276588
9.963259262
9.963271898
9.963260161
9.963260161
9.963260852
9.963268879
9.963245243
9.963220913
9.963191688
9.963227974
9.96322713
9.963277106
9.963261097
9.963250548
9.963268879
9.963268879
9.963203108
9.963176377
9.963111724
9.962988919
9.963121077
9.963189332
9.963246228
9.963287851
9.96326814
9.963251063
9.963176377
9.963176377
9.962789786
9.96239485
9.962291523
9.9627903
9.963127231
9.963201314
9.963248723
9.963265358
9.963231542
9.963073391
9.96239485
9.96239485
10.05055869
9.962361083
9.962240507
9.962960267
9.962987614
9.963212796
9.963271259
9.963291681
9.963251329
9.963157861
9.962953661
9.962361083
9.962960267
9.962960267
9.963122699
9.963224453
9.963257716
9.963260857
9.963262746
9.963232121
9.963196296
9.963169949
9.963090878
9.96318185
9.963224453
9.963224453
9.96326988
9.963264774
9.9632744
9.96326399
9.963263535
9.963267622
9.963255244
9.963224766
9.963233383
9.963271669
9.963264774
9.963264774
9.963267013
9.963274666
9.963276729
9.963277908
9.963274628
9.963257446
9.963278619
9.96324185
9.963269753
9.963300771
9.963274666
)
;
    }
}


// ************************************************************************* //
