/*--------------------------------*- C++ -*----------------------------------*\
| =========                 |                                                 |
| \\      /  F ield         | OpenFOAM: The Open Source CFD Toolbox           |
|  \\    /   O peration     | Version:  4.x                                   |
|   \\  /    A nd           | Web:      www.OpenFOAM.org                      |
|    \\/     M anipulation  |                                                 |
\*---------------------------------------------------------------------------*/
FoamFile
{
    version     2.0;
    format      ascii;
    class       volScalarField;
    location    "2000";
    object      N2;
}
// * * * * * * * * * * * * * * * * * * * * * * * * * * * * * * * * * * * * * //

dimensions      [0 0 0 0 0 0 0];

internalField   nonuniform List<scalar> 
1175
(
0.6030939065
0.6030939065
0.6030939065
0.6030939065
0.6030939065
0.6030939064
0.6030939062
0.6030939055
0.6030939031
0.6030938961
0.6030938761
0.6030938232
0.6030936942
0.6030934098
0.6030928511
0.6030939065
0.6030939065
0.6030939065
0.6030939065
0.6030939065
0.6030939064
0.6030939061
0.6030939051
0.6030939017
0.6030938911
0.6030938597
0.6030937732
0.6030935553
0.6030930641
0.6030920991
0.6030939065
0.6030939065
0.6030939065
0.6030939065
0.6030939065
0.6030939064
0.6030939059
0.6030939043
0.603093899
0.6030938815
0.6030938271
0.6030936703
0.603093258
0.6030923018
0.6030904181
0.6030939065
0.6030939065
0.6030939065
0.6030939065
0.6030939065
0.6030939063
0.6030939057
0.6030939036
0.603093896
0.6030938702
0.6030937867
0.603093535
0.6030928444
0.6030911871
0.6030878985
0.6030939065
0.6030939065
0.6030939065
0.6030939065
0.6030939065
0.6030939063
0.6030939056
0.6030939032
0.6030938945
0.6030938643
0.6030937642
0.6030934535
0.603092573
0.6030903929
0.6030860119
0.6030939065
0.6030939065
0.6030939065
0.6030939065
0.6030939065
0.6030939063
0.6030939057
0.6030939036
0.603093896
0.6030938702
0.6030937867
0.603093535
0.6030928444
0.6030911871
0.6030878986
0.6030939065
0.6030939065
0.6030939065
0.6030939065
0.6030939065
0.6030939064
0.6030939059
0.6030939043
0.603093899
0.6030938815
0.6030938271
0.6030936703
0.603093258
0.6030923018
0.6030904182
0.6030939065
0.6030939065
0.6030939065
0.6030939065
0.6030939065
0.6030939064
0.6030939061
0.6030939051
0.6030939017
0.6030938911
0.6030938597
0.6030937732
0.6030935553
0.6030930642
0.6030920991
0.6030939065
0.6030939065
0.6030939065
0.6030939065
0.6030939065
0.6030939064
0.6030939062
0.6030939055
0.6030939031
0.6030938961
0.6030938761
0.6030938232
0.6030936942
0.6030934099
0.6030928511
0.6030939065
0.6030939065
0.6030939065
0.6030939065
0.6030939065
0.6030939064
0.6030939061
0.6030939051
0.6030939017
0.6030938911
0.6030938597
0.6030937732
0.6030935553
0.6030930641
0.6030939065
0.6030939065
0.6030939065
0.6030939065
0.6030939065
0.6030939064
0.6030939059
0.6030939044
0.6030938992
0.603093882
0.6030938282
0.6030936715
0.6030932561
0.6030922867
0.6030903753
0.6030939065
0.6030939065
0.6030939065
0.6030939065
0.6030939065
0.6030939063
0.6030939056
0.6030939032
0.6030938944
0.6030938635
0.6030937606
0.6030934411
0.6030925403
0.6030903344
0.6030859397
0.6030939065
0.6030939065
0.6030939065
0.6030939065
0.6030939064
0.6030939062
0.6030939053
0.6030939018
0.6030938885
0.6030938397
0.6030936672
0.6030930953
0.6030913691
0.603086873
0.6030776921
0.6030939065
0.6030939065
0.6030939065
0.6030939065
0.6030939064
0.6030939062
0.6030939052
0.6030939011
0.6030938854
0.6030938259
0.6030936073
0.6030928463
0.6030904073
0.6030836156
0.6030691006
0.6030939065
0.6030939065
0.6030939065
0.6030939065
0.6030939064
0.6030939062
0.6030939053
0.6030939018
0.6030938885
0.6030938397
0.6030936672
0.6030930953
0.6030913691
0.6030868731
0.6030776924
0.6030939065
0.6030939065
0.6030939065
0.6030939065
0.6030939065
0.6030939063
0.6030939056
0.6030939032
0.6030938944
0.6030938635
0.6030937606
0.6030934411
0.6030925403
0.6030903346
0.60308594
0.6030939065
0.6030939065
0.6030939065
0.6030939065
0.6030939065
0.6030939064
0.6030939059
0.6030939044
0.6030938992
0.603093882
0.6030938282
0.6030936715
0.6030932561
0.6030922868
0.6030903756
0.6030939065
0.6030939065
0.6030939065
0.6030939065
0.6030939065
0.6030939064
0.6030939061
0.6030939051
0.6030939017
0.6030938911
0.6030938597
0.6030937732
0.6030935553
0.6030930642
0.6030920991
0.6030939065
0.6030939065
0.6030939065
0.6030939065
0.6030939065
0.6030939064
0.6030939059
0.6030939043
0.603093899
0.6030938815
0.6030938271
0.6030936703
0.603093258
0.6030923016
0.6030939065
0.6030939065
0.6030939065
0.6030939065
0.6030939065
0.6030939063
0.6030939056
0.6030939032
0.6030938944
0.6030938635
0.6030937606
0.6030934411
0.6030925403
0.6030903342
0.6030939065
0.6030939065
0.6030939065
0.6030939065
0.6030939064
0.6030939062
0.6030939051
0.603093901
0.6030938848
0.6030938242
0.6030936055
0.6030928652
0.6030905898
0.6030845816
0.6030722611
0.6030939065
0.6030939065
0.6030939065
0.6030939065
0.6030939064
0.603093906
0.6030939045
0.6030938982
0.6030938724
0.6030937685
0.6030933633
0.6030918623
0.603086759
0.6030718205
0.6030391296
0.6030939065
0.6030939065
0.6030939065
0.6030939065
0.6030939064
0.603093906
0.6030939042
0.6030938968
0.6030938651
0.6030937319
0.6030931813
0.6030909783
0.603082692
0.6030551555
0.6029867468
0.6030939065
0.6030939065
0.6030939065
0.6030939065
0.6030939064
0.603093906
0.6030939045
0.6030938982
0.6030938724
0.6030937685
0.6030933633
0.6030918623
0.6030867591
0.603071821
0.6030391313
0.6030939065
0.6030939065
0.6030939065
0.6030939065
0.6030939064
0.6030939062
0.6030939051
0.603093901
0.6030938848
0.6030938242
0.6030936055
0.6030928652
0.60309059
0.6030845821
0.6030722628
0.6030939065
0.6030939065
0.6030939065
0.6030939065
0.6030939065
0.6030939063
0.6030939056
0.6030939032
0.6030938944
0.6030938635
0.6030937606
0.6030934411
0.6030925403
0.6030903345
0.60308594
0.6030939065
0.6030939065
0.6030939065
0.6030939065
0.6030939065
0.6030939064
0.6030939059
0.6030939043
0.603093899
0.6030938815
0.6030938271
0.6030936703
0.603093258
0.6030923018
0.6030904182
0.6030939065
0.6030939065
0.6030939065
0.6030939065
0.6030939065
0.6030939063
0.6030939057
0.6030939036
0.603093896
0.6030938702
0.6030937867
0.603093535
0.6030928443
0.6030911868
0.6030939065
0.6030939065
0.6030939065
0.6030939065
0.6030939064
0.6030939062
0.6030939053
0.6030939018
0.6030938885
0.6030938397
0.6030936672
0.6030930952
0.6030913689
0.6030868724
0.6030939065
0.6030939065
0.6030939065
0.6030939065
0.6030939064
0.603093906
0.6030939045
0.6030938982
0.6030938724
0.6030937685
0.6030933633
0.6030918622
0.6030867587
0.6030718189
0.6030939065
0.6030939065
0.6030939065
0.6030939065
0.6030939064
0.6030939059
0.6030939036
0.6030938937
0.6030938498
0.6030936575
0.6030928263
0.6030893435
0.6030756349
0.6030281876
0.6029071751
0.6030939065
0.6030939065
0.6030939065
0.6030939065
0.6030939064
0.6030939058
0.6030939031
0.603093891
0.6030938351
0.6030935741
0.6030923449
0.6030865477
0.6030596661
0.6029428781
0.6025383509
0.6030939065
0.6030939065
0.6030939065
0.6030939065
0.6030939064
0.6030939059
0.6030939036
0.6030938937
0.6030938498
0.6030936575
0.6030928263
0.6030893436
0.6030756354
0.6030281901
0.6029071862
0.6030939065
0.6030939065
0.6030939065
0.6030939065
0.6030939064
0.603093906
0.6030939045
0.6030938982
0.6030938724
0.6030937685
0.6030933633
0.6030918623
0.603086759
0.6030718209
0.6030391311
0.6030939065
0.6030939065
0.6030939065
0.6030939065
0.6030939064
0.6030939062
0.6030939053
0.6030939018
0.6030938885
0.6030938397
0.6030936672
0.6030930953
0.6030913691
0.6030868731
0.6030776923
0.6030939065
0.6030939065
0.6030939065
0.6030939065
0.6030939065
0.6030939063
0.6030939057
0.6030939036
0.603093896
0.6030938702
0.6030937867
0.603093535
0.6030928444
0.6030911871
0.6030878985
0.6030939065
0.6030939065
0.6030939065
0.6030939065
0.6030939065
0.6030939063
0.6030939056
0.6030939032
0.6030938945
0.6030938643
0.6030937642
0.6030934535
0.6030925729
0.6030903926
0.6030939065
0.6030939065
0.6030939065
0.6030939065
0.6030939064
0.6030939062
0.6030939052
0.6030939011
0.6030938854
0.6030938259
0.6030936073
0.6030928462
0.603090407
0.6030836146
0.6030939065
0.6030939065
0.6030939065
0.6030939065
0.6030939064
0.603093906
0.6030939042
0.6030938968
0.6030938651
0.6030937319
0.6030931813
0.6030909781
0.6030826912
0.6030551517
0.6030939065
0.6030939065
0.6030939065
0.6030939065
0.6030939064
0.6030939058
0.6030939031
0.603093891
0.6030938351
0.6030935741
0.6030923448
0.6030865474
0.6030596642
0.6029428653
0.6030939065
0.6030939065
0.6030939065
0.6030939065
0.6030939063
0.6030939057
0.6030939025
0.6030938874
0.6030938139
0.6030934405
0.603091456
0.6030802886
0.6030130861
0.6025777715
0.5995229529
0.6030939065
0.6030939065
0.6030939065
0.6030939065
0.6030939064
0.6030939058
0.6030939031
0.603093891
0.6030938351
0.6030935741
0.6030923448
0.6030865475
0.6030596655
0.6029428758
0.6025383475
0.6030939065
0.6030939065
0.6030939065
0.6030939065
0.6030939064
0.603093906
0.6030939042
0.6030938968
0.6030938651
0.6030937319
0.6030931813
0.6030909782
0.6030826917
0.6030551547
0.602986746
0.6030939065
0.6030939065
0.6030939065
0.6030939065
0.6030939064
0.6030939062
0.6030939052
0.6030939011
0.6030938854
0.6030938259
0.6030936073
0.6030928463
0.6030904073
0.6030836155
0.6030691004
0.6030939065
0.6030939065
0.6030939065
0.6030939065
0.6030939065
0.6030939063
0.6030939056
0.6030939032
0.6030938945
0.6030938643
0.6030937642
0.6030934535
0.603092573
0.6030903929
0.6030860118
0.6030939065
0.6030939065
0.6030939065
0.6030939065
0.6030939065
0.6030939063
0.6030939057
0.6030939036
0.603093896
0.6030938702
0.6030937867
0.603093535
0.6030928443
0.6030911868
0.6030939065
0.6030939065
0.6030939065
0.6030939065
0.6030939064
0.6030939062
0.6030939053
0.6030939018
0.6030938885
0.6030938397
0.6030936672
0.6030930952
0.6030913689
0.6030868724
0.6030939065
0.6030939065
0.6030939065
0.6030939065
0.6030939064
0.603093906
0.6030939045
0.6030938982
0.6030938724
0.6030937685
0.6030933633
0.6030918622
0.6030867585
0.6030718188
0.6030939065
0.6030939065
0.6030939065
0.6030939065
0.6030939064
0.6030939059
0.6030939036
0.6030938937
0.6030938498
0.6030936575
0.6030928263
0.6030893433
0.6030756341
0.6030281841
0.6030939065
0.6030939065
0.6030939065
0.6030939065
0.6030939064
0.6030939058
0.6030939031
0.603093891
0.6030938351
0.603093574
0.6030923448
0.6030865472
0.6030596637
0.6029428638
0.6030939065
0.6030939065
0.6030939065
0.6030939065
0.6030939064
0.6030939059
0.6030939036
0.6030938937
0.6030938498
0.6030936575
0.6030928263
0.6030893434
0.6030756343
0.6030281849
0.6030939065
0.6030939065
0.6030939065
0.6030939065
0.6030939064
0.603093906
0.6030939045
0.6030938982
0.6030938724
0.6030937685
0.6030933633
0.6030918622
0.6030867587
0.6030718197
0.6030391275
0.6030939065
0.6030939065
0.6030939065
0.6030939065
0.6030939064
0.6030939062
0.6030939053
0.6030939018
0.6030938885
0.6030938397
0.6030936672
0.6030930952
0.603091369
0.6030868728
0.6030776918
0.6030939065
0.6030939065
0.6030939065
0.6030939065
0.6030939065
0.6030939063
0.6030939057
0.6030939036
0.603093896
0.6030938702
0.6030937867
0.603093535
0.6030928444
0.603091187
0.6030878984
0.6030939065
0.6030939065
0.6030939065
0.6030939065
0.6030939065
0.6030939064
0.6030939059
0.6030939043
0.603093899
0.6030938815
0.6030938271
0.6030936703
0.603093258
0.6030923016
0.6030939065
0.6030939065
0.6030939065
0.6030939065
0.6030939065
0.6030939063
0.6030939056
0.6030939032
0.6030938944
0.6030938635
0.6030937606
0.6030934411
0.6030925402
0.6030903342
0.6030939065
0.6030939065
0.6030939065
0.6030939065
0.6030939064
0.6030939062
0.6030939051
0.603093901
0.6030938848
0.6030938242
0.6030936054
0.6030928651
0.6030905897
0.6030845812
0.6030939065
0.6030939065
0.6030939065
0.6030939065
0.6030939064
0.603093906
0.6030939045
0.6030938982
0.6030938724
0.6030937685
0.6030933633
0.6030918622
0.6030867584
0.6030718188
0.6030939065
0.6030939065
0.6030939065
0.6030939065
0.6030939064
0.603093906
0.6030939042
0.6030938968
0.6030938651
0.6030937319
0.6030931813
0.6030909781
0.603082691
0.6030551515
0.6030939065
0.6030939065
0.6030939065
0.6030939065
0.6030939064
0.603093906
0.6030939045
0.6030938982
0.6030938724
0.6030937685
0.6030933633
0.6030918622
0.6030867585
0.603071819
0.6030939065
0.6030939065
0.6030939065
0.6030939065
0.6030939064
0.6030939062
0.6030939051
0.603093901
0.6030938848
0.6030938242
0.6030936054
0.6030928652
0.6030905897
0.6030845812
0.6030939065
0.6030939065
0.6030939065
0.6030939065
0.6030939065
0.6030939063
0.6030939056
0.6030939032
0.6030938944
0.6030938635
0.6030937606
0.6030934411
0.6030925403
0.6030903343
0.6030859394
0.6030939065
0.6030939065
0.6030939065
0.6030939065
0.6030939065
0.6030939064
0.6030939059
0.6030939043
0.603093899
0.6030938815
0.6030938271
0.6030936703
0.603093258
0.6030923017
0.603090418
0.6030939065
0.6030939065
0.6030939065
0.6030939065
0.6030939065
0.6030939064
0.6030939061
0.6030939051
0.6030939017
0.6030938911
0.6030938597
0.6030937732
0.6030935553
0.6030930641
0.6030939065
0.6030939065
0.6030939065
0.6030939065
0.6030939065
0.6030939064
0.6030939059
0.6030939044
0.6030938992
0.603093882
0.6030938282
0.6030936715
0.6030932561
0.6030922866
0.6030939065
0.6030939065
0.6030939065
0.6030939065
0.6030939065
0.6030939063
0.6030939056
0.6030939032
0.6030938944
0.6030938635
0.6030937606
0.6030934411
0.6030925402
0.6030903342
0.6030939065
0.6030939065
0.6030939065
0.6030939065
0.6030939064
0.6030939062
0.6030939053
0.6030939018
0.6030938885
0.6030938397
0.6030936672
0.6030930952
0.6030913688
0.6030868724
0.6030939065
0.6030939065
0.6030939065
0.6030939065
0.6030939064
0.6030939062
0.6030939052
0.6030939011
0.6030938854
0.6030938258
0.6030936073
0.6030928462
0.603090407
0.6030836146
0.6030939065
0.6030939065
0.6030939065
0.6030939065
0.6030939064
0.6030939062
0.6030939053
0.6030939018
0.6030938885
0.6030938397
0.6030936672
0.6030930952
0.6030913689
0.6030868725
0.6030939065
0.6030939065
0.6030939065
0.6030939065
0.6030939065
0.6030939063
0.6030939056
0.6030939032
0.6030938944
0.6030938635
0.6030937606
0.6030934411
0.6030925402
0.6030903342
0.6030939065
0.6030939065
0.6030939065
0.6030939065
0.6030939065
0.6030939064
0.6030939059
0.6030939044
0.6030938992
0.603093882
0.6030938282
0.6030936715
0.6030932561
0.6030922866
0.6030939065
0.6030939065
0.6030939065
0.6030939065
0.6030939065
0.6030939064
0.6030939061
0.6030939051
0.6030939017
0.6030938911
0.6030938597
0.6030937732
0.6030935553
0.6030930641
0.603092099
0.6030939065
0.6030939065
0.6030939065
0.6030939065
0.6030939065
0.6030939064
0.6030939062
0.6030939055
0.6030939031
0.6030938961
0.6030938761
0.6030938232
0.6030936942
0.6030934098
0.6030939065
0.6030939065
0.6030939065
0.6030939065
0.6030939065
0.6030939064
0.6030939061
0.6030939051
0.6030939017
0.6030938911
0.6030938597
0.6030937732
0.6030935553
0.6030930641
0.6030939065
0.6030939065
0.6030939065
0.6030939065
0.6030939065
0.6030939064
0.6030939059
0.6030939043
0.603093899
0.6030938815
0.6030938271
0.6030936703
0.603093258
0.6030923017
0.6030939065
0.6030939065
0.6030939065
0.6030939065
0.6030939065
0.6030939063
0.6030939057
0.6030939036
0.603093896
0.6030938702
0.6030937867
0.603093535
0.6030928443
0.6030911868
0.6030939065
0.6030939065
0.6030939065
0.6030939065
0.6030939065
0.6030939063
0.6030939056
0.6030939032
0.6030938945
0.6030938643
0.6030937642
0.6030934535
0.6030925728
0.6030903926
0.6030939065
0.6030939065
0.6030939065
0.6030939065
0.6030939065
0.6030939063
0.6030939057
0.6030939036
0.603093896
0.6030938702
0.6030937867
0.603093535
0.6030928443
0.6030911868
0.6030939065
0.6030939065
0.6030939065
0.6030939065
0.6030939065
0.6030939064
0.6030939059
0.6030939043
0.603093899
0.6030938815
0.6030938271
0.6030936703
0.603093258
0.6030923017
0.6030939065
0.6030939065
0.6030939065
0.6030939065
0.6030939065
0.6030939064
0.6030939061
0.6030939051
0.6030939017
0.6030938911
0.6030938597
0.6030937732
0.6030935553
0.6030930641
0.6030939065
0.6030939065
0.6030939065
0.6030939065
0.6030939065
0.6030939064
0.6030939062
0.6030939055
0.6030939031
0.6030938961
0.6030938761
0.6030938232
0.6030936942
0.6030934098
)
;

boundaryField
{
    top
    {
        type            zeroGradient;
    }
    bottom
    {
        type            zeroGradient;
    }
    side-walls
    {
        type            zeroGradient;
    }
    inlet
    {
        type            zeroGradient;
    }
    outlet
    {
        type            zeroGradient;
    }
    procBoundary0to1
    {
        type            processor;
        value           nonuniform List<scalar> 
97
(
0.6030918798
0.603092099
0.603090469
0.6030873576
0.6030828077
0.6030795657
0.6030828078
0.6030873577
0.6030904691
0.6030918799
0.603092099
0.603092099
0.603087296
0.6030859393
0.6030793273
0.6030651966
0.6030518947
0.603065197
0.6030793276
0.6030872962
0.6030904691
0.603090418
0.6030859393
0.6030859393
0.6030558429
0.6030391267
0.6030037355
0.6029356505
0.603003737
0.6030558442
0.6030793276
0.6030873577
0.6030878983
0.6030776915
0.6030391267
0.6030391267
0.6028254994
0.6025383216
0.6024766368
0.6028255048
0.6030037369
0.6030651969
0.6030828077
0.6030860116
0.6030690996
0.6029867418
0.6025383216
0.6025383216
0.60097534
0.602538322
0.6024766362
0.6029071776
0.6029356501
0.6030518946
0.6030795657
0.6030878984
0.6030776917
0.6030391289
0.602907179
0.602538322
0.6029071776
0.6029071776
0.6030037354
0.6030722612
0.6030651965
0.6030828076
0.6030904181
0.6030859397
0.6030722619
0.603039129
0.6029867421
0.6030391292
0.6030722612
0.6030722612
0.6030793273
0.6030903753
0.6030873575
0.6030920991
0.6030903755
0.6030859397
0.6030776918
0.6030690997
0.6030776919
0.6030859397
0.6030903753
0.6030903753
0.603090469
0.6030928511
0.6030928511
0.6030920991
0.6030904181
0.6030878984
0.6030860116
0.6030878984
0.6030904181
0.6030920991
0.6030928511
)
;
    }
}


// ************************************************************************* //
