/*--------------------------------*- C++ -*----------------------------------*\
| =========                 |                                                 |
| \\      /  F ield         | OpenFOAM: The Open Source CFD Toolbox           |
|  \\    /   O peration     | Version:  4.x                                   |
|   \\  /    A nd           | Web:      www.OpenFOAM.org                      |
|    \\/     M anipulation  |                                                 |
\*---------------------------------------------------------------------------*/
FoamFile
{
    version     2.0;
    format      ascii;
    class       surfaceScalarField;
    location    "2000";
    object      phi;
}
// * * * * * * * * * * * * * * * * * * * * * * * * * * * * * * * * * * * * * //

dimensions      [1 0 -1 0 0 0 0];

internalField   nonuniform List<scalar> 
3175
(
9.428250061e-06
-4.917489631e-13
-1.582228218e-14
9.428250818e-06
1.689362693e-13
1.343181318e-12
9.42825134e-06
-6.852782663e-13
4.871300818e-13
9.428248811e-06
-1.237795074e-12
3.304833813e-13
9.428249387e-06
-1.663450067e-12
-6.190927871e-13
9.428249295e-06
-2.059251621e-12
-2.755744862e-12
9.428253564e-06
-8.112235053e-13
-2.74944979e-13
9.428256017e-06
-9.70527247e-13
-1.48677418e-12
9.428260902e-06
-2.158287231e-12
-2.031874649e-12
9.428268849e-06
-3.005949466e-12
-3.254379952e-12
9.428284783e-06
-8.980075888e-12
-8.700632336e-12
9.428306577e-06
-1.030526129e-11
-1.086727067e-11
9.428363731e-06
-2.697146441e-11
-2.769076689e-11
9.428413974e-06
-2.391618698e-11
-2.271399422e-11
-7.593090241e-11
9.428243349e-06
-1.30943427e-12
-2.855551398e-13
9.428241756e-06
-1.394443101e-12
-1.64260304e-12
9.428245214e-06
-3.303194272e-13
3.320646783e-13
9.4282432e-06
-1.97474244e-12
-5.437164079e-13
9.428242523e-06
-1.565086831e-12
-1.61950872e-12
9.428243087e-06
-1.144056988e-12
-1.342733936e-12
9.428246429e-06
-8.837571505e-13
-5.900011682e-13
9.428246779e-06
-2.250385251e-12
-2.180761126e-12
9.428250326e-06
-4.941030173e-12
-2.934664216e-12
9.428256531e-06
-6.347309035e-12
-3.389263923e-12
9.428271064e-06
-1.132815891e-11
-7.38291525e-12
9.428289726e-06
-1.645217127e-11
-1.151709227e-11
9.428342041e-06
-4.818756652e-11
-3.368863065e-11
9.428388848e-06
-4.585191428e-11
-2.585026298e-11
-1.513604258e-10
-1.1894022e-10
9.428266511e-06
-1.063377407e-12
6.700974434e-13
9.428265286e-06
-4.809463904e-13
-3.329305584e-13
9.428264506e-06
-4.196742338e-13
-4.774736048e-13
9.428265989e-06
-4.065588511e-13
-3.140142605e-13
9.428264837e-06
1.113733775e-13
-1.95821138e-13
9.428265524e-06
-4.691777734e-13
-1.10047058e-12
9.428265851e-06
1.091389834e-13
3.278874053e-13
9.428267066e-06
-3.749853798e-13
-6.283626215e-13
9.428269015e-06
-1.027946586e-12
-7.339209383e-13
9.428272077e-06
-3.721471887e-12
-2.557203063e-12
9.428277372e-06
-1.076004612e-11
-8.136744267e-12
9.428286754e-06
-1.46982241e-11
-1.306025678e-11
9.428329579e-06
-4.715050495e-11
-4.74911956e-11
9.428360654e-06
-3.954688454e-11
-3.608291783e-11
-1.831867121e-10
-2.496995793e-10
9.428238701e-06
-9.799830025e-14
1.763386165e-12
9.42823838e-06
2.389008859e-13
1.457042624e-12
9.428239361e-06
2.885984335e-13
1.949590417e-12
9.428240189e-06
5.302350758e-13
-1.48176181e-12
9.428237585e-06
5.759658837e-13
-1.722512346e-12
9.428240834e-06
3.779657457e-13
-4.703278341e-13
9.428239834e-06
1.997049644e-13
5.131355718e-14
9.428239748e-06
-1.532677275e-12
-6.010656428e-13
9.428239446e-06
-1.4415979e-12
-4.765702808e-13
9.42824302e-06
-2.128273199e-12
2.530586338e-13
9.428243222e-06
-7.927462064e-12
-3.444077188e-12
9.428251966e-06
-1.243233531e-11
-9.613918666e-12
9.428288129e-06
-3.820798876e-11
-4.026517527e-11
9.428322398e-06
-4.140584255e-11
-3.236980291e-11
-1.655147866e-10
-3.86989461e-10
9.428242041e-06
-2.376595917e-12
-1.20312305e-12
9.428241851e-06
-1.458191154e-12
-1.066336469e-12
9.428243647e-06
-8.706409702e-14
-2.512008769e-13
9.428244236e-06
-9.908246478e-15
-1.964085682e-12
9.428242274e-06
2.529736092e-13
-1.653799246e-12
9.42824174e-06
6.805681881e-13
-5.794297317e-13
9.428239839e-06
9.658180805e-13
-4.981221589e-13
9.428240719e-06
1.963711904e-12
-2.165122431e-13
9.428236841e-06
1.418414754e-12
7.149884036e-13
9.428236065e-06
3.946932234e-12
3.934395926e-13
9.428227002e-06
9.517582293e-12
-4.877403305e-12
9.428214718e-06
1.281191266e-11
-1.311363325e-11
9.428211102e-06
3.851883745e-11
-7.560028154e-11
9.428192514e-06
4.146416902e-11
-6.734006866e-11
1.661539995e-10
-9.220753932e-10
9.428258115e-06
-3.185625248e-13
-2.434642602e-13
9.428258316e-06
3.626394252e-13
1.373945132e-13
9.428255419e-06
3.680340073e-13
-5.381497564e-13
9.42825776e-06
1.113294716e-12
-1.647106738e-12
9.428257919e-06
7.526183301e-13
-1.045768534e-12
9.428257047e-06
4.631163407e-13
-8.48452221e-13
9.428256429e-06
1.496135219e-12
4.335792152e-13
9.42825461e-06
1.428076785e-12
-3.592741168e-13
9.428254746e-06
2.287536635e-12
-1.265734137e-12
9.428255586e-06
4.017527669e-12
-2.116058405e-12
9.428256017e-06
1.06503546e-11
-5.222980324e-12
9.42826276e-06
1.363868879e-11
-1.179657444e-11
9.428298674e-06
4.63180745e-11
-4.201943226e-11
9.428333143e-06
3.937034671e-11
-3.24070838e-11
1.826426843e-10
-3.877229452e-10
9.428257965e-06
-4.243150716e-14
2.093138479e-13
9.428257758e-06
1.532331369e-13
-9.940570711e-14
9.428256169e-06
-4.124536346e-13
-8.014432824e-13
9.428256949e-06
9.792544824e-13
-2.829185784e-13
9.428257088e-06
-1.096076862e-13
-7.814526719e-13
9.428255508e-06
-9.028357391e-13
-1.294354804e-12
9.428256882e-06
-8.632605601e-14
-2.021798423e-12
9.428257481e-06
2.358691379e-12
-1.478213212e-12
9.428260141e-06
4.897622849e-12
-1.185408163e-12
9.428262029e-06
4.963331261e-12
-3.459978002e-12
9.428266918e-06
1.284708025e-11
-9.056303767e-12
9.428276735e-06
1.785792382e-11
-1.146981579e-11
9.428320351e-06
4.844245809e-11
-4.571497257e-11
9.428351125e-06
4.441046001e-11
-3.768697846e-11
1.493336222e-10
-2.505167463e-10
9.428238318e-06
3.172132361e-13
-1.891023909e-14
9.428236699e-06
-2.746915132e-13
-4.52510463e-13
9.428237485e-06
-8.468288686e-13
2.587265733e-13
9.428235309e-06
-2.366315776e-12
-1.030509468e-12
9.428235363e-06
-1.463111083e-12
-1.280896467e-12
9.428235908e-06
-4.222399744e-13
2.79063111e-13
9.428237814e-06
-1.421219683e-12
-5.496876323e-13
9.428238112e-06
1.556963171e-12
-1.306229643e-12
9.428241036e-06
3.28044385e-12
-3.19527785e-12
9.428250106e-06
5.707556256e-12
-3.331257772e-12
9.428260377e-06
1.002767802e-11
-9.010476188e-12
9.428279374e-06
1.04081062e-11
-1.076423898e-11
9.42833213e-06
2.782745225e-11
-3.355684575e-11
9.428378599e-06
2.39945229e-11
-2.641698497e-11
7.779810493e-11
-1.198980762e-10
9.428247914e-06
-8.31688559e-14
9.428247208e-06
-1.635828951e-12
9.428248055e-06
-1.494493125e-12
9.428249762e-06
-1.864389863e-12
9.428248004e-06
-5.595461645e-13
9.428247511e-06
9.522798127e-13
9.428250395e-06
3.646372448e-13
9.428251412e-06
-2.892145299e-12
9.428255615e-06
-4.703664843e-12
9.428263324e-06
-4.486113347e-12
9.428277742e-06
-9.213850314e-12
9.428299847e-06
-9.47915989e-12
9.428355448e-06
-2.949454095e-11
9.42840763e-06
-2.643633886e-11
-7.747341206e-11
9.428235058e-06
-1.080428599e-12
1.057423994e-12
9.428233813e-06
-1.03098167e-12
-2.871841249e-14
9.42823538e-06
-4.622886949e-13
-1.661479483e-12
9.428234538e-06
-1.828708043e-12
-7.432854007e-13
9.428233322e-06
-1.884232263e-12
-1.148231126e-12
9.428237292e-06
-4.719149846e-13
-1.148216009e-12
9.428237184e-06
-1.137062863e-12
-9.328690026e-13
9.428242846e-06
-1.014303494e-12
-1.747651972e-12
9.428244016e-06
-3.16600449e-12
-2.697312699e-12
9.428247659e-06
-4.977616692e-12
-5.670335715e-12
9.428261947e-06
-8.39258092e-12
-1.331848955e-11
9.428279721e-06
-1.10489576e-11
-1.799283692e-11
9.428335442e-06
-3.310166531e-11
-4.824367925e-11
-2.724112632e-11
-4.483728435e-11
9.42824288e-06
-5.865605438e-14
2.467172922e-13
9.428244406e-06
2.654712923e-13
1.014017476e-12
9.428243686e-06
-1.409718098e-12
2.906698215e-13
9.428243827e-06
-1.752400149e-12
2.934881244e-13
9.428243932e-06
-3.736146716e-13
-6.797239975e-13
9.428243592e-06
3.188528886e-13
-1.694582754e-12
9.428244373e-06
2.078199498e-13
-6.359120666e-13
9.428244689e-06
-7.617146212e-13
-1.59926754e-12
9.428247823e-06
-3.140733909e-12
-1.705729117e-12
9.428252179e-06
-5.426624511e-12
-4.023724204e-12
9.42826122e-06
-1.202302161e-11
-1.287106439e-11
9.428277657e-06
-1.755699649e-11
-1.842308115e-11
9.428326666e-06
-5.716275619e-11
-5.649695986e-11
9.428370917e-06
-4.884045079e-11
-4.905628662e-11
-2.473481031e-10
9.428238831e-06
3.405979135e-13
3.566204364e-13
9.428239089e-06
5.603611162e-13
4.158758554e-13
9.428240277e-06
8.756214995e-13
-9.188757924e-13
9.428240574e-06
-1.673456878e-12
8.553557678e-13
9.42824165e-06
-2.976851431e-13
-1.149949018e-12
9.428240989e-06
-4.019710861e-13
-8.00789487e-13
9.428240128e-06
-7.072130522e-14
-3.31771204e-13
9.428238837e-06
-1.018160048e-12
-2.061401704e-13
9.42824056e-06
4.301014027e-14
-1.135133161e-12
9.428240969e-06
-1.490863213e-12
-4.83435882e-12
9.428239458e-06
-8.431764365e-12
-1.201815998e-11
9.428244011e-06
-1.281261538e-11
-2.134954532e-11
9.428272191e-06
-5.082118524e-11
-7.561758308e-11
9.428301468e-06
-4.184514921e-11
-7.254331396e-11
-3.465040444e-10
-5.631990394e-10
9.428241288e-06
-1.789238614e-12
5.314051134e-14
9.428241733e-06
-1.476537333e-12
-2.97928325e-13
9.428240867e-06
-1.602028153e-12
-9.954614121e-13
9.428244104e-06
2.14407927e-13
1.337337945e-12
9.428244567e-06
2.488163998e-13
1.014766709e-12
9.428242899e-06
6.177183965e-13
-6.914940069e-13
9.428242736e-06
-1.041954903e-13
3.099359084e-14
9.428243877e-06
-3.858599708e-13
-1.679902938e-12
9.428241263e-06
-1.104157076e-12
-2.132301008e-12
9.42823899e-06
-2.941614308e-12
-4.871958702e-12
9.428236506e-06
-8.919492989e-12
-3.444182423e-12
9.428245165e-06
-1.414241753e-11
-1.796982082e-11
9.428252227e-06
-5.414928246e-11
-5.05493278e-11
9.428318648e-06
-6.215077377e-11
-8.356302357e-11
-3.399306376e-10
-9.302203598e-10
9.428239498e-06
-2.299778206e-12
3.936651017e-13
9.428238996e-06
-1.278863606e-12
-3.448464226e-13
9.428237888e-06
-1.158100301e-12
-1.192361874e-12
9.428240831e-06
3.445150335e-14
-1.266584607e-12
9.428239946e-06
7.844905325e-14
-7.128547548e-13
9.428237356e-06
-8.959120889e-14
-2.237925923e-12
9.428237212e-06
8.970184468e-14
-1.267916045e-12
9.428236331e-06
4.902800241e-14
-2.184116524e-12
9.428230632e-06
-1.317682525e-12
-1.174453471e-12
9.428224224e-06
1.822499439e-12
-2.728364471e-12
9.428204072e-06
8.328323133e-12
4.867997545e-13
9.4281795e-06
1.232716503e-11
-1.645915094e-11
9.428091416e-06
5.306546551e-11
-9.690950055e-11
9.428053922e-06
6.071212893e-11
-1.516228868e-10
3.388564061e-10
-2.633976799e-09
9.428254951e-06
1.799815514e-13
8.249822937e-13
9.428252512e-06
-5.0904465e-14
-1.58721586e-13
9.428251616e-06
3.074594381e-13
-1.377880089e-12
9.428253631e-06
9.050789627e-13
-1.002423878e-12
9.428251581e-06
3.554494787e-13
-9.848191332e-13
9.428251891e-06
-1.69748385e-14
-4.177861149e-13
9.428250736e-06
6.405744088e-13
-1.425565436e-12
9.428249465e-06
1.214974391e-12
-2.9322847e-12
9.428249944e-06
1.894865518e-12
-6.569579064e-13
9.42824981e-06
1.970880325e-12
-2.166313074e-12
9.428243234e-06
8.009666327e-12
-2.83383034e-12
9.428252906e-06
1.462593745e-11
-1.724981593e-11
9.428260509e-06
5.352626509e-11
-5.18287378e-11
9.428326164e-06
4.122166753e-11
-8.407882355e-11
3.447496591e-10
-9.298585147e-10
9.428229054e-06
-1.60319428e-13
-8.721196088e-14
9.428228142e-06
3.173721323e-13
-2.545633038e-13
9.428228103e-06
4.629860311e-13
-2.118824965e-13
9.428227355e-06
9.402949728e-13
-9.785886007e-13
9.428225481e-06
-5.368919334e-13
-1.174872297e-12
9.428225413e-06
5.584895869e-13
-6.647865046e-13
9.428226001e-06
8.960298552e-13
-8.393281447e-13
9.428224031e-06
1.833248543e-12
-2.170081491e-12
9.42822406e-06
3.018045643e-12
-1.564098324e-12
9.428224956e-06
4.998873898e-12
-4.563732984e-12
9.42822615e-06
1.298404985e-11
-1.137296825e-11
9.428230027e-06
1.758380718e-11
-2.216557855e-11
9.428253772e-06
5.681343538e-11
-7.956774271e-11
9.428285366e-06
4.958363588e-11
-7.282080211e-11
2.464573376e-10
-5.619439871e-10
9.42825834e-06
3.1707397e-13
-6.749865612e-13
9.428257271e-06
-7.599511453e-13
-2.132275276e-12
9.428258172e-06
-1.060137548e-12
-1.124332825e-12
9.428257048e-06
-2.088583624e-12
-1.453631543e-12
9.428258583e-06
-9.321742406e-13
-2.567282206e-13
9.428259379e-06
-4.85365321e-13
-9.941081127e-13
9.428259674e-06
-7.588024326e-13
-1.376511249e-12
9.428257777e-06
-7.702230895e-13
-2.756419372e-12
9.428262254e-06
2.055735774e-12
-2.506897454e-12
9.428268676e-06
3.489063913e-12
-5.312810281e-12
9.428276784e-06
8.546280553e-12
-1.277106706e-11
9.428292129e-06
1.116056151e-11
-1.983898343e-11
9.428339818e-06
3.198333151e-11
-6.032343439e-11
9.428383678e-06
2.459685461e-11
-5.124320629e-11
1.205028322e-10
-2.474838941e-10
9.428236583e-06
1.868666438e-13
9.428238208e-06
-1.838575608e-13
9.428237975e-06
3.027809417e-13
9.428238986e-06
1.265708462e-12
9.428241298e-06
1.321803976e-12
9.428239069e-06
-6.079087541e-13
9.428241448e-06
-6.304430402e-13
9.428242373e-06
-1.894940175e-12
9.428245395e-06
-4.066912289e-12
9.428253015e-06
-6.590366815e-12
9.428264173e-06
-1.500864173e-11
9.428280719e-06
-2.022846639e-11
9.428335752e-06
-5.023908961e-11
9.428382647e-06
-4.488294337e-11
-1.522140043e-10
9.428229113e-06
-1.254291453e-12
-1.349995731e-12
9.428228048e-06
-5.505442633e-13
-1.374583362e-12
9.428230198e-06
7.903261258e-13
-7.437892366e-13
9.428227617e-06
-1.073892175e-12
-1.421221406e-12
9.428228797e-06
-3.146482388e-13
2.727490784e-13
9.428229675e-06
-1.061547138e-12
-1.642609567e-13
9.428230627e-06
-9.740523168e-13
-2.413898034e-13
9.428232106e-06
-8.952530044e-13
-8.480870206e-14
9.428230112e-06
-2.101576869e-12
-4.685159252e-12
9.428231955e-06
-3.596676491e-12
-6.133607207e-12
9.428239094e-06
-8.277445289e-12
-1.035851577e-11
9.4282474e-06
-1.106606223e-11
-1.400679099e-11
9.428291832e-06
-4.560944245e-11
-4.552398843e-11
-3.719041601e-11
-3.911889806e-11
9.428255265e-06
-5.006952844e-13
-6.482010201e-13
9.428253638e-06
-1.273489227e-12
-1.397388859e-12
9.428252135e-06
-2.944372448e-12
-3.23266272e-12
9.428251654e-06
-1.022686176e-12
-2.230806066e-12
9.428250901e-06
-9.187231989e-13
-1.383926209e-12
9.428255492e-06
1.657979789e-12
-2.632653768e-13
9.428253854e-06
-2.059372066e-13
-1.584314925e-12
9.428256594e-06
5.494275081e-13
-4.345192897e-13
9.428254112e-06
-2.770411446e-12
-2.364311304e-12
9.428252662e-06
-5.316469361e-12
-4.157300153e-12
9.428253762e-06
-1.148458097e-11
-8.460896027e-12
9.428259456e-06
-2.039627117e-11
-1.327172492e-11
9.428282361e-06
-7.709330542e-11
-5.457212057e-11
-7.202797379e-11
-4.281969013e-11
9.428240619e-06
4.890483574e-13
-1.00615742e-12
9.428239497e-06
2.053955656e-14
-2.249978533e-12
9.428242058e-06
1.599524824e-13
-1.301252556e-12
9.428240615e-06
-5.74456069e-13
-2.282490918e-12
9.428242503e-06
9.055437011e-13
1.786630702e-13
9.428239681e-06
-8.355513927e-13
-4.232281735e-13
9.428241685e-06
-9.862793495e-14
-2.590521272e-12
9.428240818e-06
-2.548890094e-12
-2.181625741e-12
9.428237049e-06
-1.835910462e-12
-1.953021125e-12
9.428232034e-06
-1.953855311e-12
-2.478135083e-12
9.428219527e-06
-4.128384211e-12
-3.440062117e-12
9.428205946e-06
-1.228745243e-11
-1.287017554e-11
9.428182435e-06
-6.587840962e-11
-6.862746233e-11
9.428168977e-06
-6.317418176e-11
-6.414829834e-11
-9.345731978e-10
9.428251391e-06
-1.38606079e-12
-1.043447168e-12
9.428250421e-06
-1.178415304e-12
-1.871688296e-12
9.428251013e-06
-1.735655251e-12
-5.967034466e-13
9.428250468e-06
-2.506617632e-12
-2.209983446e-12
9.428251237e-06
-1.187332836e-12
-1.727480768e-12
9.42825052e-06
-1.83669739e-12
-2.07059348e-12
9.428249007e-06
-1.343020433e-12
-2.378928411e-12
9.428248242e-06
-1.201973999e-12
-1.260309344e-12
9.428245258e-06
-4.723374965e-14
1.429677665e-12
9.428239695e-06
-1.70586334e-12
2.866142247e-13
9.428229833e-06
-6.661246026e-12
1.270417674e-11
9.428218875e-06
-1.499476605e-11
-3.57327694e-12
9.42817404e-06
-8.691443203e-11
9.092832012e-12
9.428221433e-06
-1.182701711e-10
-8.04770613e-11
-9.897411684e-10
-1.83756715e-09
9.428245931e-06
-1.924358799e-12
6.782589236e-13
9.428245042e-06
-1.741714841e-12
-4.50838629e-13
9.428244793e-06
-7.168538796e-13
-5.91661605e-13
9.428246399e-06
1.342354377e-13
-1.140131641e-12
9.4282449e-06
8.805934182e-14
-1.316715756e-12
9.428247419e-06
5.108493842e-13
-1.180464883e-12
9.428245874e-06
-1.220904626e-13
-1.157033637e-13
9.428244812e-06
-9.404796012e-14
-1.456360143e-14
9.428238394e-06
-8.877470857e-14
2.094799277e-12
9.42822871e-06
2.292088989e-12
4.603704911e-12
9.428190782e-06
6.132854585e-12
2.296892479e-11
9.428116198e-06
1.417993802e-11
2.308932912e-11
9.427842169e-06
8.388448663e-11
2.08203816e-12
9.42743675e-06
1.154722539e-10
2.179324995e-11
9.889123643e-10
-6.965017462e-09
9.428255313e-06
-5.368450242e-13
8.392622831e-13
9.42825407e-06
-3.177790714e-13
-1.6342353e-15
9.42825433e-06
2.148392553e-12
-1.376385604e-12
9.428256729e-06
1.108262156e-12
-1.026000549e-12
9.428253976e-06
1.470793213e-12
-1.634702771e-12
9.428252682e-06
5.287906826e-13
-5.409480473e-13
9.428252628e-06
1.307025665e-12
-4.59720128e-13
9.428253071e-06
1.886548038e-12
-3.378485407e-13
9.428251568e-06
8.018261578e-13
1.473311558e-12
9.428245915e-06
1.320271024e-13
-8.139065011e-13
9.428234659e-06
3.228182843e-12
1.092376939e-11
9.428222182e-06
1.201442064e-11
-5.388415644e-12
9.42818335e-06
6.564721902e-11
1.078566035e-11
9.428232091e-06
6.224766542e-11
-7.902414325e-11
9.343761418e-10
-1.834709925e-09
9.428232815e-06
-6.434103019e-13
1.022345083e-12
9.428233946e-06
-1.121255811e-12
-1.103790061e-13
9.428231349e-06
-5.510413526e-13
-1.044231208e-12
9.428232325e-06
5.287484489e-14
-6.764716217e-13
9.428232853e-06
4.470299376e-13
-1.117965407e-12
9.428230872e-06
8.904944876e-13
-1.332633565e-12
9.428230483e-06
6.467918433e-13
-1.559869898e-12
9.428229517e-06
8.63269021e-13
-9.727082055e-13
9.428224729e-06
1.705273062e-12
-9.125948791e-13
9.428220955e-06
5.284935042e-12
-2.176821859e-12
9.428205333e-06
1.162292739e-11
-5.554512569e-12
9.428189997e-06
2.057481297e-11
-1.498106421e-11
9.428170923e-06
7.693325806e-11
-6.832506005e-11
9.428156521e-06
7.033736083e-11
-6.418814006e-11
5.601045694e-10
-9.366446426e-10
9.428247406e-06
8.778092558e-13
6.083247178e-13
9.428248912e-06
5.378155516e-13
7.461072011e-13
9.428247082e-06
-4.520203555e-13
1.268157784e-13
9.428246787e-06
5.445077658e-13
6.251241663e-13
9.428245942e-06
1.432602279e-13
-4.173689204e-13
9.42824593e-06
3.772826824e-13
-2.272142586e-12
9.428246582e-06
1.889812958e-13
-2.143769623e-12
9.428245541e-06
3.472349902e-14
-2.545447068e-12
9.428243699e-06
1.217304233e-12
-2.819994036e-12
9.428244726e-06
1.89439854e-12
-3.393388812e-12
9.428244051e-06
7.263246246e-12
-8.135577691e-12
9.428248696e-06
1.169848821e-11
-1.377374895e-11
9.428275545e-06
4.709879204e-11
-5.266371513e-11
9.428305011e-06
3.80528958e-11
-4.236879508e-11
2.499791775e-10
-3.469559498e-10
9.428267671e-06
1.022116992e-12
9.428268414e-06
1.100073002e-12
9.428267767e-06
8.569295568e-13
9.428268093e-06
-3.430722521e-13
9.428267185e-06
-4.998984425e-13
9.428267625e-06
-1.699275722e-12
9.428268216e-06
-1.261395123e-12
9.428269333e-06
-1.975969254e-12
9.428269933e-06
-3.601407298e-12
9.428271972e-06
-3.277405104e-12
9.42827714e-06
-1.052549364e-11
9.428286611e-06
-1.425954376e-11
9.4283324e-06
-4.693756579e-11
9.428362927e-06
-4.18704804e-11
-1.850382839e-10
9.428245206e-06
1.407726182e-15
-1.338757569e-12
9.42824521e-06
-1.264028634e-12
-1.736660737e-12
9.42824781e-06
-7.341944624e-13
-1.763271458e-12
9.42824763e-06
-1.163792578e-12
-1.078154094e-12
9.428247245e-06
-1.968078176e-12
-1.935768954e-12
9.428248898e-06
-1.663872866e-12
-2.066345718e-12
9.428250123e-06
-1.523890065e-12
-2.430296714e-12
9.428247777e-06
-7.793291465e-13
-3.619684867e-12
9.428248308e-06
-2.485502641e-13
-3.797918007e-12
9.42825152e-06
-1.314623384e-12
-4.125591446e-12
9.428252301e-06
-5.897839452e-12
-9.025586506e-12
9.428260787e-06
-1.070141697e-11
-1.175030172e-11
9.42829469e-06
-4.250985188e-11
-3.835415371e-11
-3.426665973e-11
-4.252373601e-11
9.428250808e-06
-6.414057033e-13
-5.874060732e-13
9.428251386e-06
-5.01476101e-13
-6.056244536e-13
9.428252302e-06
-1.882200702e-13
-9.096610739e-13
9.428252027e-06
4.254682594e-14
-2.077472997e-12
9.428251181e-06
8.696343524e-13
6.203312956e-14
9.428253028e-06
1.710579396e-12
-4.642652336e-14
9.428254406e-06
-1.755049256e-13
4.080538628e-13
9.428251901e-06
-5.690686218e-13
-2.383732163e-12
9.428248682e-06
-1.237504559e-12
-3.572855082e-12
9.428247624e-06
-3.458321311e-12
-4.073862907e-12
9.428244023e-06
-1.071663326e-12
-8.948762759e-12
9.428250755e-06
-1.724251381e-11
-1.470986627e-11
9.428260414e-06
-4.998082865e-11
-5.324131632e-11
-8.278103129e-11
-6.090401479e-11
9.42824565e-06
1.824197591e-13
-1.385027225e-12
9.42824656e-06
3.023370779e-13
-2.969460935e-13
9.428247078e-06
9.121395161e-13
2.504255051e-13
9.428247195e-06
-1.075267416e-12
-4.066328232e-13
9.428247735e-06
-3.914695357e-13
-1.470053996e-12
9.428245252e-06
-1.703860418e-12
-1.2796557e-12
9.428247908e-06
8.722247475e-14
2.167799382e-13
9.428245268e-06
-5.677953453e-13
-2.352738619e-12
9.428241428e-06
1.77948687e-12
-2.092520164e-12
9.428237042e-06
-1.173976107e-14
-2.081787591e-12
9.428226268e-06
1.237796731e-11
-7.731744421e-12
9.428214821e-06
-3.290898307e-12
-1.584412257e-11
9.428173385e-06
1.149984596e-11
-8.690013292e-11
-7.852486704e-11
-1.171797076e-10
9.428251444e-06
-2.771903999e-13
-1.280037572e-12
9.428252175e-06
-3.50416801e-13
-1.474197751e-12
9.428250849e-06
-1.239835579e-12
-2.795066948e-13
9.42825103e-06
-1.39372286e-12
-1.532613671e-12
9.42825123e-06
-7.04468375e-13
-7.333226631e-13
9.428251775e-06
5.07795867e-14
5.895407204e-13
9.428254941e-06
1.097312427e-12
8.098524562e-13
9.428255958e-06
-4.428161523e-13
3.299469502e-13
9.428256091e-06
1.829039067e-13
7.706392339e-13
9.428258595e-06
7.898403445e-13
1.752323639e-13
9.428277538e-06
2.458352393e-12
1.662115236e-12
9.428289659e-06
-9.604353564e-12
-1.109524707e-11
9.428414173e-06
-5.440098612e-11
-5.466596769e-11
9.428783802e-06
-2.64683783e-10
-2.651452316e-10
-1.990403396e-09
9.428259019e-06
-1.334915932e-12
-2.036526979e-12
9.428259717e-06
-6.459334465e-13
-1.35885469e-12
9.428261807e-06
-1.401015581e-12
5.168478278e-13
9.428262903e-06
-1.564966477e-13
2.096174991e-13
9.428263394e-06
-1.416665243e-12
-1.089227874e-12
9.428262807e-06
7.449550227e-13
-7.383240591e-14
9.428261681e-06
1.880224804e-14
9.880147933e-13
9.42826208e-06
-2.634194617e-13
1.955796827e-13
9.428266205e-06
3.007373182e-13
2.680201587e-12
9.42826516e-06
-5.212500826e-13
4.713919409e-12
9.428277396e-06
-4.49276388e-12
1.389198219e-11
9.428233235e-06
7.433665064e-12
5.138907118e-11
9.428095631e-06
5.283236368e-11
3.255052641e-11
9.427257569e-06
2.633079217e-10
3.322025379e-10
1.990273418e-09
-1.33934657e-08
9.428251724e-06
-1.072174082e-12
-8.263022981e-13
9.42825092e-06
3.126495002e-14
-2.836524384e-13
9.428252476e-06
1.557495903e-12
3.238101141e-13
9.428252915e-06
1.588146239e-12
2.888473718e-13
9.428253428e-06
1.009477884e-12
-8.874885028e-13
9.428249823e-06
5.452757269e-14
-1.088177756e-12
9.428249553e-06
-5.714306681e-13
-7.509007502e-13
9.428250251e-06
6.610414248e-13
-2.449314778e-13
9.428252982e-06
-1.220837103e-12
-1.075722883e-13
9.428253944e-06
-1.676096085e-12
-9.923746258e-13
9.428274109e-06
-1.327796194e-11
1.810922544e-12
9.428286277e-06
2.220728187e-12
-1.002524343e-11
9.428412856e-06
-1.266501496e-11
-5.543425623e-11
9.428784847e-06
7.692228993e-11
-2.650273075e-10
1.833277207e-09
-1.99138323e-09
9.428263397e-06
-9.831244121e-14
1.292379836e-13
9.428264875e-06
1.201966346e-13
-6.358006284e-13
9.428265712e-06
1.223669857e-12
-9.594616694e-13
9.428265644e-06
9.125587574e-13
-4.693515315e-13
9.428266271e-06
8.775463097e-13
-1.475662052e-12
9.428264168e-06
5.138651566e-13
-1.084533102e-12
9.428264015e-06
8.215505563e-14
-1.49146672e-12
9.428260314e-06
-3.028577166e-13
-8.233732488e-13
9.42825588e-06
-5.81797606e-13
-2.330886115e-12
9.428254473e-06
3.516490214e-12
-2.393178279e-12
9.428240987e-06
3.4180353e-12
-7.781860482e-12
9.428230163e-06
1.843155526e-11
-1.502965953e-11
9.428187964e-06
5.140353605e-11
-8.635812742e-11
9.428235786e-06
8.319526927e-11
-1.17968988e-10
9.272985818e-10
-9.905785031e-10
9.4282212e-06
1.002964679e-12
2.113976467e-13
9.428222779e-06
6.461497676e-13
4.359977106e-13
9.428223017e-06
4.023238997e-13
-1.307907582e-12
9.428222659e-06
-1.123261819e-13
-1.165491739e-12
9.428221993e-06
-3.962351745e-13
-5.445956385e-13
9.428219908e-06
-3.656901536e-14
-5.842861707e-13
9.42822043e-06
7.362216619e-13
-9.053735868e-14
9.428223603e-06
1.102494233e-12
-4.454436259e-13
9.428222144e-06
-6.446011856e-13
-1.69654576e-12
9.428224072e-06
2.369368721e-12
-2.334019549e-12
9.428216731e-06
3.322822149e-12
-8.406395174e-12
9.428225511e-06
9.907211483e-12
-1.304036577e-11
9.428233376e-06
4.062477509e-11
-5.442200561e-11
9.428300542e-06
3.173756789e-11
-6.16720888e-11
3.871743718e-10
-3.388548094e-10
9.428238407e-06
-7.993809073e-14
9.428237471e-06
-9.890185993e-14
9.428239504e-06
-1.619909909e-12
9.428238772e-06
-1.304086455e-13
9.42823841e-06
-1.260610235e-12
9.428237878e-06
-1.148399989e-13
9.428237766e-06
-3.636553989e-13
9.428238191e-06
-7.453580496e-13
9.428239705e-06
-2.546591346e-12
9.428239312e-06
-2.706573999e-12
9.428240785e-06
-5.888375884e-12
9.428248641e-06
-1.135094337e-11
9.428282692e-06
-3.978093528e-11
9.428319391e-06
-4.095343049e-11
-1.646344411e-10
9.428251391e-06
8.799173992e-13
5.021981955e-14
9.428251022e-06
2.694021299e-13
-4.068260186e-13
9.428253144e-06
1.037378229e-12
4.892578584e-13
9.428251409e-06
-2.18192047e-12
1.532610937e-13
9.428250061e-06
-2.64711125e-13
-1.695400387e-12
9.428250941e-06
4.716533015e-13
-6.360202073e-13
9.428250441e-06
6.509223166e-13
2.707115751e-14
9.428251287e-06
1.271895751e-12
6.631169021e-13
9.428248309e-06
-1.422176533e-13
1.449079727e-12
9.428244724e-06
-2.155338652e-12
2.439188441e-12
9.428234072e-06
-6.392073333e-12
6.119065208e-12
9.42822098e-06
-1.315308415e-11
1.164128694e-11
9.428215289e-06
-7.640642182e-11
3.744830478e-11
-6.760067061e-11
4.109597056e-11
9.428246248e-06
-1.714640307e-12
-1.169399548e-13
9.428248643e-06
2.106559056e-14
-5.869314763e-14
9.428247862e-06
3.919746686e-13
5.342410172e-13
9.428250174e-06
1.11824908e-12
2.574746382e-12
9.428246478e-06
-1.156625683e-12
-1.188853913e-13
9.428248401e-06
-3.739322e-13
-1.620641793e-13
9.428247329e-06
7.932527378e-14
-1.300886832e-12
9.428246077e-06
1.307485396e-13
1.993590011e-13
9.428242228e-06
8.382400824e-13
7.649918819e-13
9.428237156e-06
-8.781450437e-13
1.804411579e-12
9.428217795e-06
1.299978662e-12
6.923196447e-12
9.428190849e-06
-1.502434021e-11
1.349115966e-11
9.428104102e-06
-9.776423412e-11
5.242518566e-11
-1.529852509e-10
6.042764262e-11
9.428242741e-06
-3.867446024e-13
5.698243191e-13
9.428241285e-06
-1.064088805e-12
-4.149732162e-13
9.428241576e-06
2.075112438e-13
3.709493686e-13
9.428240626e-06
-1.943004417e-12
1.415265534e-14
9.428242491e-06
6.70128913e-14
4.190667541e-13
9.428240025e-06
8.337164793e-13
-3.530055577e-13
9.428239448e-06
1.173584394e-12
-1.960796603e-13
9.428237727e-06
1.915562379e-12
-1.696704306e-12
9.428231901e-06
4.845127431e-12
-6.054039957e-13
9.428220917e-06
4.78484811e-12
1.765915336e-12
9.428182906e-06
2.27564839e-11
6.301069876e-12
9.428109084e-06
2.32007208e-11
1.557202437e-11
9.42783696e-06
4.638310039e-12
8.508318426e-11
2.296005329e-11
1.15554889e-10
9.428255616e-06
-5.897745779e-13
-6.727560944e-13
9.428256153e-06
-5.088453274e-13
1.055457642e-14
9.428253799e-06
-1.448446964e-12
-1.114385243e-12
9.428256297e-06
4.321449938e-13
1.147877808e-12
9.428257618e-06
-1.008637927e-12
5.884334674e-13
9.428254044e-06
-1.445121654e-12
-4.547196399e-13
9.428254996e-06
8.601715808e-13
1.84896007e-13
9.428254238e-06
-1.124472154e-12
-9.5101519e-13
9.428256546e-06
2.777695894e-12
-1.340613304e-12
9.428257394e-06
5.512523833e-12
-5.716480005e-14
9.428268861e-06
1.398224113e-11
-3.504777569e-12
9.428225648e-06
5.237655299e-11
9.851215204e-12
9.42808767e-06
3.209499592e-11
5.229448042e-11
3.319538835e-10
2.62415485e-10
9.428221991e-06
-4.035599318e-13
-1.356316003e-12
9.42822311e-06
4.083328813e-13
-4.819985745e-13
9.428222902e-06
-3.323619574e-13
-2.408774148e-13
9.428222873e-06
-5.67403069e-13
-4.919781504e-14
9.428226251e-06
-3.320160318e-13
7.583501898e-13
9.428225934e-06
-1.933168544e-13
4.879659712e-13
9.428224733e-06
-1.640633168e-12
-1.163908821e-12
9.428229349e-06
-1.209198317e-12
-1.075603098e-12
9.428234273e-06
-3.664629795e-12
-3.803655037e-12
9.428256083e-06
-5.767657709e-12
-5.687926385e-12
9.428312206e-06
-1.687984248e-11
-1.550484667e-11
9.4285263e-06
-5.361107358e-11
-5.26548141e-11
9.428662022e-06
-3.49557152e-11
-3.357039153e-11
9.430000662e-06
-3.341793987e-10
-3.332322011e-10
1.339312592e-08
9.428213994e-06
6.055051755e-14
-4.419579012e-13
9.428212854e-06
2.04097071e-13
-1.080031083e-12
9.428212073e-06
4.417819267e-13
7.288102432e-13
9.428212592e-06
1.069823108e-12
1.898358318e-13
9.428215326e-06
5.642631471e-13
2.648540881e-13
9.428213727e-06
4.189090289e-14
-1.387902925e-12
9.428213642e-06
-4.576845198e-13
-5.356627274e-14
9.428214216e-06
1.752553345e-13
-6.261275758e-14
9.428216636e-06
-4.029566935e-12
-1.065757957e-12
9.428215412e-06
-4.75120763e-12
-7.33175844e-13
9.428231486e-06
-2.339603404e-11
-1.653723318e-12
9.428183921e-06
-2.471829087e-11
1.084327911e-11
9.428048427e-06
-3.969319531e-12
5.290837019e-11
9.42721032e-06
-2.395125584e-11
2.633603408e-10
6.96224745e-09
9.428248119e-06
-2.529747992e-14
-4.687018543e-13
9.428249154e-06
1.795483522e-12
-5.488552702e-13
9.428249777e-06
1.063831536e-12
4.925834422e-13
9.428248741e-06
1.825199748e-12
-5.004899254e-13
9.42825031e-06
1.583192325e-12
-5.584007933e-13
9.428247742e-06
7.197454961e-13
-1.357955395e-14
9.428248851e-06
1.015213291e-12
8.842932569e-13
9.428246032e-06
7.219993618e-14
8.972667289e-14
9.428242312e-06
-6.90098244e-15
1.42070845e-12
9.428230795e-06
2.57912317e-12
1.339729732e-12
9.428192557e-06