/*--------------------------------*- C++ -*----------------------------------*\
| =========                 |                                                 |
| \\      /  F ield         | OpenFOAM: The Open Source CFD Toolbox           |
|  \\    /   O peration     | Version:  4.x                                   |
|   \\  /    A nd           | Web:      www.OpenFOAM.org                      |
|    \\/     M anipulation  |                                                 |
\*---------------------------------------------------------------------------*/
FoamFile
{
    version     2.0;
    format      ascii;
    class       volScalarField;
    location    "2000";
    object      rho;
}
// * * * * * * * * * * * * * * * * * * * * * * * * * * * * * * * * * * * * * //

dimensions      [1 -3 0 0 0 0 0];

internalField   nonuniform List<scalar> 
1175
(
0.2777048355
0.277704827
0.2777048113
0.2777048158
0.2777048157
0.2777047829
0.2777047759
0.277704812
0.2777048096
0.2777048137
0.2777048626
0.2777049038
0.2777049445
0.2777051107
0.2777053232
0.2777046097
0.2777046288
0.2777046365
0.2777046387
0.2777046592
0.277704636
0.2777046153
0.27770465
0.2777046573
0.2777046562
0.2777046644
0.2777046796
0.2777047638
0.2777049769
0.2777053739
0.2777052912
0.2777052836
0.2777052976
0.2777053029
0.2777052679
0.2777052913
0.277705278
0.2777053023
0.2777052845
0.2777053236
0.2777053625
0.2777054313
0.277705553
0.2777059194
0.2777066938
0.2777044462
0.2777044407
0.2777044549
0.2777045059
0.2777045263
0.2777045347
0.2777045341
0.2777045567
0.2777045664
0.2777045675
0.2777046235
0.2777047384
0.2777049937
0.2777056807
0.2777070128
0.2777045829
0.2777045915
0.2777045894
0.2777046075
0.2777046043
0.2777046014
0.2777045872
0.2777045851
0.277704601
0.2777046131
0.2777046892
0.2777048414
0.2777051856
0.2777060724
0.2777078626
0.2777049983
0.2777050077
0.2777050166
0.2777050266
0.2777049736
0.2777049605
0.2777049684
0.2777049715
0.2777049814
0.2777049656
0.2777050083
0.2777051059
0.2777053949
0.2777060528
0.2777073791
0.2777049831
0.2777049681
0.2777049724
0.2777049957
0.27770499
0.2777050135
0.277705015
0.2777050355
0.2777050227
0.2777050198
0.2777050392
0.2777050985
0.2777052324
0.2777056599
0.2777064496
0.2777044278
0.2777044281
0.2777043928
0.2777043984
0.2777043804
0.277704359
0.2777043819
0.2777043816
0.2777043486
0.2777043708
0.277704387
0.2777044583
0.2777045211
0.2777047036
0.2777051322
0.2777047062
0.2777047334
0.2777047406
0.2777047073
0.2777047171
0.2777046908
0.2777047029
0.2777047023
0.2777047121
0.2777047024
0.2777047136
0.2777047252
0.2777047704
0.2777048968
0.2777051354
0.2777043582
0.2777043448
0.2777043636
0.2777043764
0.2777043968
0.2777044122
0.2777043874
0.2777043876
0.2777043969
0.2777043957
0.2777044075
0.2777044567
0.277704529
0.2777047339
0.27770464
0.2777046301
0.277704625
0.2777046083
0.2777046272
0.2777046093
0.2777045996
0.2777046209
0.2777046198
0.2777046379
0.2777046352
0.2777047255
0.2777049382
0.2777052735
0.2777060666
0.2777044706
0.2777045236
0.2777044778
0.2777044971
0.2777045282
0.2777045485
0.2777045443
0.2777045372
0.2777045088
0.2777045362
0.2777045678
0.2777046931
0.2777050532
0.2777059994
0.2777078002
0.2777046019
0.2777045956
0.2777046147
0.2777046224
0.2777046512
0.2777046551
0.2777046492
0.2777046584
0.2777046451
0.2777046674
0.2777047227
0.2777049672
0.2777056818
0.2777075256
0.2777112621
0.2777044909
0.2777044862
0.2777044851
0.2777044922
0.2777045104
0.2777044938
0.2777044556
0.2777044689
0.2777045058
0.2777045001
0.2777045871
0.2777049204
0.2777058785
0.2777086455
0.277714591
0.2777049182
0.2777048792
0.277704864
0.2777048496
0.2777048814
0.2777048683
0.2777048478
0.2777048042
0.2777048194
0.277704862
0.277704927
0.2777051959
0.2777059092
0.2777077288
0.2777114551
0.2777041413
0.2777041694
0.277704131
0.2777041553
0.2777041256
0.277704122
0.2777041052
0.2777041231
0.2777041151
0.2777041342
0.2777041876
0.2777043312
0.2777046988
0.2777055637
0.2777073562
0.2777050451
0.2777050029
0.2777050333
0.2777050312
0.2777050346
0.2777050731
0.2777051056
0.2777050876
0.2777050813
0.2777050644
0.2777051026
0.2777051945
0.2777053834
0.2777057893
0.2777065267
0.2777044078
0.2777044208
0.2777044102
0.2777044299
0.2777044568
0.2777044904
0.277704468
0.2777044828
0.2777044912
0.2777044917
0.2777045234
0.2777045431
0.2777046407
0.2777048151
0.2777052125
0.277704211
0.2777042058
0.2777042159
0.2777042053
0.2777042083
0.2777041995
0.2777042279
0.2777042192
0.2777042223
0.277704229
0.2777042182
0.277704284
0.2777044112
0.2777047992
0.2777049967
0.2777049807
0.2777049565
0.2777049277
0.2777049138
0.2777049585
0.2777049384
0.277704969
0.2777049724
0.277704972
0.277705019
0.2777051746
0.2777055328
0.2777064221
0.2777045591
0.2777045595
0.2777045504
0.2777045666
0.2777045421
0.2777045769
0.2777046127
0.2777045991
0.2777046093
0.2777046759
0.2777047769
0.277705063
0.2777060168
0.2777084401
0.2777134697
0.2777048608
0.2777048885
0.2777048566
0.2777048789
0.2777048603
0.2777048737
0.277704855
0.2777048684
0.2777048351
0.2777048467
0.2777049972
0.2777055962
0.2777077076
0.2777138222
0.2777271914
0.2777046909
0.2777046631
0.2777046602
0.2777046712
0.277704673
0.2777046511
0.2777047085
0.2777047349
0.2777047349
0.2777047807
0.2777050044
0.2777059187
0.2777092984
0.2777205703
0.2777485741
0.2777049283
0.2777049365
0.2777049433
0.2777049426
0.2777048994
0.2777049299
0.2777049091
0.2777049386
0.277705003
0.2777050729
0.2777052319
0.2777058552
0.2777079222
0.2777140576
0.2777274173
0.2777042888
0.2777042739
0.2777043039
0.2777043165
0.277704309
0.2777043057
0.277704324
0.2777043197
0.2777042753
0.277704293
0.2777043722
0.2777046706
0.2777055787
0.2777080268
0.2777130952
0.2777046735
0.2777046842
0.2777047001
0.2777047097
0.2777047135
0.2777047184
0.2777047308
0.2777047249
0.2777046874
0.277704707
0.2777047383
0.277704853
0.2777051874
0.2777061169
0.2777078854
0.2777052848
0.2777052948
0.277705317
0.2777053516
0.2777053756
0.2777053708
0.2777053564
0.2777053586
0.2777053766
0.2777053606
0.2777054018
0.2777054949
0.2777056437
0.2777060041
0.2777068159
0.2777046909
0.2777047177
0.2777047445
0.2777047337
0.2777047206
0.2777047125
0.2777047319
0.2777047488
0.2777047717
0.2777048123
0.2777048775
0.2777049826
0.2777052668
0.2777059371
0.2777048446
0.2777048451
0.2777048659
0.2777048469
0.2777048587
0.2777049031
0.2777049046
0.2777048968
0.2777048718
0.2777048747
0.2777049408
0.2777051603
0.277705864
0.2777077121
0.2777047162
0.277704692
0.2777046816
0.2777047379
0.2777047209
0.2777047539
0.2777047093
0.2777047438
0.2777047419
0.2777048229
0.2777049359
0.2777055289
0.2777075967
0.277713756
0.2777048858
0.2777048977
0.2777048826
0.2777048779
0.2777048689
0.2777048823
0.2777048838
0.2777049037
0.2777049592
0.2777050805
0.2777054176
0.2777068092
0.2777124341
0.2777317987
0.2777813563
0.277705097
0.2777051505
0.2777051265
0.2777051808
0.2777052025
0.2777051926
0.2777052021
0.2777051909
0.2777052329
0.2777053652
0.2777058593
0.2777082155
0.2777192184
0.2777670239
0.277936307
0.2777048936
0.2777048804
0.2777048974
0.2777048978
0.2777048925
0.2777048728
0.2777048665
0.2777048467
0.2777048615
0.2777049757
0.2777053285
0.2777067365
0.2777123767
0.2777318001
0.2777813308
0.2777052297
0.2777052271
0.2777052651
0.2777052528
0.2777052588
0.2777052531
0.27770527
0.2777052764
0.2777052745
0.2777052571
0.2777053878
0.2777060112
0.2777080988
0.277714187
0.2777275438
0.277703956
0.2777039571
0.2777039681
0.2777039946
0.277703974
0.2777039888
0.2777040233
0.2777040418
0.2777041109
0.2777041444
0.2777042085
0.2777044149
0.2777051401
0.2777069515
0.2777107285
0.2777044624
0.2777044843
0.2777044868
0.2777044857
0.2777044904
0.2777044948
0.2777044801
0.277704503
0.2777044993
0.2777044958
0.2777045267
0.277704657
0.2777049418
0.2777056282
0.2777069601
0.2777049009
0.2777048776
0.2777048966
0.2777048674
0.2777048547
0.277704847
0.2777048248
0.2777048455
0.2777048693
0.2777048763
0.2777049187
0.2777050183
0.2777053648
0.2777062606
0.2777047837
0.2777047782
0.2777047894
0.2777047823
0.2777047828
0.2777047772
0.2777047626
0.2777048119
0.2777047874
0.2777048278
0.2777049142
0.277705242
0.277706222
0.2777089778
0.2777045469
0.2777045523
0.2777045284
0.2777045178
0.2777045343
0.2777045734
0.2777045706
0.2777045845
0.2777045578
0.2777046128
0.277704823
0.2777057043
0.2777090879
0.2777203498
0.2777050098
0.2777049649
0.2777049796
0.2777049726
0.2777050433
0.2777049838
0.2777050006
0.2777049606
0.2777049601
0.2777050934
0.2777055983
0.277708004
0.2777189935
0.2777668151
0.2777039987
0.2777039981
0.2777040135
0.2777040667
0.2777040648
0.2777040187
0.277704082
0.2777041022
0.2777041365
0.2777042433
0.2777050564
0.2777096749
0.2777371517
0.2779154766
0.2817289954
0.2777037285
0.2777037325
0.2777037331
0.2777037482
0.2777037207
0.2777037508
0.2777037367
0.2777037748
0.2777037711
0.2777038693
0.2777043717
0.2777068036
0.2777178354
0.2777655957
0.2779349087
0.2777048017
0.2777047809
0.2777047643
0.2777047741
0.2777048224
0.2777048453
0.2777048261
0.2777048317
0.2777048544
0.2777049218
0.2777051254
0.2777060129
0.2777093825
0.2777206666
0.2777486363
0.277705063
0.2777050683
0.2777050708
0.2777050654
0.2777050904
0.2777051189
0.2777051484
0.277705131
0.2777051602
0.2777051753
0.2777052649
0.2777055977
0.2777065479
0.2777093064
0.2777152583
0.2777053698
0.2777053586
0.2777053458
0.277705352
0.2777053538
0.2777053145
0.2777053073
0.2777052981
0.2777052812
0.2777053081
0.2777053267
0.2777054961
0.2777058584
0.2777067477
0.2777085075
0.2777054186
0.2777053983
0.277705436
0.2777054472
0.2777054225
0.2777054592
0.2777054323
0.2777054537
0.2777055028
0.2777055156
0.277705475
0.2777056282
0.2777058947
0.2777065703
0.2777047905
0.2777047913
0.2777047479
0.2777047369
0.2777047542
0.2777047349
0.2777047592
0.277704734
0.2777047644
0.2777047497
0.2777048341
0.2777051285
0.2777058907
0.2777077145
0.2777042387
0.2777042398
0.2777042368
0.2777042601
0.2777042544
0.2777042223
0.2777042273
0.2777042142
0.2777042649
0.2777042802
0.2777044157
0.2777050583
0.2777071047
0.2777132582
0.2777052059
0.2777052332
0.2777051973
0.2777051921
0.2777051688
0.2777051965
0.2777052263
0.2777052527
0.2777052583
0.2777053539
0.2777056903
0.2777071512
0.2777127517
0.2777321793
0.2777039526
0.2777039524
0.2777039635
0.2777039462
0.2777039953
0.2777040056
0.2777040152
0.2777040358
0.2777040556
0.2777041654
0.2777046388
0.2777070253
0.2777180304
0.2777658265
0.2777053681
0.2777053755
0.2777053684
0.277705354
0.2777053443
0.277705371
0.2777053887
0.2777053945
0.2777054066
0.2777055041
0.2777059011
0.2777073567
0.2777129414
0.2777323553
0.2777050658
0.2777050507
0.277705059
0.2777050687
0.2777050841
0.2777051
0.2777050659
0.2777051076
0.2777051079
0.277705102
0.2777053193
0.2777059095
0.2777079961
0.2777140978
0.2777274709
0.2777056928
0.277705723
0.2777056868
0.277705681
0.2777056664
0.2777056695
0.2777056592
0.2777056825
0.2777057075
0.2777057277
0.2777057886
0.2777060126
0.2777067141
0.2777085628
0.2777122761
0.277704848
0.277704861
0.2777048376
0.2777048739
0.2777048359
0.2777048543
0.2777048497
0.2777048768
0.2777048891
0.277704884
0.2777049492
0.2777050219
0.2777052983
0.2777060012
0.2777073386
0.2777046137
0.2777046022
0.2777045757
0.2777045961
0.2777045696
0.2777045511
0.2777045807
0.2777045662
0.2777045571
0.2777045718
0.2777045581
0.2777045954
0.2777047592
0.277705156
0.2777039213
0.2777038912
0.2777038958
0.277703875
0.2777038832
0.2777039174
0.2777039212
0.2777039064
0.2777039612
0.2777039563
0.2777039957
0.2777041391
0.2777045065
0.2777053867
0.2777035575
0.2777035632
0.2777035967
0.2777035927
0.2777035692
0.2777035809
0.2777035705
0.2777035391
0.2777035524
0.2777036075
0.2777036924
0.2777040077
0.2777049091
0.2777073923
0.2777045863
0.2777045469
0.2777045342
0.2777045361
0.2777045478
0.2777045324
0.2777045391
0.2777045605
0.2777046099
0.2777046332
0.2777047998
0.2777054224
0.2777074453
0.2777135633
0.2777050949
0.2777050978
0.2777050781
0.2777050606
0.2777050491
0.277705019
0.2777050203
0.2777050351
0.2777050289
0.2777051106
0.2777053074
0.2777062205
0.277709584
0.2777208704
0.2777049736
0.2777049675
0.2777049378
0.2777049187
0.2777049471
0.2777049591
0.2777049357
0.2777049063
0.2777049098
0.277704951
0.2777050988
0.2777057553
0.2777078444
0.2777139569
0.2777043748
0.2777044099
0.2777044341
0.2777044228
0.2777043961
0.2777044184
0.2777044058
0.2777043901
0.2777043662
0.2777044215
0.2777044825
0.2777047711
0.2777057354
0.2777081922
0.2777052647
0.2777052651
0.2777053018
0.2777053024
0.2777052789
0.2777053032
0.2777053106
0.2777053177
0.2777052992
0.2777053497
0.2777053747
0.2777055471
0.2777058739
0.2777067679
0.2777085394
0.2777049072
0.2777049273
0.2777049413
0.277704905
0.277704922
0.2777049104
0.2777049199
0.27770492
0.277704941
0.2777049527
0.2777050081
0.2777050749
0.2777052471
0.2777056432
0.2777064062
0.2777045101
0.2777045044
0.2777045197
0.277704519
0.2777045094
0.2777045168
0.277704498
0.2777044996
0.2777044554
0.2777044928
0.2777044719
0.2777044877
0.2777045622
0.2777047555
0.2777045794
0.2777045894
0.2777045746
0.2777045494
0.2777045275
0.2777045191
0.2777045134
0.2777045256
0.2777045426
0.2777045328
0.2777045607
0.2777046243
0.2777047731
0.2777052318
0.2777049282
0.2777049224
0.2777049391
0.2777049114
0.2777048834
0.2777048495
0.2777048551
0.2777048324
0.2777048093
0.2777048204
0.2777048809
0.2777050149
0.2777054074
0.2777063072
0.2777049711
0.2777049498
0.2777049909
0.2777049815
0.2777049937
0.2777049612
0.2777049985
0.2777049903
0.2777049703
0.2777049996
0.2777050207
0.2777052826
0.2777059891
0.2777078266
0.2777044768
0.2777044942
0.2777045818
0.277704607
0.2777046031
0.2777046097
0.277704593
0.2777046192
0.2777046346
0.2777046347
0.2777046899
0.2777049702
0.2777059555
0.2777087414
0.2777043822
0.2777043799
0.2777043903
0.2777043677
0.2777043383
0.2777043168
0.2777043457
0.2777043192
0.2777043369
0.2777043477
0.2777043913
0.2777046517
0.2777053747
0.2777072227
0.2777050959
0.2777050998
0.2777050977
0.2777050998
0.2777050686
0.2777050841
0.2777050401
0.2777050655
0.2777050231
0.277705034
0.2777050641
0.2777051685
0.2777055009
0.2777064234
0.2777045868
0.2777045668
0.277704551
0.2777045788
0.2777046219
0.2777045989
0.2777045982
0.2777045941
0.2777046153
0.2777045986
0.2777046537
0.2777047119
0.2777048993
0.2777052413
0.2777045892
0.2777045583
0.2777045977
0.2777045991
0.2777045863
0.2777045857
0.2777046083
0.2777046086
0.2777046002
0.2777045811
0.2777045677
0.277704624
0.2777047311
0.2777049282
0.2777053411
0.2777048603
0.277704842
0.277704838
0.2777048453
0.2777048411
0.2777048451
0.277704831
0.277704808
0.2777048052
0.2777047936
0.2777048177
0.2777048188
0.2777048887
0.2777049798
0.2777048839
0.2777048648
0.2777048409
0.2777048198
0.2777048378
0.2777048333
0.2777048582
0.2777048571
0.2777048268
0.2777048296
0.2777048208
0.2777048768
0.2777049792
0.2777051864
0.2777047886
0.277704816
0.2777047884
0.2777048211
0.2777048546
0.2777048296
0.2777048133
0.2777047801
0.2777047828
0.2777047805
0.2777048077
0.2777048684
0.2777050782
0.2777054718
0.2777045065
0.2777045324
0.2777045071
0.2777044649
0.2777044743
0.2777044634
0.2777044947
0.2777044859
0.277704493
0.2777044932
0.2777045076
0.2777046369
0.2777049317
0.2777056013
0.2777050637
0.2777050846
0.2777050582
0.2777050745
0.2777050928
0.2777050941
0.2777050973
0.2777051241
0.2777051417
0.2777051328
0.277705192
0.2777053093
0.2777056922
0.2777065928
0.2777039415
0.2777039364
0.2777039718
0.2777039435
0.2777039607
0.2777039569
0.2777039499
0.2777039602
0.2777039452
0.2777040003
0.2777040774
0.277704183
0.2777044814
0.2777051562
0.2777047457
0.2777047453
0.2777047276
0.277704746
0.27770471
0.277704739
0.2777047218
0.2777046947
0.2777047173
0.2777047156
0.2777047057
0.27770478
0.2777049576
0.2777053803
0.277705527
0.277705535
0.2777055062
0.2777055144
0.277705538
0.2777055064
0.2777055152
0.2777054866
0.2777054973
0.277705514
0.2777055088
0.2777055475
0.2777056378
0.2777058408
0.2777046635
0.277704656
0.2777046582
0.2777046964
0.2777046951
0.2777046926
0.2777046894
0.2777046826
0.277704672
0.2777047054
0.2777047181
0.2777047393
0.2777048103
0.2777049232
)
;

boundaryField
{
    top
    {
        type            calculated;
        value           nonuniform List<scalar> 
134
(
0.2777047062
0.2777044078
0.2777052848
0.2777044624
0.2777053698
0.277704848
0.2777049072
0.2777045892
0.2777046635
0.2777047334
0.2777044208
0.2777052948
0.2777044843
0.2777053586
0.277704861
0.2777049273
0.2777045583
0.277704656
0.2777047406
0.2777044102
0.277705317
0.2777044868
0.2777053458
0.2777048376
0.2777049413
0.2777045977
0.2777046582
0.2777047073
0.2777044299
0.2777053516
0.2777044857
0.277705352
0.2777048739
0.277704905
0.2777045991
0.2777046964
0.2777047171
0.2777044568
0.2777053756
0.2777044904
0.2777053538
0.2777048359
0.277704922
0.2777045863
0.2777046951
0.2777046908
0.2777044904
0.2777053708
0.2777044948
0.2777053145
0.2777048543
0.2777049104
0.2777045857
0.2777046926
0.2777047029
0.277704468
0.2777053564
0.2777044801
0.2777053073
0.2777048497
0.2777049199
0.2777046083
0.2777046894
0.2777047023
0.2777044828
0.2777053586
0.277704503
0.2777052981
0.2777048768
0.27770492
0.2777046086
0.2777046826
0.2777047121
0.2777044912
0.2777053766
0.2777044993
0.2777052812
0.2777048891
0.277704941
0.2777046002
0.277704672
0.2777047024
0.2777044917
0.2777053606
0.2777044958
0.2777053081
0.277704884
0.2777049527
0.2777045811
0.2777047054
0.2777047136
0.2777045234
0.2777054018
0.2777045267
0.2777053267
0.2777049492
0.2777050081
0.2777045677
0.2777047181
0.2777047252
0.2777045431
0.2777054949
0.277704657
0.2777054961
0.2777050219
0.2777050749
0.277704624
0.2777047393
0.2777047704
0.2777046407
0.2777056437
0.2777049418
0.2777058584
0.2777052983
0.2777052471
0.2777047311
0.2777048103
0.2777048968
0.2777048151
0.2777060041
0.2777056282
0.2777067477
0.2777060012
0.2777056432
0.2777049282
0.2777049232
0.2777051354
0.2777052125
0.2777068159
0.2777069601
0.2777085075
0.2777073386
0.2777064062
0.2777053411
)
;
    }
    bottom
    {
        type            calculated;
        value           nonuniform List<scalar> 
127
(
0.2777048355
0.2777043582
0.277704211
0.2777046909
0.2777049009
0.2777054186
0.2777046137
0.2777045101
0.2777048603
0.277704827
0.2777043448
0.2777042058
0.2777047177
0.2777048776
0.2777053983
0.2777046022
0.2777045044
0.277704842
0.2777048113
0.2777043636
0.2777042159
0.2777047445
0.2777048966
0.277705436
0.2777045757
0.2777045197
0.277704838
0.2777048158
0.2777043764
0.2777042053
0.2777047337
0.2777048674
0.2777054472
0.2777045961
0.277704519
0.2777048453
0.2777048157
0.2777043968
0.2777042083
0.2777047206
0.2777048547
0.2777054225
0.2777045696
0.2777045094
0.2777048411
0.2777047829
0.2777044122
0.2777041995
0.2777047125
0.277704847
0.2777054592
0.2777045511
0.2777045168
0.2777048451
0.2777047759
0.2777043874
0.2777042279
0.2777047319
0.2777048248
0.2777054323
0.2777045807
0.277704498
0.277704831
0.277704812
0.2777043876
0.2777042192
0.2777047488
0.2777048455
0.2777054537
0.2777045662
0.2777044996
0.277704808
0.2777048096
0.2777043969
0.2777042223
0.2777047717
0.2777048693
0.2777055028
0.2777045571
0.2777044554
0.2777048052
0.2777048137
0.2777043957
0.277704229
0.2777048123
0.2777048763
0.2777055156
0.2777045718
0.2777044928
0.2777047936
0.2777048626
0.2777044075
0.2777042182
0.2777048775
0.2777049187
0.277705475
0.2777045581
0.2777044719
0.2777048177
0.2777049038
0.2777044567
0.277704284
0.2777049826
0.2777050183
0.2777056282
0.2777045954
0.2777044877
0.2777048188
0.2777049445
0.277704529
0.2777044112
0.2777052668
0.2777053648
0.2777058947
0.2777047592
0.2777045622
0.2777048887
0.2777051107
0.2777047339
0.2777047992
0.2777059371
0.2777062606
0.2777065703
0.277705156
0.2777047555
0.2777049798
0.2777053232
)
;
    }
    side-walls
    {
        type            calculated;
        value           nonuniform List<scalar> 
261
(
0.2777048355
0.2777046097
0.2777052912
0.2777044462
0.2777045829
0.2777049983
0.2777049831
0.2777044278
0.2777047062
0.277704827
0.2777046288
0.2777052836
0.2777044407
0.2777045915
0.2777050077
0.2777049681
0.2777044281
0.2777047334
0.2777048113
0.2777046365
0.2777052976
0.2777044549
0.2777045894
0.2777050166
0.2777049724
0.2777043928
0.2777047406
0.2777048158
0.2777046387
0.2777053029
0.2777045059
0.2777046075
0.2777050266
0.2777049957
0.2777043984
0.2777047073
0.2777048157
0.2777046592
0.2777052679
0.2777045263
0.2777046043
0.2777049736
0.27770499
0.2777043804
0.2777047171
0.2777047829
0.277704636
0.2777052913
0.2777045347
0.2777046014
0.2777049605
0.2777050135
0.277704359
0.2777046908
0.2777047759
0.2777046153
0.277705278
0.2777045341
0.2777045872
0.2777049684
0.277705015
0.2777043819
0.2777047029
0.277704812
0.27770465
0.2777053023
0.2777045567
0.2777045851
0.2777049715
0.2777050355
0.2777043816
0.2777047023
0.2777048096
0.2777046573
0.2777052845
0.2777045664
0.277704601
0.2777049814
0.2777050227
0.2777043486
0.2777047121
0.2777048137
0.2777046562
0.2777053236
0.2777045675
0.2777046131
0.2777049656
0.2777050198
0.2777043708
0.2777047024
0.2777048626
0.2777046644
0.2777053625
0.2777046235
0.2777046892
0.2777050083
0.2777050392
0.277704387
0.2777047136
0.2777049038
0.2777046796
0.2777054313
0.2777047384
0.2777048414
0.2777051059
0.2777050985
0.2777044583
0.2777047252
0.2777049445
0.2777047638
0.277705553
0.2777049937
0.2777051856
0.2777053949
0.2777052324
0.2777045211
0.2777047704
0.2777051107
0.2777049769
0.2777059194
0.2777056807
0.2777060724
0.2777060528
0.2777056599
0.2777047036
0.2777048968
0.2777053232
0.2777053739
0.2777066938
0.2777070128
0.2777078626
0.2777073791
0.2777064496
0.2777051322
0.2777051354
0.2777048603
0.2777048839
0.2777047886
0.2777045065
0.2777050637
0.2777039415
0.2777047457
0.277705527
0.2777046635
0.277704842
0.2777048648
0.277704816
0.2777045324
0.2777050846
0.2777039364
0.2777047453
0.277705535
0.277704656
0.277704838
0.2777048409
0.2777047884
0.2777045071
0.2777050582
0.2777039718
0.2777047276
0.2777055062
0.2777046582
0.2777048453
0.2777048198
0.2777048211
0.2777044649
0.2777050745
0.2777039435
0.277704746
0.2777055144
0.2777046964
0.2777048411
0.2777048378
0.2777048546
0.2777044743
0.2777050928
0.2777039607
0.27770471
0.277705538
0.2777046951
0.2777048451
0.2777048333
0.2777048296
0.2777044634
0.2777050941
0.2777039569
0.277704739
0.2777055064
0.2777046926
0.277704831
0.2777048582
0.2777048133
0.2777044947
0.2777050973
0.2777039499
0.2777047218
0.2777055152
0.2777046894
0.277704808
0.2777048571
0.2777047801
0.2777044859
0.2777051241
0.2777039602
0.2777046947
0.2777054866
0.2777046826
0.2777048052
0.2777048268
0.2777047828
0.277704493
0.2777051417
0.2777039452
0.2777047173
0.2777054973
0.277704672
0.2777047936
0.2777048296
0.2777047805
0.2777044932
0.2777051328
0.2777040003
0.2777047156
0.277705514
0.2777047054
0.2777048177
0.2777048208
0.2777048077
0.2777045076
0.277705192
0.2777040774
0.2777047057
0.2777055088
0.2777047181
0.2777048188
0.2777048768
0.2777048684
0.2777046369
0.2777053093
0.277704183
0.27770478
0.2777055475
0.2777047393
0.2777048887
0.2777049792
0.2777050782
0.2777049317
0.2777056922
0.2777044814
0.2777049576
0.2777056378
0.2777048103
0.2777049798
0.2777051864
0.2777054718
0.2777056013
0.2777065928
0.2777051562
0.2777053803
0.2777058408
0.2777049232
)
;
    }
    inlet
    {
        type            calculated;
        value           nonuniform List<scalar> 
81
(
0.2777048355
0.2777046097
0.2777052912
0.2777044462
0.2777045829
0.2777049983
0.2777049831
0.2777044278
0.2777047062
0.2777043582
0.27770464
0.2777044706
0.2777046019
0.2777044909
0.2777049182
0.2777041413
0.2777050451
0.2777044078
0.277704211
0.2777049967
0.2777045591
0.2777048608
0.2777046909
0.2777049283
0.2777042888
0.2777046735
0.2777052848
0.2777046909
0.2777048446
0.2777047162
0.2777048858
0.277705097
0.2777048936
0.2777052297
0.277703956
0.2777044624
0.2777049009
0.2777047837
0.2777045469
0.2777050098
0.2777039987
0.2777037285
0.2777048017
0.277705063
0.2777053698
0.2777054186
0.2777047905
0.2777042387
0.2777052059
0.2777039526
0.2777053681
0.2777050658
0.2777056928
0.277704848
0.2777046137
0.2777039213
0.2777035575
0.2777045863
0.2777050949
0.2777049736
0.2777043748
0.2777052647
0.2777049072
0.2777045101
0.2777045794
0.2777049282
0.2777049711
0.2777044768
0.2777043822
0.2777050959
0.2777045868
0.2777045892
0.2777048603
0.2777048839
0.2777047886
0.2777045065
0.2777050637
0.2777039415
0.2777047457
0.277705527
0.2777046635
)
;
    }
    outlet
    {
        type            calculated;
        value           nonuniform 0();
    }
    procBoundary0to1
    {
        type            processor;
        value           nonuniform List<scalar> 
97
(
0.2777057159
0.2777051148
0.2777060286
0.2777079427
0.2777091576
0.2777105151
0.2777094402
0.2777077081
0.2777058236
0.2777055147
0.2777051148
0.2777051148
0.2777073473
0.2777081681
0.2777105574
0.2777163639
0.2777216816
0.2777165689
0.2777100373
0.277707798
0.2777058628
0.2777055847
0.2777081681
0.2777081681
0.277720202
0.2777271451
0.2777416231
0.277769576
0.2777419096
0.2777198136
0.2777105869
0.2777080326
0.2777072432
0.277711486
0.2777271451
0.2777271451
0.277814772
0.2779361177
0.2779617024
0.2778147647
0.2777420642
0.2777158328
0.2777090441
0.2777080441
0.2777148442
0.2777483689
0.2779361177
0.2779361177
0.2811245689
0.2779351876
0.2779602773
0.2777818746
0.2777695554
0.2777222775
0.2777111834
0.2777079114
0.2777114653
0.2777266057
0.2777817124
0.2779351876
0.2777818746
0.2777818746
0.2777419421
0.2777132154
0.2777174098
0.2777093812
0.2777059345
0.2777071803
0.2777124466
0.2777269803
0.2777488954
0.2777273293
0.2777132154
0.2777132154
0.2777112589
0.2777060274
0.2777076838
0.2777051784
0.2777059701
0.2777081216
0.2777115858
0.2777147092
0.2777109714
0.2777082576
0.2777060274
0.2777060274
0.2777060388
0.2777051532
0.2777051909
0.2777055948
0.2777062672
0.2777069451
0.2777084002
0.2777065382
0.2777061525
0.2777062242
0.2777051532
)
;
    }
}


// ************************************************************************* //
