/*--------------------------------*- C++ -*----------------------------------*\
| =========                 |                                                 |
| \\      /  F ield         | OpenFOAM: The Open Source CFD Toolbox           |
|  \\    /   O peration     | Version:  4.x                                   |
|   \\  /    A nd           | Web:      www.OpenFOAM.org                      |
|    \\/     M anipulation  |                                                 |
\*---------------------------------------------------------------------------*/
FoamFile
{
    version     2.0;
    format      ascii;
    class       volScalarField;
    location    "2000";
    object      T;
}
// * * * * * * * * * * * * * * * * * * * * * * * * * * * * * * * * * * * * * //

dimensions      [0 0 0 1 0 0 0];

internalField   nonuniform List<scalar> 
1175
(
1223.14984
1223.149877
1223.149946
1223.149926
1223.149927
1223.150072
1223.150103
1223.149945
1223.149961
1223.149957
1223.149782
1223.149708
1223.14979
1223.149634
1223.149832
1223.150834
1223.15075
1223.150716
1223.150707
1223.150616
1223.150718
1223.15081
1223.150659
1223.150634
1223.15066
1223.150688
1223.150796
1223.150868
1223.150925
1223.151133
1223.147832
1223.147866
1223.147804
1223.147781
1223.147935
1223.147832
1223.147892
1223.147788
1223.147877
1223.14774
1223.14768
1223.147695
1223.147994
1223.14832
1223.148728
1223.151554
1223.151579
1223.151516
1223.151291
1223.151202
1223.151165
1223.151169
1223.151074
1223.151046
1223.151094
1223.151016
1223.151021
1223.151297
1223.151631
1223.152433
1223.150952
1223.150914
1223.150924
1223.150844
1223.150858
1223.150871
1223.150935
1223.150949
1223.150897
1223.150905
1223.150773
1223.150732
1223.151002
1223.151517
1223.152516
1223.149122
1223.149081
1223.149042
1223.148998
1223.149231
1223.149289
1223.149256
1223.149246
1223.149218
1223.14934
1223.149321
1223.149402
1223.149529
1223.149993
1223.150819
1223.149189
1223.149256
1223.149237
1223.149134
1223.149159
1223.149056
1223.14905
1223.148963
1223.14903
1223.149079
1223.149103
1223.14916
1223.149406
1223.149463
1223.149804
1223.151635
1223.151634
1223.15179
1223.151765
1223.151844
1223.151938
1223.151838
1223.151842
1223.151994
1223.151918
1223.15191
1223.151771
1223.151936
1223.152129
1223.152197
1223.150409
1223.150289
1223.150257
1223.150404
1223.150361
1223.150477
1223.150424
1223.150428
1223.15039
1223.150447
1223.150438
1223.150494
1223.150557
1223.150577
1223.150658
1223.151942
1223.152001
1223.151918
1223.151862
1223.151772
1223.151704
1223.151814
1223.151815
1223.151781
1223.151808
1223.15182
1223.151778
1223.151902
1223.151995
1223.150701
1223.150744
1223.150767
1223.15084
1223.150757
1223.150836
1223.15088
1223.150789
1223.150805
1223.15076
1223.150881
1223.150801
1223.150706
1223.151195
1223.151577
1223.151447
1223.151213
1223.151415
1223.15133
1223.151193
1223.151104
1223.151124
1223.15116
1223.151303
1223.151245
1223.151314
1223.15141
1223.151651
1223.151957
1223.152937
1223.150868
1223.150896
1223.150812
1223.150778
1223.150651
1223.150635
1223.150662
1223.150629
1223.150714
1223.150716
1223.150822
1223.150905
1223.151258
1223.152255
1223.154415
1223.151357
1223.151378
1223.151383
1223.151352
1223.151272
1223.151345
1223.151516
1223.151465
1223.151335
1223.15148
1223.15154
1223.151616
1223.152342
1223.153929
1223.157179
1223.149475
1223.149647
1223.149714
1223.149777
1223.149638
1223.149696
1223.149788
1223.149987
1223.149947
1223.149858
1223.149922
1223.149897
1223.150256
1223.15136
1223.153565
1223.152897
1223.152773
1223.152943
1223.152836
1223.152966
1223.152983
1223.153058
1223.152984
1223.153037
1223.153016
1223.152989
1223.153004
1223.153212
1223.153876
1223.154892
1223.148916
1223.149102
1223.148968
1223.148977
1223.148963
1223.148793
1223.148651
1223.148734
1223.148772
1223.148881
1223.148822
1223.148735
1223.148745
1223.148923
1223.149551
1223.151723
1223.151666
1223.151713
1223.151626
1223.151507
1223.15136
1223.151459
1223.151396
1223.151366
1223.151385
1223.151309
1223.151397
1223.15141
1223.151637
1223.151844
1223.15259
1223.152613
1223.152569
1223.152615
1223.152602
1223.152641
1223.152517
1223.152558
1223.152556
1223.152562
1223.15272
1223.152748
1223.153023
1223.153253
1223.149129
1223.1492
1223.149306
1223.149433
1223.149495
1223.149298
1223.149388
1223.149258
1223.149261
1223.149326
1223.149327
1223.14929
1223.149539
1223.150095
1223.151057
1223.151055
1223.151095
1223.151024
1223.151132
1223.150979
1223.150824
1223.150892
1223.15088
1223.150709
1223.150708
1223.150949
1223.151362
1223.152873
1223.155705
1223.149728
1223.149606
1223.149746
1223.149648
1223.149731
1223.149672
1223.149758
1223.149711
1223.149911
1223.15007
1223.150229
1223.150635
1223.151685
1223.155051
1223.162469
1223.150477
1223.150599
1223.150612
1223.150563
1223.150555
1223.150653
1223.150404
1223.150303
1223.150367
1223.150435
1223.150566
1223.151007
1223.152928
1223.159133
1223.17456
1223.149431
1223.149395
1223.149365
1223.149368
1223.149558
1223.149425
1223.14952
1223.149402
1223.149171
1223.149074
1223.149195
1223.149494
1223.15074
1223.154013
1223.161472
1223.152247
1223.152313
1223.152181
1223.152126
1223.152159
1223.152174
1223.152095
1223.152123
1223.152351
1223.152396
1223.152491
1223.152678
1223.153292
1223.154693
1223.157353
1223.150553
1223.150506
1223.150436
1223.150394
1223.150377
1223.150356
1223.150303
1223.150333
1223.150516
1223.150493
1223.150564
1223.150706
1223.15106
1223.151439
1223.152561
1223.147861
1223.147816
1223.147719
1223.147566
1223.147461
1223.147482
1223.147547
1223.14754
1223.147472
1223.147578
1223.147506
1223.147414
1223.147595
1223.147947
1223.14819
1223.150477
1223.150358
1223.15024
1223.150288
1223.150346
1223.150382
1223.150297
1223.150227
1223.150142
1223.150015
1223.149897
1223.149945
1223.150094
1223.150502
1223.149799
1223.149797
1223.149706
1223.149789
1223.149737
1223.149543
1223.149537
1223.149579
1223.149716
1223.149803
1223.149861
1223.150054
1223.150456
1223.151433
1223.150365
1223.150472
1223.150517
1223.150269
1223.150344
1223.1502
1223.150399
1223.15026
1223.150321
1223.150175
1223.150499
1223.150931
1223.152174
1223.155343
1223.149618
1223.149566
1223.149632
1223.149653
1223.149693
1223.149635
1223.149633
1223.149565
1223.14941
1223.149265
1223.149466
1223.150401
1223.153429
1223.164378
1223.191609
1223.148688
1223.148452
1223.148558
1223.148319
1223.148224
1223.148268
1223.148232
1223.148306
1223.148234
1223.148181
1223.148498
1223.149878
1223.155941
1223.182321
1223.258072
1223.149584
1223.149642
1223.149567
1223.149565
1223.149589
1223.149676
1223.149709
1223.149816
1223.14984
1223.149727
1223.149859
1223.150721
1223.153682
1223.16437
1223.191714
1223.148103
1223.148115
1223.147948
1223.148001
1223.147976
1223.148001
1223.14793
1223.147914
1223.147975
1223.148263
1223.148509
1223.148807
1223.149962
1223.153443
1223.160916
1223.153713
1223.153709
1223.15366
1223.153543
1223.153634
1223.15357
1223.153419
1223.153345
1223.153067
1223.153019
1223.153086
1223.153337
1223.153644
1223.154783
1223.156765
1223.151483
1223.151387
1223.151375
1223.15138
1223.15136
1223.151341
1223.151406
1223.15131
1223.151342
1223.15141
1223.151443
1223.151379
1223.151525
1223.151863
1223.152665
1223.149552
1223.149654
1223.14957
1223.149699
1223.149755
1223.149789
1223.149888
1223.149802
1223.149715
1223.149746
1223.149762
1223.149953
1223.150213
1223.150688
1223.150068
1223.150092
1223.150043
1223.150074
1223.150072
1223.150097
1223.150163
1223.149954
1223.150094
1223.150037
1223.1501
1223.150199
1223.150829
1223.152466
1223.151111
1223.151087
1223.151192
1223.151239
1223.151167
1223.150995
1223.151011
1223.150965
1223.151147
1223.151174
1223.151366
1223.151952
1223.153855
1223.160105
1223.149072
1223.149269
1223.149205
1223.149236
1223.148925
1223.149188
1223.149119
1223.14932
1223.149436
1223.149378
1223.149647
1223.150809
1223.156932
1223.183248
1223.153525
1223.153528
1223.15346
1223.153226
1223.153234
1223.153439
1223.153167
1223.153108
1223.153106
1223.153393
1223.153836
1223.156145
1223.171448
1223.269755
1212.860765
1223.154715
1223.154698
1223.154695
1223.154628
1223.15475
1223.154619
1223.154686
1223.154543
1223.154673
1223.15477
1223.155049
1223.156096
1223.162032
1223.188612
1223.264229
1223.149988
1223.15008
1223.150153
1223.15011
1223.149897
1223.149797
1223.149886
1223.149876
1223.14984
1223.149813
1223.150033
1223.150592
1223.152557
1223.158709
1223.174287
1223.148837
1223.148814
1223.148803
1223.148827
1223.148717
1223.148592
1223.148464
1223.148549
1223.148452
1223.148507
1223.148555
1223.148633
1223.149394
1223.151018
1223.15424
1223.147486
1223.147535
1223.147592
1223.147565
1223.147557
1223.14773
1223.147763
1223.147809
1223.147901
1223.147844
1223.147965
1223.147849
1223.148038
1223.148542
1223.149676
1223.147271
1223.147361
1223.147195
1223.147145
1223.147254
1223.147093
1223.147213
1223.147123
1223.146922
1223.146918
1223.147266
1223.147101
1223.147328
1223.147713
1223.150038
1223.150034
1223.150226
1223.150274
1223.150198
1223.150283
1223.150178
1223.150296
1223.150189
1223.150353
1223.150331
1223.150194
1223.150338
1223.151423
1223.152468
1223.152463
1223.152477
1223.152374
1223.152399
1223.152541
1223.152523
1223.152593
1223.152422
1223.152565
1223.15279
1223.153004
1223.154341
1223.157535
1223.148208
1223.148088
1223.148246
1223.148269
1223.148372
1223.148251
1223.148124
1223.148028
1223.148093
1223.148061
1223.148266
1223.148894
1223.152031
1223.162702
1223.153728
1223.153729
1223.15368
1223.153756
1223.153541
1223.153497
1223.153459
1223.153393
1223.15342
1223.153465
1223.153873
1223.15512
1223.161174
1223.187601
1223.147494
1223.147461
1223.147492
1223.147556
1223.147599
1223.147482
1223.147409
1223.147404
1223.147439
1223.1474
1223.147337
1223.147989
1223.151195
1223.161927
1223.148825
1223.148892
1223.148855
1223.148813
1223.148745
1223.148676
1223.148829
1223.148658
1223.148709
1223.148945
1223.14881
1223.149255
1223.150415
1223.153837
1223.161238
1223.146063
1223.145931
1223.14609
1223.146116
1223.14618
1223.146167
1223.146214
1223.146119
1223.146035
1223.146046
1223.146127
1223.1463
1223.146711
1223.147686
1223.149949
1223.149784
1223.149727
1223.14983
1223.14967
1223.149838
1223.149757
1223.149779
1223.149664
1223.149625
1223.1497
1223.149582
1223.149772
1223.149955
1223.15022
1223.150998
1223.150817
1223.150867
1223.150984
1223.150894
1223.151011
1223.151092
1223.150963
1223.15103
1223.151081
1223.151052
1223.151222
1223.151376
1223.151491
1223.151682
1223.153866
1223.153999
1223.153979
1223.15407
1223.154034
1223.153884
1223.153868
1223.153939
1223.153715
1223.153799
1223.153834
1223.15385
1223.154059
1223.154655
1223.155469
1223.155444
1223.155296
1223.155313
1223.155417
1223.155366
1223.155414
1223.155561
1223.155535
1223.155415
1223.155485
1223.155597
1223.156242
1223.157488
1223.150937
1223.151111
1223.151167
1223.151158
1223.151107
1223.151176
1223.151149
1223.151067
1223.150902
1223.15101
1223.151098
1223.1514
1223.15284
1223.156191
1223.148697
1223.148684
1223.148771
1223.148848
1223.148899
1223.149032
1223.14903
1223.14898
1223.149072
1223.148982
1223.149232
1223.149678
1223.15167
1223.157812
1223.149231
1223.149258
1223.149389
1223.149473
1223.149348
1223.149296
1223.149402
1223.149544
1223.149582
1223.14961
1223.149781
1223.149934
1223.151083
1223.154458
1223.151869
1223.151714
1223.151607
1223.151657
1223.151775
1223.151677
1223.151735
1223.151812
1223.151951
1223.15183
1223.152005
1223.152235
1223.152602
1223.153965
1223.147949
1223.147947
1223.147786
1223.147783
1223.147887
1223.14778
1223.147749
1223.147722
1223.147822
1223.147662
1223.14776
1223.147649
1223.148037
1223.148572
1223.149681
1223.149524
1223.149435
1223.149374
1223.149533
1223.149459
1223.14951
1223.149469
1223.149472
1223.14939
1223.149374
1223.14924
1223.149264
1223.149342
1223.149536
1223.149995
1223.151273
1223.151298
1223.15123
1223.151234
1223.151276
1223.151244
1223.151327
1223.151322
1223.151524
1223.15138
1223.151536
1223.151642
1223.151756
1223.1519
1223.150968
1223.150924
1223.150989
1223.1511
1223.151196
1223.151234
1223.15126
1223.151209
1223.151145
1223.151223
1223.151209
1223.151246
1223.151433
1223.151379
1223.149431
1223.149457
1223.149383
1223.149505
1223.149629
1223.149778
1223.149755
1223.14986
1223.14998
1223.149993
1223.149936
1223.149993
1223.150091
1223.150601
1223.149242
1223.149336
1223.149155
1223.149196
1223.149143
1223.149287
1223.149124
1223.149167
1223.149282
1223.149252
1223.149509
1223.149516
1223.149904
1223.150929
1223.15142
1223.151343
1223.150957
1223.150846
1223.150863
1223.150835
1223.15091
1223.150803
1223.150767
1223.150888
1223.151088
1223.151397
1223.152003
1223.153507
1223.151836
1223.151846
1223.1518
1223.1519
1223.152029
1223.152125
1223.151999
1223.152123
1223.152072
1223.152123
1223.152281
1223.152294
1223.152611
1223.153589
1223.148693
1223.148676
1223.148685
1223.148675
1223.148813
1223.148745
1223.14894
1223.148833
1223.149038
1223.149053
1223.149128
1223.149317
1223.149679
1223.150089
1223.150935
1223.151023
1223.151093
1223.15097
1223.150781
1223.150882
1223.150886
1223.150907
1223.150824
1223.150933
1223.150799
1223.15086
1223.150877
1223.151337
1223.150924
1223.15106
1223.150887
1223.150881
1223.150937
1223.15094
1223.150841
1223.150842
1223.150886
1223.150991
1223.151114
1223.151042
1223.151012
1223.15114
1223.151278
1223.14973
1223.149811
1223.149829
1223.149796
1223.149815
1223.149797
1223.14986
1223.149963
1223.14998
1223.150045
1223.14998
1223.150082
1223.150036
1223.150211
1223.149627
1223.149711
1223.149816
1223.149909
1223.149829
1223.14985
1223.14974
1223.149747
1223.149888
1223.149897
1223.149999
1223.149928
1223.149919
1223.150002
1223.150046
1223.149926
1223.150047
1223.149903
1223.149755
1223.149866
1223.149938
1223.150088
1223.150087
1223.150133
1223.150123
1223.150174
1223.150086
1223.150291
1223.151289
1223.151174
1223.151286
1223.151472
1223.151431
1223.151479
1223.151342
1223.151385
1223.151369
1223.151421
1223.151527
1223.151468
1223.15157
1223.151981
1223.148834
1223.148742
1223.148859
1223.148787
1223.148706
1223.148701
1223.148688
1223.148575
1223.148515
1223.148616
1223.148558
1223.148671
1223.148771
1223.149225
1223.153777
1223.1538
1223.153644
1223.153768
1223.153693
1223.15371
1223.153742
1223.153701
1223.153782
1223.153592
1223.153421
1223.153467
1223.153553
1223.153942
1223.150235
1223.150237
1223.150315
1223.150234
1223.150392
1223.150265
1223.150341
1223.150464
1223.150375
1223.150418
1223.150572
1223.150563
1223.150617
1223.150694
1223.146794
1223.146758
1223.146885
1223.146849
1223.146745
1223.146885
1223.146847
1223.146975
1223.146934
1223.146882
1223.146969
1223.146974
1223.147018
1223.14712
1223.150597
1223.15063
1223.15062
1223.150452
1223.150458
1223.150469
1223.150484
1223.150515
1223.150566
1223.150434
1223.150418
1223.150432
1223.150381
1223.15046
)
;

boundaryField
{
    top
    {
        type            zeroGradient;
    }
    bottom
    {
        type            zeroGradient;
    }
    side-walls
    {
        type            zeroGradient;
    }
    inlet
    {
        type            zeroGradient;
    }
    outlet
    {
        type            zeroGradient;
    }
    procBoundary0to1
    {
        type            processor;
        value           nonuniform List<scalar> 
97
(
1223.150071
1223.152274
1223.151554
1223.149433
1223.153309
1223.153905
1223.152064
1223.150466
1223.152457
1223.150957
1223.152274
1223.152274
1223.15218
1223.151316
1223.154201
1223.157284
1223.160842
1223.156381
1223.156491
1223.150195
1223.152284
1223.153613
1223.151316
1223.151316
1223.159349
1223.162674
1223.170693
1223.18571
1223.16943
1223.161058
1223.154071
1223.149037
1223.151418
1223.153429
1223.162674
1223.162674
1223.210174
1223.258892
1223.271519
1223.210201
1223.168749
1223.159623
1223.153809
1223.151717
1223.156064
1223.175463
1223.258892
1223.258892
1212.530323
1223.262987
1223.277792
1223.189319
1223.185801
1223.158217
1223.150961
1223.148475
1223.15352
1223.165048
1223.190033
1223.262987
1223.189319
1223.189319
1223.169289
1223.156824
1223.152678
1223.152324
1223.152072
1223.155667
1223.16021
1223.163398
1223.173144
1223.16186
1223.156824
1223.156824
1223.151112
1223.15175
1223.150574
1223.151994
1223.152002
1223.151521
1223.152989
1223.156658
1223.155696
1223.150922
1223.15175
1223.15175
1223.15151
1223.15058
1223.150414
1223.15016
1223.150607
1223.152731
1223.150148
1223.154523
1223.151112
1223.147388
1223.15058
)
;
    }
}


// ************************************************************************* //
