/*--------------------------------*- C++ -*----------------------------------*\
| =========                 |                                                 |
| \\      /  F ield         | OpenFOAM: The Open Source CFD Toolbox           |
|  \\    /   O peration     | Version:  4.x                                   |
|   \\  /    A nd           | Web:      www.OpenFOAM.org                      |
|    \\/     M anipulation  |                                                 |
\*---------------------------------------------------------------------------*/
FoamFile
{
    version     2.0;
    format      ascii;
    class       volVectorField;
    location    "2000";
    object      U;
}
// * * * * * * * * * * * * * * * * * * * * * * * * * * * * * * * * * * * * * //

dimensions      [0 1 -1 0 0 0 0];

internalField   nonuniform List<vector> 
1175
(
(0.01099999995 -8.598657626e-11 -3.518962177e-11)
(0.01099999938 7.891675942e-10 8.513856729e-10)
(0.01100000131 -3.987489057e-10 4.349595132e-10)
(0.01100000046 -1.756377881e-09 6.64495001e-10)
(0.01099999839 -6.37700649e-10 -5.360227623e-10)
(0.01100000074 -2.072822975e-09 -2.396560246e-09)
(0.0110000035 -5.942246926e-10 -7.168985702e-11)
(0.01100000408 -7.331393994e-11 -8.678423858e-10)
(0.01100001109 4.232748742e-10 -3.456307027e-09)
(0.01100001197 -8.847249266e-10 -4.9817065e-09)
(0.01100003238 -6.681576685e-09 -6.992581945e-09)
(0.01100003876 -7.007085142e-09 -7.336124819e-09)
(0.01100009841 -1.837956668e-08 -1.827618711e-08)
(0.01100013406 -1.341805964e-08 -1.254296851e-08)
(0.01100024292 -4.440673771e-08 -4.302087422e-08)
(0.01100000069 -8.430841741e-10 -2.574082533e-10)
(0.01099999964 -3.657699393e-10 -3.404845443e-09)
(0.0109999984 2.218293768e-12 -2.003365061e-10)
(0.01100000278 -1.91367391e-09 -1.205080245e-09)
(0.01099999661 -2.000963209e-09 -2.100240125e-09)
(0.011 -1.5719117e-09 -6.974805744e-10)
(0.01100000338 -1.43891193e-09 -7.003175935e-10)
(0.01100000087 -2.540319169e-09 -2.4204783e-09)
(0.01100000564 -5.818413751e-09 -3.334842512e-09)
(0.01100000675 -6.453635206e-09 -2.681490445e-09)
(0.01100002618 -1.41272968e-08 -4.948801292e-09)
(0.0110000268 -1.882056788e-08 -7.625067884e-09)
(0.01100008641 -5.319076493e-08 -2.151088363e-08)
(0.01100010538 -5.294148484e-08 -1.497963511e-08)
(0.01100022476 -1.568513757e-07 -6.494295899e-08)
(0.01100000043 -2.668268932e-09 9.661114941e-10)
(0.01100000144 -1.794019047e-09 -2.712938345e-10)
(0.01099999842 -1.774466938e-09 -5.820862052e-10)
(0.01099999884 -1.309838311e-09 9.034031837e-10)
(0.01099999971 -1.530888715e-09 2.973164661e-10)
(0.01099999864 -2.044444723e-09 -2.812654327e-09)
(0.01100000101 -9.713395506e-10 1.587314211e-09)
(0.01099999704 -3.099723711e-09 -1.219364971e-09)
(0.011000005 -4.285650464e-09 -1.48306787e-09)
(0.01099999922 -8.119306276e-09 -1.975120408e-09)
(0.01100001512 -1.406864589e-08 -7.501789404e-09)
(0.01099999259 -2.10777431e-08 -1.191726226e-08)
(0.01100005696 -6.145808465e-08 -2.961372966e-08)
(0.01100002613 -4.96012363e-08 -2.130556355e-08)
(0.01100017705 -1.997673108e-07 -1.349555631e-07)
(0.01100000033 -5.297819885e-10 7.997274995e-10)
(0.01100000133 7.839757225e-10 3.292225256e-09)
(0.01100000035 9.179875008e-10 1.874134586e-09)
(0.01099999973 -6.534875232e-10 -2.12125038e-09)
(0.0109999988 -4.694074474e-10 -3.936833517e-11)
(0.010999998 -7.581845319e-11 -7.040803483e-11)
(0.01100000156 8.542146002e-10 3.338568237e-10)
(0.01099999735 -3.148394203e-10 -4.657296053e-10)
(0.01100000052 -9.607290326e-10 -1.046074439e-09)
(0.01099999354 -4.626795773e-09 1.158385105e-09)
(0.01100001039 -1.573194792e-08 -3.498203755e-09)
(0.01099997662 -2.048168934e-08 -6.551157176e-09)
(0.01100004598 -6.785034335e-08 -2.659027265e-08)
(0.01099996384 -6.901901709e-08 -1.582490516e-08)
(0.01100016425 -3.071474518e-07 -1.920758558e-07)
(0.0110000002 -1.388497868e-09 -1.038509889e-09)
(0.01100000043 -1.129613214e-09 -5.809737279e-10)
(0.01100000028 -1.94684323e-10 -7.4116323e-10)
(0.01100000004 8.426791086e-10 -1.446259208e-09)
(0.01100000025 5.778829547e-10 -4.136723504e-10)
(0.01099999892 1.772155098e-09 -2.204551795e-09)
(0.01100000049 5.906838768e-10 -8.288743951e-10)
(0.01099999577 -4.97962325e-10 -2.170790479e-09)
(0.01099999829 -5.681898325e-10 -9.755598626e-10)
(0.01099998614 2.516604974e-09 -1.068609259e-09)
(0.01099999859 1.952900033e-09 -4.901175063e-09)
(0.01099993546 1.306170736e-09 -1.197952865e-08)
(0.01099999535 -1.326355403e-10 -4.854137954e-08)
(0.01099978551 2.504930899e-10 -4.169524118e-08)
(0.01100007707 9.887650405e-10 -4.507942913e-07)
(0.01100000162 -2.385844165e-10 5.560076992e-10)
(0.01100000344 -9.94618152e-10 -1.607811393e-10)
(0.01100000117 -2.352092998e-11 -1.294813578e-09)
(0.01099999934 2.722029972e-10 -3.656148429e-10)
(0.01100000291 1.000518987e-09 -8.070243124e-10)
(0.01100000168 4.872523995e-10 -1.236993621e-09)
(0.01100000197 6.901915086e-10 1.656076732e-09)
(0.01099999782 2.749442749e-09 -4.982628539e-10)
(0.01100000215 2.039002262e-09 -1.92616393e-09)
(0.01099999535 4.900667919e-09 -1.882580501e-09)
(0.01100001006 1.4476339e-08 -5.031586179e-09)
(0.01099997619 1.976502718e-08 -8.443524221e-09)
(0.01100004376 6.889459287e-08 -2.700034225e-08)
(0.01099996185 6.866412035e-08 -1.694851576e-08)
(0.01100016376 3.058271992e-07 -1.923567917e-07)
(0.0110000017 -2.564359602e-10 5.524787789e-10)
(0.0110000035 7.637720776e-10 4.090598257e-10)
(0.0110000035 -1.938049749e-10 -6.096328502e-10)
(0.01099999953 2.322670589e-09 -3.697083126e-10)
(0.01100000165 8.857358131e-10 -2.247463611e-09)
(0.01099999913 4.781073369e-10 -2.712205399e-10)
(0.01100000073 7.800802156e-10 -2.459213434e-09)
(0.01099999685 1.774069016e-09 -1.374436521e-09)
(0.01100000486 5.029193273e-09 7.023585721e-10)
(0.01099999802 6.698658388e-09 -2.538889641e-09)
(0.01100001589 1.638437875e-08 -6.468619913e-09)
(0.01099999387 2.180902098e-08 -6.981808013e-09)
(0.01100005796 5.966257242e-08 -2.886626349e-08)
(0.01100002319 5.065335737e-08 -2.295050369e-08)
(0.01100017567 1.987795239e-07 -1.345232109e-07)
(0.01100000055 -1.532884227e-10 1.195863267e-10)
(0.01100000159 5.646555907e-10 1.083898494e-09)
(0.01100000204 -6.445816368e-10 9.601958265e-11)
(0.01100000153 -2.147838699e-09 -2.539874577e-09)
(0.0110000002 -1.160443285e-09 -2.360935572e-09)
(0.01100000166 -2.660893914e-10 1.581861112e-09)
(0.01100000104 1.432783963e-10 -3.441413987e-10)
(0.01100000053 2.997709503e-09 -1.360280946e-09)
(0.01100000873 5.715146239e-09 -1.420437995e-09)
(0.01100000615 6.880450034e-09 -2.538879159e-09)
(0.01100002803 1.636746041e-08 -5.964848749e-09)
(0.01100002302 1.933307918e-08 -7.683201717e-09)
(0.01100008622 5.429016767e-08 -2.300161155e-08)
(0.01100010315 5.05562348e-08 -1.539279845e-08)
(0.01100022408 1.550392043e-07 -6.586516648e-08)
(0.01100000115 -4.947879975e-10 -5.439399246e-11)
(0.01100000036 -1.253102895e-09 -1.674288209e-09)
(0.01100000045 -1.101222394e-09 -3.910299631e-09)
(0.01100000199 -1.126765886e-09 -7.328715632e-11)
(0.01100000195 -1.18553935e-09 9.13039651e-10)
(0.01100000274 -1.555299285e-09 -7.118540319e-12)
(0.01100000451 -1.063314445e-09 3.021594314e-09)
(0.0110000032 2.044162054e-09 -2.970381997e-10)
(0.01100001126 3.074319455e-09 -3.168310627e-09)
(0.01100001155 4.391605737e-09 -2.69757064e-11)
(0.01100003027 6.857575951e-09 -6.712990038e-09)
(0.01100003928 7.515496943e-09 -6.923017725e-09)
(0.01100009535 1.885364674e-08 -2.098292038e-08)
(0.01100013465 1.467874628e-08 -1.739088282e-08)
(0.01100024101 4.615866932e-08 -4.478458377e-08)
(0.01100000041 -3.011060504e-10 8.318704554e-10)
(0.01100000072 6.388587516e-10 8.174521455e-10)
(0.01100000141 -4.902617552e-11 -3.397102582e-10)
(0.01100000029 -8.253075445e-10 1.7787227e-10)
(0.01099999645 -1.982396542e-09 -8.20255266e-10)
(0.01100000085 -2.830199864e-10 -1.491574046e-09)
(0.01100000143 -1.157526753e-09 -4.361545725e-10)
(0.01100000299 -1.454400281e-09 -2.677162445e-09)
(0.01100001055 -2.31635438e-09 -3.915530148e-09)
(0.01100000778 -3.566156371e-09 -6.593763434e-09)
(0.01100002567 -5.785997324e-09 -1.538128669e-08)
(0.0110000242 -7.578445259e-09 -1.950942683e-08)
(0.01100008695 -2.226874762e-08 -5.338532951e-08)
(0.01100010483 -1.61977876e-08 -5.080361858e-08)
(0.01099999995 -9.528864301e-10 -1.548871966e-10)
(0.01100000009 -5.389952532e-10 -5.302970115e-10)
(0.0110000003 -9.14259666e-10 -3.024676174e-10)
(0.01100000134 -2.004844289e-09 3.771502764e-11)
(0.01099999912 -6.989121257e-11 -6.236250983e-10)
(0.01100000094 3.098225093e-11 -1.123704349e-09)
(0.01100000206 -7.615453959e-10 -5.830493747e-10)
(0.01099999919 -1.29672026e-09 -1.710031532e-09)
(0.01100000634 -4.07442219e-09 -2.89415536e-09)
(0.01100000183 -7.364991806e-09 -5.812885284e-09)
(0.01100002066 -1.503898507e-08 -1.541611044e-08)
(0.01100000812 -1.991778316e-08 -2.155710341e-08)
(0.01100007258 -6.515075991e-08 -6.469592555e-08)
(0.01100005644 -5.786865112e-08 -5.653163281e-08)
(0.01100020331 -2.467378466e-07 -2.476239559e-07)
(0.01100000241 8.058794089e-10 4.099456478e-10)
(0.01099999814 1.204335689e-09 -5.631162941e-10)
(0.01100000124 -3.394303848e-10 -6.145857224e-10)
(0.01100000129 -1.760094006e-09 -7.460205947e-10)
(0.01100000124 -1.588177821e-09 -5.790849966e-10)
(0.01099999976 3.50124108e-10 -8.897911845e-10)
(0.01099999985 -2.753410365e-10 1.788396651e-10)
(0.01099999806 -1.030356973e-09 -5.644833229e-10)
(0.01100000282 -2.866370885e-09 -1.705051953e-09)
(0.01099999345 -5.095825975e-09 -5.55992479e-09)
(0.01100000951 -1.167468883e-08 -1.548777377e-08)
(0.01099996893 -1.952574102e-08 -2.486894821e-08)
(0.0110000335 -6.411385005e-08 -9.180675467e-08)
(0.01099992052 -5.053788901e-08 -8.06129302e-08)
(0.01100012557 -3.339680137e-07 -5.243976919e-07)
(0.01099999918 -1.917554854e-09 7.228391645e-10)
(0.01099999934 -9.396398633e-10 8.995493492e-10)
(0.01099999753 -6.761689632e-10 5.372871608e-10)
(0.01099999906 -8.762876977e-10 -6.205656158e-11)
(0.01100000294 1.204079209e-10 -1.593924641e-09)
(0.01099999964 -4.268639823e-10 -1.108355789e-09)
(0.01099999923 -1.250631133e-09 -9.922079615e-12)
(0.01099999707 -1.730428088e-09 -1.040697282e-09)
(0.01100000152 -1.413097852e-10 -2.414083629e-09)
(0.01099998934 -3.617548693e-09 -4.333958363e-09)
(0.01100000348 -1.380735288e-08 -9.469715011e-09)
(0.01099995428 -2.06586399e-08 -2.126661131e-08)
(0.0110000152 -8.975425367e-08 -8.477113868e-08)
(0.0109998175 -8.755719125e-08 -8.318006738e-08)
(0.01100008446 -6.367844347e-07 -8.338289932e-07)
(0.01100000061 -2.13581966e-09 -5.337345458e-10)
(0.01100000268 -2.133914557e-09 -7.564985405e-10)
(0.01099999883 -2.711898302e-09 -8.191159568e-10)
(0.01100000086 4.82945787e-10 -1.723184246e-09)
(0.01100000069 1.224884064e-09 -1.978112629e-09)
(0.01099999947 8.35312256e-10 -1.122740144e-09)
(0.01100000057 7.804794976e-10 -1.350254192e-09)
(0.01099999676 3.453406215e-10 -6.512763665e-10)
(0.01099999718 -2.62599581e-09 -1.777672996e-09)
(0.01099998045 -3.357562702e-10 -2.699519874e-09)
(0.01099998783 -1.51184654e-10 -9.184273197e-09)
(0.01099989234 -9.949784645e-10 -2.36054209e-08)
(0.01099992967 -8.619897382e-10 -1.515159597e-07)
(0.01099942643 -1.343378645e-09 -1.552897837e-07)
(0.01099986753 -4.902051409e-11 -2.002926863e-06)
(0.01100000075 -2.057383165e-09 -2.647808473e-11)
(0.01100000164 -1.58393202e-09 5.051272636e-10)
(0.01100000088 2.274185119e-10 -7.893026858e-10)
(0.01100000083 5.341028932e-10 -2.204724206e-09)
(0.01100000177 -3.065766818e-10 -2.698875457e-10)
(0.01100000026 7.98643541e-11 -2.897778725e-10)
(0.01100000189 3.750408069e-10 5.702981373e-10)
(0.01099999934 4.992289237e-10 -2.263578206e-09)
(0.01100000194 2.020990485e-09 -1.050762698e-09)
(0.01099999221 3.25101302e-09 -3.4208069e-09)
(0.01100000206 1.190639279e-08 -8.793919221e-09)
(0.01099995486 2.007484815e-08 -2.177009162e-08)
(0.01100001523 9.052858614e-08 -8.586480729e-08)
(0.01099981704 8.726533491e-08 -8.268986206e-08)
(0.01100008359 6.34607777e-07 -8.351764684e-07)
(0.0110000011 5.431630041e-10 -3.312647014e-10)
(0.01100000073 5.256500397e-10 4.815190184e-10)
(0.01100000203 5.431555235e-10 -9.946527943e-10)
(0.0110000005 1.316239959e-09 -1.303473825e-10)
(0.01100000035 -1.082006381e-09 -4.464324615e-10)
(0.01099999952 -3.314200893e-10 -2.889984387e-10)
(0.01100000156 2.16111257e-09 -1.994587266e-09)
(0.01099999708 2.545817213e-09 -3.261057625e-09)
(0.01100000165 3.146062531e-09 -2.728919493e-09)
(0.01099999223 5.734711836e-09 -5.533052017e-09)
(0.01100000757 1.500621462e-08 -1.614185984e-08)
(0.01099996936 2.123505807e-08 -2.413863518e-08)
(0.01100003065 6.535129638e-08 -9.338325461e-08)
(0.0109999172 5.061588211e-08 -8.124893398e-08)
(0.01100012518 3.31653212e-07 -5.239999393e-07)
(0.01100000078 -1.193772165e-10 -1.66979969e-10)
(0.01100000337 -6.609358023e-10 -8.692797054e-10)
(0.01100000153 6.17207923e-10 7.477452195e-10)
(0.01099999973 -9.93300093e-11 -7.782261705e-10)
(0.01099999976 -2.63585939e-10 -6.539953534e-10)
(0.01100000049 1.734021236e-10 -1.077782926e-09)
(0.01100000088 -1.055139169e-09 -1.964220426e-09)
(0.01099999769 1.873752433e-10 -2.439831802e-09)
(0.01100000382 3.696252339e-09 -3.903983742e-09)
(0.0110000023 4.723350509e-09 -5.614782343e-09)
(0.0110000217 1.390703445e-08 -1.486466043e-08)
(0.01100000653 2.085875649e-08 -2.168251469e-08)
(0.01100007112 6.469020953e-08 -6.680664776e-08)
(0.0110000523 5.623411346e-08 -5.732972686e-08)
(0.01100020335 2.47029344e-07 -2.46431967e-07)
(0.01100000052 6.106674463e-10 1.383000375e-10)
(0.01100000166 -8.393589122e-10 -7.280002224e-10)
(0.01100000248 -7.994298307e-10 5.271925994e-10)
(0.0109999998 -2.256104971e-09 -1.180214071e-09)
(0.01100000231 -7.376403728e-10 -3.597796841e-11)
(0.0110000007 -4.591496025e-10 -8.098047726e-11)
(0.01100000333 -4.422754773e-10 -2.470200211e-09)
(0.01100000167 7.750260272e-10 -4.100102807e-09)
(0.01100000653 1.455950679e-09 -5.58772936e-09)
(0.01100000621 2.881429442e-09 -8.169735979e-09)
(0.01100002734 7.107804807e-09 -1.619399668e-08)
(0.01100002204 7.638837079e-09 -2.043052879e-08)
(0.0110000837 2.105238463e-08 -5.464150464e-08)
(0.01100010356 1.387508524e-08 -5.114075427e-08)
(0.01100022532 6.792315761e-08 -1.573070232e-07)
(0.01099999975 -1.358175383e-09 -4.611208925e-10)
(0.01099999899 -5.19610905e-10 -1.638484475e-09)
(0.0110000001 1.525282962e-09 -2.098687797e-09)
(0.01099999976 -2.718690903e-09 -1.259420561e-09)
(0.01099999836 -5.663881643e-10 -1.471523514e-09)
(0.01099999975 1.170689545e-09 -1.386157272e-09)
(0.01100000148 -1.525226568e-09 -9.574744049e-10)
(0.01099999997 6.530880509e-10 -9.538565362e-10)
(0.01100000471 3.101966718e-11 -4.928747084e-09)
(0.01099999592 -3.758903999e-09 -7.226928224e-09)
(0.01100001569 -4.854629133e-09 -1.607731149e-08)
(0.01099999279 -5.451941659e-09 -2.138487431e-08)
(0.0110000582 -2.916014543e-08 -6.006939489e-08)
(0.01100002455 -2.1519874e-08 -5.014081414e-08)
(0.01099999848 -8.645177133e-10 -3.664897423e-10)
(0.01100000097 -6.648661583e-10 -3.474568794e-10)
(0.0109999985 -2.005595325e-09 -1.03945668e-09)
(0.01099999803 -9.171504595e-10 -1.163565263e-09)
(0.01100000008 -1.31923337e-11 -2.732335579e-09)
(0.01099999705 7.139780565e-10 -2.496325732e-09)
(0.01100000173 -9.296835155e-10 -1.941414047e-09)
(0.01099999875 -1.021733013e-09 -1.367442583e-09)
(0.01100000306 -4.158397289e-09 -2.729568061e-09)
(0.01099999055 -5.990674791e-09 -5.202311162e-09)
(0.01100000825 -1.433305089e-08 -1.372662931e-08)
(0.01099996868 -2.279513333e-08 -2.0151682e-08)
(0.01100003223 -9.250735542e-08 -6.662273879e-08)
(0.01099991744 -8.069951354e-08 -5.178874105e-08)
(0.011 -7.622647655e-11 -3.417493147e-10)
(0.01099999871 -1.178102382e-09 -1.604725616e-09)
(0.01100000057 -1.536598862e-09 -2.410049952e-09)
(0.01099999986 -2.367659639e-09 -3.203701189e-10)
(0.01100000244 -9.406414295e-10 -7.452494922e-10)
(0.01099999912 -3.958174751e-10 -9.081848991e-10)
(0.01099999876 -4.469187667e-12 -1.941048811e-09)
(0.01099999673 -2.369128717e-09 -2.231588177e-09)
(0.01099999874 -2.784968944e-09 -2.488613767e-09)
(0.01099998189 -5.776034864e-09 -4.067795283e-09)
(0.0109999906 -9.473388806e-09 -8.098239749e-09)
(0.01099991548 -2.157952102e-08 -2.105885178e-08)
(0.01099995614 -7.871020573e-08 -8.057492858e-08)
(0.01099962496 -7.573207205e-08 -7.855370381e-08)
(0.01099990796 -7.968361226e-07 -8.018566329e-07)
(0.01100000008 1.621935664e-10 -5.896549981e-10)
(0.01099999905 2.988751942e-10 -2.576937543e-09)
(0.01099999955 7.607235259e-11 -1.47443464e-09)
(0.01099999822 -7.244740283e-10 2.036384037e-10)
(0.01100000063 -2.089759936e-10 1.136069244e-09)
(0.01099999883 -7.67586989e-10 -2.277104248e-09)
(0.01099999939 -1.382432403e-09 -1.77380741e-09)
(0.01099999583 -1.530610712e-09 -2.751552673e-09)
(0.01099999843 -6.765845458e-10 9.07149231e-10)
(0.01099998498 -2.539976904e-09 -3.830256492e-09)
(0.01099998646 -8.642394424e-09 9.955408177e-09)
(0.0109999159 -2.028971947e-08 -1.432927536e-08)
(0.01099988708 -1.30786276e-07 -4.307640984e-09)
(0.0109994077 -1.433929826e-07 -9.839678795e-08)
(0.01099953838 -1.814063627e-06 -1.250088055e-06)
(0.01100000007 -2.693639036e-09 1.206233523e-09)
(0.01100000018 -2.625257711e-09 -1.077766201e-10)
(0.01100000011 -2.659327918e-09 -1.542220313e-09)
(0.01100000013 -1.511582965e-09 -1.54586703e-09)
(0.01100000021 -1.418062447e-09 -1.121587504e-10)
(0.01100000098 -4.165082014e-10 -1.579621473e-09)
(0.01100000074 -6.347989075e-10 -1.200440792e-09)
(0.01099999711 -1.331215994e-10 -1.916224628e-09)
(0.01099999546 -3.724991821e-10 1.740648721e-09)
(0.01099997798 3.350611601e-10 6.293985461e-10)
(0.01099997026 1.346082965e-10 1.817328917e-08)
(0.01099981038 -8.091829681e-11 -7.368313757e-09)
(0.01099969774 -1.201123312e-09 -3.017762186e-08)
(0.01099833654 -1.850550064e-09 -2.363334348e-07)
(0.01099830385 -2.208100697e-10 -4.143487164e-06)
(0.01100000095 -1.698379701e-09 1.465842029e-09)
(0.01100000092 -9.038880877e-10 2.367895331e-10)
(0.01099999919 1.410125202e-10 -1.827978114e-09)
(0.01100000053 -1.339636013e-11 -1.541984504e-09)
(0.01100000366 1.638760871e-09 -2.292984998e-09)
(0.01099999881 5.571139573e-10 -1.269984477e-09)
(0.01099999919 3.288083558e-10 -2.376386968e-09)
(0.0109999977 -1.025868666e-10 -2.900716771e-09)
(0.01099999909 3.590171384e-10 -1.777225546e-10)
(0.0109999846 2.199371496e-09 -1.799520822e-09)
(0.01099998435 6.118185488e-09 7.599183479e-09)
(0.01099990997 1.882739728e-08 -1.523137969e-08)
(0.01099988757 1.272667407e-07 -4.862687906e-09)
(0.01099940915 1.413359416e-07 -9.769117436e-08)
(0.01099954136 1.812122916e-06 -1.246692419e-06)
(0.0110000001 -9.841403276e-10 1.126884184e-10)
(0.01100000315 -1.753958439e-09 -9.105098292e-10)
(0.01099999971 1.615262911e-09 -1.397790523e-09)
(0.01099999886 2.163957891e-09 -2.834934389e-09)
(0.01100000063 4.896911817e-10 -1.871071712e-09)
(0.01099999938 3.501501559e-10 -3.029529186e-09)
(0.01099999716 1.598212831e-09 -1.552377103e-09)
(0.0109999951 2.551339677e-09 -1.550704329e-09)
(0.01099999858 7.198643163e-10 -1.912817295e-09)
(0.01099998305 3.317416852e-09 -4.347126799e-09)
(0.01099999115 9.950482565e-09 -9.03730354e-09)
(0.01099991452 2.028715508e-08 -2.43470956e-08)
(0.01099995816 7.978896212e-08 -8.236417508e-08)
(0.01099962558 7.546708033e-08 -7.840437599e-08)
(0.01099990857 7.987005166e-07 -8.002505562e-07)
(0.01100000065 5.113011231e-10 -3.849964311e-10)
(0.01100000409 -6.381800501e-10 -1.777303388e-09)
(0.01100000119 2.138199878e-10 -2.425900945e-09)
(0.01100000073 -3.790410786e-10 -1.516225315e-09)
(0.0109999999 2.12660379e-10 1.05686733e-11)
(0.01099999768 1.25462711e-09 -2.135401471e-09)
(0.01099999927 -1.861937335e-10 -1.998353618e-09)
(0.01099999732 7.519548039e-10 -3.423413406e-09)
(0.01100000238 3.763004866e-09 -3.100639997e-09)
(0.01099999076 5.78716925e-09 -6.351765022e-09)
(0.01100000705 1.441172814e-08 -1.309674511e-08)
(0.01099996879 2.360431908e-08 -2.201713922e-08)
(0.01100003471 9.174938777e-08 -6.75675006e-08)
(0.01099991773 7.993772207e-08 -5.377412842e-08)
(0.0110001283 5.227057512e-07 -3.351264209e-07)
(0.01100000037 2.348737418e-10 1.166369605e-09)
(0.011000003 8.600508529e-10 2.672053197e-10)
(0.01100000089 -1.165684696e-11 1.176039148e-09)
(0.01099999939 6.040025474e-10 7.379319907e-10)
(0.01100000006 1.077088387e-09 1.249453594e-10)
(0.01099999831 6.216436065e-10 -1.24726617e-09)
(0.01099999856 6.598283175e-10 -9.986258711e-10)
(0.01099999974 4.747849276e-10 -2.342548342e-09)
(0.01100000308 -5.167947222e-10 -6.103110358e-09)
(0.01099999684 1.435439617e-09 -6.426391274e-09)
(0.01100001454 4.91786841e-09 -1.683040156e-08)
(0.01099999253 8.507201216e-09 -2.206161255e-08)
(0.01100005388 3.003630877e-08 -6.189292367e-08)
(0.01100002595 2.12331213e-08 -5.294635415e-08)
(0.01100017544 1.350823376e-07 -2.027537427e-07)
(0.01100000069 -6.072943377e-10 -1.708799435e-09)
(0.01099999852 -3.061255278e-09 -8.299321819e-10)
(0.01099999902 -2.196000924e-09 -1.263555522e-09)
(0.01100000091 3.552792252e-10 -1.521211702e-09)
(0.01099999945 -2.060381987e-09 -6.780542561e-10)
(0.01100000123 -6.419938949e-10 -1.109626601e-09)
(0.01100000249 -1.383506533e-09 -2.871328082e-09)
(0.01099999885 -5.534418378e-10 -2.677843083e-09)
(0.01100000312 -4.642207585e-10 -4.892451737e-09)
(0.01099999448 -1.423069807e-09 -6.029129996e-09)
(0.01100000983 -3.22857059e-09 -1.460576093e-08)
(0.01099997731 -7.385847775e-09 -1.977675829e-08)
(0.01100004528 -2.482315741e-08 -6.877722249e-08)
(0.01099996155 -1.67882962e-08 -6.835132792e-08)
(0.01099999976 -2.147649389e-10 -9.439419129e-10)
(0.01099999819 8.860104006e-11 -1.388014498e-09)
(0.01099999952 5.512484736e-10 -1.876541614e-09)
(0.01100000185 -7.8360472e-10 -1.311939888e-09)
(0.01099999928 -1.132747563e-09 1.030605428e-09)
(0.01099999841 2.816997586e-10 -2.489191774e-11)
(0.01100000249 -9.053829353e-10 -1.611266176e-09)
(0.01099999988 -1.204428956e-09 -8.612883298e-10)
(0.01100000152 -1.507434896e-09 -3.917697763e-09)
(0.01099998923 -3.415769353e-09 -5.520625257e-09)
(0.01100000374 -9.064494719e-09 -1.306276846e-08)
(0.01099995485 -2.08917066e-08 -2.097429076e-08)
(0.01100001485 -8.625632854e-08 -9.125110992e-08)
(0.01099981938 -8.316081681e-08 -8.739992849e-08)
(0.01099999963 6.107809262e-11 -1.551687108e-09)
(0.01099999777 -2.057154549e-10 -1.12784289e-09)
(0.01100000138 1.167376674e-10 -2.241950734e-10)
(0.0110000009 -4.046571484e-11 -1.562977931e-09)
(0.01100000272 3.111543164e-10 2.623211988e-10)
(0.01099999758 5.863111589e-10 -8.742280506e-10)
(0.01100000103 4.655227155e-10 -1.645007952e-09)
(0.01099999845 -1.152507696e-09 -2.609099792e-09)
(0.01099999821 4.763474997e-10 -1.988142704e-09)
(0.01099998307 -3.181258504e-09 -4.004461251e-09)
(0.01099998644 9.379751644e-09 -9.944829185e-09)
(0.01099991285 -1.443908722e-08 -2.164381554e-08)
(0.01099988875 -2.746321433e-09 -1.324869356e-07)
(0.01099940857 -9.687418164e-08 -1.421767353e-07)
(0.01099999957 -7.436012571e-10 -1.083111297e-09)
(0.01099999757 -1.762640906e-10 -1.277953999e-09)
(0.01100000056 -1.101089998e-10 -5.337409358e-10)
(0.01099999939 -2.236410873e-09 -2.626956767e-09)
(0.01099999977 2.654574361e-10 -1.419407866e-09)
(0.01099999924 -1.228471621e-09 -9.365809628e-10)
(0.01100000067 -2.46920452e-10 -1.422270812e-10)
(0.01100000028 -6.152373916e-11 -1.128800412e-09)
(0.01100000119 7.733732304e-10 1.745287403e-09)
(0.01099999917 8.724059492e-10 1.756473109e-09)
(0.01099998051 1.355025014e-08 1.213976024e-08)
(0.01099999497 -6.231188343e-09 -7.561387396e-09)
(0.01099967072 -4.283568832e-08 -4.284277719e-08)
(0.0109995215 -2.462908988e-07 -2.456148574e-07)
(0.01099751054 -3.980371483e-06 -3.98067529e-06)
(0.0110000006 -7.766960255e-10 -6.460550684e-10)
(0.01099999638 -1.423663188e-09 -1.743833435e-09)
(0.01100000084 -1.439502973e-09 -4.533196314e-10)
(0.01099999972 -6.295863746e-10 4.551476407e-10)
(0.01099999963 -1.613014427e-09 -1.212113525e-09)
(0.01100000103 1.355737227e-09 -7.51896849e-10)
(0.01099999986 1.648342238e-09 1.887645572e-10)
(0.01099999959 -8.392767113e-10 2.273269096e-10)
(0.01100000015 1.033753851e-09 3.927475545e-09)
(0.01099999845 1.107135032e-09 8.629230536e-09)
(0.01099996758 -1.899446467e-09 3.046425655e-08)
(0.01099992327 -1.769399655e-09 7.442800013e-08)
(0.01099919462 -1.074840615e-09 1.828659115e-09)
(0.01099766153 -8.778195874e-10 5.110337186e-07)
(0.01098918623 7.767931135e-10 -1.861483918e-05)
(0.01099999961 -8.009787514e-10 9.311246017e-12)
(0.01099999811 -7.078945784e-10 -2.408853885e-10)
(0.01100000011 -5.140676279e-10 -7.85557092e-10)
(0.01099999962 2.373658086e-10 -1.933956438e-10)
(0.01100000125 3.419157721e-10 -5.499389975e-10)
(0.01100000013 -8.374135711e-10 -5.984534608e-10)
(0.01099999854 -6.705169073e-10 -4.28186949e-10)
(0.01099999816 -7.51623554e-10 4.015848837e-10)
(0.01100000123 -2.800299255e-10 2.217824427e-09)
(0.01099999967 -1.995502609e-09 -7.53020411e-10)
(0.01099998098 -1.401406933e-08 1.180057038e-08)
(0.01099999312 5.374771196e-09 -7.789332579e-09)
(0.01099967132 4.075046432e-08 -4.188223849e-08)
(0.01099952112 2.431554319e-07 -2.472377206e-07)
(0.01099750987 3.976422709e-06 -3.97981621e-06)
(0.01099999975 -1.257910475e-09 1.701437462e-10)
(0.0110000011 -1.444508817e-10 -2.968328986e-10)
(0.01099999908 5.803908659e-10 3.384097555e-10)
(0.01100000073 1.558171648e-09 4.178240215e-10)
(0.01100000142 2.123413773e-10 -1.234511766e-09)
(0.01099999881 7.650626844e-10 -6.140711921e-10)
(0.01099999874 -5.526249836e-10 -5.903148666e-10)
(0.01099999663 1.268647849e-09 -1.190826421e-09)
(0.01099999519 -2.570689317e-09 -8.870653244e-10)
(0.01099998482 7.01232333e-10 -2.039258938e-09)
(0.01099998592 -9.101122232e-09 -1.067696693e-08)
(0.01099991098 1.303138989e-08 -2.167024128e-08)
(0.01099988765 2.329398513e-09 -1.322191198e-07)
(0.01099940937 9.641133908e-08 -1.433565201e-07)
(0.01099953976 1.245261065e-06 -1.815421238e-06)
(0.01100000025 1.011517546e-09 4.557739374e-10)
(0.01100000192 4.456962826e-10 1.367814644e-09)
(0.01100000126 1.859414908e-09 -4.663997762e-10)
(0.0109999995 1.963316647e-09 -1.057889894e-09)
(0.01100000081 1.15097787e-09 -6.385818184e-10)
(0.01099999898 3.138058464e-10 -2.514126829e-09)
(0.01099999725 -1.721771528e-10 -1.398732565e-09)
(0.01099999723 4.607519268e-10 -9.803805109e-10)
(0.01100000058 1.818542419e-10 -2.618276762e-09)
(0.01099999002 4.692866503e-09 -3.083657892e-09)
(0.01100000155 8.758935053e-09 -1.257369504e-08)
(0.01099995542 2.186034059e-08 -2.129781277e-08)
(0.0110000117 8.568027875e-08 -9.008254874e-08)
(0.01099981877 8.166082591e-08 -8.821656663e-08)
(0.01100008342 8.335180644e-07 -6.354109569e-07)
(0.01100000073 4.833157271e-11 -4.777575117e-11)
(0.01100000102 9.783949811e-10 1.510425433e-11)
(0.01099999927 2.749508785e-10 -1.307783634e-09)
(0.0110000001 2.091719044e-11 -4.58046264e-10)
(0.01100000068 1.217045942e-10 1.525522732e-10)
(0.0109999983 -4.054568093e-10 -1.090526377e-09)
(0.01100000143 6.822953046e-10 -4.370541292e-10)
(0.01099999731 1.176353765e-09 -2.21908107e-09)
(0.01100000115 -4.623475795e-10 -3.476666101e-09)
(0.01099999514 2.176100594e-09 -5.011440498e-09)
(0.01100001063 2.974399178e-09 -1.352205397e-08)
(0.01099997552 6.692537931e-09 -2.06778028e-08)
(0.01100004318 2.637353541e-08 -7.065936755e-08)
(0.01099996176 1.712216697e-08 -6.938105679e-08)
(0.01100016342 1.919210569e-07 -3.070758088e-07)
(0.01099999937 1.504072716e-09 -4.329548956e-10)
(0.0109999987 5.437888259e-10 -2.545942541e-09)
(0.01099999947 -2.812375148e-10 -2.902424308e-10)
(0.01100000104 -1.329478923e-09 -7.902630687e-10)
(0.01099999957 1.031777454e-10 -2.252452125e-09)
(0.01099999932 2.476870998e-09 -8.130956639e-10)
(0.01099999953 9.944688332e-10 -1.103264244e-09)
(0.01099999788 2.14578584e-09 -1.998234183e-09)
(0.01100000103 2.916190099e-10 -1.565367065e-09)
(0.01099998971 -2.255284866e-09 -1.054593963e-09)
(0.01099999878 -3.387173435e-09 -1.339470074e-09)
(0.01099993739 -7.164461065e-09 3.11803419e-11)
(0.010999997 -4.950872187e-08 -7.1173826e-10)
(0.01099978345 -3.896283552e-08 -9.394356597e-10)
(0.01099999856 9.446828708e-11 1.00005206e-10)
(0.01099999885 -6.392658341e-11 -6.425195247e-10)
(0.01099999971 1.337121636e-09 1.471728678e-11)
(0.01099999984 -5.24505191e-10 -1.197294459e-09)
(0.01099999917 -1.697316163e-09 -8.751346775e-10)
(0.01099999833 -1.685444538e-09 -1.02216882e-09)
(0.01100000172 2.325710251e-10 7.72547558e-10)
(0.01099999589 -2.931302107e-10 -1.997489232e-09)
(0.01099999762 -8.433823178e-10 -1.712318017e-09)
(0.01099998077 -3.341878651e-09 -1.365045218e-09)
(0.01099998906 -9.740230176e-09 -1.272787627e-09)
(0.01099989373 -2.415580391e-08 -1.170783447e-09)
(0.01099993054 -1.521781532e-07 -5.086137874e-10)
(0.01099942439 -1.579123763e-07 -1.073331008e-09)
(0.01100000035 -2.623832715e-09 -9.771679664e-10)
(0.0110000013 -8.139818033e-10 -1.290634202e-10)
(0.01100000039 5.759725745e-10 -7.887776786e-11)
(0.01099999958 -9.20168871e-11 -3.868534713e-10)
(0.01100000148 -7.834660479e-10 -1.458217968e-09)
(0.01099999867 1.678978465e-09 -1.705888953e-09)
(0.01100000012 2.036658579e-09 5.359179113e-10)
(0.0109999956 1.342513529e-09 -2.242419617e-09)
(0.01099999583 4.596628763e-09 -2.211202005e-09)
(0.01099997767 1.86271475e-09 5.537104878e-10)
(0.01099996752 1.900055835e-08 5.208415114e-10)
(0.01099981074 -5.710345416e-09 -4.375099549e-10)
(0.01099969793 -2.823834436e-08 -6.04376424e-10)
(0.01099833867 -2.348458552e-07 -1.473614476e-09)
(0.01099999851 3.374931169e-12 -8.684843201e-10)
(0.01100000021 -1.434878326e-09 -4.410099624e-10)
(0.0109999994 -9.865986269e-10 -6.794577471e-10)
(0.01100000016 -9.40489976e-10 -5.871368116e-10)
(0.01100000089 2.297236258e-10 -1.140180469e-09)
(0.01100000123 -7.291826062e-10 3.43704103e-10)
(0.01099999824 -1.374778971e-09 3.105185065e-10)
(0.01099999937 1.482624163e-09 -1.146849369e-10)
(0.01099999998 4.431042442e-09 -7.445710345e-10)
(0.01099999853 9.08429031e-09 -8.992757808e-10)
(0.010999967 3.054798109e-08 -1.135808409e-09)
(0.01099992409 7.491065575e-08 -5.476174062e-10)
(0.01099919677 2.458816092e-09 -2.035518648e-09)
(0.0109976597 5.120525099e-07 -2.292174018e-09)
(0.01099999972 -3.417890601e-10 -2.887375364e-09)
(0.01099999914 3.685927189e-10 -8.257641522e-10)
(0.01100000095 -2.016555202e-09 1.026984628e-09)