/*--------------------------------*- C++ -*----------------------------------*\
| =========                 |                                                 |
| \\      /  F ield         | OpenFOAM: The Open Source CFD Toolbox           |
|  \\    /   O peration     | Version:  4.x                                   |
|   \\  /    A nd           | Web:      www.OpenFOAM.org                      |
|    \\/     M anipulation  |                                                 |
\*---------------------------------------------------------------------------*/
FoamFile
{
    version     2.0;
    format      ascii;
    class       volScalarField;
    location    "2000";
    object      X_CO2;
}
// * * * * * * * * * * * * * * * * * * * * * * * * * * * * * * * * * * * * * //

dimensions      [0 0 0 0 0 0 0];

internalField   nonuniform List<scalar> 
1175
(
0.03999466421
0.03999466421
0.03999466421
0.03999466422
0.03999466427
0.03999466441
0.03999466489
0.03999466648
0.03999467147
0.03999468645
0.03999472896
0.03999484159
0.03999511603
0.03999572119
0.03999691021
0.03999466421
0.03999466421
0.03999466421
0.03999466423
0.03999466428
0.03999466447
0.03999466512
0.03999466733
0.03999467455
0.03999469713
0.03999476388
0.03999494784
0.03999541164
0.03999645669
0.03999851013
0.03999466421
0.03999466421
0.03999466422
0.03999466423
0.0399946643
0.03999466457
0.03999466551
0.03999466885
0.03999468025
0.03999471755
0.03999483315
0.0399951669
0.03999604411
0.03999807864
0.04000208627
0.03999466421
0.03999466421
0.03999466422
0.03999466424
0.03999466433
0.03999466467
0.03999466592
0.0399946705
0.03999468666
0.03999474159
0.03999491911
0.03999545465
0.03999692403
0.04000045011
0.0400074463
0.03999466421
0.03999466421
0.03999466422
0.03999466424
0.03999466434
0.03999466471
0.03999466611
0.03999467127
0.03999468982
0.03999475414
0.03999496706
0.03999562809
0.0399975015
0.04000213942
0.04001145953
0.03999466421
0.03999466421
0.03999466422
0.03999466424
0.03999466433
0.03999466467
0.03999466592
0.0399946705
0.03999468666
0.03999474159
0.0399949191
0.03999545464
0.03999692401
0.04000045006
0.0400074462
0.03999466421
0.03999466421
0.03999466422
0.03999466423
0.0399946643
0.03999466457
0.03999466551
0.03999466885
0.03999468025
0.03999471755
0.03999483315
0.03999516689
0.03999604409
0.03999807859
0.04000208616
0.03999466421
0.03999466421
0.03999466421
0.03999466423
0.03999466428
0.03999466447
0.03999466512
0.03999466733
0.03999467455
0.03999469713
0.03999476388
0.03999494784
0.03999541162
0.03999645664
0.03999851002
0.03999466421
0.03999466421
0.03999466421
0.03999466422
0.03999466427
0.03999466441
0.03999466489
0.03999466648
0.03999467147
0.03999468645
0.03999472896
0.03999484158
0.03999511602
0.03999572115
0.0399969101
0.03999466421
0.03999466421
0.03999466421
0.03999466423
0.03999466428
0.03999466447
0.03999466512
0.03999466733
0.03999467455
0.03999469713
0.03999476388
0.03999494785
0.03999541165
0.03999645675
0.03999466421
0.03999466421
0.03999466422
0.03999466423
0.0399946643
0.03999466455
0.03999466547
0.03999466871
0.03999467982
0.03999471646
0.03999483093
0.03999516436
0.03999604812
0.03999811067
0.04000217699
0.03999466421
0.03999466421
0.03999466422
0.03999466424
0.03999466434
0.0399946647
0.0399946661
0.03999467128
0.03999469009
0.03999475583
0.03999497461
0.03999565443
0.03999757095
0.04000226376
0.04001161279
0.03999466421
0.03999466421
0.03999466422
0.03999466425
0.03999466437
0.03999466486
0.03999466678
0.03999467422
0.03999470246
0.03999480644
0.03999517343
0.03999639021
0.04000006256
0.04000962694
0.04002915686
0.03999466421
0.03999466421
0.03999466422
0.03999466425
0.03999466439
0.03999466493
0.03999466711
0.0399946757
0.03999470909
0.03999483585
0.03999530087
0.03999691987
0.04000210829
0.04001655575
0.04004743172
0.03999466421
0.03999466421
0.03999466422
0.03999466425
0.03999466437
0.03999466486
0.03999466678
0.03999467422
0.03999470246
0.03999480644
0.03999517342
0.03999639019
0.04000006251
0.04000962677
0.04002915645
0.03999466421
0.03999466421
0.03999466422
0.03999466424
0.03999466434
0.0399946647
0.0399946661
0.03999467128
0.03999469009
0.03999475583
0.03999497461
0.03999565441
0.03999757089
0.04000226359
0.04001161237
0.03999466421
0.03999466421
0.03999466422
0.03999466423
0.0399946643
0.03999466455
0.03999466547
0.03999466871
0.03999467982
0.03999471646
0.03999483093
0.03999516435
0.03999604808
0.03999811053
0.04000217662
0.03999466421
0.03999466421
0.03999466421
0.03999466423
0.03999466428
0.03999466447
0.03999466512
0.03999466733
0.03999467455
0.03999469713
0.03999476388
0.03999494784
0.03999541162
0.03999645665
0.03999851003
0.03999466421
0.03999466421
0.03999466422
0.03999466423
0.0399946643
0.03999466457
0.03999466551
0.03999466885
0.03999468025
0.03999471755
0.03999483315
0.03999516691
0.03999604415
0.03999807878
0.03999466421
0.03999466421
0.03999466422
0.03999466424
0.03999466434
0.0399946647
0.0399946661
0.03999467128
0.03999469009
0.03999475583
0.03999497462
0.03999565444
0.039997571
0.04000226401
0.03999466421
0.03999466421
0.03999466422
0.03999466425
0.03999466439
0.03999466495
0.03999466719
0.03999467604
0.03999471034
0.0399948394
0.03999530476
0.03999687964
0.04000172005
0.04001450084
0.0400407084
0.03999466421
0.03999466421
0.03999466422
0.03999466427
0.03999466445
0.03999466522
0.03999466844
0.03999468182
0.03999473673
0.03999495779
0.03999581992
0.03999901304
0.04000986895
0.0400416454
0.04011118541
0.03999466421
0.03999466421
0.03999466423
0.03999466427
0.03999466448
0.03999466535
0.03999466907
0.03999468493
0.03999475228
0.03999503565
0.03999620707
0.04000089345
0.04001851965
0.04007709373
0.04022262272
0.03999466421
0.03999466421
0.03999466422
0.03999466427
0.03999466445
0.03999466522
0.03999466844
0.03999468182
0.03999473673
0.03999495779
0.03999581991
0.03999901299
0.04000986875
0.04004164462
0.04011118322
0.03999466421
0.03999466421
0.03999466422
0.03999466425
0.03999466439
0.03999466495
0.03999466719
0.03999467604
0.03999471034
0.0399948394
0.03999530475
0.0399968796
0.04000171987
0.04001450017
0.04004070634
0.03999466421
0.03999466421
0.03999466422
0.03999466424
0.03999466434
0.0399946647
0.0399946661
0.03999467128
0.03999469009
0.03999475583
0.03999497461
0.03999565441
0.0399975709
0.0400022636
0.04001161238
0.03999466421
0.03999466421
0.03999466422
0.03999466423
0.0399946643
0.03999466457
0.03999466551
0.03999466885
0.03999468025
0.03999471755
0.03999483315
0.0399951669
0.03999604409
0.0399980786
0.04000208617
0.03999466421
0.03999466421
0.03999466422
0.03999466424
0.03999466433
0.03999466467
0.03999466592
0.0399946705
0.03999468666
0.03999474159
0.03999491911
0.03999545467
0.03999692411
0.04000045035
0.03999466421
0.03999466421
0.03999466422
0.03999466425
0.03999466437
0.03999466486
0.03999466678
0.03999467422
0.03999470246
0.03999480645
0.03999517344
0.03999639025
0.04000006274
0.04000962755
0.03999466421
0.03999466421
0.03999466422
0.03999466427
0.03999466445
0.03999466522
0.03999466844
0.03999468182
0.03999473673
0.03999495779
0.03999581993
0.03999901311
0.0400098693
0.04004164712
0.03999466421
0.03999466422
0.03999466423
0.03999466428
0.03999466453
0.03999466562
0.03999467042
0.03999469158
0.03999478486
0.03999519397
0.03999696224
0.04000437078
0.04003353026
0.04013445876
0.04039192691
0.03999466421
0.03999466422
0.03999466423
0.03999466429
0.03999466457
0.03999466582
0.03999467147
0.03999469725
0.03999481621
0.03999537151
0.03999798631
0.04001031766
0.04006749695
0.04031595791
0.04117726313
0.03999466421
0.03999466422
0.03999466423
0.03999466428
0.03999466453
0.03999466562
0.03999467042
0.03999469158
0.03999478486
0.03999519397
0.03999696222
0.04000437067
0.0400335296
0.04013445539
0.0403919132
0.03999466421
0.03999466421
0.03999466422
0.03999466427
0.03999466445
0.03999466522
0.03999466844
0.03999468182
0.03999473673
0.03999495779
0.03999581991
0.03999901301
0.04000986881
0.04004164479
0.04011118342
0.03999466421
0.03999466421
0.03999466422
0.03999466425
0.03999466437
0.03999466486
0.03999466678
0.03999467422
0.03999470246
0.03999480644
0.03999517343
0.0399963902
0.04000006255
0.04000962686
0.04002915657
0.03999466421
0.03999466421
0.03999466422
0.03999466424
0.03999466433
0.03999466467
0.03999466592
0.0399946705
0.03999468666
0.03999474159
0.03999491911
0.03999545465
0.03999692403
0.0400004501
0.04000744626
0.03999466421
0.03999466421
0.03999466422
0.03999466424
0.03999466434
0.03999466471
0.03999466611
0.03999467127
0.03999468982
0.03999475414
0.03999496707
0.03999562813
0.03999750161
0.04000213975
0.03999466421
0.03999466421
0.03999466422
0.03999466425
0.03999466439
0.03999466493
0.03999466711
0.0399946757
0.03999470909
0.03999483586
0.03999530089
0.03999691995
0.04000210859
0.04001655673
0.03999466421
0.03999466421
0.03999466423
0.03999466427
0.03999466448
0.03999466535
0.03999466907
0.03999468493
0.03999475229
0.03999503566
0.03999620711
0.04000089365
0.04001852056
0.04007709753
0.03999466421
0.03999466422
0.03999466423
0.03999466429
0.03999466457
0.03999466582
0.03999467147
0.03999469725
0.03999481622
0.03999537152
0.03999798636
0.040010318
0.04006749912
0.04031597263
0.03999466421
0.03999466422
0.03999466423
0.0399946643
0.03999466462
0.03999466606
0.03999467279
0.0399947048
0.03999486136
0.03999565567
0.03999987693
0.04002363015
0.04016657913
0.04109326725
0.04763381833
0.03999466421
0.03999466422
0.03999466423
0.03999466429
0.03999466457
0.03999466582
0.03999467147
0.03999469725
0.03999481622
0.03999537152
0.03999798634
0.04001031782
0.04006749756
0.04031596006
0.04117726791
0.03999466421
0.03999466421
0.03999466423
0.03999466427
0.03999466448
0.03999466535
0.03999466907
0.03999468493
0.03999475228
0.03999503566
0.03999620708
0.04000089352
0.0400185199
0.04007709446
0.04022262391
0.03999466421
0.03999466421
0.03999466422
0.03999466425
0.03999466439
0.03999466493
0.03999466711
0.0399946757
0.03999470909
0.03999483586
0.03999530087
0.03999691989
0.04000210836
0.04001655592
0.04004743196
0.03999466421
0.03999466421
0.03999466422
0.03999466424
0.03999466434
0.03999466471
0.03999466611
0.03999467127
0.03999468982
0.03999475414
0.03999496706
0.0399956281
0.03999750152
0.04000213947
0.04001145958
0.03999466421
0.03999466421
0.03999466422
0.03999466424
0.03999466433
0.03999466467
0.03999466592
0.0399946705
0.03999468666
0.03999474159
0.03999491911
0.03999545467
0.03999692411
0.04000045032
0.03999466421
0.03999466421
0.03999466422
0.03999466425
0.03999466437
0.03999466486
0.03999466678
0.03999467422
0.03999470246
0.03999480645
0.03999517344
0.03999639026
0.04000006275
0.04000962747
0.03999466421
0.03999466421
0.03999466422
0.03999466427
0.03999466445
0.03999466522
0.03999466844
0.03999468182
0.03999473673
0.0399949578
0.03999581995
0.03999901316
0.04000986941
0.04004164681
0.03999466421
0.03999466422
0.03999466423
0.03999466428
0.03999466453
0.03999466562
0.03999467042
0.03999469158
0.03999478486
0.03999519398
0.03999696228
0.04000437095
0.040033531
0.04013446134
0.03999466421
0.03999466422
0.03999466423
0.03999466429
0.03999466457
0.03999466582
0.03999467147
0.03999469725
0.03999481622
0.03999537152
0.03999798639
0.0400103181
0.0400674995
0.0403159735
0.03999466421
0.03999466422
0.03999466423
0.03999466428
0.03999466453
0.03999466562
0.03999467042
0.03999469158
0.03999478486
0.03999519398
0.03999696227
0.0400043709
0.04003353079
0.04013446112
0.03999466421
0.03999466421
0.03999466422
0.03999466427
0.03999466445
0.03999466522
0.03999466844
0.03999468182
0.03999473673
0.03999495779
0.03999581993
0.0399990131
0.04000986918
0.04004164611
0.04011118745
0.03999466421
0.03999466421
0.03999466422
0.03999466425
0.03999466437
0.03999466486
0.03999466678
0.03999467422
0.03999470246
0.03999480644
0.03999517343
0.03999639022
0.04000006263
0.04000962712
0.04002915717
0.03999466421
0.03999466421
0.03999466422
0.03999466424
0.03999466433
0.03999466467
0.03999466592
0.0399946705
0.03999468666
0.03999474159
0.03999491911
0.03999545465
0.03999692405
0.04000045017
0.04000744638
0.03999466421
0.03999466421
0.03999466422
0.03999466423
0.0399946643
0.03999466457
0.03999466551
0.03999466885
0.03999468025
0.03999471755
0.03999483315
0.03999516692
0.03999604416
0.03999807876
0.03999466421
0.03999466421
0.03999466422
0.03999466424
0.03999466434
0.0399946647
0.0399946661
0.03999467128
0.03999469009
0.03999475583
0.03999497462
0.03999565446
0.03999757103
0.04000226396
0.03999466421
0.03999466421
0.03999466422
0.03999466425
0.03999466439
0.03999466495
0.03999466719
0.03999467604
0.03999471034
0.0399948394
0.03999530478
0.03999687969
0.04000172019
0.0400145011
0.03999466421
0.03999466421
0.03999466422
0.03999466427
0.03999466445
0.03999466522
0.03999466844
0.03999468182
0.03999473673
0.0399949578
0.03999581995
0.03999901317
0.04000986943
0.04004164679
0.03999466421
0.03999466421
0.03999466423
0.03999466427
0.03999466448
0.03999466535
0.03999466907
0.03999468493
0.03999475229
0.03999503566
0.03999620712
0.04000089369
0.04001852068
0.04007709756
0.03999466421
0.03999466421
0.03999466422
0.03999466427
0.03999466445
0.03999466522
0.03999466844
0.03999468182
0.03999473673
0.0399949578
0.03999581995
0.03999901315
0.04000986937
0.04004164667
0.03999466421
0.03999466421
0.03999466422
0.03999466425
0.03999466439
0.03999466495
0.03999466719
0.03999467604
0.03999471034
0.0399948394
0.03999530477
0.03999687967
0.04000172015
0.04001450118
0.03999466421
0.03999466421
0.03999466422
0.03999466424
0.03999466434
0.0399946647
0.0399946661
0.03999467128
0.03999469009
0.03999475583
0.03999497462
0.03999565444
0.03999757098
0.04000226387
0.04001161307
0.03999466421
0.03999466421
0.03999466422
0.03999466423
0.0399946643
0.03999466457
0.03999466551
0.03999466885
0.03999468025
0.03999471755
0.03999483315
0.03999516691
0.03999604413
0.03999807869
0.04000208635
0.03999466421
0.03999466421
0.03999466421
0.03999466423
0.03999466428
0.03999466447
0.03999466512
0.03999466733
0.03999467455
0.03999469713
0.03999476388
0.03999494785
0.03999541166
0.03999645673
0.03999466421
0.03999466421
0.03999466422
0.03999466423
0.0399946643
0.03999466455
0.03999466547
0.03999466871
0.03999467982
0.03999471646
0.03999483094
0.03999516437
0.03999604814
0.0399981107
0.03999466421
0.03999466421
0.03999466422
0.03999466424
0.03999466434
0.0399946647
0.0399946661
0.03999467128
0.03999469009
0.03999475583
0.03999497462
0.03999565446
0.03999757103
0.04000226394
0.03999466421
0.03999466421
0.03999466422
0.03999466425
0.03999466437
0.03999466486
0.03999466678
0.03999467422
0.03999470246
0.03999480645
0.03999517344
0.03999639027
0.04000006276
0.04000962746
0.03999466421
0.03999466421
0.03999466422
0.03999466425
0.03999466439
0.03999466493
0.03999466711
0.0399946757
0.03999470909
0.03999483586
0.03999530089
0.03999691997
0.04000210863
0.04001655672
0.03999466421
0.03999466421
0.03999466422
0.03999466425
0.03999466437
0.03999466486
0.03999466678
0.03999467422
0.03999470246
0.03999480645
0.03999517344
0.03999639026
0.04000006275
0.04000962743
0.03999466421
0.03999466421
0.03999466422
0.03999466424
0.03999466434
0.0399946647
0.0399946661
0.03999467128
0.03999469009
0.03999475583
0.03999497462
0.03999565445
0.03999757102
0.04000226395
0.03999466421
0.03999466421
0.03999466422
0.03999466423
0.0399946643
0.03999466455
0.03999466547
0.03999466871
0.03999467982
0.03999471646
0.03999483094
0.03999516437
0.03999604814
0.03999811072
0.03999466421
0.03999466421
0.03999466421
0.03999466423
0.03999466428
0.03999466447
0.03999466512
0.03999466733
0.03999467455
0.03999469713
0.03999476388
0.03999494785
0.03999541165
0.03999645672
0.0399985102
0.03999466421
0.03999466421
0.03999466421
0.03999466422
0.03999466427
0.03999466441
0.03999466489
0.03999466648
0.03999467147
0.03999468645
0.03999472897
0.03999484159
0.03999511604
0.0399957212
0.03999466421
0.03999466421
0.03999466421
0.03999466423
0.03999466428
0.03999466447
0.03999466512
0.03999466733
0.03999467455
0.03999469713
0.03999476388
0.03999494785
0.03999541166
0.03999645673
0.03999466421
0.03999466421
0.03999466422
0.03999466423
0.0399946643
0.03999466457
0.03999466551
0.03999466885
0.03999468025
0.03999471755
0.03999483315
0.03999516692
0.03999604416
0.03999807875
0.03999466421
0.03999466421
0.03999466422
0.03999466424
0.03999466433
0.03999466467
0.03999466592
0.0399946705
0.03999468666
0.03999474159
0.03999491911
0.03999545468
0.03999692412
0.04000045033
0.03999466421
0.03999466421
0.03999466422
0.03999466424
0.03999466434
0.03999466471
0.03999466611
0.03999467127
0.03999468982
0.03999475414
0.03999496707
0.03999562813
0.03999750162
0.04000213974
0.03999466421
0.03999466421
0.03999466422
0.03999466424
0.03999466433
0.03999466467
0.03999466592
0.0399946705
0.03999468666
0.03999474159
0.03999491911
0.03999545468
0.03999692412
0.04000045033
0.03999466421
0.03999466421
0.03999466422
0.03999466423
0.0399946643
0.03999466457
0.03999466551
0.03999466885
0.03999468025
0.03999471755
0.03999483315
0.03999516692
0.03999604415
0.03999807875
0.03999466421
0.03999466421
0.03999466421
0.03999466423
0.03999466428
0.03999466447
0.03999466512
0.03999466733
0.03999467455
0.03999469713
0.03999476388
0.03999494785
0.03999541165
0.03999645673
0.03999466421
0.03999466421
0.03999466421
0.03999466422
0.03999466427
0.03999466441
0.03999466489
0.03999466648
0.03999467147
0.03999468645
0.03999472897
0.03999484159
0.03999511604
0.03999572121
)
;

boundaryField
{
    top
    {
        type            calculated;
        value           nonuniform List<scalar> 
134
(
0.03999466421
0.03999466421
0.03999466421
0.03999466421
0.03999466421
0.03999466421
0.03999466421
0.03999466421
0.03999466421
0.03999466421
0.03999466421
0.03999466421
0.03999466421
0.03999466421
0.03999466421
0.03999466421
0.03999466421
0.03999466421
0.03999466421
0.03999466421
0.03999466422
0.03999466422
0.03999466422
0.03999466422
0.03999466422
0.03999466421
0.03999466421
0.03999466422
0.03999466423
0.03999466423
0.03999466424
0.03999466424
0.03999466424
0.03999466423
0.03999466423
0.03999466422
0.03999466427
0.03999466428
0.0399946643
0.03999466433
0.03999466434
0.03999466433
0.0399946643
0.03999466428
0.03999466427
0.03999466441
0.03999466447
0.03999466457
0.03999466467
0.03999466471
0.03999466467
0.03999466457
0.03999466447
0.03999466441
0.03999466489
0.03999466512
0.03999466551
0.03999466592
0.03999466611
0.03999466592
0.03999466551
0.03999466512
0.03999466489
0.03999466648
0.03999466733
0.03999466885
0.0399946705
0.03999467127
0.0399946705
0.03999466885
0.03999466733
0.03999466648
0.03999467147
0.03999467455
0.03999468025
0.03999468666
0.03999468982
0.03999468666
0.03999468025
0.03999467455
0.03999467147
0.03999468645
0.03999469713
0.03999471755
0.03999474159
0.03999475414
0.03999474159
0.03999471755
0.03999469713
0.03999468645
0.03999472896
0.03999476388
0.03999483315
0.03999491911
0.03999496706
0.03999491911
0.03999483315
0.03999476388
0.03999472897
0.03999484158
0.03999494784
0.0399951669
0.03999545465
0.0399956281
0.03999545465
0.03999516691
0.03999494785
0.03999484159
0.03999511602
0.03999541162
0.03999604409
0.03999692403
0.03999750152
0.03999692405
0.03999604413
0.03999541165
0.03999511604
0.03999572115
0.03999645665
0.0399980786
0.0400004501
0.04000213947
0.04000045017
0.03999807869
0.03999645672
0.03999572121
0.0399969101
0.03999851003
0.04000208617
0.04000744626
0.04001145958
0.04000744638
0.04000208635
0.0399985102
)
;
    }
    bottom
    {
        type            calculated;
        value           nonuniform List<scalar> 
127
(
0.03999466421
0.03999466421
0.03999466421
0.03999466421
0.03999466421
0.03999466421
0.03999466421
0.03999466421
0.03999466421
0.03999466421
0.03999466421
0.03999466421
0.03999466421
0.03999466421
0.03999466421
0.03999466421
0.03999466421
0.03999466421
0.03999466421
0.03999466421
0.03999466422
0.03999466422
0.03999466422
0.03999466422
0.03999466422
0.03999466421
0.03999466421
0.03999466422
0.03999466423
0.03999466423
0.03999466424
0.03999466424
0.03999466424
0.03999466423
0.03999466423
0.03999466422
0.03999466427
0.03999466428
0.0399946643
0.03999466433
0.03999466434
0.03999466433
0.0399946643
0.03999466428
0.03999466427
0.03999466441
0.03999466447
0.03999466457
0.03999466467
0.03999466471
0.03999466467
0.03999466457
0.03999466447
0.03999466441
0.03999466489
0.03999466512
0.03999466551
0.03999466592
0.03999466611
0.03999466592
0.03999466551
0.03999466512
0.03999466489
0.03999466648
0.03999466733
0.03999466885
0.0399946705
0.03999467127
0.0399946705
0.03999466885
0.03999466733
0.03999466648
0.03999467147
0.03999467455
0.03999468025
0.03999468666
0.03999468982
0.03999468666
0.03999468025
0.03999467455
0.03999467147
0.03999468645
0.03999469713
0.03999471755
0.03999474159
0.03999475414
0.03999474159
0.03999471755
0.03999469713
0.03999468645
0.03999472896
0.03999476388
0.03999483315
0.03999491911
0.03999496707
0.03999491911
0.03999483315
0.03999476388
0.03999472897
0.03999484159
0.03999494785
0.03999516691
0.03999545467
0.03999562813
0.03999545467
0.03999516692
0.03999494785
0.03999484159
0.03999511603
0.03999541165
0.03999604415
0.03999692411
0.03999750161
0.03999692411
0.03999604416
0.03999541166
0.03999511604
0.03999572119
0.03999645675
0.03999807878
0.04000045035
0.04000213975
0.04000045032
0.03999807876
0.03999645673
0.0399957212
0.03999691021
)
;
    }
    side-walls
    {
        type            calculated;
        value           nonuniform List<scalar> 
261
(
0.03999466421
0.03999466421
0.03999466421
0.03999466421
0.03999466421
0.03999466421
0.03999466421
0.03999466421
0.03999466421
0.03999466421
0.03999466421
0.03999466421
0.03999466421
0.03999466421
0.03999466421
0.03999466421
0.03999466421
0.03999466421
0.03999466421
0.03999466421
0.03999466422
0.03999466422
0.03999466422
0.03999466422
0.03999466422
0.03999466421
0.03999466421
0.03999466422
0.03999466423
0.03999466423
0.03999466424
0.03999466424
0.03999466424
0.03999466423
0.03999466423
0.03999466422
0.03999466427
0.03999466428
0.0399946643
0.03999466433
0.03999466434
0.03999466433
0.0399946643
0.03999466428
0.03999466427
0.03999466441
0.03999466447
0.03999466457
0.03999466467
0.03999466471
0.03999466467
0.03999466457
0.03999466447
0.03999466441
0.03999466489
0.03999466512
0.03999466551
0.03999466592
0.03999466611
0.03999466592
0.03999466551
0.03999466512
0.03999466489
0.03999466648
0.03999466733
0.03999466885
0.0399946705
0.03999467127
0.0399946705
0.03999466885
0.03999466733
0.03999466648
0.03999467147
0.03999467455
0.03999468025
0.03999468666
0.03999468982
0.03999468666
0.03999468025
0.03999467455
0.03999467147
0.03999468645
0.03999469713
0.03999471755
0.03999474159
0.03999475414
0.03999474159
0.03999471755
0.03999469713
0.03999468645
0.03999472896
0.03999476388
0.03999483315
0.03999491911
0.03999496706
0.0399949191
0.03999483315
0.03999476388
0.03999472896
0.03999484159
0.03999494784
0.0399951669
0.03999545465
0.03999562809
0.03999545464
0.03999516689
0.03999494784
0.03999484158
0.03999511603
0.03999541164
0.03999604411
0.03999692403
0.0399975015
0.03999692401
0.03999604409
0.03999541162
0.03999511602
0.03999572119
0.03999645669
0.03999807864
0.04000045011
0.04000213942
0.04000045006
0.03999807859
0.03999645664
0.03999572115
0.03999691021
0.03999851013
0.04000208627
0.0400074463
0.04001145953
0.0400074462
0.04000208616
0.03999851002
0.0399969101
0.03999466421
0.03999466421
0.03999466421
0.03999466421
0.03999466421
0.03999466421
0.03999466421
0.03999466421
0.03999466421
0.03999466421
0.03999466421
0.03999466421
0.03999466421
0.03999466421
0.03999466421
0.03999466421
0.03999466421
0.03999466421
0.03999466421
0.03999466421
0.03999466422
0.03999466422
0.03999466422
0.03999466422
0.03999466422
0.03999466421
0.03999466421
0.03999466422
0.03999466423
0.03999466423
0.03999466424
0.03999466424
0.03999466424
0.03999466423
0.03999466423
0.03999466422
0.03999466427
0.03999466428
0.0399946643
0.03999466433
0.03999466434
0.03999466433
0.0399946643
0.03999466428
0.03999466427
0.03999466441
0.03999466447
0.03999466457
0.03999466467
0.03999466471
0.03999466467
0.03999466457
0.03999466447
0.03999466441
0.03999466489
0.03999466512
0.03999466551
0.03999466592
0.03999466611
0.03999466592
0.03999466551
0.03999466512
0.03999466489
0.03999466648
0.03999466733
0.03999466885
0.0399946705
0.03999467127
0.0399946705
0.03999466885
0.03999466733
0.03999466648
0.03999467147
0.03999467455
0.03999468025
0.03999468666
0.03999468982
0.03999468666
0.03999468025
0.03999467455
0.03999467147
0.03999468645
0.03999469713
0.03999471755
0.03999474159
0.03999475414
0.03999474159
0.03999471755
0.03999469713
0.03999468645
0.03999472897
0.03999476388
0.03999483315
0.03999491911
0.03999496707
0.03999491911
0.03999483315
0.03999476388
0.03999472897
0.03999484159
0.03999494785
0.03999516692
0.03999545468
0.03999562813
0.03999545468
0.03999516692
0.03999494785
0.03999484159
0.03999511604
0.03999541166
0.03999604416
0.03999692412
0.03999750162
0.03999692412
0.03999604415
0.03999541165
0.03999511604
0.0399957212
0.03999645673
0.03999807875
0.04000045033
0.04000213974
0.04000045033
0.03999807875
0.03999645673
0.03999572121
)
;
    }
    inlet
    {
        type            calculated;
        value           nonuniform List<scalar> 
81
(
0.03999466421
0.03999466421
0.03999466421
0.03999466421
0.03999466421
0.03999466421
0.03999466421
0.03999466421
0.03999466421
0.03999466421
0.03999466421
0.03999466421
0.03999466421
0.03999466421
0.03999466421
0.03999466421
0.03999466421
0.03999466421
0.03999466421
0.03999466421
0.03999466421
0.03999466421
0.03999466421
0.03999466421
0.03999466421
0.03999466421
0.03999466421
0.03999466421
0.03999466421
0.03999466421
0.03999466421
0.03999466421
0.03999466421
0.03999466421
0.03999466421
0.03999466421
0.03999466421
0.03999466421
0.03999466421
0.03999466421
0.03999466421
0.03999466421
0.03999466421
0.03999466421
0.03999466421
0.03999466421
0.03999466421
0.03999466421
0.03999466421
0.03999466421
0.03999466421
0.03999466421
0.03999466421
0.03999466421
0.03999466421
0.03999466421
0.03999466421
0.03999466421
0.03999466421
0.03999466421
0.03999466421
0.03999466421
0.03999466421
0.03999466421
0.03999466421
0.03999466421
0.03999466421
0.03999466421
0.03999466421
0.03999466421
0.03999466421
0.03999466421
0.03999466421
0.03999466421
0.03999466421
0.03999466421
0.03999466421
0.03999466421
0.03999466421
0.03999466421
0.03999466421
)
;
    }
    outlet
    {
        type            calculated;
        value           nonuniform 0();
    }
    procBoundary0to1
    {
        type            processor;
        value           nonuniform List<scalar> 
97
(
0.03999897707
0.03999851024
0.04000197863
0.04000859813
0.04001827746
0.04002517388
0.0400182773
0.04000859795
0.04000197846
0.03999897692
0.03999851024
0.03999851024
0.04000872895
0.04001161324
0.04002568084
0.04005574012
0.04008403588
0.0400557396
0.04002568027
0.04000872852
0.04000197846
0.04000208644
0.04001161324
0.04001161324
0.04007563786
0.04011118852
0.04018648959
0.040331351
0.0401864874
0.04007563582
0.04002568026
0.04000859795
0.04000744655
0.0400291576
0.04011118852
0.04011118852
0.04056578318
0.04117727516
0.04130878155
0.04056577474
0.0401864874
0.04005573965
0.04001827733
0.04001145984
0.04004743268
0.04022262625
0.04117727516
0.04117727516
0.04451587925
0.0411772755
0.04130878262
0.04039191918
0.04033135145
0.04008403586
0.04002517383
0.04000744643
0.04002915713
0.04011118542
0.04039191744
0.0411772755
0.04039191918
0.04039191918
0.04018648986
0.04004070811
0.04005574015
0.04001827744
0.04000208631
0.0400116127
0.04004070721
0.04011118518
0.04022262568
0.04011118491
0.04004070811
0.04004070811
0.0400256808
0.04000217694
0.04000859814
0.03999851009
0.04000217675
0.04001161264
0.04002915701
0.04004743241
0.04002915695
0.04001161274
0.04000217694
0.04000217694
0.04000197862
0.0399969102
0.03999691014
0.03999851009
0.04000208628
0.0400074464
0.04001145973
0.04000744639
0.0400020863
0.03999851012
0.0399969102
)
;
    }
}


// ************************************************************************* //
