/*--------------------------------*- C++ -*----------------------------------*\
| =========                 |                                                 |
| \\      /  F ield         | OpenFOAM: The Open Source CFD Toolbox           |
|  \\    /   O peration     | Version:  4.x                                   |
|   \\  /    A nd           | Web:      www.OpenFOAM.org                      |
|    \\/     M anipulation  |                                                 |
\*---------------------------------------------------------------------------*/
FoamFile
{
    version     2.0;
    format      ascii;
    class       volScalarField;
    location    "2000";
    object      X_H2O;
}
// * * * * * * * * * * * * * * * * * * * * * * * * * * * * * * * * * * * * * //

dimensions      [0 0 0 0 0 0 0];

internalField   nonuniform List<scalar> 
1175
(
1.546934871e-06
1.546935027e-06
1.546936012e-06
1.546940088e-06
1.546954847e-06
1.547005915e-06
1.547179232e-06
1.547746098e-06
1.54952945e-06
1.554885658e-06
1.570088188e-06
1.610369814e-06
1.708551761e-06
1.925082474e-06
2.350587798e-06
1.546934883e-06
1.546935223e-06
1.546936541e-06
1.546941602e-06
1.546960213e-06
1.547026892e-06
1.547259878e-06
1.548049947e-06
1.550632073e-06
1.558705733e-06
1.582583029e-06
1.648404342e-06
1.814379134e-06
2.188434462e-06
2.923523369e-06
1.546935171e-06
1.546935566e-06
1.546937228e-06
1.546943952e-06
1.546969025e-06
1.547062576e-06
1.547401087e-06
1.548595426e-06
1.552671756e-06
1.566013948e-06
1.607376992e-06
1.726827514e-06
2.040847626e-06
2.769300274e-06
4.204425854e-06
1.546935232e-06
1.546935669e-06
1.546937728e-06
1.546946018e-06
1.546977745e-06
1.547098498e-06
1.547547849e-06
1.549183828e-06
1.554963688e-06
1.574619102e-06
1.63815016e-06
1.829863945e-06
2.355996058e-06
3.618805205e-06
6.124783277e-06
1.546935453e-06
1.5469359e-06
1.546938143e-06
1.546946922e-06
1.546981486e-06
1.547114284e-06
1.547614763e-06
1.549461437e-06
1.556095372e-06
1.579111055e-06
1.655320591e-06
1.891986815e-06
2.562872674e-06
4.224117411e-06
7.563038952e-06
1.546935421e-06
1.546935846e-06
1.546937855e-06
1.546946032e-06
1.546977613e-06
1.547098233e-06
1.547547813e-06
1.549183554e-06
1.554963588e-06
1.574618937e-06
1.638149659e-06
1.829861914e-06
2.355987152e-06
3.618773818e-06
6.124702169e-06
1.546935268e-06
1.546935438e-06
1.546937145e-06
1.546943831e-06
1.546968993e-06
1.547062499e-06
1.547401102e-06
1.548595594e-06
1.552672016e-06
1.566013788e-06
1.607376266e-06
1.726824131e-06
2.040833852e-06
2.769254706e-06
4.20431349e-06
1.546935111e-06
1.546935315e-06
1.546936514e-06
1.546941536e-06
1.54696024e-06
1.54702689e-06
1.547260056e-06
1.548049919e-06
1.550631807e-06
1.558705417e-06
1.582581953e-06
1.648400286e-06
1.81436353e-06
2.188385832e-06
2.923409897e-06
1.54693472e-06
1.546935152e-06
1.546936192e-06
1.546940152e-06
1.546954845e-06
1.547006006e-06
1.547179371e-06
1.547746101e-06
1.549529511e-06
1.554885515e-06
1.570087244e-06
1.610365678e-06
1.708536929e-06
1.925035666e-06
2.350471999e-06
1.546934916e-06
1.546935135e-06
1.546936506e-06
1.546941519e-06
1.546960188e-06
1.547026993e-06
1.547259993e-06
1.5480499e-06
1.55063213e-06
1.558706117e-06
1.582584617e-06
1.648410496e-06
1.814401703e-06
2.188520041e-06
1.546935162e-06
1.54693535e-06
1.54693696e-06
1.546943291e-06
1.546967597e-06
1.54705753e-06
1.547384443e-06
1.548542808e-06
1.552518986e-06
1.565624869e-06
1.606589312e-06
1.725935013e-06
2.042338674e-06
2.780925012e-06
4.237296103e-06
1.546935256e-06
1.54693584e-06
1.546937685e-06
1.546946272e-06
1.546980349e-06
1.547111515e-06
1.547609795e-06
1.549465144e-06
1.556192212e-06
1.579718556e-06
1.65803406e-06
1.901441833e-06
2.587813263e-06
4.268819751e-06
7.618259818e-06
1.546935545e-06
1.546936161e-06
1.546938531e-06
1.546949511e-06
1.546993259e-06
1.54716783e-06
1.547854661e-06
1.55051705e-06
1.560620302e-06
1.597840685e-06
1.72923521e-06
2.165007173e-06
3.480529508e-06
6.907453824e-06
1.390627345e-05
1.546935653e-06
1.546936161e-06
1.54693899e-06
1.546950799e-06
1.546999075e-06
1.547193572e-06
1.547971265e-06
1.551044981e-06
1.562993949e-06
1.60837348e-06
1.774887639e-06
2.354789069e-06
4.213683923e-06
9.391116602e-06
2.045811938e-05
1.546935919e-06
1.546936154e-06
1.546938612e-06
1.546949419e-06
1.546993249e-06
1.547167724e-06
1.547854465e-06
1.550516748e-06
1.560620302e-06
1.597840535e-06
1.729234044e-06
2.165000173e-06
3.480494895e-06
6.907318473e-06
1.390589865e-05
1.546935457e-06
1.546935933e-06
1.546937869e-06
1.546946643e-06
1.546980284e-06
1.547111332e-06
1.547609622e-06
1.549465102e-06
1.556192182e-06
1.579718347e-06
1.658032335e-06
1.901431526e-06
2.587766085e-06
4.268647055e-06
7.617804061e-06
1.546935079e-06
1.546935295e-06
1.546937066e-06
1.546943415e-06
1.546967563e-06
1.54705775e-06
1.547384688e-06
1.548542869e-06
1.552518942e-06
1.56562439e-06
1.606587328e-06
1.725924413e-06
2.04229506e-06
2.780772587e-06
4.236872536e-06
1.546934761e-06
1.546935116e-06
1.546936278e-06
1.54694151e-06
1.546960103e-06
1.547026959e-06
1.547259997e-06
1.548049988e-06
1.550632109e-06
1.558705718e-06
1.582582754e-06
1.648401665e-06
1.814366755e-06
2.188390734e-06
2.923415186e-06
1.54693517e-06
1.54693552e-06
1.546937238e-06
1.546943913e-06
1.546969108e-06
1.547062493e-06
1.547401261e-06
1.548595608e-06
1.552672447e-06
1.566015422e-06
1.607382496e-06
1.726847463e-06
2.04091632e-06
2.769524338e-06
1.546935482e-06
1.546935849e-06
1.546937872e-06
1.546946363e-06
1.546980283e-06
1.547111657e-06
1.547609651e-06
1.549465277e-06
1.556192618e-06
1.579719833e-06
1.658039659e-06
1.901464019e-06
2.587900957e-06
4.26918291e-06
1.54693564e-06
1.546936051e-06
1.546938899e-06
1.546950905e-06
1.547000244e-06
1.547199958e-06
1.548000912e-06
1.55116763e-06
1.563441497e-06
1.609643983e-06
1.776283994e-06
2.340374898e-06
4.074555581e-06
8.654625963e-06
1.804814945e-05
1.546935944e-06
1.546936735e-06
1.546940123e-06
1.54695555e-06
1.547020941e-06
1.547296188e-06
1.548448069e-06
1.553234635e-06
1.572890568e-06
1.652045696e-06
1.960832665e-06
3.104817166e-06
6.995102063e-06
1.838505818e-05
4.331599814e-05
1.546936044e-06
1.546936734e-06
1.546940614e-06
1.546957614e-06
1.547030388e-06
1.547341927e-06
1.548673157e-06
1.55435023e-06
1.578461945e-06
1.679938735e-06
2.099557295e-06
3.778773247e-06
1.009624481e-05
3.109522372e-05
8.327945527e-05
1.54693606e-06
1.546936734e-06
1.54694024e-06
1.546955748e-06
1.547020949e-06
1.54729631e-06
1.548447925e-06
1.553234516e-06
1.572890598e-06
1.652045393e-06
1.960828456e-06
3.104789153e-06
6.994945721e-06
1.838434848e-05
4.331370051e-05
1.54693583e-06
1.546936284e-06
1.546939203e-06
1.546951188e-06
1.547000383e-06
1.547200039e-06
1.548000932e-06
1.55116778e-06
1.563441446e-06
1.609643016e-06
1.77627773e-06
2.340339448e-06
4.074376793e-06
8.65386833e-06
1.80457094e-05
1.546935313e-06
1.546935696e-06
1.546937861e-06
1.546946557e-06
1.546980348e-06
1.547111506e-06
1.547609901e-06
1.549465241e-06
1.556192352e-06
1.579718966e-06
1.658034452e-06
1.901437228e-06
2.587778773e-06
4.268668395e-06
7.617818361e-06
1.546934993e-06
1.546935424e-06
1.546937166e-06
1.546943757e-06
1.546969063e-06
1.547062493e-06
1.547401087e-06
1.548595462e-06
1.55267221e-06
1.566014628e-06
1.607378586e-06
1.726829662e-06
2.040845228e-06
2.76927311e-06
4.204331444e-06
1.546935384e-06
1.546935892e-06
1.546937923e-06
1.546946046e-06
1.546977632e-06
1.547098272e-06
1.54754792e-06
1.549183894e-06
1.554964487e-06
1.57462229e-06
1.63816162e-06
1.829905164e-06
2.356136495e-06
3.619240571e-06
1.546935707e-06
1.546936232e-06
1.546938819e-06
1.546949462e-06
1.546993245e-06
1.547167856e-06
1.547854792e-06
1.550517213e-06
1.56062138e-06
1.597844824e-06
1.729252427e-06
2.165077391e-06
3.480807054e-06
6.908475475e-06
1.546936026e-06
1.546936594e-06
1.546940023e-06
1.546955657e-06
1.547020944e-06
1.547296323e-06
1.548448053e-06
1.553234706e-06
1.572891624e-06
1.652050671e-06
1.960854697e-06
3.10492238e-06
6.995605148e-06
1.83874952e-05
1.546936117e-06
1.546937208e-06
1.546941688e-06
1.546961929e-06
1.547050731e-06
1.547440891e-06
1.549157418e-06
1.55673015e-06
1.59013034e-06
1.736657625e-06
2.370174125e-06
5.025172677e-06
1.547786431e-05
5.166658188e-05
0.0001440065112
1.546936318e-06
1.546937504e-06
1.546942319e-06
1.546964781e-06
1.547064823e-06
1.54751241e-06
1.549533902e-06
1.558760678e-06
1.601361915e-06
1.80027377e-06
2.737211342e-06
7.157094016e-06
2.765722639e-05
0.0001167585766
0.0004257047675
1.54693644e-06
1.546937194e-06
1.546941771e-06
1.546962085e-06
1.547050941e-06
1.547440938e-06
1.54915737e-06
1.55673006e-06
1.590130303e-06
1.736656455e-06
2.370162298e-06
5.02508006e-06
1.547723908e-05
5.166292587e-05
0.0001439900305
1.546936028e-06
1.546936591e-06
1.546940191e-06
1.546955598e-06
1.547021055e-06
1.547296286e-06
1.548448305e-06
1.553234882e-06
1.57289154e-06
1.652048329e-06
1.960839227e-06
3.104826571e-06
6.995056057e-06
1.838458278e-05
4.331387061e-05
1.546935483e-06
1.546936035e-06
1.546938507e-06
1.546949488e-06
1.546993226e-06
1.547167804e-06
1.547854848e-06
1.55051728e-06
1.560621304e-06
1.597843222e-06
1.729242488e-06
2.165025135e-06
3.480558631e-06
6.907438129e-06
1.390599821e-05
1.546935228e-06
1.546935684e-06
1.546937808e-06
1.546945918e-06
1.546977627e-06
1.547098369e-06
1.547547923e-06
1.549183966e-06
1.554964273e-06
1.574620811e-06
1.638155165e-06
1.829876538e-06
2.35602011e-06
3.618831509e-06
6.124756253e-06
1.546935744e-06
1.546936164e-06
1.546938453e-06
1.546947048e-06
1.546981532e-06
1.547114424e-06
1.547614869e-06
1.549461776e-06
1.556096587e-06
1.579115478e-06
1.655336951e-06
1.892046408e-06
2.563075514e-06
4.224735541e-06
1.546935816e-06
1.54693641e-06
1.54693924e-06
1.546950976e-06
1.546999108e-06
1.547193599e-06
1.547971587e-06
1.551045719e-06
1.562995537e-06
1.60838064e-06
1.774917669e-06
2.354913816e-06
4.21417805e-06
9.392892112e-06
1.546936211e-06
1.54693685e-06
1.54694063e-06
1.546957519e-06
1.547030494e-06
1.547342243e-06
1.548673384e-06
1.554350916e-06
1.578464465e-06
1.67995063e-06
2.099614427e-06
3.779055236e-06
1.009761745e-05
3.110153757e-05
1.546936494e-06
1.546937319e-06
1.546942338e-06
1.546964659e-06
1.547064906e-06
1.547512317e-06
1.549534073e-06
1.558761045e-06
1.601363987e-06
1.800286102e-06
2.73728397e-06
7.157539981e-06
2.766010555e-05
0.0001167782163
1.546936552e-06
1.546937571e-06
1.546942995e-06
1.546968047e-06
1.547081096e-06
1.547598446e-06
1.550007307e-06
1.561465538e-06
1.617536994e-06
1.902122602e-06
3.415014651e-06
1.193077458e-05
6.319374529e-05
0.0003955947929
0.00274216979
1.546936503e-06
1.546937385e-06
1.546942349e-06
1.546964751e-06
1.547064671e-06
1.547512414e-06
1.549533867e-06
1.558761268e-06
1.601364003e-06
1.800284391e-06
2.737262737e-06
7.157334682e-06
2.765828643e-05
0.0001167624437
0.0004257090797
1.546936047e-06
1.546936695e-06
1.546940564e-06
1.546957624e-06
1.54703068e-06
1.547342365e-06
1.548673395e-06
1.554350833e-06
1.578464217e-06
1.679947564e-06
2.099591982e-06
3.77890668e-06
1.009670153e-05
3.109641953e-05
8.328054663e-05
1.546935714e-06
1.546936262e-06
1.546939023e-06
1.546950715e-06
1.546999084e-06
1.547193619e-06
1.547971626e-06
1.551045425e-06
1.562995408e-06
1.608378141e-06
1.774903849e-06
2.354841976e-06
4.21383257e-06
9.391426811e-06
2.045837809e-05
1.546935574e-06
1.546935968e-06
1.546938026e-06
1.546946825e-06
1.546981482e-06
1.547114224e-06
1.547614778e-06
1.549461519e-06
1.556096075e-06
1.579113663e-06
1.655328711e-06
1.892010315e-06
2.562929679e-06
4.224220246e-06
7.563127631e-06
1.546935641e-06
1.546935935e-06
1.546938031e-06
1.546946102e-06
1.546977783e-06
1.54709855e-06
1.547548067e-06
1.549184146e-06
1.554965029e-06
1.574623609e-06
1.638165033e-06
1.82991526e-06
2.356157236e-06
3.619259486e-06
1.546935855e-06
1.546936322e-06
1.546938738e-06
1.546949579e-06
1.546993499e-06
1.547168019e-06
1.547854962e-06
1.550517388e-06
1.560622266e-06
1.597847694e-06
1.729262443e-06
2.16510878e-06
3.480884443e-06
6.908559062e-06
1.546936176e-06
1.546936923e-06
1.546940335e-06
1.54695572e-06
1.547021166e-06
1.547296324e-06
1.548448417e-06
1.553235056e-06
1.572893451e-06
1.652057623e-06
1.960883481e-06
3.105031557e-06
6.995952098e-06
1.838809914e-05
1.546936438e-06
1.546937315e-06
1.54694182e-06
1.546961909e-06
1.54705074e-06
1.547440897e-06
1.549157673e-06
1.556730814e-06
1.590133465e-06
1.73667225e-06
2.370243909e-06
5.02550267e-06
1.547937484e-05
5.167297312e-05
1.546936411e-06
1.546937334e-06
1.54694239e-06
1.546964639e-06
1.547064644e-06
1.547512342e-06
1.549534148e-06
1.558761553e-06
1.601366159e-06
1.800295795e-06
2.737329881e-06
7.157750804e-06
2.766100485e-05
0.0001167811661
1.546936391e-06
1.546937291e-06
1.546941638e-06
1.546961872e-06
1.54705077e-06
1.54744088e-06
1.54915739e-06
1.556730761e-06
1.590133082e-06
1.736670308e-06
2.370231182e-06
5.025421273e-06
1.547892747e-05
5.167123706e-05
1.546935895e-06
1.546936493e-06
1.546940063e-06
1.546955583e-06
1.547021014e-06
1.547296329e-06
1.548448151e-06
1.553235099e-06
1.572892952e-06
1.652054797e-06
1.960868284e-06
3.104948348e-06
6.995546011e-06
1.838635612e-05
4.331955619e-05
1.546935589e-06
1.546936171e-06
1.546938613e-06
1.546949491e-06
1.546993228e-06
1.547167765e-06
1.547854705e-06
1.550517354e-06
1.56062173e-06
1.59784557e-06
1.729251878e-06
2.165059715e-06
3.480678288e-06
6.907800442e-06
1.390683238e-05
1.546935535e-06
1.546935955e-06
1.546937832e-06
1.546946066e-06
1.546977704e-06
1.547098433e-06
1.547547888e-06
1.549184072e-06
1.554964598e-06
1.574622083e-06
1.6381589e-06
1.829888407e-06
2.356055702e-06
3.618921584e-06
6.124926102e-06
1.5469355e-06
1.54693567e-06
1.546937359e-06
1.546944022e-06
1.546969096e-06
1.547062587e-06
1.547401348e-06
1.54859574e-06
1.552672889e-06
1.566017256e-06
1.607387307e-06
1.726860058e-06
2.040941521e-06
2.769544665e-06
1.546935594e-06
1.546935941e-06
1.546938049e-06
1.546946654e-06
1.546980442e-06
1.54711165e-06
1.547609794e-06
1.549465528e-06
1.556193755e-06
1.579723613e-06
1.65805142e-06
1.90149866e-06
2.58798439e-06
4.269279863e-06
1.546935949e-06
1.54693643e-06
1.546939302e-06
1.546951245e-06
1.547000484e-06
1.547200192e-06
1.548001092e-06
1.551168209e-06
1.563443527e-06
1.609651562e-06
1.776312871e-06
2.340476886e-06
4.074875196e-06
8.655473799e-06
1.546936074e-06
1.546936697e-06
1.546940151e-06
1.546955697e-06
1.547021127e-06
1.547296336e-06
1.548448331e-06
1.553235354e-06
1.572894102e-06
1.65205999e-06
1.960892146e-06
3.105057849e-06
6.996013259e-06
1.838813997e-05
1.546936185e-06
1.546936901e-06
1.546940749e-06
1.54695768e-06
1.547030601e-06
1.547342035e-06
1.548673255e-06
1.554351099e-06
1.578466156e-06
1.679957653e-06
2.099642538e-06
3.779156715e-06
1.009791248e-05
3.110191613e-05
1.546936094e-06
1.546936899e-06
1.546940325e-06
1.546955636e-06
1.547021173e-06
1.547296432e-06
1.548448306e-06
1.553235149e-06
1.572893686e-06
1.652058677e-06
1.960886249e-06
3.105029309e-06
6.995893595e-06
1.83877586e-05
1.546935508e-06
1.546936316e-06
1.546939136e-06
1.546950972e-06
1.547000226e-06
1.547200073e-06
1.548001025e-06
1.551168104e-06
1.563443122e-06
1.609650018e-06
1.776305555e-06
2.340446026e-06
4.074770504e-06
8.655275789e-06
1.546935421e-06
1.546935816e-06
1.54693792e-06
1.546946491e-06
1.546980301e-06
1.547111498e-06
1.547609817e-06
1.549465455e-06
1.556193205e-06
1.579722005e-06
1.658045433e-06
1.901475578e-06
2.587903161e-06
4.269033065e-06
7.618752257e-06
1.546935173e-06
1.54693557e-06
1.546937397e-06
1.546943671e-06
1.546968927e-06
1.54706232e-06
1.547401058e-06
1.548595547e-06
1.552672643e-06
1.566016153e-06
1.607383598e-06
1.726845176e-06
2.040890291e-06
2.769386193e-06
4.204550843e-06
1.546935299e-06
1.546935417e-06
1.546936919e-06
1.546941777e-06
1.546960295e-06
1.547027171e-06
1.547260198e-06
1.548050292e-06
1.550632721e-06
1.558707869e-06
1.582589009e-06
1.648421077e-06
1.814422829e-06
2.18853771e-06
1.546935497e-06
1.546935834e-06
1.546937411e-06
1.546943616e-06
1.546967676e-06
1.547057688e-06
1.547384792e-06
1.548543267e-06
1.552519953e-06
1.565627605e-06
1.606598063e-06
1.725959456e-06
2.042400735e-06
2.781058795e-06
1.546935805e-06
1.546936153e-06
1.546938247e-06
1.546946629e-06
1.546980585e-06
1.547111542e-06
1.547609898e-06
1.549465689e-06
1.556193638e-06
1.579723973e-06
1.658052548e-06
1.901501389e-06
2.587988825e-06
4.269277739e-06
1.546935839e-06
1.546936409e-06
1.546938875e-06
1.546949695e-06
1.546993419e-06
1.547167835e-06
1.547854942e-06
1.550517552e-06
1.560622596e-06
1.597849623e-06
1.729268186e-06
2.165124683e-06
3.480915021e-06
6.908573592e-06
1.546935541e-06
1.546936263e-06
1.546939246e-06
1.546951003e-06
1.546999105e-06
1.547193645e-06
1.547971711e-06
1.551045887e-06
1.562996872e-06
1.60838453e-06
1.774930622e-06
2.354952321e-06
4.214262853e-06
9.392947993e-06
1.546935797e-06
1.546936215e-06
1.546938935e-06
1.546949587e-06
1.5469933e-06
1.54716776e-06
1.547854878e-06
1.550517494e-06
1.560622587e-06
1.597849115e-06
1.72926649e-06
2.165116314e-06
3.480884105e-06
6.90848098e-06
1.546935349e-06
1.546935714e-06
1.546937902e-06
1.546946457e-06
1.546980378e-06
1.547111656e-06
1.547609716e-06
1.54946556e-06
1.556193609e-06
1.579723249e-06
1.658049981e-06
1.901491493e-06
2.587959427e-06
4.269223136e-06
1.546935103e-06
1.546935391e-06
1.546936924e-06
1.54694344e-06
1.546967717e-06
1.547057537e-06
1.5473846e-06
1.548543141e-06
1.552519761e-06
1.565626895e-06
1.606595694e-06
1.725951561e-06
2.042380049e-06
2.781034662e-06
1.546935031e-06
1.546935175e-06
1.546936617e-06
1.546941662e-06
1.546960224e-06
1.547026966e-06
1.547260057e-06
1.548050107e-06
1.550632519e-06
1.558707065e-06
1.582586976e-06
1.64841482e-06
1.814404017e-06
2.188487315e-06
2.923633078e-06
1.546935252e-06
1.546935381e-06
1.546936371e-06
1.546940527e-06
1.546955188e-06
1.547006404e-06
1.547179697e-06
1.547746481e-06
1.549530115e-06
1.554887107e-06
1.570091863e-06
1.610378983e-06
1.708572919e-06
1.925124794e-06
1.546935448e-06
1.546935602e-06
1.546936773e-06
1.546941752e-06
1.54696046e-06
1.547027109e-06
1.547260315e-06
1.548050286e-06
1.550632726e-06
1.558707773e-06
1.582589175e-06
1.648422051e-06
1.81442431e-06
2.188538748e-06
1.546935448e-06
1.546935957e-06
1.546937335e-06
1.546944089e-06
1.546969259e-06
1.547062678e-06
1.547401328e-06
1.5485958e-06
1.552673062e-06
1.566017676e-06
1.607388972e-06
1.7268634e-06
2.040947109e-06
2.769547602e-06
1.546935679e-06
1.546936085e-06
1.546937886e-06
1.546945997e-06
1.546977829e-06
1.547098525e-06
1.547548209e-06
1.549184173e-06
1.554965198e-06
1.574624833e-06
1.63816923e-06
1.829925063e-06
2.356175159e-06
3.619272848e-06
1.546935546e-06
1.54693605e-06
1.546938133e-06
1.546946986e-06
1.546981573e-06
1.547114376e-06
1.547614939e-06
1.549461972e-06
1.556097192e-06
1.579117617e-06
1.655343563e-06
1.892062837e-06
2.563105432e-06
4.224750206e-06
1.546935586e-06
1.546935994e-06
1.546938075e-06
1.546946112e-06
1.546977799e-06
1.547098504e-06
1.547548041e-06
1.549184111e-06
1.55496518e-06
1.574624635e-06
1.638168686e-06
1.829922298e-06
2.356165267e-06
3.619244255e-06
1.546935206e-06
1.546935459e-06
1.546937189e-06
1.54694382e-06
1.546969066e-06
1.547062604e-06
1.547401081e-06
1.548595625e-06
1.552672914e-06
1.56601729e-06
1.607387611e-06
1.726859546e-06
2.040936262e-06
2.76952447e-06
1.546935007e-06
1.546935248e-06
1.546936452e-06
1.546941551e-06
1.546960225e-06
1.547026908e-06
1.547260014e-06
1.548049939e-06
1.550632467e-06
1.558707489e-06
1.582588037e-06
1.648418474e-06
1.814416213e-06
2.188528197e-06
1.546934711e-06
1.546934952e-06
1.546936011e-06
1.546940296e-06
1.546954962e-06
1.547006141e-06
1.547179485e-06
1.547746291e-06
1.54952991e-06
1.554886853e-06
1.570091018e-06
1.61037645e-06
1.70856742e-06
1.925121739e-06
)
;

boundaryField
{
    top
    {
        type            calculated;
        value           nonuniform List<scalar> 
134
(
1.54693472e-06
1.546934761e-06
1.546934993e-06
1.546935228e-06
1.546935574e-06
1.546935535e-06
1.546935173e-06
1.546935031e-06
1.546934711e-06
1.546935152e-06
1.546935116e-06
1.546935424e-06
1.546935684e-06
1.546935968e-06
1.546935955e-06
1.54693557e-06
1.546935175e-06
1.546934952e-06
1.546936192e-06
1.546936278e-06
1.546937166e-06
1.546937808e-06
1.546938026e-06
1.546937832e-06
1.546937397e-06
1.546936617e-06
1.546936011e-06
1.546940152e-06
1.54694151e-06
1.546943757e-06
1.546945918e-06
1.546946825e-06
1.546946066e-06
1.546943671e-06
1.546941662e-06
1.546940296e-06
1.546954845e-06
1.546960103e-06
1.546969063e-06
1.546977627e-06
1.546981482e-06
1.546977704e-06
1.546968927e-06
1.546960224e-06
1.546954962e-06
1.547006006e-06
1.547026959e-06
1.547062493e-06
1.547098369e-06
1.547114224e-06
1.547098433e-06
1.54706232e-06
1.547026966e-06
1.547006141e-06
1.547179371e-06
1.547259997e-06
1.547401087e-06
1.547547923e-06
1.547614778e-06
1.547547888e-06
1.547401058e-06
1.547260057e-06
1.547179485e-06
1.547746101e-06
1.548049988e-06
1.548595462e-06
1.549183966e-06
1.549461519e-06
1.549184072e-06
1.548595547e-06
1.548050107e-06
1.547746291e-06
1.549529511e-06
1.550632109e-06
1.55267221e-06
1.554964273e-06
1.556096075e-06
1.554964598e-06
1.552672643e-06
1.550632519e-06
1.54952991e-06
1.554885515e-06
1.558705718e-06
1.566014628e-06
1.574620811e-06
1.579113663e-06
1.574622083e-06
1.566016153e-06
1.558707065e-06
1.554886853e-06
1.570087244e-06
1.582582754e-06
1.607378586e-06
1.638155165e-06
1.655328711e-06
1.6381589e-06
1.607383598e-06
1.582586976e-06
1.570091018e-06
1.610365678e-06
1.648401665e-06
1.726829662e-06
1.829876538e-06
1.892010315e-06
1.829888407e-06
1.726845176e-06
1.64841482e-06
1.61037645e-06
1.708536929e-06
1.814366755e-06
2.040845228e-06
2.35602011e-06
2.562929679e-06
2.356055702e-06
2.040890291e-06
1.814404017e-06
1.70856742e-06
1.925035666e-06
2.188390734e-06
2.76927311e-06
3.618831509e-06
4.224220246e-06
3.618921584e-06
2.769386193e-06
2.188487315e-06
1.925121739e-06
2.350471999e-06
2.923415186e-06
4.204331444e-06
6.124756253e-06
7.563127631e-06
6.124926102e-06
4.204550843e-06
2.923633078e-06
)
;
    }
    bottom
    {
        type            calculated;
        value           nonuniform List<scalar> 
127
(
1.546934871e-06
1.546934916e-06
1.54693517e-06
1.546935384e-06
1.546935744e-06
1.546935641e-06
1.5469355e-06
1.546935299e-06
1.546935252e-06
1.546935027e-06
1.546935135e-06
1.54693552e-06
1.546935892e-06
1.546936164e-06
1.546935935e-06
1.54693567e-06
1.546935417e-06
1.546935381e-06
1.546936012e-06
1.546936506e-06
1.546937238e-06
1.546937923e-06
1.546938453e-06
1.546938031e-06
1.546937359e-06
1.546936919e-06
1.546936371e-06
1.546940088e-06
1.546941519e-06
1.546943913e-06
1.546946046e-06
1.546947048e-06
1.546946102e-06
1.546944022e-06
1.546941777e-06
1.546940527e-06
1.546954847e-06
1.546960188e-06
1.546969108e-06
1.546977632e-06
1.546981532e-06
1.546977783e-06
1.546969096e-06
1.546960295e-06
1.546955188e-06
1.547005915e-06
1.547026993e-06
1.547062493e-06
1.547098272e-06
1.547114424e-06
1.54709855e-06
1.547062587e-06
1.547027171e-06
1.547006404e-06
1.547179232e-06
1.547259993e-06
1.547401261e-06
1.54754792e-06
1.547614869e-06
1.547548067e-06
1.547401348e-06
1.547260198e-06
1.547179697e-06
1.547746098e-06
1.5480499e-06
1.548595608e-06
1.549183894e-06
1.549461776e-06
1.549184146e-06
1.54859574e-06
1.548050292e-06
1.547746481e-06
1.54952945e-06
1.55063213e-06
1.552672447e-06
1.554964487e-06
1.556096587e-06
1.554965029e-06
1.552672889e-06
1.550632721e-06
1.549530115e-06
1.554885658e-06
1.558706117e-06
1.566015422e-06
1.57462229e-06
1.579115478e-06
1.574623609e-06
1.566017256e-06
1.558707869e-06
1.554887107e-06
1.570088188e-06
1.582584617e-06
1.607382496e-06
1.63816162e-06
1.655336951e-06
1.638165033e-06
1.607387307e-06
1.582589009e-06
1.570091863e-06
1.610369814e-06
1.648410496e-06
1.726847463e-06
1.829905164e-06
1.892046408e-06
1.82991526e-06
1.726860058e-06
1.648421077e-06
1.610378983e-06
1.708551761e-06
1.814401703e-06
2.04091632e-06
2.356136495e-06
2.563075514e-06
2.356157236e-06
2.040941521e-06
1.814422829e-06
1.708572919e-06
1.925082474e-06
2.188520041e-06
2.769524338e-06
3.619240571e-06
4.224735541e-06
3.619259486e-06
2.769544665e-06
2.18853771e-06
1.925124794e-06
2.350587798e-06
)
;
    }
    side-walls
    {
        type            calculated;
        value           nonuniform List<scalar> 
261
(
1.546934871e-06
1.546934883e-06
1.546935171e-06
1.546935232e-06
1.546935453e-06
1.546935421e-06
1.546935268e-06
1.546935111e-06
1.54693472e-06
1.546935027e-06
1.546935223e-06
1.546935566e-06
1.546935669e-06
1.5469359e-06
1.546935846e-06
1.546935438e-06
1.546935315e-06
1.546935152e-06
1.546936012e-06
1.546936541e-06
1.546937228e-06
1.546937728e-06
1.546938143e-06
1.546937855e-06
1.546937145e-06
1.546936514e-06
1.546936192e-06
1.546940088e-06
1.546941602e-06
1.546943952e-06
1.546946018e-06
1.546946922e-06
1.546946032e-06
1.546943831e-06
1.546941536e-06
1.546940152e-06
1.546954847e-06
1.546960213e-06
1.546969025e-06
1.546977745e-06
1.546981486e-06
1.546977613e-06
1.546968993e-06
1.54696024e-06
1.546954845e-06
1.547005915e-06
1.547026892e-06
1.547062576e-06
1.547098498e-06
1.547114284e-06
1.547098233e-06
1.547062499e-06
1.54702689e-06
1.547006006e-06
1.547179232e-06
1.547259878e-06
1.547401087e-06
1.547547849e-06
1.547614763e-06
1.547547813e-06
1.547401102e-06
1.547260056e-06
1.547179371e-06
1.547746098e-06
1.548049947e-06
1.548595426e-06
1.549183828e-06
1.549461437e-06
1.549183554e-06
1.548595594e-06
1.548049919e-06
1.547746101e-06
1.54952945e-06
1.550632073e-06
1.552671756e-06
1.554963688e-06
1.556095372e-06
1.554963588e-06
1.552672016e-06
1.550631807e-06
1.549529511e-06
1.554885658e-06
1.558705733e-06
1.566013948e-06
1.574619102e-06
1.579111055e-06
1.574618937e-06
1.566013788e-06
1.558705417e-06
1.554885515e-06
1.570088188e-06
1.582583029e-06
1.607376992e-06
1.63815016e-06
1.655320591e-06
1.638149659e-06
1.607376266e-06
1.582581953e-06
1.570087244e-06
1.610369814e-06
1.648404342e-06
1.726827514e-06
1.829863945e-06
1.891986815e-06
1.829861914e-06
1.726824131e-06
1.648400286e-06
1.610365678e-06
1.708551761e-06
1.814379134e-06
2.040847626e-06
2.355996058e-06
2.562872674e-06
2.355987152e-06
2.040833852e-06
1.81436353e-06
1.708536929e-06
1.925082474e-06
2.188434462e-06
2.769300274e-06
3.618805205e-06
4.224117411e-06
3.618773818e-06
2.769254706e-06
2.188385832e-06
1.925035666e-06
2.350587798e-06
2.923523369e-06
4.204425854e-06
6.124783277e-06
7.563038952e-06
6.124702169e-06
4.20431349e-06
2.923409897e-06
2.350471999e-06
1.546935252e-06
1.546935448e-06
1.546935448e-06
1.546935679e-06
1.546935546e-06
1.546935586e-06
1.546935206e-06
1.546935007e-06
1.546934711e-06
1.546935381e-06
1.546935602e-06
1.546935957e-06
1.546936085e-06
1.54693605e-06
1.546935994e-06
1.546935459e-06
1.546935248e-06
1.546934952e-06
1.546936371e-06
1.546936773e-06
1.546937335e-06
1.546937886e-06
1.546938133e-06
1.546938075e-06
1.546937189e-06
1.546936452e-06
1.546936011e-06
1.546940527e-06
1.546941752e-06
1.546944089e-06
1.546945997e-06
1.546946986e-06
1.546946112e-06
1.54694382e-06
1.546941551e-06
1.546940296e-06
1.546955188e-06
1.54696046e-06
1.546969259e-06
1.546977829e-06
1.546981573e-06
1.546977799e-06
1.546969066e-06
1.546960225e-06
1.546954962e-06
1.547006404e-06
1.547027109e-06
1.547062678e-06
1.547098525e-06
1.547114376e-06
1.547098504e-06
1.547062604e-06
1.547026908e-06
1.547006141e-06
1.547179697e-06
1.547260315e-06
1.547401328e-06
1.547548209e-06
1.547614939e-06
1.547548041e-06
1.547401081e-06
1.547260014e-06
1.547179485e-06
1.547746481e-06
1.548050286e-06
1.5485958e-06
1.549184173e-06
1.549461972e-06
1.549184111e-06
1.548595625e-06
1.548049939e-06
1.547746291e-06
1.549530115e-06
1.550632726e-06
1.552673062e-06
1.554965198e-06
1.556097192e-06
1.55496518e-06
1.552672914e-06
1.550632467e-06
1.54952991e-06
1.554887107e-06
1.558707773e-06
1.566017676e-06
1.574624833e-06
1.579117617e-06
1.574624635e-06
1.56601729e-06
1.558707489e-06
1.554886853e-06
1.570091863e-06
1.582589175e-06
1.607388972e-06
1.63816923e-06
1.655343563e-06
1.638168686e-06
1.607387611e-06
1.582588037e-06
1.570091018e-06
1.610378983e-06
1.648422051e-06
1.7268634e-06
1.829925063e-06
1.892062837e-06
1.829922298e-06
1.726859546e-06
1.648418474e-06
1.61037645e-06
1.708572919e-06
1.81442431e-06
2.040947109e-06
2.356175159e-06
2.563105432e-06
2.356165267e-06
2.040936262e-06
1.814416213e-06
1.70856742e-06
1.925124794e-06
2.188538748e-06
2.769547602e-06
3.619272848e-06
4.224750206e-06
3.619244255e-06
2.76952447e-06
2.188528197e-06
1.925121739e-06
)
;
    }
    inlet
    {
        type            calculated;
        value           nonuniform List<scalar> 
81
(
1.546934871e-06
1.546934883e-06
1.546935171e-06
1.546935232e-06
1.546935453e-06
1.546935421e-06
1.546935268e-06
1.546935111e-06
1.54693472e-06
1.546934916e-06
1.546935162e-06
1.546935256e-06
1.546935545e-06
1.546935653e-06
1.546935919e-06
1.546935457e-06
1.546935079e-06
1.546934761e-06
1.54693517e-06
1.546935482e-06
1.54693564e-06
1.546935944e-06
1.546936044e-06
1.54693606e-06
1.54693583e-06
1.546935313e-06
1.546934993e-06
1.546935384e-06
1.546935707e-06
1.546936026e-06
1.546936117e-06
1.546936318e-06
1.54693644e-06
1.546936028e-06
1.546935483e-06
1.546935228e-06
1.546935744e-06
1.546935816e-06
1.546936211e-06
1.546936494e-06
1.546936552e-06
1.546936503e-06
1.546936047e-06
1.546935714e-06
1.546935574e-06
1.546935641e-06
1.546935855e-06
1.546936176e-06
1.546936438e-06
1.546936411e-06
1.546936391e-06
1.546935895e-06
1.546935589e-06
1.546935535e-06
1.5469355e-06
1.546935594e-06
1.546935949e-06
1.546936074e-06
1.546936185e-06
1.546936094e-06
1.546935508e-06
1.546935421e-06
1.546935173e-06
1.546935299e-06
1.546935497e-06
1.546935805e-06
1.546935839e-06
1.546935541e-06
1.546935797e-06
1.546935349e-06
1.546935103e-06
1.546935031e-06
1.546935252e-06
1.546935448e-06
1.546935448e-06
1.546935679e-06
1.546935546e-06
1.546935586e-06
1.546935206e-06
1.546935007e-06
1.546934711e-06
)
;
    }
    outlet
    {
        type            calculated;
        value           nonuniform 0();
    }
    procBoundary0to1
    {
        type            processor;
        value           nonuniform List<scalar> 
97
(
3.090017192e-06
2.923633659e-06
4.164906963e-06
6.535873471e-06
1.000369429e-05
1.247519214e-05
1.00035947e-05
6.535740822e-06
4.16478497e-06
3.089928064e-06
2.923633659e-06