/*--------------------------------*- C++ -*----------------------------------*\
| =========                 |                                                 |
| \\      /  F ield         | OpenFOAM: The Open Source CFD Toolbox           |
|  \\    /   O peration     | Version:  4.x                                   |
|   \\  /    A nd           | Web:      www.OpenFOAM.org                      |
|    \\/     M anipulation  |                                                 |
\*---------------------------------------------------------------------------*/
FoamFile
{
    version     2.0;
    format      ascii;
    class       volScalarField;
    location    "2000";
    object      X_H2;
}
// * * * * * * * * * * * * * * * * * * * * * * * * * * * * * * * * * * * * * //

dimensions      [0 0 0 0 0 0 0];

internalField   nonuniform List<scalar> 
1175
(
0.02997727494
0.02997727494
0.02997727494
0.02997727494
0.02997727492
0.02997727487
0.0299772747
0.02997727413
0.02997727235
0.02997726699
0.0299772518
0.02997721154
0.02997711341
0.02997689702
0.02997647186
0.02997727494
0.02997727494
0.02997727494
0.02997727494
0.02997727492
0.02997727485
0.02997727462
0.02997727383
0.02997727125
0.02997726318
0.02997723931
0.02997717351
0.02997700761
0.02997663375
0.02997589915
0.02997727494
0.02997727494
0.02997727494
0.02997727493
0.02997727491
0.02997727482
0.02997727448
0.02997727328
0.02997726921
0.02997725587
0.02997721452
0.0299770951
0.02997678118
0.02997605301
0.02997461867
0.02997727494
0.02997727494
0.02997727494
0.02997727493
0.0299772749
0.02997727478
0.02997727433
0.02997727269
0.02997726692
0.02997724726
0.02997718375
0.02997699207
0.02997646606
0.02997520363
0.02997269876
0.02997727494
0.02997727494
0.02997727494
0.02997727493
0.0299772749
0.02997727476
0.02997727426
0.02997727242
0.02997726578
0.02997724277
0.02997716658
0.02997692995
0.02997625919
0.02997459833
0.02997126064
0.02997727494
0.02997727494
0.02997727494
0.02997727493
0.0299772749
0.02997727478
0.02997727433
0.02997727269
0.02997726692
0.02997724726
0.02997718375
0.02997699207
0.02997646607
0.02997520364
0.02997269878
0.02997727494
0.02997727494
0.02997727494
0.02997727493
0.02997727491
0.02997727482
0.02997727448
0.02997727328
0.02997726921
0.02997725587
0.02997721452
0.0299770951
0.02997678118
0.02997605303
0.0299746187
0.02997727494
0.02997727494
0.02997727494
0.02997727494
0.02997727492
0.02997727485
0.02997727462
0.02997727383
0.02997727125
0.02997726318
0.02997723931
0.02997717351
0.02997700761
0.02997663376
0.02997589918
0.02997727494
0.02997727494
0.02997727494
0.02997727494
0.02997727492
0.02997727487
0.0299772747
0.02997727413
0.02997727235
0.029977267
0.0299772518
0.02997721154
0.02997711341
0.02997689703
0.02997647189
0.02997727494
0.02997727494
0.02997727494
0.02997727494
0.02997727492
0.02997727485
0.02997727462
0.02997727383
0.02997727125
0.02997726318
0.02997723931
0.02997717351
0.0299770076
0.02997663373
0.02997727494
0.02997727494
0.02997727494
0.02997727493
0.02997727491
0.02997727482
0.02997727449
0.02997727334
0.02997726936
0.02997725626
0.02997721531
0.029977096
0.02997677971
0.02997604148
0.02997458604
0.02997727494
0.02997727494
0.02997727494
0.02997727493
0.0299772749
0.02997727477
0.02997727427
0.02997727241
0.02997726569
0.02997724217
0.02997716387
0.02997692051
0.02997623431
0.02997455383
0.02997120591
0.02997727494
0.02997727494
0.02997727494
0.02997727493
0.02997727488
0.02997727471
0.02997727402
0.02997727136
0.02997726126
0.02997722404
0.02997709267
0.02997665695
0.02997534162
0.02997191534
0.02996491871
0.02997727494
0.02997727494
0.02997727494
0.02997727493
0.02997727488
0.02997727468
0.02997727391
0.02997727083
0.02997725889
0.02997721351
0.02997704701
0.02997646716
0.0299746084
0.02996943147
0.02995836668
0.02997727494
0.02997727494
0.02997727494
0.02997727493
0.02997727488
0.02997727471
0.02997727402
0.02997727136
0.02997726126
0.02997722405
0.02997709267
0.02997665696
0.02997534163
0.02997191538
0.02996491882
0.02997727494
0.02997727494
0.02997727494
0.02997727493
0.0299772749
0.02997727477
0.02997727427
0.02997727241
0.02997726569
0.02997724217
0.02997716387
0.02997692052
0.02997623432
0.02997455388
0.02997120603
0.02997727494
0.02997727494
0.02997727494
0.02997727493
0.02997727491
0.02997727482
0.02997727449
0.02997727334
0.02997726936
0.02997725626
0.02997721531
0.029977096
0.02997677973
0.02997604152
0.02997458614
0.02997727494
0.02997727494
0.02997727494
0.02997727494
0.02997727492
0.02997727485
0.02997727462
0.02997727383
0.02997727125
0.02997726318
0.02997723931
0.02997717351
0.02997700761
0.02997663376
0.02997589918
0.02997727494
0.02997727494
0.02997727494
0.02997727493
0.02997727491
0.02997727482
0.02997727448
0.02997727328
0.02997726921
0.02997725587
0.02997721452
0.0299770951
0.02997678117
0.02997605297
0.02997727494
0.02997727494
0.02997727494
0.02997727493
0.0299772749
0.02997727477
0.02997727427
0.02997727241
0.02997726569
0.02997724217
0.02997716387
0.02997692051
0.02997623429
0.02997455376
0.02997727494
0.02997727494
0.02997727494
0.02997727493
0.02997727488
0.02997727468
0.02997727388
0.02997727071
0.02997725844
0.02997721224
0.02997704563
0.02997648163
0.02997474777
0.02997016885
0.02996077912
0.02997727494
0.02997727494
0.02997727494
0.02997727492
0.02997727486
0.02997727458
0.02997727343
0.02997726864
0.02997724899
0.02997716984
0.02997686108
0.02997571717
0.02997182714
0.02996043825
0.02993551219
0.02997727494
0.02997727494
0.02997727494
0.02997727492
0.02997727485
0.02997727454
0.0299772732
0.02997726753
0.02997724342
0.02997714195
0.02997672234
0.02997504312
0.02996872551
0.02994772601
0.02989554342
0.02997727494
0.02997727494
0.02997727494
0.02997727492
0.02997727486
0.02997727458
0.02997727343
0.02997726864
0.02997724899
0.02997716984
0.02997686108
0.02997571718
0.02997182719
0.02996043847
0.0299355128
0.02997727494
0.02997727494
0.02997727494
0.02997727493
0.02997727488
0.02997727468
0.02997727388
0.02997727071
0.02997725844
0.02997721224
0.02997704563
0.02997648164
0.02997474782
0.02997016904
0.0299607797
0.02997727494
0.02997727494
0.02997727494
0.02997727493
0.0299772749
0.02997727477
0.02997727427
0.02997727241
0.02997726569
0.02997724217
0.02997716387
0.02997692051
0.02997623432
0.02997455387
0.02997120602
0.02997727494
0.02997727494
0.02997727494
0.02997727493
0.02997727491
0.02997727482
0.02997727448
0.02997727328
0.02997726921
0.02997725587
0.02997721452
0.0299770951
0.02997678118
0.02997605303
0.0299746187
0.02997727494
0.02997727494
0.02997727494
0.02997727493
0.0299772749
0.02997727478
0.02997727433
0.02997727269
0.02997726692
0.02997724726
0.02997718374
0.02997699206
0.02997646604
0.02997520355
0.02997727494
0.02997727494
0.02997727494
0.02997727493
0.02997727488
0.02997727471
0.02997727402
0.02997727136
0.02997726126
0.02997722404
0.02997709266
0.02997665694
0.02997534157
0.02997191515
0.02997727494
0.02997727494
0.02997727494
0.02997727492
0.02997727486
0.02997727458
0.02997727343
0.02997726864
0.02997724899
0.02997716984
0.02997686107
0.02997571715
0.02997182703
0.02996043775
0.02997727494
0.02997727494
0.02997727494
0.02997727492
0.02997727483
0.02997727444
0.02997727272
0.02997726515
0.02997723175
0.02997708523
0.02997645174
0.02997379678
0.02996334422
0.02992715669
0.02983482773
0.02997727494
0.02997727494
0.02997727494
0.02997727491
0.02997727481
0.02997727437
0.02997727234
0.02997726312
0.02997722052
0.02997702161
0.02997608465
0.02997166447
0.02995116231
0.02986205007
0.02955306759
0.02997727494
0.02997727494
0.02997727494
0.02997727492
0.02997727483
0.02997727444
0.02997727272
0.02997726515
0.02997723175
0.02997708523
0.02997645174
0.02997379681
0.0299633444
0.02992715761
0.02983483161
0.02997727494
0.02997727494
0.02997727494
0.02997727492
0.02997727486
0.02997727458
0.02997727343
0.02997726864
0.02997724899
0.02997716984
0.02997686108
0.02997571717
0.02997182717
0.02996043841
0.02993551274
0.02997727494
0.02997727494
0.02997727494
0.02997727493
0.02997727488
0.02997727471
0.02997727402
0.02997727136
0.02997726126
0.02997722404
0.02997709267
0.02997665695
0.02997534162
0.02997191535
0.02996491878
0.02997727494
0.02997727494
0.02997727494
0.02997727493
0.0299772749
0.02997727478
0.02997727433
0.02997727269
0.02997726692
0.02997724726
0.02997718375
0.02997699207
0.02997646606
0.02997520363
0.02997269876
0.02997727494
0.02997727494
0.02997727494
0.02997727493
0.0299772749
0.02997727476
0.02997727426
0.02997727242
0.02997726578
0.02997724277
0.02997716657
0.02997692994
0.02997625915
0.02997459823
0.02997727494
0.02997727494
0.02997727494
0.02997727493
0.02997727488
0.02997727468
0.02997727391
0.02997727083
0.02997725889
0.02997721351
0.02997704701
0.02997646713
0.02997460831
0.02996943117
0.02997727494
0.02997727494
0.02997727494
0.02997727492
0.02997727485
0.02997727454
0.0299772732
0.02997726753
0.02997724342
0.02997714195
0.02997672233
0.02997504306
0.02996872523
0.02994772484
0.02997727494
0.02997727494
0.02997727494
0.02997727491
0.02997727481
0.02997727437
0.02997727234
0.02997726312
0.02997722052
0.02997702161
0.02997608463
0.02997166437
0.02995116167
0.02986204574
0.02997727494
0.02997727494
0.02997727493
0.02997727491
0.0299772748
0.02997727428
0.02997727187
0.02997726041
0.02997720434
0.02997691976
0.02997540678
0.02996689013
0.02991561942
0.02958315495
0.02723606303
0.02997727494
0.02997727494
0.02997727494
0.02997727491
0.02997727481
0.02997727437
0.02997727234
0.02997726312
0.02997722052
0.02997702161
0.02997608463
0.02997166441
0.02995116208
0.02986204926
0.02955306595
0.02997727494
0.02997727494
0.02997727494
0.02997727492
0.02997727485
0.02997727454
0.0299772732
0.02997726753
0.02997724342
0.02997714195
0.02997672233
0.02997504309
0.02996872542
0.02994772575
0.02989554301
0.02997727494
0.02997727494
0.02997727494
0.02997727493
0.02997727488
0.02997727468
0.02997727391
0.02997727083
0.02997725889
0.02997721351
0.02997704701
0.02997646715
0.02997460838
0.02996943141
0.02995836661
0.02997727494
0.02997727494
0.02997727494
0.02997727493
0.0299772749
0.02997727476
0.02997727426
0.02997727242
0.02997726578
0.02997724277
0.02997716658
0.02997692995
0.02997625918
0.02997459832
0.02997126063
0.02997727494
0.02997727494
0.02997727494
0.02997727493
0.0299772749
0.02997727478
0.02997727433
0.02997727269
0.02997726692
0.02997724726
0.02997718374
0.02997699206
0.02997646604
0.02997520356
0.02997727494
0.02997727494
0.02997727494
0.02997727493
0.02997727488
0.02997727471
0.02997727402
0.02997727136
0.02997726126
0.02997722404
0.02997709266
0.02997665694
0.02997534156
0.02997191516
0.02997727494
0.02997727494
0.02997727494
0.02997727492
0.02997727486
0.02997727458
0.02997727343
0.02997726864
0.02997724899
0.02997716984
0.02997686107
0.02997571713
0.02997182699
0.02996043779
0.02997727494
0.02997727494
0.02997727494
0.02997727492
0.02997727483
0.02997727444
0.02997727272
0.02997726515
0.02997723175
0.02997708523
0.02997645173
0.02997379673
0.02996334398
0.0299271558
0.02997727494
0.02997727494
0.02997727494
0.02997727491
0.02997727481
0.02997727437
0.02997727234
0.02997726312
0.02997722052
0.0299770216
0.02997608462
0.02997166433
0.02995116152
0.02986204532
0.02997727494
0.02997727494
0.02997727494
0.02997727492
0.02997727483
0.02997727444
0.02997727272
0.02997726515
0.02997723175
0.02997708523
0.02997645173
0.02997379674
0.02996334404
0.02992715591
0.02997727494
0.02997727494
0.02997727494
0.02997727492
0.02997727486
0.02997727458
0.02997727343
0.02997726864
0.02997724899
0.02997716984
0.02997686107
0.02997571715
0.02997182706
0.02996043803
0.02993551155
0.02997727494
0.02997727494
0.02997727494
0.02997727493
0.02997727488
0.02997727471
0.02997727402
0.02997727136
0.02997726126
0.02997722404
0.02997709267
0.02997665695
0.0299753416
0.02997191528
0.02996491861
0.02997727494
0.02997727494
0.02997727494
0.02997727493
0.0299772749
0.02997727478
0.02997727433
0.02997727269
0.02997726692
0.02997724726
0.02997718375
0.02997699207
0.02997646606
0.02997520361
0.02997269873
0.02997727494
0.02997727494
0.02997727494
0.02997727493
0.02997727491
0.02997727482
0.02997727448
0.02997727328
0.02997726921
0.02997725587
0.02997721451
0.02997709509
0.02997678116
0.02997605298
0.02997727494
0.02997727494
0.02997727494
0.02997727493
0.0299772749
0.02997727477
0.02997727427
0.02997727241
0.02997726569
0.02997724217
0.02997716386
0.0299769205
0.02997623428
0.02997455376
0.02997727494
0.02997727494
0.02997727494
0.02997727493
0.02997727488
0.02997727468
0.02997727388
0.02997727071
0.02997725844
0.02997721224
0.02997704562
0.02997648161
0.02997474772
0.02997016875
0.02997727494
0.02997727494
0.02997727494
0.02997727492
0.02997727486
0.02997727458
0.02997727343
0.02997726864
0.02997724899
0.02997716984
0.02997686107
0.02997571713
0.02997182698
0.02996043779
0.02997727494
0.02997727494
0.02997727494
0.02997727492
0.02997727485
0.02997727454
0.0299772732
0.02997726753
0.02997724342
0.02997714194
0.02997672232
0.02997504305
0.02996872519
0.0299477248
0.02997727494
0.02997727494
0.02997727494
0.02997727492
0.02997727486
0.02997727458
0.02997727343
0.02997726864
0.02997724899
0.02997716984
0.02997686107
0.02997571713
0.029971827
0.02996043784
0.02997727494
0.02997727494
0.02997727494
0.02997727493
0.02997727488
0.02997727468
0.02997727388
0.02997727071
0.02997725844
0.02997721224
0.02997704563
0.02997648162
0.02997474774
0.02997016874
0.02997727494
0.02997727494
0.02997727494
0.02997727493
0.0299772749
0.02997727477
0.02997727427
0.02997727241
0.02997726569
0.02997724217
0.02997716387
0.02997692051
0.0299762343
0.0299745538
0.02997120583
0.02997727494
0.02997727494
0.02997727494
0.02997727493
0.02997727491
0.02997727482
0.02997727448
0.02997727328
0.02997726921
0.02997725587
0.02997721452
0.0299770951
0.02997678117
0.029976053
0.02997461865
0.02997727494
0.02997727494
0.02997727494
0.02997727494
0.02997727492
0.02997727485
0.02997727462
0.02997727383
0.02997727125
0.02997726318
0.02997723931
0.02997717351
0.0299770076
0.02997663373
0.02997727494
0.02997727494
0.02997727494
0.02997727493
0.02997727491
0.02997727482
0.02997727449
0.02997727334
0.02997726936
0.02997725626
0.0299772153
0.029977096
0.02997677971
0.02997604146
0.02997727494
0.02997727494
0.02997727494
0.02997727493
0.0299772749
0.02997727477
0.02997727427
0.02997727241
0.02997726569
0.02997724217
0.02997716386
0.0299769205
0.02997623428
0.02997455377
0.02997727494
0.02997727494
0.02997727494
0.02997727493
0.02997727488
0.02997727471
0.02997727402
0.02997727136
0.02997726126
0.02997722404
0.02997709266
0.02997665693
0.02997534156
0.02997191517
0.02997727494
0.02997727494
0.02997727494
0.02997727493
0.02997727488
0.02997727468
0.02997727391
0.02997727083
0.02997725889
0.02997721351
0.02997704701
0.02997646713
0.0299746083
0.02996943116
0.02997727494
0.02997727494
0.02997727494
0.02997727493
0.02997727488
0.02997727471
0.02997727402
0.02997727136
0.02997726126
0.02997722404
0.02997709266
0.02997665693
0.02997534156
0.02997191517
0.02997727494
0.02997727494
0.02997727494
0.02997727493
0.0299772749
0.02997727477
0.02997727427
0.02997727241
0.02997726569
0.02997724217
0.02997716386
0.0299769205
0.02997623429
0.02997455377
0.02997727494
0.02997727494
0.02997727494
0.02997727493
0.02997727491
0.02997727482
0.02997727449
0.02997727334
0.02997726936
0.02997725626
0.02997721531
0.029977096
0.02997677971
0.02997604146
0.02997727494
0.02997727494
0.02997727494
0.02997727494
0.02997727492
0.02997727485
0.02997727462
0.02997727383
0.02997727125
0.02997726318
0.02997723931
0.02997717351
0.0299770076
0.02997663374
0.02997589913
0.02997727494
0.02997727494
0.02997727494
0.02997727494
0.02997727492
0.02997727487
0.0299772747
0.02997727413
0.02997727235
0.02997726699
0.0299772518
0.02997721153
0.0299771134
0.02997689701
0.02997727494
0.02997727494
0.02997727494
0.02997727494
0.02997727492
0.02997727485
0.02997727462
0.02997727383
0.02997727125
0.02997726318
0.02997723931
0.02997717351
0.0299770076
0.02997663373
0.02997727494
0.02997727494
0.02997727494
0.02997727493
0.02997727491
0.02997727482
0.02997727448
0.02997727328
0.02997726921
0.02997725587
0.02997721451
0.02997709509
0.02997678116
0.02997605298
0.02997727494
0.02997727494
0.02997727494
0.02997727493
0.0299772749
0.02997727478
0.02997727433
0.02997727269
0.02997726692
0.02997724726
0.02997718374
0.02997699206
0.02997646603
0.02997520356
0.02997727494
0.02997727494
0.02997727494
0.02997727493
0.0299772749
0.02997727476
0.02997727426
0.02997727242
0.02997726578
0.02997724277
0.02997716657
0.02997692994
0.02997625915
0.02997459823
0.02997727494
0.02997727494
0.02997727494
0.02997727493
0.0299772749
0.02997727478
0.02997727433
0.02997727269
0.02997726692
0.02997724726
0.02997718374
0.02997699206
0.02997646603
0.02997520356
0.02997727494
0.02997727494
0.02997727494
0.02997727493
0.02997727491
0.02997727482
0.02997727448
0.02997727328
0.02997726921
0.02997725587
0.02997721451
0.02997709509
0.02997678116
0.02997605298
0.02997727494
0.02997727494
0.02997727494
0.02997727494
0.02997727492
0.02997727485
0.02997727462
0.02997727383
0.02997727125
0.02997726318
0.02997723931
0.02997717351
0.0299770076
0.02997663373
0.02997727494
0.02997727494
0.02997727494
0.02997727494
0.02997727492
0.02997727487
0.0299772747
0.02997727413
0.02997727235
0.02997726699
0.0299772518
0.02997721154
0.0299771134
0.02997689701
)
;

boundaryField
{
    top
    {
        type            calculated;
        value           nonuniform List<scalar> 
134
(
0.02997727494
0.02997727494
0.02997727494
0.02997727494
0.02997727494
0.02997727494
0.02997727494
0.02997727494
0.02997727494
0.02997727494
0.02997727494
0.02997727494
0.02997727494
0.02997727494
0.02997727494
0.02997727494
0.02997727494
0.02997727494
0.02997727494
0.02997727494
0.02997727494
0.02997727494
0.02997727494
0.02997727494
0.02997727494
0.02997727494
0.02997727494
0.02997727494
0.02997727494
0.02997727493
0.02997727493
0.02997727493
0.02997727493
0.02997727493
0.02997727494
0.02997727494
0.02997727492
0.02997727492
0.02997727491
0.0299772749
0.0299772749
0.0299772749
0.02997727491
0.02997727492
0.02997727492
0.02997727487
0.02997727485
0.02997727482
0.02997727478
0.02997727476
0.02997727478
0.02997727482
0.02997727485
0.02997727487
0.0299772747
0.02997727462
0.02997727448
0.02997727433
0.02997727426
0.02997727433
0.02997727448
0.02997727462
0.0299772747
0.02997727413
0.02997727383
0.02997727328
0.02997727269
0.02997727242
0.02997727269
0.02997727328
0.02997727383
0.02997727413
0.02997727235
0.02997727125
0.02997726921
0.02997726692
0.02997726578
0.02997726692
0.02997726921
0.02997727125
0.02997727235
0.029977267
0.02997726318
0.02997725587
0.02997724726
0.02997724277
0.02997724726
0.02997725587
0.02997726318
0.02997726699
0.0299772518
0.02997723931
0.02997721452
0.02997718375
0.02997716658
0.02997718375
0.02997721452
0.02997723931
0.0299772518
0.02997721154
0.02997717351
0.0299770951
0.02997699207
0.02997692995
0.02997699207
0.0299770951
0.02997717351
0.02997721154
0.02997711341
0.02997700761
0.02997678118
0.02997646606
0.02997625918
0.02997646606
0.02997678117
0.0299770076
0.0299771134
0.02997689703
0.02997663376
0.02997605303
0.02997520363
0.02997459832
0.02997520361
0.029976053
0.02997663374
0.02997689701
0.02997647189
0.02997589918
0.0299746187
0.02997269876
0.02997126063
0.02997269873
0.02997461865
0.02997589913
)
;
    }
    bottom
    {
        type            calculated;
        value           nonuniform List<scalar> 
127
(
0.02997727494
0.02997727494
0.02997727494
0.02997727494
0.02997727494
0.02997727494
0.02997727494
0.02997727494
0.02997727494
0.02997727494
0.02997727494
0.02997727494
0.02997727494
0.02997727494
0.02997727494
0.02997727494
0.02997727494
0.02997727494
0.02997727494
0.02997727494
0.02997727494
0.02997727494
0.02997727494
0.02997727494
0.02997727494
0.02997727494
0.02997727494
0.02997727494
0.02997727494
0.02997727493
0.02997727493
0.02997727493
0.02997727493
0.02997727493
0.02997727494
0.02997727494
0.02997727492
0.02997727492
0.02997727491
0.0299772749
0.0299772749
0.0299772749
0.02997727491
0.02997727492
0.02997727492
0.02997727487
0.02997727485
0.02997727482
0.02997727478
0.02997727476
0.02997727478
0.02997727482
0.02997727485
0.02997727487
0.0299772747
0.02997727462
0.02997727448
0.02997727433
0.02997727426
0.02997727433
0.02997727448
0.02997727462
0.0299772747
0.02997727413
0.02997727383
0.02997727328
0.02997727269
0.02997727242
0.02997727269
0.02997727328
0.02997727383
0.02997727413
0.02997727235
0.02997727125
0.02997726921
0.02997726692
0.02997726578
0.02997726692
0.02997726921
0.02997727125
0.02997727235
0.02997726699
0.02997726318
0.02997725587
0.02997724726
0.02997724277
0.02997724726
0.02997725587
0.02997726318
0.02997726699
0.0299772518
0.02997723931
0.02997721452
0.02997718374
0.02997716657
0.02997718374
0.02997721451
0.02997723931
0.0299772518
0.02997721154
0.02997717351
0.0299770951
0.02997699206
0.02997692994
0.02997699206
0.02997709509
0.02997717351
0.02997721153
0.02997711341
0.0299770076
0.02997678117
0.02997646604
0.02997625915
0.02997646604
0.02997678116
0.0299770076
0.0299771134
0.02997689702
0.02997663373
0.02997605297
0.02997520355
0.02997459823
0.02997520356
0.02997605298
0.02997663373
0.02997689701
0.02997647186
)
;
    }
    side-walls
    {
        type            calculated;
        value           nonuniform List<scalar> 
261
(
0.02997727494
0.02997727494
0.02997727494
0.02997727494
0.02997727494
0.02997727494
0.02997727494
0.02997727494
0.02997727494
0.02997727494
0.02997727494
0.02997727494
0.02997727494
0.02997727494
0.02997727494
0.02997727494
0.02997727494
0.02997727494
0.02997727494
0.02997727494
0.02997727494
0.02997727494
0.02997727494
0.02997727494
0.02997727494
0.02997727494
0.02997727494
0.02997727494
0.02997727494
0.02997727493
0.02997727493
0.02997727493
0.02997727493
0.02997727493
0.02997727494
0.02997727494
0.02997727492
0.02997727492
0.02997727491
0.0299772749
0.0299772749
0.0299772749
0.02997727491
0.02997727492
0.02997727492
0.02997727487
0.02997727485
0.02997727482
0.02997727478
0.02997727476
0.02997727478
0.02997727482
0.02997727485
0.02997727487
0.0299772747
0.02997727462
0.02997727448
0.02997727433
0.02997727426
0.02997727433
0.02997727448
0.02997727462
0.0299772747
0.02997727413
0.02997727383
0.02997727328
0.02997727269
0.02997727242
0.02997727269
0.02997727328
0.02997727383
0.02997727413
0.02997727235
0.02997727125
0.02997726921
0.02997726692
0.02997726578
0.02997726692
0.02997726921
0.02997727125
0.02997727235
0.02997726699
0.02997726318
0.02997725587
0.02997724726
0.02997724277
0.02997724726
0.02997725587
0.02997726318
0.029977267
0.0299772518
0.02997723931
0.02997721452
0.02997718375
0.02997716658
0.02997718375
0.02997721452
0.02997723931
0.0299772518
0.02997721154
0.02997717351
0.0299770951
0.02997699207
0.02997692995
0.02997699207
0.0299770951
0.02997717351
0.02997721154
0.02997711341
0.02997700761
0.02997678118
0.02997646606
0.02997625919
0.02997646607
0.02997678118
0.02997700761
0.02997711341
0.02997689702
0.02997663375
0.02997605301
0.02997520363
0.02997459833
0.02997520364
0.02997605303
0.02997663376
0.02997689703
0.02997647186
0.02997589915
0.02997461867
0.02997269876
0.02997126064
0.02997269878
0.0299746187
0.02997589918
0.02997647189
0.02997727494
0.02997727494
0.02997727494
0.02997727494
0.02997727494
0.02997727494
0.02997727494
0.02997727494
0.02997727494
0.02997727494
0.02997727494
0.02997727494
0.02997727494
0.02997727494
0.02997727494
0.02997727494
0.02997727494
0.02997727494
0.02997727494
0.02997727494
0.02997727494
0.02997727494
0.02997727494
0.02997727494
0.02997727494
0.02997727494
0.02997727494
0.02997727494
0.02997727494
0.02997727493
0.02997727493
0.02997727493
0.02997727493
0.02997727493
0.02997727494
0.02997727494
0.02997727492
0.02997727492
0.02997727491
0.0299772749
0.0299772749
0.0299772749
0.02997727491
0.02997727492
0.02997727492
0.02997727487
0.02997727485
0.02997727482
0.02997727478
0.02997727476
0.02997727478
0.02997727482
0.02997727485
0.02997727487
0.0299772747
0.02997727462
0.02997727448
0.02997727433
0.02997727426
0.02997727433
0.02997727448
0.02997727462
0.0299772747
0.02997727413
0.02997727383
0.02997727328
0.02997727269
0.02997727242
0.02997727269
0.02997727328
0.02997727383
0.02997727413
0.02997727235
0.02997727125
0.02997726921
0.02997726692
0.02997726578
0.02997726692
0.02997726921
0.02997727125
0.02997727235
0.02997726699
0.02997726318
0.02997725587
0.02997724726
0.02997724277
0.02997724726
0.02997725587
0.02997726318
0.02997726699
0.0299772518
0.02997723931
0.02997721451
0.02997718374
0.02997716657
0.02997718374
0.02997721451
0.02997723931
0.0299772518
0.02997721153
0.02997717351
0.02997709509
0.02997699206
0.02997692994
0.02997699206
0.02997709509
0.02997717351
0.02997721154
0.0299771134
0.0299770076
0.02997678116
0.02997646603
0.02997625915
0.02997646603
0.02997678116
0.0299770076
0.0299771134
0.02997689701
0.02997663373
0.02997605298
0.02997520356
0.02997459823
0.02997520356
0.02997605298
0.02997663373
0.02997689701
)
;
    }
    inlet
    {
        type            calculated;
        value           nonuniform List<scalar> 
81
(
0.02997727494
0.02997727494
0.02997727494
0.02997727494
0.02997727494
0.02997727494
0.02997727494
0.02997727494
0.02997727494
0.02997727494
0.02997727494
0.02997727494
0.02997727494
0.02997727494
0.02997727494
0.02997727494
0.02997727494
0.02997727494
0.02997727494
0.02997727494
0.02997727494
0.02997727494
0.02997727494
0.02997727494
0.02997727494
0.02997727494
0.02997727494
0.02997727494
0.02997727494
0.02997727494
0.02997727494
0.02997727494
0.02997727494
0.02997727494
0.02997727494
0.02997727494
0.02997727494
0.02997727494
0.02997727494
0.02997727494
0.02997727494
0.02997727494
0.02997727494
0.02997727494
0.02997727494
0.02997727494
0.02997727494
0.02997727494
0.02997727494
0.02997727494
0.02997727494
0.02997727494
0.02997727494
0.02997727494
0.02997727494
0.02997727494
0.02997727494
0.02997727494
0.02997727494
0.02997727494
0.02997727494
0.02997727494
0.02997727494
0.02997727494
0.02997727494
0.02997727494
0.02997727494
0.02997727494
0.02997727494
0.02997727494
0.02997727494
0.02997727494
0.02997727494
0.02997727494
0.02997727494
0.02997727494
0.02997727494
0.02997727494
0.02997727494
0.02997727494
0.02997727494
)
;
    }
    outlet
    {
        type            calculated;
        value           nonuniform 0();
    }
    procBoundary0to1
    {
        type            processor;
        value           nonuniform List<scalar> 
97
(
0.02997573288
0.02997589912
0.02997465848
0.02997228841
0.02996882158
0.02996635052
0.02996882162
0.02997228845
0.02997465853
0.02997573291
0.02997589912
0.02997589912
0.02997224128
0.02997120578
0.02996616909
0.02995539778
0.02994525422
0.02995539792
0.02996616924
0.02997224139
0.02997465853
0.02997461862
0.02997120578
0.02997120578
0.02994826775
0.02993551126
0.02990853041
0.0298565811
0.02990853099
0.02994826829
0.02996616924
0.02997228845
0.02997269868
0.02996491849
0.02993551126
0.02993551126
0.02977252092
0.02955306221
0.02950599498
0.0297725231
0.02990853097
0.02995539789
0.0299688216
0.02997126055
0.02995836638
0.02989554218
0.02955306221
0.02955306221
0.02835529834
0.02955306196
0.02950599448
0.02983482949
0.02985658087
0.0299452542
0.02996635053
0.02997269871
0.02996491861
0.0299355121
0.02983483006
0.02955306196
0.02983482949
0.02983482949
0.02990853032
0.02996077918
0.02995539776
0.02996882158
0.02997461866
0.02997120592
0.02996077943
0.02993551216
0.02989554229
0.02993551224
0.02996077918
0.02996077918
0.02996616911
0.02997458605
0.0299722884
0.02997589916
0.0299745861
0.02997120594
0.02996491864
0.02995836644
0.02996491865
0.02997120592
0.02997458605
0.02997458605
0.02997465848
0.02997647186
0.02997647188
0.02997589916
0.02997461866
0.02997269872
0.02997126057
0.02997269872
0.02997461866
0.02997589915
0.02997647186
)
;
    }
}


// ************************************************************************* //
