/*--------------------------------*- C++ -*----------------------------------*\
| =========                 |                                                 |
| \\      /  F ield         | OpenFOAM: The Open Source CFD Toolbox           |
|  \\    /   O peration     | Version:  4.x                                   |
|   \\  /    A nd           | Web:      www.OpenFOAM.org                      |
|    \\/     M anipulation  |                                                 |
\*---------------------------------------------------------------------------*/
FoamFile
{
    version     2.0;
    format      ascii;
    class       volScalarField;
    location    "5000";
    object      CO2;
}
// * * * * * * * * * * * * * * * * * * * * * * * * * * * * * * * * * * * * * //

dimensions      [0 0 0 0 0 0 0];

internalField   nonuniform List<scalar> 
1175
(
0.0649813388
0.0649813388
0.0649813388
0.06498133881
0.06498133885
0.06498133896
0.06498133934
0.06498134057
0.06498134438
0.06498135563
0.06498138707
0.06498146918
0.06498166651
0.06498209598
0.06498292961
0.0649813388
0.0649813388
0.0649813388
0.06498133882
0.06498133886
0.06498133901
0.06498133951
0.0649813412
0.06498134664
0.06498136337
0.06498141206
0.06498154426
0.06498187278
0.06498260309
0.0649840204
0.0649813388
0.0649813388
0.06498133881
0.06498133882
0.06498133888
0.06498133908
0.06498133981
0.06498134234
0.06498135081
0.06498137808
0.06498146125
0.06498169772
0.06498231011
0.06498371086
0.06498643508
0.0649813388
0.0649813388
0.06498133881
0.06498133883
0.0649813389
0.06498133916
0.06498134012
0.06498134355
0.06498135545
0.06498139523
0.06498152167
0.0649818971
0.06498291155
0.06498531103
0.0649900095
0.0649813388
0.0649813388
0.06498133881
0.06498133883
0.0649813389
0.06498133919
0.06498134026
0.06498134411
0.06498135772
0.06498140409
0.06498155501
0.06498201584
0.06498330113
0.06498643512
0.06499264676
0.0649813388
0.0649813388
0.06498133881
0.06498133883
0.0649813389
0.06498133916
0.06498134012
0.06498134355
0.06498135545
0.06498139523
0.06498152167
0.06498189709
0.06498291154
0.06498531101
0.06499000945
0.0649813388
0.0649813388
0.06498133881
0.06498133882
0.06498133888
0.06498133908
0.06498133981
0.06498134234
0.06498135081
0.06498137808
0.06498146125
0.06498169771
0.0649823101
0.06498371082
0.06498643499
0.0649813388
0.0649813388
0.0649813388
0.06498133882
0.06498133886
0.06498133901
0.06498133951
0.0649813412
0.06498134664
0.06498136337
0.06498141206
0.06498154425
0.06498187276
0.06498260306
0.06498402033
0.0649813388
0.0649813388
0.0649813388
0.06498133881
0.06498133885
0.06498133896
0.06498133934
0.06498134057
0.06498134438
0.06498135563
0.06498138707
0.06498146917
0.0649816665
0.06498209595
0.06498292955
0.0649813388
0.0649813388
0.0649813388
0.06498133882
0.06498133886
0.06498133901
0.06498133951
0.06498134121
0.06498134664
0.06498136337
0.06498141206
0.06498154426
0.06498187278
0.06498260312
0.0649813388
0.0649813388
0.06498133881
0.06498133882
0.06498133887
0.06498133907
0.06498133977
0.06498134222
0.06498135047
0.06498137722
0.06498145943
0.06498169519
0.06498231081
0.06498372758
0.06498648513
0.0649813388
0.0649813388
0.06498133881
0.06498133883
0.0649813389
0.06498133918
0.06498134024
0.06498134411
0.06498135787
0.06498140517
0.06498155999
0.06498203345
0.06498334799
0.06498652072
0.06499275757
0.0649813388
0.0649813388
0.06498133881
0.06498133883
0.06498133893
0.0649813393
0.06498134075
0.06498134624
0.0649813667
0.06498144072
0.06498169752
0.06498253508
0.06498502333
0.06499140736
0.06500426141
0.0649813388
0.0649813388
0.06498133881
0.06498133884
0.06498133894
0.06498133936
0.06498134098
0.0649813473
0.06498137138
0.06498146113
0.06498178455
0.06498289127
0.0649863792
0.06499593756
0.0650160571
0.0649813388
0.0649813388
0.06498133881
0.06498133883
0.06498133893
0.0649813393
0.06498134075
0.06498134624
0.0649813667
0.06498144072
0.06498169752
0.06498253507
0.0649850233
0.06499140726
0.06500426119
0.0649813388
0.0649813388
0.06498133881
0.06498133883
0.0649813389
0.06498133918
0.06498134024
0.06498134411
0.06498135787
0.06498140517
0.06498155999
0.06498203343
0.06498334795
0.0649865206
0.0649927573
0.0649813388
0.0649813388
0.06498133881
0.06498133882
0.06498133887
0.06498133907
0.06498133977
0.06498134222
0.06498135047
0.06498137722
0.06498145943
0.06498169518
0.06498231078
0.06498372749
0.06498648492
0.0649813388
0.0649813388
0.0649813388
0.06498133882
0.06498133886
0.06498133901
0.06498133951
0.0649813412
0.06498134664
0.06498136337
0.06498141206
0.06498154425
0.06498187276
0.06498260306
0.06498402033
0.0649813388
0.0649813388
0.06498133881
0.06498133882
0.06498133888
0.06498133908
0.06498133981
0.06498134234
0.06498135081
0.06498137808
0.06498146126
0.06498169772
0.06498231014
0.06498371093
0.0649813388
0.0649813388
0.06498133881
0.06498133883
0.0649813389
0.06498133918
0.06498134024
0.06498134411
0.06498135787
0.06498140517
0.06498156
0.06498203346
0.06498334802
0.06498652085
0.0649813388
0.0649813388
0.06498133881
0.06498133884
0.06498133894
0.06498133937
0.06498134104
0.06498134754
0.06498137228
0.06498146375
0.06498178807
0.06498286806
0.06498613653
0.06499464047
0.06501183489
0.0649813388
0.0649813388
0.06498133881
0.06498133885
0.06498133899
0.06498133957
0.06498134195
0.06498135167
0.06498139085
0.06498154574
0.06498213946
0.06498430235
0.0649915401
0.06501240637
0.06505739735
0.0649813388
0.0649813388
0.06498133881
0.06498133885
0.06498133901
0.06498133966
0.06498134241
0.06498135388
0.06498140166
0.06498159895
0.06498239985
0.06498554832
0.06499719272
0.06503526833
0.06512833929
0.0649813388
0.0649813388
0.06498133881
0.06498133885
0.06498133899
0.06498133957
0.06498134195
0.06498135167
0.06498139085
0.06498154574
0.06498213945
0.0649843023
0.06499153992
0.06501240578
0.06505739588
0.0649813388
0.0649813388
0.06498133881
0.06498133884
0.06498133894
0.06498133937
0.06498134104
0.06498134754
0.06498137228
0.06498146375
0.06498178806
0.06498286801
0.06498613638
0.06499464
0.06501183367
0.0649813388
0.0649813388
0.06498133881
0.06498133883
0.0649813389
0.06498133918
0.06498134024
0.06498134411
0.06498135787
0.06498140517
0.06498155999
0.06498203343
0.06498334795
0.0649865206
0.06499275729
0.0649813388
0.0649813388
0.06498133881
0.06498133882
0.06498133888
0.06498133908
0.06498133981
0.06498134234
0.06498135081
0.06498137808
0.06498146125
0.06498169771
0.0649823101
0.06498371082
0.064986435
0.0649813388
0.0649813388
0.06498133881
0.06498133883
0.0649813389
0.06498133916
0.06498134012
0.06498134355
0.06498135545
0.06498139523
0.06498152167
0.06498189711
0.06498291159
0.06498531115
0.0649813388
0.0649813388
0.06498133881
0.06498133883
0.06498133893
0.0649813393
0.06498134075
0.06498134624
0.0649813667
0.06498144072
0.06498169753
0.0649825351
0.06498502343
0.06499140769
0.0649813388
0.0649813388
0.06498133881
0.06498133885
0.06498133899
0.06498133957
0.06498134195
0.06498135167
0.06498139085
0.06498154574
0.06498213947
0.06498430239
0.06499154028
0.06501240719
0.0649813388
0.06498133881
0.06498133882
0.06498133886
0.06498133905
0.06498133986
0.06498134338
0.06498135858
0.06498142435
0.06498170747
0.06498290969
0.06498786212
0.06500704367
0.06507242133
0.06523663825
0.0649813388
0.06498133881
0.06498133882
0.06498133887
0.06498133908
0.06498134001
0.06498134413
0.06498136255
0.06498144587
0.06498182726
0.06498358972
0.0649917537
0.0650289735
0.06518812891
0.06573079317
0.0649813388
0.06498133881
0.06498133882
0.06498133886
0.06498133905
0.06498133986
0.06498134338
0.06498135858
0.06498142434
0.06498170746
0.06498290964
0.06498786195
0.06500704297
0.0650724187
0.06523662996
0.0649813388
0.0649813388
0.06498133881
0.06498133885
0.06498133899
0.06498133957
0.06498134195
0.06498135167
0.06498139085
0.06498154574
0.06498213946
0.06498430231
0.06499153996
0.06501240589
0.06505739604
0.0649813388
0.0649813388
0.06498133881
0.06498133883
0.06498133893
0.0649813393
0.06498134075
0.06498134624
0.0649813667
0.06498144072
0.06498169752
0.06498253507
0.0649850233
0.06499140725
0.06500426115
0.0649813388
0.0649813388
0.06498133881
0.06498133883
0.0649813389
0.06498133916
0.06498134012
0.06498134355
0.06498135545
0.06498139523
0.06498152167
0.0649818971
0.06498291154
0.06498531101
0.06499000945
0.0649813388
0.0649813388
0.06498133881
0.06498133883
0.0649813389
0.06498133919
0.06498134026
0.06498134411
0.06498135772
0.06498140409
0.06498155501
0.06498201586
0.06498330119
0.06498643529
0.0649813388
0.0649813388
0.06498133881
0.06498133884
0.06498133894
0.06498133936
0.06498134098
0.0649813473
0.06498137138
0.06498146113
0.06498178456
0.06498289131
0.06498637935
0.06499593801
0.0649813388
0.0649813388
0.06498133881
0.06498133885
0.06498133901
0.06498133966
0.06498134241
0.06498135388
0.06498140166
0.06498159896
0.06498239987
0.06498554841
0.06499719314
0.06503527003
0.0649813388
0.06498133881
0.06498133882
0.06498133887
0.06498133908
0.06498134001
0.06498134413
0.06498136255
0.06498144587
0.06498182727
0.06498358975
0.06499175387
0.06502897452
0.06518813551
0.0649813388
0.06498133881
0.06498133882
0.06498133887
0.06498133911
0.06498134018
0.06498134507
0.06498136779
0.0649814766
0.06498201726
0.06498483308
0.0650003781
0.06509229919
0.06567856564
0.06973349914
0.0649813388
0.06498133881
0.06498133882
0.06498133887
0.06498133908
0.06498134001
0.06498134413
0.06498136255
0.06498144587
0.06498182726
0.06498358972
0.06499175369
0.0650289735
0.06518812898
0.06573079345
0.0649813388
0.0649813388
0.06498133881
0.06498133885
0.06498133901
0.06498133966
0.06498134241
0.06498135388
0.06498140166
0.06498159895
0.06498239985
0.06498554833
0.06499719276
0.06503526844
0.06512833937
0.0649813388
0.0649813388
0.06498133881
0.06498133884
0.06498133894
0.06498133936
0.06498134098
0.0649813473
0.06498137138
0.06498146113
0.06498178455
0.06498289126
0.0649863792
0.06499593754
0.06501605703
0.0649813388
0.0649813388
0.06498133881
0.06498133883
0.0649813389
0.06498133919
0.06498134026
0.06498134411
0.06498135772
0.06498140409
0.06498155501
0.06498201584
0.06498330114
0.06498643514
0.06499264677
0.0649813388
0.0649813388
0.06498133881
0.06498133883
0.0649813389
0.06498133916
0.06498134012
0.06498134355
0.06498135545
0.06498139523
0.06498152167
0.06498189711
0.06498291159
0.06498531114
0.0649813388
0.0649813388
0.06498133881
0.06498133883
0.06498133893
0.0649813393
0.06498134075
0.06498134624
0.0649813667
0.06498144072
0.06498169753
0.0649825351
0.06498502341
0.06499140759
0.0649813388
0.0649813388
0.06498133881
0.06498133885
0.06498133899
0.06498133957
0.06498134195
0.06498135167
0.06498139085
0.06498154574
0.06498213948
0.0649843024
0.06499154028
0.06501240692
0.0649813388
0.06498133881
0.06498133882
0.06498133886
0.06498133905
0.06498133986
0.06498134338
0.06498135858
0.06498142435
0.06498170747
0.06498290969
0.06498786216
0.06500704389
0.06507242213
0.0649813388
0.06498133881
0.06498133882
0.06498133887
0.06498133908
0.06498134001
0.06498134413
0.06498136255
0.06498144587
0.06498182727
0.06498358976
0.0649917539
0.06502897462
0.06518813566
0.0649813388
0.06498133881
0.06498133882
0.06498133886
0.06498133905
0.06498133986
0.06498134338
0.06498135858
0.06498142435
0.06498170747
0.06498290969
0.06498786213
0.06500704377
0.06507242197
0.0649813388
0.0649813388
0.06498133881
0.06498133885
0.06498133899
0.06498133957
0.06498134195
0.06498135167
0.06498139085
0.06498154574
0.06498213947
0.06498430237
0.06499154019
0.06501240665
0.06505739816
0.0649813388
0.0649813388
0.06498133881
0.06498133883
0.06498133893
0.0649813393
0.06498134075
0.06498134624
0.0649813667
0.06498144072
0.06498169752
0.06498253509
0.06498502336
0.06499140745
0.06500426157
0.0649813388
0.0649813388
0.06498133881
0.06498133883
0.0649813389
0.06498133916
0.06498134012
0.06498134355
0.06498135545
0.06498139523
0.06498152167
0.0649818971
0.06498291156
0.06498531106
0.06499000955
0.0649813388
0.0649813388
0.06498133881
0.06498133882
0.06498133888
0.06498133908
0.06498133981
0.06498134234
0.06498135081
0.06498137808
0.06498146126
0.06498169772
0.06498231013
0.06498371091
0.0649813388
0.0649813388
0.06498133881
0.06498133883
0.0649813389
0.06498133918
0.06498134024
0.06498134411
0.06498135787
0.06498140517
0.06498156
0.06498203346
0.06498334802
0.06498652079
0.0649813388
0.0649813388
0.06498133881
0.06498133884
0.06498133894
0.06498133937
0.06498134104
0.06498134755
0.06498137228
0.06498146375
0.06498178807
0.06498286807
0.06498613656
0.0649946405
0.0649813388
0.0649813388
0.06498133881
0.06498133885
0.06498133899
0.06498133957
0.06498134195
0.06498135167
0.06498139085
0.06498154575
0.06498213948
0.06498430242
0.06499154033
0.06501240701
0.0649813388
0.0649813388
0.06498133881
0.06498133885
0.06498133901
0.06498133966
0.06498134241
0.06498135388
0.06498140166
0.06498159896
0.06498239988
0.06498554844
0.06499719325
0.06503527017
0.0649813388
0.0649813388
0.06498133881
0.06498133885
0.06498133899
0.06498133957
0.06498134195
0.06498135167
0.06498139085
0.06498154574
0.06498213948
0.0649843024
0.06499154028
0.0650124069
0.0649813388
0.0649813388
0.06498133881
0.06498133884
0.06498133894
0.06498133937
0.06498134104
0.06498134755
0.06498137228
0.06498146375
0.06498178807
0.06498286806
0.06498613656
0.06499464057
0.0649813388
0.0649813388
0.06498133881
0.06498133883
0.0649813389
0.06498133918
0.06498134024
0.06498134411
0.06498135787
0.06498140517
0.06498156
0.06498203345
0.06498334801
0.06498652078
0.06499275772
0.0649813388
0.0649813388
0.06498133881
0.06498133882
0.06498133888
0.06498133908
0.06498133981
0.06498134234
0.06498135081
0.06498137808
0.06498146125
0.06498169772
0.06498231013
0.06498371089
0.06498643512
0.0649813388
0.0649813388
0.0649813388
0.06498133882
0.06498133886
0.06498133901
0.06498133951
0.06498134121
0.06498134664
0.06498136337
0.06498141206
0.06498154426
0.06498187278
0.0649826031
0.0649813388
0.0649813388
0.06498133881
0.06498133882
0.06498133887
0.06498133907
0.06498133977
0.06498134222
0.06498135047
0.06498137722
0.06498145944
0.06498169519
0.06498231082
0.06498372757
0.0649813388
0.0649813388
0.06498133881
0.06498133883
0.0649813389
0.06498133918
0.06498134024
0.06498134411
0.06498135787
0.06498140517
0.06498156
0.06498203346
0.06498334803
0.0649865208
0.0649813388
0.0649813388
0.06498133881
0.06498133883
0.06498133893
0.0649813393
0.06498134075
0.06498134624
0.0649813667
0.06498144072
0.06498169753
0.06498253511
0.06498502344
0.06499140763
0.0649813388
0.0649813388
0.06498133881
0.06498133884
0.06498133894
0.06498133936
0.06498134098
0.0649813473
0.06498137138
0.06498146113
0.06498178457
0.06498289131
0.06498637937
0.06499593801
0.0649813388
0.0649813388
0.06498133881
0.06498133883
0.06498133893
0.0649813393
0.06498134075
0.06498134624
0.0649813667
0.06498144072
0.06498169753
0.06498253511
0.06498502343
0.06499140761
0.0649813388
0.0649813388
0.06498133881
0.06498133883
0.0649813389
0.06498133918
0.06498134024
0.06498134411
0.06498135787
0.06498140517
0.06498156
0.06498203346
0.06498334802
0.0649865208
0.0649813388
0.0649813388
0.06498133881
0.06498133882
0.06498133887
0.06498133907
0.06498133977
0.06498134222
0.06498135047
0.06498137722
0.06498145944
0.06498169519
0.06498231082
0.06498372759
0.0649813388
0.0649813388
0.0649813388
0.06498133882
0.06498133886
0.06498133901
0.06498133951
0.06498134121
0.06498134664
0.06498136337
0.06498141206
0.06498154426
0.06498187278
0.0649826031
0.06498402043
0.0649813388
0.0649813388
0.0649813388
0.06498133881
0.06498133885
0.06498133896
0.06498133934
0.06498134057
0.06498134438
0.06498135563
0.06498138707
0.06498146918
0.06498166651
0.06498209598
0.0649813388
0.0649813388
0.0649813388
0.06498133882
0.06498133886
0.06498133901
0.06498133951
0.06498134121
0.06498134664
0.06498136337
0.06498141207
0.06498154426
0.06498187278
0.06498260311
0.0649813388
0.0649813388
0.06498133881
0.06498133882
0.06498133888
0.06498133908
0.06498133981
0.06498134234
0.06498135081
0.06498137808
0.06498146126
0.06498169773
0.06498231014
0.06498371092
0.0649813388
0.0649813388
0.06498133881
0.06498133883
0.0649813389
0.06498133916
0.06498134012
0.06498134355
0.06498135545
0.06498139523
0.06498152168
0.06498189712
0.0649829116
0.06498531115
0.0649813388
0.0649813388
0.06498133881
0.06498133883
0.0649813389
0.06498133919
0.06498134026
0.06498134411
0.06498135772
0.06498140409
0.06498155501
0.06498201586
0.0649833012
0.06498643529
0.0649813388
0.0649813388
0.06498133881
0.06498133883
0.0649813389
0.06498133916
0.06498134012
0.06498134355
0.06498135545
0.06498139523
0.06498152167
0.06498189711
0.06498291159
0.06498531114
0.0649813388
0.0649813388
0.06498133881
0.06498133882
0.06498133888
0.06498133908
0.06498133981
0.06498134234
0.06498135081
0.06498137808
0.06498146126
0.06498169772
0.06498231013
0.0649837109
0.0649813388
0.0649813388
0.0649813388
0.06498133882
0.06498133886
0.06498133901
0.06498133951
0.06498134121
0.06498134664
0.06498136337
0.06498141206
0.06498154426
0.06498187278
0.06498260311
0.0649813388
0.0649813388
0.0649813388
0.06498133881
0.06498133885
0.06498133896
0.06498133934
0.06498134057
0.06498134438
0.06498135563
0.06498138707
0.06498146918
0.06498166651
0.06498209599
)
;

boundaryField
{
    top
    {
        type            zeroGradient;
    }
    bottom
    {
        type            zeroGradient;
    }
    side-walls
    {
        type            zeroGradient;
    }
    inlet
    {
        type            zeroGradient;
    }
    outlet
    {
        type            zeroGradient;
    }
    procBoundary0to1
    {
        type            processor;
        value           nonuniform List<scalar> 
97
(
0.06498436276
0.06498402045
0.06498638815
0.06499081263
0.06499720392
0.06500169367
0.06499720384
0.06499081249
0.06498638803
0.06498436267
0.06498402045
0.06498402045
0.06499087941
0.0649927578
0.06500203593
0.06502155525
0.06503965093
0.06502155494
0.06500203554
0.06499087914
0.06498638804
0.06498643516
0.0649927578
0.0649927578
0.06503447007
0.06505739882
0.06510544425
0.06519679208
0.0651054426
0.0650344687
0.06500203551
0.06499081248
0.06499000964
0.06500426184
0.06505739882
0.06505739882
0.06534526185
0.06573079764
0.06580789291
0.06534525571
0.06510544269
0.06502155483
0.0649972038
0.06499264693
0.06501605756
0.06512834078
0.06573079764
0.06573079764
0.06777601291
0.06573079736
0.06580789214
0.06523663384
0.06519679172
0.06503965066
0.06500169362
0.06499000959
0.06500426151
0.06505739719
0.06523663328
0.06573079736
0.06523663384
0.06523663384
0.06510544424
0.06501183467
0.06502155527
0.06499720393
0.06498643508
0.06499275748
0.06501183419
0.06505739728
0.06512834076
0.06505739702
0.06501183467
0.06501183467
0.06500203594
0.0649864851
0.06499081265
0.06498402037
0.064986485
0.0649927575
0.06500426155
0.06501605745
0.06500426151
0.06499275753
0.0649864851
0.0649864851
0.06498638814
0.06498292961
0.06498292957
0.06498402038
0.06498643509
0.06499000958
0.06499264688
0.06499000955
0.06498643507
0.06498402039
0.06498292961
)
;
    }
}


// ************************************************************************* //
