/*--------------------------------*- C++ -*----------------------------------*\
| =========                 |                                                 |
| \\      /  F ield         | OpenFOAM: The Open Source CFD Toolbox           |
|  \\    /   O peration     | Version:  4.x                                   |
|   \\  /    A nd           | Web:      www.OpenFOAM.org                      |
|    \\/     M anipulation  |                                                 |
\*---------------------------------------------------------------------------*/
FoamFile
{
    version     2.0;
    format      ascii;
    class       volScalarField;
    location    "5000";
    object      molarConc;
}
// * * * * * * * * * * * * * * * * * * * * * * * * * * * * * * * * * * * * * //

dimensions      [0 -3 0 0 1 0 0];

internalField   nonuniform List<scalar> 
1175
(
9.963278821
9.963279496
9.963279432
9.963279723
9.963279839
9.963278542
9.963278213
9.963277731
9.963278406
9.963277571
9.963278903
9.963278808
9.963279192
9.963278522
9.963276666
9.9632766
9.963275688
9.963275879
9.963275687
9.963275334
9.963275974
9.963276938
9.963278467
9.963278808
9.963278798
9.963277513
9.963277549
9.963276385
9.963276418
9.963274
9.963280651
9.963280673
9.963280344
9.963280745
9.963281709
9.963281213
9.963280301
9.963280234
9.963280696
9.963281175
9.963281944
9.963281969
9.963281497
9.96327888
9.96327619
9.96328672
9.963286052
9.963286149
9.963287192
9.963285155
9.963284327
9.963284206
9.963285292
9.963283928
9.963283087
9.963283263
9.96328185
9.963279547
9.963277457
9.96326934
9.963297189
9.963298092
9.963297706
9.963297457
9.963297369
9.963297188
9.963297948
9.963298789
9.963297826
9.963297254
9.963297061
9.963296775
9.963294585
9.963289118
9.963279188
9.963274303
9.963273417
9.963273603
9.963273262
9.963274267
9.963273604
9.963274802
9.963273833
9.963274721
9.963273417
9.963273513
9.963272477
9.963270781
9.96326748
9.963261034
9.963303918
9.963304157
9.963304109
9.963304677
9.96330468
9.963304257
9.963304776
9.963305648
9.963305131
9.963305972
9.963306129
9.963305874
9.963304625
9.963303222
9.96329981
9.963286666
9.963286399
9.963286924
9.963286581
9.963287636
9.963287271
9.963287044
9.96328712
9.963286331
9.963286169
9.963285982
9.963284951
9.963284157
9.96328267
9.963279856
9.963273068
9.96327315
9.963271966
9.963271657
9.963271306
9.963271807
9.96327182
9.963271875
9.963272112
9.963271834
9.963272483
9.963271224
9.963271281
9.963272627
9.963270837
9.963270426
9.963270831
9.963271058
9.963270779
9.963271992
9.963271493
9.963271846
9.963271737
9.963272727
9.963273547
9.96327307
9.963272336
9.963271266
9.963270275
9.963258475
9.963258234
9.963258885
9.963259814
9.963259015
9.963260472
9.963260476
9.963261104
9.963260503
9.963260792
9.963262021
9.963262331
9.963261414
9.963259791
9.963255242
9.963283079
9.963281989
9.963282665
9.963282625
9.963282755
9.963283172
9.963283701
9.963283297
9.963280665
9.963281185
9.963281882
9.96328025
9.963278136
9.963271545
9.963262775
9.963300624
9.96329953
9.963299826
9.963299637
9.963298915
9.963299861
9.963299221
9.963299692
9.963300121
9.963299502
9.963299145
9.96329865
9.963295421
9.963284911
9.963265765
9.96323711
9.963237517
9.963238095
9.963237938
9.96323822
9.96323779
9.963237665
9.963239136
9.963238286
9.963238213
9.963237161
9.963235342
9.963230705
9.963216116
9.963184158
9.963252945
9.963251841
9.963253597
9.963253477
9.963252926
9.963253896
9.963253999
9.963254349
9.963254458
9.963253785
9.963252055
9.963251017
9.963246394
9.963235802
9.963215879
9.963274379
9.963274456
9.963273693
9.963275415
9.963275001
9.963274538
9.963274161
9.963273585
9.963273669
9.963273066
9.963272836
9.963273534
9.963271216
9.963265996
9.963257472
9.963270232
9.963269493
9.963269082
9.963270311
9.96327131
9.963271105
9.963270861
9.963270742
9.963269779
9.963268416
9.963268513
9.963268931
9.963267165
9.963265158
9.963260379
9.963264487
9.963264945
9.963264907
9.963265223
9.963264879
9.963265321
9.963266492
9.963266419
9.963265073
9.96326459
9.963263595
9.963261761
9.963260922
9.963259893
9.963258006
9.96326137
9.963260958
9.96326045
9.963260851
9.963260086
9.963260691
9.963261965
9.963261989
9.963262174
9.963261122
9.963261433
9.96326013
9.963260434
9.963258049
9.963295047
9.96329388
9.96329406
9.963294607
9.963294282
9.963294771
9.963294991
9.963294928
9.963294629
9.96329367
9.963293557
9.963294252
9.963292614
9.963287619
9.9632574
9.963258471
9.963260116
9.963260398
9.9632623
9.963260627
9.96326095
9.963261398
9.96326115
9.963261842
9.963261001
9.963259169
9.96325481
9.963242532
9.96321545
9.963304511
9.963304879
9.963303002
9.963302954
9.963302054
9.963301221
9.963300811
9.963301177
9.963300127
9.963301287
9.963300137
9.963297345
9.963286397
9.963255997
9.963187167
9.963259921
9.963260044
9.963261141
9.96326078
9.963261226
9.963260256
9.963260798
9.963261134
9.963260477
9.963260312
9.963258852
9.963252261
9.963234762
9.963176922
9.963037893
9.963293263
9.963293556
9.963293765
9.963294389
9.963295058
9.963293412
9.963293196
9.963292458
9.963292924
9.963291418
9.963290515
9.963286376
9.963275578
9.963242637
9.963174358
9.96332652
9.963325921
9.963325913
9.963323568
9.963323423
9.963323762
9.963326692
9.963326416
9.963325913
9.963325319
9.963323369
9.963321055
9.963317152
9.963304062
9.963277826
9.96327131
9.963271982
9.963271693
9.963272356
9.963272764
9.963272288
9.963272679
9.963272594
9.963273526
9.963273801
9.963274373
9.963274566
9.963272287
9.963267416
9.963258249
9.963284913
9.963284867
9.963284611
9.963284776
9.963285607
9.963287417
9.963286664
9.963286774
9.963287429
9.963287363
9.963288509
9.963288107
9.963286832
9.963284077
9.963282019
9.963305954
9.963306588
9.963306421
9.963305713
9.963304909
9.963304916
9.963305157
9.963304937
9.963304353
9.963305667
9.963304928
9.963305485
9.963303897
9.963300494
9.963249943
9.963248834
9.963249201
9.963248794
9.963248973
9.963249619
9.96325059
9.963250806
9.963252822
9.963252557
9.963251471
9.963249073
9.963246337
9.963235372
9.963275408
9.963274625
9.963274889
9.963275357
9.963274582
9.963274837
9.963274915
9.963275251
9.963277444
9.96327636
9.963275497
9.96327246
9.963262955
9.963230247
9.963202506
9.963203346
9.963204452
9.963204453
9.963202891
9.963202355
9.96320286
9.963202591
9.963201828
9.963203277
9.963200056
9.963193622
9.963163758
9.963065391
9.962816899
9.96328182
9.963281814
9.963280299
9.963282005
9.963281699
9.963284168
9.963283979
9.963283392
9.963284295
9.963283553
9.96328071
9.96326838
9.963212923
9.962972406
9.962200029
9.963342657
9.963342735
9.963343003
9.963343876
9.963343691
9.963343666
9.96334313
9.963343313
9.963343933
9.963343207
9.963341069
9.963333662
9.963304035
9.963204314
9.96295591
9.963251604
9.963252026
9.96325198
9.963252902
9.963252696
9.963252716
9.963251912
9.96325099
9.963251523
9.963250587
9.963249464
9.963246159
9.963234222
9.963202374
9.9631343
9.963304174
9.963303677
9.963302798
9.963302159
9.96330252
9.963302971
9.963302457
9.963302024
9.963302794
9.963301683
9.963301895
9.963300824
9.96329894
9.963289425
9.963271558
9.963263901
9.963264761
9.963264983
9.963264673
9.963262893
9.963262802
9.963262857
9.96326344
9.963263483
9.963263069
9.963261512
9.963260586
9.963259525
9.963256207
9.963249713
9.963280566
9.963279988
9.963280162
9.963278541
9.963279979
9.963279698
9.963279825
9.963280695
9.963281507
9.963281322
9.963280273
9.963281161
9.96328029
9.963275247
9.963247589
9.963247909
9.963246597
9.963247816
9.963248761
9.963247996
9.963247758
9.963246228
9.963245402
9.96324445
9.963243414
9.963242277
9.963236607
9.963222378
9.963266865
9.96326608
9.96326582
9.963265422
9.963265593
9.963266136
9.963265785
9.96326723
9.963266615
9.963266321
9.963264722
9.963260624
9.963240808
9.96318412
9.96327049
9.963271448
9.963271958
9.963272128
9.963271975
9.96327396
9.963273277
9.963273382
9.96327294
9.963273224
9.963271253
9.963259475
9.963203204
9.962963618
9.963287629
9.963287738
9.963286251
9.963287225
9.96328562
9.963285595
9.963284802
9.963285532
9.963285022
9.963283955
9.963279311
9.963255765
9.963116034
9.962228356
10.01157403
9.963304667
9.963304061
9.963304433
9.963303833
9.963303844
9.963304561
9.963305515
9.96330555
9.963304798
9.963302918
9.963299771
9.963286869
9.963231855
9.962990966
9.962217388
9.963264912
9.963264604
9.963264501
9.963265709
9.963265922
9.963265344
9.963266934
9.963265649
9.96326482
9.963263763
9.963262664
9.963257413
9.963240632
9.963181928
9.963040442
9.963301228
9.963300285
9.963301513
9.963301826
9.963302628
9.963302902
9.963302636
9.963302169
9.963303143
9.963303475
9.963302447
9.963301447
9.963296389
9.963282205
9.96325165
9.963262128
9.963262191
9.963261817
9.963260545
9.963261289
9.963260449
9.963260273
9.963259623
9.963259657
9.963259574
9.963260057
9.963260093
9.963258409
9.963254103
9.963245917
9.963245861
9.963246167
9.963245159
9.963247245
9.96324784
9.963247606
9.963248242
9.963248003
9.963246912
9.963246908
9.963246961
9.963246171
9.963244755
9.963241961
9.963294543
9.963294651
9.96329431
9.963293969
9.963294969
9.963295073
9.963294861
9.963293422
9.963293494
9.963293296
9.963294779
9.963293511
9.963289608
9.96327986
9.963288107
9.963287545
9.963286682
9.963285734
9.963284811
9.963285359
9.963285907
9.963284739
9.963284222
9.963284042
9.96328335
9.963280439
9.963270628
9.96323972
9.963253398
9.963252384
9.96325307
9.963251203
9.963251196
9.963251322
9.963251919
9.963251834
9.96325181
9.963251727
9.963249811
9.96324242
9.963214977
9.963116293
9.963260306
9.963259266
9.963260196
9.963259934
9.963261381
9.963261652
9.963262588
9.963261664
9.963262946
9.963262855
9.96325937
9.963247634
9.963190909
9.962949574
9.963240983
9.963240283
9.963239119
9.963239652
9.963239667
9.963240474
9.963240276
9.963239783
9.963239919
9.963239297
9.963238009
9.963228882
9.963199211
9.963098867
9.963263656
9.963264617
9.963265288
9.963265774
9.963265314
9.963266292
9.963266983
9.963267109
9.963267416
9.963265593
9.963264513
9.963260137
9.963248689
9.963216899
9.963149818
9.963280455
9.963280883
9.963279833
9.963280993
9.96328054
9.963278939
9.963278736
9.963277993
9.963279014
9.963278666
9.963278663
9.963276877
9.963272786
9.9632625
9.963243687
9.963275526
9.963275347
9.963276069
9.963275586
9.963274987
9.963276775
9.963276926
9.963277924
9.963276554
9.963275597
9.963275254
9.963275389
9.963274162
9.963270296
9.963262998
9.963297592
9.963296808
9.963296562
9.963295907
9.963295822
9.963296028
9.963296238
9.96329609
9.963295837
9.963295436
9.963295611
9.963295282
9.963294597
9.963292865
9.963263958
9.963265149
9.963264756
9.96326255
9.963263301
9.963263723
9.963263897
9.96326587
9.963266183
9.963265997
9.963265173
9.963265589
9.963262662
9.963257725
9.963315791
9.963316821
9.963317421
9.96331716
9.963317227
9.96331865
9.963320191
9.963319209
9.963317339
9.96331847
9.963318512
9.963316143
9.963310845
9.963297882
9.963259928
9.963260256
9.963259876
9.963259988
9.963259119
9.963259869
9.963259006
9.963258048
9.963256203
9.963255927
9.963255591
9.963252736
9.963242023
9.963210622
9.963228197
9.963227669
9.963228614
9.963228979
9.963228933
9.96322927
9.963229737
9.963228079
9.963228927
9.963229739
9.963229053
9.963223342
9.963205218
9.963150308
9.963292811
9.963292234
9.963292548
9.963291589
9.963293348
9.963292755
9.963292539
9.963292244
9.963293698
9.963293124
9.963291846
9.963288647
9.963278479
9.963247354
9.96328614
9.963285842
9.963285644
9.963285824
9.963285494
9.963285733
9.963285925
9.963285964
9.963287403
9.96328874
9.963288163
9.963286472
9.963282261
9.963269068
9.963243076
9.963242158
9.963241428
9.963243265
9.96324367
9.963243867
9.963243834
9.963244005
9.963244145
9.963243788
9.963244274
9.96324396
9.963241183
9.963236389
9.963227432
9.963277181
9.963276713
9.963276195
9.963276231
9.963276678
9.963275415
9.96327547
9.963275082
9.963275908
9.963276457
9.963276496
9.963276157
9.963273169
9.963270257
9.963266523
9.963282549
9.963282963
9.96328238
9.963281462
9.963281299
9.963281444
9.963281186
9.963282328
9.963283273
9.963282825
9.963283339
9.963284434
9.963283535
9.963282601
9.963305577
9.96330566
9.96330577
9.963305291
9.963306216
9.963307383
9.96330664
9.963304554
9.963303442
9.963305176
9.963305422
9.963306611
9.963306419
9.963304286
9.963246292
9.963247184
9.963246845
9.963246827
9.963245571
9.963246014
9.963245479
9.963245398
9.963243623
9.963243534
9.963244509
9.963244984
9.963245087
9.963241094
9.96326971
9.963268707
9.963269244
9.963269527
9.963268975
9.963268614
9.963268934
9.963268414
9.963268717
9.963268148
9.963268631
9.963267451
9.963263111
9.963252953
9.963266448
9.963265951
9.963266504
9.96326728
9.963265782
9.963266886
9.963266952
9.963267036
9.963266692
9.963267939
9.963267368
9.96326627
9.963261474
9.963246161
9.963238398
9.96323712
9.963236975
9.963236814
9.963237264
9.963237458
9.963237728
9.963237733
9.963237704
9.96323867
9.963237717
9.963235734
9.963232078
9.963220857
9.963309005
9.963309841
9.963309924
9.963310997
9.963311692
9.963311005
9.963311164
9.963311183
9.963311928
9.963311171
9.963310901
9.963310691
9.963309609
9.963305206
9.963310273
9.963310048
9.963309832
9.963310085
9.963309397
9.963308161
9.963309043
9.96330959
9.96331013
9.963310916
9.963310136
9.963308631
9.963308729
9.963305301
9.963282564
9.963281907
9.963283191
9.963283687
9.963283358
9.963283464
9.963284166
9.963283073
9.963282989
9.96328389
9.963284177
9.963283204
9.963282333
9.963281148
9.963279917
9.963305442
9.963304871
9.963305646
9.963305196
9.96330465
9.963304095
9.963304162
9.96330359
9.963303007
9.963302897
9.963303133
9.96330451
9.963303253
9.963302469
9.963265372
9.963264812
9.96326538
9.963265484
9.963265359
9.96326529
9.963265245
9.963265064
9.963265206
9.963264138
9.963262257
9.963261857
9.963260324
9.963258744
9.963257579
9.963257783
9.963257957
9.963258599
9.96325959
9.963258883
9.963258553
9.963259319
9.963259726
9.963259829
9.963259075
9.963258374
9.963257839
9.963256548
9.963263369
9.963263546
9.963263647
9.96326308
9.963264124
9.963264619
9.963265788
9.963266225
9.963267187
9.963266838
9.963267134
9.963266253
9.963264503
9.963261207
9.963287985
9.963288039
9.963286045
9.963286893
9.963286077
9.963285902
9.963286634
9.963286558
9.963287399
9.963287068
9.963288148
9.963286933
9.963284051
9.963279232
9.963289204
9.96329014
9.963289753
9.963289411
9.963289477
9.963290573
9.96329105
9.963291132
9.963290981
9.963291251
9.963290635
9.963290544
9.963288455
9.963285238
9.963317673
9.963317731
9.96331836
9.963317758
9.963318554
9.963318054
9.96331872
9.963318913
9.963318453
9.963317679
9.963317568
9.963317888
9.963317475
9.963314082
9.96326637
9.963266887
9.963267605
9.963266808
9.963266969
9.963267678
9.963265296
9.96326544
9.963266401
9.963267542
9.963267302
9.963266311
9.963263278
9.963261562
9.963272311
9.963272189
9.963271225
9.963271241
9.963270844
9.963271491
9.963270932
9.963271375
9.963271256
9.963270274
9.963269461
9.963269072
9.96326872
9.963269724
)
;

boundaryField
{
    top
    {
        type            calculated;
        value           nonuniform List<scalar> 
134
(
9.963273068
9.963264487
9.963284913
9.963263901
9.963262128
9.963275526
9.963277181
9.963282564
9.963272311
9.96327315
9.963264945
9.963284867
9.963264761
9.963262191
9.963275347
9.963276713
9.963281907
9.963272189
9.963271966
9.963264907
9.963284611
9.963264983
9.963261817
9.963276069
9.963276195
9.963283191
9.963271225
9.963271657
9.963265223
9.963284776
9.963264673
9.963260545
9.963275586
9.963276231
9.963283687
9.963271241
9.963271306
9.963264879
9.963285607
9.963262893
9.963261289
9.963274987
9.963276678
9.963283358
9.963270844
9.963271807
9.963265321
9.963287417
9.963262802
9.963260449
9.963276775
9.963275415
9.963283464
9.963271491
9.96327182
9.963266492
9.963286664
9.963262857
9.963260273
9.963276926
9.96327547
9.963284166
9.963270932
9.963271875
9.963266419
9.963286774
9.96326344
9.963259623
9.963277924
9.963275082
9.963283073
9.963271375
9.963272112
9.963265073
9.963287429
9.963263483
9.963259657
9.963276554
9.963275908
9.963282989
9.963271256
9.963271834
9.96326459
9.963287363
9.963263069
9.963259574
9.963275597
9.963276457
9.96328389
9.963270274
9.963272483
9.963263595
9.963288509
9.963261512
9.963260057
9.963275254
9.963276496
9.963284177
9.963269461
9.963271224
9.963261761
9.963288107
9.963260586
9.963260093
9.963275389
9.963276157
9.963283204
9.963269072
9.963271281
9.963260922
9.963286832
9.963259525
9.963258409
9.963274162
9.963273169
9.963282333
9.96326872
9.963272627
9.963259893
9.963284077
9.963256207
9.963254103
9.963270296
9.963270257
9.963281148
9.963269724
9.963270837
9.963258006
9.963282019
9.963249713
9.963245917
9.963262998
9.963266523
9.963279917
)
;
    }
    bottom
    {
        type            calculated;
        value           nonuniform List<scalar> 
127
(
9.963278821
9.963270426
9.96326137
9.963305954
9.963280566
9.963245861
9.963297592
9.963282549
9.963305442
9.963279496
9.963270831
9.963260958
9.963306588
9.963279988
9.963246167
9.963296808
9.963282963
9.963304871
9.963279432
9.963271058
9.96326045
9.963306421
9.963280162
9.963245159
9.963296562
9.96328238
9.963305646
9.963279723
9.963270779
9.963260851
9.963305713
9.963278541
9.963247245
9.963295907
9.963281462
9.963305196
9.963279839
9.963271992
9.963260086
9.963304909
9.963279979
9.96324784
9.963295822
9.963281299
9.96330465
9.963278542
9.963271493
9.963260691
9.963304916
9.963279698
9.963247606
9.963296028
9.963281444
9.963304095
9.963278213
9.963271846
9.963261965
9.963305157
9.963279825
9.963248242
9.963296238
9.963281186
9.963304162
9.963277731
9.963271737
9.963261989
9.963304937
9.963280695
9.963248003
9.96329609
9.963282328
9.96330359
9.963278406
9.963272727
9.963262174
9.963304353
9.963281507
9.963246912
9.963295837
9.963283273
9.963303007
9.963277571
9.963273547
9.963261122
9.963305667
9.963281322
9.963246908
9.963295436
9.963282825
9.963302897
9.963278903
9.96327307
9.963261433
9.963304928
9.963280273
9.963246961
9.963295611
9.963283339
9.963303133
9.963278808
9.963272336
9.96326013
9.963305485
9.963281161
9.963246171
9.963295282
9.963284434
9.96330451
9.963279192
9.963271266
9.963260434
9.963303897
9.96328029
9.963244755
9.963294597
9.963283535
9.963303253
9.963278522
9.963270275
9.963258049
9.963300494
9.963275247
9.963241961
9.963292865
9.963282601
9.963302469
9.963276666
)
;
    }
    side-walls
    {
        type            calculated;
        value           nonuniform List<scalar> 
261
(
9.963278821
9.9632766
9.963280651
9.96328672
9.963297189
9.963274303
9.963303918
9.963286666
9.963273068
9.963279496
9.963275688
9.963280673
9.963286052
9.963298092
9.963273417
9.963304157
9.963286399
9.96327315
9.963279432
9.963275879
9.963280344
9.963286149
9.963297706
9.963273603
9.963304109
9.963286924
9.963271966
9.963279723
9.963275687
9.963280745
9.963287192
9.963297457
9.963273262
9.963304677
9.963286581
9.963271657
9.963279839
9.963275334
9.963281709
9.963285155
9.963297369
9.963274267
9.96330468
9.963287636
9.963271306
9.963278542
9.963275974
9.963281213
9.963284327
9.963297188
9.963273604
9.963304257
9.963287271
9.963271807
9.963278213
9.963276938
9.963280301
9.963284206
9.963297948
9.963274802
9.963304776
9.963287044
9.96327182
9.963277731
9.963278467
9.963280234
9.963285292
9.963298789
9.963273833
9.963305648
9.96328712
9.963271875
9.963278406
9.963278808
9.963280696
9.963283928
9.963297826
9.963274721
9.963305131
9.963286331
9.963272112
9.963277571
9.963278798
9.963281175
9.963283087
9.963297254
9.963273417
9.963305972
9.963286169
9.963271834
9.963278903
9.963277513
9.963281944
9.963283263
9.963297061
9.963273513
9.963306129
9.963285982
9.963272483
9.963278808
9.963277549
9.963281969
9.96328185
9.963296775
9.963272477
9.963305874
9.963284951
9.963271224
9.963279192
9.963276385
9.963281497
9.963279547
9.963294585
9.963270781
9.963304625
9.963284157
9.963271281
9.963278522
9.963276418
9.96327888
9.963277457
9.963289118
9.96326748
9.963303222
9.96328267
9.963272627
9.963276666
9.963274
9.96327619
9.96326934
9.963279188
9.963261034
9.96329981
9.963279856
9.963270837
9.963305442
9.963265372
9.963257579
9.963263369
9.963287985
9.963289204
9.963317673
9.96326637
9.963272311
9.963304871
9.963264812
9.963257783
9.963263546
9.963288039
9.96329014
9.963317731
9.963266887
9.963272189
9.963305646
9.96326538
9.963257957
9.963263647
9.963286045
9.963289753
9.96331836
9.963267605
9.963271225
9.963305196
9.963265484
9.963258599
9.96326308
9.963286893
9.963289411
9.963317758
9.963266808
9.963271241
9.96330465
9.963265359
9.96325959
9.963264124
9.963286077
9.963289477
9.963318554
9.963266969
9.963270844
9.963304095
9.96326529
9.963258883
9.963264619
9.963285902
9.963290573
9.963318054
9.963267678
9.963271491
9.963304162
9.963265245
9.963258553
9.963265788
9.963286634
9.96329105
9.96331872
9.963265296
9.963270932
9.96330359
9.963265064
9.963259319
9.963266225
9.963286558
9.963291132
9.963318913
9.96326544
9.963271375
9.963303007
9.963265206
9.963259726
9.963267187
9.963287399
9.963290981
9.963318453
9.963266401
9.963271256
9.963302897
9.963264138
9.963259829
9.963266838
9.963287068
9.963291251
9.963317679
9.963267542
9.963270274
9.963303133
9.963262257
9.963259075
9.963267134
9.963288148
9.963290635
9.963317568
9.963267302
9.963269461
9.96330451
9.963261857
9.963258374
9.963266253
9.963286933
9.963290544
9.963317888
9.963266311
9.963269072
9.963303253
9.963260324
9.963257839
9.963264503
9.963284051
9.963288455
9.963317475
9.963263278
9.96326872
9.963302469
9.963258744
9.963256548
9.963261207
9.963279232
9.963285238
9.963314082
9.963261562
9.963269724
)
;
    }
    inlet
    {
        type            calculated;
        value           nonuniform List<scalar> 
81
(
9.963278821
9.9632766
9.963280651
9.96328672
9.963297189
9.963274303
9.963303918
9.963286666
9.963273068
9.963270426
9.963258475
9.963283079
9.963300624
9.96323711
9.963252945
9.963274379
9.963270232
9.963264487
9.96326137
9.963295047
9.9632574
9.963304511
9.963259921
9.963293263
9.96332652
9.96327131
9.963284913
9.963305954
9.963249943
9.963275408
9.963202506
9.96328182
9.963342657
9.963251604
9.963304174
9.963263901
9.963280566
9.963247589
9.963266865
9.96327049
9.963287629
9.963304667
9.963264912
9.963301228
9.963262128
9.963245861
9.963294543
9.963288107
9.963253398
9.963260306
9.963240983
9.963263656
9.963280455
9.963275526
9.963297592
9.963263958
9.963315791
9.963259928
9.963228197
9.963292811
9.96328614
9.963243076
9.963277181
9.963282549
9.963305577
9.963246292
9.96326971
9.963266448
9.963238398
9.963309005
9.963310273
9.963282564
9.963305442
9.963265372
9.963257579
9.963263369
9.963287985
9.963289204
9.963317673
9.96326637
9.963272311
)
;
    }
    outlet
    {
        type            calculated;
        value           nonuniform 0();
    }
    procBoundary0to1
    {
        type            processor;
        value           nonuniform List<scalar> 
97
(
9.963274264
9.963270389
9.963270435
9.963268196
9.963258293
9.963264231
9.963248668
9.963292918
9.963276343
9.963268193
9.963270389
9.963270389
9.963248766
9.963278173
9.963248749
9.963239055
9.963149127
9.963191158
9.963242107
9.963254032
9.963254678
9.96325596
9.963278173
9.963278173
9.963180879
9.96316268
9.963113404
9.962935119
9.963103415
9.963243981
9.963243782
9.963274747
9.963291896
9.963215387
9.96316268
9.96316268
9.96265333
9.962192581
9.962085288
9.962789987
9.963061097
9.963245002
9.963240857
9.963267024
9.963191565
9.963042949
9.962192581
9.962192581
10.01453521
9.962178094
9.962101082
9.962852542
9.962938495
9.963214848
9.963231347
9.963234675
9.963260881
9.963171753
9.962868999
9.962178094
9.962852542
9.962852542
9.963075737
9.963241796
9.963219152
9.963253212
9.963288288
9.963248542
9.96327236
9.963143514
9.96300897
9.96318098
9.963241796
9.963241796
9.963213135
9.96330078
9.963260647
9.963280207
9.963301536
9.963231914
9.963232897
9.963216726
9.963202617
9.963296134
9.96330078
9.96330078
9.963276375
9.963266977
9.963301631
9.963256928
9.963251823
9.963253709
9.96327013
9.963278435
9.963310786
9.963260463
9.963266977
)
;
    }
}


// ************************************************************************* //
