/*--------------------------------*- C++ -*----------------------------------*\
| =========                 |                                                 |
| \\      /  F ield         | OpenFOAM: The Open Source CFD Toolbox           |
|  \\    /   O peration     | Version:  4.x                                   |
|   \\  /    A nd           | Web:      www.OpenFOAM.org                      |
|    \\/     M anipulation  |                                                 |
\*---------------------------------------------------------------------------*/
FoamFile
{
    version     2.0;
    format      ascii;
    class       volScalarField;
    location    "5000";
    object      N2;
}
// * * * * * * * * * * * * * * * * * * * * * * * * * * * * * * * * * * * * * //

dimensions      [0 0 0 0 0 0 0];

internalField   nonuniform List<scalar> 
1175
(
0.6203632252
0.6203632252
0.6203632252
0.6203632252
0.6203632252
0.6203632251
0.6203632249
0.6203632244
0.6203632226
0.6203632174
0.6203632029
0.6203631649
0.6203630736
0.620362875
0.6203624894
0.6203632252
0.6203632252
0.6203632252
0.6203632252
0.6203632252
0.6203632251
0.6203632249
0.6203632241
0.6203632216
0.6203632138
0.6203631913
0.6203631302
0.6203629782
0.6203626405
0.6203619849
0.6203632252
0.6203632252
0.6203632252
0.6203632252
0.6203632252
0.6203632251
0.6203632247
0.6203632236
0.6203632196
0.620363207
0.6203631686
0.6203630592
0.620362776
0.6203621281
0.620360868
0.6203632252
0.6203632252
0.6203632252
0.6203632252
0.6203632251
0.620363225
0.6203632246
0.620363223
0.6203632175
0.6203631991
0.6203631406
0.620362967
0.6203624978
0.620361388
0.6203592146
0.6203632252
0.6203632252
0.6203632252
0.6203632252
0.6203632251
0.620363225
0.6203632245
0.6203632227
0.6203632164
0.620363195
0.6203631252
0.6203629121
0.6203623176
0.620360868
0.6203579947
0.6203632252
0.6203632252
0.6203632252
0.6203632252
0.6203632251
0.620363225
0.6203632246
0.620363223
0.6203632175
0.6203631991
0.6203631406
0.620362967
0.6203624978
0.620361388
0.6203592147
0.6203632252
0.6203632252
0.6203632252
0.6203632252
0.6203632252
0.6203632251
0.6203632247
0.6203632236
0.6203632196
0.620363207
0.6203631686
0.6203630592
0.620362776
0.6203621281
0.6203608681
0.6203632252
0.6203632252
0.6203632252
0.6203632252
0.6203632252
0.6203632251
0.6203632249
0.6203632241
0.6203632216
0.6203632138
0.6203631913
0.6203631302
0.6203629783
0.6203626405
0.620361985
0.6203632252
0.6203632252
0.6203632252
0.6203632252
0.6203632252
0.6203632251
0.6203632249
0.6203632244
0.6203632226
0.6203632174
0.6203632029
0.6203631649
0.6203630737
0.620362875
0.6203624895
0.6203632252
0.6203632252
0.6203632252
0.6203632252
0.6203632252
0.6203632251
0.6203632249
0.6203632241
0.6203632216
0.6203632138
0.6203631913
0.6203631302
0.6203629782
0.6203626404
0.6203632252
0.6203632252
0.6203632252
0.6203632252
0.6203632252
0.6203632251
0.6203632247
0.6203632236
0.6203632198
0.6203632074
0.6203631694
0.6203630604
0.6203627756
0.6203621203
0.6203608447
0.6203632252
0.6203632252
0.6203632252
0.6203632252
0.6203632251
0.620363225
0.6203632245
0.6203632227
0.6203632164
0.6203631945
0.6203631229
0.6203629039
0.6203622959
0.6203608284
0.6203579433
0.6203632252
0.6203632252
0.6203632252
0.6203632252
0.6203632251
0.620363225
0.6203632243
0.6203632217
0.6203632123
0.6203631781
0.6203630593
0.6203626719
0.620361521
0.620358568
0.6203526217
0.6203632252
0.6203632252
0.6203632252
0.6203632252
0.6203632251
0.6203632249
0.6203632242
0.6203632213
0.6203632101
0.6203631686
0.620363019
0.6203625072
0.6203608938
0.6203564724
0.6203471651
0.6203632252
0.6203632252
0.6203632252
0.6203632252
0.6203632251
0.620363225
0.6203632243
0.6203632217
0.6203632123
0.6203631781
0.6203630593
0.6203626719
0.620361521
0.6203585681
0.6203526219
0.6203632252
0.6203632252
0.6203632252
0.6203632252
0.6203632251
0.620363225
0.6203632245
0.6203632227
0.6203632164
0.6203631945
0.6203631229
0.6203629039
0.6203622959
0.6203608285
0.6203579435
0.6203632252
0.6203632252
0.6203632252
0.6203632252
0.6203632252
0.6203632251
0.6203632247
0.6203632236
0.6203632198
0.6203632074
0.6203631694
0.6203630604
0.6203627757
0.6203621204
0.620360845
0.6203632252
0.6203632252
0.6203632252
0.6203632252
0.6203632252
0.6203632251
0.6203632249
0.6203632241
0.6203632216
0.6203632138
0.6203631913
0.6203631302
0.6203629783
0.6203626405
0.620361985
0.6203632252
0.6203632252
0.6203632252
0.6203632252
0.6203632252
0.6203632251
0.6203632247
0.6203632236
0.6203632196
0.620363207
0.6203631686
0.6203630592
0.6203627759
0.620362128
0.6203632252
0.6203632252
0.6203632252
0.6203632252
0.6203632251
0.620363225
0.6203632245
0.6203632227
0.6203632164
0.6203631945
0.6203631229
0.6203629039
0.6203622959
0.6203608282
0.6203632252
0.6203632252
0.6203632252
0.6203632252
0.6203632251
0.6203632249
0.6203632241
0.6203632211
0.6203632097
0.6203631674
0.6203630174
0.6203625179
0.620361006
0.6203570722
0.6203491176
0.6203632252
0.6203632252
0.6203632252
0.6203632252
0.6203632251
0.6203632248
0.6203632237
0.6203632192
0.6203632011
0.6203631295
0.6203628549
0.6203618545
0.6203585065
0.620348854
0.6203280402
0.6203632252
0.6203632252
0.6203632252
0.6203632252
0.6203632251
0.6203632248
0.6203632235
0.6203632182
0.6203631961
0.6203631049
0.6203627344
0.6203612781
0.6203558918
0.6203382783
0.6202952218
0.6203632252
0.6203632252
0.6203632252
0.6203632252
0.6203632251
0.6203632248
0.6203632237
0.6203632192
0.6203632011
0.6203631295
0.6203628549
0.6203618545
0.6203585067
0.6203488545
0.6203280415
0.6203632252
0.6203632252
0.6203632252
0.6203632252
0.6203632251
0.6203632249
0.6203632241
0.6203632211
0.6203632097
0.6203631674
0.6203630174
0.6203625179
0.6203610062
0.6203570727
0.6203491189
0.6203632252
0.6203632252
0.6203632252
0.6203632252
0.6203632251
0.620363225
0.6203632245
0.6203632227
0.6203632164
0.6203631945
0.6203631229
0.6203629039
0.6203622959
0.6203608285
0.6203579435
0.6203632252
0.6203632252
0.6203632252
0.6203632252
0.6203632252
0.6203632251
0.6203632247
0.6203632236
0.6203632196
0.620363207
0.6203631686
0.6203630592
0.620362776
0.6203621281
0.6203608681
0.6203632252
0.6203632252
0.6203632252
0.6203632252
0.6203632251
0.620363225
0.6203632246
0.620363223
0.6203632175
0.6203631991
0.6203631406
0.620362967
0.6203624977
0.6203613878
0.6203632252
0.6203632252
0.6203632252
0.6203632252
0.6203632251
0.620363225
0.6203632243
0.6203632217
0.6203632123
0.6203631781
0.6203630593
0.6203626719
0.6203615209
0.6203585675
0.6203632252
0.6203632252
0.6203632252
0.6203632252
0.6203632251
0.6203632248
0.6203632237
0.6203632192
0.6203632011
0.6203631295
0.6203628549
0.6203618544
0.6203585063
0.6203488529
0.6203632252
0.6203632252
0.6203632252
0.6203632252
0.6203632251
0.6203632247
0.6203632231
0.620363216
0.6203631856
0.6203630547
0.6203624986
0.6203602078
0.6203513347
0.62032109
0.6202451152
0.6203632252
0.6203632252
0.6203632252
0.6203632252
0.6203632251
0.6203632246
0.6203632227
0.6203632142
0.6203631757
0.6203629993
0.6203621841
0.6203584077
0.6203411902
0.6202675634
0.6200165092
0.6203632252
0.6203632252
0.6203632252
0.6203632252
0.6203632251
0.6203632247
0.6203632231
0.620363216
0.6203631856
0.6203630547
0.6203624986
0.6203602079
0.6203513352
0.6203210923
0.6202451239
0.6203632252
0.6203632252
0.6203632252
0.6203632252
0.6203632251
0.6203632248
0.6203632237
0.6203632192
0.6203632011
0.6203631295
0.6203628549
0.6203618545
0.6203585066
0.6203488544
0.6203280414
0.6203632252
0.6203632252
0.6203632252
0.6203632252
0.6203632251
0.620363225
0.6203632243
0.6203632217
0.6203632123
0.6203631781
0.6203630593
0.6203626719
0.620361521
0.620358568
0.6203526219
0.6203632252
0.6203632252
0.6203632252
0.6203632252
0.6203632251
0.620363225
0.6203632246
0.620363223
0.6203632175
0.6203631991
0.6203631406
0.620362967
0.6203624978
0.620361388
0.6203592146
0.6203632252
0.6203632252
0.6203632252
0.6203632252
0.6203632251
0.620363225
0.6203632245
0.6203632227
0.6203632164
0.620363195
0.6203631252
0.620362912
0.6203623175
0.6203608677
0.6203632252
0.6203632252
0.6203632252
0.6203632252
0.6203632251
0.6203632249
0.6203632242
0.6203632213
0.6203632101
0.6203631686
0.620363019
0.6203625071
0.6203608936
0.6203564716
0.6203632252
0.6203632252
0.6203632252
0.6203632252
0.6203632251
0.6203632248
0.6203632235
0.6203632182
0.6203631961
0.6203631049
0.6203627344
0.620361278
0.6203558912
0.6203382755
0.6203632252
0.6203632252
0.6203632252
0.6203632252
0.6203632251
0.6203632246
0.6203632227
0.6203632142
0.6203631757
0.6203629993
0.620362184
0.6203584075
0.6203411889
0.6202675543
0.6203632252
0.6203632252
0.6203632252
0.6203632252
0.620363225
0.6203632245
0.6203632223
0.6203632118
0.6203631615
0.6203629114
0.6203616089
0.620354418
0.6203118948
0.6200406736
0.6181646942
0.6203632252
0.6203632252
0.6203632252
0.6203632252
0.6203632251
0.6203632246
0.6203632227
0.6203632142
0.6203631757
0.6203629993
0.620362184
0.6203584076
0.6203411899
0.6202675621
0.620016508
0.6203632252
0.6203632252
0.6203632252
0.6203632252
0.6203632251
0.6203632248
0.6203632235
0.6203632182
0.6203631961
0.6203631049
0.6203627344
0.6203612781
0.6203558916
0.6203382779
0.6202952215
0.6203632252
0.6203632252
0.6203632252
0.6203632252
0.6203632251
0.6203632249
0.6203632242
0.6203632213
0.6203632101
0.6203631686
0.620363019
0.6203625071
0.6203608938
0.6203564723
0.6203471651
0.6203632252
0.6203632252
0.6203632252
0.6203632252
0.6203632251
0.620363225
0.6203632245
0.6203632227
0.6203632164
0.620363195
0.6203631252
0.6203629121
0.6203623176
0.620360868
0.6203579947
0.6203632252
0.6203632252
0.6203632252
0.6203632252
0.6203632251
0.620363225
0.6203632246
0.620363223
0.6203632175
0.6203631991
0.6203631406
0.620362967
0.6203624977
0.6203613878
0.6203632252
0.6203632252
0.6203632252
0.6203632252
0.6203632251
0.620363225
0.6203632243
0.6203632217
0.6203632123
0.6203631781
0.6203630593
0.6203626719
0.6203615208
0.6203585675
0.6203632252
0.6203632252
0.6203632252
0.6203632252
0.6203632251
0.6203632248
0.6203632237
0.6203632192
0.6203632011
0.6203631295
0.6203628549
0.6203618544
0.6203585062
0.6203488527
0.6203632252
0.6203632252
0.6203632252
0.6203632252
0.6203632251
0.6203632247
0.6203632231
0.620363216
0.6203631856
0.6203630547
0.6203624986
0.6203602077
0.6203513341
0.6203210874
0.6203632252
0.6203632252
0.6203632252
0.6203632252
0.6203632251
0.6203632246
0.6203632227
0.6203632142
0.6203631757
0.6203629993
0.620362184
0.6203584074
0.6203411885
0.6202675532
0.6203632252
0.6203632252
0.6203632252
0.6203632252
0.6203632251
0.6203632247
0.6203632231
0.620363216
0.6203631856
0.6203630547
0.6203624986
0.6203602077
0.6203513343
0.6203210882
0.6203632252
0.6203632252
0.6203632252
0.6203632252
0.6203632251
0.6203632248
0.6203632237
0.6203632192
0.6203632011
0.6203631295
0.6203628549
0.6203618544
0.6203585063
0.6203488534
0.6203280386
0.6203632252
0.6203632252
0.6203632252
0.6203632252
0.6203632251
0.620363225
0.6203632243
0.6203632217
0.6203632123
0.6203631781
0.6203630593
0.6203626719
0.6203615209
0.6203585678
0.6203526215
0.6203632252
0.6203632252
0.6203632252
0.6203632252
0.6203632251
0.620363225
0.6203632246
0.620363223
0.6203632175
0.6203631991
0.6203631406
0.620362967
0.6203624978
0.6203613879
0.6203592145
0.6203632252
0.6203632252
0.6203632252
0.6203632252
0.6203632252
0.6203632251
0.6203632247
0.6203632236
0.6203632196
0.620363207
0.6203631686
0.6203630592
0.6203627759
0.620362128
0.6203632252
0.6203632252
0.6203632252
0.6203632252
0.6203632251
0.620363225
0.6203632245
0.6203632227
0.6203632164
0.6203631945
0.6203631229
0.6203629039
0.6203622958
0.6203608282
0.6203632252
0.6203632252
0.6203632252
0.6203632252
0.6203632251
0.6203632249
0.6203632241
0.6203632211
0.6203632097
0.6203631674
0.6203630174
0.6203625178
0.6203610059
0.6203570719
0.6203632252
0.6203632252
0.6203632252
0.6203632252
0.6203632251
0.6203632248
0.6203632237
0.6203632192
0.6203632011
0.6203631295
0.6203628548
0.6203618543
0.6203585061
0.6203488526
0.6203632252
0.6203632252
0.6203632252
0.6203632252
0.6203632251
0.6203632248
0.6203632235
0.6203632182
0.6203631961
0.6203631049
0.6203627344
0.6203612779
0.620355891
0.6203382753
0.6203632252
0.6203632252
0.6203632252
0.6203632252
0.6203632251
0.6203632248
0.6203632237
0.6203632192
0.6203632011
0.6203631295
0.6203628549
0.6203618544
0.6203585062
0.6203488528
0.6203632252
0.6203632252
0.6203632252
0.6203632252
0.6203632251
0.6203632249
0.6203632241
0.6203632211
0.6203632097
0.6203631674
0.6203630174
0.6203625179
0.6203610059
0.6203570719
0.6203632252
0.6203632252
0.6203632252
0.6203632252
0.6203632251
0.620363225
0.6203632245
0.6203632227
0.6203632164
0.6203631945
0.6203631229
0.6203629039
0.6203622959
0.6203608282
0.620357943
0.6203632252
0.6203632252
0.6203632252
0.6203632252
0.6203632252
0.6203632251
0.6203632247
0.6203632236
0.6203632196
0.620363207
0.6203631686
0.6203630592
0.620362776
0.6203621281
0.6203608679
0.6203632252
0.6203632252
0.6203632252
0.6203632252
0.6203632252
0.6203632251
0.6203632249
0.6203632241
0.6203632216
0.6203632138
0.6203631913
0.6203631302
0.6203629782
0.6203626404
0.6203632252
0.6203632252
0.6203632252
0.6203632252
0.6203632252
0.6203632251
0.6203632247
0.6203632236
0.6203632198
0.6203632074
0.6203631694
0.6203630604
0.6203627756
0.6203621203
0.6203632252
0.6203632252
0.6203632252
0.6203632252
0.6203632251
0.620363225
0.6203632245
0.6203632227
0.6203632164
0.6203631945
0.6203631229
0.6203629039
0.6203622958
0.6203608281
0.6203632252
0.6203632252
0.6203632252
0.6203632252
0.6203632251
0.620363225
0.6203632243
0.6203632217
0.6203632123
0.6203631781
0.6203630593
0.6203626719
0.6203615208
0.6203585675
0.6203632252
0.6203632252
0.6203632252
0.6203632252
0.6203632251
0.6203632249
0.6203632242
0.6203632213
0.6203632101
0.6203631686
0.620363019
0.6203625071
0.6203608936
0.6203564716
0.6203632252
0.6203632252
0.6203632252
0.6203632252
0.6203632251
0.620363225
0.6203632243
0.6203632217
0.6203632123
0.6203631781
0.6203630593
0.6203626719
0.6203615208
0.6203585675
0.6203632252
0.6203632252
0.6203632252
0.6203632252
0.6203632251
0.620363225
0.6203632245
0.6203632227
0.6203632164
0.6203631945
0.6203631229
0.6203629039
0.6203622958
0.6203608282
0.6203632252
0.6203632252
0.6203632252
0.6203632252
0.6203632252
0.6203632251
0.6203632247
0.6203632236
0.6203632198
0.6203632074
0.6203631694
0.6203630604
0.6203627756
0.6203621203
0.6203632252
0.6203632252
0.6203632252
0.6203632252
0.6203632252
0.6203632251
0.6203632249
0.6203632241
0.6203632216
0.6203632138
0.6203631913
0.6203631302
0.6203629782
0.6203626404
0.6203619849
0.6203632252
0.6203632252
0.6203632252
0.6203632252
0.6203632252
0.6203632251
0.6203632249
0.6203632244
0.6203632226
0.6203632174
0.6203632029
0.6203631649
0.6203630736
0.620362875
0.6203632252
0.6203632252
0.6203632252
0.6203632252
0.6203632252
0.6203632251
0.6203632249
0.6203632241
0.6203632216
0.6203632138
0.6203631913
0.6203631302
0.6203629782
0.6203626404
0.6203632252
0.6203632252
0.6203632252
0.6203632252
0.6203632252
0.6203632251
0.6203632247
0.6203632236
0.6203632196
0.620363207
0.6203631686
0.6203630592
0.6203627759
0.620362128
0.6203632252
0.6203632252
0.6203632252
0.6203632252
0.6203632251
0.620363225
0.6203632246
0.620363223
0.6203632175
0.6203631991
0.6203631406
0.620362967
0.6203624977
0.6203613877
0.6203632252
0.6203632252
0.6203632252
0.6203632252
0.6203632251
0.620363225
0.6203632245
0.6203632227
0.6203632164
0.620363195
0.6203631252
0.620362912
0.6203623175
0.6203608677
0.6203632252
0.6203632252
0.6203632252
0.6203632252
0.6203632251
0.620363225
0.6203632246
0.620363223
0.6203632175
0.6203631991
0.6203631406
0.620362967
0.6203624977
0.6203613878
0.6203632252
0.6203632252
0.6203632252
0.6203632252
0.6203632252
0.6203632251
0.6203632247
0.6203632236
0.6203632196
0.620363207
0.6203631686
0.6203630592
0.6203627759
0.620362128
0.6203632252
0.6203632252
0.6203632252
0.6203632252
0.6203632252
0.6203632251
0.6203632249
0.6203632241
0.6203632216
0.6203632138
0.6203631913
0.6203631302
0.6203629782
0.6203626404
0.6203632252
0.6203632252
0.6203632252
0.6203632252
0.6203632252
0.6203632251
0.6203632249
0.6203632244
0.6203632226
0.6203632174
0.6203632029
0.6203631649
0.6203630736
0.620362875
)
;

boundaryField
{
    top
    {
        type            zeroGradient;
    }
    bottom
    {
        type            zeroGradient;
    }
    side-walls
    {
        type            zeroGradient;
    }
    inlet
    {
        type            zeroGradient;
    }
    outlet
    {
        type            zeroGradient;
    }
    procBoundary0to1
    {
        type            processor;
        value           nonuniform List<scalar> 
97
(
0.6203618267
0.6203619849
0.6203608898
0.6203588433
0.6203558869
0.62035381
0.6203558869
0.6203588434
0.6203608899
0.6203618267
0.6203619849
0.6203619849
0.6203588123
0.620357943
0.6203536515
0.6203446219
0.6203362507
0.6203446222
0.6203536518
0.6203588125
0.6203608899
0.6203608679
0.620357943
0.620357943
0.6203386473
0.620328038
0.6203058134
0.6202635533
0.6203058146
0.6203386482
0.6203536518
0.6203588433
0.6203592145
0.6203526212
0.620328038
0.620328038
0.6201948648
0.6200164841
0.6199808302
0.6201948692
0.6203058145
0.6203446222
0.6203558869
0.6203579945
0.6203471643
0.6202952178
0.6200164841
0.6200164841
0.6190702507
0.6200164848
0.6199808304
0.6202451163
0.6202635533
0.6203362508
0.62035381
0.6203592145
0.6203526214
0.6203280396
0.6202451172
0.6200164848
0.6202451163
0.6202451163
0.6203058134
0.6203491177
0.6203446218
0.6203558868
0.620360868
0.6203579433
0.6203491182
0.6203280395
0.6202952178
0.6203280397
0.6203491177
0.6203491177
0.6203536515
0.6203608447
0.6203588432
0.6203619849
0.6203608449
0.6203579433
0.6203526214
0.6203471643
0.6203526215
0.6203579432
0.6203608447
0.6203608447
0.6203608898
0.6203624894
0.6203624895
0.6203619849
0.620360868
0.6203592145
0.6203579945
0.6203592145
0.620360868
0.6203619849
0.6203624894
)
;
    }
}


// ************************************************************************* //
