/*--------------------------------*- C++ -*----------------------------------*\
| =========                 |                                                 |
| \\      /  F ield         | OpenFOAM: The Open Source CFD Toolbox           |
|  \\    /   O peration     | Version:  4.x                                   |
|   \\  /    A nd           | Web:      www.OpenFOAM.org                      |
|    \\/     M anipulation  |                                                 |
\*---------------------------------------------------------------------------*/
FoamFile
{
    version     2.0;
    format      ascii;
    class       surfaceScalarField;
    location    "5000";
    object      phi;
}
// * * * * * * * * * * * * * * * * * * * * * * * * * * * * * * * * * * * * * //

dimensions      [1 0 -1 0 0 0 0];

internalField   nonuniform List<scalar> 
3175
(
9.165414698e-06
6.200285507e-13
-8.152144349e-13
9.165413636e-06
2.281561124e-13
-2.403864675e-13
9.165415598e-06
9.145574521e-13
-9.938693585e-13
9.165417007e-06
-6.338502518e-13
1.338560328e-13
9.165416733e-06
-2.242313836e-12
-4.753688508e-13
9.165416848e-06
-1.745307198e-12
-5.064966703e-13
9.165422344e-06
-8.532787435e-13
-1.650010708e-12
9.165424766e-06
-1.485462343e-12
-3.04027174e-12
9.16543156e-06
-2.623305334e-12
-3.64197951e-12
9.165441e-06
-3.892895446e-12
-5.674102955e-12
9.165461387e-06
-8.056206435e-12
-9.317098264e-12
9.165487782e-06
-1.176594158e-11
-1.283062052e-11
9.165534564e-06
-2.325577693e-11
-2.308855402e-11
9.165580576e-06
-2.276852149e-11
-2.358465301e-11
-5.037647471e-11
9.165411686e-06
7.540344066e-14
-4.450078775e-13
9.165411256e-06
-3.548191721e-13
-1.187519745e-12
9.165412983e-06
7.571854017e-13
-7.706370497e-13
9.165412017e-06
1.120970752e-12
-1.63232396e-12
9.165414052e-06
6.20846153e-13
-2.309772873e-13
9.165414143e-06
-3.969889785e-13
-2.014592504e-13
9.165419862e-06
-1.551164684e-12
-1.098360253e-12
9.165420573e-06
-5.036216724e-12
-2.874263509e-12
9.165429345e-06
-5.880604713e-12
-3.276140875e-12
9.165437047e-06
-1.015840897e-11
-7.358254259e-12
9.165453681e-06
-1.76767305e-11
-1.015404582e-11
9.165478199e-06
-2.291238887e-11
-1.54684034e-11
9.165526177e-06
-4.071021142e-11
-2.813699274e-11
9.165573277e-06
-4.418993894e-11
-2.856300285e-11
-1.012938452e-10
-7.900868825e-11
9.165414643e-06
-1.175568251e-12
-6.315983383e-13
9.165415569e-06
-8.599797704e-13
-1.967586873e-13
9.165415609e-06
-1.433968065e-12
-1.920609472e-12
9.165416926e-06
-3.004064158e-12
-1.712006341e-12
9.165417079e-06
-5.802290042e-13
-1.436051489e-12
9.165416192e-06
-8.714998273e-13
-2.269976706e-12
9.165419206e-06
-3.019404212e-12
-4.506126645e-13
9.165422659e-06
-4.434792785e-12
-1.93324439e-12
9.165427614e-06
-5.312654835e-12
-3.821737086e-12
9.165431107e-06
-8.561810786e-12
-8.012098978e-12
9.16544489e-06
-1.211780926e-11
-1.003952112e-11
9.16546498e-06
-2.114471991e-11
-2.365686953e-11
9.165504786e-06
-3.972331901e-11
-4.262544397e-11
9.165553167e-06
-4.401594463e-11
-4.909779521e-11
-1.193433341e-10
-1.632437507e-10
9.165421055e-06
8.272654565e-13
5.588413993e-13
9.165421059e-06
4.126543695e-13
6.667778302e-13
9.165420718e-06
-6.302950194e-13
-3.518261881e-13
9.165426269e-06
-2.218563678e-13
-9.302421922e-13
9.16542154e-06
-2.320355389e-12
-8.973117673e-13
9.165418566e-06
-2.074695613e-12
-1.718180401e-12
9.165420996e-06
-1.29991196e-12
-1.366236872e-12
9.165422254e-06
-9.551934049e-13
-2.083974598e-12
9.165425182e-06
-2.534129945e-12
-5.401148661e-12
9.165428588e-06
-6.00979369e-12
-8.636241056e-12
9.165436221e-06
-8.126330849e-12
-1.150719615e-11
9.165457407e-06
-1.662909609e-11
-2.688596952e-11
9.165492764e-06
-3.362827587e-11
-4.579858681e-11
9.165550751e-06
-4.182751842e-11
-5.700459865e-11
-1.055426297e-10
-2.4571347e-10
9.165431553e-06
-1.854780722e-12
-1.671434039e-12
9.165430614e-06
-2.651530621e-12
-1.85667708e-12
9.165430927e-06
-2.539913062e-12
6.955297948e-13
9.165432954e-06
-5.870989151e-13
3.345257128e-13
9.165432141e-06
-1.460955576e-12
-5.076635035e-13
9.165432433e-06
-9.025765773e-13
-2.417818699e-12
9.165431995e-06
5.047959748e-14
-2.766715041e-12
9.165432473e-06
1.054597294e-12
-3.150075838e-12
9.165431641e-06
1.257820666e-12
-5.158776984e-12
9.165433903e-06
4.50526797e-12
-9.730529033e-12
9.16542791e-06
9.445623219e-12
-1.90095221e-11
9.165438874e-06
1.696449052e-11
-4.207399606e-11
9.165452908e-06
3.341155469e-11
-8.312652459e-11
9.165501566e-06
4.266067565e-11
-1.365542443e-10
1.056870397e-10
-5.831177708e-10
9.165408861e-06
-1.461476926e-12
1.253000652e-13
9.165407746e-06
-1.604816736e-12
-6.838992487e-13
9.165410696e-06
1.080354115e-13
2.596018808e-12
9.165410692e-06
-1.235431979e-13
6.753313384e-13
9.165411324e-06
3.769316245e-13
-4.521745903e-14
9.165411352e-06
-5.635738093e-13
-2.139016178e-12
9.165412122e-06
1.926158334e-12
2.472588917e-13
9.16541274e-06
2.687302652e-12
-1.979332058e-12
9.165415629e-06
5.83662008e-12
-3.755223766e-12
9.165422662e-06
5.932516873e-12
-8.415209218e-12
9.16542854e-06
1.158951922e-11
-1.322850812e-11
9.1654481e-06
1.880422749e-11
-2.712792703e-11
9.165484308e-06
3.939617501e-11
-4.609191452e-11
9.165540701e-06
4.350839389e-11
-5.852362317e-11
1.181190497e-10
-2.453928947e-10
9.165437954e-06
1.073248114e-14
-2.229863937e-13
9.165438035e-06
1.852792913e-12
-7.731234818e-13
9.165437484e-06
-1.764200996e-13
4.24209506e-13
9.165438781e-06
-9.735105695e-13
-2.013650736e-14
9.165437276e-06
-1.350675552e-12
-1.922028215e-13
9.1654411e-06
-1.551491615e-12
-1.873732106e-12
9.165441504e-06
-8.986582241e-13
-2.642092172e-12
9.165445914e-06
3.78263114e-12
-3.888348222e-12
9.165446151e-06
4.60136751e-12
-5.613213502e-12
9.165457535e-06
1.061328486e-11
-6.876236286e-12
9.165465195e-06
1.537833854e-11
-1.326735017e-11
9.165487002e-06
2.435681384e-11
-2.181094581e-11
9.165527839e-06
4.051642572e-11
-4.269228202e-11
9.165575484e-06
4.272120388e-11
-4.824030188e-11
1.004107928e-10
-1.615124542e-10
9.165423596e-06
1.007524711e-13
8.768392105e-13
9.165420341e-06
-1.609691354e-12
1.372638416e-12
9.165423123e-06
5.063352943e-13
2.179646912e-12
9.165422556e-06
-1.00077463e-13
-4.988169034e-13
9.165421743e-06
8.441968389e-13
2.168980243e-13
9.165424991e-06
1.818923714e-12
-2.586243869e-13
9.165429529e-06
1.694430885e-12
-1.289763136e-13
9.165429754e-06
1.163822568e-12
-4.331626225e-12
9.165436743e-06
3.524322011e-12
-5.17554303e-12
9.165446899e-06
7.11541034e-12
-5.320362956e-12
9.165460852e-06
8.32926148e-12
-1.0838852e-11
9.165485664e-06
1.267895906e-11
-1.618515245e-11
9.165532002e-06
2.18926151e-11
-2.928943627e-11
9.165578382e-06
2.303780741e-11
-2.910054563e-11
5.138502107e-11
-7.876149947e-11
9.16540953e-06
1.007497853e-12
9.165408931e-06
1.318892761e-12
9.165408514e-06
-2.257407536e-13
9.16540974e-06
6.730683304e-13
9.165409488e-06
9.747777954e-14
9.16541158e-06
-7.100791297e-13
9.165415532e-06
-9.514273066e-13
9.165420073e-06
-2.870783917e-12
9.165427007e-06
-4.876435602e-12
9.165435354e-06
-4.838373273e-12
9.165455806e-06
-9.334640389e-12
9.165481363e-06
-1.269919537e-11
9.165530122e-06
-2.385718655e-11
9.165576176e-06
-2.331168821e-11
-5.008041233e-11
9.165409144e-06
1.123653828e-12
1.980758933e-13
9.165406165e-06
-2.767220948e-13
-8.912393945e-13
9.165408755e-06
6.907091632e-13
9.893640688e-13
9.165410114e-06
-6.762771606e-13
1.092654236e-12
9.165410791e-06
-6.601907229e-13
1.989332422e-12
9.165409074e-06
-1.00782726e-12
4.006773065e-13
9.165414063e-06
-6.786704151e-13
-1.378692827e-12
9.165418307e-06
-2.027944562e-12
-2.592847413e-12
9.165423924e-06
-4.069865634e-12
-5.754348692e-12
9.165431888e-06
-7.177855636e-12
-1.107315008e-11
9.165448244e-06
-9.672030546e-12
-1.587790932e-11
9.165473532e-06
-1.519684002e-11
-2.289513681e-11
9.165519858e-06
-2.801852441e-11
-4.085322869e-11
-2.814502581e-11
-4.20721124e-11
9.165394976e-06
-1.178070207e-13
-1.588161288e-12
9.165394803e-06
3.545400176e-13
-1.060321669e-12
9.165395171e-06
-2.354306322e-13
4.741510443e-13
9.165398752e-06
4.378254622e-13
1.402048542e-12
9.165399322e-06
-7.325790019e-13
-8.179909038e-13
9.165397249e-06
-2.835997639e-12
-1.254388263e-12
9.165401296e-06
-1.833773803e-12
-1.813297467e-12
9.165404009e-06
-3.313389191e-12
-3.449297e-12
9.165407789e-06
-5.725451589e-12
-5.043748697e-12
9.165418061e-06
-9.279173043e-12
-1.000480262e-11
9.165430663e-06
-1.640066748e-11
-1.743644677e-11
9.165455702e-06
-2.772265747e-11
-2.76992632e-11
9.165498608e-06
-5.081160053e-11
-5.061946542e-11
9.165551494e-06
-5.642408767e-11
-5.508336737e-11
-1.616826198e-10
9.165418594e-06
5.891297624e-14
-1.001841094e-12
9.165416537e-06
-2.668617652e-13
-7.934126645e-15
9.165418019e-06
-7.190648173e-13
1.352659709e-12
9.165418719e-06
-1.846799466e-12
1.491743863e-12
9.165417735e-06
7.010596377e-14
7.684418939e-13
9.165418629e-06
-4.604832088e-13
-3.417284647e-13
9.165419101e-06
-3.666645764e-12
-2.127658336e-12
9.165420411e-06
-5.302868038e-12
-5.217969791e-12
9.165421315e-06
-6.783915547e-12
-8.206997548e-12
9.165425217e-06
-1.084270814e-11
-1.411657398e-11
9.165429382e-06
-1.618177551e-11
-2.247816465e-11
9.165450786e-06
-2.699723116e-11
-4.085039355e-11
9.165479784e-06
-5.053542439e-11
-7.591848713e-11
9.165538058e-06
-6.017319377e-11
-9.986539787e-11
-2.209426421e-10
-3.602256854e-10
9.165433514e-06
-1.68139093e-12
-1.275606022e-12
9.165432314e-06
-1.079333982e-12
-1.037270283e-12
9.165433058e-06
1.369253873e-12
9.471872306e-14
9.16543691e-06
3.875781846e-13
2.015834206e-13
9.165432444e-06
-2.334746019e-12
-2.558095463e-13
9.165431289e-06
-1.884451618e-12
-1.834293131e-12
9.165433283e-06
-1.933101769e-12
-1.905035384e-12
9.165433273e-06
-9.958285027e-13
-4.663784101e-12
9.165435496e-06
-2.404772287e-12
-7.375500693e-12
9.165437518e-06
-6.006846205e-12
-1.592502366e-11
9.16544109e-06
-1.199558654e-11
-1.919110572e-11
9.165463463e-06
-2.420351297e-11
-4.877774238e-11
9.165485312e-06
-5.095465585e-11
-7.146781557e-11
9.165570689e-06
-7.208976615e-11
-1.353040034e-10
-2.108464793e-10
-5.780878894e-10
9.165376249e-06
-5.691515843e-13
2.791449224e-13
9.165377287e-06
-9.454183652e-13
-1.988153962e-13
9.165375736e-06
-9.066276245e-13
-9.778269331e-13
9.16537685e-06
-1.601240411e-13
-6.205910568e-13
9.165376352e-06
-7.297100725e-13
-3.236993699e-13
9.165374071e-06
-1.721828907e-12
-2.13377483e-12
9.165376258e-06
1.936591741e-12
-1.659215619e-12
9.165373546e-06
1.125102368e-12
-6.882400601e-12
9.165372097e-06
1.29252166e-12
-9.858813623e-12
9.165367015e-06
4.619270008e-12
-2.125613855e-11
9.165352557e-06
1.125668427e-11
-2.936571586e-11
9.165347781e-06
2.226661388e-11
-8.308162092e-11
9.165316236e-06
4.793388971e-11
-1.439771031e-10
9.165400054e-06
7.023825567e-11
-3.597282773e-10
2.100604304e-10
-1.635662116e-09
9.165388503e-06
-1.343044756e-12
-1.822484718e-13
9.165391029e-06
-1.894815684e-12
5.718249169e-13
9.165389514e-06
-1.792664594e-12
-5.419431899e-13
9.165389924e-06
-1.807026863e-13
-1.303116099e-12
9.165389588e-06
2.28250989e-13
8.354456666e-13
9.165392866e-06
3.882584297e-13
5.056347764e-13
9.165390774e-06
-7.904442816e-13
-3.502966111e-12
9.165390132e-06
9.374324262e-13
-6.509137096e-12
9.165392288e-06
4.109477849e-12
-8.03319688e-12
9.165395673e-06
7.164147301e-12
-1.445152475e-11
9.165396486e-06
1.247301653e-11
-2.079796218e-11
9.165419154e-06
2.579547204e-11
-4.830726164e-11
9.165443152e-06
5.181886476e-11
-6.949196677e-11
9.165528736e-06
6.163907559e-11
-1.352320098e-10
2.210049661e-10
-5.783857521e-10
9.165409943e-06
8.319203194e-13
6.822719134e-13
9.165410519e-06
2.916487793e-12
1.701277802e-12
9.165410072e-06
6.584099305e-13
-6.152341679e-13
9.165411817e-06
-8.542129997e-13
-3.412111659e-13
9.165408823e-06
-7.420463184e-14
2.430341666e-13
9.165410725e-06
-1.612813665e-13
-6.130420252e-13
9.165411154e-06
1.221414563e-12
-1.764585315e-12
9.165413867e-06
2.084589584e-12
-3.976655251e-12
9.165414691e-06
5.108101852e-12
-7.645691692e-12
9.165418177e-06
1.032631556e-11
-1.295740147e-11
9.165424169e-06
1.678205963e-11
-2.24914053e-11
9.165444454e-06
2.703232268e-11
-3.990846653e-11
9.165475517e-06
4.839941016e-11
-7.501484566e-11
9.165533312e-06
5.344074875e-11
-1.000214335e-10
1.601125961e-10
-3.607884341e-10
9.165406966e-06
3.41882026e-13
5.325187367e-13
9.165404201e-06
-9.610230449e-13
-3.160105734e-13
9.165406629e-06
-4.789503157e-13
6.248949613e-13
9.165408662e-06
-9.268954948e-14
5.442587237e-13
9.165406413e-06
-1.613475868e-13
-5.241175488e-13
9.165409909e-06
8.608062336e-13
-5.008611688e-13
9.165410538e-06
7.834650889e-13
-1.524816339e-12
9.165412781e-06
1.740139699e-12
-2.037518674e-12
9.165418329e-06
4.238693726e-12
-5.66641932e-12
9.165425408e-06
7.539553084e-12
-9.787961453e-12
9.165438083e-06
1.008439876e-11
-1.73006516e-11
9.16546372e-06
1.560218034e-11
-2.728508867e-11
9.16550612e-06
2.804471183e-11
-5.055028648e-11
9.16555786e-06
2.928958828e-11
-5.441899698e-11
8.052360055e-11
-1.607432062e-10
9.16540237e-06
-3.567986106e-13
9.165401371e-06
-6.296008338e-14
9.165401845e-06
-7.914847349e-13
9.165402772e-06
3.742826564e-13
9.165403928e-06
-2.715155655e-13
9.165404685e-06
-1.673715933e-12
9.165407341e-06
-1.42942311e-12
9.165412117e-06
-2.811245937e-12
9.165417526e-06
-6.015600776e-12
9.165425217e-06
-9.133652726e-12
9.165440695e-06
-1.521062907e-11
9.165465809e-06
-2.290751589e-11
9.165511903e-06
-4.175280779e-11
9.165558726e-06
-4.530926988e-11
-1.020057972e-10
9.165398473e-06
-4.802783778e-13
1.608236138e-12
9.165398439e-06
-5.000661445e-13
1.630907929e-13
9.165398454e-06
-8.973471894e-13
-1.27550196e-12
9.165399692e-06
-1.308848111e-12
-3.013433543e-13
9.165398817e-06
-2.60925035e-12
-1.833511898e-12
9.165397835e-06
-8.892127661e-13
-2.180305534e-12
9.16540251e-06
-1.831518126e-12
4.064731411e-13
9.165405288e-06
-3.347658369e-12
-2.426396878e-12
9.165407298e-06
-2.80645183e-12
-5.080303631e-12
9.165415529e-06
-6.393491275e-12
-7.920091001e-12
9.165424887e-06
-1.181907502e-11
-1.282857796e-11
9.165445448e-06
-2.101748809e-11
-2.051737592e-11
9.165486211e-06
-4.30651314e-11
-3.94017549e-11
-4.912067913e-11
-4.260915796e-11
9.165428622e-06
-2.390344035e-14
1.204619118e-12
9.165428876e-06
4.929436969e-13
7.895051322e-13
9.165429177e-06
-2.065524088e-13
-2.04192618e-13
9.165429014e-06
3.015591934e-13
8.554080148e-14
9.165430652e-06
-6.426680931e-13
-8.118735287e-13
9.165427447e-06
-1.662850438e-12
-2.112005983e-12
9.165432089e-06
-1.448834969e-12
-1.295337047e-12
9.165432649e-06
-4.837930483e-12
-2.864542708e-12
9.165432169e-06
-8.944955429e-12
-6.061768253e-12
9.165436006e-06
-1.455374319e-11
-9.920016176e-12
9.165442684e-06
-2.194836829e-11
-1.479001736e-11
9.165461981e-06
-4.122664602e-11
-2.618370702e-11
9.165494046e-06
-7.614265968e-11
-5.065892945e-11
-1.01184085e-10
-6.059497414e-11
9.165395793e-06
4.464301558e-13
1.773854727e-12
9.165396662e-06
-1.673496684e-12
1.121511339e-12
9.165397086e-06
-2.10074758e-12
1.409777879e-13
9.16539661e-06
-2.249221079e-12
-3.991574603e-13
9.165397199e-06
-6.398470385e-13
-7.725049378e-13
9.165396027e-06
-2.623192049e-12
-1.226611284e-12
9.165397358e-06
-1.950068145e-12
-2.849542387e-12
9.165395453e-06
-3.438464767e-12
-3.575381071e-12
9.165394954e-06
-6.253712935e-12
-6.570879566e-12
9.165392987e-06
-1.33948668e-11
-1.235171586e-11
9.165386598e-06
-1.722397453e-11
-1.811626798e-11
9.165391827e-06
-4.222179853e-11
-4.208497621e-11
9.165393991e-06
-7.791963039e-11
-7.664345562e-11
9.165461122e-06
-1.335608599e-10
-1.324090696e-10
-5.924818523e-10
9.165437153e-06
-1.207835163e-13
1.366340035e-13
9.165438002e-06
2.731572253e-13
1.459885935e-12
9.165436328e-06
-4.412399255e-13
1.951786723e-12
9.165436952e-06
-3.745670713e-13
1.213966886e-12
9.16543377e-06
-2.096433212e-12
-1.474861466e-12
9.165433061e-06
-1.341598782e-12
-2.547707637e-12
9.165431217e-06
-2.520505256e-12
-2.609930451e-12
9.165428028e-06
-3.356860485e-12
-5.144152658e-12
9.165426451e-06
-4.028191861e-12
-6.615331684e-12
9.165423081e-06
-8.064606727e-12
-1.429126674e-11
9.165413285e-06
-1.836020556e-11
-1.618312209e-11
9.165418878e-06
-4.128746144e-11
-5.583342203e-11
9.165411923e-06
-8.897282222e-11
-5.009308391e-11
9.165533242e-06
-1.717910204e-10
-2.191729795e-10
-6.084950308e-10
-1.127419632e-09
9.165395797e-06
-1.302794166e-12
-3.989563339e-13
9.165396633e-06
-3.006377714e-13
-3.569436841e-13
9.16539768e-06
2.399552773e-13
2.187878164e-13
9.165397631e-06
-5.837999255e-13
-1.151730236e-12
9.165397134e-06
5.930832701e-13
-1.021437891e-12
9.165394015e-06
5.913170791e-13
-2.032593361e-12
9.165392454e-06
3.869077241e-13
-1.796179545e-12
9.165386713e-06
5.188093573e-13
-4.509614799e-12
9.165377948e-06
2.193943157e-12
-7.77549901e-12
9.165360233e-06
8.61942192e-12
-2.163828532e-11
9.165319289e-06
1.596248312e-11
-2.514502349e-11
9.165258738e-06
4.075794264e-11
-1.090038632e-10
9.165087579e-06
8.88624857e-11
-1.500756091e-10
9.165126596e-06
1.699608869e-10
-7.397869248e-10
6.079638417e-10
-4.281411957e-09
9.165427282e-06
-6.011444485e-13
1.903515106e-13
9.165428143e-06
2.477931815e-13
-1.350069123e-13
9.165428095e-06
-5.824938697e-13
1.088298842e-13
9.165430008e-06
9.865554938e-13
-4.090322022e-13
9.165426029e-06
5.353320483e-13
-1.20266455e-12
9.165425776e-06
-8.619834109e-13
-1.131099502e-12
9.165423507e-06
1.465845039e-12
-1.615622656e-12
9.165420989e-06
3.674609179e-12
-4.042703597e-12
9.165418902e-06
5.461063858e-12
-5.27033401e-12
9.165412661e-06
1.011021386e-11
-1.604779035e-11
9.165406722e-06
1.651204732e-11
-1.50829523e-11
9.165409856e-06
4.240577711e-11
-5.658657096e-11
9.165400453e-06
7.831375557e-11
-5.165676461e-11
9.165522381e-06
1.344679135e-10
-2.199815905e-10
5.931338241e-10
-1.127382048e-09
9.165457965e-06
6.921278168e-13
2.339231476e-13
9.165456449e-06
4.613920513e-13
-4.227446413e-13
9.165457614e-06
1.694041337e-12
3.563331572e-13
9.165456193e-06
1.166601924e-13
-4.255837638e-13
9.165453925e-06
-1.877357936e-12
-1.693447613e-12
9.165454629e-06
-5.955141858e-13
-1.009615713e-12
9.165455745e-06
2.119449573e-12
-9.61713856e-13
9.165456524e-06
4.203339573e-12
-3.730187032e-12
9.165454342e-06
6.63446005e-12
-5.421999693e-12
9.165450438e-06
1.333068722e-11
-1.321997172e-11
9.165445424e-06
2.122022513e-11
-1.83925897e-11
9.165448821e-06
3.918257317e-11
-4.391223092e-11
9.165451248e-06
7.336735606e-11
-7.869979583e-11
9.165515644e-06
9.919806384e-11
-1.350939111e-10
3.601302261e-10
-5.93376094e-10
9.165407551e-06
-1.63015403e-13
-7.532217261e-13
9.165406288e-06
-7.358618479e-13
-8.872256857e-13
9.165408877e-06
-4.511021555e-13
-1.307032632e-12
9.165408177e-06
-8.274158953e-13
-8.729006885e-13
9.165408426e-06
-6.472914622e-14
-7.001376888e-13
9.165409955e-06
1.699914346e-13
-5.522342528e-13
9.165411215e-06
2.675795749e-13
-1.379576942e-12
9.16541132e-06
1.805073169e-12
-2.560096092e-12
9.165414522e-06
3.983053418e-12
-4.708233356e-12
9.165418646e-06
7.694656382e-12
-9.218307139e-12
9.165425424e-06
1.277779355e-11
-1.545426793e-11
9.165444601e-06
2.25318611e-11
-2.657335701e-11
9.165477105e-06
4.177903861e-11
-5.08231612e-11
9.165532778e-06
4.662446499e-11
-6.415893585e-11
1.616657071e-10
-2.221684811e-10
9.165420888e-06
-1.007413256e-12
9.165418079e-06
-8.492634083e-13
9.165420497e-06
-1.126242402e-12
9.165419962e-06
-1.27774724e-12
9.165419992e-06
-4.140750438e-13
9.165424545e-06
-3.961822248e-13
9.165425453e-06
3.540537736e-13
9.165426963e-06
-9.638615648e-13
9.165432466e-06
-3.185369695e-12
9.165438601e-06
-7.257461053e-12
9.165449635e-06
-1.478999993e-11
9.16547007e-06
-2.13675941e-11
9.16551275e-06
-3.996796879e-11
9.165559773e-06
-4.469707784e-11
-1.200872688e-10
9.165438181e-06
-9.470911986e-14
-2.708376141e-13
9.165438551e-06
-8.966315301e-14
5.391481898e-13
9.165440793e-06
8.184958629e-14
-2.98763787e-13
9.165438432e-06
-1.386227686e-13
-1.123723573e-12
9.16543801e-06
-1.210461698e-12
-9.101260275e-13
9.165438476e-06
-2.209765174e-12
-1.025120741e-12
9.165438773e-06
-3.082382876e-12
5.857331609e-13
9.165439564e-06
-3.614803607e-12
-1.320709693e-12
9.165441931e-06
-3.786813427e-12
-3.161661584e-12
9.165452014e-06
-7.780235962e-12
-4.243432144e-12
9.165458953e-06
-1.262194674e-11
-9.906396851e-12
9.165480148e-06
-2.451955547e-11
-1.634785028e-11
9.165516165e-06
-4.392274449e-11
-3.264156889e-11
-5.830149103e-11
-4.200539803e-11
9.165387342e-06
-2.864764579e-13
4.449180243e-13
9.165385622e-06
9.027981918e-13
-1.518696949e-12
9.165388204e-06
1.210375629e-12
-1.875555278e-13
9.165387346e-06
-1.518161526e-13
-6.619790903e-13
9.165387971e-06
-4.399690252e-13
-1.73404422e-12
9.165387191e-06
-8.565107407e-13
-2.665837388e-12
9.16538775e-06
-2.720312406e-12
-2.302953582e-12
9.165388843e-06
-5.267643603e-12
-2.956917828e-12
9.165389297e-06
-8.732478333e-12
-4.667262698e-12
9.16539277e-06
-1.533986457e-11
-6.617590825e-12
9.16539653e-06
-2.087884133e-11
-1.1520826e-11
9.165415082e-06
-5.031572111e-11
-2.365856991e-11
9.165439452e-06
-7.10206288e-11
-4.861780583e-11
-1.35691408e-10
-6.951717377e-11
9.165411969e-06
-1.260389766e-12
1.104658238e-12
9.165408367e-06
-1.046869337e-12
-6.808979913e-13
9.165409634e-06
-4.100098565e-13
-6.601602848e-13
9.165408861e-06
-1.599064297e-12
-1.480290833e-12
9.165410018e-06
-1.557465262e-12
-1.099361641e-12
9.165408254e-06
-2.77730283e-12
-6.229325037e-13
9.16540927e-06
-1.841427017e-12
3.742226622e-14
9.165406523e-06
-5.792954237e-12
-1.882978224e-12
9.165406043e-06
-6.116608329e-12
-2.238486113e-12
9.165400127e-06
-1.422859864e-11
-8.324164988e-12
9.16539388e-06
-1.463892598e-11
-1.571005793e-11
9.165398885e-06
-5.540756943e-11
-4.249892316e-11
9.165387524e-06
-5.217630566e-11
-8.902188049e-11
-2.206147635e-10
-1.710871594e-10
9.165345526e-06
-8.236650623e-13
7.182373849e-13
9.165345426e-06
-1.549502996e-12
1.588658838e-13
9.165344069e-06
-2.898661511e-12
-5.787159946e-13
9.165344741e-06
-2.753757305e-12
9.001520956e-13
9.16534231e-06
-1.58907324e-12
-6.813352073e-14
9.165341443e-06
-1.712380603e-12
1.491006642e-12
9.165338961e-06
-1.75423463e-12
2.230489988e-13
9.165336553e-06
-2.36873965e-12
-2.42648632e-12
9.165335017e-06
-4.901874422e-12
-4.428513511e-12
9.165327291e-06
-1.314931119e-11
-1.208726831e-11
9.1653362e-06
-2.032663335e-11
-2.015152549e-11
9.165352159e-06
-6.420382148e-11
-6.320926503e-11
9.165455492e-06
-1.047196242e-10
-1.047748656e-10
9.165714201e-06
-3.48891781e-10
-3.493591761e-10
-1.167096089e-09
9.1654175e-06
-6.96840695e-13
4.001221103e-13
9.165415679e-06
-1.078412977e-12
9.782584348e-13
9.165415136e-06
4.968419148e-13
1.730163416e-12
9.165416747e-06
6.22461842e-13
6.074355776e-13
9.1654158e-06
6.043817455e-13
6.041961949e-13
9.165415392e-06
1.139655827e-12
9.586752101e-13
9.165410392e-06
1.241810077e-12
2.300433725e-13
9.165402825e-06
1.760201253e-12
-2.797393958e-12
9.165393676e-06
3.778213598e-12
-5.436636431e-12
9.165367332e-06
1.115569281e-11
-1.755974704e-11
9.165333231e-06
1.795331926e-11
-3.11806073e-11
9.165225334e-06
6.224757834e-11
-1.19585346e-10
9.165121096e-06
1.028343596e-10
-2.55589132e-10
9.165005312e-06
3.468842509e-10
-1.321005691e-09
1.164567576e-09
-7.91349318e-09
9.165473858e-06
-5.506908077e-13
1.203751778e-12
9.165474797e-06
5.338081889e-13
1.057765094e-12
9.165471917e-06
-2.206938657e-13
1.010889273e-12
9.165473824e-06
8.026543267e-13
7.059142325e-13
9.165472352e-06
-3.108184877e-13
3.506925379e-13
9.165470314e-06
-6.018771067e-14
-5.414699694e-13
9.165467841e-06
1.051213291e-12
-6.012669995e-13
9.165465302e-06
3.6784009e-12
-2.661471797e-12
9.16546206e-06
5.755386687e-12
-5.639970001e-12
9.165457278e-06
1.324962463e-11
-1.271352886e-11
9.165465298e-06
1.367250729e-11
-1.954161454e-11
9.165480351e-06
5.307462298e-11
-6.256359139e-11
9.165583768e-06
5.133504201e-11
-1.0630727e-10
9.165842027e-06
2.185816919e-10
-3.500050174e-10
1.126612904e-09
-1.168075456e-09
9.165390754e-06
1.61660454e-13
4.624172931e-13
9.16538987e-06
-7.15786258e-14
-3.772689784e-13
9.165389386e-06
-5.286949412e-13
-3.788164045e-13
9.165388415e-06
-2.687987943e-13
-5.941706541e-13
9.16538926e-06
-4.979953831e-13
4.894646084e-13
9.165387876e-06
4.778437681e-14
1.668726937e-13
9.165384649e-06
1.626338292e-12
8.858227725e-13
9.165383616e-06
4.776220037e-12
-1.157146523e-12
9.165378422e-06
6.281034376e-12
-4.276825644e-12
9.165376069e-06
1.621511522e-11
-9.140109522e-12
9.1653684e-06
1.965112407e-11
-1.71750486e-11
9.16537452e-06
4.910494809e-11
-4.059494622e-11
9.165362954e-06
6.919920481e-11
-9.037797608e-11
9.165486803e-06
1.336851544e-10
-1.719861168e-10
5.7703808e-10
-6.099143909e-10
9.165437805e-06
-7.093861476e-13
-1.100482968e-13
9.165436726e-06
-9.016457711e-13
-3.758415897e-13
9.165437188e-06
7.928095285e-14
1.117027537e-12
9.165435893e-06
-1.012759982e-12
4.402796946e-13
9.165435626e-06
2.246267804e-13
6.381697452e-13
9.165437124e-06
-2.877007064e-14
1.278447059e-12
9.165436042e-06
1.191024106e-12
4.319707015e-13
9.16543498e-06
2.663169121e-12
-8.688868661e-13
9.165438276e-06
5.635830782e-12
-3.332163683e-12
9.165439295e-06
9.696868246e-12
-5.721303329e-12
9.165444553e-06
1.266863662e-11
-1.188162065e-11
9.165465893e-06
2.659469308e-11
-2.428637388e-11
9.165488545e-06
4.471095373e-11
-4.951538342e-11
9.165578149e-06
5.756423724e-11
-7.179838158e-11
2.456926471e-10
-2.11621971e-10
9.165401614e-06
1.704300475e-12
9.165400369e-06
2.546771262e-13
9.165401888e-06
2.17975421e-13
9.165401453e-06
-4.812362456e-13
9.165398755e-06
1.567220931e-13
9.165402114e-06
9.477030477e-13
9.16540143e-06
-5.114035538e-13
9.165403722e-06
-1.495108512e-12
9.165405881e-06
-2.379248646e-12
9.165409932e-06
-3.853538459e-12
9.165420275e-06
-8.992961036e-12
9.165439273e-06
-1.655350309e-11
9.165474913e-06
-3.355359509e-11
9.165532938e-06
-4.169921953e-11
-1.060022025e-10
9.165415571e-06
2.244341548e-13
-5.501591699e-13
9.165412179e-06
-1.423783737e-12
-4.901729733e-13
9.165414437e-06
4.014860804e-13
1.589844819e-12
9.165415425e-06
-6.495189158e-14
-9.260468049e-13
9.165414527e-06
-1.668409823e-12
-1.12151623e-12
9.1654165e-06
-2.93602851e-12
9.718035009e-13
9.165414641e-06
-5.03539045e-12
-1.406738491e-12
9.165414107e-06
-4.903359256e-12
-1.081866616e-12
9.165416598e-06
-5.564590453e-12
2.010569068e-12
9.165419626e-06
-1.169583901e-11
5.513733164e-12
9.165417349e-06
-1.698323837e-11
8.86963646e-12
9.165425534e-06
-4.022783789e-11
1.646388467e-11
9.165440958e-06
-8.123037142e-11
3.297859518e-11
-1.355561708e-10
4.180862593e-11
9.165383354e-06
4.626626703e-13
-7.936075791e-13
9.165386752e-06
1.588342442e-12
-2.19205448e-13
9.16538602e-06
-3.685257495e-13
2.810193166e-13
9.165384245e-06
-1.530970481e-12
1.122254134e-12
9.165384425e-06
2.527080325e-13
3.978627584e-13
9.16538532e-06
1.141047587e-12
2.141184784e-12
9.165383085e-06
-3.6007048e-13
4.021222045e-13
9.165379006e-06
-4.953041189e-12
1.58453852e-12
9.165376514e-06
-7.521295232e-12
3.274017036e-12
9.165372737e-06
-1.987578935e-11
4.79834519e-12
9.165358442e-06
-2.932551996e-11
1.083223766e-11
9.165354564e-06
-8.527273532e-11
2.354767649e-11
9.165320293e-06
-1.455286907e-10
4.914328784e-11
-3.611915387e-10
7.002983177e-11
9.165402461e-06
-1.295360838e-12
-1.325315705e-12
9.165401663e-06
-2.950555046e-13
-7.634059347e-13
9.165402867e-06
5.275390324e-13
-2.648371373e-15
9.165402341e-06
9.290763282e-13
-6.306748003e-14
9.165402088e-06
-1.536946274e-13
-5.348787341e-15
9.165398715e-06
-1.382111511e-12
6.169925622e-13
9.165396207e-06
-3.308278828e-12
5.519498647e-13
9.165392482e-06
-5.694770121e-12
2.814899791e-12
9.165382428e-06
-9.961316627e-12
4.031811359e-12
9.165364929e-06
-2.096969795e-11
7.304054422e-12
9.165325479e-06
-2.594199374e-11
1.499500384e-11
9.165268172e-06
-1.070877538e-10
4.233630205e-11
9.165093176e-06
-1.523370855e-10
8.70602962e-11
-7.422952458e-10
1.710555556e-10
9.16540776e-06
-8.593944025e-13
-6.663006841e-15
9.165408073e-06
-8.993170012e-13
-3.125051479e-13
9.165407445e-06
-8.962030352e-13
-2.460445707e-13
9.165407023e-06
-2.25672494e-12
-7.64598634e-13
9.165407872e-06
-1.693744267e-12
-1.155270551e-13
9.165404085e-06
-2.320732465e-12
-1.303617784e-13
9.165400611e-06
-1.772500832e-12
1.581430196e-12
9.165392842e-06
-4.060092834e-12
2.686399835e-12
9.165385239e-06
-6.64059251e-12
5.366094281e-12
9.165356469e-06
-1.843792968e-11
1.062661548e-11
9.165325673e-06
-3.128840871e-11
1.889081175e-11
9.165214935e-06
-1.208156489e-10
6.345291375e-11
9.165113354e-06
-2.550723641e-10
1.045548903e-10
-1.32102401e-09
3.486824256e-10
9.16542298e-06
2.162216257e-14
7.125165407e-13
9.16542216e-06
-8.107665586e-14
9.601936791e-13
9.165419478e-06
4.440541726e-13
7.769329937e-13
9.165421046e-06
7.598041826e-13
5.339099567e-13
9.165418089e-06
8.686793919e-14
-1.080961565e-12
9.16541333e-06
3.385001464e-13
1.024048791e-12
9.165407106e-06
4.719208882e-13
6.119416354e-13
9.165394045e-06
1.56003848e-12
4.199293211e-12
9.165372125e-06
4.280795769e-12
5.71427135e-12
9.165304837e-06
1.636401317e-11
1.614889349e-11
9.16518419e-06
3.090325385e-11
3.007194991e-11
9.164704221e-06
1.192608928e-10
1.200726016e-10
9.163688087e-06
2.515120819e-10
2.539212451e-10
9.158408229e-06
1.317387166e-09
1.319980257e-09
7.91106976e-09
9.165436897e-06
-6.667133724e-13
2.166066261e-13
9.165438916e-06
-5.626457106e-13
1.467686232e-13
9.165436249e-06
-1.114268982e-12
4.8536482e-13
9.165435639e-06
-3.214628355e-13
3.303132429e-13
9.165434283e-06
-9.064392065e-13
-1.433700933e-12
9.16543245e-06
1.556824734e-12
-8.175816518e-13
9.165429589e-06
3.180667177e-12
3.740428311e-13
9.165421477e-06
5.528539121e-12
2.850000409e-12
9.16541135e-06
8.091492726e-12
6.145947118e-12
9.165384013e-06
1.971357042e-11
1.189765774e-11
9.165351762e-06
2.313563106e-11
1.904112458e-11
9.165239762e-06
1.064350998e-10
6.186091245e-11
9.165140221e-06
1.510927532e-10
1.033586337e-10
9.16502384e-06
7.397234254e-10
3.493707176e-10
4.280931451e-09
9.165400339e-06
-1.003842759e-12
5.719037167e-13
9.165401156e-06
-7.389586755e-13
3.693398557e-13
9.165400897e-06
5.566703528e-13
-2.18331463e-13
9.165401545e-06
2.382359561e-13
-1.004469793e-12
9.165400304e-06
3.637990117e-14
-1.011147502e-12
9.165399975e-06
3.9476653e-13
-3.456942755e-13
9.165396292e-06
1.218268785e-12
-6.047467222e-13
9.165390098e-06
6.047969362e-12
2.888100603e-12
9.165381576e-06
8.754201927e-12
4.722422294e-12
9.165364463e-06
2.082994222e-11
9.434139773e-12
9.165322921e-06