/*--------------------------------*- C++ -*----------------------------------*\
| =========                 |                                                 |
| \\      /  F ield         | OpenFOAM: The Open Source CFD Toolbox           |
|  \\    /   O peration     | Version:  4.x                                   |
|   \\  /    A nd           | Web:      www.OpenFOAM.org                      |
|    \\/     M anipulation  |                                                 |
\*---------------------------------------------------------------------------*/
FoamFile
{
    version     2.0;
    format      ascii;
    class       volScalarField;
    location    "5000";
    object      T;
}
// * * * * * * * * * * * * * * * * * * * * * * * * * * * * * * * * * * * * * //

dimensions      [0 0 0 1 0 0 0];

internalField   nonuniform List<scalar> 
1175
(
1223.150065
1223.150066
1223.149952
1223.150067
1223.149938
1223.150026
1223.150276
1223.150219
1223.150124
1223.150192
1223.150087
1223.150123
1223.150028
1223.150185
1223.150415
1223.150406
1223.150492
1223.150455
1223.150499
1223.150437
1223.150312
1223.150345
1223.150103
1223.150036
1223.150112
1223.150282
1223.150281
1223.150441
1223.150422
1223.150666
1223.149863
1223.149783
1223.149794
1223.149752
1223.149838
1223.149774
1223.149996
1223.149959
1223.149929
1223.149896
1223.14983
1223.149638
1223.149864
1223.150097
1223.150565
1223.1491
1223.149204
1223.14916
1223.149189
1223.149218
1223.149363
1223.149405
1223.149355
1223.149261
1223.149575
1223.149556
1223.149599
1223.150009
1223.150302
1223.15123
1223.147863
1223.147744
1223.147822
1223.14779
1223.147832
1223.147847
1223.147768
1223.147663
1223.147709
1223.14781
1223.14774
1223.147932
1223.148165
1223.148847
1223.150027
1223.150768
1223.150737
1223.150844
1223.150729
1223.150727
1223.15078
1223.150633
1223.150763
1223.150609
1223.150722
1223.15072
1223.150848
1223.150959
1223.151464
1223.152306
1223.147
1223.147037
1223.14694
1223.146876
1223.146974
1223.146894
1223.146912
1223.146819
1223.146785
1223.146731
1223.146836
1223.146799
1223.146791
1223.147088
1223.147549
1223.149087
1223.149112
1223.149188
1223.149117
1223.148967
1223.149007
1223.149054
1223.149025
1223.149191
1223.149281
1223.149259
1223.149276
1223.149543
1223.149619
1223.149965
1223.150809
1223.150845
1223.150998
1223.151022
1223.150975
1223.150878
1223.150929
1223.150953
1223.150839
1223.150969
1223.150831
1223.150968
1223.15105
1223.150909
1223.151148
1223.151172
1223.151123
1223.151205
1223.151116
1223.151035
1223.150956
1223.15111
1223.151051
1223.150891
1223.150706
1223.150855
1223.150834
1223.150994
1223.151057
1223.152423
1223.15257
1223.152475
1223.152513
1223.152603
1223.152322
1223.152279
1223.152309
1223.152362
1223.15226
1223.152164
1223.152075
1223.152163
1223.152458
1223.15293
1223.149599
1223.149794
1223.149613
1223.149776
1223.149572
1223.149576
1223.149497
1223.149507
1223.149777
1223.149693
1223.149666
1223.149887
1223.150167
1223.150971
1223.152068
1223.147359
1223.147538
1223.147511
1223.14757
1223.147627
1223.147468
1223.147522
1223.147511
1223.14748
1223.147616
1223.147623
1223.147774
1223.148011
1223.149196
1223.151615
1223.15531
1223.155197
1223.155138
1223.155149
1223.155025
1223.155102
1223.155156
1223.155019
1223.155105
1223.155148
1223.155209
1223.155422
1223.156005
1223.157854
1223.161597
1223.153275
1223.153396
1223.153192
1223.153204
1223.15329
1223.153231
1223.153107
1223.153145
1223.153126
1223.153162
1223.153373
1223.153582
1223.154181
1223.155338
1223.15783
1223.15065
1223.15065
1223.150643
1223.150668
1223.150584
1223.150535
1223.150616
1223.150773
1223.150778
1223.150843
1223.150756
1223.150733
1223.151002
1223.151682
1223.152669
1223.15108
1223.151147
1223.151425
1223.151309
1223.151031
1223.151166
1223.151059
1223.151118
1223.151162
1223.151372
1223.151415
1223.15147
1223.151555
1223.151769
1223.152403
1223.151827
1223.151903
1223.151798
1223.151709
1223.151792
1223.151709
1223.151666
1223.151633
1223.151738
1223.151793
1223.152021
1223.1521
1223.152283
1223.152376
1223.152537
1223.152202
1223.152231
1223.152329
1223.152226
1223.152327
1223.152377
1223.152134
1223.152124
1223.152176
1223.152286
1223.152326
1223.152297
1223.152359
1223.15267
1223.14821
1223.148202
1223.148222
1223.14814
1223.148161
1223.148182
1223.148202
1223.148185
1223.148036
1223.148161
1223.148165
1223.148178
1223.148405
1223.148935
1223.152713
1223.15253
1223.152485
1223.152338
1223.152078
1223.152293
1223.152253
1223.15227
1223.152314
1223.152245
1223.152324
1223.152481
1223.15308
1223.154579
1223.157864
1223.146971
1223.147035
1223.147086
1223.147143
1223.147175
1223.147353
1223.147339
1223.147275
1223.147476
1223.147389
1223.147401
1223.147875
1223.149229
1223.152944
1223.16131
1223.15223
1223.152382
1223.152297
1223.152201
1223.152366
1223.152436
1223.152311
1223.1523
1223.152216
1223.152332
1223.152566
1223.153239
1223.155437
1223.162574
1223.179738
1223.148257
1223.148207
1223.148349
1223.148146
1223.148175
1223.14825
1223.148382
1223.148404
1223.148324
1223.148483
1223.148564
1223.149151
1223.150516
1223.154523
1223.162841
1223.144292
1223.144269
1223.14431
1223.144515
1223.144592
1223.144591
1223.144292
1223.144384
1223.144427
1223.144373
1223.144483
1223.144679
1223.145328
1223.14693
1223.150159
1223.150966
1223.150908
1223.150894
1223.150869
1223.150898
1223.151006
1223.150831
1223.150769
1223.150679
1223.150709
1223.150601
1223.150613
1223.150757
1223.151395
1223.152628
1223.149316
1223.149371
1223.149408
1223.149296
1223.149209
1223.149159
1223.149115
1223.149058
1223.14903
1223.149017
1223.149002
1223.148997
1223.149125
1223.14943
1223.149831
1223.14675
1223.146705
1223.146784
1223.146755
1223.146799
1223.146888
1223.146789
1223.14688
1223.147029
1223.146842
1223.146859
1223.146864
1223.147064
1223.147458
1223.153647
1223.153893
1223.153753
1223.153751
1223.153845
1223.1538
1223.153509
1223.153483
1223.153393
1223.153316
1223.153429
1223.153695
1223.154091
1223.155429
1223.150426
1223.150502
1223.150469
1223.150413
1223.150454
1223.150603
1223.150751
1223.150485
1223.150351
1223.15036
1223.150575
1223.150819
1223.152043
1223.155968
1223.159501
1223.159344
1223.159191
1223.15933
1223.159441
1223.159417
1223.159437
1223.159665
1223.159647
1223.159359
1223.159819
1223.160716
1223.164208
1223.176349
1223.206803
1223.149643
1223.149716
1223.149793
1223.149735
1223.149676
1223.14954
1223.149403
1223.149538
1223.149503
1223.149544
1223.149886
1223.151397
1223.158092
1223.187679
1223.282598
1223.14234
1223.142252
1223.142273
1223.142112
1223.142132
1223.142112
1223.142148
1223.142145
1223.142079
1223.142131
1223.142367
1223.143504
1223.147011
1223.159322
1223.189796
1223.153436
1223.15339
1223.153318
1223.153299
1223.153349
1223.153348
1223.153318
1223.153514
1223.153429
1223.153585
1223.153697
1223.154167
1223.15555
1223.159545
1223.167851
1223.147022
1223.147048
1223.147255
1223.147281
1223.147256
1223.147179
1223.147148
1223.147187
1223.147145
1223.147309
1223.147389
1223.147436
1223.147579
1223.148869
1223.151138
1223.151914
1223.15182
1223.151734
1223.151856
1223.152006
1223.152032
1223.152009
1223.151994
1223.151863
1223.152011
1223.15223
1223.152237
1223.152374
1223.152914
1223.153674
1223.149829
1223.149831
1223.149847
1223.150004
1223.149923
1223.14993
1223.149779
1223.149917
1223.149797
1223.149818
1223.149939
1223.149826
1223.149978
1223.150489
1223.154098
1223.153925
1223.154125
1223.153855
1223.153771
1223.153888
1223.153908
1223.154035
1223.154268
1223.154258
1223.154357
1223.154702
1223.155369
1223.157092
1223.151433
1223.151663
1223.151742
1223.151774
1223.151715
1223.151623
1223.151699
1223.151617
1223.151512
1223.151637
1223.151669
1223.152439
1223.154591
1223.161661
1223.151014
1223.151021
1223.150878
1223.150792
1223.150877
1223.150795
1223.150743
1223.150771
1223.150858
1223.150848
1223.151031
1223.152475
1223.159333
1223.188815
1223.149071
1223.149045
1223.149134
1223.149054
1223.149142
1223.149256
1223.149332
1223.149303
1223.149268
1223.149454
1223.149973
1223.152937
1223.170131
1223.279009
1217.25098
1223.146805
1223.14698
1223.147007
1223.147018
1223.146941
1223.146941
1223.146809
1223.146968
1223.146951
1223.147031
1223.147453
1223.149047
1223.155968
1223.185528
1223.280501
1223.151822
1223.151849
1223.15183
1223.151794
1223.151617
1223.151728
1223.151627
1223.151747
1223.151794
1223.151904
1223.151946
1223.152662
1223.154865
1223.161966
1223.179414
1223.147371
1223.14739
1223.147284
1223.147207
1223.147102
1223.147166
1223.147285
1223.147187
1223.14711
1223.147041
1223.147243
1223.147265
1223.147948
1223.149777
1223.15351
1223.152067
1223.1521
1223.152077
1223.152354
1223.152301
1223.152356
1223.152317
1223.152389
1223.152435
1223.152453
1223.152437
1223.152369
1223.1526
1223.153082
1223.154253
1223.154143
1223.154161
1223.154149
1223.154009
1223.153855
1223.153857
1223.153885
1223.153868
1223.153968
1223.153952
1223.153943
1223.154069
1223.154294
1223.154702
1223.148241
1223.148165
1223.148226
1223.148191
1223.148138
1223.148177
1223.148162
1223.148174
1223.148305
1223.148406
1223.148165
1223.148157
1223.148676
1223.149849
1223.148901
1223.149058
1223.149169
1223.14927
1223.14922
1223.149273
1223.149252
1223.149346
1223.149406
1223.149382
1223.14959
1223.149832
1223.151175
1223.154917
1223.153236
1223.15339
1223.15343
1223.153483
1223.153372
1223.153386
1223.15344
1223.153447
1223.153424
1223.153517
1223.153697
1223.154615
1223.158025
1223.170073
1223.15234
1223.152453
1223.152319
1223.152429
1223.152239
1223.152219
1223.152064
1223.152033
1223.152142
1223.152173
1223.152419
1223.15397
1223.160932
1223.190553
1223.154687
1223.154844
1223.154964
1223.154877
1223.154867
1223.154864
1223.15476
1223.154845
1223.154804
1223.154994
1223.15517
1223.15622
1223.159892
1223.172224
1223.151846
1223.151875
1223.151804
1223.151808
1223.151817
1223.151698
1223.151647
1223.151546
1223.151478
1223.151686
1223.151953
1223.152264
1223.153727
1223.157573
1223.165871
1223.149818
1223.149899
1223.149944
1223.149899
1223.149954
1223.150053
1223.150134
1223.150055
1223.150065
1223.150141
1223.150207
1223.150238
1223.150858
1223.152136
1223.154443
1223.150485
1223.150418
1223.15047
1223.150505
1223.150561
1223.150369
1223.150357
1223.15025
1223.150376
1223.150472
1223.150443
1223.150453
1223.150636
1223.151151
1223.152099
1223.147842
1223.147897
1223.147883
1223.147985
1223.148069
1223.148003
1223.147969
1223.147932
1223.148068
1223.148014
1223.148022
1223.148107
1223.148293
1223.148356
1223.151935
1223.151814
1223.15177
1223.15194
1223.152032
1223.151892
1223.151876
1223.151765
1223.151659
1223.151742
1223.151731
1223.151759
1223.152149
1223.152723
1223.145494
1223.145414
1223.145358
1223.145414
1223.14545
1223.145268
1223.145153
1223.14519
1223.145357
1223.14527
1223.14531
1223.145426
1223.146026
1223.147718
1223.152419
1223.152481
1223.152381
1223.152416
1223.152529
1223.152469
1223.152487
1223.152671
1223.152696
1223.152878
1223.152976
1223.153152
1223.154532
1223.158449
1223.156422
1223.156289
1223.156156
1223.15622
1223.156239
1223.156126
1223.156028
1223.156283
1223.156287
1223.156084
1223.156301
1223.156816
1223.159144
1223.165962
1223.148428
1223.148516
1223.148465
1223.148584
1223.148338
1223.148453
1223.148522
1223.148397
1223.148258
1223.148309
1223.148481
1223.14875
1223.15019
1223.154024
1223.149245
1223.149211
1223.149316
1223.149239
1223.149263
1223.149122
1223.149252
1223.14925
1223.148976
1223.148867
1223.148918
1223.149027
1223.149759
1223.151262
1223.154621
1223.154608
1223.154558
1223.15436
1223.154384
1223.154315
1223.154295
1223.154334
1223.154318
1223.154415
1223.154395
1223.154377
1223.154551
1223.155307
1223.156341
1223.150357
1223.150327
1223.150496
1223.150569
1223.150404
1223.15047
1223.150466
1223.150464
1223.150357
1223.150334
1223.150368
1223.150433
1223.150754
1223.151026
1223.151604
1223.149612
1223.149649
1223.149623
1223.14978
1223.149812
1223.149748
1223.149788
1223.149683
1223.149628
1223.149691
1223.149625
1223.149504
1223.14943
1223.149612
1223.146889
1223.146799
1223.146725
1223.146797
1223.146758
1223.146698
1223.146786
1223.147019
1223.146978
1223.146881
1223.14681
1223.146678
1223.146698
1223.146873
1223.153981
1223.154011
1223.154005
1223.153953
1223.154172
1223.154037
1223.154089
1223.154246
1223.1543
1223.154423
1223.154359
1223.154429
1223.154324
1223.154736
1223.151291
1223.151329
1223.151343
1223.151331
1223.151364
1223.151418
1223.151299
1223.15149
1223.151464
1223.151418
1223.151341
1223.151592
1223.152013
1223.153244
1223.151604
1223.151772
1223.151529
1223.151563
1223.151695
1223.151681
1223.151503
1223.151598
1223.151443
1223.151438
1223.151452
1223.151656
1223.152268
1223.154088
1223.15512
1223.155258
1223.155286
1223.155278
1223.15531
1223.155172
1223.155187
1223.155047
1223.1551
1223.155073
1223.155034
1223.155424
1223.15576
1223.15723
1223.14634
1223.146214
1223.1462
1223.146074
1223.14601
1223.146157
1223.146134
1223.146117
1223.146073
1223.146183
1223.146177
1223.146248
1223.146362
1223.146851
1223.146146
1223.146239
1223.146324
1223.146347
1223.146304
1223.146369
1223.146422
1223.146332
1223.146196
1223.14619
1223.146229
1223.146303
1223.146436
1223.146901
1223.149735
1223.149759
1223.149473
1223.149498
1223.149529
1223.149487
1223.149415
1223.149652
1223.149646
1223.14946
1223.149497
1223.149547
1223.149646
1223.14981
1223.149922
1223.146823
1223.146941
1223.146873
1223.146806
1223.146854
1223.147015
1223.147006
1223.14709
1223.147127
1223.147217
1223.147121
1223.147023
1223.147125
1223.14714
1223.151716
1223.151812
1223.151741
1223.151799
1223.151704
1223.151694
1223.151826
1223.151777
1223.151788
1223.151938
1223.152068
1223.152248
1223.1523
1223.152602
1223.152676
1223.152609
1223.152825
1223.152717
1223.152493
1223.152624
1223.152555
1223.152523
1223.152413
1223.152505
1223.152511
1223.15262
1223.152681
1223.152892
1223.152072
1223.151875
1223.151983
1223.151956
1223.151858
1223.151981
1223.15173
1223.151617
1223.151627
1223.151562
1223.151555
1223.151753
1223.151905
1223.152293
1223.148971
1223.149032
1223.149167
1223.149114
1223.149247
1223.149226
1223.149188
1223.149208
1223.149129
1223.149009
1223.14905
1223.149071
1223.149308
1223.150108
1223.148886
1223.14883
1223.148721
1223.148767
1223.148677
1223.148675
1223.148683
1223.148566
1223.148577
1223.148644
1223.148683
1223.148693
1223.148857
1223.14932
1223.145347
1223.145251
1223.145324
1223.145359
1223.145195
1223.145271
1223.145163
1223.145168
1223.145322
1223.145352
1223.145433
1223.145313
1223.145442
1223.145842
1223.15162
1223.151557
1223.151511
1223.151485
1223.151568
1223.151545
1223.151802
1223.151871
1223.151649
1223.151537
1223.151477
1223.151684
1223.151945
1223.15217
1223.15092
1223.151015
1223.150996
1223.151012
1223.151048
1223.150978
1223.151027
1223.150961
1223.151033
1223.151152
1223.151171
1223.151243
1223.151311
1223.151227
)
;

boundaryField
{
    top
    {
        type            zeroGradient;
    }
    bottom
    {
        type            zeroGradient;
    }
    side-walls
    {
        type            zeroGradient;
    }
    inlet
    {
        type            zeroGradient;
    }
    outlet
    {
        type            zeroGradient;
    }
    procBoundary0to1
    {
        type            processor;
        value           nonuniform List<scalar> 
97
(
1223.150632
1223.151116
1223.151096
1223.151414
1223.152543
1223.15179
1223.153673
1223.148312
1223.150441
1223.151419
1223.151116
1223.151116
1223.15375
1223.150157
1223.153916
1223.155042
1223.166025
1223.160713
1223.154531
1223.153174
1223.153052
1223.152869
1223.150157
1223.150157
1223.162054
1223.164352
1223.170411
1223.192298
1223.171832
1223.154358
1223.15439
1223.150668
1223.148475
1223.157803
1223.164352
1223.164352
1223.226859
1223.283691
1223.296761
1223.210114
1223.176755
1223.154307
1223.15479
1223.151641
1223.16093
1223.179004
1223.283691
1223.283691
1216.890831
1223.285375
1223.294831
1223.202533
1223.191954
1223.157926
1223.155906
1223.155431
1223.152379
1223.163272
1223.200366
1223.285375
1223.202533
1223.202533
1223.175103
1223.154614
1223.157401
1223.153262
1223.148832
1223.153921
1223.15088
1223.1668
1223.183079
1223.162177
1223.154614
1223.154614
1223.15827
1223.147398
1223.152372
1223.14989
1223.14735
1223.155857
1223.155817
1223.157787
1223.159462
1223.14795
1223.147398
1223.147398
1223.150443
1223.151537
1223.147184
1223.152832
1223.153412
1223.153201
1223.15124
1223.150173
1223.146153
1223.152466
1223.151537
)
;
    }
}


// ************************************************************************* //
