/*--------------------------------*- C++ -*----------------------------------*\
| =========                 |                                                 |
| \\      /  F ield         | OpenFOAM: The Open Source CFD Toolbox           |
|  \\    /   O peration     | Version:  4.x                                   |
|   \\  /    A nd           | Web:      www.OpenFOAM.org                      |
|    \\/     M anipulation  |                                                 |
\*---------------------------------------------------------------------------*/
FoamFile
{
    version     2.0;
    format      ascii;
    class       volVectorField;
    location    "5000";
    object      U;
}
// * * * * * * * * * * * * * * * * * * * * * * * * * * * * * * * * * * * * * //

dimensions      [0 1 -1 0 0 0 0];

internalField   nonuniform List<vector> 
1175
(
(0.01100000033 1.032910391e-09 -9.230883773e-10)
(0.01099999787 -5.631145223e-10 1.573447583e-10)
(0.01099999831 -2.421783897e-10 -1.835516816e-09)
(0.0110000009 -1.993387839e-09 1.399331476e-09)
(0.0110000032 -2.204394282e-09 -4.194294785e-10)
(0.01100000057 -2.330647098e-09 -1.144185282e-09)
(0.01100000647 -8.496859218e-10 -1.820872961e-09)
(0.01100001005 -2.326348356e-09 -2.909688798e-09)
(0.01100001836 -1.344649249e-10 -4.535291819e-09)
(0.01100002204 -7.941466472e-11 -5.726399404e-09)
(0.01100004449 -4.850380818e-09 -7.631787644e-09)
(0.01100006409 -7.803273681e-09 -9.625425778e-09)
(0.01100011329 -1.658541839e-08 -1.505016415e-08)
(0.01100015462 -1.458715799e-08 -1.456349769e-08)
(0.01100024289 -2.986063448e-08 -2.852009133e-08)
(0.01099999959 2.582029317e-10 5.19662188e-10)
(0.0109999982 1.151331008e-09 -1.270891029e-09)
(0.01100000021 2.552309077e-10 -1.540540569e-09)
(0.01100000113 1.510247643e-10 -1.479798514e-09)
(0.01100000286 -1.246478125e-09 5.724064156e-10)
(0.01100000011 -1.011275484e-09 -1.0114296e-09)
(0.01100000663 -1.350177793e-09 -8.52038818e-10)
(0.01100000452 -3.639947313e-09 -2.352959999e-09)
(0.01100001276 -6.614065633e-09 -3.177256176e-09)
(0.01100001823 -1.111468172e-08 -3.717556727e-09)
(0.01100003869 -1.784793228e-08 -7.401947003e-09)
(0.01100005246 -2.561692222e-08 -1.03392104e-08)
(0.01100010613 -4.607000768e-08 -1.691552139e-08)
(0.0110001376 -4.933565776e-08 -1.519933175e-08)
(0.01100023715 -1.086939134e-07 -4.37182375e-08)
(0.01099999952 -1.770812797e-09 -6.489128727e-10)
(0.01099999756 -6.854878311e-10 -1.157471361e-09)
(0.01099999856 5.244936577e-10 -1.580152986e-09)
(0.01099999828 -7.782097399e-10 -3.775568532e-10)
(0.01100000144 -8.783083085e-10 -7.605512393e-11)
(0.01099999935 -1.392826426e-09 -3.279357471e-09)
(0.01100000207 -3.613108843e-09 1.033212654e-10)
(0.01100000449 -7.33881528e-09 -2.317317886e-09)
(0.01100001151 -7.922250795e-09 -3.54084403e-09)
(0.01100001069 -1.306975519e-08 -6.258750376e-09)
(0.01100002756 -2.082190474e-08 -8.152643426e-09)
(0.01100002788 -2.986008901e-08 -1.65309447e-08)
(0.01100008287 -5.198308296e-08 -2.564647696e-08)
(0.01100008825 -5.492732472e-08 -2.902712695e-08)
(0.01100022069 -1.364345356e-07 -9.061856581e-08)
(0.01099999909 -3.032764893e-10 1.132244794e-09)
(0.01099999955 -1.115221327e-09 1.879401386e-09)
(0.01099999962 -1.460223935e-09 -1.108246711e-09)
(0.01100000159 -2.61660391e-09 -2.85513043e-09)
(0.01100000287 -4.093822502e-10 -1.291960647e-09)
(0.0110000002 -1.609980516e-09 -2.34374763e-09)
(0.01099999946 -2.582478215e-09 -5.546731423e-10)
(0.01100000153 -3.261794165e-09 -7.099200182e-10)
(0.0110000053 -6.113997135e-09 -5.426168673e-09)
(0.0110000062 -1.127160101e-08 -5.746935846e-09)
(0.01100001844 -1.544849356e-08 -7.791319483e-09)
(0.0110000169 -3.140298574e-08 -1.764057901e-08)
(0.01100007311 -6.241529009e-08 -2.981485474e-08)
(0.01100005146 -7.598337476e-08 -2.782651246e-08)
(0.01100022298 -2.041056106e-07 -1.235152581e-07)
(0.01099999932 -4.433333193e-10 -1.654513083e-09)
(0.01099999771 -1.885845514e-09 -1.651104673e-09)
(0.01099999978 -2.640873772e-09 -1.36652082e-09)
(0.01099999987 -4.314888012e-10 -1.822349621e-10)
(0.01100000136 -3.359319408e-09 -6.364469131e-10)
(0.0110000004 -2.697776292e-09 -4.359533272e-09)
(0.01099999852 -1.524828146e-09 -2.111435654e-09)
(0.01099999972 -1.129180738e-09 -3.772433874e-09)
(0.01100000062 -9.670678775e-10 -4.560720768e-09)
(0.01099999892 1.27628877e-10 -6.407797556e-09)
(0.0110000031 5.679684831e-10 -1.533213182e-08)
(0.0109999796 1.087872694e-09 -2.728207317e-08)
(0.01100003067 7.500630569e-11 -5.113035323e-08)
(0.01099994697 1.675473259e-09 -7.318938245e-08)
(0.01100020814 -1.056912428e-10 -2.913123919e-07)
(0.01100000073 -1.890563886e-09 5.78021571e-10)
(0.01099999645 -1.564272736e-09 -7.206529411e-10)
(0.01100000101 -5.214790657e-10 1.28466132e-09)
(0.01099999883 5.06698887e-10 1.689948074e-10)
(0.01100000123 -5.385334951e-10 6.509481234e-10)
(0.01100000215 3.128173569e-11 -1.255216351e-09)
(0.01099999973 1.107221052e-09 2.130561735e-09)
(0.01100000274 4.056287996e-09 -1.052524851e-10)
(0.01100000554 4.626325879e-09 -2.08478649e-09)
(0.01100000702 7.42259399e-09 -6.090177486e-09)
(0.01100002092 1.674969394e-08 -9.240490401e-09)
(0.01100001613 2.933598577e-08 -1.794530104e-08)
(0.01100007304 6.274766397e-08 -2.984401995e-08)
(0.01100005167 7.498868842e-08 -2.854080638e-08)
(0.01100022391 2.039334961e-07 -1.228473811e-07)
(0.01099999974 -1.136355061e-09 -5.373227712e-10)
(0.01100000131 3.962856685e-10 -1.058115337e-09)
(0.01100000069 -1.128354413e-09 3.836482206e-10)
(0.01099999819 -2.545356031e-09 -2.737340214e-09)
(0.01100000002 -1.174021468e-09 -1.529538232e-09)
(0.01100000063 -1.615570851e-09 -8.733389329e-10)
(0.0110000035 1.382540755e-09 -2.455644945e-09)
(0.01100000318 4.252529395e-09 -2.769226275e-09)
(0.01100000949 8.284638105e-09 -3.631658655e-09)
(0.01100001061 1.180579945e-08 -5.18121108e-09)
(0.01100002679 1.899153312e-08 -8.162244547e-09)
(0.01100002963 2.907060995e-08 -1.458869661e-08)
(0.01100008083 5.218783357e-08 -2.858973773e-08)
(0.01100008981 5.385745704e-08 -2.681847274e-08)
(0.01100022193 1.340747862e-07 -8.78389594e-08)
(0.01100000044 -2.240921066e-10 6.39255498e-10)
(0.0110000001 -3.091366027e-10 3.556609815e-09)
(0.01100000048 6.735228003e-10 2.798125654e-09)
(0.01100000125 6.601672777e-10 -2.113051042e-09)
(0.01099999736 8.694584999e-10 1.656868522e-10)
(0.01100000168 3.731085615e-11 6.449896212e-11)
(0.01100000723 -3.135353491e-10 9.165678148e-10)
(0.01100000592 3.571203517e-09 -2.918217278e-09)
(0.0110000153 5.92305385e-09 -2.530048386e-09)
(0.01100002138 1.258714598e-08 -2.52453958e-09)
(0.01100003927 1.810274285e-08 -8.121333634e-09)
(0.01100005326 2.606528283e-08 -1.092692488e-08)
(0.01100010722 4.419310169e-08 -2.030437419e-08)
(0.0110001372 4.820760622e-08 -1.704691824e-08)
(0.01100023671 1.089848858e-07 -4.439094954e-08)
(0.01100000023 1.764442908e-10 1.250664636e-09)
(0.01099999869 -3.236635201e-10 1.825199865e-10)
(0.01100000023 6.318752287e-10 -2.686535234e-09)
(0.01100000152 -7.246570559e-10 1.083402048e-09)
(0.01100000172 5.363310757e-10 2.978283134e-09)
(0.01100000271 3.789491903e-10 1.66866986e-10)
(0.01100000692 2.560109997e-09 2.562227746e-10)
(0.01100000992 1.0034162e-09 -2.210252586e-09)
(0.01100001821 3.163103565e-09 -3.295517577e-09)
(0.01100002528 4.939132091e-09 -8.100914809e-12)
(0.01100004426 5.701269125e-09 -5.629118657e-09)
(0.01100006297 8.744595971e-09 -8.714205332e-09)
(0.01100011684 1.514141908e-08 -1.784563917e-08)
(0.01100015323 1.407933937e-08 -1.437398402e-08)
(0.01100024349 2.982498533e-08 -2.987191496e-08)
(0.0109999998 1.844126331e-09 6.085596477e-10)
(0.0110000003 1.465562646e-09 -7.770929211e-10)
(0.01100000094 1.976549435e-09 4.308992455e-10)
(0.01100000003 -6.761489688e-10 1.181644524e-10)
(0.01100000484 -4.709733818e-10 3.515733636e-10)
(0.01100000086 -1.108426688e-09 -3.698444676e-10)
(0.01100000357 1.460460651e-10 -2.433070731e-09)
(0.01100000915 -1.628889303e-09 -3.562607923e-09)
(0.01100001658 -3.021458024e-09 -5.833081982e-09)
(0.01100001609 -3.775088513e-09 -1.179472913e-08)
(0.01100003915 -7.032417063e-09 -1.714487769e-08)
(0.0110000518 -9.510812025e-09 -2.422425006e-08)
(0.01100010603 -1.7507095e-08 -4.600176514e-08)
(0.01100013618 -1.595603658e-08 -4.797563041e-08)
(0.01099999825 -4.384909826e-10 -1.017975336e-09)
(0.01099999876 1.658088239e-10 -1.360004823e-09)
(0.01099999822 -4.040259721e-10 -2.380476994e-10)
(0.0109999998 -1.067383956e-09 -1.755349414e-10)
(0.01100000326 -1.231086802e-09 -1.376113481e-09)
(0.01100000044 -2.439813514e-09 -1.111046048e-09)
(0.01100000131 -1.895749916e-09 -1.979680355e-09)
(0.01100000288 -3.599422678e-09 -4.626585594e-09)
(0.01100001179 -6.090584155e-09 -5.060854718e-09)
(0.01100001297 -1.195489569e-08 -1.225504503e-08)
(0.01100003046 -1.76951505e-08 -1.929577134e-08)
(0.01100003862 -3.017364265e-08 -3.080133366e-08)
(0.01100009403 -5.947799446e-08 -5.708026244e-08)
(0.01100010726 -6.295821547e-08 -6.318942539e-08)
(0.01100023144 -1.666125031e-07 -1.685254419e-07)
(0.01100000199 1.34768232e-10 -1.172767772e-09)
(0.01099999998 -4.241558647e-10 6.502019228e-10)
(0.0109999979 -1.152871301e-09 -8.184167607e-10)
(0.01100000037 7.382881999e-11 -3.108095808e-10)
(0.01099999948 2.923266074e-10 9.913581933e-11)
(0.01099999959 -2.082020926e-09 -9.841086426e-10)
(0.01099999934 -4.731810684e-09 -1.265058625e-09)
(0.01100000149 -5.892854856e-09 -5.011630044e-09)
(0.01100000569 -9.397837304e-09 -8.4344119e-09)
(0.01100000236 -1.364541466e-08 -1.396678917e-08)
(0.01100001424 -2.274810525e-08 -2.335579168e-08)
(0.01100000729 -3.549703621e-08 -4.527550581e-08)
(0.01100006174 -6.175679529e-08 -8.767636287e-08)
(0.01100002636 -6.710660551e-08 -1.06205134e-07)
(0.01100020787 -2.217621063e-07 -3.513178014e-07)
(0.01099999925 -8.251963654e-10 -8.526857315e-10)
(0.01099999805 -4.137732684e-11 -3.54320431e-10)
(0.01099999848 6.938970878e-10 4.094076463e-10)
(0.01100000038 -8.729803651e-10 6.508044157e-10)
(0.01100000285 -2.233905133e-09 -8.132085034e-10)
(0.01099999625 -2.177409838e-09 -1.877724667e-09)
(0.01099999905 -2.881458374e-09 -1.795261235e-09)
(0.0109999987 -4.766406167e-09 -4.871041021e-09)
(0.01100000096 -7.202075534e-09 -8.290458487e-09)
(0.01100000005 -1.246865241e-08 -1.703761717e-08)
(0.01100000731 -2.115291993e-08 -2.377552095e-08)
(0.01099999812 -4.287699702e-08 -5.271326062e-08)
(0.01100004735 -8.886297799e-08 -9.426998831e-08)
(0.01099996593 -1.215387767e-07 -1.356427225e-07)
(0.01100019855 -4.148732406e-07 -5.466924261e-07)
(0.01100000136 -1.347001801e-09 -5.143932962e-10)
(0.01099999988 -1.851402847e-09 -1.324352799e-09)
(0.01099999745 4.914223062e-10 -3.57505091e-10)
(0.01099999911 -2.501165389e-10 6.140010757e-10)
(0.01099999875 -1.723089783e-09 -6.723770763e-10)
(0.01099999902 -1.791063302e-09 -2.838104435e-09)
(0.01099999729 4.649451627e-10 -3.418439891e-09)
(0.01099999617 -6.507398504e-10 -6.471211139e-09)
(0.01099999421 -6.751073911e-10 -1.063915951e-08)
(0.0109999887 -2.127868457e-09 -2.173683225e-08)
(0.01099998356 -1.848946223e-09 -3.545717514e-08)
(0.01099994002 -2.501746401e-09 -8.567214208e-08)
(0.01099996119 -1.873034446e-09 -1.721157028e-07)
(0.01099972973 -7.427428006e-10 -3.112045309e-07)
(0.0110001557 -6.113987488e-10 -1.30173995e-06)
(0.01099999882 -1.987126472e-09 9.174186388e-10)
(0.01099999992 -6.460504702e-10 -8.34315687e-10)
(0.01099999846 -2.16141144e-09 1.029646943e-09)
(0.01099999884 5.976776764e-11 -1.189131533e-09)
(0.01099999828 -6.631848469e-10 -2.581436382e-11)
(0.0110000007 -1.313208261e-09 -1.914655131e-09)
(0.01099999812 2.831969062e-10 -2.873715263e-09)
(0.01099999854 2.823952262e-09 -6.155877884e-09)
(0.01099999927 3.502422533e-09 -8.546614688e-09)
(0.01099999796 1.140966471e-08 -1.5174677e-08)
(0.01100000705 2.054107628e-08 -2.516115069e-08)
(0.01099999713 4.282705707e-08 -5.260190925e-08)
(0.01100004899 8.827868872e-08 -9.404760917e-08)
(0.0109999702 1.222135375e-07 -1.381921789e-07)
(0.01100020041 4.152439305e-07 -5.465223642e-07)
(0.01099999951 6.872283796e-10 8.047509077e-10)
(0.01099999983 -2.768936844e-10 1.17297163e-09)
(0.01099999908 5.518976611e-10 -6.705940328e-10)
(0.01100000083 -1.030624615e-09 1.181656835e-10)
(0.01099999897 -4.257355848e-10 -3.608512564e-10)
(0.01099999926 -9.064606185e-11 -1.626846618e-09)
(0.0109999998 1.136092513e-09 -3.925321497e-09)
(0.01100000226 1.877635643e-09 -5.652352466e-09)
(0.01100000576 7.759774426e-09 -8.064447923e-09)
(0.01100000431 1.197253506e-08 -1.32883238e-08)
(0.01100001624 1.887289621e-08 -2.589451998e-08)
(0.01100000932 3.311631822e-08 -4.268119197e-08)
(0.01100006118 6.235569685e-08 -8.726446301e-08)
(0.01100002798 6.574456622e-08 -1.066194835e-07)
(0.01100020779 2.187044615e-07 -3.514309239e-07)
(0.01100000005 2.85173066e-10 1.81468888e-09)
(0.01099999738 2.438973014e-09 5.15724452e-10)
(0.01100000162 -2.682882438e-11 6.006037405e-11)
(0.01100000041 6.681658632e-10 -5.678322337e-10)
(0.01099999873 9.018424475e-10 -1.195323521e-09)
(0.01100000163 1.292184062e-09 -2.334352316e-09)
(0.01100000295 1.730364416e-09 -1.457301998e-09)
(0.01100000447 4.386598665e-09 -4.093184153e-09)
(0.01100001135 5.85452846e-09 -7.815224647e-09)
(0.01100001637 1.208279854e-08 -1.074711194e-08)
(0.01100003197 1.948139638e-08 -1.896127278e-08)
(0.0110000402 3.121953639e-08 -2.970241069e-08)
(0.01100009685 5.544989916e-08 -5.719600706e-08)
(0.01100010803 6.059096392e-08 -6.177772341e-08)
(0.01100023314 1.684122072e-07 -1.672153356e-07)
(0.01099999873 -5.761551141e-10 7.205030949e-10)
(0.01099999937 -1.85862314e-09 -4.929608334e-10)
(0.01100000049 1.726461197e-10 7.239322303e-10)
(0.01099999924 -4.764442144e-10 5.659299494e-11)
(0.01100000153 -6.789148616e-10 -1.941623516e-09)
(0.01100000165 9.270884505e-10 -2.191070045e-09)
(0.01100000374 -4.521992114e-10 -1.53672992e-09)
(0.01100000557 3.079267745e-10 -3.616870118e-09)
(0.01100001717 3.91524389e-09 -7.494226526e-09)
(0.01100001821 5.752083538e-09 -8.740457377e-09)
(0.01100004013 7.244975942e-09 -1.70562118e-08)
(0.01100005335 1.068232953e-08 -2.458845614e-08)
(0.01100010948 1.949462367e-08 -4.49797674e-08)
(0.01100013817 1.777116836e-08 -4.958335295e-08)
(0.01100023632 4.613401387e-08 -1.06955349e-07)
(0.01100000004 -2.039644763e-10 4.367180323e-10)
(0.01099999969 -4.659596601e-10 -3.482414964e-10)
(0.01100000097 -1.025089925e-09 -4.332012969e-10)
(0.01100000081 -3.293950851e-09 1.11001327e-09)
(0.01100000191 -3.042697363e-09 6.353458417e-10)
(0.01100000036 2.56783374e-09 -1.358386384e-09)
(0.01100000331 -2.410588176e-09 -3.654140724e-10)
(0.01100000331 -1.599399676e-09 -3.330313077e-09)
(0.01100000869 1.025122731e-10 -8.794178856e-09)
(0.01100001099 -3.939758691e-09 -1.336744712e-08)
(0.01100002785 -6.379488248e-09 -1.964863701e-08)
(0.01100002852 -1.108992818e-08 -2.969642394e-08)
(0.01100008272 -2.801667869e-08 -5.262838987e-08)
(0.01100008982 -2.511703049e-08 -5.186853706e-08)
(0.01099999967 1.381415911e-10 -1.57402842e-09)
(0.01100000025 5.57335808e-10 -2.012456986e-10)
(0.01100000003 -1.080172336e-09 2.880720242e-10)
(0.01100000017 -8.364007246e-10 1.222929238e-09)
(0.01100000034 -1.872991579e-09 -9.552457391e-10)
(0.0109999986 -2.501279981e-09 -2.34540047e-09)
(0.01100000087 -2.103088525e-09 -2.695235261e-09)
(0.01100000174 -5.636423027e-09 -4.266150141e-09)
(0.01100000342 -8.49603773e-09 -9.114976785e-09)
(0.01100000366 -1.487401578e-08 -1.521601333e-08)
(0.01100001434 -2.481904705e-08 -2.24229643e-08)
(0.01100000734 -4.548639146e-08 -3.525392618e-08)
(0.01100006242 -8.952616731e-08 -6.388155279e-08)
(0.01100002589 -1.091814119e-07 -6.59860071e-08)
(0.0110000007 1.303163221e-10 4.224567902e-10)
(0.01099999942 -1.4087897e-09 1.45166866e-09)
(0.01099999979 -1.574671047e-09 1.738484976e-09)
(0.01099999859 -1.680863141e-09 1.589454261e-09)
(0.01099999624 -1.906214723e-09 -4.627890812e-10)
(0.0109999988 -3.463146417e-09 -1.514256361e-09)
(0.01099999736 -2.582122797e-09 -4.220327806e-09)
(0.01099999671 -6.168975957e-09 -6.096186583e-09)
(0.01099999668 -1.133054169e-08 -1.205689677e-08)
(0.01099999189 -2.036267619e-08 -1.919291492e-08)
(0.01099999213 -2.501481674e-08 -2.739904411e-08)
(0.0109999601 -5.271450198e-08 -5.335029119e-08)
(0.01099999304 -8.89283534e-08 -8.947288414e-08)
(0.01099984459 -1.287577147e-07 -1.27829446e-07)
(0.0110001289 -5.21153732e-07 -5.216451881e-07)
(0.01099999969 1.783247209e-10 -1.445739184e-09)
(0.01099999936 -1.288360697e-09 2.47369354e-10)
(0.01099999987 -1.051590797e-09 1.734638149e-09)
(0.01100000032 -1.557872613e-10 3.738867069e-10)
(0.01099999899 -6.933223706e-10 -1.018695434e-09)
(0.01099999734 -2.632368227e-09 -3.801235521e-09)
(0.01099999579 -3.172858181e-09 -3.561097774e-09)
(0.01099999476 -4.373213581e-09 -7.375244165e-09)
(0.01099998972 -7.197180978e-09 -9.552103658e-09)
(0.01099998708 -1.613091546e-08 -1.983447173e-08)
(0.0109999752 -2.955746033e-08 -2.15169224e-08)
(0.01099994616 -7.250975293e-08 -6.350007545e-08)
(0.01099993514 -1.493892934e-07 -5.64278317e-08)
(0.01099971366 -2.8318026e-07 -1.649532818e-07)
(0.01099995011 -1.173610278e-06 -7.828126579e-07)
(0.01099999906 -1.001952317e-09 -4.505644785e-10)
(0.01099999713 9.274670633e-11 -1.381493476e-10)
(0.01099999971 -8.134364373e-10 1.813345856e-10)
(0.01099999854 -3.649523311e-10 -2.213967732e-09)
(0.01099999732 -1.699345127e-09 -1.334564752e-09)
(0.01099999915 -1.590264182e-10 -3.612987967e-09)
(0.01099999369 -1.485513947e-09 -1.081721e-09)
(0.01099999119 -1.268989995e-09 -7.532884038e-09)
(0.01099998007 -1.125722647e-09 -1.271591916e-08)
(0.01099996838 6.963556267e-10 -2.89398114e-08)
(0.0109999301 -3.101310808e-09 -3.428723945e-08)
(0.0109998425 -5.599298074e-10 -1.176044651e-07)
(0.01099970044 -1.252092966e-10 -1.517094963e-07)
(0.01099904011 -9.279670061e-10 -5.656320251e-07)
(0.01099947017 -1.354961984e-09 -2.598663261e-06)
(0.01099999974 -1.366569336e-09 -2.148784476e-10)
(0.01099999891 5.270395641e-10 9.136821927e-10)
(0.0110000003 4.82144746e-10 4.229319266e-10)
(0.01099999911 4.771800213e-10 -9.980747391e-10)
(0.01099999881 1.328534771e-09 -6.10036359e-10)
(0.01099999747 6.138599442e-12 -7.438916982e-10)
(0.01099999616 8.056287209e-10 -3.812592475e-09)
(0.01099999421 3.273956827e-09 -6.663391908e-09)
(0.01099999096 6.054529253e-09 -9.374278029e-09)
(0.01099998724 1.56636237e-08 -2.119335159e-08)
(0.01099997497 2.923591383e-08 -2.148437091e-08)
(0.01099994777 7.315440547e-08 -6.334870585e-08)
(0.01099993346 1.488504251e-07 -5.551887074e-08)
(0.01099971574 2.831080196e-07 -1.643414091e-07)
(0.01099995086 1.174669798e-06 -7.82359526e-07)
(0.0110000005 1.468248903e-10 2.94068624e-10)
(0.01099999836 1.11802127e-10 9.283885496e-10)
(0.01099999971 5.833722923e-10 7.618222296e-10)
(0.01100000034 1.664322205e-10 6.795283625e-10)
(0.0109999981 -1.625759565e-09 -6.299119089e-10)
(0.01099999838 -1.338556784e-09 -6.210649878e-10)
(0.01099999616 2.690978983e-09 -8.464743313e-10)
(0.01099999683 4.522251946e-09 -5.549883523e-09)
(0.01099999768 8.247224392e-09 -9.079831768e-09)
(0.01099998995 1.626370951e-08 -1.82776505e-08)
(0.01099999303 2.439068465e-08 -2.67941639e-08)
(0.01099996019 5.10890213e-08 -5.351590267e-08)
(0.01099999393 8.975548019e-08 -8.989938385e-08)
(0.01099984124 1.278733377e-07 -1.287665835e-07)
(0.01100013003 5.219957325e-07 -5.223124454e-07)
(0.01100000024 4.651724241e-10 -1.101952993e-09)
(0.01099999816 -9.46718197e-11 -1.330441394e-09)
(0.0110000002 -4.605659376e-10 -7.93795974e-10)
(0.0109999977 -5.931241204e-10 1.311881559e-10)
(0.01099999857 -9.295549731e-10 -3.783924993e-10)
(0.0110000015 -2.567945027e-10 3.756501411e-10)
(0.01100000204 2.490709599e-09 -1.746420694e-09)
(0.01100000073 5.587027104e-09 -3.727076381e-09)
(0.01100000339 7.907312178e-09 -7.743476689e-09)
(0.0110000044 1.436479744e-08 -1.382012513e-08)
(0.01100001601 2.356582706e-08 -2.240739504e-08)
(0.01100000908 4.368157293e-08 -3.55676137e-08)
(0.01100006383 8.500072867e-08 -6.197021344e-08)
(0.01100002393 1.056124429e-07 -6.780729724e-08)
(0.0110002091 3.502731481e-07 -2.213046277e-07)
(0.01099999927 -5.665540367e-10 -1.640374916e-09)
(0.01099999871 -6.300775411e-10 3.306406759e-10)
(0.01100000063 -2.717475733e-10 -1.800298343e-09)
(0.01100000025 1.027204775e-09 4.919258635e-10)
(0.01099999632 2.434346661e-10 8.251884097e-10)
(0.01100000177 1.758145939e-10 -1.159805815e-09)
(0.0110000046 -1.977688224e-10 -1.184326384e-09)
(0.01100000341 6.555159359e-10 -2.666705561e-09)
(0.01100000921 2.569733221e-09 -6.634163949e-09)
(0.01100001106 6.214738298e-09 -1.204606154e-08)
(0.01100002839 9.465534069e-09 -2.036172641e-08)
(0.01100002877 1.426029492e-08 -3.10842254e-08)
(0.0110000837 2.659920519e-08 -5.396426728e-08)
(0.01100009027 2.504033097e-08 -5.639306021e-08)
(0.01100022305 8.801136831e-08 -1.37663895e-07)
(0.01099999932 -7.207450762e-10 4.080492787e-10)
(0.01099999678 -1.147273314e-09 -4.036864832e-10)
(0.01100000055 -1.926866055e-10 -5.104123303e-10)
(0.01100000043 2.532186387e-10 -9.227305578e-10)
(0.01099999969 -1.259466111e-09 -2.05339505e-09)
(0.01099999934 -7.819485813e-10 -1.91792798e-09)
(0.01099999956 -2.419151905e-09 -3.836877841e-10)
(0.01099999902 -1.185483125e-09 -3.341679498e-09)
(0.01100000466 -2.443698031e-09 -6.231868206e-09)
(0.01100000444 -5.147368632e-09 -9.944120382e-09)
(0.01100002077 -8.676101764e-09 -1.866242924e-08)
(0.01100001789 -1.561797961e-08 -3.078212893e-08)
(0.01100007276 -2.576174251e-08 -6.156555804e-08)
(0.01100005419 -2.906994717e-08 -7.528390489e-08)
(0.01099999859 -4.684708253e-11 1.674736227e-09)
(0.01099999991 -4.807069165e-11 -3.305749033e-10)
(0.01100000049 4.037072022e-10 3.578912379e-10)
(0.01099999932 5.617925973e-10 -5.246950793e-11)
(0.01099999963 -6.888623768e-10 -1.360343433e-09)
(0.01100000114 -2.570323038e-09 -3.827084956e-09)
(0.01099999842 -2.766409401e-09 -1.816710355e-09)
(0.01099999865 -6.516621992e-09 -4.291414219e-09)
(0.01099999742 -8.269138955e-09 -7.240505581e-09)
(0.01099999827 -1.701918362e-08 -1.203646292e-08)
(0.0110000071 -2.628404594e-08 -2.185213707e-08)
(0.01099999628 -5.308801843e-08 -4.286270193e-08)
(0.01100004446 -9.390375634e-08 -8.655197146e-08)
(0.01099996981 -1.359321285e-07 -1.199475512e-07)
(0.0109999999 -8.738730593e-10 1.145809715e-09)
(0.01099999948 1.203204306e-09 -1.776060732e-10)
(0.01099999742 1.495321345e-10 -4.250974123e-10)
(0.01099999735 -2.125591127e-09 -2.618532307e-09)
(0.01099999781 -1.395363233e-09 -1.528830378e-09)
(0.01099999756 -1.760204581e-09 -2.093055003e-09)
(0.01099999688 -4.024446734e-09 -2.176245115e-09)
(0.01099999412 -7.569048475e-09 -4.294019958e-09)
(0.01099999146 -1.1009663e-08 -5.611158861e-09)
(0.01099998579 -1.929434013e-08 -1.527874952e-08)
(0.01099997858 -2.079249887e-08 -2.690648595e-08)
(0.01099994936 -6.290622956e-08 -7.269378459e-08)
(0.01099993361 -5.659167669e-08 -1.473947661e-07)
(0.01099971217 -1.66391172e-07 -2.818071758e-07)
(0.01100000022 -2.129264226e-10 9.556916116e-10)
(0.01099999985 -2.284839424e-09 -2.232638699e-10)
(0.01099999783 -1.206597264e-09 2.851077056e-10)
(0.01099999878 -1.774543851e-09 9.160696377e-10)
(0.01099999708 -1.952578864e-09 -1.388824922e-09)
(0.01099999744 -2.387845236e-09 5.276419352e-10)
(0.01099999377 -2.622861822e-09 -1.490266359e-09)
(0.01099999448 -6.698572723e-09 -4.93714375e-09)
(0.01099998656 -8.337038818e-09 -8.453047685e-09)
(0.01099998471 -2.286607399e-08 -2.198247702e-08)
(0.01099995818 -2.968267471e-08 -3.037207422e-08)
(0.01099998299 -1.083196501e-07 -1.069236947e-07)
(0.01099980236 -1.521277202e-07 -1.508827518e-07)
(0.01099977913 -5.609809558e-07 -5.6009624e-07)
(0.01099874986 -2.494695102e-06 -2.493585161e-06)
(0.01100000122 -2.092735289e-09 5.94400732e-10)
(0.01099999849 -8.201053551e-10 1.678280083e-10)
(0.01099999987 -2.08192623e-09 3.827290816e-10)
(0.01099999698 -1.140402244e-09 -5.328738316e-10)
(0.01099999782 -3.044547449e-10 8.234864753e-10)
(0.01099999762 -1.870942199e-10 -4.549095598e-10)
(0.01099999115 -5.998752062e-11 -2.82161059e-09)
(0.01099998876 3.090972058e-10 -6.215822795e-09)
(0.01099996924 -1.160801658e-10 -9.007723312e-09)
(0.01099996528 -1.270624597e-09 -3.026131936e-08)
(0.01099987946 -2.184069761e-09 -4.551620012e-08)
(0.01099985007 -4.441161004e-10 -2.009300497e-07)
(0.01099922104 -1.074750265e-09 -3.695428007e-07)
(0.0109985861 -1.022273567e-09 -1.848790158e-06)
(0.01099443895 -1.286672273e-09 -1.163767819e-05)
(0.01100000085 -2.160397466e-10 -4.667650616e-10)
(0.01099999986 -1.292762421e-09 -3.118202242e-10)
(0.01100000054 2.905978019e-10 5.850988221e-10)
(0.01099999729 8.453322278e-10 -2.789291943e-10)
(0.01099999876 -3.722497726e-11 -3.682611341e-10)
(0.01099999616 5.302218368e-11 -1.444763557e-09)
(0.01099999378 1.584141769e-09 -1.525074914e-09)
(0.01099999169 3.94638814e-09 -5.88150003e-09)
(0.01099998395 7.734430488e-09 -8.457908687e-09)
(0.01099998525 2.087460167e-08 -2.118973794e-08)
(0.01099995634 2.736670463e-08 -2.991266453e-08)
(0.01099998317 1.052753845e-07 -1.068931056e-07)
(0.01099980229 1.493547711e-07 -1.544261844e-07)
(0.01099977981 5.575603656e-07 -5.618356981e-07)
(0.01099874917 2.490656109e-06 -2.49580741e-06)
(0.01099999967 -8.736295139e-10 8.212484389e-10)
(0.01100000096 5.466727791e-10 -3.408987685e-10)
(0.01099999932 -4.146331196e-10 -5.105637803e-10)
(0.01099999693 2.740848201e-10 -1.049286628e-09)
(0.01099999648 -1.269092138e-09 -1.39121885e-09)
(0.01100000011 -4.907066235e-10 -3.044704117e-10)
(0.010999994 2.965832417e-09 -1.127962453e-09)
(0.0109999954 5.981936503e-09 -4.067007821e-09)
(0.01099998842 7.326145082e-09 -7.021086229e-09)
(0.0109999852 1.987400858e-08 -1.726002316e-08)
(0.01099997644 2.033407644e-08 -2.866861391e-08)
(0.01099994908 6.126944002e-08 -7.349927178e-08)
(0.01099993589 5.596147003e-08 -1.504298145e-07)
(0.01099971436 1.633311575e-07 -2.855070854e-07)
(0.0109999502 7.826820517e-07 -1.176881992e-06)
(0.01100000009 4.480940635e-10 -8.399491257e-10)
(0.01099999874 -5.087382822e-10 -7.344688682e-10)
(0.01100000025 -2.80995688e-10 -4.535786461e-10)
(0.01099999934 -5.221378041e-10 -4.817864905e-10)
(0.01099999963 6.526062203e-10 4.73198144e-10)
(0.01099999998 5.538595991e-10 -1.22000091e-10)
(0.01100000082 1.894498337e-09 -1.305322526e-09)
(0.01099999838 5.159385897e-09 -3.318122067e-09)
(0.0110000011 8.867177225e-09 -5.78981979e-09)
(0.01100000029 1.75235979e-08 -1.089577423e-08)
(0.01100000714 2.402212904e-08 -2.218529668e-08)
(0.010999999 5.366545936e-08 -4.266355462e-08)
(0.01100004603 9.307246965e-08 -8.939138489e-08)
(0.0109999671 1.356593718e-07 -1.250293322e-07)
(0.01100020146 5.443429817e-07 -4.173185281e-07)
(0.01100000045 -7.856949961e-10 2.155310705e-10)
(0.01099999889 -4.209524553e-10 -1.753570276e-10)
(0.01099999748 7.078646729e-10 -1.391176964e-10)
(0.01100000141 -4.858044795e-10 -1.857761829e-09)
(0.01099999996 3.571960818e-10 -1.725779724e-10)
(0.01100000137 2.51231769e-11 -6.981711532e-11)
(0.01100000125 1.398585039e-09 -6.641027604e-10)
(0.01100000213 2.879000061e-09 -2.787697141e-09)
(0.01100000472 4.267842881e-09 -3.375175513e-09)
(0.01100000634 7.564712226e-09 -9.009414996e-09)
(0.01100002084 1.033085437e-08 -1.90725428e-08)
(0.01100001958 1.709559527e-08 -2.958109211e-08)
(0.01100007247 2.789731774e-08 -6.202911641e-08)
(0.0110000543 2.785781913e-08 -7.627381194e-08)
(0.01100022514 1.236886642e-07 -2.059669043e-07)
(0.01099999895 3.612079713e-10 -2.527989699e-10)
(0.01099999805 -1.87931592e-09 6.212838594e-10)
(0.01099999673 -2.61275452e-10 9.125595066e-10)
(0.01100000116 -1.15833236e-10 -1.557943344e-09)
(0.01099999783 -1.49446307e-09 -1.048991316e-09)
(0.01100000112 -1.050098219e-09 6.556502491e-10)
(0.01099999739 -4.465043836e-09 -4.510094648e-10)
(0.010999997 -7.467586836e-10 -1.027454602e-09)
(0.01099999777 -3.853715741e-09 6.337193412e-10)
(0.01099999839 -8.019371934e-09 1.348822611e-09)
(0.01100000549 -9.81246394e-09 -5.990801411e-10)
(0.01099998179 -2.276662479e-08 -3.966492716e-10)
(0.01100003238 -4.846603332e-08 -4.441908398e-10)
(0.01099994646 -7.011559517e-08 -1.070607309e-10)
(0.01099999945 2.174130426e-10 -1.544593128e-11)
(0.01099999876 -2.025562135e-10 -1.017558878e-09)
(0.01100000166 -8.42541919e-11 -1.063909007e-09)
(0.01099999901 -1.224022711e-09 -1.65420386e-09)
(0.01099999529 -1.203832053e-09 -5.429851553e-10)
(0.01099999829 -1.621563639e-09 -3.358758223e-11)
(0.01099999824 -3.202620281e-09 -6.034168961e-10)
(0.01099999481 -7.724409395e-09 -5.421766214e-10)
(0.01099999327 -8.681248513e-09 -6.077131847e-10)
(0.01099998768 -2.148092874e-08 -8.399677496e-10)
(0.01099998396 -3.403266946e-08 -1.320699994e-09)
(0.01099993957 -8.539942586e-08 -6.063238027e-10)
(0.01099996128 -1.722220106e-07 -4.44510804e-10)
(0.01099972718 -3.116908195e-07 -1.09152934e-10)
(0.01099999903 1.330783303e-10 -1.304220017e-10)
(0.01099999786 5.578440238e-10 -1.577839318e-09)
(0.01099999951 8.40723285e-11 -1.054410888e-09)
(0.01099999996 -1.550626169e-09 -7.529073908e-10)
(0.01100000039 6.829463598e-10 -1.330697939e-10)
(0.01099999733 -5.712085586e-10 -4.628728242e-10)
(0.01099999357 -3.587691458e-09 6.553827448e-10)
(0.01099999055 -6.945056782e-09 6.11854511e-10)
(0.01099997915 -1.260952137e-08 7.89976886e-10)
(0.01099996692 -2.8426705e-08 -1.04749637e-09)
(0.01099992905 -3.443567189e-08 -9.822126349e-10)
(0.01099984488 -1.179465287e-07 -2.046508714e-10)
(0.01099970109 -1.535409017e-07 -2.469005236e-09)
(0.01099903799 -5.680276973e-07 1.786194774e-11)
(0.01099999693 -1.310038707e-09 1.078170074e-09)
(0.01100000044 -1.461372053e-10 1.878925907e-10)
(0.01099999908 -1.068804363e-09 -8.271879087e-10)
(0.01099999818 4.287106223e-10 9.774054319e-12)
(0.01099999805 -1.079191057e-09 4.076202016e-11)
(0.010999996 -2.042130841e-09 3.04154448e-10)
(0.01099999213 -2.596691644e-09 4.479602589e-10)
(0.0109999865 -8.241794171e-09 1.0261052e-09)
(0.01099997235 -1.195970722e-08 7.753680736e-10)
(0.01099996272 -3.234545387e-08 -1.255949557e-09)
(0.01099988026 -4.81499308e-08 -3.157725405e-10)
(0.01099984827 -2.010651178e-07 2.790808899e-10)
(0.01099922404 -3.712572046e-07 -1.512209412e-09)
(0.01099858495 -1.849627437e-06 -7.672721081e-10)
(0.01100000037 -1.087739075e-09 6.193138539e-10)
(0.01099999962 -1.50500286e-09 2.85923017e-09)
(0.01099999897 1.531455257e-10 1.288117651e-09)