/*--------------------------------*- C++ -*----------------------------------*\
| =========                 |                                                 |
| \\      /  F ield         | OpenFOAM: The Open Source CFD Toolbox           |
|  \\    /   O peration     | Version:  4.x                                   |
|   \\  /    A nd           | Web:      www.OpenFOAM.org                      |
|    \\/     M anipulation  |                                                 |
\*---------------------------------------------------------------------------*/
FoamFile
{
    version     2.0;
    format      ascii;
    class       volScalarField;
    location    "5000";
    object      X_CO2;
}
// * * * * * * * * * * * * * * * * * * * * * * * * * * * * * * * * * * * * * //

dimensions      [0 0 0 0 0 0 0];

internalField   nonuniform List<scalar> 
1175
(
0.04000731934
0.04000731934
0.04000731934
0.04000731935
0.04000731937
0.04000731944
0.04000731969
0.04000732048
0.04000732294
0.0400073302
0.0400073505
0.04000740351
0.04000753091
0.04000780818
0.04000834639
0.04000731934
0.04000731934
0.04000731934
0.04000731935
0.04000731938
0.04000731947
0.0400073198
0.04000732089
0.0400073244
0.0400073352
0.04000736664
0.04000745198
0.04000766408
0.04000813559
0.04000905062
0.04000731934
0.04000731934
0.04000731934
0.04000731935
0.04000731939
0.04000731952
0.04000731999
0.04000732162
0.04000732709
0.0400073447
0.0400073984
0.04000755106
0.04000794644
0.04000885079
0.0400106096
0.04000731934
0.04000731934
0.04000731934
0.04000731935
0.0400073194
0.04000731957
0.04000732019
0.0400073224
0.04000733009
0.04000735577
0.0400074374
0.04000767979
0.04000833474
0.0400098839
0.04001291737
0.04000731934
0.04000731934
0.04000731934
0.04000731936
0.0400073194
0.04000731959
0.04000732028
0.04000732277
0.04000733155
0.04000736149
0.04000745892
0.04000775645
0.04000858626
0.04001060966
0.04001462009
0.04000731934
0.04000731934
0.04000731934
0.04000731935
0.0400073194
0.04000731957
0.04000732019
0.0400073224
0.04000733009
0.04000735577
0.0400074374
0.04000767978
0.04000833473
0.04000988389
0.04001291734
0.04000731934
0.04000731934
0.04000731934
0.04000731935
0.04000731939
0.04000731952
0.04000731999
0.04000732162
0.04000732709
0.0400073447
0.04000739839
0.04000755106
0.04000794643
0.04000885076
0.04001060955
0.04000731934
0.04000731934
0.04000731934
0.04000731935
0.04000731938
0.04000731947
0.0400073198
0.04000732089
0.0400073244
0.0400073352
0.04000736664
0.04000745198
0.04000766407
0.04000813556
0.04000905058
0.04000731934
0.04000731934
0.04000731934
0.04000731935
0.04000731937
0.04000731944
0.04000731969
0.04000732048
0.04000732294
0.0400073302
0.0400073505
0.04000740351
0.04000753091
0.04000780817
0.04000834635
0.04000731934
0.04000731934
0.04000731934
0.04000731935
0.04000731938
0.04000731947
0.0400073198
0.04000732089
0.0400073244
0.0400073352
0.04000736664
0.04000745199
0.04000766409
0.0400081356
0.04000731934
0.04000731934
0.04000731934
0.04000731935
0.04000731939
0.04000731951
0.04000731997
0.04000732155
0.04000732687
0.04000734414
0.04000739722
0.04000754943
0.04000794689
0.04000886158
0.04001064192
0.04000731934
0.04000731934
0.04000731934
0.04000731935
0.0400073194
0.04000731959
0.04000732027
0.04000732276
0.04000733165
0.04000736219
0.04000746215
0.04000776782
0.04000861652
0.04001066492
0.04001469162
0.04000731934
0.04000731934
0.04000731934
0.04000731936
0.04000731942
0.04000731966
0.04000732059
0.04000732414
0.04000733735
0.04000738514
0.04000755094
0.04000809168
0.04000969817
0.04001381991
0.04002211903
0.04000731934
0.04000731934
0.04000731934
0.04000731936
0.04000731943
0.0400073197
0.04000732075
0.04000732482
0.04000734037
0.04000739832
0.04000760713
0.04000832165
0.04001057357
0.04001674481
0.04002973505
0.04000731934
0.04000731934
0.04000731934
0.04000731936
0.04000731942
0.04000731966
0.04000732059
0.04000732414
0.04000733735
0.04000738514
0.04000755093
0.04000809168
0.04000969815
0.04001381985
0.04002211889
0.04000731934
0.04000731934
0.04000731934
0.04000731935
0.0400073194
0.04000731959
0.04000732027
0.04000732276
0.04000733165
0.04000736219
0.04000746214
0.04000776781
0.04000861649
0.04001066484
0.04001469145
0.04000731934
0.04000731934
0.04000731934
0.04000731935
0.04000731939
0.04000731951
0.04000731997
0.04000732155
0.04000732687
0.04000734414
0.04000739722
0.04000754942
0.04000794687
0.04000886153
0.04001064178
0.04000731934
0.04000731934
0.04000731934
0.04000731935
0.04000731938
0.04000731947
0.0400073198
0.04000732089
0.0400073244
0.0400073352
0.04000736664
0.04000745198
0.04000766407
0.04000813557
0.04000905058
0.04000731934
0.04000731934
0.04000731934
0.04000731935
0.04000731939
0.04000731952
0.04000731999
0.04000732162
0.04000732709
0.0400073447
0.0400073984
0.04000755107
0.04000794645
0.04000885083
0.04000731934
0.04000731934
0.04000731934
0.04000731935
0.0400073194
0.04000731959
0.04000732027
0.04000732276
0.04000733165
0.04000736219
0.04000746215
0.04000776782
0.04000861654
0.040010665
0.04000731934
0.04000731934
0.04000731934
0.04000731936
0.04000731943
0.04000731971
0.04000732079
0.04000732498
0.04000734095
0.04000740001
0.0400076094
0.04000830666
0.04001041689
0.04001590733
0.04002700886
0.04000731934
0.04000731934
0.04000731935
0.04000731937
0.04000731946
0.04000731983
0.04000732137
0.04000732765
0.04000735294
0.04000745294
0.04000783627
0.04000923269
0.04001390564
0.04002737795
0.04005642782
0.04000731934
0.04000731934
0.04000731935
0.04000731937
0.04000731947
0.04000731989
0.04000732167
0.04000732907
0.04000735992
0.0400074873
0.04000800438
0.04001003713
0.04001755524
0.04004213939
0.04010223816
0.04000731934
0.04000731934
0.04000731935
0.04000731937
0.04000731946
0.04000731983
0.04000732137
0.04000732765
0.04000735294
0.04000745294
0.04000783626
0.04000923266
0.04001390552
0.04002737758
0.04005642689
0.04000731934
0.04000731934
0.04000731934
0.04000731936
0.04000731943
0.04000731971
0.04000732079
0.04000732498
0.04000734095
0.04000740001
0.04000760939
0.04000830664
0.04001041679
0.04001590704
0.0400270081
0.04000731934
0.04000731934
0.04000731934
0.04000731935
0.0400073194
0.04000731959
0.04000732027
0.04000732276
0.04000733165
0.04000736219
0.04000746214
0.04000776781
0.04000861649
0.04001066484
0.04001469144
0.04000731934
0.04000731934
0.04000731934
0.04000731935
0.04000731939
0.04000731952
0.04000731999
0.04000732162
0.04000732709
0.0400073447
0.04000739839
0.04000755106
0.04000794643
0.04000885077
0.04001060955
0.04000731934
0.04000731934
0.04000731934
0.04000731935
0.0400073194
0.04000731957
0.04000732019
0.0400073224
0.04000733009
0.04000735577
0.0400074374
0.04000767979
0.04000833476
0.04000988398
0.04000731934
0.04000731934
0.04000731934
0.04000731936
0.04000731942
0.04000731966
0.04000732059
0.04000732414
0.04000733735
0.04000738514
0.04000755094
0.0400080917
0.04000969823
0.04001382011
0.04000731934
0.04000731934
0.04000731935
0.04000731937
0.04000731946
0.04000731983
0.04000732137
0.04000732765
0.04000735294
0.04000745295
0.04000783627
0.04000923272
0.04001390575
0.04002737846
0.04000731934
0.04000731934
0.04000731935
0.04000731938
0.0400073195
0.04000732003
0.0400073223
0.04000733211
0.04000737457
0.04000755736
0.04000833355
0.040011531
0.04002391552
0.04006612918
0.04017218058
0.04000731934
0.04000731934
0.04000731935
0.04000731938
0.04000731952
0.04000732012
0.04000732278
0.04000733467
0.04000738846
0.0400076347
0.0400087726
0.04001404357
0.04003807499
0.04014085098
0.04049146556
0.04000731934
0.04000731934
0.04000731935
0.04000731938
0.0400073195
0.04000732003
0.0400073223
0.04000733211
0.04000737457
0.04000755736
0.04000833352
0.04001153089
0.04002391508
0.04006612753
0.04017217538
0.04000731934
0.04000731934
0.04000731935
0.04000731937
0.04000731946
0.04000731983
0.04000732137
0.04000732765
0.04000735294
0.04000745294
0.04000783626
0.04000923267
0.04001390555
0.04002737765
0.040056427
0.04000731934
0.04000731934
0.04000731934
0.04000731936
0.04000731942
0.04000731966
0.04000732059
0.04000732414
0.04000733735
0.04000738514
0.04000755093
0.04000809168
0.04000969815
0.04001381984
0.04002211886
0.04000731934
0.04000731934
0.04000731934
0.04000731935
0.0400073194
0.04000731957
0.04000732019
0.0400073224
0.04000733009
0.04000735577
0.0400074374
0.04000767979
0.04000833473
0.04000988389
0.04001291733
0.04000731934
0.04000731934
0.04000731934
0.04000731936
0.0400073194
0.04000731959
0.04000732028
0.04000732277
0.04000733155
0.04000736149
0.04000745893
0.04000775646
0.0400085863
0.04001060976
0.04000731934
0.04000731934
0.04000731934
0.04000731936
0.04000731943
0.0400073197
0.04000732075
0.04000732482
0.04000734037
0.04000739832
0.04000760713
0.04000832167
0.04001057366
0.04001674508
0.04000731934
0.04000731934
0.04000731935
0.04000731937
0.04000731947
0.04000731989
0.04000732167
0.04000732907
0.04000735992
0.0400074873
0.04000800439
0.04001003719
0.04001755549
0.04004214042
0.04000731934
0.04000731934
0.04000731935
0.04000731938
0.04000731952
0.04000732012
0.04000732278
0.04000733467
0.04000738846
0.0400076347
0.04000877262
0.04001404368
0.04003807562
0.04014085504
0.04000731934
0.04000731934
0.04000731935
0.04000731938
0.04000731954
0.04000732023
0.04000732338
0.04000733805
0.0400074083
0.04000775737
0.04000957536
0.04001961192
0.04007896527
0.04045770972
0.04308641992
0.04000731934
0.04000731934
0.04000731935
0.04000731938
0.04000731952
0.04000732012
0.04000732278
0.04000733467
0.04000738846
0.0400076347
0.0400087726
0.04001404357
0.04003807498
0.04014085098
0.04049146567
0.04000731934
0.04000731934
0.04000731935
0.04000731937
0.04000731947
0.04000731989
0.04000732167
0.04000732907
0.04000735992
0.0400074873
0.04000800438
0.04001003714
0.04001755526
0.04004213944
0.04010223821
0.04000731934
0.04000731934
0.04000731934
0.04000731936
0.04000731943
0.0400073197
0.04000732075
0.04000732482
0.04000734037
0.04000739832
0.04000760713
0.04000832165
0.04001057356
0.0400167448
0.040029735
0.04000731934
0.04000731934
0.04000731934
0.04000731936
0.0400073194
0.04000731959
0.04000732028
0.04000732277
0.04000733155
0.04000736149
0.04000745893
0.04000775645
0.04000858627
0.04001060966
0.04001462009
0.04000731934
0.04000731934
0.04000731934
0.04000731935
0.0400073194
0.04000731957
0.04000732019
0.0400073224
0.04000733009
0.04000735577
0.0400074374
0.0400076798
0.04000833476
0.04000988397
0.04000731934
0.04000731934
0.04000731934
0.04000731936
0.04000731942
0.04000731966
0.04000732059
0.04000732414
0.04000733735
0.04000738514
0.04000755094
0.0400080917
0.04000969822
0.04001382005
0.04000731934
0.04000731934
0.04000731935
0.04000731937
0.04000731946
0.04000731983
0.04000732137
0.04000732765
0.04000735294
0.04000745295
0.04000783627
0.04000923272
0.04001390574
0.04002737827
0.04000731934
0.04000731934
0.04000731935
0.04000731938
0.0400073195
0.04000732003
0.0400073223
0.04000733211
0.04000737457
0.04000755736
0.04000833355
0.04001153103
0.04002391565
0.04006612963
0.04000731934
0.04000731934
0.04000731935
0.04000731938
0.04000731952
0.04000732012
0.04000732278
0.04000733467
0.04000738846
0.04000763471
0.04000877262
0.0400140437
0.04003807568
0.04014085511
0.04000731934
0.04000731934
0.04000731935
0.04000731938
0.0400073195
0.04000732003
0.0400073223
0.04000733211
0.04000737457
0.04000755736
0.04000833355
0.04001153101
0.04002391557
0.04006612955
0.04000731934
0.04000731934
0.04000731935
0.04000731937
0.04000731946
0.04000731983
0.04000732137
0.04000732765
0.04000735294
0.04000745294
0.04000783627
0.0400092327
0.04001390569
0.04002737812
0.04005642831
0.04000731934
0.04000731934
0.04000731934
0.04000731936
0.04000731942
0.04000731966
0.04000732059
0.04000732414
0.04000733735
0.04000738514
0.04000755094
0.04000809169
0.04000969819
0.04001381997
0.04002211912
0.04000731934
0.04000731934
0.04000731934
0.04000731935
0.0400073194
0.04000731957
0.04000732019
0.0400073224
0.04000733009
0.04000735577
0.0400074374
0.04000767979
0.04000833475
0.04000988392
0.0400129174
0.04000731934
0.04000731934
0.04000731934
0.04000731935
0.04000731939
0.04000731952
0.04000731999
0.04000732162
0.04000732709
0.0400073447
0.0400073984
0.04000755107
0.04000794645
0.04000885082
0.04000731934
0.04000731934
0.04000731934
0.04000731936
0.0400073194
0.04000731959
0.04000732027
0.04000732276
0.04000733165
0.04000736219
0.04000746215
0.04000776782
0.04000861654
0.04001066496
0.04000731934
0.04000731934
0.04000731934
0.04000731936
0.04000731943
0.04000731971
0.04000732079
0.04000732498
0.04000734095
0.04000740001
0.0400076094
0.04000830667
0.0400104169
0.04001590734
0.04000731934
0.04000731934
0.04000731935
0.04000731937
0.04000731946
0.04000731983
0.04000732137
0.04000732765
0.04000735294
0.04000745295
0.04000783628
0.04000923273
0.04001390578
0.04002737833
0.04000731934
0.04000731934
0.04000731935
0.04000731937
0.04000731947
0.04000731989
0.04000732167
0.04000732907
0.04000735992
0.0400074873
0.0400080044
0.04001003721
0.04001755556
0.0400421405
0.04000731934
0.04000731934
0.04000731935
0.04000731937
0.04000731946
0.04000731983
0.04000732137
0.04000732765
0.04000735294
0.04000745295
0.04000783627
0.04000923272
0.04001390575
0.04002737826
0.04000731934
0.04000731934
0.04000731934
0.04000731936
0.04000731943
0.04000731971
0.04000732079
0.04000732498
0.04000734095
0.04000740001
0.0400076094
0.04000830667
0.0400104169
0.04001590739
0.04000731934
0.04000731934
0.04000731934
0.04000731935
0.0400073194
0.04000731959
0.04000732027
0.04000732276
0.04000733165
0.04000736219
0.04000746215
0.04000776782
0.04000861653
0.04001066495
0.04001469171
0.04000731934
0.04000731934
0.04000731934
0.04000731935
0.04000731939
0.04000731952
0.04000731999
0.04000732162
0.04000732709
0.0400073447
0.0400073984
0.04000755106
0.04000794644
0.04000885081
0.04001060963
0.04000731934
0.04000731934
0.04000731934
0.04000731935
0.04000731938
0.04000731947
0.0400073198
0.04000732089
0.0400073244
0.0400073352
0.04000736664
0.04000745199
0.04000766408
0.04000813559
0.04000731934
0.04000731934
0.04000731934
0.04000731935
0.04000731939
0.04000731951
0.04000731997
0.04000732155
0.04000732688
0.04000734414
0.04000739722
0.04000754943
0.04000794689
0.04000886158
0.04000731934
0.04000731934
0.04000731934
0.04000731935
0.0400073194
0.04000731959
0.04000732027
0.04000732276
0.04000733165
0.04000736219
0.04000746215
0.04000776783
0.04000861654
0.04001066496
0.04000731934
0.04000731934
0.04000731934
0.04000731936
0.04000731942
0.04000731966
0.04000732059
0.04000732414
0.04000733735
0.04000738514
0.04000755094
0.0400080917
0.04000969823
0.04001382007
0.04000731934
0.04000731934
0.04000731934
0.04000731936
0.04000731943
0.0400073197
0.04000732075
0.04000732482
0.04000734037
0.04000739832
0.04000760713
0.04000832168
0.04001057367
0.04001674508
0.04000731934
0.04000731934
0.04000731934
0.04000731936
0.04000731942
0.04000731966
0.04000732059
0.04000732414
0.04000733735
0.04000738514
0.04000755094
0.0400080917
0.04000969823
0.04001382006
0.04000731934
0.04000731934
0.04000731934
0.04000731936
0.0400073194
0.04000731959
0.04000732027
0.04000732276
0.04000733165
0.04000736219
0.04000746215
0.04000776782
0.04000861654
0.04001066496
0.04000731934
0.04000731934
0.04000731934
0.04000731935
0.04000731939
0.04000731951
0.04000731997
0.04000732155
0.04000732687
0.04000734414
0.04000739722
0.04000754943
0.04000794689
0.04000886159
0.04000731934
0.04000731934
0.04000731934
0.04000731935
0.04000731938
0.04000731947
0.0400073198
0.04000732089
0.0400073244
0.0400073352
0.04000736664
0.04000745199
0.04000766408
0.04000813559
0.04000905064
0.04000731934
0.04000731934
0.04000731934
0.04000731935
0.04000731937
0.04000731944
0.04000731969
0.04000732048
0.04000732294
0.0400073302
0.0400073505
0.04000740351
0.04000753091
0.04000780818
0.04000731934
0.04000731934
0.04000731934
0.04000731935
0.04000731938
0.04000731947
0.0400073198
0.04000732089
0.0400073244
0.0400073352
0.04000736664
0.04000745199
0.04000766409
0.04000813559
0.04000731934
0.04000731934
0.04000731934
0.04000731935
0.04000731939
0.04000731952
0.04000731999
0.04000732162
0.04000732709
0.0400073447
0.0400073984
0.04000755107
0.04000794645
0.04000885082
0.04000731934
0.04000731934
0.04000731934
0.04000731935
0.0400073194
0.04000731957
0.04000732019
0.0400073224
0.04000733009
0.04000735577
0.04000743741
0.0400076798
0.04000833477
0.04000988398
0.04000731934
0.04000731934
0.04000731934
0.04000731936
0.0400073194
0.04000731959
0.04000732028
0.04000732277
0.04000733155
0.04000736149
0.04000745893
0.04000775646
0.0400085863
0.04001060976
0.04000731934
0.04000731934
0.04000731934
0.04000731935
0.0400073194
0.04000731957
0.04000732019
0.0400073224
0.04000733009
0.04000735577
0.0400074374
0.0400076798
0.04000833476
0.04000988397
0.04000731934
0.04000731934
0.04000731934
0.04000731935
0.04000731939
0.04000731952
0.04000731999
0.04000732162
0.04000732709
0.0400073447
0.0400073984
0.04000755106
0.04000794645
0.04000885081
0.04000731934
0.04000731934
0.04000731934
0.04000731935
0.04000731938
0.04000731947
0.0400073198
0.04000732089
0.0400073244
0.0400073352
0.04000736664
0.04000745199
0.04000766409
0.0400081356
0.04000731934
0.04000731934
0.04000731934
0.04000731935
0.04000731937
0.04000731944
0.04000731969
0.04000732048
0.04000732294
0.0400073302
0.0400073505
0.04000740351
0.04000753091
0.04000780819
)
;

boundaryField
{
    top
    {
        type            calculated;
        value           nonuniform List<scalar> 
134
(
0.04000731934
0.04000731934
0.04000731934
0.04000731934
0.04000731934
0.04000731934
0.04000731934
0.04000731934
0.04000731934
0.04000731934
0.04000731934
0.04000731934
0.04000731934
0.04000731934
0.04000731934
0.04000731934
0.04000731934
0.04000731934
0.04000731934
0.04000731934
0.04000731934
0.04000731934
0.04000731934
0.04000731934
0.04000731934
0.04000731934
0.04000731934
0.04000731935
0.04000731935
0.04000731935
0.04000731935
0.04000731936
0.04000731935
0.04000731935
0.04000731935
0.04000731935
0.04000731937
0.04000731938
0.04000731939
0.0400073194
0.0400073194
0.0400073194
0.04000731939
0.04000731938
0.04000731937
0.04000731944
0.04000731947
0.04000731952
0.04000731957
0.04000731959
0.04000731957
0.04000731952
0.04000731947
0.04000731944
0.04000731969
0.0400073198
0.04000731999
0.04000732019
0.04000732028
0.04000732019
0.04000731999
0.0400073198
0.04000731969
0.04000732048
0.04000732089
0.04000732162
0.0400073224
0.04000732277
0.0400073224
0.04000732162
0.04000732089
0.04000732048
0.04000732294
0.0400073244
0.04000732709
0.04000733009
0.04000733155
0.04000733009
0.04000732709
0.0400073244
0.04000732294
0.0400073302
0.0400073352
0.0400073447
0.04000735577
0.04000736149
0.04000735577
0.0400073447
0.0400073352
0.0400073302
0.0400073505
0.04000736664
0.04000739839
0.0400074374
0.04000745893
0.0400074374
0.0400073984
0.04000736664
0.0400073505
0.04000740351
0.04000745198
0.04000755106
0.04000767979
0.04000775645
0.04000767979
0.04000755106
0.04000745199
0.04000740351
0.04000753091
0.04000766407
0.04000794643
0.04000833473
0.04000858627
0.04000833475
0.04000794644
0.04000766408
0.04000753091
0.04000780817
0.04000813557
0.04000885077
0.04000988389
0.04001060966
0.04000988392
0.04000885081
0.04000813559
0.04000780819
0.04000834635
0.04000905058
0.04001060955
0.04001291733
0.04001462009
0.0400129174
0.04001060963
0.04000905064
)
;
    }
    bottom
    {
        type            calculated;
        value           nonuniform List<scalar> 
127
(
0.04000731934
0.04000731934
0.04000731934
0.04000731934
0.04000731934
0.04000731934
0.04000731934
0.04000731934
0.04000731934
0.04000731934
0.04000731934
0.04000731934
0.04000731934
0.04000731934
0.04000731934
0.04000731934
0.04000731934
0.04000731934
0.04000731934
0.04000731934
0.04000731934
0.04000731934
0.04000731934
0.04000731934
0.04000731934
0.04000731934
0.04000731934
0.04000731935
0.04000731935
0.04000731935
0.04000731935
0.04000731936
0.04000731935
0.04000731935
0.04000731935
0.04000731935
0.04000731937
0.04000731938
0.04000731939
0.0400073194
0.0400073194
0.0400073194
0.04000731939
0.04000731938
0.04000731937
0.04000731944
0.04000731947
0.04000731952
0.04000731957
0.04000731959
0.04000731957
0.04000731952
0.04000731947
0.04000731944
0.04000731969
0.0400073198
0.04000731999
0.04000732019
0.04000732028
0.04000732019
0.04000731999
0.0400073198
0.04000731969
0.04000732048
0.04000732089
0.04000732162
0.0400073224
0.04000732277
0.0400073224
0.04000732162
0.04000732089
0.04000732048
0.04000732294
0.0400073244
0.04000732709
0.04000733009
0.04000733155
0.04000733009
0.04000732709
0.0400073244
0.04000732294
0.0400073302
0.0400073352
0.0400073447
0.04000735577
0.04000736149
0.04000735577
0.0400073447
0.0400073352
0.0400073302
0.0400073505
0.04000736664
0.0400073984
0.0400074374
0.04000745893
0.0400074374
0.0400073984
0.04000736664
0.0400073505
0.04000740351
0.04000745199
0.04000755107
0.04000767979
0.04000775646
0.0400076798
0.04000755107
0.04000745199
0.04000740351
0.04000753091
0.04000766409
0.04000794645
0.04000833476
0.0400085863
0.04000833476
0.04000794645
0.04000766408
0.04000753091
0.04000780818
0.0400081356
0.04000885083
0.04000988398
0.04001060976
0.04000988397
0.04000885082
0.04000813559
0.04000780818
0.04000834639
)
;
    }
    side-walls
    {
        type            calculated;
        value           nonuniform List<scalar> 
261
(
0.04000731934
0.04000731934
0.04000731934
0.04000731934
0.04000731934
0.04000731934
0.04000731934
0.04000731934
0.04000731934
0.04000731934
0.04000731934
0.04000731934
0.04000731934
0.04000731934
0.04000731934
0.04000731934
0.04000731934
0.04000731934
0.04000731934
0.04000731934
0.04000731934
0.04000731934
0.04000731934
0.04000731934
0.04000731934
0.04000731934
0.04000731934
0.04000731935
0.04000731935
0.04000731935
0.04000731935
0.04000731936
0.04000731935
0.04000731935
0.04000731935
0.04000731935
0.04000731937
0.04000731938
0.04000731939
0.0400073194
0.0400073194
0.0400073194
0.04000731939
0.04000731938
0.04000731937
0.04000731944
0.04000731947
0.04000731952
0.04000731957
0.04000731959
0.04000731957
0.04000731952
0.04000731947
0.04000731944
0.04000731969
0.0400073198
0.04000731999
0.04000732019
0.04000732028
0.04000732019
0.04000731999
0.0400073198
0.04000731969
0.04000732048
0.04000732089
0.04000732162
0.0400073224
0.04000732277
0.0400073224
0.04000732162
0.04000732089
0.04000732048
0.04000732294
0.0400073244
0.04000732709
0.04000733009
0.04000733155
0.04000733009
0.04000732709
0.0400073244
0.04000732294
0.0400073302
0.0400073352
0.0400073447
0.04000735577
0.04000736149
0.04000735577
0.0400073447
0.0400073352
0.0400073302
0.0400073505
0.04000736664
0.0400073984
0.0400074374
0.04000745892
0.0400074374
0.04000739839
0.04000736664
0.0400073505
0.04000740351
0.04000745198
0.04000755106
0.04000767979
0.04000775645
0.04000767978
0.04000755106
0.04000745198
0.04000740351
0.04000753091
0.04000766408
0.04000794644
0.04000833474
0.04000858626
0.04000833473
0.04000794643
0.04000766407
0.04000753091
0.04000780818
0.04000813559
0.04000885079
0.0400098839
0.04001060966
0.04000988389
0.04000885076
0.04000813556
0.04000780817
0.04000834639
0.04000905062
0.0400106096
0.04001291737
0.04001462009
0.04001291734
0.04001060955
0.04000905058
0.04000834635
0.04000731934
0.04000731934
0.04000731934
0.04000731934
0.04000731934
0.04000731934
0.04000731934
0.04000731934
0.04000731934
0.04000731934
0.04000731934
0.04000731934
0.04000731934
0.04000731934
0.04000731934
0.04000731934
0.04000731934
0.04000731934
0.04000731934
0.04000731934
0.04000731934
0.04000731934
0.04000731934
0.04000731934
0.04000731934
0.04000731934
0.04000731934
0.04000731935
0.04000731935
0.04000731935
0.04000731935
0.04000731936
0.04000731935
0.04000731935
0.04000731935
0.04000731935
0.04000731937
0.04000731938
0.04000731939
0.0400073194
0.0400073194
0.0400073194
0.04000731939
0.04000731938
0.04000731937
0.04000731944
0.04000731947
0.04000731952
0.04000731957
0.04000731959
0.04000731957
0.04000731952
0.04000731947
0.04000731944
0.04000731969
0.0400073198
0.04000731999
0.04000732019
0.04000732028
0.04000732019
0.04000731999
0.0400073198
0.04000731969
0.04000732048
0.04000732089
0.04000732162
0.0400073224
0.04000732277
0.0400073224
0.04000732162
0.04000732089
0.04000732048
0.04000732294
0.0400073244
0.04000732709
0.04000733009
0.04000733155
0.04000733009
0.04000732709
0.0400073244
0.04000732294
0.0400073302
0.0400073352
0.0400073447
0.04000735577
0.04000736149
0.04000735577
0.0400073447
0.0400073352
0.0400073302
0.0400073505
0.04000736664
0.0400073984
0.04000743741
0.04000745893
0.0400074374
0.0400073984
0.04000736664
0.0400073505
0.04000740351
0.04000745199
0.04000755107
0.0400076798
0.04000775646
0.0400076798
0.04000755106
0.04000745199
0.04000740351
0.04000753091
0.04000766409
0.04000794645
0.04000833477
0.0400085863
0.04000833476
0.04000794645
0.04000766409
0.04000753091
0.04000780818
0.04000813559
0.04000885082
0.04000988398
0.04001060976
0.04000988397
0.04000885081
0.0400081356
0.04000780819
)
;
    }
    inlet
    {
        type            calculated;
        value           nonuniform List<scalar> 
81
(
0.04000731934
0.04000731934
0.04000731934
0.04000731934
0.04000731934
0.04000731934
0.04000731934
0.04000731934
0.04000731934
0.04000731934
0.04000731934
0.04000731934
0.04000731934
0.04000731934
0.04000731934
0.04000731934
0.04000731934
0.04000731934
0.04000731934
0.04000731934
0.04000731934
0.04000731934
0.04000731934
0.04000731934
0.04000731934
0.04000731934
0.04000731934
0.04000731934
0.04000731934
0.04000731934
0.04000731934
0.04000731934
0.04000731934
0.04000731934
0.04000731934
0.04000731934
0.04000731934
0.04000731934
0.04000731934
0.04000731934
0.04000731934
0.04000731934
0.04000731934
0.04000731934
0.04000731934
0.04000731934
0.04000731934
0.04000731934
0.04000731934
0.04000731934
0.04000731934
0.04000731934
0.04000731934
0.04000731934
0.04000731934
0.04000731934
0.04000731934
0.04000731934
0.04000731934
0.04000731934
0.04000731934
0.04000731934
0.04000731934
0.04000731934
0.04000731934
0.04000731934
0.04000731934
0.04000731934
0.04000731934
0.04000731934
0.04000731934
0.04000731934
0.04000731934
0.04000731934
0.04000731934
0.04000731934
0.04000731934
0.04000731934
0.04000731934
0.04000731934
0.04000731934
)
;
    }
    outlet
    {
        type            calculated;
        value           nonuniform 0();
    }
    procBoundary0to1
    {
        type            processor;
        value           nonuniform List<scalar> 
97
(
0.04000927165
0.04000905065
0.04001057929
0.04001343586
0.04001756231
0.0400204611
0.04001756226
0.04001343577
0.04001057921
0.04000927159
0.04000905065
0.04000905065
0.04001347898
0.04001469176
0.04002068207
0.04003328487
0.04004496888
0.04003328468
0.04002068182
0.04001347881
0.04001057921
0.04001060966
0.04001469176
0.04001469176
0.04004162362
0.04005642872
0.04008745283
0.04014644509
0.04008745178
0.04004162275
0.0400206818
0.04001343577
0.04001291745
0.0400221193
0.04005642872
0.04005642872
0.04024234352
0.04049146772
0.04054130054
0.04024233961
0.04008745184
0.0400332846
0.04001756224
0.04001462019
0.04002973532
0.04010223902
0.04049146772
0.04049146772
0.04181543456
0.04049146759
0.04054130004
0.04017217771
0.04014644486
0.04004496871
0.04002046106
0.04001291742
0.04002211909
0.04005642769
0.04017217738
0.04049146759
0.04017217771
0.04017217771
0.04008745282
0.04002700872
0.04003328489
0.04001756232
0.0400106096
0.04001469156
0.04002700842
0.04005642775
0.040102239
0.04005642759
0.04002700872
0.04002700872
0.04002068208
0.0400106419
0.04001343587
0.0400090506
0.04001064183
0.04001469157
0.04002211911
0.04002973526
0.04002211909
0.04001469159
0.0400106419
0.0400106419
0.04001057928
0.04000834638
0.04000834636
0.04000905061
0.04001060961
0.04001291742
0.04001462016
0.0400129174
0.0400106096
0.04000905062
0.04000834638
)
;
    }
}


// ************************************************************************* //
