/*--------------------------------*- C++ -*----------------------------------*\
| =========                 |                                                 |
| \\      /  F ield         | OpenFOAM: The Open Source CFD Toolbox           |
|  \\    /   O peration     | Version:  4.x                                   |
|   \\  /    A nd           | Web:      www.OpenFOAM.org                      |
|    \\/     M anipulation  |                                                 |
\*---------------------------------------------------------------------------*/
FoamFile
{
    version     2.0;
    format      ascii;
    class       volScalarField;
    location    "5000";
    object      X_H2O;
}
// * * * * * * * * * * * * * * * * * * * * * * * * * * * * * * * * * * * * * //

dimensions      [0 0 0 0 0 0 0];

internalField   nonuniform List<scalar> 
1175
(
1.504117322e-05
1.5041174e-05
1.504117665e-05
1.504118209e-05
1.504120401e-05
1.504127431e-05
1.504150857e-05
1.504226652e-05
1.504461561e-05
1.505155598e-05
1.507096024e-05
1.512162956e-05
1.524342168e-05
1.550851713e-05
1.602315939e-05
1.504117406e-05
1.504117453e-05
1.504117606e-05
1.504118274e-05
1.504120974e-05
1.504130137e-05
1.504161413e-05
1.504265924e-05
1.504601512e-05
1.505633639e-05
1.508638377e-05
1.516797145e-05
1.537074766e-05
1.582158355e-05
1.669662507e-05
1.504117568e-05
1.504117628e-05
1.504117864e-05
1.504118729e-05
1.504122082e-05
1.504134769e-05
1.504179674e-05
1.504335567e-05
1.50485836e-05
1.506541139e-05
1.511674575e-05
1.526269928e-05
1.564072934e-05
1.650550501e-05
1.818757312e-05
1.504117643e-05
1.504117661e-05
1.504117965e-05
1.504119078e-05
1.504123279e-05
1.50413954e-05
1.504198781e-05
1.504410472e-05
1.50514487e-05
1.507599646e-05
1.515403805e-05
1.538577891e-05
1.601203277e-05
1.749349241e-05
2.039476224e-05
1.504117518e-05
1.504117671e-05
1.504118059e-05
1.504119213e-05
1.504123864e-05
1.504141675e-05
1.504207353e-05
1.504445376e-05
1.50528485e-05
1.508146716e-05
1.517461728e-05
1.545908471e-05
1.625256597e-05
1.818758592e-05
2.202337303e-05
1.50411759e-05
1.504117674e-05
1.504117924e-05
1.504119161e-05
1.504123428e-05
1.504139553e-05
1.504198843e-05
1.504410239e-05
1.505144821e-05
1.507599597e-05
1.515403689e-05
1.538577555e-05
1.601202559e-05
1.749346167e-05
2.039468363e-05
1.504117574e-05
1.504117615e-05
1.504117875e-05
1.504118839e-05
1.504122184e-05
1.504134885e-05
1.504179806e-05
1.504335611e-05
1.504858406e-05
1.506541236e-05
1.511674298e-05
1.526269125e-05
1.564070906e-05
1.650544638e-05
1.81874398e-05
1.50411742e-05
1.504117303e-05
1.504117562e-05
1.504118363e-05
1.504121105e-05
1.504130179e-05
1.504161562e-05
1.504265846e-05
1.504601378e-05
1.505633353e-05
1.508638131e-05
1.51679636e-05
1.537072514e-05
1.582152514e-05
1.669649231e-05
1.50411747e-05
1.504117424e-05
1.504117541e-05
1.504118159e-05
1.504120211e-05
1.504127436e-05
1.504150925e-05
1.504226788e-05
1.504461489e-05
1.50515535e-05
1.507095884e-05
1.512162131e-05
1.524340074e-05
1.550846294e-05
1.60230303e-05
1.504117412e-05
1.504117388e-05
1.504117599e-05
1.504118291e-05
1.504120995e-05
1.504130127e-05
1.504161309e-05
1.504265736e-05
1.504601429e-05
1.50563365e-05
1.508638605e-05
1.51679781e-05
1.537077113e-05
1.58216711e-05
1.504117518e-05
1.504117535e-05
1.504117863e-05
1.504118749e-05
1.504121938e-05
1.504134252e-05
1.50417778e-05
1.504328686e-05
1.504837828e-05
1.506488316e-05
1.51156276e-05
1.526115238e-05
1.56412018e-05
1.651594746e-05
1.821878707e-05
1.504117573e-05
1.504117499e-05
1.50411799e-05
1.504119082e-05
1.504123866e-05
1.504141304e-05
1.504206551e-05
1.504445087e-05
1.505294268e-05
1.508213699e-05
1.517770338e-05
1.546997546e-05
1.628156496e-05
1.824062149e-05
2.209220571e-05
1.504117712e-05
1.504117632e-05
1.504118104e-05
1.504119627e-05
1.504125388e-05
1.504148616e-05
1.504237709e-05
1.504576607e-05
1.505839078e-05
1.510407796e-05
1.526260067e-05
1.577967557e-05
1.73160003e-05
2.125815973e-05
2.919673594e-05
1.504117644e-05
1.504117807e-05
1.504118198e-05
1.504119672e-05
1.504126273e-05
1.504151738e-05
1.504252296e-05
1.504641953e-05
1.506127761e-05
1.511667884e-05
1.531633199e-05
1.599959788e-05
1.815323114e-05
2.405577004e-05
3.648201661e-05
1.504117656e-05
1.504117693e-05
1.504118156e-05
1.504119683e-05
1.5041255e-05
1.504148691e-05
1.504237818e-05
1.504576633e-05
1.505839231e-05
1.510407891e-05
1.526259899e-05
1.577966673e-05
1.731596012e-05
2.125801488e-05
2.919634278e-05
1.504117567e-05
1.504117674e-05
1.504117898e-05
1.504119084e-05
1.504123714e-05
1.504141321e-05
1.504206528e-05
1.504444814e-05
1.505294223e-05
1.508213537e-05
1.517769807e-05
1.546996012e-05
1.628150445e-05
1.824042272e-05
2.209170751e-05
1.504117594e-05
1.504117497e-05
1.504117576e-05
1.504118619e-05
1.50412206e-05
1.504134152e-05
1.504177676e-05
1.504328594e-05
1.504837881e-05
1.506487883e-05
1.511562197e-05
1.526113559e-05
1.564114859e-05
1.651577963e-05
1.821833887e-05
1.50411734e-05
1.504117222e-05
1.504117527e-05
1.50411831e-05
1.504120865e-05
1.504130222e-05
1.504161571e-05
1.504265891e-05
1.504601329e-05
1.50563351e-05
1.508638206e-05
1.5167965e-05
1.537072877e-05
1.582153149e-05
1.669650123e-05
1.504117515e-05
1.504117482e-05
1.504117644e-05
1.50411867e-05
1.504121996e-05
1.504134612e-05
1.504179827e-05
1.504335578e-05
1.504858423e-05
1.506541379e-05
1.511675122e-05
1.526271909e-05
1.564079984e-05
1.650573098e-05
1.504117501e-05
1.504117542e-05
1.504117785e-05
1.50411905e-05
1.504123688e-05
1.504141204e-05
1.504206446e-05
1.50444491e-05
1.50529441e-05
1.508213797e-05
1.517770812e-05
1.546999865e-05
1.628165451e-05
1.824098636e-05
1.50411759e-05
1.504117779e-05
1.504118095e-05
1.504119782e-05
1.504126507e-05
1.504152552e-05
1.504255877e-05
1.50465702e-05
1.506183657e-05
1.511829866e-05
1.531851065e-05
1.598529694e-05
1.800351027e-05
2.325523245e-05
3.387571761e-05
1.504117723e-05
1.504117808e-05
1.504118195e-05
1.504120395e-05
1.504128965e-05
1.504164777e-05
1.504312077e-05
1.504912126e-05
1.507329786e-05
1.516891551e-05
1.553546228e-05
1.687091133e-05
2.134030045e-05
3.42271679e-05
6.20182694e-05
1.504117752e-05
1.504117791e-05
1.504118377e-05
1.504120717e-05
1.504130158e-05
1.504170562e-05
1.504340062e-05
1.505048136e-05
1.507997391e-05
1.520176699e-05
1.56962353e-05
1.764028634e-05
2.483108225e-05
4.834732772e-05
0.0001058422604
1.504117691e-05
1.504117683e-05
1.504118084e-05
1.504120448e-05
1.504129057e-05
1.504164874e-05
1.504312016e-05
1.504912058e-05
1.507329964e-05
1.516891254e-05
1.553545266e-05
1.687086651e-05
2.134009492e-05
3.422633937e-05
6.201579597e-05
1.504117675e-05
1.504117755e-05
1.504118156e-05
1.504119649e-05
1.504126262e-05
1.504152572e-05
1.504256147e-05
1.504657151e-05
1.506183658e-05
1.511829772e-05
1.531850157e-05
1.598524856e-05
1.800329535e-05
2.32543999e-05
3.387319295e-05
1.504117471e-05
1.504117536e-05
1.504117793e-05
1.504119027e-05
1.504123629e-05
1.504141012e-05
1.504206486e-05
1.50444491e-05
1.505294339e-05
1.508213599e-05
1.517769917e-05
1.546996495e-05
1.628151655e-05
1.824043975e-05
2.209171218e-05
1.50411746e-05
1.504117401e-05
1.504117652e-05
1.504118694e-05
1.504122094e-05
1.504134822e-05
1.5041798e-05
1.504335608e-05
1.504858418e-05
1.506541159e-05
1.5116744e-05
1.526269638e-05
1.564071901e-05
1.650546339e-05
1.818745554e-05
1.504117543e-05
1.504117653e-05
1.504117961e-05
1.504119145e-05
1.504123324e-05
1.504139574e-05
1.504198858e-05
1.50441039e-05
1.505144802e-05
1.507600126e-05
1.51540494e-05
1.538582191e-05
1.60121789e-05
1.749393307e-05
1.504117525e-05
1.504117521e-05
1.504118036e-05
1.504119532e-05
1.504125237e-05
1.504148352e-05
1.50423767e-05
1.504576545e-05
1.505839224e-05
1.510408434e-05
1.526262105e-05
1.577975095e-05
1.731628703e-05
2.125918308e-05
1.50411767e-05
1.50411768e-05
1.504118362e-05
1.504120418e-05
1.504129078e-05
1.504164743e-05
1.504311903e-05
1.504911936e-05
1.507329899e-05
1.516891871e-05
1.553548311e-05
1.687102042e-05
2.134080318e-05
3.422953022e-05
1.504117723e-05
1.504117879e-05
1.504118571e-05
1.504121208e-05
1.504132762e-05
1.50418311e-05
1.504400137e-05
1.505338279e-05
1.509397848e-05
1.526877238e-05
1.601105635e-05
1.906920958e-05
3.091546194e-05
7.129907853e-05
0.0001727672948
1.5041178e-05
1.504117819e-05
1.504118382e-05
1.504121594e-05
1.504134592e-05
1.504192164e-05
1.504446452e-05
1.505583023e-05
1.510726606e-05
1.534273302e-05
1.643097226e-05
2.147244072e-05
4.445975423e-05
0.0001427794593
0.000478223977
1.504117622e-05
1.50411777e-05
1.504118311e-05
1.504121175e-05
1.50413287e-05
1.504183138e-05
1.504400253e-05
1.505338546e-05
1.509397956e-05
1.526876473e-05
1.601102659e-05
1.906904744e-05
3.09146221e-05
7.1294938e-05
0.0001727505364
1.504117597e-05
1.504117647e-05
1.504118226e-05
1.504120363e-05
1.504129085e-05
1.504164928e-05
1.504312153e-05
1.504911951e-05
1.507329942e-05
1.516891606e-05
1.553546412e-05
1.687090583e-05
2.13402095e-05
3.422658876e-05
6.201599279e-05
1.504117497e-05
1.504117634e-05
1.504117849e-05
1.504119307e-05
1.504125175e-05
1.504148367e-05
1.504237414e-05
1.504576253e-05
1.505839013e-05
1.510407861e-05
1.526260386e-05
1.577968646e-05
1.731601136e-05
2.125809605e-05
2.919637665e-05
1.504117439e-05
1.504117623e-05
1.504117853e-05
1.504118871e-05
1.504123162e-05
1.504139313e-05
1.504198575e-05
1.504410156e-05
1.505144699e-05
1.507599607e-05
1.515403878e-05
1.538578645e-05
1.601205164e-05
1.749350301e-05
2.039471227e-05
1.50411763e-05
1.504117659e-05
1.50411809e-05
1.504119107e-05
1.504123922e-05
1.504141692e-05
1.504207425e-05
1.504445239e-05
1.505284965e-05
1.508147178e-05
1.5174632e-05
1.545914653e-05
1.625277289e-05
1.818820488e-05
1.504117504e-05
1.504117726e-05
1.504117809e-05
1.504119719e-05
1.504126257e-05
1.504151874e-05
1.504252502e-05
1.504641938e-05
1.506128031e-05
1.511668663e-05
1.531636434e-05
1.599972321e-05
1.815372024e-05
2.405749203e-05
1.50411771e-05
1.504117595e-05
1.504118093e-05
1.504120418e-05
1.504130136e-05
1.50417074e-05
1.504339921e-05
1.505048114e-05
1.507997597e-05
1.520177693e-05
1.5696293e-05
1.764056491e-05
2.483240553e-05
4.835331681e-05
1.504117615e-05
1.504117671e-05
1.50411845e-05
1.504121413e-05
1.504134546e-05
1.504192054e-05
1.504446304e-05
1.505583085e-05
1.510726654e-05
1.534274387e-05
1.643104684e-05
2.14728794e-05
4.446249994e-05
0.0001427978045
1.50411765e-05
1.504117782e-05
1.504118487e-05
1.504121932e-05
1.504136606e-05
1.504202813e-05
1.504504035e-05
1.505906589e-05
1.512624118e-05
1.546006239e-05
1.719884293e-05
2.679915414e-05
8.357808907e-05
0.000445924843
0.002961008817
1.504117781e-05
1.504117843e-05
1.504118433e-05
1.504121445e-05
1.504134651e-05
1.504192212e-05
1.504446541e-05
1.505583176e-05
1.510726719e-05
1.53427401e-05
1.643100957e-05
2.147261825e-05
4.446056237e-05
0.0001427824602
0.0004782265737
1.504117629e-05
1.504117745e-05
1.504118182e-05
1.504120656e-05
1.504130308e-05
1.504170687e-05
1.504340123e-05
1.505048055e-05
1.507997406e-05
1.520177171e-05
1.569626429e-05
1.764040195e-05
2.483146997e-05
4.834830517e-05
0.0001058428988
1.504117545e-05
1.504117617e-05
1.504118002e-05
1.504119634e-05
1.504126139e-05
1.504151719e-05
1.504252089e-05
1.50464166e-05
1.506127814e-05
1.511668218e-05
1.531634347e-05
1.599964224e-05
1.815335275e-05
2.405600996e-05
3.648214831e-05
1.504117561e-05
1.504117671e-05
1.504118033e-05
1.504119032e-05
1.504123832e-05
1.504141529e-05
1.50420722e-05
1.504445231e-05
1.505284686e-05
1.508146766e-05
1.517462243e-05
1.54591068e-05
1.625261932e-05
1.81876818e-05
2.202344836e-05
1.504117552e-05
1.504117496e-05
1.504117814e-05
1.504119106e-05
1.504123476e-05
1.504139607e-05
1.50419874e-05
1.504410334e-05
1.505144602e-05
1.507600061e-05
1.515405256e-05
1.538583137e-05
1.601219906e-05
1.749395168e-05
1.504117513e-05
1.504117704e-05
1.504117948e-05
1.504119526e-05
1.504125467e-05
1.504148585e-05
1.504237706e-05
1.504576498e-05
1.505839112e-05
1.510408455e-05
1.52626283e-05
1.57797764e-05
1.731634615e-05
2.125922704e-05
1.504117754e-05
1.504117724e-05
1.504118177e-05
1.504120225e-05
1.504128978e-05
1.504164933e-05
1.5043121e-05
1.50491196e-05
1.507329936e-05
1.516892564e-05
1.553551034e-05
1.687111883e-05
2.134111127e-05
3.423003349e-05
1.504117709e-05
1.504117676e-05
1.504118266e-05
1.504120926e-05
1.504132794e-05
1.504183127e-05
1.504400123e-05
1.505338611e-05
1.509398287e-05
1.526878398e-05
1.601112077e-05
1.906951041e-05
3.091684414e-05
7.130492319e-05
1.504117824e-05
1.504117805e-05
1.504118434e-05
1.504121454e-05
1.504134714e-05
1.504192054e-05
1.504446519e-05
1.505583309e-05
1.510727042e-05
1.534275377e-05
1.643108677e-05
2.147306806e-05
4.446329354e-05
0.0001428003798
1.504117673e-05
1.50411764e-05
1.504118271e-05
1.504121007e-05
1.504132796e-05
1.504183175e-05
1.504400317e-05
1.50533851e-05
1.509398305e-05
1.526878053e-05
1.601110629e-05
1.906942621e-05
3.091639486e-05
7.13032161e-05
1.504117456e-05
1.504117698e-05
1.504118239e-05
1.504120333e-05
1.504128868e-05
1.504164812e-05
1.504312075e-05
1.504912041e-05
1.507330089e-05
1.516892221e-05
1.553549529e-05
1.687103935e-05
2.134072408e-05
3.422838327e-05
6.202157045e-05
1.50411744e-05
1.504117624e-05
1.504117867e-05
1.504119454e-05
1.504125352e-05
1.504148316e-05
1.504237506e-05
1.504576418e-05
1.505839069e-05
1.510408165e-05
1.526261679e-05
1.577972891e-05
1.73161473e-05
2.125849709e-05
2.91972744e-05
1.504117498e-05
1.504117541e-05
1.504117858e-05
1.504118886e-05
1.504123197e-05
1.504139527e-05
1.504198693e-05
1.50441032e-05
1.505144614e-05
1.507599779e-05
1.5154045e-05
1.538580318e-05
1.60120956e-05
1.749360946e-05
2.039490804e-05
1.504117487e-05
1.50411755e-05
1.50411774e-05
1.504118539e-05
1.504122119e-05
1.504134695e-05
1.504179724e-05
1.504335633e-05
1.504858333e-05
1.506541393e-05
1.511675447e-05
1.526272978e-05
1.564082015e-05
1.650574285e-05
1.504117544e-05
1.504117681e-05
1.50411799e-05
1.504118983e-05
1.504123597e-05
1.504141118e-05
1.504206294e-05
1.504444875e-05
1.505294377e-05
1.508214118e-05
1.517771898e-05
1.547003026e-05
1.628172897e-05
1.824105913e-05
1.504117428e-05
1.504117556e-05
1.504117963e-05
1.504119572e-05
1.504126059e-05
1.504152643e-05
1.504256073e-05
1.504657098e-05
1.506183823e-05
1.511830718e-05
1.531853885e-05
1.598539148e-05
1.800380367e-05
2.32559959e-05
1.504117481e-05
1.504117555e-05
1.504118133e-05
1.504120234e-05
1.504128845e-05
1.50416496e-05
1.504312144e-05
1.504911975e-05
1.507329955e-05
1.516892835e-05
1.553552188e-05
1.687115339e-05
2.13411936e-05
3.423013104e-05
1.504117546e-05
1.504117724e-05
1.50411828e-05
1.504120502e-05
1.504130142e-05
1.504170697e-05
1.504340082e-05
1.505047984e-05
1.507997677e-05
1.520178678e-05
1.569632304e-05
1.764067506e-05
2.483271774e-05
4.835374284e-05
1.504117391e-05
1.504117577e-05
1.504118032e-05
1.504120047e-05
1.50412902e-05
1.504164681e-05
1.504311922e-05
1.504911952e-05
1.507330192e-05
1.516892751e-05
1.553551404e-05
1.68711201e-05
2.134106159e-05
3.422973122e-05
1.504117399e-05
1.50411753e-05
1.504117867e-05
1.504119556e-05
1.504126205e-05
1.504152553e-05
1.504255856e-05
1.504657075e-05
1.506183989e-05
1.511830605e-05
1.531853252e-05
1.598536519e-05
1.800371099e-05
2.325583704e-05
1.504117457e-05
1.504117405e-05
1.504117744e-05
1.504119024e-05
1.504123587e-05
1.504141087e-05
1.504206336e-05
1.504444751e-05
1.505294387e-05
1.508213924e-05
1.51777127e-05
1.547001053e-05
1.628165829e-05
1.824083723e-05
2.209269663e-05
1.504117448e-05
1.504117564e-05
1.504117634e-05
1.504118566e-05
1.504122215e-05
1.50413481e-05
1.504179751e-05
1.504335594e-05
1.504858529e-05
1.506541395e-05
1.511675175e-05
1.526271665e-05
1.564077112e-05
1.650559129e-05
1.818769902e-05
1.504117472e-05
1.504117437e-05
1.504117688e-05
1.504118297e-05
1.504120737e-05
1.504129915e-05
1.504161248e-05
1.504265689e-05
1.504601288e-05
1.505633385e-05
1.508638825e-05
1.516798684e-05
1.537078906e-05
1.582168211e-05
1.504117342e-05
1.50411743e-05
1.504117791e-05
1.504118456e-05
1.504121867e-05
1.504134123e-05
1.504177323e-05
1.504328227e-05
1.504837609e-05
1.506488166e-05
1.511563231e-05
1.526117258e-05
1.564125798e-05
1.651607034e-05
1.504117369e-05
1.504117489e-05
1.504117819e-05
1.504119037e-05
1.504123567e-05
1.504141213e-05
1.50420637e-05
1.504444826e-05
1.505294442e-05
1.508214138e-05
1.517771984e-05
1.547003324e-05
1.62817395e-05
1.824107121e-05
1.504117455e-05
1.504117597e-05
1.504117881e-05
1.504119388e-05
1.504125155e-05
1.504148339e-05
1.504237558e-05
1.50457618e-05
1.505838978e-05
1.510408705e-05
1.5262636e-05
1.57797962e-05
1.731638942e-05
2.125926849e-05
1.504117619e-05
1.50411756e-05
1.504118106e-05
1.504119656e-05
1.504125934e-05
1.504151687e-05
1.504252249e-05
1.504641856e-05
1.506128163e-05
1.511669121e-05
1.531637776e-05
1.599976308e-05
1.815380413e-05
2.405754636e-05
1.504117461e-05
1.50411746e-05
1.504117743e-05
1.504119264e-05
1.50412524e-05
1.504148364e-05
1.504237458e-05
1.504576459e-05
1.505839187e-05
1.510408661e-05
1.526263275e-05
1.57797863e-05
1.731635714e-05
2.125917165e-05
1.504117224e-05
1.504117501e-05
1.504117712e-05
1.504118957e-05
1.504123607e-05
1.504141161e-05
1.504206336e-05
1.504444877e-05
1.505294503e-05
1.508214013e-05
1.517771643e-05
1.547002298e-05
1.628170636e-05
1.824101236e-05
1.504117424e-05
1.504117444e-05
1.504117695e-05
1.504118518e-05
1.504121829e-05
1.504133939e-05
1.504177305e-05
1.504328426e-05
1.504837897e-05
1.506488484e-05
1.511563263e-05
1.52611659e-05
1.564123993e-05
1.651604977e-05
1.504117241e-05
1.504117307e-05
1.504117635e-05
1.504118356e-05
1.504120847e-05
1.504129988e-05
1.504161462e-05
1.504265582e-05
1.504601283e-05
1.50563373e-05
1.508638746e-05
1.516797994e-05
1.537076944e-05
1.582163539e-05
1.66967314e-05
1.504117451e-05
1.504117407e-05
1.5041177e-05
1.504118304e-05
1.504120294e-05
1.504127285e-05
1.50415088e-05
1.504226625e-05
1.504461346e-05
1.505155496e-05
1.507096131e-05
1.512163653e-05
1.524343972e-05
1.550855593e-05
1.50411754e-05
1.504117463e-05
1.504117632e-05
1.504118265e-05
1.504121029e-05
1.504130155e-05
1.504161406e-05
1.504265801e-05
1.504601384e-05
1.505633626e-05
1.508638922e-05
1.516798782e-05
1.537079156e-05
1.582168648e-05
1.504117323e-05
1.504117497e-05
1.504117475e-05
1.504118667e-05
1.504122227e-05
1.504134663e-05
1.504179769e-05
1.504335536e-05
1.504858519e-05
1.50654153e-05
1.511675743e-05
1.526273394e-05
1.56408307e-05
1.650575672e-05
1.504117465e-05
1.504117585e-05
1.504117764e-05
1.504118886e-05
1.504123253e-05
1.504139345e-05
1.504198768e-05
1.504410293e-05
1.505144823e-05
1.507600201e-05
1.515405694e-05
1.538583969e-05
1.601221732e-05
1.749396596e-05
1.504117465e-05
1.504117503e-05
1.504117683e-05
1.50411901e-05
1.504123687e-05
1.504141479e-05
1.504207186e-05
1.50444515e-05
1.505284858e-05
1.508147417e-05
1.517464013e-05
1.545916401e-05
1.625280355e-05
1.818821803e-05
1.504117285e-05
1.504117437e-05
1.504117811e-05
1.504118827e-05
1.504123214e-05
1.504139467e-05
1.504198614e-05
1.504410175e-05
1.505144808e-05
1.507600228e-05
1.515405605e-05
1.538583721e-05
1.60122032e-05
1.749392707e-05
1.504117378e-05
1.504117593e-05
1.50411774e-05
1.504118508e-05
1.504122136e-05
1.504134658e-05
1.504179754e-05
1.504335607e-05
1.504858433e-05
1.506541493e-05
1.511675512e-05
1.526272982e-05
1.564081556e-05
1.650571977e-05
1.504117405e-05
1.504117382e-05
1.504117551e-05
1.50411821e-05
1.504120909e-05
1.504130104e-05
1.504161117e-05
1.504265548e-05
1.50460133e-05
1.505633749e-05
1.508638961e-05
1.516798361e-05
1.537078241e-05
1.582167566e-05
1.504117333e-05
1.504117316e-05
1.504117526e-05
1.504118073e-05
1.504120123e-05
1.504127394e-05
1.504150963e-05
1.504226764e-05
1.504461483e-05
1.50515554e-05
1.507096004e-05
1.512163296e-05
1.524343306e-05
1.550855564e-05
)
;

boundaryField
{
    top
    {
        type            calculated;
        value           nonuniform List<scalar> 
134
(
1.50411747e-05
1.50411734e-05
1.50411746e-05
1.504117439e-05
1.504117561e-05
1.504117498e-05
1.504117448e-05
1.504117241e-05
1.504117333e-05
1.504117424e-05
1.504117222e-05
1.504117401e-05
1.504117623e-05
1.504117671e-05
1.504117541e-05
1.504117564e-05
1.504117307e-05
1.504117316e-05
1.504117541e-05
1.504117527e-05
1.504117652e-05
1.504117853e-05
1.504118033e-05
1.504117858e-05
1.504117634e-05
1.504117635e-05
1.504117526e-05
1.504118159e-05
1.50411831e-05
1.504118694e-05
1.504118871e-05
1.504119032e-05
1.504118886e-05
1.504118566e-05
1.504118356e-05
1.504118073e-05
1.504120211e-05
1.504120865e-05
1.504122094e-05
1.504123162e-05
1.504123832e-05
1.504123197e-05
1.504122215e-05
1.504120847e-05
1.504120123e-05
1.504127436e-05
1.504130222e-05
1.504134822e-05
1.504139313e-05
1.504141529e-05
1.504139527e-05
1.50413481e-05
1.504129988e-05
1.504127394e-05
1.504150925e-05
1.504161571e-05
1.5041798e-05
1.504198575e-05
1.50420722e-05
1.504198693e-05
1.504179751e-05
1.504161462e-05
1.504150963e-05
1.504226788e-05
1.504265891e-05
1.504335608e-05
1.504410156e-05
1.504445231e-05
1.50441032e-05
1.504335594e-05
1.504265582e-05
1.504226764e-05
1.504461489e-05
1.504601329e-05
1.504858418e-05
1.505144699e-05
1.505284686e-05
1.505144614e-05
1.504858529e-05
1.504601283e-05
1.504461483e-05
1.50515535e-05
1.50563351e-05
1.506541159e-05
1.507599607e-05
1.508146766e-05
1.507599779e-05
1.506541395e-05
1.50563373e-05
1.50515554e-05
1.507095884e-05
1.508638206e-05
1.5116744e-05
1.515403878e-05
1.517462243e-05
1.5154045e-05
1.511675175e-05
1.508638746e-05
1.507096004e-05
1.512162131e-05
1.5167965e-05
1.526269638e-05
1.538578645e-05
1.54591068e-05
1.538580318e-05
1.526271665e-05
1.516797994e-05
1.512163296e-05
1.524340074e-05
1.537072877e-05
1.564071901e-05
1.601205164e-05
1.625261932e-05
1.60120956e-05
1.564077112e-05
1.537076944e-05
1.524343306e-05
1.550846294e-05
1.582153149e-05
1.650546339e-05
1.749350301e-05
1.81876818e-05
1.749360946e-05
1.650559129e-05
1.582163539e-05
1.550855564e-05
1.60230303e-05
1.669650123e-05
1.818745554e-05
2.039471227e-05
2.202344836e-05
2.039490804e-05
1.818769902e-05
1.66967314e-05
)
;
    }
    bottom
    {
        type            calculated;
        value           nonuniform List<scalar> 
127
(
1.504117322e-05
1.504117412e-05
1.504117515e-05
1.504117543e-05
1.50411763e-05
1.504117552e-05
1.504117487e-05
1.504117472e-05
1.504117451e-05
1.5041174e-05
1.504117388e-05
1.504117482e-05
1.504117653e-05
1.504117659e-05
1.504117496e-05
1.50411755e-05
1.504117437e-05
1.504117407e-05
1.504117665e-05
1.504117599e-05
1.504117644e-05
1.504117961e-05
1.50411809e-05
1.504117814e-05
1.50411774e-05
1.504117688e-05
1.5041177e-05
1.504118209e-05
1.504118291e-05
1.50411867e-05
1.504119145e-05
1.504119107e-05
1.504119106e-05
1.504118539e-05
1.504118297e-05
1.504118304e-05
1.504120401e-05
1.504120995e-05
1.504121996e-05
1.504123324e-05
1.504123922e-05
1.504123476e-05
1.504122119e-05
1.504120737e-05
1.504120294e-05
1.504127431e-05
1.504130127e-05
1.504134612e-05
1.504139574e-05
1.504141692e-05
1.504139607e-05
1.504134695e-05
1.504129915e-05
1.504127285e-05
1.504150857e-05
1.504161309e-05
1.504179827e-05
1.504198858e-05
1.504207425e-05
1.50419874e-05
1.504179724e-05
1.504161248e-05
1.50415088e-05
1.504226652e-05
1.504265736e-05
1.504335578e-05
1.50441039e-05
1.504445239e-05
1.504410334e-05
1.504335633e-05
1.504265689e-05
1.504226625e-05
1.504461561e-05
1.504601429e-05
1.504858423e-05
1.505144802e-05
1.505284965e-05
1.505144602e-05
1.504858333e-05
1.504601288e-05
1.504461346e-05
1.505155598e-05
1.50563365e-05
1.506541379e-05
1.507600126e-05
1.508147178e-05
1.507600061e-05
1.506541393e-05
1.505633385e-05
1.505155496e-05
1.507096024e-05
1.508638605e-05
1.511675122e-05
1.51540494e-05
1.5174632e-05
1.515405256e-05
1.511675447e-05
1.508638825e-05
1.507096131e-05
1.512162956e-05
1.51679781e-05
1.526271909e-05
1.538582191e-05
1.545914653e-05
1.538583137e-05
1.526272978e-05
1.516798684e-05
1.512163653e-05
1.524342168e-05
1.537077113e-05
1.564079984e-05
1.60121789e-05
1.625277289e-05
1.601219906e-05
1.564082015e-05
1.537078906e-05
1.524343972e-05
1.550851713e-05
1.58216711e-05
1.650573098e-05
1.749393307e-05
1.818820488e-05
1.749395168e-05
1.650574285e-05
1.582168211e-05
1.550855593e-05
1.602315939e-05
)
;
    }
    side-walls
    {
        type            calculated;
        value           nonuniform List<scalar> 
261
(
1.504117322e-05
1.504117406e-05
1.504117568e-05
1.504117643e-05
1.504117518e-05
1.50411759e-05
1.504117574e-05
1.50411742e-05
1.50411747e-05
1.5041174e-05
1.504117453e-05
1.504117628e-05
1.504117661e-05
1.504117671e-05
1.504117674e-05
1.504117615e-05
1.504117303e-05
1.504117424e-05
1.504117665e-05
1.504117606e-05
1.504117864e-05
1.504117965e-05
1.504118059e-05
1.504117924e-05
1.504117875e-05
1.504117562e-05
1.504117541e-05
1.504118209e-05
1.504118274e-05
1.504118729e-05
1.504119078e-05
1.504119213e-05
1.504119161e-05
1.504118839e-05
1.504118363e-05
1.504118159e-05
1.504120401e-05
1.504120974e-05
1.504122082e-05
1.504123279e-05
1.504123864e-05
1.504123428e-05
1.504122184e-05
1.504121105e-05
1.504120211e-05
1.504127431e-05
1.504130137e-05
1.504134769e-05
1.50413954e-05
1.504141675e-05
1.504139553e-05
1.504134885e-05
1.504130179e-05
1.504127436e-05
1.504150857e-05
1.504161413e-05
1.504179674e-05
1.504198781e-05
1.504207353e-05
1.504198843e-05
1.504179806e-05
1.504161562e-05
1.504150925e-05
1.504226652e-05
1.504265924e-05
1.504335567e-05
1.504410472e-05
1.504445376e-05
1.504410239e-05
1.504335611e-05
1.504265846e-05
1.504226788e-05
1.504461561e-05
1.504601512e-05
1.50485836e-05
1.50514487e-05
1.50528485e-05
1.505144821e-05
1.504858406e-05
1.504601378e-05
1.504461489e-05
1.505155598e-05
1.505633639e-05
1.506541139e-05
1.507599646e-05
1.508146716e-05
1.507599597e-05
1.506541236e-05
1.505633353e-05
1.50515535e-05
1.507096024e-05
1.508638377e-05
1.511674575e-05
1.515403805e-05
1.517461728e-05
1.515403689e-05
1.511674298e-05
1.508638131e-05
1.507095884e-05
1.512162956e-05
1.516797145e-05
1.526269928e-05
1.538577891e-05
1.545908471e-05
1.538577555e-05
1.526269125e-05
1.51679636e-05
1.512162131e-05
1.524342168e-05
1.537074766e-05
1.564072934e-05
1.601203277e-05
1.625256597e-05
1.601202559e-05
1.564070906e-05
1.537072514e-05
1.524340074e-05
1.550851713e-05
1.582158355e-05
1.650550501e-05
1.749349241e-05
1.818758592e-05
1.749346167e-05
1.650544638e-05
1.582152514e-05
1.550846294e-05
1.602315939e-05
1.669662507e-05
1.818757312e-05
2.039476224e-05
2.202337303e-05
2.039468363e-05
1.81874398e-05
1.669649231e-05
1.60230303e-05
1.504117451e-05
1.50411754e-05
1.504117323e-05
1.504117465e-05
1.504117465e-05
1.504117285e-05
1.504117378e-05
1.504117405e-05
1.504117333e-05
1.504117407e-05
1.504117463e-05
1.504117497e-05
1.504117585e-05
1.504117503e-05
1.504117437e-05
1.504117593e-05
1.504117382e-05
1.504117316e-05
1.5041177e-05
1.504117632e-05
1.504117475e-05
1.504117764e-05
1.504117683e-05
1.504117811e-05
1.50411774e-05
1.504117551e-05
1.504117526e-05
1.504118304e-05
1.504118265e-05
1.504118667e-05
1.504118886e-05
1.50411901e-05
1.504118827e-05
1.504118508e-05
1.50411821e-05
1.504118073e-05
1.504120294e-05
1.504121029e-05
1.504122227e-05
1.504123253e-05
1.504123687e-05
1.504123214e-05
1.504122136e-05
1.504120909e-05
1.504120123e-05
1.504127285e-05
1.504130155e-05
1.504134663e-05
1.504139345e-05
1.504141479e-05
1.504139467e-05
1.504134658e-05
1.504130104e-05
1.504127394e-05
1.50415088e-05
1.504161406e-05
1.504179769e-05
1.504198768e-05
1.504207186e-05
1.504198614e-05
1.504179754e-05
1.504161117e-05
1.504150963e-05
1.504226625e-05
1.504265801e-05
1.504335536e-05
1.504410293e-05
1.50444515e-05
1.504410175e-05
1.504335607e-05
1.504265548e-05
1.504226764e-05
1.504461346e-05
1.504601384e-05
1.504858519e-05
1.505144823e-05
1.505284858e-05
1.505144808e-05
1.504858433e-05
1.50460133e-05
1.504461483e-05
1.505155496e-05
1.505633626e-05
1.50654153e-05
1.507600201e-05
1.508147417e-05
1.507600228e-05
1.506541493e-05
1.505633749e-05
1.50515554e-05
1.507096131e-05
1.508638922e-05
1.511675743e-05
1.515405694e-05
1.517464013e-05
1.515405605e-05
1.511675512e-05
1.508638961e-05
1.507096004e-05
1.512163653e-05
1.516798782e-05
1.526273394e-05
1.538583969e-05
1.545916401e-05
1.538583721e-05
1.526272982e-05
1.516798361e-05
1.512163296e-05
1.524343972e-05
1.537079156e-05
1.56408307e-05
1.601221732e-05
1.625280355e-05
1.60122032e-05
1.564081556e-05
1.537078241e-05
1.524343306e-05
1.550855593e-05
1.582168648e-05
1.650575672e-05
1.749396596e-05
1.818821803e-05
1.749392707e-05
1.650571977e-05
1.582167566e-05
1.550855564e-05
)
;
    }
    inlet
    {
        type            calculated;
        value           nonuniform List<scalar> 
81
(
1.504117322e-05
1.504117406e-05
1.504117568e-05
1.504117643e-05
1.504117518e-05
1.50411759e-05
1.504117574e-05
1.50411742e-05
1.50411747e-05
1.504117412e-05
1.504117518e-05
1.504117573e-05
1.504117712e-05
1.504117644e-05
1.504117656e-05
1.504117567e-05
1.504117594e-05
1.50411734e-05
1.504117515e-05
1.504117501e-05
1.50411759e-05
1.504117723e-05
1.504117752e-05
1.504117691e-05
1.504117675e-05
1.504117471e-05
1.50411746e-05
1.504117543e-05
1.504117525e-05
1.50411767e-05
1.504117723e-05
1.5041178e-05
1.504117622e-05
1.504117597e-05
1.504117497e-05
1.504117439e-05
1.50411763e-05
1.504117504e-05
1.50411771e-05
1.504117615e-05
1.50411765e-05
1.504117781e-05
1.504117629e-05
1.504117545e-05
1.504117561e-05
1.504117552e-05
1.504117513e-05
1.504117754e-05
1.504117709e-05
1.504117824e-05
1.504117673e-05
1.504117456e-05
1.50411744e-05
1.504117498e-05
1.504117487e-05
1.504117544e-05
1.504117428e-05
1.504117481e-05
1.504117546e-05
1.504117391e-05
1.504117399e-05
1.504117457e-05
1.504117448e-05
1.504117472e-05
1.504117342e-05
1.504117369e-05
1.504117455e-05
1.504117619e-05
1.504117461e-05
1.504117224e-05
1.504117424e-05
1.504117241e-05
1.504117451e-05
1.50411754e-05
1.504117323e-05
1.504117465e-05
1.504117465e-05
1.504117285e-05
1.504117378e-05
1.504117405e-05
1.504117333e-05
)
;
    }
    outlet
    {
        type            calculated;
        value           nonuniform 0();
    }
    procBoundary0to1
    {
        type            processor;
        value           nonuniform List<scalar> 
97
(
1.690771975e-05
1.669673648e-05
1.815826968e-05
2.089023841e-05
2.483694893e-05
2.760965951e-05
2.48368536e-05
2.089007341e-05
1.815812149e-05
1.690761249e-05
1.669673648e-05
1.669673648e-05