/*--------------------------------*- C++ -*----------------------------------*\
| =========                 |                                                 |
| \\      /  F ield         | OpenFOAM: The Open Source CFD Toolbox           |
|  \\    /   O peration     | Version:  4.x                                   |
|   \\  /    A nd           | Web:      www.OpenFOAM.org                      |
|    \\/     M anipulation  |                                                 |
\*---------------------------------------------------------------------------*/
FoamFile
{
    version     2.0;
    format      ascii;
    class       volScalarField;
    location    "5000";
    object      X_H2;
}
// * * * * * * * * * * * * * * * * * * * * * * * * * * * * * * * * * * * * * //

dimensions      [0 0 0 0 0 0 0];

internalField   nonuniform List<scalar> 
1175
(
0.05987668944
0.05987668944
0.05987668944
0.05987668944
0.05987668942
0.05987668935
0.05987668911
0.05987668835
0.05987668601
0.05987667907
0.05987665967
0.05987660902
0.05987648728
0.05987622231
0.05987570799
0.05987668944
0.05987668944
0.05987668944
0.05987668944
0.05987668941
0.05987668932
0.059876689
0.05987668796
0.05987668461
0.05987667429
0.05987664425
0.05987656268
0.05987635997
0.05987590931
0.05987503472
0.05987668944
0.05987668944
0.05987668944
0.05987668943
0.0598766894
0.05987668927
0.05987668882
0.05987668726
0.05987668204
0.05987666521
0.05987661389
0.05987646796
0.05987609002
0.05987522549
0.05987354411
0.05987668944
0.05987668944
0.05987668944
0.05987668943
0.05987668939
0.05987668922
0.05987668863
0.05987668652
0.05987667917
0.05987665463
0.0598765766
0.05987634489
0.05987571873
0.05987423757
0.05987133724
0.05987668944
0.05987668944
0.05987668944
0.05987668943
0.05987668938
0.0598766892
0.05987668855
0.05987668617
0.05987667777
0.05987664916
0.05987655602
0.05987627158
0.05987547819
0.05987354347
0.0598697087
0.05987668944
0.05987668944
0.05987668944
0.05987668943
0.05987668939
0.05987668922
0.05987668863
0.05987668652
0.05987667917
0.05987665463
0.0598765766
0.05987634489
0.05987571873
0.05987423759
0.05987133727
0.05987668944
0.05987668944
0.05987668944
0.05987668943
0.0598766894
0.05987668927
0.05987668882
0.05987668726
0.05987668204
0.05987666521
0.05987661389
0.05987646797
0.05987609003
0.05987522551
0.05987354416
0.05987668944
0.05987668944
0.05987668944
0.05987668944
0.05987668941
0.05987668932
0.059876689
0.05987668796
0.05987668461
0.05987667429
0.05987664425
0.05987656269
0.05987635998
0.05987590933
0.05987503476
0.05987668944
0.05987668944
0.05987668944
0.05987668944
0.05987668942
0.05987668935
0.05987668911
0.05987668835
0.05987668601
0.05987667907
0.05987665967
0.05987660902
0.05987648728
0.05987622233
0.05987570803
0.05987668944
0.05987668944
0.05987668944
0.05987668944
0.05987668941
0.05987668932
0.05987668901
0.05987668796
0.05987668461
0.05987667429
0.05987664425
0.05987656268
0.05987635996
0.05987590929
0.05987668944
0.05987668944
0.05987668944
0.05987668943
0.0598766894
0.05987668928
0.05987668884
0.05987668733
0.05987668224
0.05987666574
0.05987661501
0.05987646952
0.05987608957
0.05987521513
0.05987351312
0.05987668944
0.05987668944
0.05987668944
0.05987668943
0.05987668938
0.05987668921
0.05987668856
0.05987668617
0.05987667768
0.05987664849
0.05987655294
0.05987626071
0.05987544925
0.05987349062
0.05986964032
0.05987668944
0.05987668944
0.05987668944
0.05987668942
0.05987668937
0.05987668913
0.05987668824
0.05987668486
0.05987667223
0.05987662655
0.05987646804
0.059875951
0.0598744148
0.05987047309
0.05986253625
0.05987668944
0.05987668944
0.05987668944
0.05987668942
0.05987668936
0.0598766891
0.0598766881
0.0598766842
0.05987666934
0.05987661395
0.0598764143
0.05987573106
0.05987357747
0.05986767518
0.05985525049
0.05987668944
0.05987668944
0.05987668944
0.05987668942
0.05987668937
0.05987668913
0.05987668824
0.05987668486
0.05987667223
0.05987662655
0.05987646804
0.059875951
0.05987441482
0.05987047315
0.05986253638
0.05987668944
0.05987668944
0.05987668944
0.05987668943
0.05987668938
0.05987668921
0.05987668856
0.05987668617
0.05987667768
0.05987664849
0.05987655294
0.05987626071
0.05987544928
0.0598734907
0.0598696405
0.05987668944
0.05987668944
0.05987668944
0.05987668943
0.0598766894
0.05987668928
0.05987668884
0.05987668733
0.05987668224
0.05987666574
0.05987661501
0.05987646953
0.05987608959
0.05987521519
0.05987351326
0.05987668944
0.05987668944
0.05987668944
0.05987668944
0.05987668941
0.05987668932
0.059876689
0.05987668796
0.05987668461
0.05987667429
0.05987664425
0.05987656268
0.05987635998
0.05987590933
0.05987503476
0.05987668944
0.05987668944
0.05987668944
0.05987668943
0.0598766894
0.05987668927
0.05987668882
0.05987668726
0.05987668204
0.05987666521
0.05987661389
0.05987646796
0.05987609
0.05987522544
0.05987668944
0.05987668944
0.05987668944
0.05987668943
0.05987668938
0.05987668921
0.05987668856
0.05987668617
0.05987667768
0.05987664849
0.05987655294
0.0598762607
0.05987544923
0.05987349053
0.05987668944
0.05987668944
0.05987668944
0.05987668942
0.05987668936
0.05987668909
0.05987668806
0.05987668405
0.05987666878
0.05987661233
0.05987641213
0.05987574541
0.05987372743
0.05986847658
0.05985785919
0.05987668944
0.05987668944
0.05987668944
0.05987668942
0.05987668933
0.05987668897
0.0598766875
0.0598766815
0.05987665732
0.05987656171
0.05987619517
0.05987485974
0.05987039042
0.05985750404
0.05982971628
0.05987668944
0.05987668944
0.05987668944
0.05987668941
0.05987668932
0.05987668891
0.05987668722
0.05987668014
0.05987665065
0.05987652886
0.05987603438
0.05987409025
0.05986689905
0.05984338141
0.05978588564
0.05987668944
0.05987668944
0.05987668944
0.05987668942
0.05987668933
0.05987668897
0.0598766875
0.0598766815
0.05987665732
0.05987656171
0.05987619518
0.05987485977
0.05987039053
0.0598575044
0.0598297172
0.05987668944
0.05987668944
0.05987668944
0.05987668942
0.05987668936
0.05987668909
0.05987668806
0.05987668405
0.05987666878
0.05987661233
0.05987641214
0.05987574544
0.05987372752
0.05986847688
0.05985785999
0.05987668944
0.05987668944
0.05987668944
0.05987668943
0.05987668938
0.05987668921
0.05987668856
0.05987668617
0.05987667768
0.05987664849
0.05987655294
0.05987626071
0.05987544928
0.0598734907
0.0598696405
0.05987668944
0.05987668944
0.05987668944
0.05987668943
0.0598766894
0.05987668927
0.05987668882
0.05987668726
0.05987668204
0.05987666521
0.05987661389
0.05987646797
0.05987609003
0.05987522551
0.05987354416
0.05987668944
0.05987668944
0.05987668944
0.05987668943
0.05987668939
0.05987668922
0.05987668863
0.05987668652
0.05987667917
0.05987665463
0.05987657659
0.05987634488
0.0598757187
0.05987423748
0.05987668944
0.05987668944
0.05987668944
0.05987668942
0.05987668937
0.05987668913
0.05987668824
0.05987668486
0.05987667223
0.05987662655
0.05987646803
0.05987595098
0.05987441473
0.05987047285
0.05987668944
0.05987668944
0.05987668944
0.05987668942
0.05987668933
0.05987668897
0.0598766875
0.0598766815
0.05987665732
0.05987656171
0.05987619517
0.05987485971
0.05987039029
0.05985750347
0.05987668944
0.05987668944
0.05987668944
0.05987668941
0.05987668929
0.05987668879
0.05987668662
0.05987667724
0.05987663664
0.05987646185
0.05987571956
0.05987266133
0.05986081474
0.05982043058
0.05971896806
0.05987668944
0.05987668944
0.05987668943
0.0598766894
0.05987668927
0.0598766887
0.05987668616
0.05987667479
0.05987662336
0.05987638788
0.05987529958
0.05987025765
0.05984726759
0.05974893416
0.05941344352
0.05987668944
0.05987668944
0.05987668944
0.05987668941
0.05987668929
0.05987668879
0.05987668662
0.05987667724
0.05987663664
0.05987646186
0.05987571959
0.05987266144
0.05986081516
0.05982043223
0.05971897345
0.05987668944
0.05987668944
0.05987668944
0.05987668942
0.05987668933
0.05987668897
0.0598766875
0.0598766815
0.05987665732
0.05987656171
0.05987619518
0.05987485976
0.0598703905
0.05985750432
0.0598297171
0.05987668944
0.05987668944
0.05987668944
0.05987668942
0.05987668937
0.05987668913
0.05987668824
0.05987668486
0.05987667223
0.05987662655
0.05987646804
0.059875951
0.05987441482
0.05987047315
0.05986253641
0.05987668944
0.05987668944
0.05987668944
0.05987668943
0.05987668939
0.05987668922
0.05987668863
0.05987668652
0.05987667917
0.05987665463
0.0598765766
0.05987634489
0.05987571873
0.05987423758
0.05987133728
0.05987668944
0.05987668944
0.05987668944
0.05987668943
0.05987668938
0.0598766892
0.05987668855
0.05987668617
0.05987667777
0.05987664916
0.05987655601
0.05987627156
0.05987547814
0.05987354334
0.05987668944
0.05987668944
0.05987668944
0.05987668942
0.05987668936
0.0598766891
0.0598766881
0.0598766842
0.05987666934
0.05987661394
0.05987641429
0.05987573103
0.05987357737
0.05986767483
0.05987668944
0.05987668944
0.05987668944
0.05987668941
0.05987668932
0.05987668891
0.05987668722
0.05987668014
0.05987665065
0.05987652885
0.05987603437
0.05987409018
0.05986689875
0.05984338014
0.05987668944
0.05987668944
0.05987668943
0.0598766894
0.05987668927
0.0598766887
0.05987668616
0.05987667479
0.05987662336
0.05987638788
0.05987529956
0.05987025753
0.05984726689
0.05974892961
0.05987668944
0.05987668944
0.05987668943
0.0598766894
0.05987668925
0.05987668859
0.05987668558
0.05987667155
0.05987660438
0.05987627054
0.05987453162
0.05986493013
0.05980814199
0.05944572439
0.05693008481
0.05987668944
0.05987668944
0.05987668943
0.0598766894
0.05987668927
0.0598766887
0.05987668616
0.05987667479
0.05987662336
0.05987638788
0.05987529958
0.05987025764
0.05984726754
0.05974893392
0.05941344327
0.05987668944
0.05987668944
0.05987668944
0.05987668941
0.05987668932
0.05987668891
0.05987668722
0.05987668014
0.05987665065
0.05987652886
0.05987603438
0.05987409024
0.05986689901
0.05984338129
0.05978588556
0.05987668944
0.05987668944
0.05987668944
0.05987668942
0.05987668936
0.0598766891
0.0598766881
0.0598766842
0.05987666934
0.05987661395
0.0598764143
0.05987573105
0.05987357747
0.05986767517
0.05985525053
0.05987668944
0.05987668944
0.05987668944
0.05987668943
0.05987668938
0.0598766892
0.05987668855
0.05987668617
0.05987667777
0.05987664916
0.05987655602
0.05987627158
0.05987547818
0.05987354345
0.05986970869
0.05987668944
0.05987668944
0.05987668944
0.05987668943
0.05987668939
0.05987668922
0.05987668863
0.05987668652
0.05987667917
0.05987665463
0.05987657659
0.05987634488
0.05987571869
0.05987423748
0.05987668944
0.05987668944
0.05987668944
0.05987668942
0.05987668937
0.05987668913
0.05987668824
0.05987668486
0.05987667223
0.05987662655
0.05987646803
0.05987595098
0.05987441473
0.0598704729
0.05987668944
0.05987668944
0.05987668944
0.05987668942
0.05987668933
0.05987668897
0.0598766875
0.0598766815
0.05987665732
0.05987656171
0.05987619516
0.0598748597
0.05987039027
0.05985750356
0.05987668944
0.05987668944
0.05987668944
0.05987668941
0.05987668929
0.05987668879
0.05987668662
0.05987667724
0.05987663664
0.05987646185
0.05987571955
0.05987266129
0.05986081453
0.05982042976
0.05987668944
0.05987668944
0.05987668943
0.0598766894
0.05987668927
0.0598766887
0.05987668616
0.05987667479
0.05987662335
0.05987638788
0.05987529955
0.0598702575
0.05984726678
0.05974892932
0.05987668944
0.05987668944
0.05987668944
0.05987668941
0.05987668929
0.05987668879
0.05987668662
0.05987667724
0.05987663664
0.05987646185
0.05987571956
0.05987266131
0.05986081462
0.05982042997
0.05987668944
0.05987668944
0.05987668944
0.05987668942
0.05987668933
0.05987668897
0.0598766875
0.0598766815
0.05987665732
0.05987656171
0.05987619517
0.05987485972
0.05987039034
0.05985750382
0.05982971563
0.05987668944
0.05987668944
0.05987668944
0.05987668942
0.05987668937
0.05987668913
0.05987668824
0.05987668486
0.05987667223
0.05987662655
0.05987646803
0.05987595099
0.05987441477
0.05987047302
0.05986253613
0.05987668944
0.05987668944
0.05987668944
0.05987668943
0.05987668939
0.05987668922
0.05987668863
0.05987668652
0.05987667917
0.05987665463
0.0598765766
0.05987634488
0.05987571872
0.05987423755
0.05987133721
0.05987668944
0.05987668944
0.05987668944
0.05987668943
0.0598766894
0.05987668927
0.05987668882
0.05987668726
0.05987668204
0.05987666521
0.05987661389
0.05987646796
0.05987609
0.05987522545
0.05987668944
0.05987668944
0.05987668944
0.05987668943
0.05987668938
0.05987668921
0.05987668856
0.05987668617
0.05987667768
0.05987664849
0.05987655293
0.0598762607
0.05987544922
0.05987349056
0.05987668944
0.05987668944
0.05987668944
0.05987668942
0.05987668936
0.05987668909
0.05987668806
0.05987668405
0.05987666878
0.05987661233
0.05987641213
0.0598757454
0.05987372739
0.05986847651
0.05987668944
0.05987668944
0.05987668944
0.05987668942
0.05987668933
0.05987668897
0.0598766875
0.0598766815
0.05987665732
0.05987656171
0.05987619516
0.05987485969
0.05987039024
0.0598575035
0.05987668944
0.05987668944
0.05987668944
0.05987668941
0.05987668932
0.05987668891
0.05987668722
0.05987668014
0.05987665065
0.05987652885
0.05987603436
0.05987409016
0.05986689867
0.05984338002
0.05987668944
0.05987668944
0.05987668944
0.05987668942
0.05987668933
0.05987668897
0.0598766875
0.0598766815
0.05987665732
0.05987656171
0.05987619516
0.0598748597
0.05987039027
0.05985750359
0.05987668944
0.05987668944
0.05987668944
0.05987668942
0.05987668936
0.05987668909
0.05987668806
0.05987668405
0.05987666878
0.05987661233
0.05987641213
0.0598757454
0.0598737274
0.05986847649
0.05987668944
0.05987668944
0.05987668944
0.05987668943
0.05987668938
0.05987668921
0.05987668856
0.05987668617
0.05987667768
0.05987664849
0.05987655293
0.0598762607
0.05987544923
0.05987349058
0.05986964021
0.05987668944
0.05987668944
0.05987668944
0.05987668943
0.0598766894
0.05987668927
0.05987668882
0.05987668726
0.05987668204
0.05987666521
0.05987661389
0.05987646796
0.05987609001
0.05987522547
0.05987354408
0.05987668944
0.05987668944
0.05987668944
0.05987668944
0.05987668941
0.05987668932
0.05987668901
0.05987668796
0.05987668461
0.05987667429
0.05987664425
0.05987656268
0.05987635996
0.0598759093
0.05987668944
0.05987668944
0.05987668944
0.05987668943
0.0598766894
0.05987668928
0.05987668884
0.05987668733
0.05987668224
0.05987666574
0.05987661501
0.05987646952
0.05987608957
0.05987521512
0.05987668944
0.05987668944
0.05987668944
0.05987668943
0.05987668938
0.05987668921
0.05987668856
0.05987668617
0.05987667768
0.05987664849
0.05987655293
0.05987626069
0.05987544922
0.05987349055
0.05987668944
0.05987668944
0.05987668944
0.05987668942
0.05987668937
0.05987668913
0.05987668824
0.05987668486
0.05987667223
0.05987662655
0.05987646803
0.05987595097
0.05987441471
0.05987047287
0.05987668944
0.05987668944
0.05987668944
0.05987668942
0.05987668936
0.0598766891
0.0598766881
0.0598766842
0.05987666934
0.05987661394
0.05987641429
0.05987573102
0.05987357735
0.05986767482
0.05987668944
0.05987668944
0.05987668944
0.05987668942
0.05987668937
0.05987668913
0.05987668824
0.05987668486
0.05987667223
0.05987662655
0.05987646803
0.05987595097
0.05987441472
0.05987047289
0.05987668944
0.05987668944
0.05987668944
0.05987668943
0.05987668938
0.05987668921
0.05987668856
0.05987668617
0.05987667768
0.05987664849
0.05987655293
0.0598762607
0.05987544922
0.05987349056
0.05987668944
0.05987668944
0.05987668944
0.05987668943
0.0598766894
0.05987668928
0.05987668884
0.05987668733
0.05987668224
0.05987666574
0.05987661501
0.05987646952
0.05987608957
0.05987521512
0.05987668944
0.05987668944
0.05987668944
0.05987668944
0.05987668941
0.05987668932
0.059876689
0.05987668796
0.05987668461
0.05987667429
0.05987664425
0.05987656268
0.05987635997
0.0598759093
0.05987503469
0.05987668944
0.05987668944
0.05987668944
0.05987668944
0.05987668942
0.05987668935
0.05987668911
0.05987668835
0.05987668601
0.05987667907
0.05987665967
0.05987660902
0.05987648727
0.05987622231
0.05987668944
0.05987668944
0.05987668944
0.05987668944
0.05987668941
0.05987668932
0.059876689
0.05987668796
0.05987668461
0.05987667429
0.05987664425
0.05987656268
0.05987635996
0.05987590929
0.05987668944
0.05987668944
0.05987668944
0.05987668943
0.0598766894
0.05987668927
0.05987668882
0.05987668726
0.05987668204
0.05987666521
0.05987661389
0.05987646796
0.05987609
0.05987522544
0.05987668944
0.05987668944
0.05987668944
0.05987668943
0.05987668939
0.05987668922
0.05987668863
0.05987668652
0.05987667917
0.05987665463
0.05987657659
0.05987634487
0.05987571869
0.05987423748
0.05987668944
0.05987668944
0.05987668944
0.05987668943
0.05987668938
0.0598766892
0.05987668855
0.05987668617
0.05987667777
0.05987664916
0.05987655601
0.05987627156
0.05987547814
0.05987354334
0.05987668944
0.05987668944
0.05987668944
0.05987668943
0.05987668939
0.05987668922
0.05987668863
0.05987668652
0.05987667917
0.05987665463
0.05987657659
0.05987634488
0.05987571869
0.05987423749
0.05987668944
0.05987668944
0.05987668944
0.05987668943
0.0598766894
0.05987668927
0.05987668882
0.05987668726
0.05987668204
0.05987666521
0.05987661389
0.05987646796
0.05987609
0.05987522545
0.05987668944
0.05987668944
0.05987668944
0.05987668944
0.05987668941
0.05987668932
0.05987668901
0.05987668796
0.05987668461
0.05987667429
0.05987664425
0.05987656268
0.05987635996
0.05987590929
0.05987668944
0.05987668944
0.05987668944
0.05987668944
0.05987668942
0.05987668935
0.05987668911
0.05987668835
0.05987668601
0.05987667907
0.05987665967
0.05987660902
0.05987648727
0.0598762223
)
;

boundaryField
{
    top
    {
        type            calculated;
        value           nonuniform List<scalar> 
134
(
0.05987668944
0.05987668944
0.05987668944
0.05987668944
0.05987668944
0.05987668944
0.05987668944
0.05987668944
0.05987668944
0.05987668944
0.05987668944
0.05987668944
0.05987668944
0.05987668944
0.05987668944
0.05987668944
0.05987668944
0.05987668944
0.05987668944
0.05987668944
0.05987668944
0.05987668944
0.05987668944
0.05987668944
0.05987668944
0.05987668944
0.05987668944
0.05987668944
0.05987668944
0.05987668943
0.05987668943
0.05987668943
0.05987668943
0.05987668943
0.05987668944
0.05987668944
0.05987668942
0.05987668941
0.0598766894
0.05987668939
0.05987668938
0.05987668939
0.0598766894
0.05987668941
0.05987668942
0.05987668935
0.05987668932
0.05987668927
0.05987668922
0.0598766892
0.05987668922
0.05987668927
0.05987668932
0.05987668935
0.05987668911
0.059876689
0.05987668882
0.05987668863
0.05987668855
0.05987668863
0.05987668882
0.059876689
0.05987668911
0.05987668835
0.05987668796
0.05987668726
0.05987668652
0.05987668617
0.05987668652
0.05987668726
0.05987668796
0.05987668835
0.05987668601
0.05987668461
0.05987668204
0.05987667917
0.05987667777
0.05987667917
0.05987668204
0.05987668461
0.05987668601
0.05987667907
0.05987667429
0.05987666521
0.05987665463
0.05987664916
0.05987665463
0.05987666521
0.05987667429
0.05987667907
0.05987665967
0.05987664425
0.05987661389
0.0598765766
0.05987655602
0.0598765766
0.05987661389
0.05987664425
0.05987665967
0.05987660902
0.05987656268
0.05987646797
0.05987634489
0.05987627158
0.05987634488
0.05987646796
0.05987656268
0.05987660902
0.05987648728
0.05987635998
0.05987609003
0.05987571873
0.05987547818
0.05987571872
0.05987609001
0.05987635997
0.05987648727
0.05987622233
0.05987590933
0.05987522551
0.05987423758
0.05987354345
0.05987423755
0.05987522547
0.0598759093
0.0598762223
0.05987570803
0.05987503476
0.05987354416
0.05987133728
0.05986970869
0.05987133721
0.05987354408
0.05987503469
)
;
    }
    bottom
    {
        type            calculated;
        value           nonuniform List<scalar> 
127
(
0.05987668944
0.05987668944
0.05987668944
0.05987668944
0.05987668944
0.05987668944
0.05987668944
0.05987668944
0.05987668944
0.05987668944
0.05987668944
0.05987668944
0.05987668944
0.05987668944
0.05987668944
0.05987668944
0.05987668944
0.05987668944
0.05987668944
0.05987668944
0.05987668944
0.05987668944
0.05987668944
0.05987668944
0.05987668944
0.05987668944
0.05987668944
0.05987668944
0.05987668944
0.05987668943
0.05987668943
0.05987668943
0.05987668943
0.05987668943
0.05987668944
0.05987668944
0.05987668942
0.05987668941
0.0598766894
0.05987668939
0.05987668938
0.05987668939
0.0598766894
0.05987668941
0.05987668942
0.05987668935
0.05987668932
0.05987668927
0.05987668922
0.0598766892
0.05987668922
0.05987668927
0.05987668932
0.05987668935
0.05987668911
0.05987668901
0.05987668882
0.05987668863
0.05987668855
0.05987668863
0.05987668882
0.05987668901
0.05987668911
0.05987668835
0.05987668796
0.05987668726
0.05987668652
0.05987668617
0.05987668652
0.05987668726
0.05987668796
0.05987668835
0.05987668601
0.05987668461
0.05987668204
0.05987667917
0.05987667777
0.05987667917
0.05987668204
0.05987668461
0.05987668601
0.05987667907
0.05987667429
0.05987666521
0.05987665463
0.05987664916
0.05987665463
0.05987666521
0.05987667429
0.05987667907
0.05987665967
0.05987664425
0.05987661389
0.05987657659
0.05987655601
0.05987657659
0.05987661389
0.05987664425
0.05987665967
0.05987660902
0.05987656268
0.05987646796
0.05987634488
0.05987627156
0.05987634488
0.05987646796
0.05987656268
0.05987660902
0.05987648728
0.05987635996
0.05987609
0.0598757187
0.05987547814
0.05987571869
0.05987609
0.05987635996
0.05987648727
0.05987622231
0.05987590929
0.05987522544
0.05987423748
0.05987354334
0.05987423748
0.05987522545
0.0598759093
0.05987622231
0.05987570799
)
;
    }
    side-walls
    {
        type            calculated;
        value           nonuniform List<scalar> 
261
(
0.05987668944
0.05987668944
0.05987668944
0.05987668944
0.05987668944
0.05987668944
0.05987668944
0.05987668944
0.05987668944
0.05987668944
0.05987668944
0.05987668944
0.05987668944
0.05987668944
0.05987668944
0.05987668944
0.05987668944
0.05987668944
0.05987668944
0.05987668944
0.05987668944
0.05987668944
0.05987668944
0.05987668944
0.05987668944
0.05987668944
0.05987668944
0.05987668944
0.05987668944
0.05987668943
0.05987668943
0.05987668943
0.05987668943
0.05987668943
0.05987668944
0.05987668944
0.05987668942
0.05987668941
0.0598766894
0.05987668939
0.05987668938
0.05987668939
0.0598766894
0.05987668941
0.05987668942
0.05987668935
0.05987668932
0.05987668927
0.05987668922
0.0598766892
0.05987668922
0.05987668927
0.05987668932
0.05987668935
0.05987668911
0.059876689
0.05987668882
0.05987668863
0.05987668855
0.05987668863
0.05987668882
0.059876689
0.05987668911
0.05987668835
0.05987668796
0.05987668726
0.05987668652
0.05987668617
0.05987668652
0.05987668726
0.05987668796
0.05987668835
0.05987668601
0.05987668461
0.05987668204
0.05987667917
0.05987667777
0.05987667917
0.05987668204
0.05987668461
0.05987668601
0.05987667907
0.05987667429
0.05987666521
0.05987665463
0.05987664916
0.05987665463
0.05987666521
0.05987667429
0.05987667907
0.05987665967
0.05987664425
0.05987661389
0.0598765766
0.05987655602
0.0598765766
0.05987661389
0.05987664425
0.05987665967
0.05987660902
0.05987656268
0.05987646796
0.05987634489
0.05987627158
0.05987634489
0.05987646797
0.05987656269
0.05987660902
0.05987648728
0.05987635997
0.05987609002
0.05987571873
0.05987547819
0.05987571873
0.05987609003
0.05987635998
0.05987648728
0.05987622231
0.05987590931
0.05987522549
0.05987423757
0.05987354347
0.05987423759
0.05987522551
0.05987590933
0.05987622233
0.05987570799
0.05987503472
0.05987354411
0.05987133724
0.0598697087
0.05987133727
0.05987354416
0.05987503476
0.05987570803
0.05987668944
0.05987668944
0.05987668944
0.05987668944
0.05987668944
0.05987668944
0.05987668944
0.05987668944
0.05987668944
0.05987668944
0.05987668944
0.05987668944
0.05987668944
0.05987668944
0.05987668944
0.05987668944
0.05987668944
0.05987668944
0.05987668944
0.05987668944
0.05987668944
0.05987668944
0.05987668944
0.05987668944
0.05987668944
0.05987668944
0.05987668944
0.05987668944
0.05987668944
0.05987668943
0.05987668943
0.05987668943
0.05987668943
0.05987668943
0.05987668944
0.05987668944
0.05987668942
0.05987668941
0.0598766894
0.05987668939
0.05987668938
0.05987668939
0.0598766894
0.05987668941
0.05987668942
0.05987668935
0.05987668932
0.05987668927
0.05987668922
0.0598766892
0.05987668922
0.05987668927
0.05987668932
0.05987668935
0.05987668911
0.059876689
0.05987668882
0.05987668863
0.05987668855
0.05987668863
0.05987668882
0.05987668901
0.05987668911
0.05987668835
0.05987668796
0.05987668726
0.05987668652
0.05987668617
0.05987668652
0.05987668726
0.05987668796
0.05987668835
0.05987668601
0.05987668461
0.05987668204
0.05987667917
0.05987667777
0.05987667917
0.05987668204
0.05987668461
0.05987668601
0.05987667907
0.05987667429
0.05987666521
0.05987665463
0.05987664916
0.05987665463
0.05987666521
0.05987667429
0.05987667907
0.05987665967
0.05987664425
0.05987661389
0.05987657659
0.05987655601
0.05987657659
0.05987661389
0.05987664425
0.05987665967
0.05987660902
0.05987656268
0.05987646796
0.05987634487
0.05987627156
0.05987634488
0.05987646796
0.05987656268
0.05987660902
0.05987648727
0.05987635996
0.05987609
0.05987571869
0.05987547814
0.05987571869
0.05987609
0.05987635996
0.05987648727
0.05987622231
0.05987590929
0.05987522544
0.05987423748
0.05987354334
0.05987423749
0.05987522545
0.05987590929
0.0598762223
)
;
    }
    inlet
    {
        type            calculated;
        value           nonuniform List<scalar> 
81
(
0.05987668944
0.05987668944
0.05987668944
0.05987668944
0.05987668944
0.05987668944
0.05987668944
0.05987668944
0.05987668944
0.05987668944
0.05987668944
0.05987668944
0.05987668944
0.05987668944
0.05987668944
0.05987668944
0.05987668944
0.05987668944
0.05987668944
0.05987668944
0.05987668944
0.05987668944
0.05987668944
0.05987668944
0.05987668944
0.05987668944
0.05987668944
0.05987668944
0.05987668944
0.05987668944
0.05987668944
0.05987668944
0.05987668944
0.05987668944
0.05987668944
0.05987668944
0.05987668944
0.05987668944
0.05987668944
0.05987668944
0.05987668944
0.05987668944
0.05987668944
0.05987668944
0.05987668944
0.05987668944
0.05987668944
0.05987668944
0.05987668944
0.05987668944
0.05987668944
0.05987668944
0.05987668944
0.05987668944
0.05987668944
0.05987668944
0.05987668944
0.05987668944
0.05987668944
0.05987668944
0.05987668944
0.05987668944
0.05987668944
0.05987668944
0.05987668944
0.05987668944
0.05987668944
0.05987668944
0.05987668944
0.05987668944
0.05987668944
0.05987668944
0.05987668944
0.05987668944
0.05987668944
0.05987668944
0.05987668944
0.05987668944
0.05987668944
0.05987668944
0.05987668944
)
;
    }
    outlet
    {
        type            calculated;
        value           nonuniform 0();
    }
    procBoundary0to1
    {
        type            processor;
        value           nonuniform List<scalar> 
97
(
0.05987482383
0.05987503468
0.0598735737
0.05987084246
0.05986689651
0.05986412409
0.05986689655
0.05987084254
0.05987357377
0.05987482389
0.05987503468
0.05987503468
0.05987080108
0.05986964017
0.0598639128
0.059851859
0.05984068214
0.05985185918
0.05986391303
0.05987080124
0.05987357377
0.05987354405
0.05986964017
0.05986964017
0.05984388345
0.05982971523
0.05980004383
0.0597436038
0.05980004482
0.05984388426
0.05986391305
0.05987084254
0.05987133715
0.05986253595
0.05982971523
0.05982971523
0.05965185836
0.05941343688
0.05936580194
0.05965186201
0.05980004475
0.05985185924
0.05986689657
0.05986970858
0.05985525014
0.05978588424
0.05941343688
0.05941343688
0.05814653722
0.05941343705
0.05936580234
0.05971897019
0.05974360395
0.05984068228
0.05986412411
0.05987133718
0.05986253615
0.05982971624
0.05971897061
0.05941343705
0.05971897019
0.05971897019
0.05980004383
0.0598578593
0.05985185896
0.05986689649
0.0598735441
0.05986964036
0.05985785961
0.05982971617
0.05978588421
0.05982971632
0.0598578593
0.0598578593
0.0598639128
0.05987351314
0.05987084244
0.05987503473
0.0598735132
0.05986964035
0.05986253612
0.05985525018
0.05986253614
0.05986964034
0.05987351314
0.05987351314
0.05987357371
0.05987570799
0.05987570802
0.05987503473
0.05987354409
0.05987133718
0.0598697086
0.0598713372
0.05987354411
0.05987503472
0.05987570799
)
;
    }
}


// ************************************************************************* //
