/*--------------------------------*- C++ -*----------------------------------*\
| =========                 |                                                 |
| \\      /  F ield         | OpenFOAM: The Open Source CFD Toolbox           |
|  \\    /   O peration     | Version:  4.x                                   |
|   \\  /    A nd           | Web:      www.OpenFOAM.org                      |
|    \\/     M anipulation  |                                                 |
\*---------------------------------------------------------------------------*/
FoamFile
{
    version     2.0;
    format      ascii;
    class       volScalarField;
    location    "3000";
    object      CO2;
}
// * * * * * * * * * * * * * * * * * * * * * * * * * * * * * * * * * * * * * //

dimensions      [0 0 0 0 0 0 0];

internalField   nonuniform List<scalar> 
1175
(
0.06314985505
0.06314985505
0.06314985505
0.06314985506
0.06314985511
0.06314985529
0.06314985587
0.06314985776
0.06314986374
0.06314988169
0.06314993261
0.06315006752
0.06315039629
0.06315112122
0.06315254547
0.06314985505
0.06314985505
0.06314985505
0.06314985507
0.06314985513
0.06314985535
0.06314985614
0.06314985878
0.06314986743
0.06314989448
0.06314997446
0.0631501949
0.06315075066
0.06315200291
0.06315446329
0.06314985505
0.06314985505
0.06314985505
0.06314985508
0.06314985516
0.06314985547
0.06314985661
0.06314986061
0.06314987427
0.06314991896
0.06315005751
0.06315045754
0.06315150899
0.06315394759
0.06315875067
0.06314985505
0.06314985505
0.06314985506
0.06314985508
0.06314985519
0.06314985559
0.0631498571
0.06314986258
0.06314988195
0.06314994779
0.06315016059
0.06315080262
0.06315256426
0.06315679153
0.0631651779
0.06314985505
0.06314985505
0.06314985506
0.06314985509
0.0631498552
0.06314985565
0.06314985732
0.06314986351
0.06314988574
0.06314996284
0.0631502181
0.06315101067
0.06315325696
0.06315881782
0.06316999056
0.06314985505
0.06314985505
0.06314985506
0.06314985508
0.06314985519
0.06314985559
0.0631498571
0.06314986258
0.06314988195
0.06314994779
0.06315016058
0.06315080261
0.06315256423
0.06315679146
0.06316517776
0.06314985505
0.06314985505
0.06314985505
0.06314985508
0.06314985516
0.06314985547
0.06314985661
0.06314986061
0.06314987427
0.06314991896
0.06315005751
0.06315045754
0.06315150897
0.06315394753
0.06315875055
0.06314985505
0.06314985505
0.06314985505
0.06314985507
0.06314985513
0.06314985535
0.06314985614
0.06314985878
0.06314986743
0.06314989448
0.06314997446
0.06315019489
0.06315075064
0.06315200287
0.06315446318
0.06314985505
0.06314985505
0.06314985505
0.06314985506
0.06314985511
0.06314985529
0.06314985587
0.06314985776
0.06314986374
0.06314988168
0.06314993261
0.06315006752
0.06315039628
0.06315112118
0.06315254537
0.06314985505
0.06314985505
0.06314985505
0.06314985507
0.06314985513
0.06314985535
0.06314985614
0.06314985878
0.06314986743
0.06314989448
0.06314997446
0.0631501949
0.06315075067
0.06315200297
0.06314985505
0.06314985505
0.06314985505
0.06314985507
0.06314985516
0.06314985546
0.06314985655
0.06314986043
0.06314987376
0.06314991766
0.06315005486
0.06315045452
0.06315151387
0.06315398615
0.06315885973
0.06314985505
0.06314985505
0.06314985506
0.06314985509
0.0631498552
0.06314985564
0.06314985731
0.06314986352
0.06314988606
0.06314996487
0.06315022717
0.06315104228
0.06315334031
0.0631589671
0.06317017518
0.06314985505
0.06314985505
0.06314985506
0.0631498551
0.06314985524
0.06314985583
0.06314985813
0.06314986705
0.0631499009
0.06315002558
0.06315046566
0.06315192497
0.06315632949
0.06316780022
0.06319121805
0.06314985505
0.06314985505
0.06314985506
0.0631498551
0.06314985526
0.06314985591
0.06314985852
0.06314986882
0.06314990885
0.06315006086
0.06315061858
0.06315256058
0.06315878448
0.06317611439
0.06321313751
0.06314985505
0.06314985505
0.06314985506
0.0631498551
0.06314985524
0.06314985583
0.06314985813
0.06314986705
0.0631499009
0.06315002558
0.06315046566
0.06315192495
0.06315632943
0.06316780004
0.06319121762
0.06314985505
0.06314985505
0.06314985506
0.06314985509
0.0631498552
0.06314985564
0.06314985731
0.06314986352
0.06314988606
0.06314996487
0.06315022717
0.06315104227
0.06315334026
0.06315896694
0.06317017479
0.06314985505
0.06314985505
0.06314985505
0.06314985507
0.06314985516
0.06314985546
0.06314985655
0.06314986043
0.06314987376
0.06314991766
0.06315005486
0.06315045451
0.06315151383
0.06315398602
0.06315885938
0.06314985505
0.06314985505
0.06314985505
0.06314985507
0.06314985513
0.06314985535
0.06314985614
0.06314985878
0.06314986743
0.06314989448
0.06314997446
0.0631501949
0.06315075064
0.06315200287
0.06315446319
0.06314985505
0.06314985505
0.06314985505
0.06314985508
0.06314985516
0.06314985547
0.06314985661
0.06314986061
0.06314987427
0.06314991896
0.06315005751
0.06315045755
0.06315150903
0.06315394771
0.06314985505
0.06314985505
0.06314985506
0.06314985509
0.0631498552
0.06314985564
0.06314985731
0.06314986352
0.06314988606
0.06314996487
0.06315022717
0.06315104229
0.06315334035
0.06315896732
0.06314985505
0.06314985505
0.06314985506
0.0631498551
0.06314985527
0.06314985593
0.06314985862
0.06314986923
0.06314991035
0.06315006511
0.06315062322
0.06315251214
0.06315831801
0.06317364734
0.06320507401
0.06314985505
0.06314985505
0.06314985506
0.06314985512
0.06314985534
0.06314985626
0.06314986012
0.06314987615
0.063149942
0.06315020715
0.06315124137
0.06315507232
0.06316809736
0.06320622061
0.06328962281
0.06314985505
0.06314985505
0.06314985507
0.06314985512
0.06314985537
0.06314985641
0.06314986087
0.06314987989
0.06314996067
0.0631503006
0.06315170608
0.06315732971
0.06317848265
0.06324877102
0.06342329525
0.06314985505
0.06314985505
0.06314985506
0.06314985512
0.06314985534
0.06314985626
0.06314986012
0.06314987615
0.063149942
0.06315020715
0.06315124136
0.06315507227
0.06316809714
0.0632062198
0.06328962058
0.06314985505
0.06314985505
0.06314985506
0.0631498551
0.06314985527
0.06314985593
0.06314985862
0.06314986923
0.06314991035
0.06315006511
0.06315062321
0.0631525121
0.06315831785
0.0631736467
0.06320507206
0.06314985505
0.06314985505
0.06314985506
0.06314985509
0.0631498552
0.06314985564
0.06314985731
0.06314986352
0.06314988606
0.06314996487
0.06315022717
0.06315104227
0.06315334026
0.06315896695
0.06317017479
0.06314985505
0.06314985505
0.06314985505
0.06314985508
0.06314985516
0.06314985547
0.06314985661
0.06314986061
0.06314987427
0.06314991896
0.06315005751
0.06315045754
0.06315150898
0.06315394754
0.06315875056
0.06314985505
0.06314985505
0.06314985506
0.06314985508
0.06314985519
0.06314985559
0.0631498571
0.06314986258
0.06314988195
0.06314994779
0.06315016059
0.06315080264
0.06315256432
0.06315679173
0.06314985505
0.06314985505
0.06314985506
0.0631498551
0.06314985524
0.06314985583
0.06314985813
0.06314986705
0.0631499009
0.06315002558
0.06315046567
0.063151925
0.06315632963
0.06316780075
0.06314985505
0.06314985505
0.06314985506
0.06314985512
0.06314985534
0.06314985626
0.06314986012
0.06314987615
0.06314994201
0.06315020716
0.06315124138
0.06315507238
0.06316809765
0.06320622216
0.06314985505
0.06314985505
0.06314985507
0.06314985514
0.06314985543
0.06314985674
0.06314986249
0.06314988787
0.06314999976
0.06315049059
0.06315261246
0.06316150368
0.06319650107
0.06331762241
0.06362643209
0.06314985505
0.06314985505
0.06314985507
0.06314985515
0.06314985548
0.06314985698
0.06314986376
0.06314989467
0.06315003739
0.06315070373
0.06315384209
0.06316864527
0.06323729264
0.06353552865
0.06456809089
0.06314985505
0.06314985505
0.06314985507
0.06314985514
0.06314985543
0.06314985674
0.06314986249
0.06314988787
0.06314999976
0.06315049059
0.06315261244
0.06316150356
0.0631965004
0.06331761906
0.06362641866
0.06314985505
0.06314985505
0.06314985506
0.06314985512
0.06314985534
0.06314985626
0.06314986012
0.06314987615
0.063149942
0.06315020715
0.06315124137
0.06315507229
0.06316809719
0.06320621992
0.06328962069
0.06314985505
0.06314985505
0.06314985506
0.0631498551
0.06314985524
0.06314985583
0.06314985813
0.06314986705
0.0631499009
0.06315002558
0.06315046566
0.06315192496
0.06315632946
0.06316780012
0.06319121772
0.06314985505
0.06314985505
0.06314985506
0.06314985508
0.06314985519
0.06314985559
0.0631498571
0.06314986258
0.06314988195
0.06314994779
0.06315016059
0.06315080262
0.06315256425
0.06315679151
0.06316517782
0.06314985505
0.06314985505
0.06314985506
0.06314985509
0.0631498552
0.06314985565
0.06314985732
0.06314986351
0.06314988574
0.06314996284
0.06315021811
0.0631510107
0.06315325706
0.06315881812
0.06314985505
0.06314985505
0.06314985506
0.0631498551
0.06314985526
0.06314985591
0.06314985852
0.06314986882
0.06314990885
0.06315006087
0.0631506186
0.06315256065
0.06315878474
0.06317611526
0.06314985505
0.06314985505
0.06314985507
0.06314985512
0.06314985537
0.06314985641
0.06314986087
0.06314987989
0.06314996067
0.06315030061
0.06315170611
0.06315732988
0.06317848344
0.06324877446
0.06314985505
0.06314985505
0.06314985507
0.06314985515
0.06314985548
0.06314985698
0.06314986376
0.06314989467
0.06315003739
0.06315070373
0.06315384213
0.06316864554
0.06323729452
0.0635355422
0.06314985505
0.06314985506
0.06314985507
0.06314985516
0.06314985554
0.06314985727
0.06314986534
0.06314990373
0.06315009158
0.06315104494
0.06315611286
0.06318463752
0.06335632331
0.06446862539
0.07227087305
0.06314985505
0.06314985505
0.06314985507
0.06314985515
0.06314985548
0.06314985698
0.06314986376
0.06314989467
0.06315003739
0.06315070373
0.06315384211
0.06316864537
0.06323729304
0.06353553009
0.06456809391
0.06314985505
0.06314985505
0.06314985507
0.06314985512
0.06314985537
0.06314985641
0.06314986087
0.06314987989
0.06314996067
0.0631503006
0.06315170609
0.06315732974
0.06317848276
0.06324877135
0.06342329565
0.06314985505
0.06314985505
0.06314985506
0.0631498551
0.06314985526
0.06314985591
0.06314985852
0.06314986882
0.06314990885
0.06315006086
0.06315061858
0.06315256059
0.06315878452
0.06317611446
0.06321313754
0.06314985505
0.06314985505
0.06314985506
0.06314985509
0.0631498552
0.06314985565
0.06314985732
0.06314986351
0.06314988574
0.06314996284
0.0631502181
0.06315101067
0.06315325697
0.06315881784
0.06316999055
0.06314985505
0.06314985505
0.06314985506
0.06314985508
0.06314985519
0.06314985559
0.0631498571
0.06314986258
0.06314988195
0.06314994779
0.06315016059
0.06315080264
0.06315256433
0.06315679171
0.06314985505
0.06314985505
0.06314985506
0.0631498551
0.06314985524
0.06314985583
0.06314985813
0.06314986705
0.0631499009
0.06315002558
0.06315046567
0.06315192502
0.06315632966
0.06316780071
0.06314985505
0.06314985505
0.06314985506
0.06314985512
0.06314985534
0.06314985626
0.06314986012
0.06314987615
0.06314994201
0.06315020716
0.0631512414
0.06315507243
0.06316809779
0.06320622195
0.06314985505
0.06314985505
0.06314985507
0.06314985514
0.06314985543
0.06314985674
0.06314986249
0.06314988787
0.06314999976
0.0631504906
0.06315261249
0.06316150385
0.0631965018
0.06331762496
0.06314985505
0.06314985505
0.06314985507
0.06314985515
0.06314985548
0.06314985698
0.06314986376
0.06314989467
0.06315003739
0.06315070374
0.06315384216
0.06316864567
0.06323729501
0.06353554349
0.06314985505
0.06314985505
0.06314985507
0.06314985514
0.06314985543
0.06314985674
0.06314986249
0.06314988787
0.06314999976
0.06315049059
0.06315261248
0.06316150378
0.06319650154
0.0633176246
0.06314985505
0.06314985505
0.06314985506
0.06314985512
0.06314985534
0.06314985626
0.06314986012
0.06314987615
0.06314994201
0.06315020716
0.06315124138
0.06315507236
0.06316809752
0.06320622114
0.06328962451
0.06314985505
0.06314985505
0.06314985506
0.0631498551
0.06314985524
0.06314985583
0.06314985813
0.06314986705
0.0631499009
0.06315002558
0.06315046566
0.06315192498
0.06315632952
0.06316780033
0.06319121821
0.06314985505
0.06314985505
0.06314985506
0.06314985508
0.06314985519
0.06314985559
0.0631498571
0.06314986258
0.06314988195
0.06314994779
0.06315016059
0.06315080262
0.06315256427
0.06315679156
0.06316517792
0.06314985505
0.06314985505
0.06314985505
0.06314985508
0.06314985516
0.06314985547
0.06314985661
0.06314986061
0.06314987427
0.06314991897
0.06315005752
0.06315045756
0.06315150904
0.0631539477
0.06314985505
0.06314985505
0.06314985506
0.06314985509
0.0631498552
0.06314985564
0.06314985731
0.06314986352
0.06314988606
0.06314996487
0.06315022718
0.06315104231
0.06315334039
0.0631589673
0.06314985505
0.06314985505
0.06314985506
0.0631498551
0.06314985527
0.06314985593
0.06314985862
0.06314986923
0.06314991035
0.06315006511
0.06315062323
0.0631525122
0.06315831817
0.06317364762
0.06314985505
0.06314985505
0.06314985506
0.06314985512
0.06314985534
0.06314985626
0.06314986012
0.06314987615
0.06314994201
0.06315020716
0.0631512414
0.06315507243
0.06316809779
0.06320622188
0.06314985505
0.06314985505
0.06314985507
0.06314985512
0.06314985537
0.06314985641
0.06314986087
0.06314987989
0.06314996067
0.06315030061
0.06315170612
0.06315732989
0.0631784835
0.06324877434
0.06314985505
0.06314985505
0.06314985506
0.06314985512
0.06314985534
0.06314985626
0.06314986012
0.06314987615
0.06314994201
0.06315020716
0.06315124139
0.0631550724
0.06316809769
0.06320622164
0.06314985505
0.06314985505
0.06314985506
0.0631498551
0.06314985527
0.06314985593
0.06314985862
0.06314986923
0.06314991035
0.06315006511
0.06315062322
0.06315251217
0.0631583181
0.06317364763
0.06314985505
0.06314985505
0.06314985506
0.06314985509
0.0631498552
0.06314985564
0.06314985731
0.06314986352
0.06314988606
0.06314996487
0.06315022718
0.06315104229
0.06315334034
0.06315896718
0.06317017543
0.06314985505
0.06314985505
0.06314985505
0.06314985508
0.06314985516
0.06314985547
0.06314985661
0.06314986061
0.06314987427
0.06314991896
0.06315005751
0.06315045755
0.06315150901
0.06315394763
0.06315875073
0.06314985505
0.06314985505
0.06314985505
0.06314985507
0.06314985513
0.06314985535
0.06314985614
0.06314985878
0.06314986743
0.06314989448
0.06314997446
0.06315019491
0.06315075068
0.06315200295
0.06314985505
0.06314985505
0.06314985505
0.06314985507
0.06314985516
0.06314985546
0.06314985655
0.06314986043
0.06314987376
0.06314991766
0.06315005487
0.06315045453
0.06315151389
0.06315398618
0.06314985505
0.06314985505
0.06314985506
0.06314985509
0.0631498552
0.06314985564
0.06314985731
0.06314986352
0.06314988606
0.06314996487
0.06315022718
0.06315104231
0.06315334038
0.06315896727
0.06314985505
0.06314985505
0.06314985506
0.0631498551
0.06314985524
0.06314985583
0.06314985813
0.06314986705
0.0631499009
0.06315002558
0.06315046568
0.06315192502
0.06315632966
0.06316780068
0.06314985505
0.06314985505
0.06314985506
0.0631498551
0.06314985526
0.06314985591
0.06314985852
0.06314986882
0.06314990885
0.06315006087
0.0631506186
0.06315256066
0.06315878476
0.06317611521
0.06314985505
0.06314985505
0.06314985506
0.0631498551
0.06314985524
0.06314985583
0.06314985813
0.06314986705
0.0631499009
0.06315002558
0.06315046567
0.06315192501
0.06315632965
0.06316780064
0.06314985505
0.06314985505
0.06314985506
0.06314985509
0.0631498552
0.06314985564
0.06314985731
0.06314986352
0.06314988606
0.06314996487
0.06315022718
0.0631510423
0.06315334037
0.06315896726
0.06314985505
0.06314985505
0.06314985505
0.06314985507
0.06314985516
0.06314985546
0.06314985655
0.06314986043
0.06314987376
0.06314991766
0.06315005486
0.06315045453
0.06315151388
0.0631539862
0.06314985505
0.06314985505
0.06314985505
0.06314985507
0.06314985513
0.06314985535
0.06314985614
0.06314985878
0.06314986743
0.06314989448
0.06314997446
0.0631501949
0.06315075067
0.06315200294
0.06315446335
0.06314985505
0.06314985505
0.06314985505
0.06314985506
0.06314985511
0.06314985529
0.06314985587
0.06314985777
0.06314986374
0.06314988169
0.06314993261
0.06315006752
0.0631503963
0.06315112122
0.06314985505
0.06314985505
0.06314985505
0.06314985507
0.06314985513
0.06314985535
0.06314985614
0.06314985878
0.06314986743
0.06314989448
0.06314997446
0.06315019491
0.06315075068
0.06315200295
0.06314985505
0.06314985505
0.06314985505
0.06314985508
0.06314985516
0.06314985547
0.06314985661
0.06314986061
0.06314987427
0.06314991897
0.06315005752
0.06315045756
0.06315150904
0.0631539477
0.06314985505
0.06314985505
0.06314985506
0.06314985508
0.06314985519
0.06314985559
0.0631498571
0.06314986258
0.06314988195
0.06314994779
0.06315016059
0.06315080265
0.06315256434
0.06315679172
0.06314985505
0.06314985505
0.06314985506
0.06314985509
0.0631498552
0.06314985565
0.06314985732
0.06314986351
0.06314988574
0.06314996284
0.06315021811
0.06315101071
0.06315325708
0.06315881811
0.06314985505
0.06314985505
0.06314985506
0.06314985508
0.06314985519
0.06314985559
0.0631498571
0.06314986258
0.06314988195
0.06314994779
0.06315016059
0.06315080265
0.06315256434
0.06315679173
0.06314985505
0.06314985505
0.06314985505
0.06314985508
0.06314985516
0.06314985547
0.06314985661
0.06314986061
0.06314987427
0.06314991897
0.06315005751
0.06315045756
0.06315150903
0.06315394769
0.06314985505
0.06314985505
0.06314985505
0.06314985507
0.06314985513
0.06314985535
0.06314985614
0.06314985878
0.06314986743
0.06314989448
0.06314997446
0.0631501949
0.06315075067
0.06315200295
0.06314985505
0.06314985505
0.06314985505
0.06314985506
0.06314985511
0.06314985529
0.06314985587
0.06314985777
0.06314986374
0.06314988169
0.06314993261
0.06315006752
0.0631503963
0.06315112124
)
;

boundaryField
{
    top
    {
        type            zeroGradient;
    }
    bottom
    {
        type            zeroGradient;
    }
    side-walls
    {
        type            zeroGradient;
    }
    inlet
    {
        type            zeroGradient;
    }
    outlet
    {
        type            zeroGradient;
    }
    procBoundary0to1
    {
        type            processor;
        value           nonuniform List<scalar> 
97
(
0.06315502103
0.06315446338
0.06315861871
0.06316655413
0.06317815973
0.0631864295
0.0631781595
0.06316655394
0.06315861855
0.06315502089
0.06315446338
0.06315446338
0.06316671158
0.06317017557
0.0631870386
0.06322308942
0.06325702819
0.06322308887
0.06318703807
0.06316671118
0.06315861856
0.0631587508
0.06317017557
0.06317017557
0.0632469538
0.06328962561
0.06337992079
0.06355368032
0.06337991856
0.0632469519
0.06318703804
0.06316655394
0.06316517807
0.06319121863
0.06328962561
0.06328962561
0.06383482734
0.06456810103
0.06472539251
0.06383481907
0.06337991847
0.06322308889
0.06317815953
0.06316999081
0.06321313827
0.06342329814
0.06456810103
0.06456810103
0.06855633127
0.06456810225
0.06472539265
0.0636264244
0.06355367992
0.06325702789
0.06318642935
0.06316517798
0.06319121825
0.06328962274
0.06362642297
0.06456810225
0.0636264244
0.0636264244
0.06337992069
0.06320507368
0.06322308925
0.06317815962
0.0631587507
0.06317017512
0.06320507291
0.06328962241
0.06342329728
0.06328962191
0.06320507368
0.06320507368
0.06318703849
0.06315885969
0.06316655412
0.06315446325
0.06315885951
0.06317017503
0.06319121809
0.06321313792
0.063191218
0.0631701751
0.06315885969
0.06315885969
0.0631586187
0.06315254546
0.0631525454
0.06315446324
0.06315875068
0.06316517795
0.0631699907
0.06316517795
0.06315875067
0.06315446327
0.06315254546
)
;
    }
}


// ************************************************************************* //
