/*--------------------------------*- C++ -*----------------------------------*\
| =========                 |                                                 |
| \\      /  F ield         | OpenFOAM: The Open Source CFD Toolbox           |
|  \\    /   O peration     | Version:  4.x                                   |
|   \\  /    A nd           | Web:      www.OpenFOAM.org                      |
|    \\/     M anipulation  |                                                 |
\*---------------------------------------------------------------------------*/
FoamFile
{
    version     2.0;
    format      ascii;
    class       volScalarField;
    location    "3000";
    object      Cpv;
}
// * * * * * * * * * * * * * * * * * * * * * * * * * * * * * * * * * * * * * //

dimensions      [0 2 -2 -1 0 0 0];

internalField   nonuniform List<scalar> 
1175
(
1245.09084
1245.090853
1245.090842
1245.090849
1245.090843
1245.090859
1245.090856
1245.090847
1245.090874
1245.09088
1245.090894
1245.090879
1245.090881
1245.090883
1245.090884
1245.090921
1245.090929
1245.090931
1245.090939
1245.090946
1245.090943
1245.090939
1245.090924
1245.090913
1245.0909
1245.090914
1245.090937
1245.090941
1245.090918
1245.090912
1245.090455
1245.090447
1245.090429
1245.090436
1245.090413
1245.090401
1245.090408
1245.090395
1245.090383
1245.090387
1245.090394
1245.090389
1245.090407
1245.090376
1245.090401
1245.091183
1245.091184
1245.091174
1245.091174
1245.091192
1245.091183
1245.091181
1245.091168
1245.091156
1245.091141
1245.091126
1245.09113
1245.091138
1245.091157
1245.091169
1245.09082
1245.09083
1245.090827
1245.090815
1245.090787
1245.09078
1245.090776
1245.090774
1245.090798
1245.090784
1245.090781
1245.09077
1245.090809
1245.090789
1245.090807
1245.090305
1245.090319
1245.090317
1245.090306
1245.090278
1245.090261
1245.090278
1245.090272
1245.090252
1245.090248
1245.090246
1245.090268
1245.090274
1245.090276
1245.090295
1245.090467
1245.090444
1245.090428
1245.090433
1245.090461
1245.090462
1245.090446
1245.090462
1245.090477
1245.090498
1245.09051
1245.090495
1245.090492
1245.090506
1245.090502
1245.091198
1245.091195
1245.091199
1245.091211
1245.091184
1245.091189
1245.091201
1245.091188
1245.09121
1245.091211
1245.091214
1245.091209
1245.091197
1245.091201
1245.091203
1245.090851
1245.090851
1245.090875
1245.090858
1245.090862
1245.090852
1245.090865
1245.090854
1245.090835
1245.090839
1245.09085
1245.09084
1245.090833
1245.09082
1245.090854
1245.091055
1245.09104
1245.091019
1245.091032
1245.091037
1245.091025
1245.091035
1245.091044
1245.091033
1245.091034
1245.091048
1245.091032
1245.091046
1245.091048
1245.090941
1245.090938
1245.090899
1245.090915
1245.090893
1245.090908
1245.090884
1245.090891
1245.090869
1245.09086
1245.090861
1245.090843
1245.090838
1245.090864
1245.090826
1245.090939
1245.090931
1245.090962
1245.090952
1245.090925
1245.09091
1245.090894
1245.09089
1245.090907
1245.090898
1245.090914
1245.090893
1245.090943
1245.090945
1245.090949
1245.091089
1245.091078
1245.091099
1245.091072
1245.091075
1245.091061
1245.091048
1245.09104
1245.091032
1245.091004
1245.090992
1245.090963
1245.09097
1245.090992
1245.091023
1245.091063
1245.091059
1245.091078
1245.091089
1245.091105
1245.091101
1245.091079
1245.091099
1245.091082
1245.091052
1245.091071
1245.091075
1245.091079
1245.091086
1245.091155
1245.090768
1245.090772
1245.090778
1245.090759
1245.090771
1245.090786
1245.090775
1245.090779
1245.090776
1245.090762
1245.090735
1245.090745
1245.090779
1245.090821
1245.090835
1245.091435
1245.091418
1245.091384
1245.091373
1245.091371
1245.091371
1245.091371
1245.091368
1245.091356
1245.091367
1245.091385
1245.091403
1245.09141
1245.091424
1245.09142
1245.090278
1245.090297
1245.090306
1245.090325
1245.090337
1245.090298
1245.090323
1245.09032
1245.090309
1245.09031
1245.090319
1245.09032
1245.090309
1245.090316
1245.090312
1245.091327
1245.091329
1245.091335
1245.091342
1245.091312
1245.09132
1245.091321
1245.091319
1245.091307
1245.091285
1245.091263
1245.091273
1245.091274
1245.091277
1245.091295
1245.091017
1245.091022
1245.090999
1245.090988
1245.090971
1245.090988
1245.090991
1245.091007
1245.091003
1245.091007
1245.091035
1245.091019
1245.091024
1245.091009
1245.090473
1245.090446
1245.09046
1245.090486
1245.090485
1245.090476
1245.090483
1245.090463
1245.090457
1245.090456
1245.090478
1245.090462
1245.090494
1245.090473
1245.090712
1245.090713
1245.090693
1245.090687
1245.09067
1245.090654
1245.090651
1245.09064
1245.090623
1245.090614
1245.090626
1245.090633
1245.09062
1245.090652
1245.090699
1245.090858
1245.090858
1245.090869
1245.090905
1245.090898
1245.090903
1245.090867
1245.09086
1245.090877
1245.09089
1245.090925
1245.090904
1245.090922
1245.090948
1245.091032
1245.091267
1245.091289
1245.091319
1245.091297
1245.091278
1245.091273
1245.09128
1245.091287
1245.091267
1245.091277
1245.091273
1245.091293
1245.091327
1245.091427
1245.091617
1245.09049
1245.0905
1245.090513
1245.090477
1245.090489
1245.090478
1245.090457
1245.090444
1245.090439
1245.090443
1245.090446
1245.090471
1245.090505
1245.090543
1245.090659
1245.091169
1245.091147
1245.091137
1245.091142
1245.091132
1245.091123
1245.091131
1245.091112
1245.09113
1245.091139
1245.091137
1245.091142
1245.091125
1245.091181
1245.091187
1245.090948
1245.090953
1245.090944
1245.090944
1245.090937
1245.090937
1245.090908
1245.090938
1245.090925
1245.09091
1245.090931
1245.090919
1245.090932
1245.09094
1245.090984
1245.090368
1245.090362
1245.090374
1245.090376
1245.090378
1245.090395
1245.090391
1245.090381
1245.090385
1245.090365
1245.090353
1245.090359
1245.090404
1245.090413
1245.090416
1245.090565
1245.090554
1245.090563
1245.090578
1245.090572
1245.090579
1245.090572
1245.090574
1245.09055
1245.090557
1245.090549
1245.090564
1245.090577
1245.09059
1245.090558
1245.090593
1245.09059
1245.09058
1245.090591
1245.090602
1245.090594
1245.090598
1245.090601
1245.090593
1245.090561
1245.09056
1245.090557
1245.090559
1245.090425
1245.090412
1245.090406
1245.090423
1245.090414
1245.090406
1245.090407
1245.090412
1245.090412
1245.090441
1245.090454
1245.090489
1245.090498
1245.09056
1245.090866
1245.090917
1245.090912
1245.09089
1245.090925
1245.09089
1245.090865
1245.0909
1245.090859
1245.090837
1245.090846
1245.09084
1245.090858
1245.091012
1245.091323
1245.090981
1245.090979
1245.09098
1245.091004
1245.090993
1245.09101
1245.090996
1245.090999
1245.091025
1245.091031
1245.09102
1245.091072
1245.09116
1245.091478
1245.091027
1245.090679
1245.090665
1245.090646
1245.090654
1245.090645
1245.09065
1245.090624
1245.090599
1245.09061
1245.090645
1245.090643
1245.090635
1245.090707
1245.090853
1245.091192
1245.090668
1245.09068
1245.090657
1245.090683
1245.090668
1245.090688
1245.090703
1245.090723
1245.090709
1245.090716
1245.090672
1245.090677
1245.090675
1245.090714
1245.090813
1245.091369
1245.091359
1245.091373
1245.091398
1245.091411
1245.091413
1245.091416
1245.091419
1245.091417
1245.091407
1245.091407
1245.091426
1245.091423
1245.091438
1245.091456
1245.090902
1245.090908
1245.090902
1245.090889
1245.090873
1245.090867
1245.090873
1245.090902
1245.090885
1245.090888
1245.090903
1245.090892
1245.090903
1245.090895
1245.090904
1245.090874
1245.090885
1245.090898
1245.090861
1245.090872
1245.090876
1245.090898
1245.09091
1245.090902
1245.090896
1245.090905
1245.090904
1245.090893
1245.0909
1245.090694
1245.090699
1245.090695
1245.090703
1245.090691
1245.090689
1245.090709
1245.090692
1245.090688
1245.090685
1245.090694
1245.090705
1245.0907
1245.09074
1245.091329
1245.091323
1245.09134
1245.09134
1245.091318
1245.091304
1245.091318
1245.09129
1245.09127
1245.091261
1245.091238
1245.09127
1245.09131
1245.09139
1245.090845
1245.090826
1245.090808
1245.090797
1245.090798
1245.090786
1245.090787
1245.090792
1245.090783
1245.090767
1245.090764
1245.090763
1245.090819
1245.091118
1245.091252
1245.091258
1245.091272
1245.091274
1245.09131
1245.091336
1245.09132
1245.091323
1245.091323
1245.091305
1245.091318
1245.091358
1245.091563
1245.092748
1243.708272
1245.091492
1245.091511
1245.091514
1245.091481
1245.091489
1245.091493
1245.091492
1245.091491
1245.091484
1245.091461
1245.091453
1245.091484
1245.091532
1245.091846
1245.091387
1245.090754
1245.090762
1245.090764
1245.090752
1245.090766
1245.090785
1245.090779
1245.090773
1245.090782
1245.090782
1245.090782
1245.090777
1245.0908
1245.090898
1245.091108
1245.090673
1245.090677
1245.090693
1245.090672
1245.090667
1245.090688
1245.090676
1245.090688
1245.090673
1245.090679
1245.090677
1245.090707
1245.090719
1245.09071
1245.090763
1245.090358
1245.090338
1245.090322
1245.090316
1245.090322
1245.090306
1245.090286
1245.090292
1245.090298
1245.090276
1245.090287
1245.0903
1245.090281
1245.090274
1245.090313
1245.090189
1245.090187
1245.090189
1245.090195
1245.090186
1245.090182
1245.090171
1245.090181
1245.090199
1245.090199
1245.090181
1245.090164
1245.090166
1245.090166
1245.090645
1245.090671
1245.090671
1245.090679
1245.090683
1245.090677
1245.090704
1245.090694
1245.090703
1245.090704
1245.090691
1245.090715
1245.090726
1245.090707
1245.091111
1245.09112
1245.091112
1245.091115
1245.091128
1245.091131
1245.091117
1245.09111
1245.091135
1245.091128
1245.091164
1245.091176
1245.091184
1245.091243
1245.090822
1245.090805
1245.090775
1245.090752
1245.09074
1245.090735
1245.090781
1245.090796
1245.090813
1245.090802
1245.090823
1245.090841
1245.090877
1245.091027
1245.091459
1245.091468
1245.09146
1245.091475
1245.091485
1245.091458
1245.091473
1245.091451
1245.091454
1245.091481
1245.091494
1245.091518
1245.091576
1245.091923
1245.090497
1245.090485
1245.090499
1245.090485
1245.090486
1245.090496
1245.090488
1245.090481
1245.090475
1245.090479
1245.09045
1245.09047
1245.090507
1245.090648
1245.090476
1245.090482
1245.090454
1245.090469
1245.090447
1245.090428
1245.090438
1245.090431
1245.090398
1245.090425
1245.090425
1245.090448
1245.090485
1245.090503
1245.090594
1245.090097
1245.090114
1245.090118
1245.090133
1245.090109
1245.090115
1245.090108
1245.09013
1245.090123
1245.090113
1245.090134
1245.090143
1245.090131
1245.090154
1245.090161
1245.090933
1245.090914
1245.090904
1245.090913
1245.090921
1245.090926
1245.090942
1245.090912
1245.090918
1245.090926
1245.090932
1245.090912
1245.090916
1245.09092
1245.090919
1245.091175
1245.091158
1245.091166
1245.091153
1245.091155
1245.091165
1245.09116
1245.091173
1245.091154
1245.091151
1245.091139
1245.091135
1245.091134
1245.091175
1245.091657
1245.091667
1245.09167
1245.091656
1245.091676
1245.09167
1245.091703
1245.091706
1245.091705
1245.091721
1245.091739
1245.091767
1245.091791
1245.091765
1245.091615
1245.09162
1245.091596
1245.091563
1245.091545
1245.091549
1245.091559
1245.091534
1245.09154
1245.091543
1245.091536
1245.091538
1245.091533
1245.091563
1245.090766
1245.090763
1245.090737
1245.090774
1245.090787
1245.090784
1245.090801
1245.09085
1245.09086
1245.090855
1245.09086
1245.09086
1245.090901
1245.090935
1245.090346
1245.090319
1245.090313
1245.090304
1245.090274
1245.090285
1245.090304
1245.090287
1245.090271
1245.090259
1245.090267
1245.090285
1245.090308
1245.090347
1245.090327
1245.090329
1245.090343
1245.090333
1245.090327
1245.090332
1245.090355
1245.090359
1245.090385
1245.090341
1245.090314
1245.090327
1245.090327
1245.090378
1245.09107
1245.091061
1245.091069
1245.091075
1245.091096
1245.091083
1245.091077
1245.091091
1245.09105
1245.091062
1245.091058
1245.091063
1245.091092
1245.091116
1245.090485
1245.090477
1245.090469
1245.090444
1245.090472
1245.09048
1245.090484
1245.090488
1245.090485
1245.090465
1245.090478
1245.090487
1245.090485
1245.090512
1245.09051
1245.090838
1245.090843
1245.090845
1245.090835
1245.090839
1245.090832
1245.090805
1245.090797
1245.090792
1245.090808
1245.090795
1245.090817
1245.090826
1245.090828
1245.090827
1245.091089
1245.091094
1245.091095
1245.091093
1245.091097
1245.091111
1245.091148
1245.091143
1245.091131
1245.09114
1245.09114
1245.091132
1245.091122
1245.091104
1245.090502
1245.090511
1245.090504
1245.090527
1245.090523
1245.090507
1245.090513
1245.090531
1245.09056
1245.090564
1245.090569
1245.090569
1245.090555
1245.090547
1245.090719
1245.090721
1245.090737
1245.090751
1245.090776
1245.090775
1245.090787
1245.090753
1245.090762
1245.090756
1245.090754
1245.090716
1245.090712
1245.090712
1245.090648
1245.090644
1245.090646
1245.090673
1245.090671
1245.090664
1245.09065
1245.090631
1245.090634
1245.090651
1245.090635
1245.090653
1245.090682
1245.09069
1245.09096
1245.090942
1245.090931
1245.090942
1245.090936
1245.090924
1245.090899
1245.090902
1245.090923
1245.090923
1245.090937
1245.090925
1245.090936
1245.090988
1245.091065
1245.09109
1245.091083
1245.091104
1245.091107
1245.091135
1245.091135
1245.091139
1245.091146
1245.091144
1245.091152
1245.091177
1245.091184
1245.091226
1245.090486
1245.090501
1245.090504
1245.090483
1245.090509
1245.090489
1245.090519
1245.090507
1245.090502
1245.090506
1245.090483
1245.090494
1245.0905
1245.090499
1245.090905
1245.090896
1245.090909
1245.090916
1245.090923
1245.090936
1245.090919
1245.090946
1245.090964
1245.090977
1245.090982
1245.090984
1245.090992
1245.090989
1245.090989
1245.090999
1245.091012
1245.09102
1245.091002
1245.090997
1245.090986
1245.090979
1245.09098
1245.090979
1245.090977
1245.090983
1245.090964
1245.090974
1245.090962
1245.090539
1245.090545
1245.090536
1245.090539
1245.090551
1245.090565
1245.090552
1245.090566
1245.09055
1245.090571
1245.090562
1245.090569
1245.090545
1245.090547
1245.090565
1245.090558
1245.090554
1245.090558
1245.090549
1245.090543
1245.090553
1245.090561
1245.090564
1245.090563
1245.090575
1245.09057
1245.090577
1245.090586
1245.091074
1245.091086
1245.091079
1245.091069
1245.091041
1245.091045
1245.091046
1245.091064
1245.091098
1245.09111
1245.091092
1245.091105
1245.091109
1245.091119
1245.090849
1245.090839
1245.090849
1245.090854
1245.090853
1245.090879
1245.090877
1245.090879
1245.090883
1245.090871
1245.090866
1245.090861
1245.090861
1245.090878
1245.090831
1245.090821
1245.090803
1245.090798
1245.090804
1245.090823
1245.090831
1245.090847
1245.090828
1245.090826
1245.090804
1245.090813
1245.090799
1245.090807
1245.091631
1245.091662
1245.091656
1245.091665
1245.091651
1245.091645
1245.091643
1245.091656
1245.091634
1245.091616
1245.091606
1245.091588
1245.091579
1245.091587
1245.090861
1245.090874
1245.090871
1245.090894
1245.090887
1245.090889
1245.090849
1245.090856
1245.090864
1245.090856
1245.090846
1245.090853
1245.090853
1245.090846
1245.090309
1245.090325
1245.09031
1245.090291
1245.090287
1245.090312
1245.090324
1245.090336
1245.090354
1245.090351
1245.090364
1245.090351
1245.090354
1245.09035
1245.090739
1245.090737
1245.09073
1245.09075
1245.090759
1245.09077
1245.090762
1245.090777
1245.090782
1245.090798
1245.090795
1245.090794
1245.090784
1245.090776
)
;

boundaryField
{
    top
    {
        type            calculated;
        value           nonuniform List<scalar> 
134
(
1245.090851
1245.091327
1245.090368
1245.090902
1245.090358
1245.090933
1245.090838
1245.090989
1245.090739
1245.090851
1245.091329
1245.090362
1245.090908
1245.090338
1245.090914
1245.090843
1245.090999
1245.090737
1245.090875
1245.091335
1245.090374
1245.090902
1245.090322
1245.090904
1245.090845
1245.091012
1245.09073
1245.090858
1245.091342
1245.090376
1245.090889
1245.090316
1245.090913
1245.090835
1245.09102
1245.09075
1245.090862
1245.091312
1245.090378
1245.090873
1245.090322
1245.090921
1245.090839
1245.091002
1245.090759
1245.090852
1245.09132
1245.090395
1245.090867
1245.090306
1245.090926
1245.090832
1245.090997
1245.09077
1245.090865
1245.091321
1245.090391
1245.090873
1245.090286
1245.090942
1245.090805
1245.090986
1245.090762
1245.090854
1245.091319
1245.090381
1245.090902
1245.090292
1245.090912
1245.090797
1245.090979
1245.090777
1245.090835
1245.091307
1245.090385
1245.090885
1245.090298
1245.090918
1245.090792
1245.09098
1245.090782
1245.090839
1245.091285
1245.090365
1245.090888
1245.090276
1245.090926
1245.090808
1245.090979
1245.090798
1245.09085
1245.091263
1245.090353
1245.090903
1245.090287
1245.090932
1245.090795
1245.090977
1245.090795
1245.09084
1245.091273
1245.090359
1245.090892
1245.0903
1245.090912
1245.090817
1245.090983
1245.090794
1245.090833
1245.091274
1245.090404
1245.090903
1245.090281
1245.090916
1245.090826
1245.090964
1245.090784
1245.09082
1245.091277
1245.090413
1245.090895
1245.090274
1245.09092
1245.090828
1245.090974
1245.090776
1245.090854
1245.091295
1245.090416
1245.090904
1245.090313
1245.090919
1245.090827
1245.090962
)
;
    }
    bottom
    {
        type            calculated;
        value           nonuniform List<scalar> 
127
(
1245.09084
1245.091055
1245.091017
1245.090565
1245.090874
1245.090189
1245.091175
1245.091089
1245.090539
1245.090853
1245.09104
1245.091022
1245.090554
1245.090885
1245.090187
1245.091158
1245.091094
1245.090545
1245.090842
1245.091019
1245.090999
1245.090563
1245.090898
1245.090189
1245.091166
1245.091095
1245.090536
1245.090849
1245.091032
1245.090988
1245.090578
1245.090861
1245.090195
1245.091153
1245.091093
1245.090539
1245.090843
1245.091037
1245.090971
1245.090572
1245.090872
1245.090186
1245.091155
1245.091097
1245.090551
1245.090859
1245.091025
1245.090988
1245.090579
1245.090876
1245.090182
1245.091165
1245.091111
1245.090565
1245.090856
1245.091035
1245.090991
1245.090572
1245.090898
1245.090171
1245.09116
1245.091148
1245.090552
1245.090847
1245.091044
1245.091007
1245.090574
1245.09091
1245.090181
1245.091173
1245.091143
1245.090566
1245.090874
1245.091033
1245.091003
1245.09055
1245.090902
1245.090199
1245.091154
1245.091131
1245.09055
1245.09088
1245.091034
1245.091007
1245.090557
1245.090896
1245.090199
1245.091151
1245.09114
1245.090571
1245.090894
1245.091048
1245.091035
1245.090549
1245.090905
1245.090181
1245.091139
1245.09114
1245.090562
1245.090879
1245.091032
1245.091019
1245.090564
1245.090904
1245.090164
1245.091135
1245.091132
1245.090569
1245.090881
1245.091046
1245.091024
1245.090577
1245.090893
1245.090166
1245.091134
1245.091122
1245.090545
1245.090883
1245.091048
1245.091009
1245.09059
1245.0909
1245.090166
1245.091175
1245.091104
1245.090547
1245.090884
)
;
    }
    side-walls
    {
        type            calculated;
        value           nonuniform List<scalar> 
261
(
1245.09084
1245.090921
1245.090455
1245.091183
1245.09082
1245.090305
1245.090467
1245.091198
1245.090851
1245.090853
1245.090929
1245.090447
1245.091184
1245.09083
1245.090319
1245.090444
1245.091195
1245.090851
1245.090842
1245.090931
1245.090429
1245.091174
1245.090827
1245.090317
1245.090428
1245.091199
1245.090875
1245.090849
1245.090939
1245.090436
1245.091174
1245.090815
1245.090306
1245.090433
1245.091211
1245.090858
1245.090843
1245.090946
1245.090413
1245.091192
1245.090787
1245.090278
1245.090461
1245.091184
1245.090862
1245.090859
1245.090943
1245.090401
1245.091183
1245.09078
1245.090261
1245.090462
1245.091189
1245.090852
1245.090856
1245.090939
1245.090408
1245.091181
1245.090776
1245.090278
1245.090446
1245.091201
1245.090865
1245.090847
1245.090924
1245.090395
1245.091168
1245.090774
1245.090272
1245.090462
1245.091188
1245.090854
1245.090874
1245.090913
1245.090383
1245.091156
1245.090798
1245.090252
1245.090477
1245.09121
1245.090835
1245.09088
1245.0909
1245.090387
1245.091141
1245.090784
1245.090248
1245.090498
1245.091211
1245.090839
1245.090894
1245.090914
1245.090394
1245.091126
1245.090781
1245.090246
1245.09051
1245.091214
1245.09085
1245.090879
1245.090937
1245.090389
1245.09113
1245.09077
1245.090268
1245.090495
1245.091209
1245.09084
1245.090881
1245.090941
1245.090407
1245.091138
1245.090809
1245.090274
1245.090492
1245.091197
1245.090833
1245.090883
1245.090918
1245.090376
1245.091157
1245.090789
1245.090276
1245.090506
1245.091201
1245.09082
1245.090884
1245.090912
1245.090401
1245.091169
1245.090807
1245.090295
1245.090502
1245.091203
1245.090854
1245.090539
1245.090565
1245.091074
1245.090849
1245.090831
1245.091631
1245.090861
1245.090309
1245.090739
1245.090545
1245.090558
1245.091086
1245.090839
1245.090821
1245.091662
1245.090874
1245.090325
1245.090737
1245.090536
1245.090554
1245.091079
1245.090849
1245.090803
1245.091656
1245.090871
1245.09031
1245.09073
1245.090539
1245.090558
1245.091069
1245.090854
1245.090798
1245.091665
1245.090894
1245.090291
1245.09075
1245.090551
1245.090549
1245.091041
1245.090853
1245.090804
1245.091651
1245.090887
1245.090287
1245.090759
1245.090565
1245.090543
1245.091045
1245.090879
1245.090823
1245.091645
1245.090889
1245.090312
1245.09077
1245.090552
1245.090553
1245.091046
1245.090877
1245.090831
1245.091643
1245.090849
1245.090324
1245.090762
1245.090566
1245.090561
1245.091064
1245.090879
1245.090847
1245.091656
1245.090856
1245.090336
1245.090777
1245.09055
1245.090564
1245.091098
1245.090883
1245.090828
1245.091634
1245.090864
1245.090354
1245.090782
1245.090571
1245.090563
1245.09111
1245.090871
1245.090826
1245.091616
1245.090856
1245.090351
1245.090798
1245.090562
1245.090575
1245.091092
1245.090866
1245.090804
1245.091606
1245.090846
1245.090364
1245.090795
1245.090569
1245.09057
1245.091105
1245.090861
1245.090813
1245.091588
1245.090853
1245.090351
1245.090794
1245.090545
1245.090577
1245.091109
1245.090861
1245.090799
1245.091579
1245.090853
1245.090354
1245.090784
1245.090547
1245.090586
1245.091119
1245.090878
1245.090807
1245.091587
1245.090846
1245.09035
1245.090776
)
;
    }
    inlet
    {
        type            calculated;
        value           nonuniform List<scalar> 
81
(
1245.09084
1245.090921
1245.090455
1245.091183
1245.09082
1245.090305
1245.090467
1245.091198
1245.090851
1245.091055
1245.090941
1245.090939
1245.091089
1245.091063
1245.090768
1245.091435
1245.090278
1245.091327
1245.091017
1245.090473
1245.090712
1245.090858
1245.091267
1245.09049
1245.091169
1245.090948
1245.090368
1245.090565
1245.090558
1245.090425
1245.090866
1245.090981
1245.090679
1245.090668
1245.091369
1245.090902
1245.090874
1245.090694
1245.091329
1245.090845
1245.091252
1245.091492
1245.090754
1245.090673
1245.090358
1245.090189
1245.090645
1245.091111
1245.090822
1245.091459
1245.090497
1245.090476
1245.090097
1245.090933
1245.091175
1245.091657
1245.091615
1245.090766
1245.090346
1245.090327
1245.09107
1245.090485
1245.090838
1245.091089
1245.090502
1245.090719
1245.090648
1245.09096
1245.091065
1245.090486
1245.090905
1245.090989
1245.090539
1245.090565
1245.091074
1245.090849
1245.090831
1245.091631
1245.090861
1245.090309
1245.090739
)
;
    }
    outlet
    {
        type            calculated;
        value           nonuniform 0();
    }
    procBoundary0to1
    {
        type            processor;
        value           nonuniform List<scalar> 
97
(
1245.090875
1245.091074
1245.090942
1245.090401
1245.091188
1245.090834
1245.090285
1245.090523
1245.09119
1245.090844
1245.091074
1245.091074
1245.090815
1245.0905
1245.090968
1245.091042
1245.091214
1245.090851
1245.091459
1245.0903
1245.091343
1245.091008
1245.0905
1245.0905
1245.09074
1245.090673
1245.091129
1245.091751
1245.090767
1245.091247
1245.090976
1245.090418
1245.090583
1245.090615
1245.090673
1245.090673
1245.091558
1245.090663
1245.091245
1245.091441
1245.090901
1245.09148
1245.090906
1245.090953
1245.090803
1245.091572
1245.090663
1245.090663
1243.706955
1245.091442
1245.091626
1245.091
1245.091287
1245.090804
1245.090332
1245.090196
1245.090717
1245.091324
1245.09138
1245.091442
1245.091
1245.091
1245.090683
1245.091133
1245.090222
1245.090923
1245.091162
1245.091791
1245.091591
1245.091003
1245.090573
1245.09044
1245.091133
1245.091133
1245.090529
1245.091004
1245.090847
1245.091119
1245.090573
1245.090754
1245.09072
1245.09106
1245.091218
1245.090528
1245.091004
1245.091004
1245.090982
1245.090769
1245.090543
1245.090566
1245.091108
1245.090883
1245.090822
1245.091593
1245.090844
1245.090365
1245.090769
)
;
    }
}


// ************************************************************************* //
