/*--------------------------------*- C++ -*----------------------------------*\
| =========                 |                                                 |
| \\      /  F ield         | OpenFOAM: The Open Source CFD Toolbox           |
|  \\    /   O peration     | Version:  4.x                                   |
|   \\  /    A nd           | Web:      www.OpenFOAM.org                      |
|    \\/     M anipulation  |                                                 |
\*---------------------------------------------------------------------------*/
FoamFile
{
    version     2.0;
    format      ascii;
    class       volScalarField;
    location    "3000";
    object      H2;
}
// * * * * * * * * * * * * * * * * * * * * * * * * * * * * * * * * * * * * * //

dimensions      [0 0 0 0 0 0 0];

internalField   nonuniform List<scalar> 
1175
(
0.00217251335
0.00217251335
0.00217251335
0.00217251335
0.002172513349
0.002172513345
0.002172513334
0.002172513297
0.002172513182
0.002172512836
0.002172511854
0.00217250925
0.002172502906
0.002172488917
0.002172461432
0.00217251335
0.00217251335
0.00217251335
0.002172513349
0.002172513348
0.002172513344
0.002172513329
0.002172513278
0.002172513111
0.002172512589
0.002172511046
0.002172506791
0.002172496064
0.002172471891
0.002172424397
0.00217251335
0.00217251335
0.00217251335
0.002172513349
0.002172513348
0.002172513342
0.00217251332
0.002172513243
0.002172512979
0.002172512116
0.002172509442
0.002172501719
0.002172481418
0.002172434331
0.002172341588
0.00217251335
0.00217251335
0.00217251335
0.002172513349
0.002172513347
0.002172513339
0.00217251331
0.002172513204
0.002172512831
0.00217251156
0.002172507451
0.002172495054
0.002172461034
0.00217237939
0.002172217418
0.00217251335
0.00217251335
0.00217251335
0.002172513349
0.002172513347
0.002172513338
0.002172513306
0.002172513187
0.002172512758
0.002172511269
0.002172506341
0.002172491035
0.00217244765
0.002172340235
0.002172124415
0.00217251335
0.00217251335
0.00217251335
0.002172513349
0.002172513347
0.002172513339
0.00217251331
0.002172513204
0.002172512831
0.00217251156
0.002172507452
0.002172495054
0.002172461034
0.002172379391
0.002172217421
0.00217251335
0.00217251335
0.00217251335
0.002172513349
0.002172513348
0.002172513342
0.00217251332
0.002172513243
0.002172512979
0.002172512116
0.002172509442
0.002172501719
0.002172481418
0.002172434332
0.00217234159
0.00217251335
0.00217251335
0.00217251335
0.002172513349
0.002172513348
0.002172513344
0.002172513329
0.002172513278
0.002172513111
0.002172512589
0.002172511046
0.002172506791
0.002172496064
0.002172471891
0.002172424399
0.00217251335
0.00217251335
0.00217251335
0.00217251335
0.002172513349
0.002172513345
0.002172513334
0.002172513297
0.002172513182
0.002172512836
0.002172511854
0.00217250925
0.002172502906
0.002172488917
0.002172461434
0.00217251335
0.00217251335
0.00217251335
0.002172513349
0.002172513348
0.002172513344
0.002172513329
0.002172513278
0.002172513111
0.002172512589
0.002172511046
0.002172506791
0.002172496063
0.00217247189
0.00217251335
0.00217251335
0.00217251335
0.002172513349
0.002172513348
0.002172513342
0.002172513321
0.002172513246
0.002172512989
0.002172512142
0.002172509493
0.002172501777
0.002172481323
0.002172433583
0.002172339475
0.00217251335
0.00217251335
0.00217251335
0.002172513349
0.002172513347
0.002172513338
0.002172513306
0.002172513186
0.002172512751
0.00217251123
0.002172506165
0.002172490424
0.00217244604
0.002172337353
0.002172120856
0.00217251335
0.00217251335
0.00217251335
0.002172513349
0.002172513346
0.002172513335
0.00217251329
0.002172513118
0.002172512465
0.002172510057
0.002172501558
0.002172473371
0.002172388282
0.002172166658
0.002171714193
0.00217251335
0.00217251335
0.00217251335
0.002172513349
0.002172513346
0.002172513333
0.002172513283
0.002172513084
0.002172512311
0.002172509376
0.002172498604
0.002172461088
0.002172340834
0.002172005949
0.002171290467
0.00217251335
0.00217251335
0.00217251335
0.002172513349
0.002172513346
0.002172513335
0.00217251329
0.002172513118
0.002172512465
0.002172510057
0.002172501558
0.002172473371
0.002172388283
0.002172166661
0.0021717142
0.00217251335
0.00217251335
0.00217251335
0.002172513349
0.002172513347
0.002172513338
0.002172513306
0.002172513186
0.002172512751
0.00217251123
0.002172506165
0.002172490424
0.00217244604
0.002172337355
0.002172120862
0.00217251335
0.00217251335
0.00217251335
0.002172513349
0.002172513348
0.002172513342
0.002172513321
0.002172513246
0.002172512989
0.002172512142
0.002172509493
0.002172501777
0.002172481323
0.002172433585
0.00217233948
0.00217251335
0.00217251335
0.00217251335
0.002172513349
0.002172513348
0.002172513344
0.002172513329
0.002172513278
0.002172513111
0.002172512589
0.002172511046
0.002172506791
0.002172496064
0.002172471891
0.002172424399
0.00217251335
0.00217251335
0.00217251335
0.002172513349
0.002172513348
0.002172513342
0.00217251332
0.002172513243
0.002172512979
0.002172512116
0.002172509442
0.002172501719
0.002172481417
0.002172434329
0.00217251335
0.00217251335
0.00217251335
0.002172513349
0.002172513347
0.002172513338
0.002172513306
0.002172513186
0.002172512751
0.00217251123
0.002172506165
0.002172490424
0.002172446039
0.00217233735
0.00217251335
0.00217251335
0.00217251335
0.002172513349
0.002172513346
0.002172513333
0.002172513281
0.002172513076
0.002172512282
0.002172509294
0.002172498515
0.002172462027
0.002172349859
0.002172053667
0.002171446426
0.00217251335
0.00217251335
0.00217251335
0.002172513349
0.002172513344
0.002172513326
0.002172513252
0.002172512942
0.002172511671
0.00217250655
0.002172486571
0.002172412553
0.002172160854
0.002171424052
0.002169812048
0.00217251335
0.00217251335
0.002172513349
0.002172513348
0.002172513344
0.002172513324
0.002172513237
0.00217251287
0.00217251131
0.002172504744
0.002172477591
0.002172368921
0.00217196009
0.002170601377
0.002167227359
0.00217251335
0.00217251335
0.00217251335
0.002172513349
0.002172513344
0.002172513326
0.002172513252
0.002172512942
0.002172511671
0.00217250655
0.002172486571
0.002172412554
0.002172160857
0.002171424065
0.002169812083
0.00217251335
0.00217251335
0.00217251335
0.002172513349
0.002172513346
0.002172513333
0.002172513281
0.002172513076
0.002172512282
0.002172509294
0.002172498515
0.002172462027
0.002172349861
0.002172053677
0.002171446456
0.00217251335
0.00217251335
0.00217251335
0.002172513349
0.002172513347
0.002172513338
0.002172513306
0.002172513186
0.002172512751
0.00217251123
0.002172506165
0.002172490424
0.00217244604
0.002172337355
0.002172120862
0.00217251335
0.00217251335
0.00217251335
0.002172513349
0.002172513348
0.002172513342
0.00217251332
0.002172513243
0.002172512979
0.002172512116
0.002172509442
0.002172501719
0.002172481418
0.002172434332
0.002172341589
0.00217251335
0.00217251335
0.00217251335
0.002172513349
0.002172513347
0.002172513339
0.00217251331
0.002172513204
0.002172512831
0.00217251156
0.002172507451
0.002172495054
0.002172461033
0.002172379387
0.00217251335
0.00217251335
0.00217251335
0.002172513349
0.002172513346
0.002172513335
0.00217251329
0.002172513118
0.002172512465
0.002172510057
0.002172501558
0.00217247337
0.00217238828
0.00217216665
0.00217251335
0.00217251335
0.00217251335
0.002172513349
0.002172513344
0.002172513326
0.002172513252
0.002172512942
0.002172511671
0.00217250655
0.002172486571
0.002172412552
0.002172160849
0.002171424027
0.00217251335
0.00217251335
0.002172513349
0.002172513348
0.002172513342
0.002172513317
0.002172513206
0.002172512716
0.002172510555
0.002172501074
0.002172460076
0.00217228825
0.002171611792
0.002169270304
0.00216329985
0.00217251335
0.00217251335
0.002172513349
0.002172513348
0.002172513341
0.002172513313
0.002172513182
0.002172512585
0.002172509828
0.002172496955
0.002172436308
0.002172150187
0.00217082308
0.002165056488
0.002145088281
0.00217251335
0.00217251335
0.002172513349
0.002172513348
0.002172513342
0.002172513317
0.002172513206
0.002172512716
0.002172510555
0.002172501074
0.002172460076
0.002172288251
0.002171611803
0.002169270355
0.002163300062
0.00217251335
0.00217251335
0.00217251335
0.002172513349
0.002172513344
0.002172513326
0.002172513252
0.002172512942
0.002172511671
0.00217250655
0.002172486571
0.002172412554
0.002172160857
0.002171424063
0.002169812081
0.00217251335
0.00217251335
0.00217251335
0.002172513349
0.002172513346
0.002172513335
0.00217251329
0.002172513118
0.002172512465
0.002172510057
0.002172501558
0.002172473371
0.002172388282
0.00217216666
0.002171714198
0.00217251335
0.00217251335
0.00217251335
0.002172513349
0.002172513347
0.002172513339
0.00217251331
0.002172513204
0.002172512831
0.00217251156
0.002172507451
0.002172495054
0.002172461034
0.002172379391
0.00217221742
0.00217251335
0.00217251335
0.00217251335
0.002172513349
0.002172513347
0.002172513338
0.002172513306
0.002172513187
0.002172512758
0.002172511269
0.00217250634
0.002172491035
0.002172447648
0.00217234023
0.00217251335
0.00217251335
0.00217251335
0.002172513349
0.002172513346
0.002172513333
0.002172513283
0.002172513084
0.002172512311
0.002172509376
0.002172498604
0.002172461087
0.00217234083
0.002172005935
0.00217251335
0.00217251335
0.002172513349
0.002172513348
0.002172513344
0.002172513324
0.002172513237
0.00217251287
0.00217251131
0.002172504744
0.00217247759
0.002172368918
0.002171960077
0.00217060132
0.00217251335
0.00217251335
0.002172513349
0.002172513348
0.002172513341
0.002172513313
0.002172513182
0.002172512585
0.002172509828
0.002172496955
0.002172436308
0.002172150182
0.00217082305
0.00216505627
0.00217251335
0.00217251335
0.002172513349
0.002172513348
0.00217251334
0.002172513307
0.002172513151
0.00217251241
0.002172508781
0.00217249036
0.002172392411
0.002171840977
0.002168521273
0.002147009883
0.001996094496
0.00217251335
0.00217251335
0.002172513349
0.002172513348
0.002172513341
0.002172513313
0.002172513182
0.002172512585
0.002172509828
0.002172496955
0.002172436308
0.002172150185
0.002170823072
0.002165056459
0.002145088227
0.00217251335
0.00217251335
0.002172513349
0.002172513348
0.002172513344
0.002172513324
0.002172513237
0.00217251287
0.00217251131
0.002172504744
0.002172477591
0.00217236892
0.002171960088
0.002170601371
0.002167227353
0.00217251335
0.00217251335
0.00217251335
0.002172513349
0.002172513346
0.002172513333
0.002172513283
0.002172513084
0.002172512311
0.002172509376
0.002172498604
0.002172461088
0.002172340833
0.002172005948
0.002171290467
0.00217251335
0.00217251335
0.00217251335
0.002172513349
0.002172513347
0.002172513338
0.002172513306
0.002172513187
0.002172512758
0.002172511269
0.002172506341
0.002172491035
0.00217244765
0.002172340235
0.002172124416
0.00217251335
0.00217251335
0.00217251335
0.002172513349
0.002172513347
0.002172513339
0.00217251331
0.002172513204
0.002172512831
0.00217251156
0.002172507451
0.002172495054
0.002172461033
0.002172379387
0.00217251335
0.00217251335
0.00217251335
0.002172513349
0.002172513346
0.002172513335
0.00217251329
0.002172513118
0.002172512465
0.002172510057
0.002172501558
0.00217247337
0.002172388279
0.00217216665
0.00217251335
0.00217251335
0.00217251335
0.002172513349
0.002172513344
0.002172513326
0.002172513252
0.002172512942
0.002172511671
0.00217250655
0.002172486571
0.002172412551
0.002172160847
0.002171424029
0.00217251335
0.00217251335
0.002172513349
0.002172513348
0.002172513342
0.002172513317
0.002172513206
0.002172512716
0.002172510555
0.002172501073
0.002172460075
0.002172288247
0.00217161178
0.002169270257
0.00217251335
0.00217251335
0.002172513349
0.002172513348
0.002172513341
0.002172513313
0.002172513182
0.002172512585
0.002172509828
0.002172496954
0.002172436307
0.00217215018
0.00217082304
0.002165056241
0.00217251335
0.00217251335
0.002172513349
0.002172513348
0.002172513342
0.002172513317
0.002172513206
0.002172512716
0.002172510555
0.002172501073
0.002172460075
0.002172288248
0.002171611784
0.002169270265
0.00217251335
0.00217251335
0.00217251335
0.002172513349
0.002172513344
0.002172513326
0.002172513252
0.002172512942
0.002172511671
0.00217250655
0.002172486571
0.002172412553
0.002172160851
0.002171424043
0.002169812019
0.00217251335
0.00217251335
0.00217251335
0.002172513349
0.002172513346
0.002172513335
0.00217251329
0.002172513118
0.002172512465
0.002172510057
0.002172501558
0.002172473371
0.002172388281
0.002172166657
0.002171714191
0.00217251335
0.00217251335
0.00217251335
0.002172513349
0.002172513347
0.002172513339
0.00217251331
0.002172513204
0.002172512831
0.00217251156
0.002172507451
0.002172495054
0.002172461034
0.00217237939
0.002172217418
0.00217251335
0.00217251335
0.00217251335
0.002172513349
0.002172513348
0.002172513342
0.00217251332
0.002172513243
0.002172512979
0.002172512116
0.002172509442
0.002172501719
0.002172481417
0.002172434329
0.00217251335
0.00217251335
0.00217251335
0.002172513349
0.002172513347
0.002172513338
0.002172513306
0.002172513186
0.002172512751
0.00217251123
0.002172506165
0.002172490424
0.002172446038
0.002172337349
0.00217251335
0.00217251335
0.00217251335
0.002172513349
0.002172513346
0.002172513333
0.002172513281
0.002172513076
0.002172512282
0.002172509294
0.002172498514
0.002172462026
0.002172349856
0.002172053661
0.00217251335
0.00217251335
0.00217251335
0.002172513349
0.002172513344
0.002172513326
0.002172513252
0.002172512942
0.002172511671
0.00217250655
0.002172486571
0.002172412551
0.002172160847
0.00217142403
0.00217251335
0.00217251335
0.002172513349
0.002172513348
0.002172513344
0.002172513324
0.002172513237
0.00217251287
0.00217251131
0.002172504744
0.00217247759
0.002172368918
0.002171960076
0.002170601321
0.00217251335
0.00217251335
0.00217251335
0.002172513349
0.002172513344
0.002172513326
0.002172513252
0.002172512942
0.002172511671
0.00217250655
0.002172486571
0.002172412552
0.002172160849
0.002171424035
0.00217251335
0.00217251335
0.00217251335
0.002172513349
0.002172513346
0.002172513333
0.002172513281
0.002172513076
0.002172512282
0.002172509294
0.002172498515
0.002172462026
0.002172349857
0.002172053662
0.00217251335
0.00217251335
0.00217251335
0.002172513349
0.002172513347
0.002172513338
0.002172513306
0.002172513186
0.002172512751
0.00217251123
0.002172506165
0.002172490424
0.002172446039
0.002172337352
0.002172120852
0.00217251335
0.00217251335
0.00217251335
0.002172513349
0.002172513348
0.002172513342
0.00217251332
0.002172513243
0.002172512979
0.002172512116
0.002172509442
0.002172501719
0.002172481418
0.00217243433
0.002172341587
0.00217251335
0.00217251335
0.00217251335
0.002172513349
0.002172513348
0.002172513344
0.002172513329
0.002172513278
0.002172513111
0.002172512589
0.002172511046
0.002172506791
0.002172496063
0.00217247189
0.00217251335
0.00217251335
0.00217251335
0.002172513349
0.002172513348
0.002172513342
0.002172513321
0.002172513246
0.002172512989
0.002172512142
0.002172509493
0.002172501777
0.002172481322
0.002172433583
0.00217251335
0.00217251335
0.00217251335
0.002172513349
0.002172513347
0.002172513338
0.002172513306
0.002172513186
0.002172512751
0.00217251123
0.002172506165
0.002172490424
0.002172446038
0.00217233735
0.00217251335
0.00217251335
0.00217251335
0.002172513349
0.002172513346
0.002172513335
0.00217251329
0.002172513118
0.002172512465
0.002172510057
0.002172501558
0.00217247337
0.002172388279
0.00217216665
0.00217251335
0.00217251335
0.00217251335
0.002172513349
0.002172513346
0.002172513333
0.002172513283
0.002172513084
0.002172512311
0.002172509376
0.002172498604
0.002172461087
0.002172340829
0.002172005935
0.00217251335
0.00217251335
0.00217251335
0.002172513349
0.002172513346
0.002172513335
0.00217251329
0.002172513118
0.002172512465
0.002172510057
0.002172501558
0.00217247337
0.002172388279
0.002172166651
0.00217251335
0.00217251335
0.00217251335
0.002172513349
0.002172513347
0.002172513338
0.002172513306
0.002172513186
0.002172512751
0.00217251123
0.002172506165
0.002172490424
0.002172446039
0.00217233735
0.00217251335
0.00217251335
0.00217251335
0.002172513349
0.002172513348
0.002172513342
0.002172513321
0.002172513246
0.002172512989
0.002172512142
0.002172509493
0.002172501777
0.002172481322
0.002172433582
0.00217251335
0.00217251335
0.00217251335
0.002172513349
0.002172513348
0.002172513344
0.002172513329
0.002172513278
0.002172513111
0.002172512589
0.002172511046
0.002172506791
0.002172496063
0.00217247189
0.002172424396
0.00217251335
0.00217251335
0.00217251335
0.00217251335
0.002172513349
0.002172513345
0.002172513334
0.002172513297
0.002172513182
0.002172512836
0.002172511854
0.00217250925
0.002172502906
0.002172488917
0.00217251335
0.00217251335
0.00217251335
0.002172513349
0.002172513348
0.002172513344
0.002172513329
0.002172513278
0.002172513111
0.002172512589
0.002172511046
0.002172506791
0.002172496063
0.00217247189
0.00217251335
0.00217251335
0.00217251335
0.002172513349
0.002172513348
0.002172513342
0.00217251332
0.002172513243
0.002172512979
0.002172512116
0.002172509442
0.002172501719
0.002172481417
0.002172434329
0.00217251335
0.00217251335
0.00217251335
0.002172513349
0.002172513347
0.002172513339
0.00217251331
0.002172513204
0.002172512831
0.00217251156
0.002172507451
0.002172495054
0.002172461032
0.002172379387
0.00217251335
0.00217251335
0.00217251335
0.002172513349
0.002172513347
0.002172513338
0.002172513306
0.002172513187
0.002172512758
0.002172511269
0.00217250634
0.002172491034
0.002172447648
0.00217234023
0.00217251335
0.00217251335
0.00217251335
0.002172513349
0.002172513347
0.002172513339
0.00217251331
0.002172513204
0.002172512831
0.00217251156
0.002172507451
0.002172495054
0.002172461032
0.002172379387
0.00217251335
0.00217251335
0.00217251335
0.002172513349
0.002172513348
0.002172513342
0.00217251332
0.002172513243
0.002172512979
0.002172512116
0.002172509442
0.002172501719
0.002172481417
0.002172434329
0.00217251335
0.00217251335
0.00217251335
0.002172513349
0.002172513348
0.002172513344
0.002172513329
0.002172513278
0.002172513111
0.002172512589
0.002172511046
0.002172506791
0.002172496063
0.00217247189
0.00217251335
0.00217251335
0.00217251335
0.00217251335
0.002172513349
0.002172513345
0.002172513334
0.002172513297
0.002172513182
0.002172512836
0.002172511854
0.00217250925
0.002172502906
0.002172488916
)
;

boundaryField
{
    top
    {
        type            zeroGradient;
    }
    bottom
    {
        type            zeroGradient;
    }
    side-walls
    {
        type            zeroGradient;
    }
    inlet
    {
        type            zeroGradient;
    }
    outlet
    {
        type            zeroGradient;
    }
    procBoundary0to1
    {
        type            processor;
        value           nonuniform List<scalar> 
97
(
0.002172413663
0.002172424396
0.00217234419
0.002172190924
0.002171966722
0.002171806922
0.002171966726
0.002172190927
0.002172344192
0.002172413665
0.002172424396
0.002172424396
0.002172187871
0.00217212085
0.002171795161
0.002171098503
0.002170442482
0.002171098511
0.002171795169
0.002172187877
0.002172344192
0.002172341586
0.00217212085
0.00217212085
0.002170637342
0.002169812002
0.0021680672
0.002164707709
0.002168067234
0.00217063737
0.002171795169
0.002172190927
0.002172217416
0.002171714184
0.002169812002
0.002169812002
0.002159272416
0.002145088057
0.002142050875
0.002159272539
0.002168067235
0.002171098511
0.002171966725
0.002172124412
0.002171290454
0.002167227307
0.002145088057
0.002145088057
0.002067958247
0.002145088027
0.002142050867
0.002163299957
0.002164707713
0.002170442487
0.002171806924
0.002172217417
0.00217171419
0.002169812046
0.002163299981
0.002145088027
0.002163299957
0.002163299957
0.002168067202
0.00217144643
0.002171098506
0.002171966724
0.002172341587
0.002172120856
0.002171446442
0.002169812051
0.00216722732
0.00216981206
0.00217144643
0.00217144643
0.002171795163
0.002172339475
0.002172190925
0.002172424397
0.002172339478
0.002172120858
0.002171714192
0.002171290459
0.002171714194
0.002172120857
0.002172339475
0.002172339475
0.00217234419
0.002172461432
0.002172461433
0.002172424398
0.002172341587
0.002172217417
0.002172124413
0.002172217417
0.002172341587
0.002172424397
0.002172461432
)
;
    }
}


// ************************************************************************* //
