/*--------------------------------*- C++ -*----------------------------------*\
| =========                 |                                                 |
| \\      /  F ield         | OpenFOAM: The Open Source CFD Toolbox           |
|  \\    /   O peration     | Version:  4.x                                   |
|   \\  /    A nd           | Web:      www.OpenFOAM.org                      |
|    \\/     M anipulation  |                                                 |
\*---------------------------------------------------------------------------*/
FoamFile
{
    version     2.0;
    format      ascii;
    class       volScalarField;
    location    "3000";
    object      H2O;
}
// * * * * * * * * * * * * * * * * * * * * * * * * * * * * * * * * * * * * * //

dimensions      [0 0 0 0 0 0 0];

internalField   nonuniform List<scalar> 
1175
(
9.998475647e-07
9.998475856e-07
9.998481587e-07
9.99850405e-07
9.998584353e-07
9.998862188e-07
9.999802485e-07
1.000287961e-06
1.001255955e-06
1.004163371e-06
1.012415768e-06
1.034281863e-06
1.087576449e-06
1.205105562e-06
1.43604343e-06
9.998475074e-07
9.998477229e-07
9.998484113e-07
9.998511885e-07
9.998612677e-07
9.998974608e-07
1.000024081e-06
1.000452984e-06
1.001854778e-06
1.006238114e-06
1.019201429e-06
1.054936953e-06
1.145045031e-06
1.348108246e-06
1.747127055e-06
9.998476212e-07
9.998478643e-07
9.998487281e-07
9.998523316e-07
9.998660863e-07
9.999168633e-07
1.000100732e-06
1.000749188e-06
1.002962595e-06
1.010207215e-06
1.032667536e-06
1.097530075e-06
1.268039997e-06
1.663555289e-06
2.44266659e-06
9.998477536e-07
9.998479664e-07
9.998490437e-07
9.998535417e-07
9.998708208e-07
9.999363255e-07
1.000180362e-06
1.001068622e-06
1.004207336e-06
1.014881384e-06
1.049383456e-06
1.153498808e-06
1.439220066e-06
2.124944327e-06
3.485520212e-06
9.998477564e-07
9.998480064e-07
9.998491104e-07
9.998539781e-07
9.998728742e-07
9.999450851e-07
1.000216751e-06
1.00121952e-06
1.004822065e-06
1.017321621e-06
1.058711386e-06
1.187248083e-06
1.551604325e-06
2.453736136e-06
4.266534864e-06
9.998478175e-07
9.998479336e-07
9.998490488e-07
9.998535317e-07
9.998708186e-07
9.999363898e-07
1.000180374e-06
1.001068647e-06
1.004207298e-06
1.014881315e-06
1.049382877e-06
1.153497095e-06
1.439214033e-06
2.124925856e-06
3.485474354e-06
9.998476816e-07
9.998479287e-07
9.998489048e-07
9.998524756e-07
9.99866163e-07
9.999168211e-07
1.000100725e-06
1.000749069e-06
1.002962468e-06
1.010207088e-06
1.032667167e-06
1.097528319e-06
1.268033101e-06
1.663532822e-06
2.44261251e-06
9.998476231e-07
9.998477743e-07
9.998485253e-07
9.998512704e-07
9.998612528e-07
9.998974572e-07
1.000023995e-06
1.00045289e-06
1.001854572e-06
1.006237823e-06
1.01920083e-06
1.054935072e-06
1.145037886e-06
1.348085651e-06
1.747074337e-06
9.998475613e-07
9.99847638e-07
9.998482086e-07
9.998503756e-07
9.998583787e-07
9.998862655e-07
9.999802525e-07
1.000287853e-06
1.001255941e-06
1.004163304e-06
1.012415329e-06
1.034279962e-06
1.087569481e-06
1.205083913e-06
1.435989511e-06
9.998475763e-07
9.998477849e-07
9.998485071e-07
9.998512576e-07
9.998613742e-07
9.998977632e-07
1.000024136e-06
1.000452975e-06
1.001854831e-06
1.00623821e-06
1.019202207e-06
1.054939851e-06
1.145055411e-06
1.348147832e-06
9.998476781e-07
9.998478988e-07
9.998487526e-07
9.998521526e-07
9.998653889e-07
9.999141216e-07
1.000091691e-06
1.00072059e-06
1.002879544e-06
1.009996099e-06
1.032240387e-06
1.097046974e-06
1.268853695e-06
1.66987589e-06
2.460523677e-06
9.998478415e-07
9.998481032e-07
9.998491033e-07
9.998538035e-07
9.998723174e-07
9.99943473e-07
1.000214047e-06
1.00122167e-06
1.004874857e-06
1.017651872e-06
1.06018633e-06
1.192385919e-06
1.565155219e-06
2.478033656e-06
4.296655787e-06
9.998479664e-07
9.998483642e-07
9.9984955e-07
9.998554003e-07
9.99879161e-07
9.999739653e-07
1.000347095e-06
1.001792987e-06
1.007280538e-06
1.027497518e-06
1.098870757e-06
1.335584589e-06
2.050161046e-06
3.911430716e-06
7.71180752e-06
9.998480153e-07
9.998483725e-07
9.998497496e-07
9.998561562e-07
9.998823784e-07
9.999880427e-07
1.0004105e-06
1.002079811e-06
1.008570092e-06
1.033220931e-06
1.12367873e-06
1.438716514e-06
2.448556148e-06
5.260832228e-06
1.12698249e-05
9.99848001e-07
9.998483545e-07
9.998496789e-07
9.998555657e-07
9.998792122e-07
9.999740054e-07
1.000347018e-06
1.001792949e-06
1.007280506e-06
1.027497513e-06
1.09887002e-06
1.335580477e-06
2.050143018e-06
3.911363236e-06
7.711624915e-06
9.998477054e-07
9.998480576e-07
9.998491985e-07
9.998538209e-07
9.998722526e-07
9.999435111e-07
1.00021407e-06
1.001221555e-06
1.004874697e-06
1.01765182e-06
1.060185456e-06
1.192381144e-06
1.565133395e-06
2.477953248e-06
4.296443764e-06
9.998477887e-07
9.998478977e-07
9.998486586e-07
9.998521877e-07
9.998652084e-07
9.999142021e-07
1.000091661e-06
1.000720588e-06
1.00287953e-06
1.009995911e-06
1.032239367e-06
1.097042048e-06
1.26883357e-06
1.669804967e-06
2.460326697e-06
9.998476696e-07
9.998477193e-07
9.998484293e-07
9.998511207e-07
9.998612519e-07
9.998975633e-07
1.00002407e-06
1.000452884e-06
1.001854605e-06
1.006237878e-06
1.019201278e-06
1.054935766e-06
1.145039329e-06
1.348088035e-06
1.747077134e-06
9.998477591e-07
9.998480416e-07
9.998488709e-07
9.998525607e-07
9.998662846e-07
9.999170639e-07
1.000100832e-06
1.000749245e-06
1.002962825e-06
1.010207932e-06
1.032669973e-06
1.097539022e-06
1.268071109e-06
1.663657669e-06
9.998478449e-07
9.998481177e-07
9.998493235e-07
9.998538993e-07
9.998723008e-07
9.99943486e-07
1.000214076e-06
1.001221687e-06
1.004875027e-06
1.01765257e-06
1.060188627e-06
1.192395643e-06
1.565194828e-06
2.478199892e-06
9.998480462e-07
9.998483383e-07
9.998497669e-07
9.998563061e-07
9.998831159e-07
9.999916417e-07
1.000426499e-06
1.002146523e-06
1.008813256e-06
1.033910122e-06
1.124432412e-06
1.430862643e-06
2.372884831e-06
4.860545833e-06
9.961349741e-06
9.9984846e-07
9.998486142e-07
9.998505103e-07
9.998587219e-07
9.998943375e-07
1.000043857e-06
1.000669597e-06
1.003269513e-06
1.013947547e-06
1.05695132e-06
1.22472047e-06
1.84628348e-06
3.959932526e-06
1.01474309e-05
2.368591795e-05
9.998484049e-07
9.998486436e-07
9.998506385e-07
9.998598534e-07
9.99899594e-07
1.000068813e-06
1.000791698e-06
1.00387569e-06
1.01697537e-06
1.07211166e-06
1.300124623e-06
2.212625946e-06
5.645554279e-06
1.705464207e-05
4.538769678e-05
9.998482312e-07
9.998485389e-07
9.998504164e-07
9.99858824e-07
9.998943628e-07
1.000043738e-06
1.000669466e-06
1.003269542e-06
1.013947433e-06
1.056950925e-06
1.224717998e-06
1.846268538e-06
3.959854361e-06
1.014708706e-05
2.368482092e-05
9.998480421e-07
9.998483643e-07
9.998498393e-07
9.998562793e-07
9.998830717e-07
9.999915395e-07
1.000426447e-06
1.002146427e-06
1.008813031e-06
1.033909758e-06
1.124429788e-06
1.430846665e-06
2.372802649e-06
4.860194024e-06
9.960214412e-06
9.998478937e-07
9.998482131e-07
9.998492767e-07
9.998539175e-07
9.998722627e-07
9.999434751e-07
1.000214018e-06
1.001221637e-06
1.004874973e-06
1.017652108e-06
1.060186413e-06
1.19238362e-06
1.565139304e-06
2.477962776e-06
4.296449717e-06
9.998477474e-07
9.998478718e-07
9.998487835e-07
9.998523811e-07
9.998661409e-07
9.99916821e-07
1.000100677e-06
1.000749218e-06
1.002962683e-06
1.010207529e-06
1.032668297e-06
1.097530878e-06
1.268038443e-06
1.663541754e-06
2.442620956e-06
9.998479115e-07
9.998482209e-07
9.998491854e-07
9.998536842e-07
9.998708712e-07
9.999365134e-07
1.000180506e-06
1.001068764e-06
1.004207722e-06
1.014882778e-06
1.049388307e-06
1.15351708e-06
1.439283099e-06
2.125142202e-06
9.998481525e-07
9.998483699e-07
9.998497639e-07
9.998556494e-07
9.998794519e-07
9.999741333e-07
1.000347212e-06
1.001793088e-06
1.007280982e-06
1.027499295e-06
1.098878041e-06
1.335615548e-06
2.050286053e-06
3.911897558e-06
9.998483321e-07
9.998486407e-07
9.998506155e-07
9.998589037e-07
9.99894483e-07
1.000043928e-06
1.000669594e-06
1.003269639e-06
1.013947983e-06
1.056953366e-06
1.22473e-06
1.84632982e-06
3.960159889e-06
1.014855138e-05
9.9984856e-07
9.998488668e-07
9.998514072e-07
9.998623469e-07
9.999104922e-07
1.00012242e-06
1.001055052e-06
1.005168917e-06
1.023316306e-06
1.102936519e-06
1.447204988e-06
2.890060936e-06
8.570420965e-06
2.823288989e-05
7.837328207e-05
9.998485877e-07
9.998490555e-07
9.998516197e-07
9.998638614e-07
9.999181316e-07
1.000161312e-06
1.001259479e-06
1.006272561e-06
1.029421355e-06
1.137520373e-06
1.646757828e-06
4.049218247e-06
1.519222995e-05
6.361063462e-05
0.0002312726167
9.998483563e-07
9.998488934e-07
9.998513823e-07
9.99862312e-07
9.999105841e-07
1.000122433e-06
1.001054782e-06
1.005168965e-06
1.023316155e-06
1.102935724e-06
1.447199012e-06
2.890016134e-06
8.570122663e-06
2.823116112e-05
7.836553688e-05
9.99848332e-07
9.998486807e-07
9.998506386e-07
9.998589388e-07
9.998945267e-07
1.000043987e-06
1.00066949e-06
1.003269555e-06
1.01394773e-06
1.05695235e-06
1.224723118e-06
1.846286104e-06
3.959905713e-06
1.01471931e-05
2.368489046e-05
9.998481782e-07
9.998484694e-07
9.998497625e-07
9.998556451e-07
9.998793522e-07
9.999741686e-07
1.000347175e-06
1.001793067e-06
1.007280787e-06
1.027498667e-06
1.098873771e-06
1.335592044e-06
2.050172542e-06
3.911417889e-06
7.711666461e-06
9.998478928e-07
9.99848098e-07
9.998492189e-07
9.99853636e-07
9.998710042e-07
9.999365094e-07
1.000180533e-06
1.001068826e-06
1.004207629e-06
1.014882131e-06
1.049385561e-06
1.153504011e-06
1.439229475e-06
2.124952603e-06
3.485500077e-06
9.998480847e-07
9.99848241e-07
9.998494086e-07
9.998541791e-07
9.9987299e-07
9.999450577e-07
1.000216746e-06
1.001219549e-06
1.004822671e-06
1.017323623e-06
1.058718961e-06
1.187275509e-06
1.551698037e-06
2.454022032e-06
9.998482186e-07
9.998484193e-07
9.998499464e-07
9.998564166e-07
9.998826068e-07
9.999881603e-07
1.000410684e-06
1.002080021e-06
1.008570899e-06
1.033224082e-06
1.123692175e-06
1.438772924e-06
2.448782265e-06
5.261649921e-06
9.998483227e-07
9.998487323e-07
9.998508076e-07
9.998599788e-07
9.998997468e-07
1.000068987e-06
1.000791986e-06
1.003876047e-06
1.016976506e-06
1.072116858e-06
1.300150314e-06
2.212753956e-06
5.646184068e-06
1.705756156e-05
9.998485182e-07
9.998490379e-07
9.998517379e-07
9.998639815e-07
9.999182682e-07
1.000161359e-06
1.001259559e-06
1.006272707e-06
1.029422286e-06
1.137525674e-06
1.646789588e-06
4.049417177e-06
1.519354165e-05
6.361972083e-05
9.998485855e-07
9.998490695e-07
9.998520627e-07
9.998655469e-07
9.999269982e-07
1.00020811e-06
1.001516816e-06
1.00774255e-06
1.038214532e-06
1.19289728e-06
2.015344329e-06
6.64541165e-06
3.451819282e-05
0.0002151265032
0.001482178844
9.998484438e-07
9.998489326e-07
9.998516677e-07
9.998638987e-07
9.999181629e-07
1.000161337e-06
1.001259455e-06
1.006272805e-06
1.029422236e-06
1.137524837e-06
1.646779617e-06
4.049321447e-06
1.519269022e-05
6.361232706e-05
0.0002312743822
9.998483174e-07
9.998487338e-07
9.998508493e-07
9.99860024e-07
9.99899589e-07
1.000068878e-06
1.000791871e-06
1.003875924e-06
1.016976247e-06
1.072115211e-06
1.300139155e-06
2.212682263e-06
5.645748612e-06
1.705514323e-05
4.538808232e-05
9.998481315e-07
9.998484328e-07
9.998499211e-07
9.998563188e-07
9.998824815e-07
9.999881887e-07
1.000410568e-06
1.002079925e-06
1.008570704e-06
1.033222853e-06
1.123685808e-06
1.438739363e-06
2.448620066e-06
5.26096252e-06
1.12699158e-05
9.998480075e-07
9.998482939e-07
9.998494188e-07
9.99854175e-07
9.99873071e-07
9.999450612e-07
1.000216873e-06
1.001219628e-06
1.004822444e-06
1.017322696e-06
1.058715079e-06
1.18725839e-06
1.551629186e-06
2.453779692e-06
4.266566848e-06
9.998480372e-07
9.998481579e-07
9.998492901e-07
9.998536455e-07
9.998708882e-07
9.999364828e-07
1.00018057e-06
1.001068878e-06
1.004207852e-06
1.014883241e-06
1.049390206e-06
1.153522118e-06
1.439293449e-06
2.125152653e-06
9.998482171e-07
9.998483e-07
9.998497987e-07
9.998556269e-07
9.998794196e-07
9.999742314e-07
1.000347151e-06
1.001793121e-06
1.007281156e-06
1.027500574e-06
1.098882983e-06
1.335630883e-06
2.050324351e-06
3.911942544e-06
9.998483625e-07
9.998487443e-07
9.99850653e-07
9.998590132e-07
9.998945374e-07
1.000043998e-06
1.000669524e-06
1.003269688e-06
1.013948639e-06
1.056956783e-06
1.22474394e-06
1.846382569e-06
3.960327938e-06
1.014885052e-05
9.998484182e-07
9.998488058e-07
9.998512923e-07
9.998622774e-07
9.999106377e-07
1.000122459e-06
1.001054886e-06
1.005169135e-06
1.023317579e-06
1.102943244e-06
1.447237683e-06
2.890216001e-06
8.571131688e-06
2.823589736e-05
9.998485604e-07
9.998489893e-07
9.998517136e-07
9.998637967e-07
9.99918098e-07
1.000161256e-06
1.00125949e-06
1.006272947e-06
1.029423233e-06
1.137530299e-06
1.646811586e-06
4.049519803e-06
1.519398222e-05
6.362117097e-05
9.998483308e-07
9.99848807e-07
9.998512041e-07
9.998622905e-07
9.999105846e-07
1.000122381e-06
1.00105498e-06
1.005169216e-06
1.023317521e-06
1.102942249e-06
1.447230887e-06
2.890174355e-06
8.570911227e-06
2.823505158e-05
9.998482834e-07
9.998487227e-07
9.998506105e-07
9.998588884e-07
9.998944132e-07
1.000043898e-06
1.000669476e-06
1.003269723e-06
1.013948432e-06
1.056955359e-06
1.224736151e-06
1.846341587e-06
3.960130399e-06
1.014801374e-05
2.368753881e-05
9.99848199e-07
9.998483906e-07
9.998497359e-07
9.998556169e-07
9.998794064e-07
9.999741644e-07
1.000347146e-06
1.00179317e-06
1.007281159e-06
1.027499739e-06
1.098877784e-06
1.335607276e-06
2.050225928e-06
3.911581503e-06
7.712048054e-06
9.99847877e-07
9.998481811e-07
9.998492704e-07
9.998536941e-07
9.998708495e-07
9.999363825e-07
1.000180471e-06
1.001068855e-06
1.004207782e-06
1.014882603e-06
1.049387143e-06
1.153509544e-06
1.4392461e-06
2.124994424e-06
3.485578518e-06
9.998478551e-07
9.998480265e-07
9.998489473e-07
9.998525575e-07
9.998661684e-07
9.999170248e-07
1.000100653e-06
1.000749239e-06
1.002962966e-06
1.010208576e-06
1.032672438e-06
1.097545364e-06
1.268084079e-06
1.663670018e-06
9.998479678e-07
9.998481476e-07
9.998494212e-07
9.998540415e-07
9.998724618e-07
9.999435392e-07
1.000214029e-06
1.001221728e-06
1.004875501e-06
1.017654117e-06
1.060194353e-06
1.192412461e-06
1.565235825e-06
2.478250668e-06
9.998482113e-07
9.998484629e-07
9.998499733e-07
9.998564958e-07
9.998832264e-07
9.999917256e-07
1.000426641e-06
1.002146715e-06
1.008814044e-06
1.033913797e-06
1.124446329e-06
1.430911081e-06
2.373036488e-06
4.860946484e-06
9.998482991e-07
9.998486726e-07
9.998506705e-07
9.998589274e-07
9.998944148e-07
1.000044074e-06
1.000669562e-06
1.003269726e-06
1.013948776e-06
1.056957727e-06
1.224747449e-06
1.846393493e-06
3.960352663e-06
1.014885853e-05
9.998482471e-07
9.998486653e-07
9.998506935e-07
9.998599935e-07
9.99899592e-07
1.000068868e-06
1.000791829e-06
1.003876052e-06
1.01697721e-06
1.072119839e-06
1.300162396e-06
2.212797662e-06
5.646310567e-06
1.705770859e-05
9.998482266e-07
9.998485918e-07
9.998503915e-07
9.998588173e-07
9.998944499e-07
1.000043896e-06
1.000669535e-06
1.003269789e-06
1.013948737e-06
1.056957e-06
1.224744083e-06
1.846377782e-06
3.960289387e-06
1.01486602e-05
9.998480885e-07
9.998483698e-07
9.998498604e-07
9.998564116e-07
9.99883127e-07
9.9999156e-07
1.000426506e-06
1.002146618e-06
1.008813981e-06
1.033912961e-06
1.124442648e-06
1.430895743e-06
2.372984365e-06
4.860847544e-06
9.998478099e-07
9.998481578e-07
9.99849247e-07
9.998539983e-07
9.998722915e-07
9.999435667e-07
1.000214073e-06
1.001221766e-06
1.004875329e-06
1.017653592e-06
1.060191374e-06
1.192401134e-06
1.565196377e-06
2.478130596e-06
4.296880785e-06
9.998477638e-07
9.998480547e-07
9.998488426e-07
9.99852479e-07
9.998661578e-07
9.9991694e-07
1.000100749e-06
1.000749246e-06
1.002962938e-06
1.010208166e-06
1.0326705e-06
1.097538117e-06
1.268059435e-06
1.663594264e-06
2.442723236e-06
9.99847778e-07
9.998479417e-07
9.998485617e-07
9.998512937e-07
9.998614265e-07
9.998975556e-07
1.00002405e-06
1.000452903e-06
1.001854779e-06
1.0062388e-06
1.019204052e-06
1.054944782e-06
1.145065548e-06
1.348156751e-06
9.998478621e-07
9.998480215e-07
9.998488262e-07
9.998521957e-07
9.99865425e-07
9.999142673e-07
1.000091826e-06
1.000720723e-06
1.002879926e-06
1.009997221e-06
1.032244426e-06
1.097058442e-06
1.268882993e-06
1.669938678e-06
9.998480326e-07
9.998482201e-07
9.998493821e-07
9.998538709e-07
9.998723529e-07
9.999435307e-07
1.000214011e-06
1.001221857e-06
1.004875519e-06
1.017654357e-06
1.060194879e-06
1.192413535e-06
1.565236742e-06
2.478246618e-06
9.998480886e-07
9.998483361e-07
9.998497792e-07
9.998555758e-07
9.998794795e-07
9.999741547e-07
1.000347171e-06
1.001793261e-06
1.007281545e-06
1.02750163e-06
1.098885636e-06
1.335637988e-06
2.050337485e-06
3.91194523e-06
9.998481092e-07
9.998483778e-07
9.998499233e-07
9.998562547e-07
9.998823961e-07
9.999880318e-07
1.000410656e-06
1.002080261e-06
1.008571352e-06
1.033225874e-06
1.123698159e-06
1.438790482e-06
2.44881948e-06
5.261668588e-06
9.998481207e-07
9.998483552e-07
9.998498065e-07
9.998555863e-07
9.998793355e-07
9.999740548e-07
1.000347098e-06
1.0017933e-06
1.007281603e-06
1.027501372e-06
1.098884652e-06
1.335633805e-06
2.050322188e-06
3.911899673e-06
9.998480612e-07
9.998482073e-07
9.998493965e-07
9.998540371e-07
9.998723744e-07
9.99943525e-07
1.000214033e-06
1.001221737e-06
1.004875443e-06
1.017653999e-06
1.060193471e-06
1.192408304e-06
1.5652219e-06
2.478218399e-06
9.998478701e-07
9.998480799e-07
9.998488862e-07
9.998523397e-07
9.998655325e-07
9.999142931e-07
1.000091808e-06
1.000720798e-06
1.002880002e-06
1.009997048e-06
1.032243254e-06
1.097054699e-06
1.268872894e-06
1.669926764e-06
9.998477459e-07
9.998478647e-07
9.998485053e-07
9.998512021e-07
9.998613601e-07
9.99897628e-07
1.000024219e-06
1.00045292e-06
1.001854855e-06
1.006238563e-06
1.019203292e-06
1.054941857e-06
1.145056587e-06
1.348132866e-06
1.747177978e-06
9.998476541e-07
9.998477333e-07
9.998483085e-07
9.998505918e-07
9.998584904e-07
9.998862932e-07
9.999804036e-07
1.000287986e-06
1.001256131e-06
1.004163987e-06
1.012417451e-06
1.034286153e-06
1.087586067e-06
1.205125064e-06
9.998476823e-07
9.998478866e-07
9.99848605e-07
9.998512861e-07
9.998614419e-07
9.998976624e-07
1.000024131e-06
1.000452959e-06
1.001854994e-06
1.006238819e-06
1.01920421e-06
1.054945147e-06
1.145065833e-06
1.348156535e-06
9.998478726e-07
9.998480451e-07
9.998489602e-07
9.998525504e-07
9.998662537e-07
9.999169823e-07
1.000100738e-06
1.000749279e-06
1.002963015e-06
1.010208806e-06
1.032673107e-06
1.097546771e-06
1.26808635e-06
1.66367034e-06
9.998479493e-07
9.998482086e-07
9.998493124e-07
9.998536853e-07
9.998709145e-07
9.999364191e-07
1.000180472e-06
1.00106882e-06
1.004208023e-06
1.014883953e-06
1.049392087e-06
1.153526614e-06
1.439301759e-06
2.125158551e-06
9.998479981e-07
9.998482148e-07
9.998494713e-07
9.998542399e-07
9.998730157e-07
9.99945065e-07
1.000216849e-06
1.001219693e-06
1.004822932e-06
1.017324589e-06
1.058722104e-06
1.187283218e-06
1.551711792e-06
2.454027941e-06
9.998480108e-07
9.998482007e-07
9.998492499e-07
9.998536151e-07
9.998708846e-07
9.999364574e-07
1.000180542e-06
1.001068828e-06
1.004208034e-06
1.014883911e-06
1.049391882e-06
1.15352557e-06
1.439297559e-06
2.125146183e-06
9.998479391e-07
9.998480028e-07
9.998489165e-07
9.998524791e-07
9.998661359e-07
9.999169796e-07
1.000100836e-06
1.000749256e-06
1.002963008e-06
1.010208769e-06
1.032672592e-06
1.097544853e-06
1.268080721e-06
1.663658477e-06
9.998477422e-07
9.998479087e-07
9.998486008e-07
9.998513468e-07
9.998613867e-07
9.998976162e-07
1.000024185e-06
1.000452947e-06
1.001854899e-06
1.006238792e-06
1.019203714e-06
1.054943553e-06
1.145062138e-06
1.34815155e-06
9.998476877e-07
9.998478523e-07
9.998484209e-07
9.998505331e-07
9.998585053e-07
9.998862724e-07
9.999803817e-07
1.000287939e-06
1.001256154e-06
1.004163842e-06
1.012417031e-06
1.034284941e-06
1.087583583e-06
1.205123756e-06
)
;

boundaryField
{
    top
    {
        type            zeroGradient;
    }
    bottom
    {
        type            zeroGradient;
    }
    side-walls
    {
        type            zeroGradient;
    }
    inlet
    {
        type            zeroGradient;
    }
    outlet
    {
        type            zeroGradient;
    }
    procBoundary0to1
    {
        type            processor;
        value           nonuniform List<scalar> 
97
(
1.837348765e-06
1.747177894e-06
2.420936975e-06
3.708303123e-06
5.591381858e-06
6.933437663e-06
5.591323865e-06
3.70823845e-06
2.420880591e-06
1.83730793e-06
1.747177894e-06
1.747177894e-06
3.733983103e-06
4.296906712e-06
7.032441325e-06
1.288335075e-05
1.839244235e-05
1.288315463e-05
7.032242325e-06
3.733856747e-06
2.420885748e-06
2.442742234e-06
4.296906712e-06
4.296906712e-06
1.675678838e-05
2.368805368e-05
3.834119038e-05
6.655188655e-05
3.834032289e-05
1.675615173e-05
7.032249238e-06
3.708251519e-06
3.485657057e-06
7.712258032e-06
2.368805368e-05
2.368805368e-05
0.0001121983292
0.0002313016391
0.0002568086449
0.0001121952822
3.834039399e-05
1.288320583e-05
5.59136071e-06
4.266753955e-06
1.127062886e-05
4.539201103e-05
0.0002313016391
0.0002313016391
0.0008789640071
0.0002313013714
0.0002568088658
7.837329063e-05
6.655210252e-05
1.839251802e-05
6.933475556e-06
3.485644286e-06
7.712125925e-06
2.36866929e-05
7.837232152e-05
0.0002313013714
7.837329063e-05
7.837329063e-05
3.834118388e-05
9.961345003e-06
1.288345482e-05
5.591435951e-06
2.442714409e-06
4.296683155e-06
9.96089183e-06
2.368666652e-05
4.539192462e-05
2.36865432e-05
9.961345003e-06
9.961345003e-06
7.032428561e-06
2.460522068e-06
3.708341422e-06
1.74712437e-06
2.460426624e-06
4.296672424e-06
7.712118465e-06
1.127060121e-05
7.712060716e-06
4.296701277e-06
2.460522068e-06
2.460522068e-06
2.420940048e-06
1.43604391e-06
1.436016541e-06
1.747123895e-06
2.44271395e-06
3.485650497e-06
4.266751291e-06
3.485631936e-06
2.442705271e-06
1.747134868e-06
1.43604391e-06
)
;
    }
}


// ************************************************************************* //
