/*--------------------------------*- C++ -*----------------------------------*\
| =========                 |                                                 |
| \\      /  F ield         | OpenFOAM: The Open Source CFD Toolbox           |
|  \\    /   O peration     | Version:  4.x                                   |
|   \\  /    A nd           | Web:      www.OpenFOAM.org                      |
|    \\/     M anipulation  |                                                 |
\*---------------------------------------------------------------------------*/
FoamFile
{
    version     2.0;
    format      ascii;
    class       volScalarField;
    location    "3000";
    object      molarConc;
}
// * * * * * * * * * * * * * * * * * * * * * * * * * * * * * * * * * * * * * //

dimensions      [0 -3 0 0 1 0 0];

internalField   nonuniform List<scalar> 
1175
(
9.963275096
9.963274404
9.963274981
9.963274639
9.963274913
9.963274069
9.96327427
9.963274716
9.96327332
9.963272961
9.963272198
9.963272942
9.963272662
9.963272165
9.963271357
9.963270823
9.963270426
9.963270328
9.963269883
9.963269554
9.963269698
9.963269879
9.963270669
9.963271259
9.963271937
9.963271146
9.963269796
9.963269313
9.963269868
9.963268872
9.963295315
9.963295709
9.963296689
9.963296313
9.963297497
9.963298149
9.963297785
9.96329843
9.963299051
9.963298847
9.9632984
9.963298444
9.963296966
9.963297238
9.963293386
9.963257097
9.963257048
9.963257576
9.96325757
9.96325659
9.963257059
9.963257193
9.963257895
9.963258509
9.963259256
9.963259889
9.963259335
9.963258008
9.963254716
9.963249622
9.963276125
9.96327561
9.963275766
9.963276425
9.963277884
9.963278217
9.963278474
9.963278574
9.963277292
9.963277961
9.963278005
9.963278143
9.963274908
9.963272962
9.963266042
9.963303184
9.963302453
9.963302569
9.963303135
9.963304584
9.963305497
9.9633046
9.963304899
9.963305965
9.963306127
9.963306108
9.963304589
9.963303338
9.963300996
9.963295513
9.963294671
9.963295887
9.96329674
9.963296462
9.963294967
9.963294933
9.963295795
9.963294945
9.963294148
9.963293017
9.963292304
9.963292909
9.963292496
9.963290458
9.963288074
9.963256281
9.963256453
9.963256264
9.963255617
9.963257016
9.963256745
9.963256159
9.963256843
9.963255682
9.96325558
9.963255387
9.963255551
9.963255868
9.963254983
9.963253592
9.963274492
9.963274532
9.96327325
9.963274147
9.96327394
9.963274438
9.963273804
9.963274354
9.963275345
9.963275129
9.963274535
9.963274987
9.963275161
9.96327546
9.96327294
9.963263803
9.963264576
9.963265707
9.963264993
9.963264752
9.963265389
9.963264833
9.963264404
9.963264933
9.963264869
9.963264113
9.963264831
9.963263794
9.963263044
9.963269776
9.963269961
9.963272017
9.963271162
9.963272319
9.963271523
9.96327278
9.963272413
9.963273557
9.963274033
9.963273867
9.963274607
9.963274314
9.963271615
9.963271028
9.9632699
9.96327029
9.963268688
9.963269204
9.963270614
9.963271423
9.963272255
9.963272489
9.963271568
9.963271997
9.963271013
9.963271694
9.963267834
9.963264672
9.963258469
9.963262043
9.963262588
9.963261521
9.963262914
9.963262734
9.96326349
9.963264183
9.963264593
9.963265005
9.963266389
9.963266777
9.963267504
9.963264808
9.963257454
9.963243227
9.963263397
9.963263573
9.963262573
9.963262014
9.963261157
9.963261403
9.963262528
9.963261478
9.96326234
9.963263848
9.963262534
9.963261302
9.963257736
9.963247999
9.963224452
9.963278898
9.963278657
9.963278354
9.963279336
9.963278716
9.963277902
9.963278527
9.963278279
9.963278418
9.963279071
9.963280279
9.963278952
9.963274811
9.963266432
9.963253106
9.963243874
9.963244746
9.963246538
9.963247101
9.963247235
9.963247197
9.963247219
9.963247388
9.963247972
9.963247379
9.963246276
9.963244886
9.963243314
9.96323952
9.96323373
9.963304574
9.963303599
9.963303118
9.963302126
9.963301483
9.963303568
9.963302255
9.963302391
9.963302956
9.963302881
9.963302315
9.963302059
9.963302068
9.963300377
9.963297989
9.963249541
9.963249444
9.963249089
9.963248719
9.963250311
9.963249888
9.963249848
9.963249964
9.963250584
9.963251699
9.963252814
9.963252181
9.963251812
9.963251019
9.963248756
9.963265826
9.963265559
9.963266731
9.96326734
9.963268195
9.963267326
9.963267166
9.963266348
9.963266544
9.963266284
9.963264756
9.963265395
9.963264531
9.963264024
9.963294345
9.963295759
9.963295064
9.963293673
9.963293704
9.963294215
9.963293847
9.963294889
9.963295162
9.963295202
9.963293874
9.963294321
9.963291405
9.963289464
9.963281824
9.963281756
9.963282831
9.963283145
9.963283997
9.963284845
9.963285018
9.963285595
9.963286454
9.963286851
9.963285921
9.963284523
9.963282073
9.963272146
9.96325285
9.963274174
9.963274167
9.963273573
9.963271697
9.963272052
9.963271796
9.963273668
9.963274035
9.963273121
9.963272291
9.963269886
9.963268944
9.96326094
9.963238982
9.96318956
9.963252695
9.963251538
9.963249962
9.963251104
9.963252103
9.963252379
9.963251996
9.963251588
9.963252617
9.963251927
9.963251342
9.96324725
9.963234034
9.963190664
9.963086165
9.963293455
9.963292947
9.963292271
9.963294124
9.963293499
9.963294079
9.963295197
9.963295865
9.96329612
9.96329577
9.96329505
9.96329163
9.963282812
9.963260192
9.96320907
9.963257846
9.96325895
9.963259491
9.96325924
9.96325975
9.963260235
9.963259837
9.963260783
9.963259825
9.963259292
9.963259092
9.963257822
9.963255554
9.963244381
9.963227172
9.963269436
9.96326915
9.963269655
9.963269647
9.963269976
9.963270005
9.963271522
9.963269951
9.963270594
9.963271345
9.963270115
9.963270295
9.963268387
9.963264939
9.963256657
9.963299863
9.963300198
9.963299565
9.963299457
9.963299338
9.963298461
9.963298646
9.963299179
9.96329899
9.963300009
9.963300554
9.963300036
9.963297079
9.963295338
9.963292626
9.963289513
9.963290126
9.963289632
9.96328883
9.963289155
9.963288771
9.96328914
9.963289047
9.963290322
9.963289905
9.963290217
9.963289058
9.963287469
9.963284521
9.963289908
9.963288049
9.963288231
9.963288727
9.963288149
9.963287602
9.963287988
9.963287802
9.963287608
9.963287945
9.963289434
9.963288675
9.963286495
9.963280188
9.963296893
9.96329758
9.963297869
9.963296986
9.963297438
9.963297861
9.963297848
9.963297533
9.96329753
9.963295871
9.9632946
9.963290727
9.963283206
9.963259406
9.963273744
9.963271043
9.963271304
9.963272458
9.963270619
9.963272476
9.963273774
9.96327192
9.963274002
9.963274905
9.963273281
9.9632688
9.963248885
9.963175204
9.962991782
9.963267692
9.963267813
9.963267763
9.963266483
9.963267038
9.963266179
9.963266912
9.963266745
9.963265306
9.963264602
9.963263511
9.963252739
9.963210847
9.963031958
9.962494072
9.96328352
9.963284299
9.963285258
9.963284856
9.963285331
9.963285081
9.963286452
9.963287709
9.963287082
9.963284964
9.96328395
9.963279581
9.963256816
9.963183477
9.962998252
9.96328414
9.963283473
9.96328471
9.963283349
9.963284133
9.963283058
9.963282257
9.963281212
9.96328191
9.963281418
9.963283169
9.963280814
9.963273878
9.963251233
9.963200998
9.963247308
9.963247837
9.963247121
9.96324579
9.963245106
9.963245025
9.963244828
9.963244698
9.963244755
9.963245219
9.963245018
9.963243197
9.963241011
9.963234043
9.963220492
9.963271813
9.963271501
9.963271858
9.963272532
9.963273359
9.963273657
9.963273383
9.963271821
9.963272722
9.963272522
9.963271618
9.963271837
9.963270331
9.963268492
9.963263516
9.963273284
9.963272736
9.963272057
9.963273977
9.963273417
9.96327319
9.963272058
9.963271426
9.963271822
9.963272104
9.963271465
9.963271126
9.963270511
9.963267158
9.963282758
9.963282499
9.963282715
9.963282275
9.963282891
9.963283006
9.963281962
9.963282865
9.963283046
9.963283136
9.963282372
9.963280727
9.963277645
9.963266204
9.963249401
9.963249744
9.963248854
9.963248863
9.963249974
9.963250732
9.96324999
9.963251467
9.963252483
9.963252762
9.963253215
9.963248477
9.963234949
9.963192815
9.963274843
9.963275831
9.963276759
9.963277345
9.963277315
9.963277942
9.963277844
9.963277595
9.963277984
9.963278481
9.963276942
9.963268989
9.963228793
9.963051349
9.963253454
9.963253154
9.963252406
9.963252325
9.963250426
9.963249027
9.963249908
9.963249717
9.963249608
9.963250063
9.963246621
9.963229006
9.963124803
9.962456656
10.03074555
9.963240874
9.963239866
9.96323973
9.963241442
9.963241008
9.963240822
9.963240839
9.963240869
9.963241164
9.963242031
9.963240738
9.963231109
9.96319135
9.963012742
9.962475302
9.963279589
9.963279193
9.963279075
9.963279731
9.963278976
9.963277988
9.963278271
9.963278619
9.963278079
9.963277911
9.96327714
9.963274375
9.963261692
9.963218502
9.963112876
9.963283862
9.963283663
9.963282793
9.963283907
9.963284166
9.963283062
9.963283712
9.963283069
9.963283851
9.963283459
9.963283249
9.963280595
9.963276623
9.963267744
9.963245023
9.963300377
9.963301473
9.963302272
9.963302586
9.963302288
9.963303148
9.963304197
9.963303842
9.963303549
9.96330465
9.963303938
9.963302835
9.963302638
9.963300008
9.963291959
9.963309249
9.96330935
9.963309259
9.963308954
9.963309402
9.963309629
9.963310232
9.963309665
9.963308716
9.963308694
9.963309524
9.963310084
9.963309054
9.963306764
9.963285315
9.963283946
9.963283985
9.963283519
9.963283325
9.963283637
9.963282226
9.963282767
9.963282267
9.963282131
9.963282581
9.963280535
9.963277625
9.963272462
9.963260881
9.963260371
9.963260796
9.963260665
9.963259949
9.963259812
9.963260554
9.963260893
9.963259583
9.963259762
9.963257346
9.963254638
9.963247226
9.963223591
9.963276017
9.963276931
9.963278513
9.963279736
9.963280335
9.963280594
9.963278184
9.96327739
9.963276456
9.963276736
9.963274494
9.963268728
9.963247924
9.963174593
9.963242588
9.963242138
9.963242526
9.963241759
9.963241205
9.963242656
9.963241857
9.963242979
9.963242752
9.963240986
9.963238584
9.963229344
9.96318911
9.963009196
9.963293077
9.963293721
9.963293001
9.963293726
9.963293681
9.963293148
9.963293593
9.963293935
9.963294162
9.963293701
9.963294103
9.963288201
9.963267356
9.963194423
9.963294199
9.963293895
9.963295376
9.963294568
9.963295733
9.963296729
9.963296203
9.96329655
9.96329823
9.963296698
9.963296157
9.96329285
9.963283868
9.963262381
9.963212666
9.963314102
9.963313203
9.963312991
9.963312187
9.963313475
9.96331316
9.963313518
9.963312372
9.963312704
9.963313153
9.963311855
9.963310571
9.96330884
9.963301477
9.963288532
9.963270224
9.963271192
9.963271719
9.96327128
9.963270825
9.963270579
9.963269747
9.963271294
9.963270982
9.963270507
9.963270085
9.963270794
9.96326966
9.963267159
9.963262745
9.963257512
9.963258418
9.963257979
9.963258665
9.963258553
9.963258035
9.963258316
9.963257591
9.963258574
9.963258754
9.963259299
9.963259281
9.96325875
9.963255303
9.963232217
9.963231666
9.963231515
9.963232277
9.963231217
9.963231509
9.96322977
9.963229618
9.963229667
9.963228809
9.963227679
9.963225801
9.963223279
9.963221637
9.963234432
9.96323416
9.963235381
9.963237115
9.963238078
9.963237878
9.963237353
9.963238647
9.963238314
9.963238076
9.963238163
9.96323704
9.96323418
9.963224355
9.96327896
9.96327915
9.963280486
9.96327857
9.963277872
9.963278008
9.963277163
9.963274549
9.963273987
9.9632741
9.963273279
9.963271247
9.963262075
9.963239721
9.963301001
9.963302457
9.963302734
9.963303249
9.96330482
9.963304237
9.963303205
9.963304115
9.963304887
9.963305378
9.963304191
9.963300184
9.96328759
9.963247542
9.963302036
9.963301936
9.963301171
9.963301697
9.963302019
9.963301775
9.963300564
9.963300317
9.963298939
9.9633011
9.963301938
9.963299201
9.963292204
9.963268946
9.963263029
9.9632635
9.96326309
9.963262781
9.963261657
9.963262318
9.96326263
9.963261916
9.963264041
9.963263337
9.963263225
9.963261982
9.963257299
9.963247817
9.963293731
9.963294167
9.963294552
9.963295881
9.963294414
9.963293978
9.963293779
9.963293582
9.963293737
9.963294725
9.963293901
9.963292989
9.963291847
9.963287409
9.96328156
9.963275194
9.963274922
9.963274844
9.963275348
9.963275121
9.963275498
9.963276939
9.963277327
9.963277622
9.963276731
9.963277343
9.963275998
9.963274943
9.963273529
9.963271015
9.963262017
9.963261778
9.963261683
9.963261821
9.963261596
9.963260856
9.963258913
9.963259197
9.96325979
9.963259327
9.96325927
9.96325957
9.963259809
9.963260096
9.96329286
9.963292373
9.963292727
9.963291506
9.963291726
9.963292549
9.963292254
9.963291332
9.963289793
9.963289552
9.963289224
9.963289021
9.963289166
9.963288289
9.96328144
9.963281339
9.963280514
9.96327978
9.963278433
9.963278482
9.96327787
9.963279641
9.963279161
9.963279442
9.963279414
9.963280964
9.963279964
9.963276912
9.963285167
9.963285391
9.963285259
9.963283842
9.963283943
9.963284333
9.96328506
9.963286072
9.963285871
9.963284927
9.963285536
9.963283813
9.963279929
9.963273315
9.963268782
9.963269719
9.963270293
9.963269758
9.963270027
9.963270664
9.963271971
9.963271823
9.963270695
9.963270626
9.963269607
9.9632692
9.963265238
9.963253226
9.9632633
9.963261949
9.96326236
9.963261235
9.963261096
9.963259595
9.96325962
9.963259381
9.963258985
9.963259029
9.963258366
9.96325629
9.963253569
9.963245216
9.963293702
9.963292885
9.963292722
9.963293841
9.963292488
9.963293527
9.963291957
9.963292582
9.963292838
9.963292585
9.96329364
9.963292612
9.963291092
9.963288139
9.963271666
9.963272127
9.963271455
9.963271085
9.96327072
9.963270032
9.963270969
9.963269529
9.963268575
9.963267889
9.963267553
9.963267232
9.963266213
9.963265043
9.963267261
9.963266756
9.963266079
9.963265638
9.963266575
9.963266839
9.963267425
9.963267813
9.963267747
9.963267783
9.96326785
9.963267428
9.963268126
9.963266929
9.963266222
9.963290895
9.963290565
9.963291038
9.963290887
9.96329024
9.963289533
9.96329019
9.963289468
9.963290315
9.963289176
9.963289657
9.963289207
9.963290317
9.963289813
9.963289526
9.9632899
9.963290087
9.963289897
9.963290388
9.963290708
9.963290185
9.963289752
9.963289575
9.963289593
9.963288954
9.963289085
9.963288398
9.963287283
9.963262832
9.963262166
9.963262534
9.963263059
9.963264557
9.963264314
9.963264275
9.96326334
9.963261529
9.963260883
9.963261732
9.963260836
9.96326008
9.963258271
9.963274616
9.963275125
9.963274642
9.96327434
9.963274415
9.963273026
9.963273148
9.963273039
9.963272834
9.963273408
9.96327356
9.963273501
9.963272563
9.963269401
9.963275572
9.96327607
9.963277019
9.963277281
9.963276965
9.963275984
9.963275542
9.96327473
9.963275697
9.963275796
9.963276783
9.963275877
9.96327544
9.963272022
9.963233567
9.963231952
9.963232266
9.963231788
9.963232525
9.963232819
9.963232959
9.963232255
9.963233415
9.963234312
9.963234734
9.963235322
9.963234825
9.963232172
9.963273967
9.963273305
9.96327345
9.963272264
9.963272617
9.963272527
9.963274613
9.963274254
9.963273819
9.963274226
9.963274692
9.963274104
9.963273547
9.96327259
9.963302944
9.963302113
9.963302941
9.963303932
9.963304099
9.963302815
9.963302191
9.963301533
9.963300601
9.96330075
9.963300008
9.9633006
9.963300136
9.963299691
9.963280383
9.963280519
9.963280893
9.963279813
9.963279363
9.963278754
9.96327918
9.963278412
9.963278124
9.963277272
9.963277407
9.963277381
9.963277735
9.963277803
)
;

boundaryField
{
    top
    {
        type            calculated;
        value           nonuniform List<scalar> 
134
(
9.963274492
9.963249541
9.963299863
9.963271813
9.963300377
9.963270224
9.963275194
9.963267261
9.963280383
9.963274532
9.963249444
9.963300198
9.963271501
9.963301473
9.963271192
9.963274922
9.963266756
9.963280519
9.96327325
9.963249089
9.963299565
9.963271858
9.963302272
9.963271719
9.963274844
9.963266079
9.963280893
9.963274147
9.963248719
9.963299457
9.963272532
9.963302586
9.96327128
9.963275348
9.963265638
9.963279813
9.96327394
9.963250311
9.963299338
9.963273359
9.963302288
9.963270825
9.963275121
9.963266575
9.963279363
9.963274438
9.963249888
9.963298461
9.963273657
9.963303148
9.963270579
9.963275498
9.963266839
9.963278754
9.963273804
9.963249848
9.963298646
9.963273383
9.963304197
9.963269747
9.963276939
9.963267425
9.96327918
9.963274354
9.963249964
9.963299179
9.963271821
9.963303842
9.963271294
9.963277327
9.963267813
9.963278412
9.963275345
9.963250584
9.96329899
9.963272722
9.963303549
9.963270982
9.963277622
9.963267747
9.963278124
9.963275129
9.963251699
9.963300009
9.963272522
9.96330465
9.963270507
9.963276731
9.963267783
9.963277272
9.963274535
9.963252814
9.963300554
9.963271618
9.963303938
9.963270085
9.963277343
9.96326785
9.963277407
9.963274987
9.963252181
9.963300036
9.963271837
9.963302835
9.963270794
9.963275998
9.963267428
9.963277381
9.963275161
9.963251812
9.963297079
9.963270331
9.963302638
9.96326966
9.963274943
9.963268126
9.963277735
9.96327546
9.963251019
9.963295338
9.963268492
9.963300008
9.963267159
9.963273529
9.963266929
9.963277803
9.96327294
9.963248756
9.963292626
9.963263516
9.963291959
9.963262745
9.963271015
9.963266222
)
;
    }
    bottom
    {
        type            calculated;
        value           nonuniform List<scalar> 
127
(
9.963275096
9.963263803
9.963265826
9.963289513
9.963273284
9.963309249
9.963257512
9.963262017
9.963290895
9.963274404
9.963264576
9.963265559
9.963290126
9.963272736
9.96330935
9.963258418
9.963261778
9.963290565
9.963274981
9.963265707
9.963266731
9.963289632
9.963272057
9.963309259
9.963257979
9.963261683
9.963291038
9.963274639
9.963264993
9.96326734
9.96328883
9.963273977
9.963308954
9.963258665
9.963261821
9.963290887
9.963274913
9.963264752
9.963268195
9.963289155
9.963273417
9.963309402
9.963258553
9.963261596
9.96329024
9.963274069
9.963265389
9.963267326
9.963288771
9.96327319
9.963309629
9.963258035
9.963260856
9.963289533
9.96327427
9.963264833
9.963267166
9.96328914
9.963272058
9.963310232
9.963258316
9.963258913
9.96329019
9.963274716
9.963264404
9.963266348
9.963289047
9.963271426
9.963309665
9.963257591
9.963259197
9.963289468
9.96327332
9.963264933
9.963266544
9.963290322
9.963271822
9.963308716
9.963258574
9.96325979
9.963290315
9.963272961
9.963264869
9.963266284
9.963289905
9.963272104
9.963308694
9.963258754
9.963259327
9.963289176
9.963272198
9.963264113
9.963264756
9.963290217
9.963271465
9.963309524
9.963259299
9.96325927
9.963289657
9.963272942
9.963264831
9.963265395
9.963289058
9.963271126
9.963310084
9.963259281
9.96325957
9.963289207
9.963272662
9.963263794
9.963264531
9.963287469
9.963270511
9.963309054
9.96325875
9.963259809
9.963290317
9.963272165
9.963263044
9.963264024
9.963284521
9.963267158
9.963306764
9.963255303
9.963260096
9.963289813
9.963271357
)
;
    }
    side-walls
    {
        type            calculated;
        value           nonuniform List<scalar> 
261
(
9.963275096
9.963270823
9.963295315
9.963257097
9.963276125
9.963303184
9.963294671
9.963256281
9.963274492
9.963274404
9.963270426
9.963295709
9.963257048
9.96327561
9.963302453
9.963295887
9.963256453
9.963274532
9.963274981
9.963270328
9.963296689
9.963257576
9.963275766
9.963302569
9.96329674
9.963256264
9.96327325
9.963274639
9.963269883
9.963296313
9.96325757
9.963276425
9.963303135
9.963296462
9.963255617
9.963274147
9.963274913
9.963269554
9.963297497
9.96325659
9.963277884
9.963304584
9.963294967
9.963257016
9.96327394
9.963274069
9.963269698
9.963298149
9.963257059
9.963278217
9.963305497
9.963294933
9.963256745
9.963274438
9.96327427
9.963269879
9.963297785
9.963257193
9.963278474
9.9633046
9.963295795
9.963256159
9.963273804
9.963274716
9.963270669
9.96329843
9.963257895
9.963278574
9.963304899
9.963294945
9.963256843
9.963274354
9.96327332
9.963271259
9.963299051
9.963258509
9.963277292
9.963305965
9.963294148
9.963255682
9.963275345
9.963272961
9.963271937
9.963298847
9.963259256
9.963277961
9.963306127
9.963293017
9.96325558
9.963275129
9.963272198
9.963271146
9.9632984
9.963259889
9.963278005
9.963306108
9.963292304
9.963255387
9.963274535
9.963272942
9.963269796
9.963298444
9.963259335
9.963278143
9.963304589
9.963292909
9.963255551
9.963274987
9.963272662
9.963269313
9.963296966
9.963258008
9.963274908
9.963303338
9.963292496
9.963255868
9.963275161
9.963272165
9.963269868
9.963297238
9.963254716
9.963272962
9.963300996
9.963290458
9.963254983
9.96327546
9.963271357
9.963268872
9.963293386
9.963249622
9.963266042
9.963295513
9.963288074
9.963253592
9.96327294
9.963290895
9.963289526
9.963262832
9.963274616
9.963275572
9.963233567
9.963273967
9.963302944
9.963280383
9.963290565
9.9632899
9.963262166
9.963275125
9.96327607
9.963231952
9.963273305
9.963302113
9.963280519
9.963291038
9.963290087
9.963262534
9.963274642
9.963277019
9.963232266
9.96327345
9.963302941
9.963280893
9.963290887
9.963289897
9.963263059
9.96327434
9.963277281
9.963231788
9.963272264
9.963303932
9.963279813
9.96329024
9.963290388
9.963264557
9.963274415
9.963276965
9.963232525
9.963272617
9.963304099
9.963279363
9.963289533
9.963290708
9.963264314
9.963273026
9.963275984
9.963232819
9.963272527
9.963302815
9.963278754
9.96329019
9.963290185
9.963264275
9.963273148
9.963275542
9.963232959
9.963274613
9.963302191
9.96327918
9.963289468
9.963289752
9.96326334
9.963273039
9.96327473
9.963232255
9.963274254
9.963301533
9.963278412
9.963290315
9.963289575
9.963261529
9.963272834
9.963275697
9.963233415
9.963273819
9.963300601
9.963278124
9.963289176
9.963289593
9.963260883
9.963273408
9.963275796
9.963234312
9.963274226
9.96330075
9.963277272
9.963289657
9.963288954
9.963261732
9.96327356
9.963276783
9.963234734
9.963274692
9.963300008
9.963277407
9.963289207
9.963289085
9.963260836
9.963273501
9.963275877
9.963235322
9.963274104
9.9633006
9.963277381
9.963290317
9.963288398
9.96326008
9.963272563
9.96327544
9.963234825
9.963273547
9.963300136
9.963277735
9.963289813
9.963287283
9.963258271
9.963269401
9.963272022
9.963232172
9.96327259
9.963299691
9.963277803
)
;
    }
    inlet
    {
        type            calculated;
        value           nonuniform List<scalar> 
81
(
9.963275096
9.963270823
9.963295315
9.963257097
9.963276125
9.963303184
9.963294671
9.963256281
9.963274492
9.963263803
9.963269776
9.9632699
9.963262043
9.963263397
9.963278898
9.963243874
9.963304574
9.963249541
9.963265826
9.963294345
9.963281824
9.963274174
9.963252695
9.963293455
9.963257846
9.963269436
9.963299863
9.963289513
9.963289908
9.963296893
9.963273744
9.963267692
9.96328352
9.96328414
9.963247308
9.963271813
9.963273284
9.963282758
9.963249401
9.963274843
9.963253454
9.963240874
9.963279589
9.963283862
9.963300377
9.963309249
9.963285315
9.963260881
9.963276017
9.963242588
9.963293077
9.963294199
9.963314102
9.963270224
9.963257512
9.963232217
9.963234432
9.96327896
9.963301001
9.963302036
9.963263029
9.963293731
9.963275194
9.963262017
9.96329286
9.96328144
9.963285167
9.963268782
9.9632633
9.963293702
9.963271666
9.963267261
9.963290895
9.963289526
9.963262832
9.963274616
9.963275572
9.963233567
9.963273967
9.963302944
9.963280383
)
;
    }
    outlet
    {
        type            calculated;
        value           nonuniform 0();
    }
    procBoundary0to1
    {
        type            processor;
        value           nonuniform List<scalar> 
97
(
9.963270514
9.963260364
9.963265103
9.963289257
9.96324166
9.963255817
9.963289107
9.963282802
9.963252034
9.963272141
9.963260364
9.963260364
9.963267416
9.96328206
9.963248482
9.96322517
9.963197785
9.963235173
9.963222688
9.963294421
9.96324402
9.963261538
9.96328206
9.96328206
9.963228165
9.963208544
9.963135946
9.963009086
9.963154908
9.963201558
9.963248054
9.963288333
9.96328041
9.963264663
9.963208544
9.963208544
9.962867191
9.962515281
9.962400447
9.962873204
9.963147871
9.963202151
9.963256473
9.963258365
9.963242969
9.963088745
9.962515281
9.962515281
10.03299503
9.962474406
9.962380451
9.963008864
9.963033445
9.963219321
9.963282167
9.963300694
9.963259345
9.96317427
9.962988791
9.962474406
9.963008864
9.963008864
9.963159339
9.963230026
9.96326823
9.963255602
9.963253449
9.963214272
9.963205962
9.963191129
9.963141203
9.9632207
9.963230026
9.963230026
9.963271535
9.963261698
9.963265826
9.963257976
9.963284295
9.963268746
9.96325917
9.963229484
9.963233014
9.963280605
9.963261698
9.963261698
9.963262978
9.963277384
9.96328925
9.963287044
9.963256277
9.963264636
9.963265255
9.963227355
9.963270123
9.963297567
9.963277384
)
;
    }
}


// ************************************************************************* //
