/*--------------------------------*- C++ -*----------------------------------*\
| =========                 |                                                 |
| \\      /  F ield         | OpenFOAM: The Open Source CFD Toolbox           |
|  \\    /   O peration     | Version:  4.x                                   |
|   \\  /    A nd           | Web:      www.OpenFOAM.org                      |
|    \\/     M anipulation  |                                                 |
\*---------------------------------------------------------------------------*/
FoamFile
{
    version     2.0;
    format      ascii;
    class       volScalarField;
    location    "3000";
    object      N2;
}
// * * * * * * * * * * * * * * * * * * * * * * * * * * * * * * * * * * * * * //

dimensions      [0 0 0 0 0 0 0];

internalField   nonuniform List<scalar> 
1175
(
0.6030939065
0.6030939065
0.6030939065
0.6030939065
0.6030939065
0.6030939064
0.6030939062
0.6030939056
0.6030939038
0.6030938981
0.6030938822
0.6030938399
0.6030937369
0.6030935098
0.6030930636
0.6030939065
0.6030939065
0.6030939065
0.6030939065
0.6030939065
0.6030939064
0.6030939061
0.6030939053
0.6030939026
0.6030938941
0.6030938691
0.6030938
0.6030936259
0.6030932336
0.6030924628
0.6030939065
0.6030939065
0.6030939065
0.6030939065
0.6030939064
0.6030939063
0.603093906
0.6030939047
0.6030939005
0.6030938865
0.6030938431
0.6030937177
0.6030933883
0.6030926243
0.6030911194
0.6030939065
0.6030939065
0.6030939065
0.6030939065
0.6030939064
0.6030939063
0.6030939058
0.6030939041
0.6030938981
0.6030938774
0.6030938108
0.6030936096
0.6030930577
0.6030917332
0.6030891056
0.6030939065
0.6030939065
0.6030939065
0.6030939065
0.6030939064
0.6030939063
0.6030939058
0.6030939038
0.6030938969
0.6030938727
0.6030937927
0.6030935444
0.6030928407
0.6030910983
0.6030875975
0.6030939065
0.6030939065
0.6030939065
0.6030939065
0.6030939064
0.6030939063
0.6030939058
0.6030939041
0.6030938981
0.6030938774
0.6030938108
0.6030936096
0.6030930577
0.6030917333
0.6030891056
0.6030939065
0.6030939065
0.6030939065
0.6030939065
0.6030939064
0.6030939063
0.603093906
0.6030939047
0.6030939005
0.6030938865
0.6030938431
0.6030937177
0.6030933883
0.6030926243
0.6030911195
0.6030939065
0.6030939065
0.6030939065
0.6030939065
0.6030939065
0.6030939064
0.6030939061
0.6030939053
0.6030939026
0.6030938941
0.6030938691
0.6030938
0.6030936259
0.6030932336
0.6030924628
0.6030939065
0.6030939065
0.6030939065
0.6030939065
0.6030939065
0.6030939064
0.6030939062
0.6030939056
0.6030939038
0.6030938981
0.6030938822
0.6030938399
0.6030937369
0.6030935099
0.6030930637
0.6030939065
0.6030939065
0.6030939065
0.6030939065
0.6030939065
0.6030939064
0.6030939061
0.6030939053
0.6030939026
0.6030938941
0.6030938691
0.6030938
0.6030936259
0.6030932336
0.6030939065
0.6030939065
0.6030939065
0.6030939065
0.6030939064
0.6030939064
0.603093906
0.6030939048
0.6030939006
0.6030938869
0.6030938439
0.6030937187
0.6030933868
0.6030926122
0.6030910852
0.6030939065
0.6030939065
0.6030939065
0.6030939065
0.6030939064
0.6030939063
0.6030939058
0.6030939038
0.6030938968
0.6030938721
0.6030937899
0.6030935345
0.6030928145
0.6030910515
0.6030875396
0.6030939065
0.6030939065
0.6030939065
0.6030939065
0.6030939064
0.6030939062
0.6030939055
0.6030939027
0.6030938921
0.6030938531
0.6030937152
0.603093258
0.6030918779
0.6030882837
0.6030809456
0.6030939065
0.6030939065
0.6030939065
0.6030939065
0.6030939064
0.6030939062
0.6030939054
0.6030939022
0.6030938896
0.603093842
0.6030936673
0.6030930588
0.6030911087
0.6030856784
0.6030740767
0.6030939065
0.6030939065
0.6030939065
0.6030939065
0.6030939064
0.6030939062
0.6030939055
0.6030939027
0.6030938921
0.6030938531
0.6030937152
0.603093258
0.6030918779
0.6030882838
0.6030809459
0.6030939065
0.6030939065
0.6030939065
0.6030939065
0.6030939064
0.6030939063
0.6030939058
0.6030939038
0.6030938968
0.6030938721
0.6030937899
0.6030935345
0.6030928146
0.6030910516
0.6030875398
0.6030939065
0.6030939065
0.6030939065
0.6030939065
0.6030939064
0.6030939064
0.603093906
0.6030939048
0.6030939006
0.6030938869
0.6030938439
0.6030937187
0.6030933868
0.6030926123
0.6030910854
0.6030939065
0.6030939065
0.6030939065
0.6030939065
0.6030939065
0.6030939064
0.6030939061
0.6030939053
0.6030939026
0.6030938941
0.6030938691
0.6030938
0.6030936259
0.6030932336
0.6030924628
0.6030939065
0.6030939065
0.6030939065
0.6030939065
0.6030939064
0.6030939063
0.603093906
0.6030939047
0.6030939005
0.6030938865
0.6030938431
0.6030937177
0.6030933883
0.6030926242
0.6030939065
0.6030939065
0.6030939065
0.6030939065
0.6030939064
0.6030939063
0.6030939058
0.6030939038
0.6030938968
0.6030938721
0.6030937899
0.6030935345
0.6030928145
0.6030910514
0.6030939065
0.6030939065
0.6030939065
0.6030939065
0.6030939064
0.6030939062
0.6030939054
0.603093902
0.6030938892
0.6030938407
0.6030936658
0.603093074
0.6030912548
0.6030864514
0.6030766033
0.6030939065
0.6030939065
0.6030939065
0.6030939065
0.6030939064
0.6030939061
0.6030939049
0.6030938999
0.6030938792
0.6030937962
0.6030934721
0.6030922718
0.6030881905
0.6030762441
0.603050108
0.6030939065
0.6030939065
0.6030939065
0.6030939065
0.6030939064
0.6030939061
0.6030939047
0.6030938987
0.6030938734
0.6030937669
0.6030933265
0.6030915644
0.6030849361
0.60306291
0.6030082172
0.6030939065
0.6030939065
0.6030939065
0.6030939065
0.6030939064
0.6030939061
0.6030939049
0.6030938999
0.6030938792
0.6030937962
0.6030934721
0.6030922718
0.6030881905
0.6030762445
0.6030501091
0.6030939065
0.6030939065
0.6030939065
0.6030939065
0.6030939064
0.6030939062
0.6030939054
0.603093902
0.6030938892
0.6030938407
0.6030936658
0.603093074
0.6030912549
0.6030864517
0.6030766044
0.6030939065
0.6030939065
0.6030939065
0.6030939065
0.6030939064
0.6030939063
0.6030939058
0.6030939038
0.6030938968
0.6030938721
0.6030937899
0.6030935345
0.6030928146
0.6030910516
0.6030875398
0.6030939065
0.6030939065
0.6030939065
0.6030939065
0.6030939064
0.6030939063
0.603093906
0.6030939047
0.6030939005
0.6030938865
0.6030938431
0.6030937177
0.6030933883
0.6030926243
0.6030911195
0.6030939065
0.6030939065
0.6030939065
0.6030939065
0.6030939064
0.6030939063
0.6030939058
0.6030939041
0.6030938981
0.6030938774
0.6030938108
0.6030936096
0.6030930577
0.6030917331
0.6030939065
0.6030939065
0.6030939065
0.6030939065
0.6030939064
0.6030939062
0.6030939055
0.6030939027
0.6030938921
0.6030938531
0.6030937152
0.6030932579
0.6030918778
0.6030882833
0.6030939065
0.6030939065
0.6030939065
0.6030939065
0.6030939064
0.6030939061
0.6030939049
0.6030938999
0.6030938792
0.6030937962
0.6030934721
0.6030922717
0.6030881902
0.6030762431
0.6030939065
0.6030939065
0.6030939065
0.6030939065
0.6030939064
0.603093906
0.6030939041
0.6030938962
0.6030938611
0.6030937074
0.6030930425
0.6030902565
0.6030792896
0.6030413328
0.6029445532
0.6030939065
0.6030939065
0.6030939065
0.6030939065
0.6030939063
0.6030939059
0.6030939038
0.6030938941
0.6030938494
0.6030936406
0.6030926572
0.6030880186
0.6030665066
0.6029730443
0.6026494418
0.6030939065
0.6030939065
0.6030939065
0.6030939065
0.6030939064
0.603093906
0.6030939041
0.6030938962
0.6030938611
0.6030937074
0.6030930425
0.6030902565
0.6030792899
0.6030413346
0.6029445609
0.6030939065
0.6030939065
0.6030939065
0.6030939065
0.6030939064
0.6030939061
0.6030939049
0.6030938999
0.6030938792
0.6030937962
0.6030934721
0.6030922718
0.6030881905
0.6030762444
0.6030501091
0.6030939065
0.6030939065
0.6030939065
0.6030939065
0.6030939064
0.6030939062
0.6030939055
0.6030939027
0.6030938921
0.6030938531
0.6030937152
0.603093258
0.6030918779
0.6030882837
0.6030809458
0.6030939065
0.6030939065
0.6030939065
0.6030939065
0.6030939064
0.6030939063
0.6030939058
0.6030939041
0.6030938981
0.6030938774
0.6030938108
0.6030936096
0.6030930577
0.6030917332
0.6030891056
0.6030939065
0.6030939065
0.6030939065
0.6030939065
0.6030939064
0.6030939063
0.6030939058
0.6030939038
0.6030938969
0.6030938727
0.6030937927
0.6030935444
0.6030928406
0.6030910981
0.6030939065
0.6030939065
0.6030939065
0.6030939065
0.6030939064
0.6030939062
0.6030939054
0.6030939022
0.6030938896
0.603093842
0.6030936673
0.6030930588
0.6030911085
0.6030856777
0.6030939065
0.6030939065
0.6030939065
0.6030939065
0.6030939064
0.6030939061
0.6030939047
0.6030938987
0.6030938734
0.6030937669
0.6030933265
0.6030915643
0.6030849355
0.6030629075
0.6030939065
0.6030939065
0.6030939065
0.6030939065
0.6030939063
0.6030939059
0.6030939038
0.6030938941
0.6030938494
0.6030936406
0.6030926572
0.6030880184
0.6030665054
0.6029730358
0.6030939065
0.6030939065
0.6030939065
0.6030939064
0.6030939063
0.6030939058
0.6030939033
0.6030938912
0.6030938324
0.6030935337
0.6030919456
0.603083007
0.6030292036
0.6026806124
0.6002353246
0.6030939065
0.6030939065
0.6030939065
0.6030939065
0.6030939063
0.6030939059
0.6030939038
0.6030938941
0.6030938494
0.6030936406
0.6030926572
0.6030880185
0.6030665062
0.602973043
0.6026494401
0.6030939065
0.6030939065
0.6030939065
0.6030939065
0.6030939064
0.6030939061
0.6030939047
0.6030938987
0.6030938734
0.6030937669
0.6030933265
0.6030915644
0.603084936
0.6030629096
0.6030082168
0.6030939065
0.6030939065
0.6030939065
0.6030939065
0.6030939064
0.6030939062
0.6030939054
0.6030939022
0.6030938896
0.603093842
0.6030936673
0.6030930588
0.6030911086
0.6030856783
0.6030740767
0.6030939065
0.6030939065
0.6030939065
0.6030939065
0.6030939064
0.6030939063
0.6030939058
0.6030939038
0.6030938969
0.6030938727
0.6030937927
0.6030935444
0.6030928406
0.6030910983
0.6030875975
0.6030939065
0.6030939065
0.6030939065
0.6030939065
0.6030939064
0.6030939063
0.6030939058
0.6030939041
0.6030938981
0.6030938774
0.6030938108
0.6030936096
0.6030930576
0.6030917331
0.6030939065
0.6030939065
0.6030939065
0.6030939065
0.6030939064
0.6030939062
0.6030939055
0.6030939027
0.6030938921
0.6030938531
0.6030937152
0.6030932579
0.6030918778
0.6030882833
0.6030939065
0.6030939065
0.6030939065
0.6030939065
0.6030939064
0.6030939061
0.6030939049
0.6030938999
0.6030938792
0.6030937962
0.6030934721
0.6030922717
0.6030881901
0.603076243
0.6030939065
0.6030939065
0.6030939065
0.6030939065
0.6030939064
0.603093906
0.6030939041
0.6030938962
0.6030938611
0.6030937074
0.6030930425
0.6030902564
0.603079289
0.6030413304
0.6030939065
0.6030939065
0.6030939065
0.6030939065
0.6030939063
0.6030939059
0.6030939038
0.6030938941
0.6030938494
0.6030936406
0.6030926572
0.6030880183
0.603066505
0.6029730346
0.6030939065
0.6030939065
0.6030939065
0.6030939065
0.6030939064
0.603093906
0.6030939041
0.6030938962
0.6030938611
0.6030937074
0.6030930425
0.6030902564
0.6030792892
0.603041331
0.6030939065
0.6030939065
0.6030939065
0.6030939065
0.6030939064
0.6030939061
0.6030939049
0.6030938999
0.6030938792
0.6030937962
0.6030934721
0.6030922717
0.6030881903
0.6030762437
0.6030501066
0.6030939065
0.6030939065
0.6030939065
0.6030939065
0.6030939064
0.6030939062
0.6030939055
0.6030939027
0.6030938921
0.6030938531
0.6030937152
0.603093258
0.6030918779
0.6030882836
0.6030809455
0.6030939065
0.6030939065
0.6030939065
0.6030939065
0.6030939064
0.6030939063
0.6030939058
0.6030939041
0.6030938981
0.6030938774
0.6030938108
0.6030936096
0.6030930577
0.6030917332
0.6030891055
0.6030939065
0.6030939065
0.6030939065
0.6030939065
0.6030939064
0.6030939063
0.603093906
0.6030939047
0.6030939005
0.6030938865
0.6030938431
0.6030937177
0.6030933883
0.6030926242
0.6030939065
0.6030939065
0.6030939065
0.6030939065
0.6030939064
0.6030939063
0.6030939058
0.6030939038
0.6030938968
0.6030938721
0.6030937899
0.6030935345
0.6030928145
0.6030910513
0.6030939065
0.6030939065
0.6030939065
0.6030939065
0.6030939064
0.6030939062
0.6030939054
0.603093902
0.6030938892
0.6030938407
0.6030936658
0.6030930739
0.6030912547
0.6030864511
0.6030939065
0.6030939065
0.6030939065
0.6030939065
0.6030939064
0.6030939061
0.6030939049
0.6030938999
0.6030938792
0.6030937962
0.6030934721
0.6030922717
0.6030881901
0.603076243
0.6030939065
0.6030939065
0.6030939065
0.6030939065
0.6030939064
0.6030939061
0.6030939047
0.6030938987
0.6030938734
0.6030937669
0.6030933265
0.6030915643
0.6030849355
0.6030629074
0.6030939065
0.6030939065
0.6030939065
0.6030939065
0.6030939064
0.6030939061
0.6030939049
0.6030938999
0.6030938792
0.6030937962
0.6030934721
0.6030922717
0.6030881902
0.6030762432
0.6030939065
0.6030939065
0.6030939065
0.6030939065
0.6030939064
0.6030939062
0.6030939054
0.603093902
0.6030938892
0.6030938407
0.6030936658
0.603093074
0.6030912547
0.6030864511
0.6030939065
0.6030939065
0.6030939065
0.6030939065
0.6030939064
0.6030939063
0.6030939058
0.6030939038
0.6030938968
0.6030938721
0.6030937899
0.6030935345
0.6030928145
0.6030910514
0.6030875394
0.6030939065
0.6030939065
0.6030939065
0.6030939065
0.6030939064
0.6030939063
0.603093906
0.6030939047
0.6030939005
0.6030938865
0.6030938431
0.6030937177
0.6030933883
0.6030926243
0.6030911194
0.6030939065
0.6030939065
0.6030939065
0.6030939065
0.6030939065
0.6030939064
0.6030939061
0.6030939053
0.6030939026
0.6030938941
0.6030938691
0.6030938
0.6030936259
0.6030932336
0.6030939065
0.6030939065
0.6030939065
0.6030939065
0.6030939064
0.6030939064
0.603093906
0.6030939048
0.6030939006
0.6030938869
0.6030938439
0.6030937187
0.6030933868
0.6030926122
0.6030939065
0.6030939065
0.6030939065
0.6030939065
0.6030939064
0.6030939063
0.6030939058
0.6030939038
0.6030938968
0.6030938721
0.6030937899
0.6030935345
0.6030928145
0.6030910513
0.6030939065
0.6030939065
0.6030939065
0.6030939065
0.6030939064
0.6030939062
0.6030939055
0.6030939027
0.6030938921
0.6030938531
0.6030937152
0.6030932579
0.6030918778
0.6030882833
0.6030939065
0.6030939065
0.6030939065
0.6030939065
0.6030939064
0.6030939062
0.6030939054
0.6030939022
0.6030938896
0.603093842
0.6030936673
0.6030930587
0.6030911084
0.6030856777
0.6030939065
0.6030939065
0.6030939065
0.6030939065
0.6030939064
0.6030939062
0.6030939055
0.6030939027
0.6030938921
0.6030938531
0.6030937152
0.6030932579
0.6030918778
0.6030882833
0.6030939065
0.6030939065
0.6030939065
0.6030939065
0.6030939064
0.6030939063
0.6030939058
0.6030939038
0.6030938968
0.6030938721
0.6030937899
0.6030935345
0.6030928145
0.6030910514
0.6030939065
0.6030939065
0.6030939065
0.6030939065
0.6030939064
0.6030939064
0.603093906
0.6030939048
0.6030939006
0.6030938869
0.6030938439
0.6030937187
0.6030933868
0.6030926122
0.6030939065
0.6030939065
0.6030939065
0.6030939065
0.6030939065
0.6030939064
0.6030939061
0.6030939053
0.6030939026
0.6030938941
0.6030938691
0.6030938
0.6030936259
0.6030932336
0.6030924627
0.6030939065
0.6030939065
0.6030939065
0.6030939065
0.6030939065
0.6030939064
0.6030939062
0.6030939056
0.6030939038
0.6030938981
0.6030938822
0.6030938399
0.6030937369
0.6030935098
0.6030939065
0.6030939065
0.6030939065
0.6030939065
0.6030939065
0.6030939064
0.6030939061
0.6030939053
0.6030939026
0.6030938941
0.6030938691
0.6030938
0.6030936259
0.6030932336
0.6030939065
0.6030939065
0.6030939065
0.6030939065
0.6030939064
0.6030939063
0.603093906
0.6030939047
0.6030939005
0.6030938865
0.6030938431
0.6030937177
0.6030933883
0.6030926242
0.6030939065
0.6030939065
0.6030939065
0.6030939065
0.6030939064
0.6030939063
0.6030939058
0.6030939041
0.6030938981
0.6030938774
0.6030938108
0.6030936096
0.6030930576
0.6030917331
0.6030939065
0.6030939065
0.6030939065
0.6030939065
0.6030939064
0.6030939063
0.6030939058
0.6030939038
0.6030938969
0.6030938727
0.6030937927
0.6030935444
0.6030928406
0.6030910981
0.6030939065
0.6030939065
0.6030939065
0.6030939065
0.6030939064
0.6030939063
0.6030939058
0.6030939041
0.6030938981
0.6030938774
0.6030938108
0.6030936096
0.6030930576
0.6030917331
0.6030939065
0.6030939065
0.6030939065
0.6030939065
0.6030939064
0.6030939063
0.603093906
0.6030939047
0.6030939005
0.6030938865
0.6030938431
0.6030937177
0.6030933883
0.6030926242
0.6030939065
0.6030939065
0.6030939065
0.6030939065
0.6030939065
0.6030939064
0.6030939061
0.6030939053
0.6030939026
0.6030938941
0.6030938691
0.6030938
0.6030936259
0.6030932336
0.6030939065
0.6030939065
0.6030939065
0.6030939065
0.6030939065
0.6030939064
0.6030939062
0.6030939056
0.6030939038
0.6030938981
0.6030938822
0.6030938399
0.6030937369
0.6030935098
)
;

boundaryField
{
    top
    {
        type            zeroGradient;
    }
    bottom
    {
        type            zeroGradient;
    }
    side-walls
    {
        type            zeroGradient;
    }
    inlet
    {
        type            zeroGradient;
    }
    outlet
    {
        type            zeroGradient;
    }
    procBoundary0to1
    {
        type            processor;
        value           nonuniform List<scalar> 
97
(
0.6030922882
0.6030924627
0.603091161
0.6030886746
0.6030850381
0.6030824468
0.6030850382
0.6030886747
0.603091161
0.6030922882
0.6030924627
0.6030924627
0.6030886252
0.6030875393
0.6030822558
0.603070959
0.6030603236
0.6030709593
0.6030822561
0.6030886254
0.603091161
0.6030911194
0.6030875393
0.6030875393
0.6030634807
0.6030501061
0.6030218122
0.602967358
0.6030218132
0.6030634815
0.6030822561
0.6030886747
0.6030891054
0.6030809452
0.6030501061
0.6030501061
0.6028792491
0.6026494217
0.6026001446
0.6028792528
0.6030218132
0.6030709592
0.6030850382
0.6030875973
0.6030740761
0.6030082139
0.6026494217
0.6026494217
0.601399476
0.6026494217
0.6026001445
0.6029445549
0.602967358
0.6030603236
0.6030824468
0.6030891055
0.6030809454
0.6030501075
0.6029445558
0.6026494217
0.6029445549
0.6029445549
0.6030218122
0.6030766034
0.603070959
0.6030850381
0.6030911194
0.6030875396
0.6030766038
0.6030501076
0.6030082141
0.6030501078
0.6030766034
0.6030766034
0.6030822559
0.6030910852
0.6030886746
0.6030924628
0.6030910853
0.6030875396
0.6030809454
0.6030740762
0.6030809455
0.6030875396
0.6030910852
0.6030910852
0.603091161
0.6030930637
0.6030930637
0.6030924628
0.6030911194
0.6030891055
0.6030875974
0.6030891055
0.6030911194
0.6030924628
0.6030930637
)
;
    }
}


// ************************************************************************* //
