/*--------------------------------*- C++ -*----------------------------------*\
| =========                 |                                                 |
| \\      /  F ield         | OpenFOAM: The Open Source CFD Toolbox           |
|  \\    /   O peration     | Version:  4.x                                   |
|   \\  /    A nd           | Web:      www.OpenFOAM.org                      |
|    \\/     M anipulation  |                                                 |
\*---------------------------------------------------------------------------*/
FoamFile
{
    version     2.0;
    format      ascii;
    class       surfaceScalarField;
    location    "3000";
    object      phi;
}
// * * * * * * * * * * * * * * * * * * * * * * * * * * * * * * * * * * * * * //

dimensions      [1 0 -1 0 0 0 0];

internalField   nonuniform List<scalar> 
3175
(
9.428244653e-06
-1.080289365e-12
6.531275515e-14
9.428244388e-06
-2.856850047e-14
3.711469735e-13
9.428245728e-06
-6.106777024e-13
1.86424005e-13
9.428246493e-06
-4.504278003e-13
5.526669402e-13
9.428246257e-06
1.409248177e-13
3.252553875e-13
9.428247437e-06
-4.619388725e-13
1.619441192e-12
9.42824901e-06
-6.838789476e-13
1.347547975e-12
9.428250313e-06
-8.212673318e-13
1.081197924e-12
9.428256739e-06
-2.613224509e-12
-1.5965698e-12
9.428264478e-06
-3.126147293e-12
-3.578215625e-12
9.42827834e-06
-8.230044974e-12
-7.661651776e-12
9.428301128e-06
-1.09907078e-11
-8.518512819e-12
9.428345737e-06
-2.387971446e-11
-2.452518328e-11
9.428393013e-06
-2.0173512e-11
-2.124572708e-11
-6.317468195e-11
9.42824136e-06
1.637392444e-12
8.817069713e-13
9.428239078e-06
1.607004273e-12
-4.094925499e-14
9.428241628e-06
3.425724965e-12
7.769346588e-13
9.428242608e-06
1.170145938e-12
1.306443726e-12
9.428240486e-06
-7.014994272e-13
-1.861925028e-13
9.428242458e-06
-9.099373623e-13
-6.545027878e-13
9.428244149e-06
-1.717135198e-12
5.86282261e-13
9.428244216e-06
-2.738103435e-12
-1.486357026e-12
9.428250174e-06
-4.29354459e-12
-2.315005516e-12
9.428256565e-06
-7.131406162e-12
-3.885723575e-12
9.428269886e-06
-1.358375277e-11
-7.426281073e-12
9.428290171e-06
-1.768680836e-11
-1.059412317e-11
9.428335245e-06
-4.128010236e-11
-2.966315082e-11
9.428377077e-06
-3.953293566e-11
-2.391567021e-11
-1.228102891e-10
-9.548023346e-11
9.428264611e-06
4.758999779e-13
2.340487242e-13
9.428265606e-06
3.917283856e-13
-4.593479454e-13
9.428264321e-06
-8.116060408e-14
-1.157105441e-12
9.428266678e-06
3.354901682e-13
-1.166072174e-12
9.42826692e-06
-7.294673029e-13
-1.434080373e-12
9.428266966e-06
-1.084926353e-12
-1.325465736e-12
9.428268736e-06
-8.615644623e-13
6.674008115e-13
9.428268039e-06
-1.920555917e-12
-1.141508172e-12
9.428271086e-06
-2.461162302e-12
-3.733651065e-12
9.428274862e-06
-5.628171713e-12
-6.100966834e-12
9.428282684e-06
-1.072099892e-11
-8.036043102e-12
9.428295798e-06
-1.572293781e-11
-1.388078251e-11
9.428332393e-06
-4.022540133e-11
-4.142284519e-11
9.428364082e-06
-3.741729605e-11
-3.620154091e-11
-1.470118536e-10
-2.025119712e-10
9.428227977e-06
-7.175223102e-13
-4.867729242e-13
9.428227797e-06
-8.650604917e-13
-1.858790015e-13
9.428227697e-06
-5.122147675e-13
-4.036193467e-14
9.428228959e-06
-1.458262885e-12
-1.814066097e-12
9.42822793e-06
-1.876203717e-12
-7.995302235e-13
9.428228463e-06
-1.804638883e-12
-8.152834287e-13
9.428229561e-06
-1.753078879e-12
2.45809813e-13
9.428230933e-06
-2.246318107e-12
-2.435984046e-12
9.428230706e-06
-2.854526645e-12
-3.171058847e-12
9.428234232e-06
-2.390117919e-12
-5.366353805e-12
9.428238043e-06
-7.527471524e-12
-5.915238224e-12
9.428251719e-06
-1.337991372e-11
-1.26087214e-11
9.428279931e-06
-3.670927057e-11
-3.787251582e-11
9.428319115e-06
-4.08484911e-11
-3.646943281e-11
-1.373553482e-10
-3.117135538e-10
9.428246278e-06
3.402964155e-13
-1.529600673e-12
9.428244977e-06
-3.705214114e-15
-4.371710749e-13
9.428245839e-06
-1.168103591e-12
6.800014894e-13
9.428247603e-06
2.586738001e-13
1.872612948e-12
9.428247498e-06
-5.424655348e-13
7.95650456e-13
9.428246843e-06
-8.885465859e-14
-5.955099108e-13
9.428246683e-06
1.065487297e-12
-2.036726893e-13
9.42824768e-06
1.289095794e-12
-6.544759774e-13
9.428245625e-06
2.307790322e-12
-2.595203758e-12
9.428243134e-06
4.177578544e-12
-6.15578511e-12
9.428235812e-06
9.031762058e-12
-9.885154706e-12
9.428231296e-06
1.365342915e-11
-2.279280744e-11
9.428234409e-06
3.485495985e-11
-7.071420306e-11
9.428239995e-06
3.900448984e-11
-8.571506756e-11
1.32127261e-10
-7.487127961e-10
9.428271638e-06
4.26396487e-13
-1.856673353e-13
9.428269909e-06
7.636429553e-13
1.459752403e-12
9.428271634e-06
1.501072747e-12
2.36789492e-12
9.428271647e-06
4.196691196e-13
1.170022712e-12
9.428272513e-06
1.379640476e-12
9.242327101e-13
9.428274976e-06
9.833537162e-13
2.959154004e-13
9.428274048e-06
8.437284717e-13
3.766513222e-13
9.428275194e-06
2.481697971e-12
-1.553391065e-13
9.428276505e-06
3.144772392e-12
-7.616911033e-13
9.428280727e-06
6.323852978e-12
-3.425125184e-12
9.428283497e-06
1.076324856e-11
-5.892467477e-12
9.428293645e-06
1.582188641e-11
-1.419105492e-11
9.428324438e-06
4.038258745e-11
-3.854392011e-11
9.428361073e-06
3.714128317e-11
-3.581937263e-11
1.474120271e-10
-3.103940145e-10
9.428264002e-06
-2.278882484e-13
-3.595711094e-13
9.428263336e-06
2.109173046e-13
4.528260748e-14
9.42826343e-06
5.354506299e-13
6.997685078e-13
9.428264918e-06
1.485394027e-12
9.016957005e-13
9.42826301e-06
-2.668429637e-13
-1.152800196e-13
9.428265471e-06
4.680240099e-13
-1.99747948e-13
9.428266559e-06
4.594421629e-15
-7.50154927e-13
9.428265745e-06
1.780207779e-12
-1.284879795e-12
9.428270171e-06
4.323565176e-12
-3.114573917e-12
9.428269461e-06
6.32357911e-12
-4.494151607e-12
9.428276168e-06
1.275965808e-11
-8.929309553e-12
9.428288073e-06
1.722162743e-11
-1.400130561e-11
9.428328326e-06
4.037278275e-11
-4.271403848e-11
9.42835962e-06
3.804733245e-11
-3.804130753e-11
1.217723082e-10
-2.030820005e-10
9.428227908e-06
-7.494925367e-13
-7.882324878e-13
9.428226849e-06
-1.136296946e-12
6.208006531e-13
9.428225377e-06
-1.073635012e-12
-3.217472303e-13
9.428226822e-06
-1.710083569e-12
-1.266617396e-13
9.42822844e-06
1.327991925e-13
1.125502256e-12
9.428229947e-06
1.583643475e-13
-6.531720256e-13
9.428231903e-06
2.247881445e-12
2.791309814e-13
9.428232497e-06
1.82554525e-12
-1.561081482e-12
9.428237951e-06
3.236481082e-12
-2.365052374e-12
9.428242474e-06
4.302535182e-12
-2.90187217e-12
9.428254995e-06
8.529241253e-12
-7.482488536e-12
9.428272808e-06
9.987746357e-12
-1.058781624e-11
9.428321325e-06
2.236749599e-11
-2.890225392e-11
9.428362121e-06
1.986882847e-11
-2.368680219e-11
6.205138905e-11
-9.752331215e-11
9.428244214e-06
4.802026998e-13
9.428244042e-06
-9.182620518e-13
9.42824316e-06
-1.466867601e-12
9.428244633e-06
-2.686502497e-13
9.428244651e-06
4.349679292e-13
9.428248639e-06
5.931698067e-13
9.428248498e-06
-1.822682864e-13
9.42825383e-06
-3.236080282e-13
9.428258561e-06
-2.600837364e-12
9.428264767e-06
-3.944353271e-12
9.42828021e-06
-8.601020921e-12
9.428299812e-06
-8.304691227e-12
9.428349717e-06
-2.369600758e-11
9.428393329e-06
-2.222053581e-11
-6.310377526e-11
9.428235187e-06
-3.848406152e-13
3.000529177e-13
9.428234046e-06
1.596189415e-13
-2.631231583e-13
9.42823415e-06
-1.215094317e-13
1.953921367e-13
9.428236726e-06
1.382136031e-12
-6.370334452e-14
9.428237118e-06
2.685627679e-13
-1.659562832e-14
9.428237537e-06
-1.332804579e-12
-7.815670369e-13
9.428238206e-06
-1.706779814e-12
-1.343261823e-12
9.428238327e-06
-3.202657866e-12
-8.694557995e-13
9.428245083e-06
-4.046477317e-12
-4.085209652e-12
9.428250801e-06
-3.89947976e-12
-5.94571503e-12
9.428264927e-06
-7.749994035e-12
-1.286691107e-11
9.428280252e-06
-1.250839507e-11
-1.858543665e-11
9.428328301e-06
-2.892751095e-11
-4.182222078e-11
-2.318289447e-11
-3.908188964e-11
9.428241311e-06
1.613553343e-12
-1.996511155e-13
9.428239432e-06
2.73170529e-14
-6.786076283e-13
9.428242521e-06
6.940578495e-13
2.571603085e-13
9.428243018e-06
-1.561062425e-12
-1.428403678e-12
9.428242329e-06
-2.016814734e-12
-6.301323239e-13
9.428244678e-06
-1.232058689e-12
-6.940621431e-13
9.428244014e-06
-1.850702953e-12
-7.108740913e-13
9.42824578e-06
-2.107028426e-12
-1.290608254e-12
9.428251165e-06
-4.008396437e-12
-2.706619493e-12
9.42825516e-06
-9.156496933e-12
-6.534158274e-12
9.428265377e-06
-1.467634939e-11
-1.264929249e-11
9.428282322e-06
-1.908289637e-11
-1.946092487e-11
9.428325831e-06
-4.869322004e-11
-4.795927756e-11
9.428367351e-06
-4.48396348e-11
-4.471887799e-11
-1.995296319e-10
9.428240739e-06
-2.643292327e-13
-6.645992929e-13
9.428238789e-06
1.922819748e-13
-5.769704982e-14
9.428238961e-06
1.10583899e-12
4.550878339e-13
9.428242057e-06
3.656699274e-13
-2.428886126e-13
9.428241659e-06
6.380925854e-13
4.697556955e-13
9.428243037e-06
-6.354370575e-13
-6.588840519e-13
9.428241589e-06
-1.352472051e-12
-2.314545341e-12
9.428240993e-06
-2.628005847e-12
-2.988567095e-12
9.428241818e-06
-2.450868688e-12
-5.118591939e-12
9.428246165e-06
-5.604442947e-12
-7.690852267e-12
9.428247127e-06
-1.082838433e-11
-1.386440341e-11
9.428254143e-06
-1.71115662e-11
-2.804075028e-11
9.428280661e-06
-4.660781647e-11
-7.109582928e-11
9.428314692e-06
-4.426111093e-11
-7.470976177e-11
-2.789364853e-10
-4.553740764e-10
9.428232432e-06
-1.291187041e-12
1.203965227e-13
9.428231542e-06
-8.698343318e-13
7.754575862e-13
9.428232506e-06
3.171916109e-13
4.114134044e-13
9.42823674e-06
1.526237063e-12
1.141012164e-12
9.428234598e-06
-3.984089934e-13
5.161261695e-13
9.428235823e-06
-5.889015586e-13
-5.780746055e-13
9.428232308e-06
-1.573062771e-12
-2.812967798e-13
9.428235603e-06
-3.715322016e-13
-8.366118561e-13
9.428232966e-06
-2.855677894e-12
-2.61666613e-12
9.428238662e-06
-2.378962677e-12
-6.458160786e-12
9.428238342e-06
-8.640267093e-12
-7.77000237e-12
9.42825023e-06
-1.827063971e-11
-2.772817509e-11
9.428261038e-06
-5.185873984e-11
-5.067410557e-11
9.428331741e-06
-6.209438256e-11
-8.899674429e-11
-2.74862469e-10
-7.455126038e-10
9.428235231e-06
5.73518961e-13
-1.035329896e-13
9.428233831e-06
7.742555788e-13
-1.132830665e-14
9.428233938e-06
1.19537697e-12
5.12413112e-13
9.428232471e-06
-4.845305899e-13
1.911083677e-13
9.428231936e-06
-1.594249174e-13
3.863469186e-13
9.428230997e-06
5.904191639e-13
2.94576234e-13
9.428229391e-06
1.080918469e-12
-1.336914019e-12
9.428230752e-06
1.396684014e-12
-2.11411712e-12
9.428227422e-06
3.152010546e-12
-2.000943279e-12
9.428222264e-06
5.244273525e-12
-8.344451348e-12
9.428205204e-06
1.033166775e-11
-9.780084806e-12
9.428190813e-06
1.749593221e-11
-4.037423571e-11
9.428124934e-06
4.88939737e-11
-1.025197096e-10
9.428137135e-06
5.938218435e-11
-2.182364565e-10
2.716386109e-10
-2.131983251e-09
9.428249569e-06
6.605193241e-13
-1.214014536e-12
9.428247098e-06
2.356148e-14
-8.405499425e-13
9.428247088e-06
-2.552441958e-13
-6.922594612e-13
9.428248229e-06
1.156342276e-13
2.324638261e-14
9.428248946e-06
-9.617751735e-13
5.735447523e-13
9.428248761e-06
-6.365362358e-13
-5.036366951e-13
9.428248214e-06
6.189161332e-13
-1.787791718e-12
9.428247238e-06
2.138975162e-12
-2.505243037e-12
9.428247557e-06
1.104403533e-12
-2.765252012e-12
9.428249281e-06
5.369784227e-12
-8.003219895e-12
9.428248345e-06
8.938396259e-12
-7.669851668e-12
9.42826059e-06
1.677507349e-11
-2.7119257e-11
9.428272662e-06
4.539852699e-11
-5.066481934e-11
9.428340269e-06
4.219722391e-11
-8.983249881e-11
2.767207012e-10
-7.444158197e-10
9.428216168e-06
-7.766446507e-13
-5.656386275e-13
9.428216744e-06
5.289240869e-13
7.286771295e-13
9.428218984e-06
-7.965751223e-13
3.969579487e-13
9.428218371e-06
4.338113113e-13
9.86800504e-13
9.42821835e-06
7.283598978e-13
-8.019733485e-14
9.428218888e-06
1.061233007e-13
-3.59560579e-14
9.42821938e-06
5.443691806e-13
-1.379403041e-12
9.428217183e-06
1.577220193e-12
-3.406070739e-12
9.428222593e-06
4.837101231e-12
-3.769204725e-12
9.428220894e-06
7.904631458e-12
-8.165216044e-12
9.428223167e-06
1.353138687e-11
-1.291534465e-11
9.428228193e-06
1.871028407e-11
-2.616562471e-11
9.428257203e-06
4.995447565e-11
-7.078669167e-11
9.428291293e-06
4.475426936e-11
-7.515948251e-11
1.97913126e-10
-4.561251372e-10
9.428273721e-06
2.309210469e-13
1.926976153e-13
9.428271079e-06
-2.032660197e-12
1.235355572e-12
9.428272403e-06
-3.318728691e-13
9.907603831e-13
9.428269902e-06
-1.937735684e-12
7.314019707e-13
9.428270339e-06
-1.046098361e-12
-1.793673717e-13
9.428273757e-06
1.892761575e-12
5.08730769e-13
9.42827325e-06
1.364415487e-12
-5.157810837e-13
9.428275883e-06
1.887926016e-12
-1.129879057e-12
9.428279451e-06
3.333273758e-12
-3.014724551e-12
9.428280131e-06
2.336096927e-12
-8.140923665e-12
9.428291797e-06
6.851675491e-12
-1.308882236e-11
9.428307829e-06
1.138158841e-11
-2.01530259e-11
9.428352356e-06
2.768976319e-11
-5.116483339e-11
9.428392133e-06
2.191185043e-11
-4.755812906e-11
9.742845847e-11
-1.995980961e-10
9.428220755e-06
-8.213981912e-13
9.428221835e-06
6.0967282e-13
9.428219877e-06
1.322176916e-13
9.428221744e-06
2.782756826e-13
9.42822251e-06
-3.735340459e-14
9.428222761e-06
-9.778713243e-13
9.428224504e-06
-6.279357762e-13
9.42822845e-06
-8.685496261e-13
9.428232578e-06
-3.633699819e-12
9.428237651e-06
-5.956776484e-12
9.42825343e-06
-1.104103943e-11
9.428267874e-06
-1.775553651e-11
9.428316518e-06
-4.11255912e-11
9.42835946e-06
-3.918346613e-11
-1.229141289e-10
9.428235382e-06
-1.206333151e-12
3.151877043e-13
9.42823546e-06
-2.090571325e-13
3.051062821e-13
9.428235384e-06
2.07717682e-13
-1.270897162e-12
9.428238852e-06
2.355440512e-14
-6.790685326e-15
9.428238868e-06
-5.575968381e-13
-1.474656404e-13
9.42823806e-06
-4.065529582e-13
-1.407515394e-13
9.428239638e-06
-2.237910798e-12
-2.171297625e-12
9.428237827e-06
-2.060153101e-12
-3.371493711e-12
9.428241034e-06
-1.364250284e-12
-2.37212153e-12
9.428244443e-06
-4.328381428e-12
-4.330034908e-12
9.428250546e-06
-8.204637769e-12
-1.127021462e-11
9.428261567e-06
-1.400814615e-11
-1.553673125e-11
9.428302676e-06
-4.00719902e-11
-3.90812788e-11
-3.462780626e-11
-3.596617643e-11
9.428264176e-06
5.380184898e-13
4.221310801e-13
9.428263566e-06
7.344163307e-13
2.049641512e-13
9.428261899e-06
7.629391483e-13
-7.334873839e-13
9.428263683e-06
-4.7792915e-13
9.896911393e-13
9.42826268e-06
-1.645165884e-12
1.336547155e-12
9.428263408e-06
-6.905598793e-13
4.263925858e-13
9.428263132e-06
-2.031731512e-12
-5.095479324e-13
9.428263125e-06
-3.746464652e-12
-2.554864965e-12
9.428265034e-06
-6.963907315e-12
-2.969024328e-12
9.428266106e-06
-1.013440566e-11
-5.019895596e-12
9.428266209e-06
-1.539849336e-11
-1.191018286e-11
9.428276215e-06
-2.800498138e-11
-1.704110078e-11
9.428301851e-06
-7.191117868e-11
-4.788565186e-11
-7.540271551e-11
-4.423040528e-11
9.428252434e-06
1.005215151e-12
-1.483710778e-13
9.428251427e-06
1.92635923e-13
-7.966654976e-13
9.428251646e-06
7.223189971e-13
-3.385941344e-14
9.428255653e-06
1.418147341e-12
5.483988924e-13
9.428254025e-06
6.902768209e-13
2.96315812e-13
9.428252817e-06
3.174960821e-13
-1.0134255e-12
9.428252924e-06
1.307191993e-13
-8.04720236e-13
9.428251216e-06
-7.488979665e-13
-1.914622461e-12
9.428250594e-06
-9.962372744e-13
-1.327032986e-12
9.428250192e-06
-5.360637648e-12
-3.644702071e-12
9.428238399e-06
-9.897296287e-12
-7.901899507e-12
9.428233973e-06
-2.251618571e-11
-2.138797307e-11
9.428220001e-06
-6.296447903e-11
-6.334729248e-11
9.428235242e-06
-8.217031538e-11
-8.127634142e-11
-7.595979263e-10
9.428244563e-06
-1.623963439e-12
-5.063794208e-13
9.428243778e-06
-6.062938148e-13
-1.33708923e-12
9.428243189e-06
3.782304398e-13
1.066141704e-12
9.428243918e-06
-3.889004547e-13
3.840303841e-13
9.428242223e-06
-3.759693502e-13
-5.581057751e-13
9.428241627e-06
-1.406089611e-12
-1.309065771e-12
9.428240194e-06
-2.48630963e-12
-1.203442161e-12
9.428238674e-06
-1.508235778e-12
-9.421409702e-13
9.428236548e-06
-1.478902133e-12
1.356701282e-13
9.428232296e-06
-4.821654089e-12
-3.846341414e-12
9.428225117e-06
-9.374331565e-12
4.857633001e-12
9.428221882e-06
-2.4766565e-11
-2.079335982e-11
9.428193832e-06
-8.347201587e-11
-4.523775796e-12
9.428272184e-06
-1.329470477e-10
-1.164363361e-10
-8.008137358e-10
-1.469847235e-09
9.428225323e-06
-7.044836728e-13
1.117365512e-12
9.428224516e-06
5.122058572e-13
-6.099966101e-13
9.428223417e-06
-4.54207333e-13
-7.974971953e-13
9.428222762e-06
-1.457695372e-13
1.358712236e-12
9.428222257e-06
-4.602520832e-13
-1.258641545e-14
9.428220113e-06
-8.860702263e-13
1.923046921e-13
9.428220666e-06
6.326254401e-13
1.08264169e-12
9.428217984e-06
1.329280782e-12
-7.799130265e-13
9.428210954e-06
2.313032227e-12
-2.04555797e-13
9.428199197e-06
5.81220827e-12
-3.824559773e-12
9.428164993e-06
1.060588113e-11
7.595895912e-12
9.428101117e-06
2.544000204e-11
-2.673807079e-11
9.427877605e-06
8.193395439e-11
-3.879500734e-11
9.42767413e-06
1.307889443e-10
-2.828307973e-10
7.988661712e-10
-5.641001041e-09
9.428264469e-06
1.215150174e-12
1.447626466e-13
9.428261903e-06
6.547869191e-13
-1.528788558e-12
9.42826212e-06
1.016085476e-12
2.376537723e-13
9.428261913e-06
9.285816045e-13
5.619114772e-13
9.428263084e-06
-3.435442523e-14
-8.919604662e-14
9.42826327e-06
4.740072838e-13
-4.007743708e-13
9.428263126e-06
5.15364992e-13
-2.888573074e-13
9.428260944e-06
1.023543047e-12
-1.597896843e-12
9.428258482e-06
7.108084499e-13
-1.544686731e-12
9.428257357e-06
5.846134617e-12
-5.256843901e-12
9.428247467e-06
8.352785304e-12
4.540555314e-12
9.428243056e-06
2.214925135e-11
-2.069644859e-11
9.428214852e-06
6.16422818e-11
-3.337657541e-12
9.428291681e-06
8.000386815e-11
-1.161895486e-10
7.574167878e-10
-1.471097304e-09
9.428229978e-06
3.332246937e-13
-3.692787404e-13
9.428231444e-06
1.543579449e-12
-1.096482948e-12
9.428229742e-06
-1.493789731e-12
-4.170890835e-13
9.428228811e-06
6.15497369e-13
-7.772401267e-14
9.428230304e-06
7.367422982e-13
1.374696895e-12
9.428230428e-06
1.326266059e-12
1.522674153e-12
9.428230997e-06
1.761681335e-12
5.599134918e-13
9.428227691e-06
2.585561943e-12
-6.881047196e-13
9.428227151e-06
6.082430884e-12
-1.12993511e-13
9.428222478e-06
8.183079652e-12
-5.183766611e-12
9.428212545e-06
1.405337059e-11
-8.874023731e-12
9.428204223e-06
2.503465429e-11
-2.329131005e-11
9.428193566e-06
7.022041995e-11
-6.203962646e-11
9.428207309e-06
7.310752263e-11
-7.978276428e-11
4.53792137e-10
-7.585745274e-10
9.428241367e-06
-8.86564612e-13
4.8142467e-13
9.428237176e-06
-2.775256296e-12
-9.637179029e-13
9.428240405e-06
-7.271663469e-13
1.874076474e-13
9.428238692e-06
-2.211756397e-12
-6.646791912e-13
9.428239691e-06
-5.343589773e-13
1.876061121e-13
9.428241254e-06
-2.421935248e-15
2.040950247e-12
9.428242074e-06
1.187571137e-12
1.462152018e-13
9.428241541e-06
2.636290111e-12
-2.08788307e-12
9.428242694e-06
2.807406011e-12
-2.877792336e-12
9.42824317e-06
3.926645274e-12
-7.282448326e-12
9.428243647e-06
9.275316212e-12
-1.14039247e-11
9.428252286e-06
1.497561873e-11
-1.689620749e-11
9.428279113e-06
4.193448186e-11
-4.705927033e-11
9.428314708e-06
3.701844315e-11
-4.3397208e-11
2.027672448e-10
-2.784331931e-10
9.428270049e-06
4.453202177e-13
9.42826917e-06
-5.14863648e-13
9.428269079e-06
7.136836372e-14
9.428267735e-06
8.443028647e-13
9.428267909e-06
1.370716925e-12
9.428269317e-06
1.561943931e-12
9.42827016e-06
1.619989578e-13
9.428269962e-06
-7.600764861e-13
9.428272469e-06
-2.777053626e-12
9.42827692e-06
-5.230482017e-12
9.428282613e-06
-1.193377938e-11
9.428292528e-06
-1.497223504e-11
9.428331399e-06
-4.025668539e-11
9.428365477e-06
-3.773805615e-11
-1.488712092e-10
9.428258727e-06
-4.826545171e-13
-1.229651757e-13
9.428258496e-06
-5.36709412e-13
5.782575691e-14
9.428259119e-06
2.425502078e-13
2.237303641e-12
9.42825878e-06
8.801441122e-13
7.186581638e-13
9.428259462e-06
1.668542393e-12
1.042678529e-12
9.428259077e-06
4.191313802e-13
3.150295052e-13
9.428259255e-06
-3.506087621e-13
-7.551027974e-13
9.428261244e-06
-1.368342557e-12
-2.039583566e-12
9.428260905e-06
-2.842328831e-12
-3.807385343e-12
9.42826297e-06
-4.919654202e-12
-4.670030288e-12
9.428267292e-06
-7.462213519e-12
-7.921262675e-12
9.428279129e-06
-1.551866144e-11
-1.408688196e-11
9.428309935e-06
-3.781758061e-11
-3.510747334e-11
-3.623748897e-11
-3.868732651e-11
9.428258971e-06
8.268532916e-14
1.81916871e-12
9.42825595e-06
-6.114033792e-13
8.016857872e-13
9.428258047e-06
1.364778284e-12
6.560936252e-13
9.428258851e-06
-3.764104342e-13
1.796703329e-13
9.428256419e-06
-1.376907533e-12
-7.408380715e-13
9.428256569e-06
-1.727385156e-12
-2.35158244e-13
9.428256572e-06
-1.302056282e-12
-3.623744814e-13
9.428256083e-06
-3.520569002e-12
-1.745873446e-12
9.428256564e-06
-3.359373295e-12
-2.143552595e-12
9.42825719e-06
-9.077439872e-12
-3.658084227e-12
9.428260345e-06
-7.030255111e-12
-8.435059619e-12
9.428272219e-06
-2.764838432e-11
-1.695815064e-11
9.428284301e-06
-5.114294991e-11
-4.95993205e-11
-8.939163248e-11
-6.129353199e-11
9.428265945e-06
6.442391808e-13
1.287380196e-12
9.428266057e-06
5.994844444e-13
2.051752191e-12
9.428265167e-06
1.711156738e-12
8.632113506e-13
9.428265746e-06
1.950559325e-12
5.195291702e-13
9.428266238e-06
5.731486505e-13
2.888711488e-13
9.42826531e-06
3.517925707e-13
8.424752601e-13
9.428262786e-06
-3.508285923e-13
5.937231888e-13
9.428261591e-06
3.3633099e-13
-4.843961446e-13
9.428259395e-06
9.963539746e-15
-1.15446468e-12
9.428255241e-06
-4.668993511e-12
-4.290236015e-12
9.428247215e-06
3.927254545e-12
-9.270093191e-12
9.428244109e-06
-2.059040636e-11
-2.41711299e-11
9.428215678e-06
-3.264260619e-12
-8.005640093e-11
-1.16386006e-10
-1.306655277e-10
9.428243256e-06
2.564227352e-13
-6.178613568e-14
9.428242904e-06
-5.295206156e-13
8.018948645e-13
9.428240766e-06
-1.317516646e-12
-6.30011099e-13
9.428239832e-06
5.827518986e-13
6.793132509e-13
9.428241968e-06
1.291519022e-13
9.976568447e-13
9.428241841e-06
1.747785374e-12
-1.954608399e-13
9.428240273e-06
-2.543827497e-13
7.489279575e-13
9.428237092e-06
-1.042618708e-12
-7.272122418e-13
9.428242448e-06
-1.503808543e-12
-4.221410363e-15
9.428242484e-06
-4.355005918e-12
-3.235140293e-12
9.42826222e-06
-4.432222319e-12
-3.002524541e-12
9.428279181e-06
-2.928204162e-11
-2.784754618e-11
9.428404231e-06
-6.406530719e-11
-6.296281263e-11
9.428731572e-06
-2.839611073e-10
-2.803842535e-10
-1.577269804e-09
9.428237704e-06
-1.063063428e-12
-6.884214583e-13
9.428239756e-06
-8.44148791e-13
2.520292344e-13
9.428239928e-06
5.158897306e-13
1.507020646e-13
9.428235575e-06
-9.186620448e-13
-6.529195484e-13
9.428238273e-06
-6.860790198e-13
-2.272268214e-13
9.428233927e-06
-1.264196258e-12
-1.255599318e-12
9.428234244e-06
-1.369897772e-12
-2.737467849e-13
9.428229113e-06
1.325073815e-14
-2.586895712e-12
9.428228289e-06
1.880784509e-12
-1.842789402e-12
9.428218459e-06
4.924789828e-12
-2.809685598e-12
9.428220542e-06
4.906483241e-12
-1.581372878e-12
9.428154552e-06
2.859654776e-11
-1.965463384e-11
9.428061141e-06
6.306647818e-11
-7.326498838e-11
9.427623019e-06
2.806544077e-10
-4.017060427e-10
1.5729898e-09
-1.0698303e-08
9.428253867e-06
4.475908114e-13
-3.070332145e-13
9.428256166e-06
3.510452421e-13
-2.970026039e-13
9.428254725e-06
2.863778975e-13
5.106544097e-13
9.428253236e-06
-1.493811272e-13
1.537772876e-13
9.42825361e-06
9.698393906e-13
-3.715916706e-13
9.428253944e-06
1.260404061e-12
6.169916068e-14
9.428254988e-06
1.270918409e-12
3.774792621e-14
9.428252332e-06
2.28040416e-12
-9.71470836e-13
9.428254745e-06
1.601186493e-12
-1.952274423e-12
9.428254472e-06
4.886044601e-12
-4.775050511e-12
9.428270539e-06
-5.21585502e-12
-5.20109659e-12
9.428287452e-06
2.061063066e-11
-2.919285077e-11
9.428409554e-06
2.648801671e-12
-6.290810205e-11
9.428736224e-06
1.157520188e-10
-2.807795669e-10
1.470351792e-09
-1.574351516e-09
9.428252811e-06
8.92384647e-13
-5.221435707e-13
9.428255147e-06
2.323652097e-12
6.310744861e-13
9.428252088e-06
3.89916215e-13
-4.168094115e-15
9.42825314e-06
1.019939341e-12
-8.703891709e-13
9.428251078e-06
-1.356355773e-13
-1.402563866e-12
9.428249722e-06
8.311808673e-13
-1.520382419e-12
9.428249458e-06
1.168107483e-12
-1.126326118e-12
9.428248051e-06
2.116902677e-12
-1.716211082e-12
9.428245655e-06
2.195254687e-12
-2.318503866e-12
9.428244045e-06
5.945042825e-12
-3.300516773e-12
9.428236479e-06
6.918556082e-12
-9.077064065e-12
9.428231857e-06
2.589944009e-11
-2.529759345e-11
9.428204509e-06
4.761854175e-11
-8.145758866e-11
9.428282305e-06
8.562201873e-11
-1.325998533e-10
7.411968197e-10
-7.982514188e-10
9.428219099e-06
-9.115817983e-13
-5.488466271e-13
9.428216904e-06
-1.048889377e-12
-1.082025805e-12
9.42821818e-06
-3.451230582e-13
-2.300736967e-12
9.428216114e-06
-1.216354642e-12
-1.635543766e-12
9.428217168e-06
-3.482544329e-13
-1.181217574e-12
9.428214755e-06
-5.284584947e-13
4.848613215e-13
9.428215045e-06
1.230937974e-12
6.85614545e-14
9.428216547e-06
2.859149243e-12
-5.994055075e-13
9.428213688e-06
2.452182351e-12
-1.318870991e-12
9.428217393e-06
5.459663235e-12
-2.186470029e-12
9.428216637e-06
7.387841962e-12
-8.432488346e-12
9.428227334e-06
1.545695917e-11
-1.613841011e-11
9.428238039e-06
3.800591825e-11
-4.749513754e-11
9.428309282e-06
3.569371795e-11
-6.009005628e-11
3.105927549e-10
-2.7225268e-10
9.42824311e-06
8.096940531e-13
9.428242201e-06
1.362111303e-12
9.428242819e-06
-6.550905759e-13
9.428242613e-06
-2.640709408e-13
9.428243176e-06
1.088618844e-12
9.428243422e-06
3.257583063e-13
9.428244635e-06
8.105486865e-13
9.4282422e-06
-9.816778277e-13
9.428242633e-06
-2.239186874e-12
9.42824664e-06
-3.985713612e-12
9.428251421e-06
-8.729289819e-12
9.428259822e-06
-1.306957211e-11
9.428292577e-06
-3.419145733e-11
9.428333228e-06
-3.787297995e-11
-1.337059541e-10
9.428243055e-06
2.010279239e-12
2.393941777e-13
9.428243617e-06
1.390385187e-12
-6.021613722e-13
9.428242277e-06
-9.178689232e-13
-4.134917136e-13
9.428245208e-06
6.515400046e-13
5.741936414e-13
9.428244664e-06
1.007322034e-13
-9.432712722e-13
9.428243207e-06
2.05997036e-13
-1.10441001e-12
9.428241795e-06
2.61635791e-13
2.886207681e-13
9.428241531e-06
-6.22089992e-13
7.645829053e-13
9.428240304e-06
-1.712977803e-12
2.005899121e-12
9.428237117e-06
-5.690022546e-12
3.046351554e-12
9.428230497e-06
-9.493304974e-12
8.092937015e-12
9.428228862e-06
-2.085259671e-11
1.201242194e-11
9.428231017e-06
-7.01503841e-11
3.193921343e-11
-8.650016833e-11
3.778867019e-11
9.428252099e-06
-7.541032688e-13
-2.111178755e-13
9.428251481e-06
6.969605806e-13
-1.94262774e-12
9.428251776e-06
1.204453866e-12
-1.311886404e-14
9.428251299e-06
6.377441269e-13
1.213932746e-13
9.428251561e-06
-6.830798119e-13
-5.767452265e-13
9.428250381e-06
-5.336683741e-13
-8.00530919e-13
9.428250167e-06
2.769754467e-13
5.563759647e-13
9.42824945e-06
-1.538022789e-12
1.607212364e-12
9.428247062e-06
-2.677239963e-12
2.74320896e-12
9.428239033e-06
-9.573831442e-12
3.989001617e-12
9.428225516e-06
-9.366499188e-12
8.778914286e-12
9.428210656e-06
-4.047571679e-11
1.534822154e-11
9.428143319e-06
-1.025112027e-10
4.682690663e-11
-2.172238365e-10
6.017013715e-11
9.428221595e-06
-1.247138065e-12
2.65329558e-13
9.428220513e-06
-4.652325587e-13
7.93956984e-13
9.428219915e-06
7.931966875e-13
5.54531542e-13
9.428220266e-06
1.369193324e-12
-9.939631829e-14
9.428220655e-06
8.457196045e-13
-2.168625899e-13
9.428218472e-06
-5.592684535e-13
1.029548738e-12
9.428216168e-06
-7.58961307e-13
-3.706387244e-13
9.428216576e-06
1.717168497e-13
-9.956284818e-13
9.428211266e-06
2.837048427e-13
1.508835568e-12
9.42819964e-06
-3.638814812e-12
4.484818775e-12
9.428166015e-06
9.192460588e-12
9.72330695e-12
9.428103732e-06
-2.587197929e-11
2.48834515e-11
9.427877355e-06
-3.986743283e-11
7.907711595e-11
-2.835587762e-10
1.302493586e-10
9.428244452e-06
-5.957616056e-13
-5.731257652e-13
9.428245777e-06
-9.36980203e-13
-1.041802681e-12
9.428246248e-06
-6.205621185e-13
-8.578635782e-13
9.428244275e-06
-1.259470448e-12
-1.727856124e-12
9.428245031e-06
-8.337396588e-13
-1.611126865e-12
9.428246086e-06
5.504240146e-13
1.542016375e-13
9.428244182e-06
-6.828787347e-13
-3.922412294e-13
9.428240875e-06
-1.943838165e-12
-1.333560542e-12
9.428241288e-06
-2.374782982e-12
2.512759018e-13
9.428232695e-06
-4.204213013e-12
3.813978394e-12
9.428235485e-06
-3.238988463e-12
3.749144123e-12
9.42817094e-06
-2.160213153e-11
2.893678936e-11
9.428080034e-06
-7.371771626e-11
6.300021493e-11
-4.043539497e-10
2.814805292e-10
9.428224611e-06
-1.408095707e-12
-5.141924157e-14
9.428226124e-06
-1.034081691e-12
-1.179021894e-12
9.428224739e-06
1.13876291e-12
-6.605783019e-13
9.428222201e-06
-3.453612758e-13
-6.157180198e-13
9.428220592e-06
-4.333989067e-13
-3.990826116e-13
9.428219101e-06
-8.452001193e-13
-9.851598362e-13
9.428217025e-06
-1.887981589e-12
-7.008361998e-14
9.428212513e-06
5.307191038e-13
-1.933112639e-13
9.428211475e-06
1.177473981e-12
1.807959105e-12
9.428195004e-06
2.799401861e-12
3.949953292e-12
9.428191084e-06
1.798255441e-12
2.717262878e-12
9.428108581e-06
2.030796625e-11
2.052846645e-11
9.427815242e-06
7.4110115e-11
7.419562341e-11
9.426207046e-06
4.017844043e-10
4.034137081e-10
1.069746748e-08
9.428213521e-06
7.003070042e-14
-1.272532698e-14
9.428214306e-06
1.028192163e-12
-6.735064094e-13
9.428211954e-06
-7.96688123e-13
-1.956525854e-12
9.428211511e-06
-1.179097541e-12
-1.732283849e-13
9.428211712e-06
-2.790846418e-13
-6.734687373e-13
9.428209687e-06
8.780717517e-13
-1.174777942e-12
9.42821083e-06
3.280845228e-13
7.825623016e-13
9.428206324e-06
7.999887916e-13
1.063167711e-12
9.428206865e-06
9.707235003e-13
1.510764373e-12
9.428199847e-06
6.120301871e-12
5.824166434e-12
9.428199112e-06
-7.535916933e-12
5.144178415e-12
9.428134699e-06
2.532662178e-11
2.89743037e-11
9.428041443e-06
3.688912879e-11
6.431037957e-11
9.427603873e-06
2.807514296e-10
2.81593461e-10
5.642006056e-09
9.428250192e-06
8.583413532e-13
-3.917594921e-13
9.428249287e-06
5.540051547e-13
-3.265880709e-13
9.428248335e-06
-1.050247832e-12
4.08844378e-13
9.428248831e-06
1.506299198e-13
7.162231582e-13
9.428247888e-06
5.19824777e-13
1.052937521e-12
9.428244959e-06
2.084070825e-12
-3.939548317e-13
9.428245262e-06
1.118797016e-12
-2.678417787e-13
9.428242338e-06
3.212099314e-12
9.189126006e-13
9.428237097e-06
3.48937011e-12
2.671899121e-12
9.428223488e-06
8.02306199e-12
4.960926356e-12
9.428187948e-06
8.105134002e-12
1.133578247e-11
9.428127055e-06
4.142034171e-11