/*--------------------------------*- C++ -*----------------------------------*\
| =========                 |                                                 |
| \\      /  F ield         | OpenFOAM: The Open Source CFD Toolbox           |
|  \\    /   O peration     | Version:  4.x                                   |
|   \\  /    A nd           | Web:      www.OpenFOAM.org                      |
|    \\/     M anipulation  |                                                 |
\*---------------------------------------------------------------------------*/
FoamFile
{
    version     2.0;
    format      ascii;
    class       volScalarField;
    location    "3000";
    object      rho;
}
// * * * * * * * * * * * * * * * * * * * * * * * * * * * * * * * * * * * * * //

dimensions      [1 -3 0 0 0 0 0];

internalField   nonuniform List<scalar> 
1175
(
0.2777046769
0.2777046398
0.2777046453
0.2777046494
0.2777046581
0.2777046448
0.2777046333
0.2777046535
0.2777046284
0.2777045997
0.2777045931
0.2777046276
0.2777046882
0.2777047798
0.2777049592
0.2777045396
0.2777045536
0.277704533
0.2777045392
0.2777045222
0.2777045005
0.2777045256
0.2777045604
0.2777045655
0.2777046021
0.2777045852
0.277704579
0.2777046242
0.2777048333
0.2777051565
0.2777052282
0.2777052556
0.2777052619
0.2777052645
0.2777052904
0.2777053056
0.2777053221
0.2777053171
0.2777053309
0.277705337
0.2777053362
0.2777054084
0.2777055347
0.2777058785
0.2777064626
0.2777041686
0.2777041676
0.2777041664
0.2777041742
0.2777041732
0.2777041771
0.2777041741
0.2777041858
0.2777042073
0.2777042305
0.2777042914
0.2777043722
0.2777046148
0.2777051358
0.277706177
0.2777046915
0.2777046864
0.2777046716
0.2777047041
0.2777047407
0.2777047693
0.2777047555
0.2777047644
0.2777047428
0.2777047747
0.2777047985
0.2777049235
0.2777051676
0.2777059022
0.2777073268
0.2777054552
0.2777054147
0.2777054237
0.2777054475
0.277705487
0.2777055213
0.2777054905
0.2777055149
0.277705534
0.2777055582
0.2777055479
0.2777056318
0.2777058597
0.2777064114
0.2777074389
0.2777052214
0.2777052456
0.2777052785
0.2777052722
0.2777052495
0.2777052194
0.2777052474
0.2777051994
0.277705187
0.2777051902
0.277705203
0.277705262
0.2777053936
0.2777056892
0.2777063045
0.2777041443
0.2777041512
0.2777041628
0.2777041661
0.2777041467
0.2777041431
0.2777041374
0.2777041646
0.2777041298
0.2777041398
0.2777041282
0.2777041965
0.2777042769
0.2777044306
0.277704758
0.2777046622
0.2777046474
0.2777046374
0.2777046294
0.2777046319
0.2777046553
0.2777046414
0.2777046402
0.2777046736
0.2777046658
0.2777046613
0.2777046906
0.2777047381
0.277704869
0.2777050079
0.2777043532
0.2777043776
0.2777043876
0.2777043893
0.2777043848
0.2777044308
0.2777043936
0.277704399
0.2777044032
0.2777043941
0.2777044079
0.2777044418
0.277704484
0.2777046299
0.2777045184
0.2777045432
0.2777045675
0.2777045555
0.2777045945
0.2777045691
0.2777045888
0.2777045884
0.2777046144
0.2777046535
0.2777046554
0.2777047366
0.2777048962
0.2777052073
0.2777058395
0.2777045366
0.277704529
0.2777044846
0.2777045053
0.2777045496
0.2777045626
0.2777045882
0.2777046111
0.2777045813
0.2777045925
0.2777046327
0.2777047486
0.2777049932
0.2777057067
0.2777071361
0.2777043077
0.2777043504
0.2777042946
0.277704307
0.2777043071
0.2777043297
0.2777043536
0.2777043809
0.2777043987
0.2777044183
0.2777045355
0.2777047691
0.2777053245
0.277706786
0.2777097449
0.277704328
0.2777043675
0.2777043248
0.2777043047
0.2777043047
0.2777043048
0.2777043139
0.2777043017
0.2777042987
0.2777043691
0.2777044227
0.2777046745
0.2777054713
0.2777077039
0.2777123974
0.2777047773
0.2777047913
0.277704775
0.2777047871
0.2777047517
0.2777047558
0.2777047675
0.2777047751
0.277704795
0.2777048339
0.277704909
0.2777050637
0.2777056046
0.2777070209
0.2777100481
0.2777037792
0.2777038234
0.2777038611
0.2777038673
0.2777038859
0.2777039145
0.2777039183
0.2777039067
0.2777038773
0.2777039119
0.2777039214
0.2777040316
0.277704288
0.2777049888
0.2777064461
0.2777054962
0.2777054721
0.2777054352
0.2777054485
0.2777053907
0.2777054508
0.2777054309
0.2777054402
0.2777054459
0.2777054722
0.2777054557
0.2777055046
0.2777056478
0.2777059731
0.2777066122
0.2777039572
0.2777039379
0.2777039423
0.2777039359
0.2777039618
0.2777039814
0.2777039791
0.2777039931
0.2777039812
0.2777039985
0.2777040722
0.2777040867
0.277704153
0.2777042836
0.277704609
0.2777044144
0.2777044246
0.2777044168
0.2777044623
0.2777044853
0.2777044839
0.277704457
0.2777044166
0.2777044262
0.2777044453
0.2777044213
0.2777044991
0.2777046198
0.2777049394
0.2777052077
0.2777052265
0.2777052448
0.2777052052
0.2777052006
0.2777052097
0.2777052202
0.2777052332
0.2777052301
0.2777052549
0.2777052512
0.2777054101
0.2777056766
0.2777063739
0.2777048559
0.277704862
0.2777048565
0.2777048843
0.2777049092
0.2777049416
0.2777049278
0.2777049512
0.2777049901
0.2777050208
0.2777050734
0.2777053048
0.2777060519
0.2777080021
0.2777119846
0.2777046788
0.2777046333
0.2777046352
0.2777045679
0.2777045925
0.2777045933
0.2777046506
0.2777046434
0.2777046367
0.277704636
0.2777047637
0.2777052751
0.2777069304
0.277711786
0.2777224401
0.277704068
0.2777040041
0.2777039644
0.2777039783
0.2777040371
0.2777040438
0.2777040094
0.2777040124
0.2777040556
0.2777040761
0.2777042341
0.2777049505
0.2777076275
0.2777166074
0.2777388664
0.2777051864
0.2777051662
0.2777051576
0.2777051826
0.2777051896
0.2777051747
0.2777052269
0.2777052716
0.2777052698
0.2777052959
0.2777054286
0.277705885
0.2777075198
0.277712398
0.2777230087
0.277704211
0.277704231
0.2777042216
0.2777042056
0.2777042297
0.2777042427
0.2777042417
0.277704247
0.2777042472
0.277704287
0.277704342
0.2777045933
0.2777053245
0.2777072584
0.2777113145
0.2777045119
0.2777045395
0.277704532
0.277704533
0.2777045274
0.2777045372
0.2777045403
0.2777045493
0.277704565
0.2777045726
0.2777045939
0.2777046843
0.2777049915
0.2777056775
0.2777071195
0.2777053612
0.277705343
0.2777053451
0.2777053392
0.277705356
0.2777053283
0.2777053356
0.2777053464
0.2777053463
0.2777053875
0.2777054222
0.2777054577
0.2777055291
0.2777058355
0.2777064373
0.277705068
0.2777051068
0.2777050606
0.2777050692
0.2777050422
0.2777050739
0.2777050597
0.2777050634
0.2777050853
0.2777051182
0.2777051204
0.2777052131
0.2777054238
0.2777059398
0.2777050848
0.2777050462
0.2777050393
0.2777050561
0.2777050494
0.2777050246
0.2777050355
0.2777050282
0.2777050533
0.2777050551
0.2777051249
0.2777053366
0.2777059352
0.277707405
0.2777052852
0.2777052758
0.2777052989
0.277705274
0.2777052826
0.2777052793
0.2777053075
0.2777053122
0.2777053142
0.2777053253
0.2777054261
0.2777058645
0.2777075119
0.2777123451
0.27770462
0.2777045594
0.2777045906
0.2777045929
0.2777045524
0.2777045803
0.2777046449
0.2777045981
0.2777046649
0.27770474
0.2777050151
0.2777061696
0.2777106676
0.2777261173
0.2777655507
0.2777044711
0.2777044606
0.277704435
0.2777044513
0.2777044444
0.2777044429
0.2777044378
0.2777044306
0.277704431
0.2777045169
0.2777049208
0.2777067807
0.2777155094
0.2777535554
0.2778876788
0.2777048936
0.2777049349
0.2777049603
0.2777049474
0.277704958
0.2777049718
0.2777049622
0.27770501
0.2777050015
0.2777050439
0.2777053223
0.2777064792
0.2777109222
0.2777263234
0.2777657285
0.2777049365
0.2777049199
0.2777049393
0.2777049091
0.2777049235
0.2777049154
0.2777048698
0.2777048682
0.2777048613
0.2777049079
0.2777050666
0.2777055965
0.2777072952
0.2777121512
0.2777227883
0.2777039121
0.2777039211
0.277703881
0.2777038742
0.277703849
0.2777038528
0.2777038431
0.2777038346
0.2777038187
0.2777038689
0.2777038985
0.2777040869
0.2777046737
0.2777061183
0.2777090996
0.277704559
0.2777045564
0.2777045803
0.2777045792
0.2777046226
0.2777046311
0.2777046197
0.2777046171
0.2777046133
0.2777046025
0.2777046393
0.2777047256
0.2777049217
0.2777054723
0.2777065527
0.2777046349
0.2777046118
0.2777046162
0.277704626
0.2777046353
0.2777046184
0.2777045722
0.2777045567
0.2777046002
0.2777046158
0.2777046332
0.2777047221
0.2777050328
0.277705752
0.2777048993
0.2777048722
0.2777048739
0.2777048867
0.2777049047
0.2777048775
0.277704902
0.2777048776
0.2777048999
0.2777049304
0.2777049737
0.277705208
0.2777060384
0.2777082235
0.2777039509
0.2777039611
0.2777039587
0.2777039417
0.2777039964
0.2777040068
0.2777040024
0.2777040157
0.2777040616
0.2777041134
0.277704317
0.2777050271
0.277707694
0.2777166696
0.277704687
0.2777047004
0.2777047135
0.2777047541
0.2777047588
0.2777047576
0.2777047644
0.2777047483
0.2777047847
0.2777048752
0.277705294
0.2777071969
0.2777159975
0.2777540919
0.2777040723
0.277704051
0.2777040459
0.2777040081
0.2777039987
0.2777039564
0.277703983
0.2777039475
0.277703986
0.2777041574
0.2777047973
0.2777084108
0.2777302933
0.2778722879
0.2809164426
0.277703699
0.2777036751
0.2777036917
0.2777037314
0.2777037233
0.2777037316
0.2777037096
0.2777037403
0.2777037413
0.2777038418
0.2777042835
0.2777061815
0.2777149464
0.2777529919
0.2778871621
0.2777047765
0.2777047849
0.2777048014
0.2777047818
0.2777047628
0.2777047695
0.2777047719
0.2777047627
0.2777047991
0.2777048292
0.2777049847
0.2777057231
0.2777084337
0.2777173819
0.2777396307
0.2777049049
0.2777049068
0.2777048988
0.2777049141
0.2777049199
0.2777049303
0.2777049046
0.2777048799
0.2777049106
0.2777049142
0.2777049926
0.2777052208
0.2777060188
0.2777082433
0.2777129771
0.2777053905
0.2777054189
0.2777054278
0.2777054252
0.2777054622
0.2777054436
0.2777054793
0.2777054771
0.2777054731
0.2777054858
0.2777055323
0.2777056226
0.2777059329
0.2777066588
0.277708035
0.2777056488
0.2777056266
0.277705638
0.2777056083
0.2777056199
0.2777056375
0.2777056545
0.2777056581
0.27770564
0.2777056376
0.2777056835
0.2777057872
0.2777059888
0.2777065306
0.2777049639
0.277704899
0.2777049165
0.2777049023
0.2777049045
0.2777049208
0.2777048883
0.2777048814
0.2777048686
0.2777048888
0.2777049643
0.2777051196
0.2777056885
0.2777071982
0.2777042811
0.2777042909
0.2777042923
0.2777042844
0.2777042679
0.2777042726
0.277704252
0.277704264
0.2777042443
0.2777043036
0.2777043852
0.2777048514
0.2777065196
0.2777114024
0.2777047166
0.2777047138
0.2777047515
0.2777047735
0.2777048227
0.2777048086
0.2777047732
0.2777047507
0.2777047423
0.2777048049
0.2777050823
0.2777062101
0.2777106724
0.2777260995
0.2777037787
0.2777037513
0.2777037689
0.2777037407
0.2777037337
0.2777037453
0.2777037404
0.2777037818
0.2777037892
0.2777038515
0.2777042107
0.2777061029
0.2777148982
0.2777529298
0.2777051628
0.2777051711
0.2777051441
0.277705176
0.2777051746
0.2777051635
0.277705197
0.2777052041
0.27770523
0.2777052965
0.2777055845
0.2777067107
0.2777111923
0.2777266243
0.2777052041
0.2777052294
0.2777052394
0.2777052136
0.2777052356
0.2777052704
0.277705266
0.2777053047
0.2777053064
0.2777053508
0.2777054683
0.2777059429
0.2777075505
0.2777124165
0.2777230784
0.2777057858
0.2777057452
0.2777057182
0.2777057229
0.2777057516
0.2777057465
0.2777057317
0.2777057284
0.2777057449
0.2777057751
0.2777057809
0.2777059551
0.2777065297
0.2777079964
0.2777110107
0.2777045237
0.2777045561
0.2777045753
0.2777045793
0.2777045478
0.2777045442
0.277704529
0.2777045702
0.277704578
0.2777045655
0.2777045843
0.277704699
0.2777049236
0.277705463
0.2777065465
0.2777041899
0.2777041999
0.2777042047
0.2777042139
0.2777041986
0.2777042373
0.2777041779
0.2777041981
0.2777042209
0.2777042229
0.2777042611
0.2777043212
0.2777044502
0.2777047642
0.2777034703
0.2777034438
0.2777034853
0.2777034769
0.2777034719
0.2777034385
0.2777034118
0.2777034075
0.2777034249
0.2777033938
0.2777034119
0.2777034874
0.2777037462
0.277704487
0.277703543
0.2777035363
0.2777035549
0.2777035952
0.277703624
0.2777036499
0.2777036528
0.2777036475
0.2777036389
0.277703685
0.2777037745
0.2777040207
0.2777047512
0.2777066802
0.2777047985
0.2777048024
0.2777048281
0.2777047628
0.2777047138
0.2777047649
0.2777047076
0.2777046644
0.2777046372
0.2777047126
0.2777048139
0.2777052966
0.27770696
0.2777118463
0.2777053893
0.2777054143
0.2777054085
0.2777054595
0.2777054803
0.277705493
0.2777054681
0.2777054716
0.2777055428
0.2777055568
0.2777057302
0.2777064399
0.2777091563
0.277718171
0.2777054253
0.2777054287
0.2777053898
0.2777053977
0.2777054312
0.2777054155
0.2777054043
0.2777054074
0.2777053802
0.2777054401
0.2777055915
0.2777060874
0.2777077979
0.277712639
0.2777043373
0.2777043359
0.2777043262
0.2777043374
0.2777043187
0.2777043182
0.2777043266
0.2777043134
0.2777043579
0.2777043635
0.2777044613
0.2777046967
0.2777054125
0.2777073515
0.2777051805
0.2777052065
0.2777052067
0.2777052458
0.2777052066
0.2777052151
0.2777051939
0.2777052127
0.2777051933
0.2777052423
0.2777052285
0.2777053566
0.2777056664
0.2777063302
0.2777077479
0.2777046652
0.2777046889
0.2777046593
0.2777046759
0.2777046813
0.2777047043
0.2777047085
0.2777047109
0.2777047419
0.2777047211
0.2777047367
0.277704787
0.2777049161
0.2777052213
0.2777058324
0.27770431
0.2777043063
0.2777042866
0.2777042905
0.2777043035
0.2777042608
0.2777042289
0.2777042428
0.2777042235
0.2777042627
0.2777042521
0.2777042892
0.2777043697
0.277704547
0.2777051561
0.2777051624
0.2777051521
0.2777051123
0.2777051345
0.2777051514
0.2777051722
0.2777051343
0.2777051011
0.2777050769
0.2777051124
0.277705156
0.277705297
0.2777056382
0.2777048811
0.2777048525
0.2777048507
0.2777047881
0.2777047809
0.2777047785
0.2777047459
0.2777048116
0.2777048052
0.2777048175
0.2777048763
0.2777050114
0.2777052975
0.2777060391
0.277704933
0.2777049319
0.2777049432
0.2777049127
0.2777049448
0.2777049222
0.2777049228
0.2777049555
0.2777049656
0.2777049898
0.2777050124
0.2777051898
0.2777057416
0.2777071984
0.277704492
0.2777044901
0.2777045286
0.2777045193
0.2777045274
0.2777045461
0.2777045972
0.2777046023
0.2777045592
0.2777046001
0.2777046406
0.2777049232
0.2777056844
0.2777078611
0.2777043425
0.2777043058
0.2777043132
0.2777042818
0.2777042728
0.2777042515
0.277704237
0.2777042659
0.2777042685
0.2777042564
0.2777042836
0.2777044599
0.2777050362
0.2777064723
0.2777051882
0.2777051532
0.2777051838
0.2777052024
0.2777051849
0.2777051774
0.27770514
0.2777051504
0.2777051625
0.2777051798
0.2777052444
0.2777053238
0.2777056244
0.2777063299
0.2777045817
0.2777046068
0.277704585
0.2777045721
0.2777045752
0.2777045446
0.2777045411
0.2777045326
0.2777045416
0.2777045032
0.2777044834
0.2777045515
0.27770467
0.2777050061
0.277704432
0.2777044236
0.2777044065
0.2777043959
0.2777044216
0.2777044348
0.2777044636
0.2777044409
0.2777044476
0.2777044707
0.2777045111
0.2777045335
0.2777045919
0.2777047803
0.277705095
0.2777051008
0.2777050904
0.2777050964
0.2777051175
0.2777050889
0.2777050851
0.2777051118
0.2777050908
0.2777050892
0.2777050839
0.2777050849
0.2777051253
0.2777051735
0.2777052658
0.2777050695
0.2777050824
0.2777050851
0.2777050807
0.2777051058
0.2777051102
0.2777050891
0.2777050847
0.2777050968
0.277705073
0.2777050718
0.277705124
0.2777051592
0.2777053359
0.2777043228
0.2777043212
0.2777043364
0.277704347
0.277704362
0.2777043692
0.2777043568
0.277704342
0.27770432
0.2777042912
0.2777043249
0.2777043602
0.2777045035
0.2777047829
0.2777046518
0.2777046655
0.2777046683
0.277704654
0.2777046403
0.2777046257
0.2777046089
0.2777046042
0.2777046116
0.2777046492
0.2777046732
0.2777047591
0.2777049962
0.2777055322
0.2777046841
0.2777046856
0.2777047229
0.2777047312
0.2777047294
0.277704706
0.2777046881
0.2777046716
0.2777046881
0.2777046944
0.2777047657
0.2777048589
0.2777051627
0.2777058864
0.2777034962
0.277703484
0.2777034739
0.2777034481
0.2777034664
0.2777034881
0.2777034951
0.2777034706
0.2777035049
0.2777035404
0.277703594
0.277703702
0.2777039132
0.2777044847
0.2777046469
0.2777046145
0.2777046191
0.2777046058
0.277704601
0.2777046287
0.2777046547
0.2777046384
0.2777046415
0.2777046669
0.2777046929
0.2777047334
0.2777048468
0.2777051935
0.2777054438
0.2777054382
0.2777054501
0.2777054665
0.2777054585
0.2777054459
0.2777054429
0.2777054154
0.2777053947
0.277705407
0.27770539
0.2777054407
0.2777054854
0.2777056538
0.2777048142
0.2777048277
0.277704831
0.2777047977
0.2777047846
0.277704766
0.2777047866
0.2777047536
0.2777047659
0.2777047428
0.2777047474
0.2777047741
0.2777048325
0.2777049335
)
;

boundaryField
{
    top
    {
        type            calculated;
        value           nonuniform List<scalar> 
134
(
0.2777046622
0.2777039572
0.2777053612
0.277704559
0.2777053905
0.2777045237
0.2777046652
0.277704432
0.2777048142
0.2777046474
0.2777039379
0.277705343
0.2777045564
0.2777054189
0.2777045561
0.2777046889
0.2777044236
0.2777048277
0.2777046374
0.2777039423
0.2777053451
0.2777045803
0.2777054278
0.2777045753
0.2777046593
0.2777044065
0.277704831
0.2777046294
0.2777039359
0.2777053392
0.2777045792
0.2777054252
0.2777045793
0.2777046759
0.2777043959
0.2777047977
0.2777046319
0.2777039618
0.277705356
0.2777046226
0.2777054622
0.2777045478
0.2777046813
0.2777044216
0.2777047846
0.2777046553
0.2777039814
0.2777053283
0.2777046311
0.2777054436
0.2777045442
0.2777047043
0.2777044348
0.277704766
0.2777046414
0.2777039791
0.2777053356
0.2777046197
0.2777054793
0.277704529
0.2777047085
0.2777044636
0.2777047866
0.2777046402
0.2777039931
0.2777053464
0.2777046171
0.2777054771
0.2777045702
0.2777047109
0.2777044409
0.2777047536
0.2777046736
0.2777039812
0.2777053463
0.2777046133
0.2777054731
0.277704578
0.2777047419
0.2777044476
0.2777047659
0.2777046658
0.2777039985
0.2777053875
0.2777046025
0.2777054858
0.2777045655
0.2777047211
0.2777044707
0.2777047428
0.2777046613
0.2777040722
0.2777054222
0.2777046393
0.2777055323
0.2777045843
0.2777047367
0.2777045111
0.2777047474
0.2777046906
0.2777040867
0.2777054577
0.2777047256
0.2777056226
0.277704699
0.277704787
0.2777045335
0.2777047741
0.2777047381
0.277704153
0.2777055291
0.2777049217
0.2777059329
0.2777049236
0.2777049161
0.2777045919
0.2777048325
0.277704869
0.2777042836
0.2777058355
0.2777054723
0.2777066588
0.277705463
0.2777052213
0.2777047803
0.2777049335
0.2777050079
0.277704609
0.2777064373
0.2777065527
0.277708035
0.2777065465
0.2777058324
0.277705095
)
;
    }
    bottom
    {
        type            calculated;
        value           nonuniform List<scalar> 
127
(
0.2777046769
0.2777043532
0.2777044144
0.277705068
0.2777046349
0.2777056488
0.2777041899
0.27770431
0.2777051008
0.2777046398
0.2777043776
0.2777044246
0.2777051068
0.2777046118
0.2777056266
0.2777041999
0.2777043063
0.2777050904
0.2777046453
0.2777043876
0.2777044168
0.2777050606
0.2777046162
0.277705638
0.2777042047
0.2777042866
0.2777050964
0.2777046494
0.2777043893
0.2777044623
0.2777050692
0.277704626
0.2777056083
0.2777042139
0.2777042905
0.2777051175
0.2777046581
0.2777043848
0.2777044853
0.2777050422
0.2777046353
0.2777056199
0.2777041986
0.2777043035
0.2777050889
0.2777046448
0.2777044308
0.2777044839
0.2777050739
0.2777046184
0.2777056375
0.2777042373
0.2777042608
0.2777050851
0.2777046333
0.2777043936
0.277704457
0.2777050597
0.2777045722
0.2777056545
0.2777041779
0.2777042289
0.2777051118
0.2777046535
0.277704399
0.2777044166
0.2777050634
0.2777045567
0.2777056581
0.2777041981
0.2777042428
0.2777050908
0.2777046284
0.2777044032
0.2777044262
0.2777050853
0.2777046002
0.27770564
0.2777042209
0.2777042235
0.2777050892
0.2777045997
0.2777043941
0.2777044453
0.2777051182
0.2777046158
0.2777056376
0.2777042229
0.2777042627
0.2777050839
0.2777045931
0.2777044079
0.2777044213
0.2777051204
0.2777046332
0.2777056835
0.2777042611
0.2777042521
0.2777050849
0.2777046276
0.2777044418
0.2777044991
0.2777052131
0.2777047221
0.2777057872
0.2777043212
0.2777042892
0.2777051253
0.2777046882
0.277704484
0.2777046198
0.2777054238
0.2777050328
0.2777059888
0.2777044502
0.2777043697
0.2777051735
0.2777047798
0.2777046299
0.2777049394
0.2777059398
0.277705752
0.2777065306
0.2777047642
0.277704547
0.2777052658
0.2777049592
)
;
    }
    side-walls
    {
        type            calculated;
        value           nonuniform List<scalar> 
261
(
0.2777046769
0.2777045396
0.2777052282
0.2777041686
0.2777046915
0.2777054552
0.2777052214
0.2777041443
0.2777046622
0.2777046398
0.2777045536
0.2777052556
0.2777041676
0.2777046864
0.2777054147
0.2777052456
0.2777041512
0.2777046474
0.2777046453
0.277704533
0.2777052619
0.2777041664
0.2777046716
0.2777054237
0.2777052785
0.2777041628
0.2777046374
0.2777046494
0.2777045392
0.2777052645
0.2777041742
0.2777047041
0.2777054475
0.2777052722
0.2777041661
0.2777046294
0.2777046581
0.2777045222
0.2777052904
0.2777041732
0.2777047407
0.277705487
0.2777052495
0.2777041467
0.2777046319
0.2777046448
0.2777045005
0.2777053056
0.2777041771
0.2777047693
0.2777055213
0.2777052194
0.2777041431
0.2777046553
0.2777046333
0.2777045256
0.2777053221
0.2777041741
0.2777047555
0.2777054905
0.2777052474
0.2777041374
0.2777046414
0.2777046535
0.2777045604
0.2777053171
0.2777041858
0.2777047644
0.2777055149
0.2777051994
0.2777041646
0.2777046402
0.2777046284
0.2777045655
0.2777053309
0.2777042073
0.2777047428
0.277705534
0.277705187
0.2777041298
0.2777046736
0.2777045997
0.2777046021
0.277705337
0.2777042305
0.2777047747
0.2777055582
0.2777051902
0.2777041398
0.2777046658
0.2777045931
0.2777045852
0.2777053362
0.2777042914
0.2777047985
0.2777055479
0.277705203
0.2777041282
0.2777046613
0.2777046276
0.277704579
0.2777054084
0.2777043722
0.2777049235
0.2777056318
0.277705262
0.2777041965
0.2777046906
0.2777046882
0.2777046242
0.2777055347
0.2777046148
0.2777051676
0.2777058597
0.2777053936
0.2777042769
0.2777047381
0.2777047798
0.2777048333
0.2777058785
0.2777051358
0.2777059022
0.2777064114
0.2777056892
0.2777044306
0.277704869
0.2777049592
0.2777051565
0.2777064626
0.277706177
0.2777073268
0.2777074389
0.2777063045
0.277704758
0.2777050079
0.2777051008
0.2777050695
0.2777043228
0.2777046518
0.2777046841
0.2777034962
0.2777046469
0.2777054438
0.2777048142
0.2777050904
0.2777050824
0.2777043212
0.2777046655
0.2777046856
0.277703484
0.2777046145
0.2777054382
0.2777048277
0.2777050964
0.2777050851
0.2777043364
0.2777046683
0.2777047229
0.2777034739
0.2777046191
0.2777054501
0.277704831
0.2777051175
0.2777050807
0.277704347
0.277704654
0.2777047312
0.2777034481
0.2777046058
0.2777054665
0.2777047977
0.2777050889
0.2777051058
0.277704362
0.2777046403
0.2777047294
0.2777034664
0.277704601
0.2777054585
0.2777047846
0.2777050851
0.2777051102
0.2777043692
0.2777046257
0.277704706
0.2777034881
0.2777046287
0.2777054459
0.277704766
0.2777051118
0.2777050891
0.2777043568
0.2777046089
0.2777046881
0.2777034951
0.2777046547
0.2777054429
0.2777047866
0.2777050908
0.2777050847
0.277704342
0.2777046042
0.2777046716
0.2777034706
0.2777046384
0.2777054154
0.2777047536
0.2777050892
0.2777050968
0.27770432
0.2777046116
0.2777046881
0.2777035049
0.2777046415
0.2777053947
0.2777047659
0.2777050839
0.277705073
0.2777042912
0.2777046492
0.2777046944
0.2777035404
0.2777046669
0.277705407
0.2777047428
0.2777050849
0.2777050718
0.2777043249
0.2777046732
0.2777047657
0.277703594
0.2777046929
0.27770539
0.2777047474
0.2777051253
0.277705124
0.2777043602
0.2777047591
0.2777048589
0.277703702
0.2777047334
0.2777054407
0.2777047741
0.2777051735
0.2777051592
0.2777045035
0.2777049962
0.2777051627
0.2777039132
0.2777048468
0.2777054854
0.2777048325
0.2777052658
0.2777053359
0.2777047829
0.2777055322
0.2777058864
0.2777044847
0.2777051935
0.2777056538
0.2777049335
)
;
    }
    inlet
    {
        type            calculated;
        value           nonuniform List<scalar> 
81
(
0.2777046769
0.2777045396
0.2777052282
0.2777041686
0.2777046915
0.2777054552
0.2777052214
0.2777041443
0.2777046622
0.2777043532
0.2777045184
0.2777045366
0.2777043077
0.277704328
0.2777047773
0.2777037792
0.2777054962
0.2777039572
0.2777044144
0.2777052077
0.2777048559
0.2777046788
0.277704068
0.2777051864
0.277704211
0.2777045119
0.2777053612
0.277705068
0.2777050848
0.2777052852
0.27770462
0.2777044711
0.2777048936
0.2777049365
0.2777039121
0.277704559
0.2777046349
0.2777048993
0.2777039509
0.277704687
0.2777040723
0.277703699
0.2777047765
0.2777049049
0.2777053905
0.2777056488
0.2777049639
0.2777042811
0.2777047166
0.2777037787
0.2777051628
0.2777052041
0.2777057858
0.2777045237
0.2777041899
0.2777034703
0.277703543
0.2777047985
0.2777053893
0.2777054253
0.2777043373
0.2777051805
0.2777046652
0.27770431
0.2777051561
0.2777048811
0.277704933
0.277704492
0.2777043425
0.2777051882
0.2777045817
0.277704432
0.2777051008
0.2777050695
0.2777043228
0.2777046518
0.2777046841
0.2777034962
0.2777046469
0.2777054438
0.2777048142
)
;
    }
    outlet
    {
        type            calculated;
        value           nonuniform 0();
    }
    procBoundary0to1
    {
        type            processor;
        value           nonuniform List<scalar> 
97
(
0.2777052923
0.2777049621
0.2777056638
0.2777074776
0.2777078208
0.2777094055
0.2777091316
0.2777072937
0.277705306
0.2777053243
0.2777049621
0.2777049621
0.2777068925
0.2777078138
0.2777092678
0.2777138635
0.277717983
0.277714104
0.27770856
0.2777076362
0.2777051039
0.2777055661
0.2777078138
0.2777078138
0.277717384
0.2777229834
0.2777339983
0.277755508
0.2777345122
0.2777166044
0.2777092496
0.2777074459
0.2777070277
0.2777103564
0.2777229834
0.2777229834
0.2777921438
0.2778882588
0.2779077911
0.2777923163
0.2777343275
0.2777131871
0.2777082164
0.2777071535
0.2777129071
0.2777389186
0.2778882588
0.2778882588
0.2804355594
0.2778871283
0.2779072429
0.2777660415
0.2777562184
0.2777185666
0.2777101391
0.2777076161
0.2777101673
0.2777220111
0.2777654477
0.2778871283
0.2777660415
0.2777660415
0.2777346048
0.277711359
0.2777150722
0.2777082061
0.2777053406
0.2777059281
0.2777107035
0.2777224686
0.2777404235
0.2777233071
0.277711359
0.277711359
0.277709939
0.277705574
0.2777068477
0.2777048671
0.2777062487
0.2777074465
0.2777101866
0.2777125332
0.2777094494
0.2777077756
0.277705574
0.277705574
0.2777056066
0.2777051062
0.2777054437
0.2777056436
0.2777054266
0.2777065972
0.2777073148
0.2777055714
0.2777058036
0.2777059772
0.2777051062
)
;
    }
}


// ************************************************************************* //
