/*--------------------------------*- C++ -*----------------------------------*\
| =========                 |                                                 |
| \\      /  F ield         | OpenFOAM: The Open Source CFD Toolbox           |
|  \\    /   O peration     | Version:  4.x                                   |
|   \\  /    A nd           | Web:      www.OpenFOAM.org                      |
|    \\/     M anipulation  |                                                 |
\*---------------------------------------------------------------------------*/
FoamFile
{
    version     2.0;
    format      ascii;
    class       volScalarField;
    location    "3000";
    object      T;
}
// * * * * * * * * * * * * * * * * * * * * * * * * * * * * * * * * * * * * * //

dimensions      [0 0 0 1 0 0 0];

internalField   nonuniform List<scalar> 
1175
(
1223.150538
1223.150701
1223.150677
1223.150659
1223.150621
1223.15068
1223.150731
1223.150643
1223.150757
1223.150895
1223.150956
1223.15089
1223.150832
1223.150889
1223.151004
1223.151143
1223.151081
1223.151172
1223.151145
1223.151219
1223.151315
1223.151205
1223.151053
1223.151037
1223.150893
1223.151018
1223.151185
1223.151339
1223.151214
1223.151353
1223.14811
1223.147989
1223.147962
1223.14795
1223.147836
1223.147769
1223.147697
1223.147722
1223.14767
1223.147671
1223.147763
1223.147699
1223.147811
1223.147846
1223.148325
1223.152777
1223.152781
1223.152787
1223.152752
1223.152757
1223.15274
1223.152754
1223.152706
1223.152624
1223.152563
1223.15243
1223.152482
1223.152533
1223.152924
1223.153667
1223.150474
1223.150497
1223.150562
1223.150418
1223.150257
1223.150131
1223.150194
1223.150158
1223.150268
1223.150176
1223.150233
1223.150186
1223.150538
1223.150836
1223.151661
1223.14711
1223.147289
1223.147249
1223.147144
1223.14697
1223.146819
1223.146956
1223.146852
1223.14678
1223.146715
1223.146896
1223.146935
1223.14705
1223.147306
1223.148108
1223.14814
1223.148033
1223.147888
1223.147916
1223.148016
1223.148149
1223.148026
1223.14824
1223.148304
1223.148318
1223.14835
1223.148344
1223.148432
1223.148679
1223.149021
1223.152884
1223.152854
1223.152803
1223.152788
1223.152874
1223.15289
1223.152915
1223.152797
1223.152956
1223.152929
1223.153031
1223.15287
1223.152869
1223.152987
1223.153108
1223.150603
1223.150668
1223.150712
1223.150747
1223.150736
1223.150633
1223.150695
1223.150702
1223.150558
1223.150604
1223.150656
1223.150613
1223.150612
1223.150496
1223.150789
1223.151964
1223.151856
1223.151812
1223.151805
1223.151825
1223.151623
1223.151786
1223.151765
1223.151751
1223.151809
1223.151799
1223.15179
1223.151957
1223.15211
1223.151236
1223.151127
1223.15102
1223.151073
1223.150901
1223.151013
1223.150927
1223.150932
1223.150825
1223.150681
1223.15076
1223.150656
1223.150626
1223.150826
1223.151138
1223.151156
1223.151189
1223.151385
1223.151294
1223.151099
1223.151042
1223.15093
1223.150833
1223.150979
1223.15098
1223.150969
1223.150977
1223.15136
1223.151792
1223.152618
1223.152164
1223.151976
1223.152222
1223.152168
1223.152167
1223.152068
1223.151964
1223.15185
1223.151793
1223.151786
1223.151549
1223.151447
1223.1518
1223.152652
1223.154501
1223.152075
1223.151901
1223.152089
1223.152178
1223.152178
1223.152178
1223.152139
1223.1522
1223.152238
1223.152025
1223.152143
1223.152268
1223.152713
1223.153893
1223.15675
1223.150096
1223.150034
1223.150106
1223.150053
1223.150209
1223.150191
1223.150141
1223.150113
1223.150047
1223.149955
1223.149904
1223.15015
1223.150566
1223.151617
1223.153165
1223.154492
1223.154297
1223.154132
1223.154104
1223.154022
1223.153896
1223.153881
1223.153936
1223.15408
1223.153978
1223.154102
1223.154135
1223.154465
1223.154954
1223.155657
1223.146929
1223.147036
1223.147198
1223.14714
1223.147394
1223.14713
1223.147218
1223.14718
1223.147163
1223.147075
1223.147235
1223.147273
1223.147316
1223.147454
1223.147735
1223.153708
1223.153793
1223.153774
1223.153802
1223.153688
1223.153602
1223.153613
1223.153552
1223.15361
1223.153551
1223.153277
1223.153354
1223.153415
1223.153635
1223.153765
1223.151694
1223.15165
1223.151684
1223.151483
1223.151382
1223.151389
1223.151508
1223.151688
1223.151655
1223.151599
1223.151793
1223.151704
1223.15184
1223.151982
1223.1482
1223.148118
1223.148037
1223.148211
1223.148232
1223.148192
1223.148146
1223.148093
1223.148121
1223.148062
1223.148245
1223.148063
1223.148349
1223.148854
1223.14975
1223.149723
1223.149747
1223.149625
1223.149515
1223.149373
1223.149435
1223.149339
1223.149194
1223.149157
1223.14928
1223.149461
1223.14986
1223.151011
1223.153441
1223.15053
1223.15073
1223.150722
1223.151018
1223.15091
1223.150907
1223.150657
1223.150699
1223.15077
1223.150942
1223.151037
1223.151219
1223.152206
1223.155048
1223.161131
1223.15322
1223.153502
1223.153677
1223.153615
1223.153356
1223.153328
1223.153482
1223.153481
1223.153342
1223.153467
1223.153665
1223.154083
1223.155736
1223.16086
1223.173763
1223.148294
1223.148383
1223.148421
1223.148311
1223.14828
1223.148347
1223.148119
1223.147932
1223.147982
1223.148036
1223.148108
1223.148533
1223.149609
1223.152352
1223.158626
1223.15259
1223.152502
1223.152544
1223.152614
1223.152508
1223.152451
1223.152457
1223.152441
1223.152466
1223.152389
1223.152501
1223.152595
1223.153064
1223.154287
1223.156392
1223.151265
1223.151143
1223.151176
1223.151172
1223.151197
1223.151154
1223.151141
1223.151106
1223.151051
1223.151067
1223.15114
1223.15126
1223.151367
1223.151921
1223.152691
1223.147524
1223.147604
1223.147595
1223.147621
1223.147547
1223.147669
1223.147638
1223.147593
1223.147602
1223.147449
1223.147384
1223.147482
1223.147836
1223.148035
1223.148436
1223.148816
1223.148645
1223.148848
1223.14881
1223.148929
1223.14879
1223.148854
1223.14884
1223.148757
1223.148653
1223.148779
1223.148778
1223.14897
1223.149383
1223.148742
1223.148912
1223.148942
1223.148868
1223.148898
1223.149007
1223.14896
1223.148998
1223.14891
1223.148981
1223.148953
1223.148948
1223.14911
1223.149926
1223.147859
1223.1479
1223.147799
1223.147908
1223.147871
1223.147886
1223.147764
1223.147754
1223.147786
1223.147906
1223.148119
1223.148623
1223.149644
1223.152586
1223.150789
1223.151056
1223.150918
1223.150908
1223.151087
1223.150965
1223.150684
1223.150906
1223.150683
1223.150664
1223.150801
1223.151366
1223.153798
1223.162739
1223.185388
1223.151445
1223.151491
1223.151604
1223.151532
1223.151563
1223.15157
1223.151597
1223.151648
1223.151737
1223.151782
1223.151998
1223.153214
1223.158402
1223.180437
1223.246601
1223.149584
1223.149402
1223.14929
1223.149347
1223.149301
1223.149241
1223.149287
1223.149092
1223.1492
1223.149326
1223.149448
1223.150002
1223.152676
1223.16183
1223.184601
1223.149395
1223.149468
1223.149382
1223.149515
1223.149452
1223.149488
1223.149692
1223.149709
1223.149781
1223.149744
1223.149702
1223.149803
1223.150599
1223.153439
1223.159596
1223.153907
1223.153867
1223.154044
1223.154074
1223.154185
1223.154169
1223.154212
1223.154256
1223.154347
1223.154205
1223.154355
1223.154452
1223.154666
1223.155593
1223.157343
1223.151057
1223.151069
1223.150964
1223.150969
1223.150777
1223.15074
1223.150791
1223.150806
1223.150835
1223.150925
1223.150898
1223.150925
1223.151181
1223.151442
1223.152012
1223.150723
1223.150825
1223.150806
1223.150763
1223.150722
1223.150796
1223.151001
1223.151073
1223.150895
1223.150876
1223.150961
1223.151073
1223.151132
1223.151498
1223.149559
1223.149678
1223.14967
1223.149614
1223.149535
1223.149655
1223.149549
1223.149663
1223.14959
1223.149552
1223.149716
1223.149918
1223.150216
1223.151605
1223.153736
1223.153691
1223.153701
1223.153776
1223.153536
1223.15349
1223.153513
1223.153466
1223.153316
1223.153303
1223.153299
1223.153746
1223.155443
1223.160586
1223.150494
1223.150435
1223.150377
1223.150198
1223.150178
1223.150184
1223.150158
1223.150249
1223.150179
1223.150204
1223.150354
1223.151381
1223.156253
1223.178077
1223.153201
1223.153295
1223.153317
1223.153484
1223.153526
1223.153713
1223.153601
1223.153782
1223.153732
1223.153582
1223.153985
1223.156199
1223.168959
1223.251103
1214.925266
1223.154845
1223.15495
1223.154878
1223.154703
1223.154738
1223.154703
1223.154804
1223.154689
1223.154775
1223.154756
1223.154804
1223.155853
1223.160882
1223.182919
1223.248876
1223.1501
1223.150063
1223.14999
1223.150076
1223.15016
1223.150131
1223.150124
1223.150176
1223.150067
1223.150151
1223.150359
1223.15068
1223.152185
1223.157448
1223.170397
1223.149534
1223.149525
1223.149561
1223.149494
1223.149468
1223.149422
1223.149537
1223.149653
1223.149543
1223.149624
1223.149633
1223.149862
1223.150302
1223.151517
1223.154197
1223.147395
1223.14727
1223.147231
1223.147242
1223.147079
1223.147162
1223.147005
1223.147019
1223.147051
1223.147044
1223.147001
1223.147107
1223.147168
1223.147504
1223.148542
1223.146257
1223.146355
1223.146305
1223.146436
1223.146385
1223.146307
1223.146234
1223.146221
1223.146313
1223.146366
1223.146299
1223.14625
1223.146481
1223.146781
1223.149274
1223.14956
1223.149483
1223.149545
1223.149536
1223.149464
1223.149609
1223.149645
1223.149723
1223.149713
1223.14966
1223.149903
1223.150197
1223.150836
1223.152281
1223.152238
1223.152232
1223.152267
1223.15234
1223.15232
1223.152413
1223.15237
1223.152499
1223.152406
1223.152704
1223.153085
1223.154015
1223.156737
1223.150363
1223.150376
1223.15021
1223.150113
1223.149896
1223.149959
1223.150119
1223.150234
1223.150342
1223.150378
1223.150505
1223.151188
1223.153777
1223.162817
1223.154494
1223.154615
1223.154538
1223.154662
1223.154693
1223.154643
1223.154669
1223.154506
1223.154564
1223.154713
1223.155125
1223.156199
1223.161094
1223.183196
1223.148398
1223.148362
1223.14848
1223.14834
1223.148347
1223.148396
1223.148252
1223.148237
1223.148194
1223.148213
1223.148293
1223.148983
1223.151487
1223.160506
1223.148216
1223.148105
1223.148061
1223.148174
1223.148078
1223.147925
1223.147947
1223.147786
1223.147821
1223.147794
1223.147934
1223.148277
1223.149474
1223.152271
1223.15832
1223.145654
1223.145833
1223.145952
1223.145931
1223.145805
1223.145827
1223.145894
1223.145915
1223.145863
1223.14581
1223.146063
1223.146224
1223.146491
1223.147321
1223.148925
1223.151213
1223.15107
1223.150986
1223.150968
1223.151107
1223.151123
1223.151191
1223.151013
1223.150991
1223.151088
1223.15114
1223.151043
1223.151173
1223.151483
1223.152039
1223.152683
1223.152639
1223.152618
1223.152578
1223.152645
1223.152475
1223.152737
1223.152651
1223.152559
1223.152578
1223.152498
1223.152488
1223.152588
1223.152754
1223.155852
1223.155969
1223.155786
1223.155824
1223.155846
1223.155993
1223.156112
1223.156135
1223.156072
1223.15626
1223.156346
1223.156532
1223.156852
1223.157164
1223.155532
1223.155562
1223.15548
1223.155302
1223.155176
1223.155062
1223.155051
1223.155081
1223.155145
1223.15504
1223.155001
1223.155117
1223.155589
1223.156833
1223.150003
1223.149985
1223.149872
1223.15016
1223.150376
1223.150151
1223.150406
1223.150607
1223.150768
1223.150605
1223.150816
1223.151124
1223.152075
1223.154782
1223.1474
1223.14729
1223.147316
1223.147091
1223.147
1223.146945
1223.147057
1223.147054
1223.146791
1223.146946
1223.147075
1223.147523
1223.149002
1223.153973
1223.147242
1223.147227
1223.147398
1223.147363
1223.147216
1223.147286
1223.147337
1223.147334
1223.147496
1223.147401
1223.147391
1223.147641
1223.148385
1223.151291
1223.152034
1223.15204
1223.152083
1223.152034
1223.152116
1223.152119
1223.152083
1223.152148
1223.151978
1223.152052
1223.151976
1223.152139
1223.152676
1223.153877
1223.14832
1223.148206
1223.148205
1223.148032
1223.148205
1223.148168
1223.148262
1223.148184
1223.148283
1223.148118
1223.148345
1223.148299
1223.148394
1223.149046
1223.149923
1223.15059
1223.150485
1223.150616
1223.150543
1223.150519
1223.150418
1223.1504
1223.150392
1223.150264
1223.150384
1223.150403
1223.150436
1223.150535
1223.15074
1223.1511
1223.152154
1223.152171
1223.152257
1223.15224
1223.152183
1223.152371
1223.152512
1223.152453
1223.152543
1223.152388
1223.152485
1223.152462
1223.15246
1223.152475
1223.148428
1223.1484
1223.148445
1223.148621
1223.148523
1223.148448
1223.148358
1223.148527
1223.148682
1223.148816
1223.148747
1223.148809
1223.148861
1223.148929
1223.149639
1223.149765
1223.149773
1223.150048
1223.15008
1223.150091
1223.150236
1223.14995
1223.149993
1223.149989
1223.149896
1223.149819
1223.150019
1223.150328
1223.14941
1223.149415
1223.149365
1223.1495
1223.149358
1223.149458
1223.149457
1223.149319
1223.149296
1223.149268
1223.149449
1223.149594
1223.149963
1223.150835
1223.151353
1223.151361
1223.151191
1223.151232
1223.151197
1223.151115
1223.150891
1223.150876
1223.151091
1223.151007
1223.151183
1223.151173
1223.151775
1223.153201
1223.152011
1223.152172
1223.15214
1223.152279
1223.152318
1223.152412
1223.152478
1223.152356
1223.152366
1223.152499
1223.152658
1223.152809
1223.15307
1223.154033
1223.148286
1223.14844
1223.148306
1223.148224
1223.148301
1223.148334
1223.1485
1223.148458
1223.148419
1223.148393
1223.148275
1223.148443
1223.148579
1223.149047
1223.150957
1223.150847
1223.150943
1223.151
1223.150986
1223.151121
1223.151137
1223.151177
1223.151146
1223.151343
1223.151517
1223.151471
1223.151622
1223.151713
1223.151617
1223.151654
1223.151729
1223.151776
1223.151663
1223.151605
1223.151478
1223.15158
1223.151556
1223.151471
1223.151344
1223.151386
1223.151481
1223.151447
1223.151624
1223.148671
1223.148717
1223.14869
1223.148597
1223.148724
1223.148741
1223.148623
1223.148717
1223.148728
1223.148762
1223.14879
1223.148698
1223.148695
1223.148749
1223.148809
1223.148752
1223.14874
1223.14876
1223.148649
1223.14863
1223.148723
1223.148745
1223.148696
1223.148819
1223.148874
1223.148785
1223.148983
1223.149
1223.152098
1223.152105
1223.152038
1223.151991
1223.151925
1223.151894
1223.151949
1223.152017
1223.152122
1223.152278
1223.152217
1223.152316
1223.152353
1223.152671
1223.150649
1223.150588
1223.150576
1223.150639
1223.150699
1223.150764
1223.150839
1223.150863
1223.150843
1223.150719
1223.150749
1223.150778
1223.150853
1223.151178
1223.150507
1223.1505
1223.150336
1223.150299
1223.150307
1223.15041
1223.15049
1223.150567
1223.150509
1223.15053
1223.150378
1223.150471
1223.15056
1223.150906
1223.155739
1223.155792
1223.155837
1223.155951
1223.15587
1223.155775
1223.155745
1223.155856
1223.155717
1223.155603
1223.155502
1223.155434
1223.155623
1223.155792
1223.15067
1223.150813
1223.150793
1223.150851
1223.150872
1223.150751
1223.150637
1223.150711
1223.150706
1223.150623
1223.150596
1223.150672
1223.150841
1223.150863
1223.14716
1223.147185
1223.147133
1223.14706
1223.147096
1223.147151
1223.147165
1223.147288
1223.147385
1223.147347
1223.147473
1223.14739
1223.147546
1223.1476
1223.149933
1223.149874
1223.149859
1223.150006
1223.150064
1223.150146
1223.150055
1223.150202
1223.150152
1223.150265
1223.150277
1223.150245
1223.150196
1223.150212
)
;

boundaryField
{
    top
    {
        type            zeroGradient;
    }
    bottom
    {
        type            zeroGradient;
    }
    side-walls
    {
        type            zeroGradient;
    }
    inlet
    {
        type            zeroGradient;
    }
    outlet
    {
        type            zeroGradient;
    }
    procBoundary0to1
    {
        type            processor;
        value           nonuniform List<scalar> 
97
(
1223.151109
1223.152209
1223.151759
1223.148812
1223.154674
1223.15295
1223.148901
1223.149621
1223.153334
1223.150968
1223.152209
1223.152209
1223.151489
1223.149633
1223.153943
1223.156612
1223.16004
1223.155553
1223.157061
1223.148213
1223.154224
1223.152273
1223.149633
1223.149633
1223.156273
1223.158739
1223.167614
1223.183348
1223.16535
1223.159706
1223.154023
1223.148951
1223.14992
1223.151807
1223.158739
1223.158739
1223.200766
1223.244036
1223.258078
1223.200003
1223.166163
1223.159592
1223.152932
1223.152424
1223.154505
1223.173533
1223.244036
1223.244036
1214.652235
1223.249013
1223.260491
1223.183222
1223.180219
1223.157469
1223.149719
1223.147328
1223.15264
1223.163019
1223.185837
1223.249013
1223.183222
1223.183222
1223.164943
1223.156196
1223.151289
1223.152977
1223.153266
1223.157939
1223.159083
1223.161004
1223.166905
1223.157311
1223.156196
1223.156196
1223.150987
1223.152308
1223.151586
1223.152628
1223.149336
1223.151251
1223.152555
1223.156152
1223.155802
1223.149801
1223.152308
1223.152308
1223.15201
1223.150356
1223.14887
1223.149208
1223.152887
1223.151816
1223.151714
1223.156334
1223.151227
1223.147739
1223.150356
)
;
    }
}


// ************************************************************************* //
