/*--------------------------------*- C++ -*----------------------------------*\
| =========                 |                                                 |
| \\      /  F ield         | OpenFOAM: The Open Source CFD Toolbox           |
|  \\    /   O peration     | Version:  4.x                                   |
|   \\  /    A nd           | Web:      www.OpenFOAM.org                      |
|    \\/     M anipulation  |                                                 |
\*---------------------------------------------------------------------------*/
FoamFile
{
    version     2.0;
    format      ascii;
    class       volVectorField;
    location    "3000";
    object      U;
}
// * * * * * * * * * * * * * * * * * * * * * * * * * * * * * * * * * * * * * //

dimensions      [0 1 -1 0 0 0 0];

internalField   nonuniform List<vector> 
1175
(
(0.01099999905 -5.890647034e-10 -1.300892744e-10)
(0.01099999881 4.189945898e-10 3.723501324e-10)
(0.01100000184 6.817022618e-10 3.601064635e-10)
(0.01100000147 -1.55328206e-09 1.497906432e-09)
(0.01100000254 -4.191335068e-10 4.03030471e-10)
(0.0110000025 -7.680413428e-10 9.612806992e-10)
(0.01100000579 -6.480383299e-10 1.064435675e-09)
(0.01100000545 -1.288655265e-09 1.140464418e-09)
(0.01100001216 -2.973117091e-10 -2.10371579e-09)
(0.01100001779 -2.982953172e-10 -4.45319088e-09)
(0.01100003585 -5.786204941e-09 -5.898572488e-09)
(0.01100004369 -6.38226862e-09 -5.528473846e-09)
(0.01100009395 -1.586173771e-08 -1.635482075e-08)
(0.01100012715 -1.226942101e-08 -1.289807413e-08)
(0.01100021978 -3.647753167e-08 -3.394382255e-08)
(0.011000001 4.533578431e-10 1.536806503e-09)
(0.01099999926 8.303603519e-10 -1.75429284e-09)
(0.01099999952 1.011596592e-09 4.940994407e-10)
(0.01100000227 -5.340824961e-10 9.219979106e-10)
(0.01100000243 -3.673874369e-10 -3.736596523e-11)
(0.01099999988 -1.529413203e-09 4.613853901e-10)
(0.01100000549 -1.065940452e-09 -1.210967722e-09)
(0.01100000061 -1.909369663e-09 -1.641301489e-09)
(0.01100000948 -5.293634161e-09 -1.968665312e-09)
(0.01100000749 -7.341314055e-09 -3.879329629e-09)
(0.01100002886 -1.408729185e-08 -4.523086345e-09)
(0.01100003144 -1.945169211e-08 -7.32903253e-09)
(0.01100008676 -4.512266292e-08 -1.759987204e-08)
(0.01100010311 -4.37797622e-08 -1.317428902e-08)
(0.01100020587 -1.275025035e-07 -5.164082848e-08)
(0.01100000048 1.600517086e-09 -3.487755774e-11)
(0.01099999999 5.271216284e-10 -9.480739658e-10)
(0.01100000034 1.289595839e-09 -9.457106522e-10)
(0.01099999963 1.936395386e-09 7.768383044e-10)
(0.01100000165 -1.390749304e-09 1.878970254e-10)
(0.01099999911 -7.511251276e-10 -2.331038711e-09)
(0.01100000143 -2.097926974e-09 6.556805923e-10)
(0.01100000054 -3.617977233e-09 -8.71546323e-10)
(0.01100000467 -4.522707816e-09 -4.948551094e-09)
(0.01099999978 -9.945832607e-09 -3.595703822e-09)
(0.01100002023 -1.689633642e-08 -7.160061587e-09)
(0.0110000055 -2.275962797e-08 -1.121214136e-08)
(0.0110000604 -5.12699606e-08 -2.398694023e-08)
(0.01100003809 -4.54007796e-08 -2.072306781e-08)
(0.0110001724 -1.615678308e-07 -1.084821355e-07)
(0.01100000004 -1.782144876e-10 -4.180547401e-10)
(0.01099999893 6.399305163e-11 1.872648839e-09)
(0.01100000027 3.957650964e-10 1.377173745e-09)
(0.01100000024 -1.290903606e-09 -3.170855323e-09)
(0.01100000005 -4.374828021e-10 -1.387403253e-09)
(0.01099999935 -1.967983772e-09 -1.454809578e-09)
(0.01100000251 -2.340806464e-09 -2.856064048e-10)
(0.01099999977 -1.944485699e-09 -1.735765472e-09)
(0.01100000318 -3.729697446e-09 -2.662257557e-09)
(0.01099999748 -4.9088681e-09 -4.26573166e-09)
(0.01100001324 -1.280640399e-08 -4.224315808e-09)
(0.01099999245 -2.231241402e-08 -8.048428558e-09)
(0.01100005166 -6.29619265e-08 -2.479544892e-08)
(0.01099999167 -6.749168001e-08 -1.718579992e-08)
(0.01100016543 -2.505490111e-07 -1.522991254e-07)
(0.01100000049 -1.769882281e-10 -2.456573883e-09)
(0.01100000058 4.737072688e-11 -1.12392127e-09)
(0.01100000021 -1.288848841e-09 7.86171184e-10)
(0.0109999998 -8.335096504e-10 -3.215855575e-10)
(0.01100000058 -2.734397328e-09 7.655300126e-10)
(0.01099999735 -1.219868699e-09 -1.301731594e-09)
(0.01099999956 -9.131532711e-10 1.300466237e-10)
(0.01099999865 -1.015284536e-09 -1.827661317e-09)
(0.01100000185 -5.590743242e-10 -3.611371057e-09)
(0.01099998878 1.002704782e-09 -5.452154472e-09)
(0.01099999995 -3.60835805e-10 -9.490684341e-09)
(0.01099995442 -3.777233419e-10 -1.656520861e-08)
(0.01100000802 -1.623368509e-09 -4.462606361e-08)
(0.01099984991 5.105430664e-10 -4.778442593e-08)
(0.01100011331 -2.9130298e-09 -3.630120419e-07)
(0.01099999942 1.935237958e-10 2.542347479e-10)
(0.01099999948 -5.665680206e-11 1.848890119e-09)
(0.01100000148 -1.083480447e-10 1.844189521e-09)
(0.01099999945 5.374263659e-10 1.788316755e-10)
(0.01100000023 1.570164295e-09 9.417053645e-10)
(0.01099999862 1.192501905e-09 3.550140982e-10)
(0.01100000265 1.304107654e-09 1.341390555e-09)
(0.01100000038 1.966658856e-09 -4.878194525e-11)
(0.01100000462 4.06355468e-09 3.284850578e-10)
(0.0109999983 7.741666053e-09 -1.930774994e-09)
(0.01100001579 1.537712292e-08 -4.228864491e-09)
(0.01099999426 2.336260579e-08 -9.238426254e-09)
(0.01100005144 6.139795135e-08 -2.424438547e-08)
(0.01099998988 6.396512492e-08 -1.59288572e-08)
(0.01100016689 2.482528642e-07 -1.521274005e-07)
(0.0110000003 -2.645784465e-10 -3.623375739e-10)
(0.01099999738 8.308277945e-10 -1.923763877e-10)
(0.01099999882 1.395664827e-09 6.768457216e-10)
(0.01099999791 5.143707741e-10 -8.639197943e-10)
(0.01099999977 3.571956384e-10 4.342445671e-11)
(0.01100000128 1.272031605e-09 9.931041257e-12)
(0.01100000224 6.143332814e-11 -2.170100862e-09)
(0.01100000071 2.918065586e-09 -1.75581575e-09)
(0.01100000842 5.706810587e-09 -6.480957558e-10)
(0.01100000316 8.661240477e-09 -2.451954148e-09)
(0.01100001837 1.537584002e-08 -7.235788342e-09)
(0.0110000043 2.195734189e-08 -8.725899286e-09)
(0.01100005839 5.114354336e-08 -2.599239785e-08)
(0.01100004044 4.445778716e-08 -2.026232123e-08)
(0.01100017252 1.601439919e-07 -1.069646175e-07)
(0.01100000041 -3.187653253e-12 -3.622376305e-10)
(0.01099999996 -1.068862127e-10 2.239570562e-09)
(0.01099999914 -5.368827943e-11 -1.98412839e-10)
(0.01099999744 -2.107339908e-10 -2.231430456e-09)
(0.01099999956 -8.158803144e-11 3.999142415e-10)
(0.01100000091 -9.904465557e-11 -5.186483544e-10)
(0.01100000496 1.480456388e-09 -4.183413144e-10)
(0.011000003 3.823028225e-09 3.284304787e-10)
(0.01100001388 4.93383602e-09 -2.396236026e-09)
(0.01100001054 6.991959233e-09 -8.524863006e-10)
(0.01100002958 1.412841571e-08 -5.453118741e-09)
(0.01100002959 1.872975574e-08 -7.255820941e-09)
(0.01100008245 4.450555735e-08 -2.0295123e-08)
(0.01100010363 4.347430349e-08 -1.419675673e-08)
(0.01100020235 1.271064882e-07 -5.356659929e-08)
(0.01100000029 -1.279506031e-09 -8.078236213e-12)
(0.01099999917 -2.183159748e-09 -2.455224857e-09)
(0.01100000126 -1.120835307e-09 -3.039973244e-09)
(0.01099999945 -1.79575012e-09 1.037650342e-09)
(0.01100000181 4.14417181e-10 2.570705179e-09)
(0.0110000013 4.959466708e-10 1.655810525e-09)
(0.01100000585 1.692651468e-09 1.20368622e-09)
(0.01100000625 9.335088681e-10 1.997797278e-09)
(0.01100001518 2.996395478e-09 -1.797735005e-09)
(0.01100001417 3.610084602e-09 -2.717723799e-11)
(0.01100003461 7.066864423e-09 -4.417053491e-09)
(0.01100004177 6.3021621e-09 -4.567415218e-09)
(0.01100009337 1.344202522e-08 -1.805925902e-08)
(0.0110001256 1.085284932e-08 -1.459908782e-08)
(0.01100021824 3.653322635e-08 -3.592386789e-08)
(0.01100000044 -6.835396102e-11 5.861293664e-10)
(0.01100000056 2.416501914e-09 5.578411427e-10)
(0.01099999898 -5.316283093e-10 -7.411924353e-11)
(0.01099999846 9.837171189e-10 1.026936406e-09)
(0.01100000345 1.884426306e-10 5.933842839e-10)
(0.01099999964 -1.089298672e-09 6.227003886e-10)
(0.01100000434 -1.989126074e-09 -3.431301896e-10)
(0.01100000133 -2.024614196e-09 -1.086702228e-09)
(0.01100000798 -2.54240797e-09 -4.35837692e-09)
(0.01100001095 -3.873934797e-09 -5.654467835e-09)
(0.01100002846 -6.517558431e-09 -1.406667717e-08)
(0.01100003022 -8.058839055e-09 -1.808648638e-08)
(0.01100008302 -1.773229674e-08 -4.624731699e-08)
(0.01100010451 -1.272712541e-08 -4.355895781e-08)
(0.01100000083 2.435584403e-10 3.696008956e-10)
(0.01099999971 -1.072068292e-09 3.029367514e-10)
(0.01099999951 4.224234744e-10 1.048760599e-09)
(0.01100000228 -1.898138567e-10 -1.224697503e-10)
(0.01100000034 -8.503993352e-10 -4.292809201e-10)
(0.0110000012 -1.111342135e-09 -2.101739782e-09)
(0.01100000292 -2.093179968e-09 1.919019354e-10)
(0.01100000195 -3.318310282e-09 -1.888566744e-09)
(0.01100000635 -5.846051577e-09 -3.833340753e-09)
(0.01100000577 -7.565256479e-09 -6.999018927e-09)
(0.01100002438 -1.457202382e-08 -1.521513718e-08)
(0.0110000153 -2.225907416e-08 -2.127932499e-08)
(0.01100007527 -5.559755939e-08 -5.664297395e-08)
(0.01100006376 -5.043299892e-08 -5.069631813e-08)
(0.01100019208 -2.002785075e-07 -2.006863451e-07)
(0.01100000053 2.032455857e-09 -2.041227674e-10)
(0.01099999945 9.315208116e-10 -2.031693616e-10)
(0.0109999997 1.108055475e-09 -4.102396056e-10)
(0.01100000105 -1.234173765e-09 -8.484621166e-11)
(0.01100000122 -7.851177933e-10 -1.293634888e-09)
(0.01100000046 -1.976517896e-09 -1.935304163e-09)
(0.01100000049 -2.545163266e-09 -1.653089912e-09)
(0.01099999824 -4.754563953e-09 -2.920072152e-09)
(0.01100000022 -3.782010804e-09 -5.879688626e-09)
(0.01099999801 -1.091910593e-08 -9.732820477e-09)
(0.0110000113 -1.660680734e-08 -1.559080021e-08)
(0.01099998475 -2.317382595e-08 -2.917457197e-08)
(0.01100004139 -5.679009568e-08 -8.396413206e-08)
(0.01099995697 -4.929528236e-08 -8.057579617e-08)
(0.01100013739 -2.663965636e-07 -4.273208556e-07)
(0.01100000024 -1.869347468e-09 -1.844169928e-10)
(0.01099999757 4.810926886e-10 -5.907673266e-11)
(0.010999999 3.147392962e-10 -1.296027132e-10)
(0.01100000251 1.010922858e-09 1.547042896e-10)
(0.01100000278 1.049134138e-10 -6.164303774e-10)
(0.01099999899 -7.55768842e-10 -7.975171916e-10)
(0.01100000003 -1.775189075e-09 -1.573092455e-09)
(0.01099999707 -2.741656243e-10 -1.894688085e-09)
(0.0110000002 -4.430926555e-09 -3.741191048e-09)
(0.01099999532 -5.919202437e-09 -7.444370602e-09)
(0.01100000567 -1.611616989e-08 -1.225321523e-08)
(0.01099997255 -2.73668289e-08 -2.934553468e-08)
(0.0110000265 -8.423893425e-08 -7.942977421e-08)
(0.01099987823 -9.257563647e-08 -9.023268281e-08)
(0.01100011458 -5.157798316e-07 -6.75841126e-07)
(0.01100000078 8.713819118e-11 3.694728247e-10)
(0.01100000068 -3.816933444e-10 2.235867603e-10)
(0.01100000055 1.201919394e-09 -4.169557383e-10)
(0.01100000079 1.047477095e-09 2.122060674e-09)
(0.01100000081 -1.103431187e-09 -3.15479691e-10)
(0.01099999902 4.195432696e-10 -1.330487158e-09)
(0.01099999708 3.211249857e-10 -1.97554993e-09)
(0.01099999723 2.737131021e-10 -2.092057391e-09)
(0.01099999713 6.929976303e-10 -2.892886e-09)
(0.01099998389 1.818308933e-09 -9.362496897e-09)
(0.01099998838 1.508711062e-09 -1.633681553e-08)
(0.01099991786 -1.214053996e-09 -4.379095549e-08)
(0.01099994579 -6.367336703e-10 -1.440080943e-07)
(0.01099956391 -1.67334922e-09 -1.974105188e-07)
(0.01099997795 -2.449926053e-09 -1.630329934e-06)
(0.01100000112 2.105343175e-10 -4.05438407e-10)
(0.01099999784 4.274853868e-11 -4.561239481e-10)
(0.01099999937 2.362694492e-10 1.002256488e-09)
(0.01099999733 -4.004278885e-10 -1.25548608e-10)
(0.0110000007 7.038691585e-10 -1.557124393e-10)
(0.01100000125 1.29496788e-10 -9.484172689e-10)
(0.01100000113 1.248222357e-09 -1.523440461e-09)
(0.01099999856 1.669002401e-09 -2.815295218e-09)
(0.01100000111 3.578602582e-09 -3.572523557e-09)
(0.01099999328 8.209726001e-09 -8.514876009e-09)
(0.01100000384 1.536206022e-08 -1.220524512e-08)
(0.01099997401 2.806230069e-08 -2.964644541e-08)
(0.01100002724 8.026663163e-08 -7.846691569e-08)
(0.0109998818 9.058790088e-08 -9.099996668e-08)
(0.01100011129 5.124101889e-07 -6.731224454e-07)
(0.01100000138 3.051845396e-10 -2.24712363e-10)
(0.01099999913 1.156021062e-09 5.011969346e-10)
(0.01099999978 -6.669678187e-10 -4.67102371e-10)
(0.0109999999 6.902393911e-10 2.310237869e-10)
(0.01099999996 -8.349001837e-10 -3.323471265e-10)
(0.01100000041 -1.306802942e-09 -5.105527003e-10)
(0.0110000007 7.209674292e-10 -6.543656915e-10)
(0.01099999731 2.761129709e-09 -2.604145192e-09)
(0.01100000426 3.748187855e-09 -4.669404839e-09)
(0.0109999985 8.040476635e-09 -9.324256793e-09)
(0.0110000099 1.418186737e-08 -1.526542927e-08)
(0.01099998368 2.163504432e-08 -2.834848556e-08)
(0.01100003935 5.607927645e-08 -8.438626208e-08)
(0.01099995777 4.601578283e-08 -8.274121775e-08)
(0.01100013734 2.654671547e-07 -4.275843358e-07)
(0.01099999995 -7.978127786e-10 -1.701823765e-10)
(0.01100000078 -7.610993084e-10 2.607053815e-10)
(0.01100000176 2.282778471e-10 3.227345034e-10)
(0.01099999913 -1.46439954e-09 1.495954835e-09)
(0.01100000011 -7.587858876e-10 -5.387231606e-11)
(0.01100000068 1.572769277e-09 -1.876657132e-10)
(0.01100000272 1.06138588e-09 -1.161511434e-09)
(0.01100000263 2.749532189e-09 -1.961470117e-09)
(0.01100000866 5.88639737e-09 -3.531193907e-09)
(0.01100000491 7.933414803e-09 -7.546374027e-09)
(0.01100002172 1.382371348e-08 -1.403528557e-08)
(0.01100001605 2.121159647e-08 -2.207205648e-08)
(0.01100007151 5.625926307e-08 -5.826552632e-08)
(0.01100006477 5.163712173e-08 -5.303194519e-08)
(0.01100018936 1.989234177e-07 -2.000571289e-07)
(0.0109999992 2.475948643e-10 7.187613221e-11)
(0.01100000091 -2.593894077e-09 1.397315403e-10)
(0.01100000093 -6.556996215e-10 -6.504704459e-10)
(0.01099999927 -4.992863623e-10 1.919028007e-10)
(0.0110000037 1.556142446e-09 -5.22088497e-10)
(0.01100000071 1.626927113e-09 -5.457443223e-10)
(0.0110000029 1.023148046e-09 -1.660501911e-09)
(0.0110000035 8.42380167e-10 -2.99009013e-09)
(0.011000011 3.203018084e-09 -4.720650094e-09)
(0.01100001101 1.32689613e-09 -7.383653214e-09)
(0.01100002707 6.767484165e-09 -1.430212943e-08)
(0.01100002955 6.895549452e-09 -1.94560618e-08)
(0.01100008245 1.779182989e-08 -4.474422588e-08)
(0.01100010265 1.195177828e-08 -4.468769165e-08)
(0.01100020657 5.394992807e-08 -1.278787011e-07)
(0.01100000007 -7.042369378e-10 1.658819541e-10)
(0.01099999805 -2.645300326e-10 -8.266368118e-10)
(0.01099999949 2.53223536e-10 -3.805630189e-10)
(0.01099999921 -6.94405046e-10 -4.68776109e-11)
(0.01100000125 2.992725604e-10 -6.349770609e-10)
(0.01099999902 1.14452687e-09 -1.441796018e-09)
(0.01100000238 -3.602982859e-09 -2.82810572e-09)
(0.01100000069 -1.539494253e-09 -3.371813827e-09)
(0.01100000557 3.35525071e-10 -4.74051246e-09)
(0.01100000154 -2.625792681e-09 -6.967619278e-09)
(0.01100001847 -5.274470041e-09 -1.665079783e-08)
(0.01100000402 -6.95469921e-09 -2.315329478e-08)
(0.01100005973 -2.534096952e-08 -5.05597988e-08)
(0.01100004073 -1.764598646e-08 -4.48819831e-08)
(0.01099999858 -8.760509493e-10 2.697361667e-10)
(0.01099999978 6.712817889e-10 -8.639877567e-10)
(0.01099999968 2.673705729e-10 -6.13259499e-10)
(0.01100000032 -3.862762289e-10 -9.690389296e-10)
(0.01100000084 -1.892080857e-09 -1.027945002e-11)
(0.01100000043 -1.219065655e-09 3.622384322e-10)
(0.01100000117 -1.615143075e-09 -8.338211544e-10)
(0.01099999806 -3.010429666e-09 -2.485743035e-09)
(0.01100000193 -4.476375792e-09 -4.089857455e-09)
(0.01099999616 -9.874636e-09 -7.097833886e-09)
(0.0110000112 -1.78715542e-08 -1.586020978e-08)
(0.01099998273 -3.012303401e-08 -2.323955338e-08)
(0.01100003873 -8.3587929e-08 -5.660254812e-08)
(0.01099995594 -8.102993297e-08 -4.914721447e-08)
(0.01100000095 1.596210951e-09 -8.332800603e-10)
(0.0110000001 7.513336644e-10 5.856544043e-11)
(0.01100000024 2.366444585e-09 4.110929285e-10)
(0.01100000027 1.19166747e-10 -5.238953296e-10)
(0.01100000234 -1.300422767e-09 1.331248467e-09)
(0.01099999858 2.100394681e-10 -8.557450924e-10)
(0.01099999863 -1.406479641e-09 -2.799033916e-09)
(0.0109999942 -3.472713142e-09 -3.943017617e-09)
(0.01099999608 -5.511648149e-09 -4.042366685e-09)
(0.01099998786 -9.711861381e-09 -7.775696632e-09)
(0.01099999378 -1.449006763e-08 -1.39710846e-08)
(0.0109999391 -2.999646751e-08 -3.010393547e-08)
(0.01099997437 -7.422385354e-08 -7.429279997e-08)
(0.01099972347 -8.385965783e-08 -8.299529125e-08)
(0.01099999 -6.417764144e-07 -6.449108187e-07)
(0.01099999789 2.948634948e-10 -1.165012491e-09)
(0.01100000083 -1.408253246e-09 -2.768551736e-10)
(0.01100000004 1.655664908e-10 2.099682747e-11)
(0.01100000125 5.28616468e-10 1.147232133e-09)
(0.01100000197 3.329856399e-10 -3.694541557e-10)
(0.01099999811 -9.720482142e-10 -2.000015628e-09)
(0.0109999969 -1.685047087e-09 -1.411342038e-09)
(0.01099999456 -1.614350366e-09 -6.201022702e-10)
(0.01099999376 -1.335024079e-09 -1.468131285e-09)
(0.01099998751 -8.585809098e-09 -7.392737356e-09)
(0.01099998516 -1.569031698e-08 3.587788336e-11)
(0.01099993418 -3.874295755e-08 -2.842789153e-08)
(0.01099991449 -1.266212217e-07 -1.224122923e-08)
(0.01099955319 -1.828745791e-07 -9.732828224e-08)
(0.01099971921 -1.474806606e-06 -9.862260064e-07)
(0.01099999986 -2.596971572e-09 5.107631176e-10)
(0.0110000032 1.237452152e-09 -1.182684209e-09)
(0.01100000229 -3.573386094e-10 5.61481998e-10)
(0.01100000044 1.490947801e-10 1.149022376e-09)
(0.01099999839 -1.275264552e-09 8.657437696e-10)
(0.01099999784 -1.203253815e-09 5.110327094e-10)
(0.01099999679 -7.0912479e-10 6.953136477e-10)
(0.01099999656 1.137499171e-10 -2.275773877e-09)
(0.01099998954 -3.010712803e-10 -1.912993439e-09)
(0.01099997485 1.060352615e-09 -8.435415984e-09)
(0.01099995737 1.522543108e-09 6.39420225e-10)
(0.01099983914 -1.735295423e-12 -4.400471216e-08)
(0.01099971807 -5.76148369e-10 -5.744481882e-08)
(0.01099868836 -2.572079093e-09 -3.307721228e-07)
(0.01099884424 -2.568100476e-09 -3.323178407e-06)
(0.01100000145 3.198880423e-10 -8.692260857e-10)
(0.01100000227 4.627153099e-11 -1.023479231e-09)
(0.01100000019 1.496806243e-10 -6.668189835e-10)
(0.01099999961 -7.234410298e-10 1.836205406e-09)
(0.01099999861 3.307615299e-10 1.384151761e-09)
(0.01100000027 5.402647795e-10 -3.138261634e-10)
(0.01099999993 1.363940702e-09 -4.68787674e-10)
(0.01099999665 1.869044074e-09 -2.323773478e-09)
(0.01099999481 1.539265289e-09 -4.07960046e-09)
(0.01099998845 8.529651735e-09 -9.358478826e-09)
(0.01099998568 1.375602595e-08 2.389260143e-10)
(0.01099993536 3.815472767e-08 -2.774049741e-08)
(0.01099991431 1.249635521e-07 -1.245900955e-08)
(0.01099955419 1.810717669e-07 -9.751561629e-08)
(0.01099971783 1.4735214e-06 -9.864022709e-07)
(0.01100000084 2.097340352e-09 -5.646697464e-10)
(0.01100000039 2.316490117e-09 3.943558257e-10)
(0.01100000043 -9.154712542e-11 1.132541352e-10)
(0.01099999968 2.841702096e-09 6.844177079e-10)
(0.01099999849 7.228527713e-10 8.530442923e-10)
(0.01099999967 8.567309039e-10 1.142129909e-09)
(0.01100000027 1.067411536e-09 -1.663065872e-09)
(0.01099999727 2.975651845e-09 -2.513218353e-09)
(0.0109999989 4.801067447e-09 -2.497786871e-09)
(0.01099998898 8.914384875e-09 -8.955159601e-09)
(0.01099999229 1.411115366e-08 -1.377934708e-08)
(0.01099993776 2.873435783e-08 -3.058046694e-08)
(0.01099997246 7.247303858e-08 -7.288726913e-08)
(0.01099972136 8.055607378e-08 -8.153938289e-08)
(0.01099998925 6.431978884e-07 -6.442529225e-07)
(0.01100000245 -7.50731075e-10 3.390055544e-10)
(0.01099999911 -1.145328991e-09 3.469749008e-10)
(0.01099999834 -1.163837629e-09 6.026317944e-10)
(0.01099999973 -1.29910243e-09 -1.220611266e-09)
(0.01099999942 -9.468034953e-10 5.350354289e-10)
(0.01099999954 1.87807679e-10 1.975361571e-09)
(0.01100000109 1.0683914e-09 5.905265764e-10)
(0.01099999935 3.504443907e-09 -3.149726163e-09)
(0.01100000257 6.396915101e-09 -4.024480249e-09)
(0.0109999978 8.479078243e-09 -1.088111849e-08)
(0.01100000889 1.664606295e-08 -1.679290864e-08)
(0.01099998263 2.891775833e-08 -2.262366653e-08)
(0.01100003904 8.286838809e-08 -5.647930685e-08)
(0.01099995679 7.962665492e-08 -4.925424984e-08)
(0.0110001396 4.256978091e-07 -2.665800396e-07)
(0.01100000084 -1.167848441e-09 -9.90795669e-10)
(0.01100000105 -3.140089729e-09 -1.421060544e-10)
(0.01100000159 -2.542904463e-10 5.911803753e-10)
(0.01100000071 -1.365032724e-09 1.148697428e-10)
(0.01099999964 9.562842969e-10 1.372852885e-09)
(0.01100000103 1.450979357e-12 1.12342682e-09)
(0.01100000345 1.712637915e-09 8.357834446e-10)
(0.011000001 6.143428988e-10 4.226136253e-10)
(0.01100000581 1.360865474e-09 -3.441961835e-09)
(0.01100000253 3.223516592e-09 -8.294627392e-09)
(0.01100001554 6.917627433e-09 -1.52583432e-08)
(0.01100000328 8.514334107e-09 -2.103877043e-08)
(0.01100005828 2.618332182e-08 -5.126122809e-08)
(0.01100003962 2.144015107e-08 -4.456146689e-08)
(0.01100017517 1.073396018e-07 -1.614521448e-07)
(0.01100000049 -6.959838222e-10 6.240595029e-10)
(0.01099999698 -1.443067298e-09 8.422548577e-10)
(0.01100000194 8.629788506e-10 -3.29875581e-10)
(0.01099999869 2.410504324e-09 -1.654703084e-10)
(0.01100000262 2.361107738e-09 1.209773829e-09)
(0.01100000011 1.736369203e-10 1.446495669e-10)
(0.01100000267 4.020019993e-10 -1.083356299e-09)
(0.01100000018 -1.456062872e-09 -3.156991983e-09)
(0.01100000586 -1.554872322e-09 -4.233124466e-09)
(0.01099999701 -3.588300438e-09 -7.10838312e-09)
(0.01100001345 -4.602915851e-09 -1.348404994e-08)
(0.01099999325 -1.049165538e-08 -2.259178843e-08)
(0.0110000516 -2.277194277e-08 -6.158592742e-08)
(0.01099999324 -1.712997391e-08 -6.421049696e-08)
(0.01099999943 -2.102929917e-10 4.741056745e-10)
(0.01100000024 -1.04177719e-09 1.3776809e-09)
(0.01099999966 -4.504145394e-10 -8.5334041e-11)
(0.01100000107 3.354083668e-10 3.031876136e-11)
(0.01099999925 -8.493970391e-10 8.715723237e-10)
(0.01099999995 -1.402613176e-09 -4.333029845e-10)
(0.01099999883 -1.28071748e-09 -2.342261807e-10)
(0.01099999755 -2.708729019e-09 -2.359668321e-09)
(0.01100000185 -3.815669885e-09 -3.142265566e-09)
(0.01099999244 -9.254295964e-09 -6.414008677e-09)
(0.01100000748 -1.327693821e-08 -1.522411984e-08)
(0.01099997581 -3.038548191e-08 -2.733340218e-08)
(0.01100002603 -7.903593844e-08 -8.348792824e-08)
(0.01099987969 -8.972064068e-08 -9.21337503e-08)
(0.01099999974 1.03397142e-10 4.614236507e-10)
(0.01100000006 4.401468787e-10 2.242132886e-10)
(0.01099999893 2.313163537e-09 4.347497201e-10)
(0.01099999983 5.826171464e-10 1.480302425e-09)
(0.01099999956 -3.220590142e-10 3.420983615e-10)
(0.01099999882 -1.786941685e-09 -5.444452929e-10)
(0.01099999811 -1.051864621e-09 -1.485052747e-10)
(0.01099999437 -2.486566691e-09 -1.577209646e-09)
(0.0109999952 -2.837034638e-09 -1.562943591e-09)
(0.01099998613 -9.03189591e-09 -5.917709069e-09)
(0.01099998463 1.77390743e-09 -1.297503551e-08)
(0.01099993705 -2.718785264e-08 -3.715654917e-08)
(0.01099991486 -1.225218075e-08 -1.247193456e-07)
(0.01099955734 -9.748092232e-08 -1.821251317e-07)
(0.01099999951 5.739151993e-11 2.100218122e-10)
(0.01100000318 -2.864092593e-10 -5.857970279e-10)
(0.01099999926 -7.220159933e-10 1.093294593e-09)
(0.01099999901 1.399528266e-09 3.279302377e-10)
(0.01099999996 -5.209110133e-10 1.041115407e-09)
(0.01099999853 1.110892838e-09 -1.411288067e-10)
(0.01099999707 -1.17612559e-09 -4.650817715e-10)
(0.0109999965 -5.076616575e-10 -1.019454853e-09)
(0.01099999312 -1.487837294e-09 -4.712742135e-10)
(0.01099999682 -6.601620102e-09 -5.666336407e-09)
(0.01099997761 -1.048910202e-09 1.254143664e-09)
(0.01100000301 -4.284147475e-08 -4.138845712e-08)
(0.01099974871 -6.6589682e-08 -6.696521127e-08)
(0.01099966391 -3.419981539e-07 -3.399031336e-07)
(0.01099810926 -3.195396294e-06 -3.194052053e-06)
(0.01100000131 -2.403167807e-10 1.021625095e-11)
(0.01100000064 3.080193043e-10 -1.371168651e-10)
(0.01100000096 -3.005934139e-10 -2.80785963e-10)
(0.01100000132 -3.570225144e-10 6.985287226e-10)
(0.01099999915 -2.951161741e-10 3.341661002e-11)
(0.01099999852 7.810716247e-10 -4.470898547e-10)
(0.0109999964 -3.921278195e-10 -1.610088605e-09)
(0.01099999537 -1.174708369e-09 -2.167339242e-09)
(0.01099998786 -1.667520684e-12 -4.610880387e-10)
(0.01099998907 6.637287733e-10 -4.151065328e-09)
(0.01099993812 1.980455435e-10 6.58269096e-09)
(0.01099991997 -3.817384298e-10 -3.573370849e-08)
(0.01099924724 1.578404685e-11 -1.152105971e-07)
(0.01099817759 -1.407880528e-09 -4.885526788e-07)
(0.01099174658 -2.077735673e-09 -1.504076502e-05)
(0.01100000089 -6.560256859e-10 4.064521779e-10)
(0.01100000206 -8.659376835e-10 -1.041313079e-09)
(0.0109999989 -6.85882342e-10 3.317371839e-10)
(0.01100000047 -8.056676564e-10 2.937813908e-10)
(0.01099999891 6.460424733e-10 -6.769973729e-10)
(0.01099999896 -1.123083032e-10 -6.906171565e-10)
(0.01099999908 -3.437401431e-10 -2.551624848e-10)
(0.0109999962 1.416926553e-09 -2.611667108e-09)
(0.01099999498 2.226958696e-09 -5.134707397e-10)
(0.01100000209 7.120205108e-09 -6.399611169e-09)
(0.01099997505 -6.469983563e-10 -2.562648614e-10)
(0.01100000063 4.116520261e-08 -4.255455269e-08)
(0.01099974601 6.561248479e-08 -6.626307284e-08)
(0.01099966168 3.398512338e-07 -3.402365256e-07)
(0.01099810969 3.191123438e-06 -3.193376746e-06)
(0.01100000012 1.463676333e-09 -4.671136193e-11)
(0.01100000056 2.467440612e-09 -4.449738527e-10)
(0.0109999995 1.194608692e-09 1.901377999e-10)
(0.01099999925 1.570994174e-09 2.605015222e-10)
(0.01099999954 4.359003377e-10 -1.051482154e-10)
(0.01099999688 1.922481021e-09 -2.336406677e-11)
(0.01099999935 2.389275151e-09 -3.527925861e-10)
(0.01099999699 3.367650109e-09 -1.281772619e-09)
(0.01099999532 2.507719569e-09 -2.553277094e-09)
(0.01099998742 5.847170734e-09 -6.828824022e-09)
(0.0109999858 -1.749829176e-09 -1.425449043e-08)
(0.01099993281 2.726240398e-08 -3.875292832e-08)
(0.01099991347 1.066149495e-08 -1.241965558e-07)
(0.01099955158 9.401242238e-08 -1.813958543e-07)
(0.0109997155 9.851360248e-07 -1.474020316e-06)
(0.01100000051 -1.695137266e-10 -2.72145049e-10)
(0.0109999984 2.407599078e-10 -1.622590722e-09)
(0.01099999901 -2.173779157e-10 -1.272656946e-09)
(0.01100000058 -1.085183799e-09 -1.375955027e-09)
(0.01100000066 3.638773042e-10 -1.204563157e-09)
(0.01099999751 8.823687916e-10 1.37304578e-09)
(0.01099999863 1.469012477e-09 -6.420969211e-10)
(0.01099999729 3.077578453e-09 -2.083058765e-09)
(0.01100000078 3.715860334e-09 -3.18802577e-09)
(0.01099999339 8.425635134e-09 -6.534565216e-09)
(0.01100000684 1.339098816e-08 -1.509312423e-08)
(0.01099997451 2.955593122e-08 -2.62375932e-08)
(0.01100002501 7.646711791e-08 -8.133152341e-08)
(0.0109998787 8.748455046e-08 -9.086973519e-08)
(0.01100011479 6.715100097e-07 -5.140325045e-07)
(0.0110000007 -9.861813787e-10 9.67171606e-10)
(0.01100000231 -6.038010988e-10 7.404966215e-10)
(0.01100000065 7.011363044e-10 -6.076428978e-10)
(0.01100000049 5.251220053e-10 4.707994159e-10)
(0.01099999851 9.835213794e-11 5.321434085e-10)
(0.01099999843 -8.717761078e-10 -8.232659066e-10)
(0.01100000211 1.420712929e-09 1.239544188e-10)
(0.01099999995 3.48853129e-09 -1.578506351e-09)
(0.01100000032 2.025615522e-09 -4.657762196e-09)
(0.01099999781 3.504655301e-09 -6.703070586e-09)
(0.01100001331 5.651260688e-09 -1.500916609e-08)
(0.01099999093 8.887279761e-09 -2.23471177e-08)
(0.01100004984 2.261671772e-08 -6.229993594e-08)
(0.01099999203 1.519786977e-08 -6.535728658e-08)
(0.0110001679 1.514348128e-07 -2.500164882e-07)
(0.01099999948 2.659448838e-09 2.074718893e-10)
(0.01100000133 1.335454991e-09 -6.973299373e-10)
(0.01099999908 -2.255498585e-09 2.322666289e-09)
(0.01099999918 2.541986731e-10 4.362413657e-10)
(0.01100000301 3.921499986e-10 -1.071311291e-09)
(0.01099999972 1.394582677e-09 -4.948190512e-10)
(0.01099999944 8.116705458e-10 -4.184671614e-10)
(0.01100000045 1.31608305e-09 -9.780843914e-10)
(0.01100000058 -1.8713154e-09 3.101114949e-11)
(0.01099999085 -4.076003408e-09 -7.861113329e-10)
(0.01099999942 -5.874610771e-09 -4.747647759e-10)
(0.01099995729 -1.07696038e-08 -7.30416179e-10)
(0.01100000948 -4.280067745e-08 -2.04542095e-09)
(0.01099985062 -4.445068204e-08 -1.35914732e-09)
(0.01099999882 1.485126152e-11 8.633904888e-10)
(0.01099999942 4.09826975e-10 -7.171746675e-10)
(0.01100000038 1.081113082e-09 1.520663363e-09)
(0.0109999989 2.390146585e-10 2.109712655e-10)
(0.01099999907 -1.39688773e-10 -1.588589551e-09)
(0.0109999987 6.608512535e-11 -1.560639516e-10)
(0.01099999851 7.747606218e-10 -4.649670506e-10)
(0.01099999616 -1.930814556e-09 -4.582048683e-10)
(0.01099999722 -2.421850219e-09 -6.722932974e-10)
(0.01099998402 -1.069734463e-08 -1.196354343e-09)
(0.0109999863 -1.781739001e-08 2.002917385e-10)
(0.01099992161 -4.376575561e-08 -1.586141387e-09)
(0.01099994652 -1.440158188e-07 -1.423449943e-09)
(0.01099956493 -1.972084045e-07 -7.349420389e-10)
(0.01100000017 -4.509865087e-10 9.971166801e-10)
(0.01100000043 -1.178864344e-11 2.220562137e-09)
(0.01099999944 1.519541776e-09 1.519673212e-09)
(0.011 2.081034348e-09 3.344532469e-10)
(0.01099999995 -6.415849464e-10 -7.578298614e-10)
(0.01099999553 -1.403600089e-09 2.44690249e-09)
(0.01099999693 -4.986124892e-10 4.968163914e-10)
(0.01099999252 -9.931673985e-10 -1.49821926e-09)
(0.01099998846 -2.00858073e-09 5.309683299e-10)
(0.01099997469 -9.04198266e-09 -2.758635731e-10)
(0.01099995769 3.156580871e-09 -5.134411748e-10)
(0.01099983964 -4.386614506e-08 -3.047670297e-10)
(0.01099971773 -5.720649362e-08 -2.429696425e-10)
(0.01099868659 -3.316460769e-07 1.35168363e-09)
(0.01099999877 -5.925669377e-10 -5.074622213e-11)
(0.01099999805 -9.451939831e-10 -4.05569369e-10)
(0.01100000067 5.039637092e-11 -2.672265247e-09)
(0.01099999774 5.144796433e-10 -1.113835292e-09)
(0.01099999783 6.372371097e-11 -1.029168464e-09)
(0.01099999765 1.924732278e-12 -1.397359863e-10)
(0.01099999728 -1.61255415e-09 1.411385118e-09)
(0.01099999576 -2.204623747e-09 -1.524820995e-09)
(0.01099998775 -4.905194764e-10 -4.700096844e-10)
(0.01099999086 -5.358398149e-09 9.773807515e-10)
(0.01099994033 5.787501843e-09 8.511497194e-10)
(0.01099991893 -3.784238537e-08 1.133412937e-09)
(0.01099924969 -1.165787125e-07 -4.736716354e-10)
(0.01099817771 -4.900148814e-07 2.753254214e-10)
(0.01099999969 -1.412028225e-09 -1.107324712e-09)
(0.01100000156 -1.915806361e-09 -1.619360965e-10)
(0.01100000107 4.647338873e-10 -4.812317537e-10)
(0.01100000044 -1.60062349e-09 -2.125906651e-09)
(0.01099999971 -1.944283689e-09 -1.533612825e-09)