/*--------------------------------*- C++ -*----------------------------------*\
| =========                 |                                                 |
| \\      /  F ield         | OpenFOAM: The Open Source CFD Toolbox           |
|  \\    /   O peration     | Version:  4.x                                   |
|   \\  /    A nd           | Web:      www.OpenFOAM.org                      |
|    \\/     M anipulation  |                                                 |
\*---------------------------------------------------------------------------*/
FoamFile
{
    version     2.0;
    format      ascii;
    class       volScalarField;
    location    "3000";
    object      X_CO2;
}
// * * * * * * * * * * * * * * * * * * * * * * * * * * * * * * * * * * * * * //

dimensions      [0 0 0 0 0 0 0];

internalField   nonuniform List<scalar> 
1175
(
0.03999466429
0.03999466429
0.0399946643
0.03999466431
0.03999466434
0.03999466445
0.03999466483
0.03999466607
0.03999466998
0.03999468172
0.03999471504
0.0399948033
0.0399950184
0.03999549268
0.03999642449
0.03999466429
0.0399946643
0.0399946643
0.03999466431
0.03999466435
0.0399946645
0.03999466501
0.03999466674
0.0399946724
0.03999469009
0.03999474242
0.03999488664
0.03999525024
0.03999606953
0.03999767922
0.0399946643
0.0399946643
0.0399946643
0.03999466431
0.03999466437
0.03999466457
0.03999466532
0.03999466793
0.03999467687
0.03999470611
0.03999479675
0.03999505848
0.03999574638
0.03999734183
0.04000048425
0.0399946643
0.0399946643
0.0399946643
0.03999466432
0.03999466439
0.03999466465
0.03999466564
0.03999466922
0.03999468189
0.03999472497
0.03999486419
0.03999528424
0.03999643679
0.03999920249
0.04000468932
0.0399946643
0.0399946643
0.0399946643
0.03999466432
0.0399946644
0.03999466469
0.03999466579
0.03999466983
0.03999468437
0.03999473482
0.03999490182
0.03999542036
0.03999688999
0.04000052821
0.04000783807
0.0399946643
0.0399946643
0.0399946643
0.03999466432
0.03999466439
0.03999466465
0.03999466564
0.03999466922
0.03999468189
0.03999472497
0.03999486419
0.03999528424
0.03999643677
0.03999920245
0.04000468923
0.0399946643
0.0399946643
0.0399946643
0.03999466431
0.03999466437
0.03999466457
0.03999466532
0.03999466793
0.03999467687
0.03999470611
0.03999479675
0.03999505847
0.03999574637
0.0399973418
0.04000048417
0.03999466429
0.0399946643
0.0399946643
0.03999466431
0.03999466435
0.0399946645
0.03999466501
0.03999466674
0.0399946724
0.03999469009
0.03999474242
0.03999488664
0.03999525023
0.0399960695
0.03999767915
0.03999466429
0.03999466429
0.0399946643
0.03999466431
0.03999466434
0.03999466445
0.03999466483
0.03999466607
0.03999466998
0.03999468172
0.03999471504
0.0399948033
0.03999501839
0.03999549265
0.03999642442
0.03999466429
0.0399946643
0.0399946643
0.03999466431
0.03999466435
0.0399946645
0.03999466501
0.03999466674
0.0399946724
0.03999469009
0.03999474242
0.03999488664
0.03999525025
0.03999606956
0.0399946643
0.0399946643
0.0399946643
0.03999466431
0.03999466437
0.03999466456
0.03999466528
0.03999466782
0.03999467653
0.03999470526
0.03999479502
0.0399950565
0.03999574957
0.03999736706
0.0400005556
0.0399946643
0.0399946643
0.0399946643
0.03999466432
0.03999466439
0.03999466468
0.03999466577
0.03999466984
0.03999468459
0.03999473615
0.03999490776
0.03999544104
0.03999694452
0.04000062587
0.04000795885
0.0399946643
0.0399946643
0.0399946643
0.03999466433
0.03999466442
0.03999466481
0.03999466631
0.03999467215
0.03999469429
0.03999477586
0.03999506379
0.03999601854
0.03999890021
0.04000640504
0.04002172664
0.0399946643
0.0399946643
0.0399946643
0.03999466433
0.03999466444
0.03999466486
0.03999466657
0.0399946733
0.0399946995
0.03999479895
0.03999516384
0.03999643439
0.04000050641
0.04001184474
0.04003606833
0.0399946643
0.0399946643
0.0399946643
0.03999466433
0.03999466442
0.03999466481
0.03999466631
0.03999467215
0.03999469429
0.03999477586
0.03999506379
0.03999601853
0.03999890017
0.04000640492
0.04002172636
0.0399946643
0.0399946643
0.0399946643
0.03999466432
0.03999466439
0.03999466468
0.03999466577
0.03999466984
0.03999468459
0.03999473615
0.03999490775
0.03999544103
0.03999694449
0.04000062577
0.0400079586
0.0399946643
0.0399946643
0.0399946643
0.03999466431
0.03999466437
0.03999466456
0.03999466528
0.03999466782
0.03999467653
0.03999470526
0.03999479502
0.03999505649
0.03999574955
0.03999736698
0.04000055538
0.03999466429
0.0399946643
0.0399946643
0.03999466431
0.03999466435
0.0399946645
0.03999466501
0.03999466674
0.0399946724
0.03999469009
0.03999474242
0.03999488664
0.03999525023
0.0399960695
0.03999767915
0.0399946643
0.0399946643
0.0399946643
0.03999466431
0.03999466437
0.03999466457
0.03999466532
0.03999466793
0.03999467687
0.03999470611
0.03999479676
0.03999505848
0.03999574641
0.03999734191
0.0399946643
0.0399946643
0.0399946643
0.03999466432
0.03999466439
0.03999466468
0.03999466577
0.03999466984
0.03999468459
0.03999473615
0.03999490776
0.03999544105
0.03999694455
0.04000062601
0.0399946643
0.0399946643
0.0399946643
0.03999466433
0.03999466444
0.03999466488
0.03999466663
0.03999467357
0.03999470048
0.03999480173
0.03999516687
0.0399964027
0.04000020121
0.0400102306
0.04003079237
0.0399946643
0.0399946643
0.03999466431
0.03999466434
0.03999466448
0.03999466509
0.03999466761
0.0399946781
0.03999472119
0.03999489466
0.0399955713
0.03999807771
0.04000659947
0.04003154268
0.04008611436
0.0399946643
0.0399946643
0.03999466431
0.03999466434
0.0399946645
0.03999466519
0.03999466811
0.03999468055
0.0399947334
0.0399949558
0.03999587534
0.03999955463
0.04001339426
0.04005938376
0.04017358919
0.0399946643
0.0399946643
0.03999466431
0.03999466434
0.03999466448
0.03999466509
0.03999466761
0.0399946781
0.03999472119
0.03999489466
0.03999557129
0.03999807768
0.04000659933
0.04003154215
0.04008611293
0.0399946643
0.0399946643
0.0399946643
0.03999466433
0.03999466444
0.03999466488
0.03999466663
0.03999467357
0.03999470047
0.03999480173
0.03999516686
0.03999640267
0.04000020111
0.04001023019
0.04003079111
0.0399946643
0.0399946643
0.0399946643
0.03999466432
0.03999466439
0.03999466468
0.03999466577
0.03999466984
0.03999468459
0.03999473615
0.03999490776
0.03999544103
0.03999694449
0.04000062577
0.0400079586
0.0399946643
0.0399946643
0.0399946643
0.03999466431
0.03999466437
0.03999466457
0.03999466532
0.03999466793
0.03999467687
0.03999470611
0.03999479675
0.03999505847
0.03999574637
0.0399973418
0.04000048418
0.0399946643
0.0399946643
0.0399946643
0.03999466432
0.03999466439
0.03999466465
0.03999466564
0.03999466922
0.03999468189
0.03999472497
0.0399948642
0.03999528425
0.03999643683
0.03999920262
0.0399946643
0.0399946643
0.0399946643
0.03999466433
0.03999466442
0.03999466481
0.03999466631
0.03999467215
0.03999469429
0.03999477587
0.03999506379
0.03999601856
0.0399989003
0.04000640538
0.0399946643
0.0399946643
0.03999466431
0.03999466434
0.03999466448
0.03999466509
0.03999466761
0.0399946781
0.03999472119
0.03999489466
0.03999557131
0.03999807774
0.04000659966
0.04003154367
0.0399946643
0.0399946643
0.03999466431
0.03999466435
0.03999466455
0.0399946654
0.03999466917
0.03999468577
0.03999475897
0.0399950801
0.03999646833
0.04000228548
0.04002518333
0.04010443632
0.04030654422
0.0399946643
0.0399946643
0.03999466431
0.03999466436
0.03999466458
0.03999466556
0.03999466999
0.03999469022
0.03999478359
0.03999521954
0.03999727283
0.04000695798
0.04005187332
0.04024704394
0.04092323889
0.0399946643
0.0399946643
0.03999466431
0.03999466435
0.03999466455
0.0399946654
0.03999466917
0.03999468577
0.03999475897
0.0399950801
0.03999646832
0.04000228541
0.0400251829
0.04010443417
0.04030653556
0.0399946643
0.0399946643
0.03999466431
0.03999466434
0.03999466448
0.03999466509
0.03999466761
0.0399946781
0.03999472119
0.03999489466
0.03999557129
0.03999807769
0.04000659936
0.04003154223
0.040086113
0.0399946643
0.0399946643
0.0399946643
0.03999466433
0.03999466442
0.03999466481
0.03999466631
0.03999467215
0.03999469429
0.03999477586
0.03999506379
0.03999601854
0.03999890019
0.04000640498
0.04002172643
0.0399946643
0.0399946643
0.0399946643
0.03999466432
0.03999466439
0.03999466465
0.03999466564
0.03999466922
0.03999468189
0.03999472497
0.03999486419
0.03999528424
0.03999643679
0.03999920247
0.04000468926
0.0399946643
0.0399946643
0.0399946643
0.03999466432
0.0399946644
0.03999466469
0.03999466579
0.03999466983
0.03999468437
0.03999473482
0.03999490183
0.03999542038
0.03999689006
0.0400005284
0.0399946643
0.0399946643
0.0399946643
0.03999466433
0.03999466444
0.03999466486
0.03999466657
0.0399946733
0.0399946995
0.03999479895
0.03999516385
0.03999643444
0.04000050658
0.0400118453
0.0399946643
0.0399946643
0.03999466431
0.03999466434
0.0399946645
0.03999466519
0.03999466811
0.03999468055
0.0399947334
0.0399949558
0.03999587536
0.03999955473
0.04001339477
0.04005938596
0.0399946643
0.0399946643
0.03999466431
0.03999466436
0.03999466458
0.03999466556
0.03999466999
0.03999469022
0.03999478359
0.03999521955
0.03999727285
0.04000695815
0.04005187452
0.04024705264
0.0399946643
0.0399946643
0.03999466431
0.03999466437
0.03999466461
0.03999466575
0.03999467103
0.03999469615
0.03999481905
0.03999544279
0.0399987585
0.04001742128
0.04012976178
0.04085807048
0.0459905917
0.0399946643
0.0399946643
0.03999466431
0.03999466436
0.03999466458
0.03999466556
0.03999466999
0.03999469022
0.03999478359
0.03999521955
0.03999727284
0.04000695804
0.04005187357
0.04024704484
0.04092324075
0.0399946643
0.0399946643
0.03999466431
0.03999466434
0.0399946645
0.03999466519
0.03999466811
0.03999468055
0.0399947334
0.0399949558
0.03999587534
0.03999955464
0.04001339433
0.04005938397
0.04017358945
0.0399946643
0.0399946643
0.0399946643
0.03999466433
0.03999466444
0.03999466486
0.03999466657
0.0399946733
0.0399946995
0.03999479895
0.03999516384
0.0399964344
0.04000050643
0.04001184479
0.04003606834
0.0399946643
0.0399946643
0.0399946643
0.03999466432
0.0399946644
0.03999466469
0.03999466579
0.03999466983
0.03999468437
0.03999473482
0.03999490182
0.03999542036
0.03999689
0.04000052822
0.04000783806
0.0399946643
0.0399946643
0.0399946643
0.03999466432
0.03999466439
0.03999466465
0.03999466564
0.03999466922
0.03999468189
0.03999472497
0.0399948642
0.03999528426
0.03999643683
0.03999920261
0.0399946643
0.0399946643
0.0399946643
0.03999466433
0.03999466442
0.03999466481
0.03999466631
0.03999467215
0.03999469429
0.03999477587
0.0399950638
0.03999601857
0.03999890032
0.04000640535
0.0399946643
0.0399946643
0.03999466431
0.03999466434
0.03999466448
0.03999466509
0.03999466761
0.0399946781
0.03999472119
0.03999489466
0.03999557132
0.03999807778
0.04000659974
0.04003154353
0.0399946643
0.0399946643
0.03999466431
0.03999466435
0.03999466455
0.0399946654
0.03999466917
0.03999468577
0.03999475897
0.0399950801
0.03999646836
0.04000228559
0.0400251838
0.04010443794
0.0399946643
0.0399946643
0.03999466431
0.03999466436
0.03999466458
0.03999466556
0.03999466999
0.03999469022
0.0399947836
0.03999521955
0.03999727287
0.04000695823
0.04005187483
0.04024705346
0.0399946643
0.0399946643
0.03999466431
0.03999466435
0.03999466455
0.0399946654
0.03999466917
0.03999468577
0.03999475897
0.0399950801
0.03999646835
0.04000228554
0.04002518363
0.04010443771
0.0399946643
0.0399946643
0.03999466431
0.03999466434
0.03999466448
0.03999466509
0.03999466761
0.0399946781
0.03999472119
0.03999489466
0.0399955713
0.03999807773
0.04000659957
0.04003154301
0.04008611544
0.0399946643
0.0399946643
0.0399946643
0.03999466433
0.03999466442
0.03999466481
0.03999466631
0.03999467215
0.03999469429
0.03999477586
0.03999506379
0.03999601854
0.03999890023
0.04000640511
0.04002172674
0.0399946643
0.0399946643
0.0399946643
0.03999466432
0.03999466439
0.03999466465
0.03999466564
0.03999466922
0.03999468189
0.03999472497
0.03999486419
0.03999528424
0.0399964368
0.03999920251
0.04000468933
0.0399946643
0.0399946643
0.0399946643
0.03999466431
0.03999466437
0.03999466457
0.03999466532
0.03999466794
0.03999467687
0.03999470611
0.03999479676
0.03999505849
0.03999574641
0.0399973419
0.0399946643
0.0399946643
0.0399946643
0.03999466432
0.03999466439
0.03999466468
0.03999466577
0.03999466984
0.03999468459
0.03999473615
0.03999490776
0.03999544106
0.03999694458
0.040000626
0.0399946643
0.0399946643
0.0399946643
0.03999466433
0.03999466444
0.03999466488
0.03999466663
0.03999467357
0.03999470048
0.03999480173
0.03999516688
0.03999640273
0.04000020131
0.04001023078
0.0399946643
0.0399946643
0.03999466431
0.03999466434
0.03999466448
0.03999466509
0.03999466761
0.0399946781
0.03999472119
0.03999489466
0.03999557132
0.03999807778
0.04000659974
0.04003154348
0.0399946643
0.0399946643
0.03999466431
0.03999466434
0.0399946645
0.03999466519
0.03999466811
0.03999468055
0.0399947334
0.0399949558
0.03999587536
0.03999955474
0.0400133948
0.04005938588
0.0399946643
0.0399946643
0.03999466431
0.03999466434
0.03999466448
0.03999466509
0.03999466761
0.0399946781
0.03999472119
0.03999489466
0.03999557131
0.03999807776
0.04000659968
0.04003154333
0.0399946643
0.0399946643
0.0399946643
0.03999466433
0.03999466444
0.03999466488
0.03999466663
0.03999467357
0.03999470048
0.03999480173
0.03999516687
0.03999640272
0.04000020127
0.04001023079
0.0399946643
0.0399946643
0.0399946643
0.03999466432
0.03999466439
0.03999466468
0.03999466577
0.03999466984
0.03999468459
0.03999473615
0.03999490776
0.03999544105
0.03999694454
0.04000062592
0.04000795901
0.0399946643
0.0399946643
0.0399946643
0.03999466431
0.03999466437
0.03999466457
0.03999466532
0.03999466793
0.03999467687
0.03999470611
0.03999479676
0.03999505848
0.03999574639
0.03999734186
0.04000048429
0.03999466429
0.0399946643
0.0399946643
0.03999466431
0.03999466435
0.0399946645
0.03999466501
0.03999466674
0.0399946724
0.0399946901
0.03999474242
0.03999488665
0.03999525026
0.03999606955
0.0399946643
0.0399946643
0.0399946643
0.03999466431
0.03999466437
0.03999466456
0.03999466528
0.03999466782
0.03999467654
0.03999470526
0.03999479503
0.03999505651
0.03999574959
0.03999736708
0.0399946643
0.0399946643
0.0399946643
0.03999466432
0.03999466439
0.03999466468
0.03999466577
0.03999466984
0.03999468459
0.03999473615
0.03999490776
0.03999544106
0.03999694457
0.04000062598
0.0399946643
0.0399946643
0.0399946643
0.03999466433
0.03999466442
0.03999466481
0.03999466631
0.03999467215
0.03999469429
0.03999477587
0.0399950638
0.03999601857
0.03999890032
0.04000640533
0.0399946643
0.0399946643
0.0399946643
0.03999466433
0.03999466444
0.03999466486
0.03999466657
0.0399946733
0.0399946995
0.03999479895
0.03999516385
0.03999643444
0.04000050659
0.04001184526
0.0399946643
0.0399946643
0.0399946643
0.03999466433
0.03999466442
0.03999466481
0.03999466631
0.03999467215
0.03999469429
0.03999477587
0.0399950638
0.03999601857
0.03999890031
0.0400064053
0.0399946643
0.0399946643
0.0399946643
0.03999466432
0.03999466439
0.03999466468
0.03999466577
0.03999466984
0.03999468459
0.03999473615
0.03999490776
0.03999544105
0.03999694456
0.04000062597
0.03999466429
0.0399946643
0.0399946643
0.03999466431
0.03999466437
0.03999466456
0.03999466528
0.03999466782
0.03999467654
0.03999470526
0.03999479502
0.0399950565
0.03999574958
0.03999736709
0.03999466429
0.0399946643
0.0399946643
0.03999466431
0.03999466435
0.0399946645
0.03999466501
0.03999466674
0.0399946724
0.03999469009
0.03999474242
0.03999488664
0.03999525025
0.03999606954
0.03999767926
0.03999466429
0.03999466429
0.0399946643
0.03999466431
0.03999466434
0.03999466445
0.03999466483
0.03999466607
0.03999466998
0.03999468172
0.03999471504
0.03999480331
0.0399950184
0.03999549268
0.03999466429
0.0399946643
0.0399946643
0.03999466431
0.03999466435
0.0399946645
0.03999466501
0.03999466674
0.0399946724
0.0399946901
0.03999474242
0.03999488665
0.03999525025
0.03999606955
0.0399946643
0.0399946643
0.0399946643
0.03999466431
0.03999466437
0.03999466457
0.03999466532
0.03999466794
0.03999467687
0.03999470611
0.03999479676
0.03999505849
0.03999574641
0.0399973419
0.0399946643
0.0399946643
0.0399946643
0.03999466432
0.03999466439
0.03999466465
0.03999466564
0.03999466922
0.03999468189
0.03999472497
0.0399948642
0.03999528426
0.03999643684
0.03999920261
0.0399946643
0.0399946643
0.0399946643
0.03999466432
0.0399946644
0.03999466469
0.03999466579
0.03999466983
0.03999468438
0.03999473482
0.03999490183
0.03999542038
0.03999689007
0.04000052839
0.0399946643
0.0399946643
0.0399946643
0.03999466432
0.03999466439
0.03999466465
0.03999466564
0.03999466922
0.03999468189
0.03999472497
0.0399948642
0.03999528426
0.03999643684
0.03999920262
0.0399946643
0.0399946643
0.0399946643
0.03999466431
0.03999466437
0.03999466457
0.03999466532
0.03999466794
0.03999467687
0.03999470611
0.03999479676
0.03999505849
0.03999574641
0.03999734189
0.03999466429
0.0399946643
0.0399946643
0.03999466431
0.03999466435
0.0399946645
0.03999466501
0.03999466674
0.0399946724
0.0399946901
0.03999474242
0.03999488664
0.03999525025
0.03999606955
0.03999466429
0.03999466429
0.0399946643
0.03999466431
0.03999466434
0.03999466445
0.03999466483
0.03999466607
0.03999466998
0.03999468172
0.03999471504
0.0399948033
0.0399950184
0.03999549269
)
;

boundaryField
{
    top
    {
        type            calculated;
        value           nonuniform List<scalar> 
134
(
0.03999466429
0.03999466429
0.0399946643
0.0399946643
0.0399946643
0.0399946643
0.0399946643
0.03999466429
0.03999466429
0.03999466429
0.0399946643
0.0399946643
0.0399946643
0.0399946643
0.0399946643
0.0399946643
0.0399946643
0.03999466429
0.0399946643
0.0399946643
0.0399946643
0.0399946643
0.0399946643
0.0399946643
0.0399946643
0.0399946643
0.0399946643
0.03999466431
0.03999466431
0.03999466431
0.03999466432
0.03999466432
0.03999466432
0.03999466431
0.03999466431
0.03999466431
0.03999466434
0.03999466435
0.03999466437
0.03999466439
0.0399946644
0.03999466439
0.03999466437
0.03999466435
0.03999466434
0.03999466445
0.0399946645
0.03999466457
0.03999466465
0.03999466469
0.03999466465
0.03999466457
0.0399946645
0.03999466445
0.03999466483
0.03999466501
0.03999466532
0.03999466564
0.03999466579
0.03999466564
0.03999466532
0.03999466501
0.03999466483
0.03999466607
0.03999466674
0.03999466793
0.03999466922
0.03999466983
0.03999466922
0.03999466793
0.03999466674
0.03999466607
0.03999466998
0.0399946724
0.03999467687
0.03999468189
0.03999468437
0.03999468189
0.03999467687
0.0399946724
0.03999466998
0.03999468172
0.03999469009
0.03999470611
0.03999472497
0.03999473482
0.03999472497
0.03999470611
0.03999469009
0.03999468172
0.03999471504
0.03999474242
0.03999479675
0.03999486419
0.03999490182
0.03999486419
0.03999479676
0.03999474242
0.03999471504
0.0399948033
0.03999488664
0.03999505847
0.03999528424
0.03999542036
0.03999528424
0.03999505848
0.03999488664
0.0399948033
0.03999501839
0.03999525023
0.03999574637
0.03999643679
0.03999689
0.0399964368
0.03999574639
0.03999525025
0.0399950184
0.03999549265
0.0399960695
0.0399973418
0.03999920247
0.04000052822
0.03999920251
0.03999734186
0.03999606954
0.03999549269
0.03999642442
0.03999767915
0.04000048418
0.04000468926
0.04000783806
0.04000468933
0.04000048429
0.03999767926
)
;
    }
    bottom
    {
        type            calculated;
        value           nonuniform List<scalar> 
127
(
0.03999466429
0.03999466429
0.0399946643
0.0399946643
0.0399946643
0.0399946643
0.0399946643
0.03999466429
0.03999466429
0.03999466429
0.0399946643
0.0399946643
0.0399946643
0.0399946643
0.0399946643
0.0399946643
0.0399946643
0.03999466429
0.0399946643
0.0399946643
0.0399946643
0.0399946643
0.0399946643
0.0399946643
0.0399946643
0.0399946643
0.0399946643
0.03999466431
0.03999466431
0.03999466431
0.03999466432
0.03999466432
0.03999466432
0.03999466431
0.03999466431
0.03999466431
0.03999466434
0.03999466435
0.03999466437
0.03999466439
0.0399946644
0.03999466439
0.03999466437
0.03999466435
0.03999466434
0.03999466445
0.0399946645
0.03999466457
0.03999466465
0.03999466469
0.03999466465
0.03999466457
0.0399946645
0.03999466445
0.03999466483
0.03999466501
0.03999466532
0.03999466564
0.03999466579
0.03999466564
0.03999466532
0.03999466501
0.03999466483
0.03999466607
0.03999466674
0.03999466793
0.03999466922
0.03999466983
0.03999466922
0.03999466794
0.03999466674
0.03999466607
0.03999466998
0.0399946724
0.03999467687
0.03999468189
0.03999468437
0.03999468189
0.03999467687
0.0399946724
0.03999466998
0.03999468172
0.03999469009
0.03999470611
0.03999472497
0.03999473482
0.03999472497
0.03999470611
0.0399946901
0.03999468172
0.03999471504
0.03999474242
0.03999479676
0.0399948642
0.03999490183
0.0399948642
0.03999479676
0.03999474242
0.03999471504
0.0399948033
0.03999488664
0.03999505848
0.03999528425
0.03999542038
0.03999528426
0.03999505849
0.03999488665
0.03999480331
0.0399950184
0.03999525025
0.03999574641
0.03999643683
0.03999689006
0.03999643683
0.03999574641
0.03999525026
0.0399950184
0.03999549268
0.03999606956
0.03999734191
0.03999920262
0.0400005284
0.03999920261
0.0399973419
0.03999606955
0.03999549268
0.03999642449
)
;
    }
    side-walls
    {
        type            calculated;
        value           nonuniform List<scalar> 
261
(
0.03999466429
0.03999466429
0.0399946643
0.0399946643
0.0399946643
0.0399946643
0.0399946643
0.03999466429
0.03999466429
0.03999466429
0.0399946643
0.0399946643
0.0399946643
0.0399946643
0.0399946643
0.0399946643
0.0399946643
0.03999466429
0.0399946643
0.0399946643
0.0399946643
0.0399946643
0.0399946643
0.0399946643
0.0399946643
0.0399946643
0.0399946643
0.03999466431
0.03999466431
0.03999466431
0.03999466432
0.03999466432
0.03999466432
0.03999466431
0.03999466431
0.03999466431
0.03999466434
0.03999466435
0.03999466437
0.03999466439
0.0399946644
0.03999466439
0.03999466437
0.03999466435
0.03999466434
0.03999466445
0.0399946645
0.03999466457
0.03999466465
0.03999466469
0.03999466465
0.03999466457
0.0399946645
0.03999466445
0.03999466483
0.03999466501
0.03999466532
0.03999466564
0.03999466579
0.03999466564
0.03999466532
0.03999466501
0.03999466483
0.03999466607
0.03999466674
0.03999466793
0.03999466922
0.03999466983
0.03999466922
0.03999466793
0.03999466674
0.03999466607
0.03999466998
0.0399946724
0.03999467687
0.03999468189
0.03999468437
0.03999468189
0.03999467687
0.0399946724
0.03999466998
0.03999468172
0.03999469009
0.03999470611
0.03999472497
0.03999473482
0.03999472497
0.03999470611
0.03999469009
0.03999468172
0.03999471504
0.03999474242
0.03999479675
0.03999486419
0.03999490182
0.03999486419
0.03999479675
0.03999474242
0.03999471504
0.0399948033
0.03999488664
0.03999505848
0.03999528424
0.03999542036
0.03999528424
0.03999505847
0.03999488664
0.0399948033
0.0399950184
0.03999525024
0.03999574638
0.03999643679
0.03999688999
0.03999643677
0.03999574637
0.03999525023
0.03999501839
0.03999549268
0.03999606953
0.03999734183
0.03999920249
0.04000052821
0.03999920245
0.0399973418
0.0399960695
0.03999549265
0.03999642449
0.03999767922
0.04000048425
0.04000468932
0.04000783807
0.04000468923
0.04000048417
0.03999767915
0.03999642442
0.03999466429
0.03999466429
0.0399946643
0.0399946643
0.0399946643
0.0399946643
0.0399946643
0.03999466429
0.03999466429
0.03999466429
0.0399946643
0.0399946643
0.0399946643
0.0399946643
0.0399946643
0.0399946643
0.0399946643
0.03999466429
0.0399946643
0.0399946643
0.0399946643
0.0399946643
0.0399946643
0.0399946643
0.0399946643
0.0399946643
0.0399946643
0.03999466431
0.03999466431
0.03999466431
0.03999466432
0.03999466432
0.03999466432
0.03999466431
0.03999466431
0.03999466431
0.03999466434
0.03999466435
0.03999466437
0.03999466439
0.0399946644
0.03999466439
0.03999466437
0.03999466435
0.03999466434
0.03999466445
0.0399946645
0.03999466457
0.03999466465
0.03999466469
0.03999466465
0.03999466457
0.0399946645
0.03999466445
0.03999466483
0.03999466501
0.03999466532
0.03999466564
0.03999466579
0.03999466564
0.03999466532
0.03999466501
0.03999466483
0.03999466607
0.03999466674
0.03999466794
0.03999466922
0.03999466983
0.03999466922
0.03999466794
0.03999466674
0.03999466607
0.03999466998
0.0399946724
0.03999467687
0.03999468189
0.03999468438
0.03999468189
0.03999467687
0.0399946724
0.03999466998
0.03999468172
0.0399946901
0.03999470611
0.03999472497
0.03999473482
0.03999472497
0.03999470611
0.0399946901
0.03999468172
0.03999471504
0.03999474242
0.03999479676
0.0399948642
0.03999490183
0.0399948642
0.03999479676
0.03999474242
0.03999471504
0.03999480331
0.03999488665
0.03999505849
0.03999528426
0.03999542038
0.03999528426
0.03999505849
0.03999488664
0.0399948033
0.0399950184
0.03999525025
0.03999574641
0.03999643684
0.03999689007
0.03999643684
0.03999574641
0.03999525025
0.0399950184
0.03999549268
0.03999606955
0.0399973419
0.03999920261
0.04000052839
0.03999920262
0.03999734189
0.03999606955
0.03999549269
)
;
    }
    inlet
    {
        type            calculated;
        value           nonuniform List<scalar> 
81
(
0.03999466429
0.03999466429
0.0399946643
0.0399946643
0.0399946643
0.0399946643
0.0399946643
0.03999466429
0.03999466429
0.03999466429
0.0399946643
0.0399946643
0.0399946643
0.0399946643
0.0399946643
0.0399946643
0.0399946643
0.03999466429
0.0399946643
0.0399946643
0.0399946643
0.0399946643
0.0399946643
0.0399946643
0.0399946643
0.0399946643
0.0399946643
0.0399946643
0.0399946643
0.0399946643
0.0399946643
0.0399946643
0.0399946643
0.0399946643
0.0399946643
0.0399946643
0.0399946643
0.0399946643
0.0399946643
0.0399946643
0.0399946643
0.0399946643
0.0399946643
0.0399946643
0.0399946643
0.0399946643
0.0399946643
0.0399946643
0.0399946643
0.0399946643
0.0399946643
0.0399946643
0.0399946643
0.0399946643
0.0399946643
0.0399946643
0.0399946643
0.0399946643
0.0399946643
0.0399946643
0.0399946643
0.0399946643
0.0399946643
0.03999466429
0.0399946643
0.0399946643
0.0399946643
0.0399946643
0.0399946643
0.0399946643
0.03999466429
0.03999466429
0.03999466429
0.03999466429
0.0399946643
0.0399946643
0.0399946643
0.0399946643
0.0399946643
0.03999466429
0.03999466429
)
;
    }
    outlet
    {
        type            calculated;
        value           nonuniform 0();
    }
    procBoundary0to1
    {
        type            processor;
        value           nonuniform List<scalar> 
97
(
0.03999804411
0.03999767928
0.0400003979
0.0400055897
0.04001318283
0.04001859353
0.04001318269
0.04000558958
0.04000039779
0.03999804402
0.03999767928
0.03999767928
0.04000569271
0.04000795911
0.04001899204
0.04004257971
0.04006478635
0.04004257935
0.0400189917
0.04000569245
0.0400003978
0.04000048433
0.04000795911
0.04000795911
0.04005819439
0.04008611616
0.04014520328
0.04025892382
0.04014520184
0.04005819316
0.04001899168
0.04000558958
0.04000468943
0.04002172701
0.04008611616
0.04008611616
0.04044296959
0.04092324496
0.0410263127
0.04044296423
0.04014520177
0.04004257936
0.04001318271
0.04000783823
0.04003606881
0.040173591
0.04092324496
0.04092324496
0.04354185661
0.04092324581
0.0410263128
0.04030653918
0.04025892356
0.04006478615
0.04001859343
0.04000468937
0.04002172676
0.04008611431
0.04030653826
0.04092324581
0.04030653918
0.04030653918
0.04014520321
0.04003079215
0.04004257959
0.04001318276
0.04000048427
0.04000795881
0.04003079166
0.0400861141
0.04017359045
0.04008611377
0.04003079215
0.04003079215
0.04001899197
0.04000055558
0.04000558969
0.03999767919
0.04000055546
0.04000795876
0.04002172666
0.04003606858
0.0400217266
0.0400079588
0.04000055558
0.04000055558
0.04000039789
0.03999642448
0.03999642444
0.03999767919
0.04000048425
0.04000468935
0.04000783816
0.04000468935
0.04000048425
0.0399976792
0.03999642448
)
;
    }
}


// ************************************************************************* //
