/*--------------------------------*- C++ -*----------------------------------*\
| =========                 |                                                 |
| \\      /  F ield         | OpenFOAM: The Open Source CFD Toolbox           |
|  \\    /   O peration     | Version:  4.x                                   |
|   \\  /    A nd           | Web:      www.OpenFOAM.org                      |
|    \\/     M anipulation  |                                                 |
\*---------------------------------------------------------------------------*/
FoamFile
{
    version     2.0;
    format      ascii;
    class       volScalarField;
    location    "3000";
    object      X_H2;
}
// * * * * * * * * * * * * * * * * * * * * * * * * * * * * * * * * * * * * * //

dimensions      [0 0 0 0 0 0 0];

internalField   nonuniform List<scalar> 
1175
(
0.02997727491
0.02997727491
0.02997727491
0.02997727491
0.02997727489
0.02997727485
0.02997727471
0.02997727423
0.02997727273
0.02997726823
0.02997725547
0.02997722164
0.02997713921
0.02997695743
0.0299766003
0.02997727491
0.02997727491
0.02997727491
0.02997727491
0.02997727489
0.02997727483
0.02997727464
0.02997727397
0.02997727181
0.02997726502
0.02997724497
0.02997718969
0.02997705029
0.02997673619
0.02997611906
0.02997727491
0.02997727491
0.02997727491
0.0299772749
0.02997727488
0.0299772748
0.02997727452
0.02997727352
0.02997727009
0.02997725888
0.02997722413
0.02997712378
0.02997685999
0.02997624813
0.029975043
0.02997727491
0.02997727491
0.02997727491
0.0299772749
0.02997727488
0.02997727477
0.0299772744
0.02997727302
0.02997726817
0.02997725165
0.02997719827
0.02997703718
0.02997659511
0.0299755342
0.02997342947
0.02997727491
0.02997727491
0.02997727491
0.0299772749
0.02997727487
0.02997727476
0.02997727434
0.02997727279
0.02997726721
0.02997724787
0.02997718383
0.02997698495
0.02997642119
0.0299750254
0.02997222091
0.02997727491
0.02997727491
0.02997727491
0.0299772749
0.02997727488
0.02997727477
0.0299772744
0.02997727302
0.02997726817
0.02997725165
0.02997719827
0.02997703718
0.02997659511
0.02997553422
0.0299734295
0.02997727491
0.02997727491
0.02997727491
0.0299772749
0.02997727488
0.0299772748
0.02997727452
0.02997727352
0.02997727009
0.02997725888
0.02997722413
0.02997712378
0.02997685999
0.02997624814
0.02997504302
0.02997727491
0.02997727491
0.02997727491
0.02997727491
0.02997727489
0.02997727483
0.02997727464
0.02997727397
0.02997727181
0.02997726503
0.02997724497
0.02997718969
0.0299770503
0.0299767362
0.02997611908
0.02997727491
0.02997727491
0.02997727491
0.02997727491
0.02997727489
0.02997727485
0.02997727471
0.02997727423
0.02997727273
0.02997726823
0.02997725547
0.02997722164
0.02997713921
0.02997695744
0.02997660032
0.02997727491
0.02997727491
0.02997727491
0.02997727491
0.02997727489
0.02997727483
0.02997727464
0.02997727397
0.02997727181
0.02997726502
0.02997724497
0.02997718969
0.02997705029
0.02997673618
0.02997727491
0.02997727491
0.02997727491
0.0299772749
0.02997727488
0.02997727481
0.02997727453
0.02997727356
0.02997727022
0.02997725921
0.0299772248
0.02997712453
0.02997685875
0.02997623841
0.02997501554
0.02997727491
0.02997727491
0.02997727491
0.0299772749
0.02997727487
0.02997727476
0.02997727434
0.02997727279
0.02997726713
0.02997724736
0.02997718155
0.02997697701
0.02997640027
0.02997498794
0.02997217466
0.02997727491
0.02997727491
0.02997727491
0.0299772749
0.02997727486
0.02997727472
0.02997727414
0.0299772719
0.02997726341
0.02997723213
0.02997712169
0.02997675541
0.02997564973
0.02997276981
0.02996689007
0.02997727491
0.02997727491
0.02997727491
0.0299772749
0.02997727486
0.02997727469
0.02997727404
0.02997727146
0.02997726141
0.02997722327
0.0299770833
0.0299765958
0.02997503315
0.0299706814
0.02996138355
0.02997727491
0.02997727491
0.02997727491
0.0299772749
0.02997727486
0.02997727472
0.02997727414
0.0299772719
0.02997726341
0.02997723213
0.02997712169
0.02997675542
0.02997564974
0.02997276985
0.02996689016
0.02997727491
0.02997727491
0.02997727491
0.0299772749
0.02997727487
0.02997727476
0.02997727434
0.02997727279
0.02997726713
0.02997724736
0.02997718155
0.02997697701
0.02997640027
0.02997498798
0.02997217474
0.02997727491
0.02997727491
0.02997727491
0.0299772749
0.02997727488
0.02997727481
0.02997727453
0.02997727356
0.02997727022
0.02997725921
0.0299772248
0.02997712454
0.02997685876
0.02997623844
0.02997501561
0.02997727491
0.02997727491
0.02997727491
0.02997727491
0.02997727489
0.02997727483
0.02997727464
0.02997727397
0.02997727181
0.02997726502
0.02997724497
0.02997718969
0.0299770503
0.0299767362
0.02997611908
0.02997727491
0.02997727491
0.02997727491
0.0299772749
0.02997727488
0.0299772748
0.02997727452
0.02997727352
0.02997727009
0.02997725888
0.02997722413
0.02997712378
0.02997685998
0.0299762481
0.02997727491
0.02997727491
0.02997727491
0.0299772749
0.02997727487
0.02997727476
0.02997727434
0.02997727279
0.02997726713
0.02997724736
0.02997718155
0.02997697701
0.02997640026
0.0299749879
0.02997727491
0.02997727491
0.02997727491
0.0299772749
0.02997727486
0.02997727469
0.02997727402
0.02997727135
0.02997726104
0.02997722221
0.02997708214
0.029976608
0.02997515043
0.02997130151
0.02996341035
0.02997727491
0.02997727491
0.02997727491
0.02997727489
0.02997727484
0.02997727461
0.02997727364
0.02997726962
0.02997725309
0.02997718655
0.02997692694
0.02997596511
0.02997269435
0.02996311951
0.02994216988
0.02997727491
0.02997727491
0.02997727491
0.02997727489
0.02997727483
0.02997727457
0.02997727345
0.02997726868
0.02997724841
0.02997716309
0.02997681024
0.02997539812
0.02997008541
0.02995242813
0.02990857496
0.02997727491
0.02997727491
0.02997727491
0.02997727489
0.02997727484
0.02997727461
0.02997727364
0.02997726962
0.02997725309
0.02997718655
0.02997692694
0.02997596512
0.0299726944
0.02996311968
0.02994217035
0.02997727491
0.02997727491
0.02997727491
0.0299772749
0.02997727486
0.02997727469
0.02997727402
0.02997727135
0.02997726104
0.02997722221
0.02997708214
0.02997660801
0.02997515046
0.02997130164
0.02996341076
0.02997727491
0.02997727491
0.02997727491
0.0299772749
0.02997727487
0.02997727476
0.02997727434
0.02997727279
0.02997726713
0.02997724736
0.02997718155
0.02997697701
0.02997640027
0.02997498797
0.02997217474
0.02997727491
0.02997727491
0.02997727491
0.0299772749
0.02997727488
0.0299772748
0.02997727452
0.02997727352
0.02997727009
0.02997725888
0.02997722413
0.02997712378
0.02997685999
0.02997624814
0.02997504302
0.02997727491
0.02997727491
0.02997727491
0.0299772749
0.02997727488
0.02997727477
0.0299772744
0.02997727302
0.02997726817
0.02997725165
0.02997719827
0.02997703717
0.02997659509
0.02997553416
0.02997727491
0.02997727491
0.02997727491
0.0299772749
0.02997727486
0.02997727472
0.02997727414
0.0299772719
0.02997726341
0.02997723213
0.02997712169
0.02997675541
0.0299756497
0.02997276969
0.02997727491
0.02997727491
0.02997727491
0.02997727489
0.02997727484
0.02997727461
0.02997727364
0.02997726962
0.02997725309
0.02997718655
0.02997692694
0.0299759651
0.02997269429
0.02996311918
0.02997727491
0.02997727491
0.02997727491
0.02997727489
0.02997727481
0.02997727449
0.02997727304
0.02997726668
0.0299772386
0.02997711539
0.02997658264
0.02997434982
0.02996555921
0.02993512871
0.02985751762
0.02997727491
0.02997727491
0.0299772749
0.02997727489
0.0299772748
0.02997727443
0.02997727273
0.02997726497
0.02997722915
0.02997706187
0.02997627379
0.0299725557
0.02995530931
0.02988035481
0.02962062545
0.02997727491
0.02997727491
0.02997727491
0.02997727489
0.02997727481
0.02997727449
0.02997727304
0.02997726668
0.0299772386
0.02997711539
0.02997658265
0.02997434984
0.02996555934
0.0299351294
0.02985752046
0.02997727491
0.02997727491
0.02997727491
0.02997727489
0.02997727484
0.02997727461
0.02997727364
0.02997726962
0.02997725309
0.02997718655
0.02997692694
0.02997596512
0.02997269439
0.02996311965
0.02994217033
0.02997727491
0.02997727491
0.02997727491
0.0299772749
0.02997727486
0.02997727472
0.02997727414
0.0299772719
0.02997726341
0.02997723213
0.02997712169
0.02997675541
0.02997564973
0.02997276983
0.02996689014
0.02997727491
0.02997727491
0.02997727491
0.0299772749
0.02997727488
0.02997727477
0.0299772744
0.02997727302
0.02997726817
0.02997725165
0.02997719827
0.02997703718
0.02997659511
0.02997553421
0.02997342948
0.02997727491
0.02997727491
0.02997727491
0.0299772749
0.02997727487
0.02997727476
0.02997727434
0.02997727279
0.02997726721
0.02997724787
0.02997718383
0.02997698494
0.02997642117
0.02997502533
0.02997727491
0.02997727491
0.02997727491
0.0299772749
0.02997727486
0.02997727469
0.02997727404
0.02997727146
0.02997726141
0.02997722327
0.02997708329
0.02997659579
0.0299750331
0.0299706812
0.02997727491
0.02997727491
0.02997727491
0.02997727489
0.02997727483
0.02997727457
0.02997727345
0.02997726868
0.02997724841
0.02997716309
0.02997681023
0.02997539809
0.02997008524
0.02995242736
0.02997727491
0.02997727491
0.0299772749
0.02997727489
0.0299772748
0.02997727443
0.02997727273
0.02997726497
0.02997722915
0.02997706186
0.02997627378
0.02997255564
0.0299553089
0.02988035188
0.02997727491
0.02997727491
0.0299772749
0.02997727488
0.02997727479
0.02997727435
0.02997727233
0.02997726269
0.02997721554
0.02997697617
0.02997570335
0.02996853746
0.02992539295
0.02964563148
0.02767378392
0.02997727491
0.02997727491
0.0299772749
0.02997727489
0.0299772748
0.02997727443
0.02997727273
0.02997726497
0.02997722915
0.02997706186
0.02997627379
0.02997255567
0.0299553092
0.02988035442
0.02962062475
0.02997727491
0.02997727491
0.02997727491
0.02997727489
0.02997727483
0.02997727457
0.02997727345
0.02997726868
0.02997724841
0.02997716309
0.02997681024
0.02997539811
0.02997008538
0.02995242805
0.02990857487
0.02997727491
0.02997727491
0.02997727491
0.0299772749
0.02997727486
0.02997727469
0.02997727404
0.02997727146
0.02997726141
0.02997722327
0.0299770833
0.0299765958
0.02997503315
0.02997068138
0.02996138355
0.02997727491
0.02997727491
0.02997727491
0.0299772749
0.02997727487
0.02997727476
0.02997727434
0.02997727279
0.02997726721
0.02997724787
0.02997718383
0.02997698495
0.02997642119
0.02997502539
0.02997222092
0.02997727491
0.02997727491
0.02997727491
0.0299772749
0.02997727488
0.02997727477
0.0299772744
0.02997727302
0.02997726817
0.02997725165
0.02997719827
0.02997703717
0.02997659509
0.02997553416
0.02997727491
0.02997727491
0.02997727491
0.0299772749
0.02997727486
0.02997727472
0.02997727414
0.0299772719
0.02997726341
0.02997723213
0.02997712169
0.0299767554
0.02997564969
0.02997276969
0.02997727491
0.02997727491
0.02997727491
0.02997727489
0.02997727484
0.02997727461
0.02997727364
0.02997726962
0.02997725309
0.02997718655
0.02997692694
0.02997596509
0.02997269425
0.02996311919
0.02997727491
0.02997727491
0.02997727491
0.02997727489
0.02997727481
0.02997727449
0.02997727304
0.02997726668
0.0299772386
0.02997711539
0.02997658264
0.02997434978
0.02996555903
0.02993512807
0.02997727491
0.02997727491
0.0299772749
0.02997727489
0.0299772748
0.02997727443
0.02997727273
0.02997726497
0.02997722915
0.02997706186
0.02997627378
0.0299725556
0.02995530877
0.02988035149
0.02997727491
0.02997727491
0.02997727491
0.02997727489
0.02997727481
0.02997727449
0.02997727304
0.02997726668
0.0299772386
0.02997711539
0.02997658264
0.02997434979
0.02996555909
0.02993512818
0.02997727491
0.02997727491
0.02997727491
0.02997727489
0.02997727484
0.02997727461
0.02997727364
0.02997726962
0.02997725309
0.02997718655
0.02997692694
0.0299759651
0.02997269432
0.02996311939
0.0299421695
0.02997727491
0.02997727491
0.02997727491
0.0299772749
0.02997727486
0.02997727472
0.02997727414
0.0299772719
0.02997726341
0.02997723213
0.02997712169
0.02997675541
0.02997564972
0.02997276979
0.02996689004
0.02997727491
0.02997727491
0.02997727491
0.0299772749
0.02997727488
0.02997727477
0.0299772744
0.02997727302
0.02997726817
0.02997725165
0.02997719827
0.02997703717
0.0299765951
0.0299755342
0.02997342946
0.02997727491
0.02997727491
0.02997727491
0.0299772749
0.02997727488
0.0299772748
0.02997727452
0.02997727352
0.02997727009
0.02997725888
0.02997722413
0.02997712378
0.02997685998
0.0299762481
0.02997727491
0.02997727491
0.02997727491
0.0299772749
0.02997727487
0.02997727476
0.02997727434
0.02997727279
0.02997726713
0.02997724736
0.02997718155
0.029976977
0.02997640024
0.02997498789
0.02997727491
0.02997727491
0.02997727491
0.0299772749
0.02997727486
0.02997727469
0.02997727402
0.02997727135
0.02997726104
0.02997722221
0.02997708214
0.02997660799
0.02997515039
0.02997130142
0.02997727491
0.02997727491
0.02997727491
0.02997727489
0.02997727484
0.02997727461
0.02997727364
0.02997726962
0.02997725309
0.02997718655
0.02997692694
0.02997596509
0.02997269425
0.0299631192
0.02997727491
0.02997727491
0.02997727491
0.02997727489
0.02997727483
0.02997727457
0.02997727345
0.02997726868
0.02997724841
0.02997716309
0.02997681023
0.02997539808
0.02997008522
0.02995242737
0.02997727491
0.02997727491
0.02997727491
0.02997727489
0.02997727484
0.02997727461
0.02997727364
0.02997726962
0.02997725309
0.02997718655
0.02997692694
0.02997596509
0.02997269428
0.02996311927
0.02997727491
0.02997727491
0.02997727491
0.0299772749
0.02997727486
0.02997727469
0.02997727402
0.02997727135
0.02997726104
0.02997722221
0.02997708214
0.02997660799
0.02997515041
0.02997130144
0.02997727491
0.02997727491
0.02997727491
0.0299772749
0.02997727487
0.02997727476
0.02997727434
0.02997727279
0.02997726713
0.02997724736
0.02997718155
0.02997697701
0.02997640026
0.02997498792
0.0299721746
0.02997727491
0.02997727491
0.02997727491
0.0299772749
0.02997727488
0.0299772748
0.02997727452
0.02997727352
0.02997727009
0.02997725888
0.02997722413
0.02997712378
0.02997685998
0.02997624812
0.02997504298
0.02997727491
0.02997727491
0.02997727491
0.02997727491
0.02997727489
0.02997727483
0.02997727464
0.02997727397
0.02997727181
0.02997726502
0.02997724497
0.02997718968
0.02997705029
0.02997673618
0.02997727491
0.02997727491
0.02997727491
0.0299772749
0.02997727488
0.02997727481
0.02997727453
0.02997727356
0.02997727022
0.02997725921
0.02997722479
0.02997712453
0.02997685874
0.0299762384
0.02997727491
0.02997727491
0.02997727491
0.0299772749
0.02997727487
0.02997727476
0.02997727434
0.02997727279
0.02997726713
0.02997724736
0.02997718155
0.029976977
0.02997640025
0.0299749879
0.02997727491
0.02997727491
0.02997727491
0.0299772749
0.02997727486
0.02997727472
0.02997727414
0.0299772719
0.02997726341
0.02997723213
0.02997712169
0.0299767554
0.02997564969
0.0299727697
0.02997727491
0.02997727491
0.02997727491
0.0299772749
0.02997727486
0.02997727469
0.02997727404
0.02997727146
0.02997726141
0.02997722327
0.02997708329
0.02997659579
0.02997503309
0.02997068121
0.02997727491
0.02997727491
0.02997727491
0.0299772749
0.02997727486
0.02997727472
0.02997727414
0.0299772719
0.02997726341
0.02997723213
0.02997712169
0.0299767554
0.02997564969
0.02997276971
0.02997727491
0.02997727491
0.02997727491
0.0299772749
0.02997727487
0.02997727476
0.02997727434
0.02997727279
0.02997726713
0.02997724736
0.02997718155
0.02997697701
0.02997640025
0.02997498791
0.02997727491
0.02997727491
0.02997727491
0.0299772749
0.02997727488
0.02997727481
0.02997727453
0.02997727356
0.02997727022
0.02997725921
0.0299772248
0.02997712453
0.02997685874
0.0299762384
0.02997727491
0.02997727491
0.02997727491
0.02997727491
0.02997727489
0.02997727483
0.02997727464
0.02997727397
0.02997727181
0.02997726502
0.02997724497
0.02997718969
0.02997705029
0.02997673618
0.02997611904
0.02997727491
0.02997727491
0.02997727491
0.02997727491
0.02997727489
0.02997727485
0.02997727471
0.02997727423
0.02997727273
0.02997726823
0.02997725547
0.02997722164
0.02997713921
0.02997695743
0.02997727491
0.02997727491
0.02997727491
0.02997727491
0.02997727489
0.02997727483
0.02997727464
0.02997727397
0.02997727181
0.02997726502
0.02997724497
0.02997718968
0.02997705029
0.02997673618
0.02997727491
0.02997727491
0.02997727491
0.0299772749
0.02997727488
0.0299772748
0.02997727452
0.02997727352
0.02997727009
0.02997725888
0.02997722413
0.02997712378
0.02997685998
0.0299762481
0.02997727491
0.02997727491
0.02997727491
0.0299772749
0.02997727488
0.02997727477
0.0299772744
0.02997727302
0.02997726817
0.02997725165
0.02997719827
0.02997703717
0.02997659509
0.02997553416
0.02997727491
0.02997727491
0.02997727491
0.0299772749
0.02997727487
0.02997727476
0.02997727434
0.02997727279
0.02997726721
0.02997724787
0.02997718383
0.02997698494
0.02997642116
0.02997502533
0.02997727491
0.02997727491
0.02997727491
0.0299772749
0.02997727488
0.02997727477
0.0299772744
0.02997727302
0.02997726817
0.02997725165
0.02997719827
0.02997703717
0.02997659509
0.02997553416
0.02997727491
0.02997727491
0.02997727491
0.0299772749
0.02997727488
0.0299772748
0.02997727452
0.02997727352
0.02997727009
0.02997725888
0.02997722413
0.02997712378
0.02997685998
0.0299762481
0.02997727491
0.02997727491
0.02997727491
0.02997727491
0.02997727489
0.02997727483
0.02997727464
0.02997727397
0.02997727181
0.02997726502
0.02997724497
0.02997718969
0.02997705029
0.02997673618
0.02997727491
0.02997727491
0.02997727491
0.02997727491
0.02997727489
0.02997727485
0.02997727471
0.02997727423
0.02997727273
0.02997726823
0.02997725547
0.02997722164
0.02997713921
0.02997695743
)
;

boundaryField
{
    top
    {
        type            calculated;
        value           nonuniform List<scalar> 
134
(
0.02997727491
0.02997727491
0.02997727491
0.02997727491
0.02997727491
0.02997727491
0.02997727491
0.02997727491
0.02997727491
0.02997727491
0.02997727491
0.02997727491
0.02997727491
0.02997727491
0.02997727491
0.02997727491
0.02997727491
0.02997727491
0.02997727491
0.02997727491
0.02997727491
0.02997727491
0.02997727491
0.02997727491
0.02997727491
0.02997727491
0.02997727491
0.02997727491
0.02997727491
0.0299772749
0.0299772749
0.0299772749
0.0299772749
0.0299772749
0.02997727491
0.02997727491
0.02997727489
0.02997727489
0.02997727488
0.02997727488
0.02997727487
0.02997727488
0.02997727488
0.02997727489
0.02997727489
0.02997727485
0.02997727483
0.0299772748
0.02997727477
0.02997727476
0.02997727477
0.0299772748
0.02997727483
0.02997727485
0.02997727471
0.02997727464
0.02997727452
0.0299772744
0.02997727434
0.0299772744
0.02997727452
0.02997727464
0.02997727471
0.02997727423
0.02997727397
0.02997727352
0.02997727302
0.02997727279
0.02997727302
0.02997727352
0.02997727397
0.02997727423
0.02997727273
0.02997727181
0.02997727009
0.02997726817
0.02997726721
0.02997726817
0.02997727009
0.02997727181
0.02997727273
0.02997726823
0.02997726502
0.02997725888
0.02997725165
0.02997724787
0.02997725165
0.02997725888
0.02997726502
0.02997726823
0.02997725547
0.02997724497
0.02997722413
0.02997719827
0.02997718383
0.02997719827
0.02997722413
0.02997724497
0.02997725547
0.02997722164
0.02997718969
0.02997712378
0.02997703718
0.02997698495
0.02997703717
0.02997712378
0.02997718969
0.02997722164
0.02997713921
0.0299770503
0.02997685999
0.02997659511
0.02997642119
0.0299765951
0.02997685998
0.02997705029
0.02997713921
0.02997695744
0.0299767362
0.02997624814
0.02997553421
0.02997502539
0.0299755342
0.02997624812
0.02997673618
0.02997695743
0.02997660032
0.02997611908
0.02997504302
0.02997342948
0.02997222092
0.02997342946
0.02997504298
0.02997611904
)
;
    }
    bottom
    {
        type            calculated;
        value           nonuniform List<scalar> 
127
(
0.02997727491
0.02997727491
0.02997727491
0.02997727491
0.02997727491
0.02997727491
0.02997727491
0.02997727491
0.02997727491
0.02997727491
0.02997727491
0.02997727491
0.02997727491
0.02997727491
0.02997727491
0.02997727491
0.02997727491
0.02997727491
0.02997727491
0.02997727491
0.02997727491
0.02997727491
0.02997727491
0.02997727491
0.02997727491
0.02997727491
0.02997727491
0.02997727491
0.02997727491
0.0299772749
0.0299772749
0.0299772749
0.0299772749
0.0299772749
0.02997727491
0.02997727491
0.02997727489
0.02997727489
0.02997727488
0.02997727488
0.02997727487
0.02997727488
0.02997727488
0.02997727489
0.02997727489
0.02997727485
0.02997727483
0.0299772748
0.02997727477
0.02997727476
0.02997727477
0.0299772748
0.02997727483
0.02997727485
0.02997727471
0.02997727464
0.02997727452
0.0299772744
0.02997727434
0.0299772744
0.02997727452
0.02997727464
0.02997727471
0.02997727423
0.02997727397
0.02997727352
0.02997727302
0.02997727279
0.02997727302
0.02997727352
0.02997727397
0.02997727423
0.02997727273
0.02997727181
0.02997727009
0.02997726817
0.02997726721
0.02997726817
0.02997727009
0.02997727181
0.02997727273
0.02997726823
0.02997726502
0.02997725888
0.02997725165
0.02997724787
0.02997725165
0.02997725888
0.02997726502
0.02997726823
0.02997725547
0.02997724497
0.02997722413
0.02997719827
0.02997718383
0.02997719827
0.02997722413
0.02997724497
0.02997725547
0.02997722164
0.02997718969
0.02997712378
0.02997703717
0.02997698494
0.02997703717
0.02997712378
0.02997718968
0.02997722164
0.02997713921
0.02997705029
0.02997685998
0.02997659509
0.02997642117
0.02997659509
0.02997685998
0.02997705029
0.02997713921
0.02997695743
0.02997673618
0.0299762481
0.02997553416
0.02997502533
0.02997553416
0.0299762481
0.02997673618
0.02997695743
0.0299766003
)
;
    }
    side-walls
    {
        type            calculated;
        value           nonuniform List<scalar> 
261
(
0.02997727491
0.02997727491
0.02997727491
0.02997727491
0.02997727491
0.02997727491
0.02997727491
0.02997727491
0.02997727491
0.02997727491
0.02997727491
0.02997727491
0.02997727491
0.02997727491
0.02997727491
0.02997727491
0.02997727491
0.02997727491
0.02997727491
0.02997727491
0.02997727491
0.02997727491
0.02997727491
0.02997727491
0.02997727491
0.02997727491
0.02997727491
0.02997727491
0.02997727491
0.0299772749
0.0299772749
0.0299772749
0.0299772749
0.0299772749
0.02997727491
0.02997727491
0.02997727489
0.02997727489
0.02997727488
0.02997727488
0.02997727487
0.02997727488
0.02997727488
0.02997727489
0.02997727489
0.02997727485
0.02997727483
0.0299772748
0.02997727477
0.02997727476
0.02997727477
0.0299772748
0.02997727483
0.02997727485
0.02997727471
0.02997727464
0.02997727452
0.0299772744
0.02997727434
0.0299772744
0.02997727452
0.02997727464
0.02997727471
0.02997727423
0.02997727397
0.02997727352
0.02997727302
0.02997727279
0.02997727302
0.02997727352
0.02997727397
0.02997727423
0.02997727273
0.02997727181
0.02997727009
0.02997726817
0.02997726721
0.02997726817
0.02997727009
0.02997727181
0.02997727273
0.02997726823
0.02997726502
0.02997725888
0.02997725165
0.02997724787
0.02997725165
0.02997725888
0.02997726503
0.02997726823
0.02997725547
0.02997724497
0.02997722413
0.02997719827
0.02997718383
0.02997719827
0.02997722413
0.02997724497
0.02997725547
0.02997722164
0.02997718969
0.02997712378
0.02997703718
0.02997698495
0.02997703718
0.02997712378
0.02997718969
0.02997722164
0.02997713921
0.02997705029
0.02997685999
0.02997659511
0.02997642119
0.02997659511
0.02997685999
0.0299770503
0.02997713921
0.02997695743
0.02997673619
0.02997624813
0.0299755342
0.0299750254
0.02997553422
0.02997624814
0.0299767362
0.02997695744
0.0299766003
0.02997611906
0.029975043
0.02997342947
0.02997222091
0.0299734295
0.02997504302
0.02997611908
0.02997660032
0.02997727491
0.02997727491
0.02997727491
0.02997727491
0.02997727491
0.02997727491
0.02997727491
0.02997727491
0.02997727491
0.02997727491
0.02997727491
0.02997727491
0.02997727491
0.02997727491
0.02997727491
0.02997727491
0.02997727491
0.02997727491
0.02997727491
0.02997727491
0.02997727491
0.02997727491
0.02997727491
0.02997727491
0.02997727491
0.02997727491
0.02997727491
0.02997727491
0.02997727491
0.0299772749
0.0299772749
0.0299772749
0.0299772749
0.0299772749
0.02997727491
0.02997727491
0.02997727489
0.02997727489
0.02997727488
0.02997727488
0.02997727487
0.02997727488
0.02997727488
0.02997727489
0.02997727489
0.02997727485
0.02997727483
0.0299772748
0.02997727477
0.02997727476
0.02997727477
0.0299772748
0.02997727483
0.02997727485
0.02997727471
0.02997727464
0.02997727452
0.0299772744
0.02997727434
0.0299772744
0.02997727452
0.02997727464
0.02997727471
0.02997727423
0.02997727397
0.02997727352
0.02997727302
0.02997727279
0.02997727302
0.02997727352
0.02997727397
0.02997727423
0.02997727273
0.02997727181
0.02997727009
0.02997726817
0.02997726721
0.02997726817
0.02997727009
0.02997727181
0.02997727273
0.02997726823
0.02997726502
0.02997725888
0.02997725165
0.02997724787
0.02997725165
0.02997725888
0.02997726502
0.02997726823
0.02997725547
0.02997724497
0.02997722413
0.02997719827
0.02997718383
0.02997719827
0.02997722413
0.02997724497
0.02997725547
0.02997722164
0.02997718968
0.02997712378
0.02997703717
0.02997698494
0.02997703717
0.02997712378
0.02997718969
0.02997722164
0.02997713921
0.02997705029
0.02997685998
0.02997659509
0.02997642116
0.02997659509
0.02997685998
0.02997705029
0.02997713921
0.02997695743
0.02997673618
0.0299762481
0.02997553416
0.02997502533
0.02997553416
0.0299762481
0.02997673618
0.02997695743
)
;
    }
    inlet
    {
        type            calculated;
        value           nonuniform List<scalar> 
81
(
0.02997727491
0.02997727491
0.02997727491
0.02997727491
0.02997727491
0.02997727491
0.02997727491
0.02997727491
0.02997727491
0.02997727491
0.02997727491
0.02997727491
0.02997727491
0.02997727491
0.02997727491
0.02997727491
0.02997727491
0.02997727491
0.02997727491
0.02997727491
0.02997727491
0.02997727491
0.02997727491
0.02997727491
0.02997727491
0.02997727491
0.02997727491
0.02997727491
0.02997727491
0.02997727491
0.02997727491
0.02997727491
0.02997727491
0.02997727491
0.02997727491
0.02997727491
0.02997727491
0.02997727491
0.02997727491
0.02997727491
0.02997727491
0.02997727491
0.02997727491
0.02997727491
0.02997727491
0.02997727491
0.02997727491
0.02997727491
0.02997727491
0.02997727491
0.02997727491
0.02997727491
0.02997727491
0.02997727491
0.02997727491
0.02997727491
0.02997727491
0.02997727491
0.02997727491
0.02997727491
0.02997727491
0.02997727491
0.02997727491
0.02997727491
0.02997727491
0.02997727491
0.02997727491
0.02997727491
0.02997727491
0.02997727491
0.02997727491
0.02997727491
0.02997727491
0.02997727491
0.02997727491
0.02997727491
0.02997727491
0.02997727491
0.02997727491
0.02997727491
0.02997727491
)
;
    }
    outlet
    {
        type            calculated;
        value           nonuniform 0();
    }
    procBoundary0to1
    {
        type            processor;
        value           nonuniform List<scalar> 
97
(
0.0299759796
0.02997611904
0.02997507684
0.02997308523
0.02997017179
0.02996809519
0.02997017184
0.02997308527
0.02997507687
0.02997597962
0.02997611904
0.02997611904
0.02997304555
0.02997217457
0.02996794236
0.02995888906
0.02995036345
0.02995888917
0.02996794246
0.02997304563
0.02997507686
0.02997504297
0.02997217457
0.02997217457
0.02995289593
0.02994216927
0.029919492
0.02987582157
0.02991949245
0.02995289629
0.02996794247
0.02997308527
0.02997342943
0.02996688995
0.02994216927
0.02994216927
0.02980515102
0.02962062205
0.02958109501
0.02980515263
0.02991949246
0.02995888916
0.02997017183
0.02997222086
0.02996138338
0.02990857422
0.02962062205
0.02962062205
0.02861475503
0.02962062166
0.0295810949
0.02985751897
0.02987582163
0.02995036351
0.02996809522
0.02997342945
0.02996689002
0.02994216984
0.0298575193
0.02962062166
0.02985751897
0.02985751897
0.02991949203
0.02996341041
0.0299588891
0.02997017181
0.02997504299
0.02997217466
0.02996341056
0.02994216991
0.02990857438
0.02994217002
0.02996341041
0.02996341041
0.02996794238
0.02997501554
0.02997308524
0.02997611906
0.02997501558
0.02997217468
0.02996689005
0.02996138344
0.02996689007
0.02997217467
0.02997501554
0.02997501554
0.02997507684
0.0299766003
0.02997660031
0.02997611906
0.02997504299
0.02997342945
0.02997222088
0.02997342945
0.02997504299
0.02997611906
0.0299766003
)
;
    }
}


// ************************************************************************* //
