/*--------------------------------*- C++ -*----------------------------------*\
| =========                 |                                                 |
| \\      /  F ield         | OpenFOAM: The Open Source CFD Toolbox           |
|  \\    /   O peration     | Version:  4.x                                   |
|   \\  /    A nd           | Web:      www.OpenFOAM.org                      |
|    \\/     M anipulation  |                                                 |
\*---------------------------------------------------------------------------*/
FoamFile
{
    version     2.0;
    format      ascii;
    class       volScalarField;
    location    "3000";
    object      X_H2O;
}
// * * * * * * * * * * * * * * * * * * * * * * * * * * * * * * * * * * * * * //

dimensions      [0 0 0 0 0 0 0];

internalField   nonuniform List<scalar> 
1175
(
1.546965336e-06
1.546965318e-06
1.546966362e-06
1.546969791e-06
1.546982163e-06
1.547025228e-06
1.547170718e-06
1.547646865e-06
1.549144838e-06
1.553643879e-06
1.56641414e-06
1.600251052e-06
1.682722084e-06
1.86459371e-06
2.221960983e-06
1.546965298e-06
1.546965626e-06
1.546966656e-06
1.546970913e-06
1.546986565e-06
1.54704261e-06
1.547238528e-06
1.547902173e-06
1.550071518e-06
1.556854467e-06
1.576914637e-06
1.632213916e-06
1.771652339e-06
2.085884614e-06
2.703351432e-06
1.546965417e-06
1.546965787e-06
1.546967082e-06
1.546972751e-06
1.546994044e-06
1.54707267e-06
1.547357104e-06
1.548360556e-06
1.551785799e-06
1.56299639e-06
1.597752902e-06
1.698124956e-06
1.961981965e-06
2.574027027e-06
3.779676749e-06
1.546965655e-06
1.546965986e-06
1.546967633e-06
1.546974629e-06
1.547001285e-06
1.547102732e-06
1.547480413e-06
1.548854886e-06
1.553711921e-06
1.570229555e-06
1.623620056e-06
1.784734195e-06
2.226876204e-06
3.288010534e-06
5.393468533e-06
1.546965607e-06
1.546965904e-06
1.546967808e-06
1.546975324e-06
1.547004599e-06
1.54711613e-06
1.547536698e-06
1.549088402e-06
1.554663229e-06
1.57400577e-06
1.638054691e-06
1.836959811e-06
2.400786706e-06
3.796805995e-06
6.60207719e-06
1.5469658e-06
1.546965887e-06
1.546967725e-06
1.546974711e-06
1.547001426e-06
1.547102735e-06
1.547480263e-06
1.548854843e-06
1.553711891e-06
1.570229393e-06
1.623619122e-06
1.784731469e-06
2.226867125e-06
3.287982058e-06
5.393397637e-06
1.546965483e-06
1.546965898e-06
1.546967431e-06
1.546973003e-06
1.546994049e-06
1.547072616e-06
1.547357163e-06
1.548360415e-06
1.551785607e-06
1.562996098e-06
1.597752215e-06
1.698122124e-06
1.96197131e-06
2.573992203e-06
3.779593198e-06
1.546965388e-06
1.546965678e-06
1.546966763e-06
1.546970989e-06
1.546986591e-06
1.547042631e-06
1.547238344e-06
1.547902036e-06
1.550071165e-06
1.556853961e-06
1.576913618e-06
1.632210832e-06
1.771641333e-06
2.08584945e-06
2.703269742e-06
1.546965335e-06
1.546965507e-06
1.546966345e-06
1.546969756e-06
1.546982087e-06
1.547025215e-06
1.547170655e-06
1.547646738e-06
1.549144797e-06
1.553643777e-06
1.566413489e-06
1.60024812e-06
1.682711363e-06
1.864560139e-06
2.22187758e-06
1.546965384e-06
1.546965747e-06
1.546966867e-06
1.546971128e-06
1.546986752e-06
1.547042965e-06
1.547238556e-06
1.547902072e-06
1.550071399e-06
1.55685459e-06
1.576915769e-06
1.632218267e-06
1.771668458e-06
2.085945955e-06
1.546965493e-06
1.54696589e-06
1.546967243e-06
1.546972396e-06
1.546992853e-06
1.547068459e-06
1.547343053e-06
1.548316379e-06
1.551657329e-06
1.562669686e-06
1.597091835e-06
1.69737733e-06
1.963241283e-06
2.583807639e-06
3.807310252e-06
1.546965786e-06
1.546966135e-06
1.546967698e-06
1.5469751e-06
1.547003643e-06
1.547113818e-06
1.547532577e-06
1.549091658e-06
1.554744858e-06
1.574516924e-06
1.64033702e-06
1.844910285e-06
2.421756224e-06
3.834405683e-06
6.648689555e-06
1.546965967e-06
1.546966452e-06
1.546968454e-06
1.546977591e-06
1.547014325e-06
1.547161018e-06
1.547738252e-06
1.549975881e-06
1.558467513e-06
1.589752609e-06
1.700199457e-06
2.066504418e-06
3.172285467e-06
6.052556625e-06
1.193365936e-05
1.546966059e-06
1.546966624e-06
1.546968669e-06
1.546978552e-06
1.547019168e-06
1.547182802e-06
1.547836476e-06
1.550419694e-06
1.560463116e-06
1.598609246e-06
1.73858879e-06
2.226097149e-06
3.78878988e-06
8.140745389e-06
1.743983741e-05
1.546966018e-06
1.546966483e-06
1.546968504e-06
1.546977689e-06
1.547014341e-06
1.547161035e-06
1.547738175e-06
1.549975546e-06
1.55846743e-06
1.589752434e-06
1.700198344e-06
2.066498142e-06
3.172257679e-06
6.052452715e-06
1.193337605e-05
1.546965586e-06
1.546966103e-06
1.546967889e-06
1.546975159e-06
1.547003562e-06
1.54711383e-06
1.547532441e-06
1.549091538e-06
1.554744779e-06
1.574516584e-06
1.640335713e-06
1.844902895e-06
2.421722549e-06
3.834281647e-06
6.648361397e-06
1.546965774e-06
1.546965955e-06
1.546967104e-06
1.546972395e-06
1.546992589e-06
1.54706854e-06
1.547343123e-06
1.548316347e-06
1.551657198e-06
1.562669447e-06
1.59709026e-06
1.697369663e-06
1.963210023e-06
2.583697862e-06
3.807005382e-06
1.546965497e-06
1.546965739e-06
1.546966731e-06
1.546970861e-06
1.546986599e-06
1.547042603e-06
1.547238374e-06
1.547902088e-06
1.550071218e-06
1.556854201e-06
1.576914567e-06
1.632211949e-06
1.771643591e-06
2.085853433e-06
2.703274145e-06
1.54696571e-06
1.546965935e-06
1.546967423e-06
1.546973128e-06
1.546994372e-06
1.547072837e-06
1.547357282e-06
1.548360634e-06
1.551786092e-06
1.562997568e-06
1.59775671e-06
1.698138771e-06
1.962030233e-06
2.574185465e-06
1.546965904e-06
1.546966239e-06
1.546968046e-06
1.546975128e-06
1.547003632e-06
1.54711376e-06
1.547532422e-06
1.54909167e-06
1.554745136e-06
1.574517604e-06
1.640340496e-06
1.84492525e-06
2.42181727e-06
3.83466326e-06
1.546966061e-06
1.546966574e-06
1.546968878e-06
1.546978945e-06
1.547020472e-06
1.547188315e-06
1.547861326e-06
1.550522922e-06
1.560839407e-06
1.599675799e-06
1.739755165e-06
2.213943638e-06
3.671690829e-06
7.521304213e-06
1.541490382e-05
1.546966705e-06
1.546966964e-06
1.546969942e-06
1.546982687e-06
1.547037689e-06
1.547269046e-06
1.548237301e-06
1.552260691e-06
1.568784479e-06
1.635330977e-06
1.894946548e-06
2.856791784e-06
6.127611742e-06
1.570286994e-05
3.665523381e-05
1.546966649e-06
1.546966992e-06
1.546970067e-06
1.546984505e-06
1.547045794e-06
1.547307703e-06
1.548426467e-06
1.553198714e-06
1.5734699e-06
1.658790951e-06
2.011631662e-06
3.423694392e-06
8.736101372e-06
2.639233807e-05
7.024501306e-05
1.546966389e-06
1.546966885e-06
1.546969761e-06
1.546982724e-06
1.54703773e-06
1.547268949e-06
1.548237237e-06
1.552260655e-06
1.568784217e-06
1.635330357e-06
1.8949428e-06
2.856768602e-06
6.127491118e-06
1.570233625e-05
3.665353597e-05
1.546966005e-06
1.546966631e-06
1.546968875e-06
1.546978877e-06
1.547020406e-06
1.547188173e-06
1.547861208e-06
1.550522714e-06
1.560839166e-06
1.599675011e-06
1.739751085e-06
2.213918784e-06
3.671563761e-06
7.520759333e-06
1.541314601e-05
1.5469658e-06
1.546966226e-06
1.546967991e-06
1.546975045e-06
1.547003601e-06
1.547113774e-06
1.547532513e-06
1.54909162e-06
1.554744899e-06
1.574517147e-06
1.640337148e-06
1.844906907e-06
2.421731706e-06
3.83429652e-06
6.648370182e-06
1.546965566e-06
1.546965795e-06
1.546967217e-06
1.546972902e-06
1.546994121e-06
1.54707247e-06
1.547357056e-06
1.548360495e-06
1.551785881e-06
1.562996938e-06
1.597753991e-06
1.698126106e-06
1.961979703e-06
2.574006075e-06
3.779606383e-06
1.54696586e-06
1.5469664e-06
1.546967858e-06
1.546974811e-06
1.54700147e-06
1.547102889e-06
1.547480505e-06
1.548855092e-06
1.553712529e-06
1.570231599e-06
1.623627559e-06
1.784762403e-06
2.226973848e-06
3.288316938e-06
1.546966358e-06
1.546966587e-06
1.546968764e-06
1.546977945e-06
1.547014649e-06
1.547161278e-06
1.54773861e-06
1.549975981e-06
1.558468203e-06
1.589755254e-06
1.700210916e-06
2.06655251e-06
3.172478816e-06
6.05327899e-06
1.546966506e-06
1.546967111e-06
1.546970026e-06
1.546982959e-06
1.547038019e-06
1.547269287e-06
1.548237418e-06
1.552260854e-06
1.568785187e-06
1.635334095e-06
1.894961419e-06
2.856863504e-06
6.127963926e-06
1.570460554e-05
1.546966905e-06
1.546967329e-06
1.546971253e-06
1.546988236e-06
1.547062788e-06
1.547390671e-06
1.548833729e-06
1.555199803e-06
1.583282266e-06
1.706491026e-06
2.239232609e-06
4.472005881e-06
1.326238137e-05
4.369258593e-05
0.000121308668
1.54696691e-06
1.546967721e-06
1.546971755e-06
1.546990493e-06
1.547074589e-06
1.547450821e-06
1.549150294e-06
1.55690779e-06
1.592729575e-06
1.760008169e-06
2.548032808e-06
6.265778287e-06
2.35100523e-05
9.8453846e-05
0.0003581469232
1.546966636e-06
1.54696751e-06
1.546971226e-06
1.546988067e-06
1.547062866e-06
1.547390688e-06
1.548833596e-06
1.55519998e-06
1.583282026e-06
1.706490031e-06
2.239223251e-06
4.471936546e-06
1.326191937e-05
4.368990863e-05
0.0001212966836
1.546966585e-06
1.546967136e-06
1.546970007e-06
1.546982955e-06
1.547038042e-06
1.54726929e-06
1.548237251e-06
1.552260606e-06
1.568784779e-06
1.635332447e-06
1.894950804e-06
2.856795725e-06
6.127570031e-06
1.570250081e-05
3.665364038e-05
1.546966288e-06
1.546966771e-06
1.546968636e-06
1.546977761e-06
1.547014497e-06
1.547161161e-06
1.547738406e-06
1.549975959e-06
1.558467939e-06
1.589754191e-06
1.70020419e-06
2.066516147e-06
3.172303371e-06
6.052537628e-06
1.193344139e-05
1.546965928e-06
1.54696623e-06
1.546967933e-06
1.546974768e-06
1.547001625e-06
1.547103008e-06
1.547480684e-06
1.548855171e-06
1.553712311e-06
1.570230724e-06
1.623623264e-06
1.784742097e-06
2.226890927e-06
3.288023799e-06
5.393437647e-06
1.546966172e-06
1.546966428e-06
1.546968091e-06
1.546975631e-06
1.547004657e-06
1.547116289e-06
1.547536654e-06
1.549088533e-06
1.554664131e-06
1.574008747e-06
1.638066359e-06
1.837002271e-06
2.400931816e-06
3.797248259e-06
1.546966206e-06
1.546966676e-06
1.546968988e-06
1.546978928e-06
1.547019619e-06
1.547182909e-06
1.547836694e-06
1.550420015e-06
1.560464453e-06
1.598614006e-06
1.738609608e-06
2.226184196e-06
3.789139391e-06
8.14201037e-06
1.546966442e-06
1.546967146e-06
1.546970331e-06
1.546984562e-06
1.547046086e-06
1.54730809e-06
1.548426622e-06
1.553199331e-06
1.573471575e-06
1.65879894e-06
2.011671288e-06
3.423892541e-06
8.737075341e-06
2.639685608e-05
1.546966891e-06
1.546967643e-06
1.546971726e-06
1.546990731e-06
1.547074667e-06
1.54745094e-06
1.549150243e-06
1.55690797e-06
1.592730845e-06
1.760016181e-06
2.548081772e-06
6.266086638e-06
2.3512081e-05
9.846789756e-05
1.546966908e-06
1.546967717e-06
1.546972266e-06
1.546993169e-06
1.547088168e-06
1.54752317e-06
1.549548353e-06
1.559182496e-06
1.606336652e-06
1.845701474e-06
3.118406964e-06
1.028338368e-05
5.342068161e-05
0.0003331257427
0.00230452549
1.546966853e-06
1.546967523e-06
1.546971694e-06
1.546990551e-06
1.54707457e-06
1.547450918e-06
1.549150312e-06
1.556908022e-06
1.592731004e-06
1.76001514e-06
2.54806658e-06
6.265938496e-06
2.351076503e-05
9.845645714e-05
0.000358149663
1.546966536e-06
1.546967144e-06
1.546970436e-06
1.546984704e-06
1.547045897e-06
1.547307892e-06
1.548426613e-06
1.553199218e-06
1.573471208e-06
1.658796497e-06
2.011653936e-06
3.42378159e-06
8.73640208e-06
2.639311479e-05
7.024560492e-05
1.546966272e-06
1.546966732e-06
1.546969036e-06
1.54697893e-06
1.547019419e-06
1.547182964e-06
1.547836567e-06
1.550419818e-06
1.560463969e-06
1.598612219e-06
1.738599821e-06
2.226132284e-06
3.788888808e-06
8.140947914e-06
1.743997884e-05
1.546965932e-06
1.546966387e-06
1.546968215e-06
1.546975617e-06
1.54700465e-06
1.547116239e-06
1.54753677e-06
1.549088513e-06
1.554663795e-06
1.574007472e-06
1.638060303e-06
1.836975662e-06
2.400825361e-06
3.79687344e-06
6.602127209e-06
1.546966089e-06
1.546966319e-06
1.546967995e-06
1.546974767e-06
1.547001512e-06
1.547102977e-06
1.54748069e-06
1.54885531e-06
1.553712657e-06
1.570232363e-06
1.623630333e-06
1.784770177e-06
2.226990071e-06
3.288333242e-06
1.546966249e-06
1.54696653e-06
1.546968867e-06
1.546977878e-06
1.547014677e-06
1.547161276e-06
1.547738306e-06
1.549975875e-06
1.55846846e-06
1.589757181e-06
1.700218473e-06
2.066576229e-06
3.172538304e-06
6.053348952e-06
1.546966521e-06
1.546967087e-06
1.546970074e-06
1.546982963e-06
1.547037923e-06
1.547269323e-06
1.54823733e-06
1.552261019e-06
1.568786081e-06
1.635339431e-06
1.894983056e-06
2.856945114e-06
6.12822394e-06
1.570506632e-05
1.546966632e-06
1.546967264e-06
1.546971053e-06
1.546988072e-06
1.547062981e-06
1.547390739e-06
1.548833618e-06
1.555200287e-06
1.583284163e-06
1.706501553e-06
2.239282893e-06
4.472245393e-06
1.326348123e-05
4.369724129e-05
1.546966903e-06
1.546967615e-06
1.546971711e-06
1.546990444e-06
1.547074444e-06
1.547450821e-06
1.549150132e-06
1.556908449e-06
1.592732614e-06
1.76002353e-06
2.548115923e-06
6.266245434e-06
2.351276104e-05
9.847014314e-05
1.546966566e-06
1.546967376e-06
1.54697099e-06
1.546988149e-06
1.547062829e-06
1.547390752e-06
1.54883374e-06
1.555200404e-06
1.583284092e-06
1.706499964e-06
2.239272548e-06
4.47218135e-06
1.326313994e-05
4.369593454e-05
1.54696651e-06
1.546967068e-06
1.546970108e-06
1.546982915e-06
1.547037937e-06
1.547269181e-06
1.548237281e-06
1.552260952e-06
1.568785785e-06
1.635337201e-06
1.8949709e-06
2.856881527e-06
6.127918145e-06
1.570377316e-05
3.665774496e-05
1.546966408e-06
1.546966574e-06
1.546968656e-06
1.546977715e-06
1.547014541e-06
1.547161203e-06
1.547738528e-06
1.549975986e-06
1.558468483e-06
1.589755793e-06
1.700210274e-06
2.066539563e-06
3.172386243e-06
6.052790452e-06
1.193403149e-05
1.546965809e-06
1.546966308e-06
1.546968016e-06
1.546974777e-06
1.547001371e-06
1.547102779e-06
1.547480444e-06
1.548855203e-06
1.553712574e-06
1.570231356e-06
1.623625709e-06
1.784750777e-06
2.226916557e-06
3.288088208e-06
5.39355874e-06
1.546965732e-06
1.546966118e-06
1.546967458e-06
1.546972982e-06
1.546994239e-06
1.547072742e-06
1.54735698e-06
1.548360623e-06
1.55178636e-06
1.562998585e-06
1.597760507e-06
1.698148635e-06
1.962050364e-06
2.574204181e-06
1.546965891e-06
1.546966312e-06
1.546968221e-06
1.546975291e-06
1.547003792e-06
1.547113882e-06
1.547532542e-06
1.54909178e-06
1.554745807e-06
1.574520304e-06
1.640349383e-06
1.844951306e-06
2.421880959e-06
3.834741563e-06
1.546966395e-06
1.546966788e-06
1.546969149e-06
1.546979253e-06
1.5470206e-06
1.547188361e-06
1.547861359e-06
1.550523199e-06
1.560840592e-06
1.599681358e-06
1.739776523e-06
2.214018345e-06
3.671925222e-06
7.521923906e-06
1.546966398e-06
1.546967122e-06
1.546970211e-06
1.546983022e-06
1.54703793e-06
1.547269411e-06
1.548237423e-06
1.552261011e-06
1.568786506e-06
1.635340917e-06
1.894988466e-06
2.856961959e-06
6.128261638e-06
1.570507813e-05
1.546966408e-06
1.546967153e-06
1.546970186e-06
1.546984539e-06
1.547045864e-06
1.547307756e-06
1.548426529e-06
1.553199214e-06
1.573472589e-06
1.658803524e-06
2.011689846e-06
3.423959926e-06
8.73727131e-06
2.639708509e-05
1.546966327e-06
1.54696701e-06
1.546969802e-06
1.546982815e-06
1.54703802e-06
1.54726916e-06
1.548237241e-06
1.552261013e-06
1.568786287e-06
1.635339729e-06
1.89498334e-06
2.85693767e-06
6.128163804e-06
1.570477028e-05
1.546966155e-06
1.546966637e-06
1.546968939e-06
1.54697895e-06
1.547020322e-06
1.547188117e-06
1.547861255e-06
1.550523023e-06
1.56084051e-06
1.599680056e-06
1.739770911e-06
2.213994728e-06
3.671844586e-06
7.521770622e-06
1.546965749e-06
1.546966165e-06
1.546967994e-06
1.546975241e-06
1.547003645e-06
1.547113768e-06
1.547532458e-06
1.549091825e-06
1.554745531e-06
1.574519377e-06
1.640344847e-06
1.844933856e-06
2.421819988e-06
3.834555657e-06
6.649037837e-06
1.5469657e-06
1.546965983e-06
1.546967287e-06
1.546972989e-06
1.546994097e-06
1.547072692e-06
1.547357125e-06
1.548360695e-06
1.551786212e-06
1.562997921e-06
1.597757554e-06
1.698137309e-06
1.962012032e-06
2.574087177e-06
3.779764532e-06
1.546965697e-06
1.546965895e-06
1.546966907e-06
1.546971055e-06
1.546986765e-06
1.547042745e-06
1.547238416e-06
1.547901926e-06
1.550071457e-06
1.556855494e-06
1.57691859e-06
1.632225939e-06
1.771684174e-06
2.085959787e-06
1.546965782e-06
1.546966121e-06
1.546967421e-06
1.546972489e-06
1.546993056e-06
1.547068585e-06
1.547343232e-06
1.54831653e-06
1.551657767e-06
1.562671548e-06
1.597098076e-06
1.697395113e-06
1.963286573e-06
2.58390499e-06
1.546966063e-06
1.546966228e-06
1.546968074e-06
1.546975185e-06
1.547003712e-06
1.547113956e-06
1.547532403e-06
1.549092013e-06
1.554745922e-06
1.574520533e-06
1.640350218e-06
1.844953223e-06
2.421882427e-06
3.834735413e-06
1.546966161e-06
1.546966686e-06
1.546968794e-06
1.546977752e-06
1.547014672e-06
1.547161256e-06
1.547738462e-06
1.549976258e-06
1.558469049e-06
1.589758699e-06
1.700222619e-06
2.066587152e-06
3.172558871e-06
6.053353161e-06
1.546966198e-06
1.546966627e-06
1.546969096e-06
1.546978704e-06
1.547019336e-06
1.547182801e-06
1.54783667e-06
1.550420225e-06
1.560464998e-06
1.598616752e-06
1.738618859e-06
2.226211525e-06
3.789197385e-06
8.142039799e-06
1.546966281e-06
1.54696657e-06
1.546968775e-06
1.54697775e-06
1.547014501e-06
1.5471611e-06
1.547738377e-06
1.54997609e-06
1.558469053e-06
1.589758352e-06
1.700220975e-06
2.066580492e-06
3.172534794e-06
6.053282388e-06
1.546966193e-06
1.546966313e-06
1.54696807e-06
1.546975248e-06
1.547003656e-06
1.547113959e-06
1.547532496e-06
1.549091899e-06
1.554745811e-06
1.57452008e-06
1.640348128e-06
1.844945114e-06
2.421859296e-06
3.834692049e-06
1.546965846e-06
1.546966094e-06
1.546967331e-06
1.546972736e-06
1.546993097e-06
1.547068626e-06
1.547343392e-06
1.548316519e-06
1.551657834e-06
1.56267116e-06
1.597096353e-06
1.697389207e-06
1.963270885e-06
2.583886552e-06
1.54696572e-06
1.546965902e-06
1.546966814e-06
1.546971032e-06
1.546986672e-06
1.547042748e-06
1.547238703e-06
1.547902149e-06
1.550071634e-06
1.55685524e-06
1.576917476e-06
1.632221405e-06
1.771670341e-06
2.085922564e-06
2.703430327e-06
1.546965544e-06
1.546965645e-06
1.546966553e-06
1.54696999e-06
1.546982257e-06
1.54702527e-06
1.547170863e-06
1.547646736e-06
1.549145024e-06
1.553644738e-06
1.566416713e-06
1.600257544e-06
1.682737059e-06
1.864623827e-06
1.546965546e-06
1.546965755e-06
1.546966941e-06
1.546971139e-06
1.546986835e-06
1.54704284e-06
1.547238512e-06
1.547902136e-06
1.550071663e-06
1.556855488e-06
1.576918918e-06
1.63222646e-06
1.771684588e-06
2.085959357e-06
1.546965832e-06
1.546966135e-06
1.54696753e-06
1.546973036e-06
1.546994229e-06
1.547072798e-06
1.547357231e-06
1.548360828e-06
1.551786425e-06
1.562998872e-06
1.597761493e-06
1.698150763e-06
1.962053689e-06
2.574204972e-06
1.546965996e-06
1.54696635e-06
1.546968011e-06
1.546974904e-06
1.547001567e-06
1.547102854e-06
1.547480591e-06
1.548855227e-06
1.55371294e-06
1.570233568e-06
1.623633398e-06
1.78477728e-06
2.227002967e-06
3.288342265e-06
1.54696606e-06
1.546966448e-06
1.546968322e-06
1.546975693e-06
1.547004726e-06
1.547116293e-06
1.547536726e-06
1.549088649e-06
1.554664522e-06
1.574010306e-06
1.638071151e-06
1.837014134e-06
2.400953106e-06
3.797257712e-06
1.546966002e-06
1.546966312e-06
1.546967969e-06
1.546974654e-06
1.547001448e-06
1.547102906e-06
1.547480724e-06
1.548855151e-06
1.553713037e-06
1.570233483e-06
1.623633162e-06
1.784775626e-06
2.226996529e-06
3.288323166e-06
1.546965931e-06
1.54696607e-06
1.546967488e-06
1.546972977e-06
1.546994158e-06
1.547072745e-06
1.547357248e-06
1.548360755e-06
1.551786426e-06
1.562998829e-06
1.597760652e-06
1.698147805e-06
1.962045081e-06
2.574186711e-06
1.54696559e-06
1.546965788e-06
1.546966959e-06
1.546971242e-06
1.546986742e-06
1.547042666e-06
1.547238606e-06
1.547902121e-06
1.550071548e-06
1.556855415e-06
1.576918153e-06
1.632224054e-06
1.771678813e-06
2.085951674e-06
1.546965591e-06
1.546965765e-06
1.546966682e-06
1.546970009e-06
1.546982333e-06
1.547025278e-06
1.547170946e-06
1.54764678e-06
1.549145058e-06
1.55364468e-06
1.566416126e-06
1.600255675e-06
1.682733109e-06
1.864621787e-06
)
;

boundaryField
{
    top
    {
        type            calculated;
        value           nonuniform List<scalar> 
134
(
1.546965335e-06
1.546965497e-06
1.546965566e-06
1.546965928e-06
1.546965932e-06
1.546965809e-06
1.5469657e-06
1.54696572e-06
1.546965591e-06
1.546965507e-06
1.546965739e-06
1.546965795e-06
1.54696623e-06
1.546966387e-06
1.546966308e-06
1.546965983e-06
1.546965902e-06
1.546965765e-06
1.546966345e-06
1.546966731e-06
1.546967217e-06
1.546967933e-06
1.546968215e-06
1.546968016e-06
1.546967287e-06
1.546966814e-06
1.546966682e-06
1.546969756e-06
1.546970861e-06
1.546972902e-06
1.546974768e-06
1.546975617e-06
1.546974777e-06
1.546972989e-06
1.546971032e-06
1.546970009e-06
1.546982087e-06
1.546986599e-06
1.546994121e-06
1.547001625e-06
1.54700465e-06
1.547001371e-06
1.546994097e-06
1.546986672e-06
1.546982333e-06
1.547025215e-06
1.547042603e-06
1.54707247e-06
1.547103008e-06
1.547116239e-06
1.547102779e-06
1.547072692e-06
1.547042748e-06
1.547025278e-06
1.547170655e-06
1.547238374e-06
1.547357056e-06
1.547480684e-06
1.54753677e-06
1.547480444e-06
1.547357125e-06
1.547238703e-06
1.547170946e-06
1.547646738e-06
1.547902088e-06
1.548360495e-06
1.548855171e-06
1.549088513e-06
1.548855203e-06
1.548360695e-06
1.547902149e-06
1.54764678e-06
1.549144797e-06
1.550071218e-06
1.551785881e-06
1.553712311e-06
1.554663795e-06
1.553712574e-06
1.551786212e-06
1.550071634e-06
1.549145058e-06
1.553643777e-06
1.556854201e-06
1.562996938e-06
1.570230724e-06
1.574007472e-06
1.570231356e-06
1.562997921e-06
1.55685524e-06
1.55364468e-06
1.566413489e-06
1.576914567e-06
1.597753991e-06
1.623623264e-06
1.638060303e-06
1.623625709e-06
1.597757554e-06
1.576917476e-06
1.566416126e-06
1.60024812e-06
1.632211949e-06
1.698126106e-06
1.784742097e-06
1.836975662e-06
1.784750777e-06
1.698137309e-06
1.632221405e-06
1.600255675e-06
1.682711363e-06
1.771643591e-06
1.961979703e-06
2.226890927e-06
2.400825361e-06
2.226916557e-06
1.962012032e-06
1.771670341e-06
1.682733109e-06
1.864560139e-06
2.085853433e-06
2.574006075e-06
3.288023799e-06
3.79687344e-06
3.288088208e-06
2.574087177e-06
2.085922564e-06
1.864621787e-06
2.22187758e-06
2.703274145e-06
3.779606383e-06
5.393437647e-06
6.602127209e-06
5.39355874e-06
3.779764532e-06
2.703430327e-06
)
;
    }
    bottom
    {
        type            calculated;
        value           nonuniform List<scalar> 
127
(
1.546965336e-06
1.546965384e-06
1.54696571e-06
1.54696586e-06
1.546966172e-06
1.546966089e-06
1.546965732e-06
1.546965697e-06
1.546965544e-06
1.546965318e-06
1.546965747e-06
1.546965935e-06
1.5469664e-06
1.546966428e-06
1.546966319e-06
1.546966118e-06
1.546965895e-06
1.546965645e-06
1.546966362e-06
1.546966867e-06
1.546967423e-06
1.546967858e-06
1.546968091e-06
1.546967995e-06
1.546967458e-06
1.546966907e-06
1.546966553e-06
1.546969791e-06
1.546971128e-06
1.546973128e-06
1.546974811e-06
1.546975631e-06
1.546974767e-06
1.546972982e-06
1.546971055e-06
1.54696999e-06
1.546982163e-06
1.546986752e-06
1.546994372e-06
1.54700147e-06
1.547004657e-06
1.547001512e-06
1.546994239e-06
1.546986765e-06
1.546982257e-06
1.547025228e-06
1.547042965e-06
1.547072837e-06
1.547102889e-06
1.547116289e-06
1.547102977e-06
1.547072742e-06
1.547042745e-06
1.54702527e-06
1.547170718e-06
1.547238556e-06
1.547357282e-06
1.547480505e-06
1.547536654e-06
1.54748069e-06
1.54735698e-06
1.547238416e-06
1.547170863e-06
1.547646865e-06
1.547902072e-06
1.548360634e-06
1.548855092e-06
1.549088533e-06
1.54885531e-06
1.548360623e-06
1.547901926e-06
1.547646736e-06
1.549144838e-06
1.550071399e-06
1.551786092e-06
1.553712529e-06
1.554664131e-06
1.553712657e-06
1.55178636e-06
1.550071457e-06
1.549145024e-06
1.553643879e-06
1.55685459e-06
1.562997568e-06
1.570231599e-06
1.574008747e-06
1.570232363e-06
1.562998585e-06
1.556855494e-06
1.553644738e-06
1.56641414e-06
1.576915769e-06
1.59775671e-06
1.623627559e-06
1.638066359e-06
1.623630333e-06
1.597760507e-06
1.57691859e-06
1.566416713e-06
1.600251052e-06
1.632218267e-06
1.698138771e-06
1.784762403e-06
1.837002271e-06
1.784770177e-06
1.698148635e-06
1.632225939e-06
1.600257544e-06
1.682722084e-06
1.771668458e-06
1.962030233e-06
2.226973848e-06
2.400931816e-06
2.226990071e-06
1.962050364e-06
1.771684174e-06
1.682737059e-06
1.86459371e-06
2.085945955e-06
2.574185465e-06
3.288316938e-06
3.797248259e-06
3.288333242e-06
2.574204181e-06
2.085959787e-06
1.864623827e-06
2.221960983e-06
)
;
    }
    side-walls
    {
        type            calculated;
        value           nonuniform List<scalar> 
261
(
1.546965336e-06
1.546965298e-06
1.546965417e-06
1.546965655e-06
1.546965607e-06
1.5469658e-06
1.546965483e-06
1.546965388e-06
1.546965335e-06
1.546965318e-06
1.546965626e-06
1.546965787e-06
1.546965986e-06
1.546965904e-06
1.546965887e-06
1.546965898e-06
1.546965678e-06
1.546965507e-06
1.546966362e-06
1.546966656e-06
1.546967082e-06
1.546967633e-06
1.546967808e-06
1.546967725e-06
1.546967431e-06
1.546966763e-06
1.546966345e-06
1.546969791e-06
1.546970913e-06
1.546972751e-06
1.546974629e-06
1.546975324e-06
1.546974711e-06
1.546973003e-06
1.546970989e-06
1.546969756e-06
1.546982163e-06
1.546986565e-06
1.546994044e-06
1.547001285e-06
1.547004599e-06
1.547001426e-06
1.546994049e-06
1.546986591e-06
1.546982087e-06
1.547025228e-06
1.54704261e-06
1.54707267e-06
1.547102732e-06
1.54711613e-06
1.547102735e-06
1.547072616e-06
1.547042631e-06
1.547025215e-06
1.547170718e-06
1.547238528e-06
1.547357104e-06
1.547480413e-06
1.547536698e-06
1.547480263e-06
1.547357163e-06
1.547238344e-06
1.547170655e-06
1.547646865e-06
1.547902173e-06
1.548360556e-06
1.548854886e-06
1.549088402e-06
1.548854843e-06
1.548360415e-06
1.547902036e-06
1.547646738e-06
1.549144838e-06
1.550071518e-06
1.551785799e-06
1.553711921e-06
1.554663229e-06
1.553711891e-06
1.551785607e-06
1.550071165e-06
1.549144797e-06
1.553643879e-06
1.556854467e-06
1.56299639e-06
1.570229555e-06
1.57400577e-06
1.570229393e-06
1.562996098e-06
1.556853961e-06
1.553643777e-06
1.56641414e-06
1.576914637e-06
1.597752902e-06
1.623620056e-06
1.638054691e-06
1.623619122e-06
1.597752215e-06
1.576913618e-06
1.566413489e-06
1.600251052e-06
1.632213916e-06
1.698124956e-06
1.784734195e-06
1.836959811e-06
1.784731469e-06
1.698122124e-06
1.632210832e-06
1.60024812e-06
1.682722084e-06
1.771652339e-06
1.961981965e-06
2.226876204e-06
2.400786706e-06
2.226867125e-06
1.96197131e-06
1.771641333e-06
1.682711363e-06
1.86459371e-06
2.085884614e-06
2.574027027e-06
3.288010534e-06
3.796805995e-06
3.287982058e-06
2.573992203e-06
2.08584945e-06
1.864560139e-06
2.221960983e-06
2.703351432e-06
3.779676749e-06
5.393468533e-06
6.60207719e-06
5.393397637e-06
3.779593198e-06
2.703269742e-06
2.22187758e-06
1.546965544e-06
1.546965546e-06
1.546965832e-06
1.546965996e-06
1.54696606e-06
1.546966002e-06
1.546965931e-06
1.54696559e-06
1.546965591e-06
1.546965645e-06
1.546965755e-06
1.546966135e-06
1.54696635e-06
1.546966448e-06
1.546966312e-06
1.54696607e-06
1.546965788e-06
1.546965765e-06
1.546966553e-06
1.546966941e-06
1.54696753e-06
1.546968011e-06
1.546968322e-06
1.546967969e-06
1.546967488e-06
1.546966959e-06
1.546966682e-06
1.54696999e-06
1.546971139e-06
1.546973036e-06
1.546974904e-06
1.546975693e-06
1.546974654e-06
1.546972977e-06
1.546971242e-06
1.546970009e-06
1.546982257e-06
1.546986835e-06
1.546994229e-06
1.547001567e-06
1.547004726e-06
1.547001448e-06
1.546994158e-06
1.546986742e-06
1.546982333e-06
1.54702527e-06
1.54704284e-06
1.547072798e-06
1.547102854e-06
1.547116293e-06
1.547102906e-06
1.547072745e-06
1.547042666e-06
1.547025278e-06
1.547170863e-06
1.547238512e-06
1.547357231e-06
1.547480591e-06
1.547536726e-06
1.547480724e-06
1.547357248e-06
1.547238606e-06
1.547170946e-06
1.547646736e-06
1.547902136e-06
1.548360828e-06
1.548855227e-06
1.549088649e-06
1.548855151e-06
1.548360755e-06
1.547902121e-06
1.54764678e-06
1.549145024e-06
1.550071663e-06
1.551786425e-06
1.55371294e-06
1.554664522e-06
1.553713037e-06
1.551786426e-06
1.550071548e-06
1.549145058e-06
1.553644738e-06
1.556855488e-06
1.562998872e-06
1.570233568e-06
1.574010306e-06
1.570233483e-06
1.562998829e-06
1.556855415e-06
1.55364468e-06
1.566416713e-06
1.576918918e-06
1.597761493e-06
1.623633398e-06
1.638071151e-06
1.623633162e-06
1.597760652e-06
1.576918153e-06
1.566416126e-06
1.600257544e-06
1.63222646e-06
1.698150763e-06
1.78477728e-06
1.837014134e-06
1.784775626e-06
1.698147805e-06
1.632224054e-06
1.600255675e-06
1.682737059e-06
1.771684588e-06
1.962053689e-06
2.227002967e-06
2.400953106e-06
2.226996529e-06
1.962045081e-06
1.771678813e-06
1.682733109e-06
1.864623827e-06
2.085959357e-06
2.574204972e-06
3.288342265e-06
3.797257712e-06
3.288323166e-06
2.574186711e-06
2.085951674e-06
1.864621787e-06
)
;
    }
    inlet
    {
        type            calculated;
        value           nonuniform List<scalar> 
81
(
1.546965336e-06
1.546965298e-06
1.546965417e-06
1.546965655e-06
1.546965607e-06
1.5469658e-06
1.546965483e-06
1.546965388e-06
1.546965335e-06
1.546965384e-06
1.546965493e-06
1.546965786e-06
1.546965967e-06
1.546966059e-06
1.546966018e-06
1.546965586e-06
1.546965774e-06
1.546965497e-06
1.54696571e-06
1.546965904e-06
1.546966061e-06
1.546966705e-06
1.546966649e-06
1.546966389e-06
1.546966005e-06
1.5469658e-06
1.546965566e-06
1.54696586e-06
1.546966358e-06
1.546966506e-06
1.546966905e-06
1.54696691e-06
1.546966636e-06
1.546966585e-06
1.546966288e-06
1.546965928e-06
1.546966172e-06
1.546966206e-06
1.546966442e-06
1.546966891e-06
1.546966908e-06
1.546966853e-06
1.546966536e-06
1.546966272e-06
1.546965932e-06
1.546966089e-06
1.546966249e-06
1.546966521e-06
1.546966632e-06
1.546966903e-06
1.546966566e-06
1.54696651e-06
1.546966408e-06
1.546965809e-06
1.546965732e-06
1.546965891e-06
1.546966395e-06
1.546966398e-06
1.546966408e-06
1.546966327e-06
1.546966155e-06
1.546965749e-06
1.5469657e-06
1.546965697e-06
1.546965782e-06
1.546966063e-06
1.546966161e-06
1.546966198e-06
1.546966281e-06
1.546966193e-06
1.546965846e-06
1.54696572e-06
1.546965544e-06
1.546965546e-06
1.546965832e-06
1.546965996e-06
1.54696606e-06
1.546966002e-06
1.546965931e-06
1.54696559e-06
1.546965591e-06
)
;
    }
    outlet
    {
        type            calculated;
        value           nonuniform 0();
    }
    procBoundary0to1
    {
        type            processor;
        value           nonuniform List<scalar> 
97
(
2.842966599e-06
2.703430081e-06
3.746051072e-06
5.738221437e-06
8.652273444e-06
1.072911819e-05
8.652184003e-06
5.738121742e-06
3.745963879e-06
2.842903388e-06
2.703430081e-06
2.703430081e-06