/*--------------------------------*- C++ -*----------------------------------*\
| =========                 |                                                 |
| \\      /  F ield         | OpenFOAM: The Open Source CFD Toolbox           |
|  \\    /   O peration     | Version:  4.x                                   |
|   \\  /    A nd           | Web:      www.OpenFOAM.org                      |
|    \\/     M anipulation  |                                                 |
\*---------------------------------------------------------------------------*/
FoamFile
{
    version     2.0;
    format      ascii;
    class       volScalarField;
    location    "3000";
    object      CO;
}
// * * * * * * * * * * * * * * * * * * * * * * * * * * * * * * * * * * * * * //

dimensions      [0 0 0 0 0 0 0];

internalField   nonuniform List<scalar> 
1175
(
0.3719638844
0.3719638847
0.3719638847
0.3719638848
0.3719638845
0.3719638842
0.3719638838
0.3719638818
0.3719638759
0.3719638582
0.3719638075
0.3719636726
0.3719633426
0.3719626128
0.3719611742
0.3719638847
0.3719638845
0.3719638846
0.3719638844
0.3719638842
0.3719638842
0.3719638834
0.3719638807
0.3719638722
0.3719638451
0.3719637653
0.3719635443
0.3719629843
0.3719617183
0.3719592227
0.3719638845
0.3719638845
0.3719638846
0.3719638845
0.3719638843
0.3719638839
0.3719638827
0.3719638788
0.3719638653
0.3719638206
0.3719636818
0.3719632788
0.3719622155
0.37195974
0.3719548481
0.3719638845
0.3719638844
0.3719638843
0.3719638845
0.3719638843
0.3719638839
0.3719638823
0.3719638769
0.3719638576
0.3719637917
0.3719635775
0.3719629291
0.3719611418
0.3719568372
0.3719482679
0.3719638844
0.3719638844
0.3719638845
0.3719638845
0.3719638842
0.3719638839
0.371963882
0.371963876
0.3719638541
0.3719637768
0.3719635195
0.3719627173
0.3719604346
0.3719547612
0.3719433217
0.3719638846
0.3719638845
0.3719638847
0.3719638846
0.3719638842
0.3719638838
0.3719638823
0.3719638769
0.3719638577
0.3719637918
0.3719635778
0.3719629289
0.3719611417
0.3719568372
0.3719482679
0.3719638848
0.3719638844
0.3719638844
0.3719638844
0.3719638846
0.371963884
0.371963883
0.3719638791
0.3719638655
0.3719638209
0.3719636816
0.3719632788
0.3719622154
0.3719597401
0.3719548482
0.3719638847
0.3719638846
0.3719638846
0.3719638845
0.3719638848
0.3719638846
0.3719638834
0.3719638809
0.3719638725
0.3719638454
0.3719637654
0.3719635443
0.3719629844
0.3719617185
0.3719592231
0.3719638848
0.3719638847
0.3719638846
0.3719638847
0.3719638847
0.3719638848
0.3719638841
0.3719638819
0.3719638761
0.3719638583
0.3719638075
0.371963673
0.3719633429
0.3719626132
0.3719611747
0.3719638849
0.3719638844
0.3719638844
0.3719638841
0.3719638844
0.371963884
0.3719638833
0.3719638808
0.3719638719
0.3719638449
0.3719637653
0.3719635441
0.3719629841
0.3719617181
0.3719638845
0.3719638844
0.3719638843
0.3719638845
0.3719638845
0.3719638841
0.371963883
0.3719638792
0.3719638658
0.371963822
0.3719636843
0.3719632813
0.3719622092
0.3719596977
0.3719547306
0.3719638844
0.3719638844
0.3719638845
0.3719638845
0.3719638844
0.3719638841
0.3719638822
0.371963876
0.3719638533
0.3719637744
0.3719635099
0.3719626849
0.3719603496
0.3719546095
0.3719431355
0.3719638842
0.3719638841
0.3719638842
0.3719638844
0.3719638844
0.3719638837
0.3719638813
0.3719638725
0.3719638386
0.3719637132
0.371963268
0.3719617863
0.3719572954
0.371945553
0.3719214932
0.3719638843
0.3719638842
0.3719638845
0.3719638844
0.3719638844
0.3719638835
0.3719638808
0.3719638708
0.3719638304
0.3719636775
0.3719631126
0.3719611369
0.3719547768
0.3719369938
0.3718988574
0.3719638845
0.3719638845
0.3719638844
0.3719638843
0.3719638843
0.3719638834
0.3719638811
0.3719638723
0.3719638388
0.371963713
0.3719632681
0.3719617864
0.3719572953
0.3719455532
0.3719214938
0.3719638844
0.3719638844
0.3719638845
0.3719638846
0.3719638844
0.3719638841
0.3719638823
0.371963876
0.3719638537
0.3719637744
0.37196351
0.371962685
0.3719603498
0.3719546099
0.3719431367
0.3719638847
0.3719638846
0.3719638847
0.3719638846
0.3719638849
0.3719638844
0.3719638832
0.3719638793
0.3719638661
0.371963822
0.3719636842
0.3719632815
0.3719622095
0.3719596984
0.3719547317
0.3719638846
0.3719638845
0.3719638845
0.3719638847
0.3719638845
0.3719638846
0.3719638837
0.3719638812
0.3719638724
0.3719638457
0.3719637655
0.3719635442
0.3719629842
0.3719617185
0.371959223
0.3719638848
0.3719638848
0.3719638845
0.3719638844
0.3719638844
0.3719638839
0.371963883
0.3719638791
0.3719638654
0.3719638206
0.371963682
0.3719632787
0.3719622151
0.3719597393
0.3719638844
0.3719638844
0.3719638844
0.3719638844
0.3719638844
0.3719638839
0.3719638822
0.3719638762
0.3719638538
0.3719637747
0.3719635103
0.3719626853
0.3719603496
0.3719546086
0.3719638844
0.3719638845
0.3719638846
0.3719638845
0.3719638843
0.3719638834
0.3719638808
0.3719638704
0.371963829
0.3719636732
0.3719631083
0.3719611883
0.3719552623
0.3719395555
0.3719072374
0.3719638843
0.3719638844
0.3719638845
0.3719638846
0.3719638842
0.3719638832
0.3719638793
0.3719638636
0.3719637974
0.3719635293
0.371962479
0.3719585714
0.3719452307
0.3719060286
0.3718199418
0.3719638842
0.3719638844
0.3719638845
0.3719638845
0.3719638842
0.3719638833
0.3719638789
0.3719638594
0.3719637782
0.3719634341
0.3719620038
0.3719562549
0.3719345345
0.3718620575
0.371681385
0.3719638843
0.3719638846
0.3719638845
0.3719638846
0.3719638842
0.3719638833
0.3719638796
0.3719638634
0.3719637971
0.3719635289
0.371962479
0.3719585715
0.3719452311
0.3719060303
0.3718199471
0.3719638846
0.3719638845
0.3719638845
0.3719638847
0.3719638845
0.3719638836
0.3719638809
0.3719638703
0.3719638293
0.3719636732
0.3719631085
0.3719611881
0.3719552625
0.3719395574
0.3719072429
0.3719638847
0.3719638845
0.3719638847
0.3719638846
0.3719638845
0.371963884
0.3719638824
0.371963876
0.3719638533
0.3719637744
0.3719635102
0.3719626851
0.3719603496
0.3719546101
0.3719431367
0.3719638847
0.3719638846
0.3719638844
0.3719638844
0.3719638842
0.3719638842
0.371963883
0.3719638794
0.3719638655
0.3719638209
0.3719636817
0.3719632785
0.3719622154
0.3719597402
0.3719548484
0.3719638848
0.3719638847
0.3719638848
0.3719638845
0.3719638846
0.3719638843
0.3719638828
0.3719638771
0.3719638576
0.3719637916
0.3719635777
0.3719629287
0.3719611417
0.3719568363
0.3719638847
0.3719638847
0.3719638845
0.3719638846
0.3719638846
0.3719638838
0.3719638814
0.3719638726
0.3719638383
0.3719637131
0.3719632679
0.3719617861
0.3719572946
0.3719455506
0.3719638846
0.3719638845
0.3719638845
0.3719638844
0.3719638843
0.3719638833
0.3719638795
0.3719638635
0.3719637973
0.3719635291
0.3719624786
0.3719585709
0.3719452294
0.371906023
0.3719638845
0.3719638845
0.3719638846
0.3719638846
0.371963884
0.3719638828
0.3719638771
0.3719638516
0.3719637386
0.3719632408
0.3719610781
0.3719519761
0.3719159955
0.3717909702
0.3714709726
0.3719638846
0.3719638847
0.3719638846
0.3719638845
0.3719638842
0.3719638827
0.371963876
0.3719638447
0.3719637003
0.3719630231
0.3719598169
0.3719446217
0.3718738375
0.3715650317
0.370491711
0.3719638845
0.3719638846
0.3719638846
0.3719638846
0.3719638841
0.3719638827
0.3719638772
0.3719638517
0.3719637387
0.3719632407
0.3719610782
0.3719519761
0.371915997
0.371790979
0.3714710101
0.3719638848
0.3719638846
0.3719638846
0.3719638844
0.3719638841
0.3719638832
0.3719638794
0.3719638634
0.3719637975
0.3719635293
0.371962479
0.3719585714
0.3719452309
0.3719060297
0.3718199464
0.3719638846
0.3719638846
0.3719638846
0.3719638843
0.3719638841
0.3719638835
0.3719638813
0.3719638726
0.371963839
0.3719637132
0.3719632681
0.3719617864
0.3719572954
0.3719455529
0.3719214935
0.3719638842
0.3719638845
0.3719638846
0.3719638844
0.3719638842
0.3719638838
0.3719638823
0.3719638771
0.3719638577
0.3719637918
0.3719635776
0.371962929
0.371961142
0.3719568372
0.371948268
0.3719638848
0.3719638848
0.3719638845
0.3719638847
0.3719638845
0.3719638841
0.3719638823
0.371963876
0.3719638539
0.3719637765
0.3719635192
0.3719627174
0.3719604344
0.3719547603
0.3719638844
0.3719638846
0.3719638846
0.3719638846
0.3719638844
0.3719638836
0.3719638808
0.3719638707
0.3719638304
0.3719636772
0.3719631123
0.3719611365
0.3719547758
0.3719369902
0.3719638843
0.3719638847
0.3719638848
0.3719638846
0.3719638842
0.3719638832
0.3719638786
0.3719638597
0.3719637786
0.3719634342
0.3719620038
0.3719562544
0.3719345314
0.3718620442
0.3719638844
0.3719638844
0.3719638845
0.3719638846
0.3719638842
0.3719638829
0.3719638759
0.3719638448
0.3719637003
0.3719630232
0.371959817
0.3719446208
0.3718738313
0.3715649895
0.3719638842
0.3719638843
0.3719638845
0.3719638842
0.371963884
0.3719638822
0.3719638741
0.3719638357
0.371963645
0.3719626735
0.3719574811
0.3719281043
0.3717504485
0.3705945901
0.3624568038
0.3719638844
0.3719638844
0.3719638845
0.3719638843
0.371963884
0.3719638823
0.3719638758
0.3719638447
0.3719637005
0.371963023
0.3719598171
0.3719446212
0.3718738357
0.3715650252
0.3704917038
0.3719638844
0.3719638846
0.3719638845
0.3719638845
0.371963884
0.371963883
0.3719638786
0.3719638597
0.3719637784
0.371963434
0.3719620037
0.3719562548
0.3719345333
0.3718620548
0.3716813825
0.3719638845
0.3719638842
0.3719638842
0.3719638842
0.3719638843
0.3719638837
0.3719638812
0.371963871
0.3719638307
0.3719636775
0.3719631126
0.3719611366
0.3719547764
0.3719369929
0.3718988567
0.3719638845
0.3719638844
0.3719638843
0.3719638841
0.3719638842
0.3719638836
0.3719638822
0.3719638759
0.3719638539
0.3719637767
0.3719635195
0.3719627173
0.3719604346
0.3719547612
0.3719433216
0.3719638848
0.3719638847
0.3719638844
0.3719638845
0.3719638844
0.3719638839
0.3719638825
0.3719638771
0.3719638577
0.3719637915
0.3719635774
0.3719629286
0.3719611415
0.3719568363
0.3719638845
0.3719638844
0.3719638847
0.371963885
0.3719638845
0.3719638837
0.3719638814
0.3719638724
0.3719638386
0.3719637129
0.371963268
0.3719617859
0.3719572944
0.3719455503
0.3719638843
0.3719638844
0.3719638846
0.3719638844
0.3719638844
0.3719638832
0.3719638794
0.3719638635
0.3719637971
0.371963529
0.3719624787
0.371958571
0.3719452288
0.3719060223
0.3719638846
0.3719638844
0.3719638844
0.3719638845
0.3719638842
0.3719638828
0.3719638769
0.3719638512
0.3719637384
0.3719632406
0.3719610784
0.3719519754
0.3719159924
0.3717909578
0.3719638841
0.3719638844
0.3719638844
0.3719638845
0.3719638839
0.3719638824
0.3719638757
0.3719638445
0.3719637005
0.371963023
0.3719598166
0.3719446201
0.3718738299
0.3715649846
0.3719638848
0.3719638845
0.3719638844
0.3719638843
0.371963884
0.3719638828
0.3719638769
0.3719638516
0.3719637386
0.3719632407
0.3719610782
0.3719519755
0.3719159935
0.3717909613
0.3719638846
0.3719638845
0.3719638844
0.3719638843
0.3719638841
0.3719638831
0.3719638796
0.3719638634
0.3719637972
0.3719635291
0.3719624787
0.3719585712
0.3719452297
0.371906026
0.3718199344
0.3719638845
0.3719638846
0.3719638846
0.3719638845
0.3719638841
0.3719638835
0.3719638813
0.3719638724
0.3719638387
0.3719637134
0.3719632682
0.3719617863
0.3719572947
0.3719455516
0.3719214914
0.3719638844
0.3719638845
0.3719638844
0.3719638843
0.3719638843
0.3719638838
0.3719638822
0.3719638771
0.3719638576
0.3719637918
0.3719635774
0.371962929
0.3719611417
0.3719568368
0.3719482671
0.3719638847
0.3719638848
0.3719638849
0.3719638848
0.3719638844
0.3719638839
0.371963883
0.3719638788
0.3719638652
0.3719638205
0.3719636817
0.3719632787
0.3719622152
0.3719597395
0.3719638846
0.3719638844
0.3719638843
0.3719638844
0.3719638844
0.3719638841
0.3719638824
0.3719638761
0.3719638537
0.3719637744
0.3719635099
0.3719626846
0.3719603492
0.3719546083
0.3719638847
0.3719638843
0.3719638842
0.3719638843
0.3719638843
0.3719638835
0.371963881
0.3719638704
0.3719638291
0.3719636731
0.3719631082
0.3719611881
0.3719552615
0.3719395541
0.3719638844
0.3719638844
0.3719638847
0.3719638844
0.3719638843
0.3719638833
0.3719638794
0.3719638634
0.3719637972
0.3719635292
0.3719624786
0.3719585709
0.3719452288
0.3719060222
0.3719638846
0.3719638844
0.3719638846
0.3719638845
0.3719638841
0.3719638831
0.3719638787
0.3719638596
0.3719637783
0.3719634339
0.3719620034
0.3719562542
0.3719345309
0.3718620438
0.3719638845
0.3719638843
0.3719638846
0.3719638845
0.3719638842
0.371963883
0.3719638792
0.3719638633
0.3719637971
0.3719635291
0.3719624785
0.3719585709
0.3719452291
0.3719060232
0.3719638844
0.3719638847
0.3719638847
0.3719638846
0.3719638841
0.3719638833
0.3719638809
0.3719638704
0.371963829
0.3719636735
0.3719631083
0.371961188
0.3719552619
0.3719395541
0.3719638844
0.3719638845
0.3719638844
0.3719638843
0.3719638843
0.3719638837
0.371963882
0.371963876
0.3719638538
0.3719637742
0.3719635101
0.3719626849
0.3719603493
0.3719546089
0.3719431343
0.3719638846
0.3719638845
0.3719638844
0.3719638844
0.3719638846
0.3719638839
0.3719638828
0.3719638788
0.3719638652
0.3719638203
0.3719636812
0.3719632783
0.3719622151
0.3719597396
0.3719548476
0.3719638849
0.3719638847
0.3719638847
0.3719638845
0.3719638845
0.3719638842
0.3719638835
0.3719638807
0.371963872
0.3719638451
0.3719637655
0.371963544
0.3719629839
0.371961718
0.3719638845
0.3719638845
0.3719638845
0.3719638845
0.3719638842
0.3719638841
0.3719638831
0.371963879
0.3719638658
0.3719638221
0.3719636844
0.3719632813
0.371962209
0.3719596978
0.3719638842
0.3719638842
0.3719638844
0.3719638842
0.3719638841
0.3719638836
0.3719638823
0.3719638761
0.3719638535
0.3719637745
0.3719635102
0.371962685
0.3719603492
0.3719546088
0.3719638842
0.3719638843
0.3719638843
0.3719638846
0.3719638842
0.3719638834
0.3719638813
0.3719638724
0.3719638386
0.3719637133
0.3719632682
0.3719617861
0.3719572944
0.3719455505
0.371963884
0.3719638843
0.3719638842
0.3719638842
0.371963884
0.3719638836
0.3719638808
0.3719638707
0.3719638306
0.3719636775
0.3719631123
0.3719611363
0.3719547754
0.3719369899
0.3719638844
0.3719638845
0.3719638845
0.3719638845
0.3719638842
0.3719638838
0.3719638813
0.3719638724
0.3719638383
0.371963713
0.3719632678
0.3719617856
0.3719572942
0.3719455505
0.3719638842
0.3719638844
0.3719638843
0.3719638844
0.3719638845
0.3719638839
0.3719638821
0.3719638761
0.3719638535
0.3719637746
0.3719635099
0.3719626846
0.3719603492
0.3719546086
0.3719638845
0.3719638843
0.3719638843
0.3719638843
0.3719638843
0.371963884
0.3719638829
0.3719638789
0.3719638657
0.3719638219
0.3719636839
0.3719632812
0.3719622091
0.3719596978
0.3719638845
0.3719638845
0.3719638845
0.3719638843
0.3719638842
0.3719638841
0.3719638832
0.3719638808
0.3719638722
0.3719638452
0.371963765
0.3719635441
0.3719629842
0.3719617179
0.3719592223
0.3719638848
0.3719638848
0.3719638847
0.3719638847
0.3719638847
0.3719638844
0.3719638837
0.3719638819
0.371963876
0.3719638581
0.3719638075
0.3719636724
0.3719633428
0.3719626128
0.3719638849
0.3719638849
0.3719638847
0.3719638848
0.3719638843
0.3719638842
0.3719638833
0.3719638807
0.3719638723
0.3719638452
0.3719637653
0.3719635441
0.3719629842
0.3719617182
0.3719638845
0.3719638844
0.3719638843
0.3719638843
0.3719638843
0.3719638841
0.371963883
0.3719638788
0.3719638656
0.3719638208
0.371963682
0.3719632785
0.3719622151
0.3719597394
0.3719638845
0.3719638845
0.3719638845
0.3719638844
0.3719638845
0.3719638838
0.3719638823
0.371963877
0.3719638578
0.371963792
0.3719635776
0.3719629287
0.3719611416
0.3719568363
0.3719638841
0.3719638841
0.3719638843
0.3719638843
0.371963884
0.3719638834
0.3719638821
0.371963876
0.3719638541
0.3719637767
0.3719635193
0.371962717
0.3719604342
0.3719547601
0.3719638844
0.3719638845
0.3719638842
0.3719638843
0.3719638843
0.3719638839
0.3719638823
0.3719638768
0.3719638574
0.3719637917
0.3719635778
0.3719629288
0.3719611412
0.3719568362
0.3719638845
0.3719638845
0.3719638846
0.3719638844
0.3719638843
0.371963884
0.3719638828
0.3719638787
0.3719638651
0.3719638205
0.3719636814
0.3719632784
0.371962215
0.3719597394
0.3719638845
0.3719638844
0.3719638843
0.3719638843
0.3719638841
0.371963884
0.3719638832
0.3719638807
0.3719638722
0.3719638449
0.3719637652
0.371963544
0.371962984
0.3719617178
0.3719638844
0.3719638842
0.3719638844
0.3719638844
0.3719638842
0.3719638841
0.3719638835
0.3719638818
0.3719638759
0.3719638578
0.371963807
0.3719636722
0.3719633424
0.3719626124
)
;

boundaryField
{
    top
    {
        type            zeroGradient;
    }
    bottom
    {
        type            zeroGradient;
    }
    side-walls
    {
        type            zeroGradient;
    }
    inlet
    {
        type            zeroGradient;
    }
    outlet
    {
        type            zeroGradient;
    }
    procBoundary0to1
    {
        type            processor;
        value           nonuniform List<scalar> 
97
(
0.3719586672
0.3719592224
0.3719549958
0.3719468777
0.3719349648
0.371926444
0.3719349649
0.3719468776
0.3719549962
0.3719586676
0.3719592224
0.3719592224
0.3719467058
0.3719431341
0.3719258215
0.3718886474
0.3718535087
0.3718886481
0.3719258226
0.3719467065
0.3719549965
0.3719548476
0.3719431341
0.3719431341
0.3718640338
0.3718199317
0.3717263914
0.3715457938
0.3717263956
0.3718640371
0.3719258226
0.3719468779
0.371948267
0.3719214905
0.3718199317
0.3718199317
0.3712538831
0.3704915931
0.3703251506
0.3712539001
0.3717263952
0.3718886478
0.3719349652
0.3719433203
0.3718988535
0.3716813661
0.3704915931
0.3704915931
0.3663181987
0.3704915965
0.3703251507
0.371470977
0.3715457922
0.3718535081
0.3719264438
0.3719482671
0.3719214913
0.3718199388
0.3714709821
0.3704915965
0.371470977
0.371470977
0.371726391
0.3719072374
0.3718886464
0.3719349643
0.3719548474
0.3719431354
0.3719072399
0.371819939
0.3716813671
0.3718199392
0.3719072374
0.3719072374
0.3719258213
0.3719547303
0.371946877
0.3719592227
0.3719547311
0.3719431352
0.3719214917
0.3718988539
0.3719214917
0.3719431351
0.3719547303
0.3719547303
0.3719549957
0.3719611741
0.3719611743
0.3719592226
0.371954848
0.3719482672
0.3719433207
0.3719482673
0.3719548476
0.3719592223
0.3719611741
)
;
    }
}


// ************************************************************************* //
