/*--------------------------------*- C++ -*----------------------------------*\
| =========                 |                                                 |
| \\      /  F ield         | OpenFOAM: The Open Source CFD Toolbox           |
|  \\    /   O peration     | Version:  4.x                                   |
|   \\  /    A nd           | Web:      www.OpenFOAM.org                      |
|    \\/     M anipulation  |                                                 |
\*---------------------------------------------------------------------------*/
FoamFile
{
    version     2.0;
    format      ascii;
    class       volScalarField;
    location    "3000";
    object      CO2;
}
// * * * * * * * * * * * * * * * * * * * * * * * * * * * * * * * * * * * * * //

dimensions      [0 0 0 0 0 0 0];

internalField   nonuniform List<scalar> 
1175
(
0.006506719083
0.006506718362
0.006506718168
0.006506718088
0.006506718755
0.006506719377
0.006506719672
0.006506722213
0.006506730031
0.006506752764
0.006506818389
0.006506992799
0.006507419971
0.006508363865
0.00651022493
0.006506718185
0.006506718822
0.006506718621
0.006506719011
0.006506719546
0.006506719204
0.006506720379
0.00650672381
0.006506734647
0.006506770147
0.006506873108
0.006507158491
0.006507883056
0.006509520425
0.006512748471
0.0065067187
0.006506718681
0.006506718515
0.006506718716
0.006506719169
0.006506719737
0.006506721421
0.006506726352
0.006506743771
0.006506801576
0.006506980924
0.006507501943
0.006508876887
0.006512078611
0.006518405965
0.006506718732
0.006506719039
0.006506719203
0.006506718638
0.006506719091
0.00650671974
0.006506721763
0.006506728801
0.006506753781
0.006506838865
0.006507115928
0.006507954014
0.006510265654
0.006515832468
0.006526915421
0.006506719084
0.006506718923
0.006506718878
0.006506718861
0.006506719347
0.006506719511
0.006506722453
0.006506729991
0.006506757945
0.006506857691
0.006507190819
0.00650822819
0.006511180302
0.006518517038
0.006533311251
0.006506718639
0.006506718794
0.006506718289
0.006506718557
0.006506719465
0.006506720002
0.006506721751
0.006506728878
0.006506753419
0.006506838628
0.006507115133
0.006507954588
0.006510265957
0.006515832716
0.006526915321
0.006506718106
0.006506718949
0.006506718968
0.006506718956
0.006506718481
0.006506719593
0.006506720643
0.006506725634
0.00650674317
0.006506800844
0.006506981413
0.006507501904
0.006508877258
0.006512078646
0.006518405795
0.00650671817
0.006506718504
0.006506718462
0.00650671871
0.006506717996
0.006506718097
0.006506720248
0.006506723382
0.006506733943
0.00650676912
0.006506872679
0.006507158619
0.006507882669
0.006509519839
0.006512747677
0.006506717901
0.006506718333
0.006506718399
0.006506718109
0.006506718128
0.006506717684
0.006506718854
0.006506721986
0.006506729475
0.006506752318
0.006506818159
0.006506991858
0.006507418963
0.006508362653
0.006510223673
0.006506717799
0.006506719154
0.006506718928
0.006506719905
0.006506719018
0.006506719628
0.006506720476
0.006506723623
0.006506735624
0.00650677047
0.006506873129
0.006507159049
0.006507883409
0.006509520834
0.006506718743
0.006506719059
0.006506719264
0.006506718702
0.006506718723
0.006506719286
0.006506720688
0.006506725671
0.006506743193
0.006506799552
0.006506977763
0.006507499033
0.00650888572
0.00651213427
0.006518558777
0.006506719175
0.00650671914
0.006506718785
0.006506718635
0.006506718883
0.006506719112
0.006506721742
0.006506729794
0.006506759492
0.006506861378
0.006507203387
0.006508270369
0.006511290075
0.006518713473
0.006533553435
0.006506719681
0.006506719892
0.006506719559
0.006506719003
0.00650671882
0.006506719902
0.006506723093
0.006506734301
0.006506778212
0.006506940143
0.006507516219
0.00650943221
0.006515238939
0.00653042366
0.006561538643
0.006506719238
0.00650671945
0.006506718724
0.006506719057
0.006506718787
0.006506720281
0.006506723825
0.006506736536
0.006506788987
0.006506986425
0.006507716967
0.006510271475
0.006518495545
0.006541490675
0.006590807045
0.006506718706
0.006506718694
0.006506719062
0.00650671923
0.006506719133
0.006506720563
0.006506723714
0.006506734933
0.006506777671
0.006506940894
0.006507516079
0.006509431889
0.006515239179
0.006530423198
0.006561537597
0.006506718972
0.006506719064
0.006506718801
0.006506718514
0.006506718801
0.006506718991
0.006506721452
0.006506729803
0.006506758452
0.006506861294
0.006507203185
0.006508270034
0.006511289654
0.006518712512
0.006533550774
0.006506718325
0.006506718526
0.00650671814
0.006506718441
0.006506717589
0.006506718505
0.006506720334
0.006506725243
0.006506742435
0.006506799572
0.00650697791
0.006507498563
0.0065088849
0.006512132481
0.006518556207
0.006506718519
0.006506718778
0.006506718858
0.006506718212
0.006506718609
0.006506718057
0.006506719333
0.006506722598
0.006506734299
0.006506768411
0.00650687256
0.006507158895
0.006507883296
0.006509519885
0.006512747892
0.006506718048
0.006506718093
0.006506718648
0.006506719036
0.00650671892
0.006506719822
0.006506720627
0.006506725716
0.006506743571
0.006506801617
0.006506980323
0.006507502345
0.006508877986
0.006512080505
0.006506719111
0.006506718943
0.006506718938
0.006506719039
0.006506718894
0.006506719615
0.006506721879
0.006506729346
0.006506758292
0.006506860606
0.006507202303
0.006508269298
0.006511290126
0.006518715291
0.006506718999
0.006506718764
0.006506718605
0.00650671879
0.006506719098
0.006506720405
0.006506723848
0.006506737013
0.006506790652
0.006506991912
0.006507722366
0.006510205082
0.006517868538
0.006538180411
0.006579977772
0.006506719445
0.006506719115
0.006506718811
0.006506718533
0.00650671919
0.006506720672
0.006506725767
0.006506745529
0.006506831161
0.006507177837
0.006508536147
0.006513588953
0.006530839224
0.006581530825
0.00669285417
0.006506719504
0.006506719027
0.006506718714
0.006506718758
0.006506719059
0.00650672024
0.006506725694
0.006506751595
0.006506856283
0.006507301202
0.006509150808
0.006516584183
0.00654466823
0.006638380817
0.006871996536
0.006506719181
0.00650671863
0.006506718774
0.006506718467
0.006506719155
0.006506720264
0.006506724957
0.00650674601
0.006506831986
0.006507178907
0.006508536108
0.006513588921
0.006530838574
0.006581527399
0.006692843012
0.006506718616
0.006506718711
0.006506718844
0.0065067183
0.006506718584
0.006506719966
0.006506723528
0.006506737165
0.006506790017
0.006506992075
0.006507722045
0.006510205782
0.006517868098
0.006538176375
0.00657996569
0.006506718367
0.006506718721
0.006506718317
0.006506718579
0.006506718697
0.006506719303
0.006506721431
0.006506729868
0.00650675953
0.00650686129
0.006507202579
0.006508269859
0.00651129004
0.006518712042
0.00653355069
0.006506718271
0.006506718611
0.006506718981
0.006506719112
0.006506719301
0.006506718945
0.006506720578
0.006506724931
0.006506743337
0.006506800877
0.006506981012
0.006507502807
0.006508877242
0.006512078216
0.006518405277
0.006506717913
0.006506718348
0.006506717963
0.006506718698
0.006506718334
0.006506718603
0.006506720546
0.006506728266
0.006506753651
0.006506839076
0.006507115514
0.006507955244
0.006510266035
0.006515834487
0.006506718353
0.006506718378
0.006506718734
0.006506718544
0.006506718355
0.006506719535
0.006506722793
0.006506733997
0.006506778885
0.006506940631
0.006507516574
0.006509432605
0.006515240973
0.00653042919
0.006506718443
0.006506718882
0.006506718794
0.006506718827
0.006506718837
0.006506720346
0.006506725183
0.006506745807
0.006506831466
0.006507178417
0.006508536996
0.00651359018
0.006530842309
0.006581543307
0.006506718666
0.006506718661
0.006506718472
0.006506718376
0.006506719557
0.006506721052
0.006506728291
0.006506761409
0.006506907594
0.006507551198
0.006510347987
0.006522116923
0.006568640555
0.006730302674
0.007144091046
0.006506718597
0.006506718279
0.006506718496
0.006506718743
0.006506719053
0.006506720966
0.006506729561
0.006506770183
0.006506957135
0.006507832638
0.006511978416
0.006531625053
0.006623144927
0.007022407041
0.008410131197
0.006506718672
0.006506718571
0.006506718511
0.00650671849
0.006506719336
0.006506721401
0.00650672798
0.006506761171
0.006506907357
0.006507551439
0.006510347659
0.006522116903
0.006568637433
0.00673028422
0.007144010447
0.006506718084
0.006506718435
0.006506718588
0.006506718882
0.006506719415
0.006506720492
0.006506725362
0.006506746173
0.006506830913
0.006507177759
0.006508536139
0.006513589151
0.006530838899
0.00658152843
0.006692844144
0.00650671849
0.006506718533
0.00650671863
0.006506719252
0.006506719647
0.006506720402
0.006506723075
0.006506734085
0.00650677716
0.006506940236
0.006507516123
0.006509431902
0.006515238844
0.006530423823
0.006561538096
0.006506719572
0.006506718913
0.006506718466
0.006506719057
0.006506719505
0.006506719873
0.006506721853
0.006506728351
0.006506753469
0.006506838652
0.006507115656
0.006507954305
0.006510265235
0.006515832454
0.006526915043
0.006506718044
0.006506718043
0.006506718669
0.006506718073
0.006506718572
0.006506719155
0.006506721585
0.006506729788
0.006506758358
0.006506858694
0.006507191352
0.006508228083
0.006511180602
0.006518519006
0.006506719108
0.006506718639
0.006506718559
0.006506718388
0.006506718664
0.006506720059
0.006506723956
0.006506736671
0.006506788971
0.006506987152
0.006507717632
0.006510272531
0.00651849796
0.006541499161
0.006506719324
0.006506718239
0.006506717963
0.006506718466
0.006506719069
0.0065067204
0.006506726547
0.006506750702
0.006506855342
0.006507300721
0.006509150784
0.006516585278
0.006544675464
0.006638410952
0.006506718979
0.006506719057
0.006506718739
0.006506718307
0.006506719052
0.006506720532
0.006506729905
0.006506769897
0.006506957086
0.006507832263
0.006511978026
0.006531627097
0.006623158511
0.007022500721
0.006506719504
0.006506719238
0.006506718641
0.006506719329
0.006506719546
0.006506721847
0.006506732269
0.006506781769
0.006507028708
0.006508284986
0.006514998269
0.006552980236
0.006782672218
0.008277051246
0.01879800619
0.006506719162
0.006506718915
0.006506718637
0.006506719089
0.006506719646
0.006506722045
0.006506730118
0.006506770299
0.006506956441
0.006507832945
0.006511977978
0.006531626138
0.006623149117
0.007022422904
0.00841014704
0.006506719006
0.006506718519
0.006506718803
0.006506718747
0.00650671968
0.006506720962
0.006506726467
0.00650675078
0.00650685586
0.006507301481
0.006509150928
0.006516584339
0.006544671272
0.006638386779
0.006872001448
0.006506718742
0.006506719471
0.00650671965
0.006506719551
0.006506719126
0.006506719776
0.006506722938
0.006506735936
0.006506788232
0.006506986454
0.006507717
0.006510272201
0.006518496672
0.006541492782
0.006590808543
0.006506718866
0.006506719098
0.006506719231
0.006506719803
0.006506719466
0.006506720245
0.006506721714
0.006506730066
0.006506758388
0.00650685816
0.006507190664
0.006508228374
0.006511180336
0.006518516997
0.006533311299
0.006506717945
0.006506718249
0.006506718975
0.006506718809
0.006506718753
0.006506719573
0.006506721329
0.006506728389
0.006506753519
0.006506839284
0.006507116413
0.00650795533
0.006510266363
0.006515834711
0.006506718819
0.006506719047
0.006506718267
0.006506717445
0.00650671854
0.006506719914
0.006506722984
0.00650673468
0.006506778305
0.006506940929
0.006507516333
0.006509433072
0.006515241293
0.006530429994
0.006506719214
0.006506719
0.006506718441
0.006506718826
0.00650671878
0.00650672072
0.006506725369
0.006506745704
0.006506831811
0.006507178784
0.006508536865
0.006513590028
0.006530843795
0.006581545748
0.006506718426
0.006506718931
0.006506719024
0.006506718727
0.006506719009
0.006506721113
0.006506728779
0.006506762446
0.006506908006
0.006507551601
0.006510347052
0.006522118554
0.006568647915
0.006730332989
0.006506719839
0.00650671912
0.006506719117
0.006506718695
0.006506719922
0.006506721862
0.006506730422
0.00650677084
0.006506956644
0.00650783285
0.006511979054
0.006531628904
0.006623162124
0.007022513491
0.006506718015
0.006506718849
0.006506718889
0.006506719092
0.006506719559
0.006506721014
0.006506728813
0.006506761337
0.006506907625
0.006507551436
0.006510347645
0.006522118297
0.006568645372
0.006730323708
0.006506718456
0.006506718879
0.006506719005
0.006506719093
0.006506719514
0.006506721001
0.006506724854
0.006506746034
0.006506831628
0.006507178296
0.006508536856
0.006513589573
0.006530841638
0.006581536717
0.006692871265
0.006506718768
0.006506718639
0.006506718495
0.006506718677
0.00650671956
0.006506720297
0.006506723033
0.006506734577
0.006506777859
0.006506939778
0.006507515873
0.006509432105
0.006515240784
0.006530426853
0.00656154277
0.006506718971
0.006506718824
0.006506719042
0.006506719141
0.006506719
0.006506719919
0.006506722096
0.006506728192
0.006506753784
0.006506838681
0.006507116388
0.006507954479
0.006510266052
0.006515833422
0.006526917154
0.006506718215
0.006506717929
0.006506717673
0.006506717915
0.00650671897
0.006506719736
0.006506720694
0.006506726493
0.006506744001
0.006506801893
0.006506981071
0.006507502179
0.006508877705
0.006512079931
0.006506718468
0.006506719121
0.006506719212
0.006506718957
0.006506718953
0.006506719042
0.006506721403
0.006506729698
0.006506758396
0.006506861167
0.006507203414
0.006508270975
0.006511291018
0.006518716204
0.006506718229
0.006506719282
0.006506719442
0.006506719197
0.006506719122
0.006506720295
0.006506723188
0.006506737082
0.006506790583
0.006506992264
0.006507722749
0.006510205685
0.006517870469
0.006538183904
0.006506718976
0.006506719079
0.006506718346
0.00650671903
0.00650671899
0.006506720355
0.006506725472
0.006506746143
0.006506831575
0.006507178026
0.006508537008
0.006513590353
0.006530843827
0.006581545993
0.006506718563
0.006506719082
0.006506718609
0.00650671861
0.006506719343
0.006506720741
0.006506726185
0.00650675114
0.006506856169
0.006507301572
0.00650915171
0.00651658559
0.006544676491
0.006638412239
0.00650671883
0.006506719347
0.006506718623
0.006506718647
0.006506719186
0.00650672109
0.006506725866
0.006506746362
0.006506831794
0.006507178311
0.006508537284
0.006513590251
0.006530843042
0.006581543457
0.00650671918
0.006506718232
0.006506718244
0.006506718382
0.0065067196
0.006506720684
0.006506723469
0.006506736876
0.006506790664
0.006506991114
0.006507722433
0.006510205901
0.006517869382
0.006538183664
0.006506719134
0.006506718834
0.006506719127
0.006506719305
0.006506719105
0.006506720187
0.006506722353
0.006506729792
0.00650675824
0.006506861867
0.00650720291
0.006508270142
0.006511290772
0.006518714907
0.006533556188
0.006506718459
0.006506718761
0.006506719129
0.006506718934
0.0065067184
0.006506719745
0.006506721243
0.006506726542
0.006506744107
0.006506802315
0.006506982375
0.006507503292
0.006508877965
0.006512079739
0.006518406921
0.006506717727
0.006506718212
0.006506718363
0.006506718783
0.006506718724
0.00650671918
0.006506720094
0.006506723959
0.006506735338
0.006506770104
0.006506872594
0.00650715948
0.00650788408
0.006509521231
0.00650671882
0.006506718908
0.006506718786
0.006506718689
0.00650671948
0.006506719311
0.00650672045
0.006506726078
0.006506743017
0.006506799452
0.006506977534
0.006507499132
0.006508885986
0.00651213388
0.006506719691
0.006506719566
0.006506718933
0.006506719494
0.006506719724
0.006506720288
0.00650672168
0.006506729614
0.006506758883
0.006506861029
0.006507202589
0.006508270117
0.00651129092
0.006518715091
0.006506719586
0.006506719352
0.006506719355
0.006506718358
0.006506719262
0.006506720539
0.006506723001
0.006506734604
0.006506778099
0.006506939979
0.006507515676
0.006509432617
0.006515241392
0.006530429601
0.006506719998
0.006506719228
0.006506719516
0.00650671955
0.00650671987
0.006506720116
0.006506724016
0.006506736661
0.006506788393
0.00650698646
0.006507717715
0.006510272918
0.006518498934
0.006541499866
0.00650671899
0.006506718743
0.006506718707
0.006506718701
0.006506719454
0.006506719534
0.006506723245
0.006506734598
0.006506778881
0.006506940661
0.006507516791
0.006509433832
0.006515241997
0.006530429698
0.006506719537
0.006506718981
0.006506719242
0.00650671893
0.006506718677
0.006506719534
0.006506722219
0.006506729511
0.006506758935
0.006506860831
0.006507203478
0.006508271088
0.006511291009
0.00651871547
0.006506718913
0.006506719386
0.006506719235
0.006506719328
0.006506719193
0.006506719542
0.006506720905
0.006506726469
0.006506743279
0.006506799879
0.006506978836
0.006507499424
0.006508885791
0.00651213394
0.006506718865
0.006506718732
0.006506718686
0.006506719342
0.006506719404
0.006506719563
0.006506720722
0.006506723716
0.006506734764
0.006506769798
0.006506873904
0.006507159131
0.006507883388
0.006509521526
0.006512749463
0.006506718092
0.006506718088
0.00650671818
0.006506718229
0.006506718115
0.006506718826
0.0065067198
0.006506722133
0.006506729763
0.00650675307
0.006506818378
0.006506993307
0.006507419355
0.006508363862
0.00650671778
0.00650671763
0.006506718194
0.006506718005
0.006506719202
0.006506719202
0.006506720494
0.006506723738
0.006506734598
0.006506769674
0.006506873107
0.006507159087
0.006507883267
0.006509520636
0.006506718713
0.006506719125
0.00650671923
0.006506719203
0.006506719106
0.006506719297
0.006506720581
0.00650672631
0.006506743065
0.006506801215
0.006506980452
0.00650750272
0.00650887793
0.006512080267
0.006506718722
0.006506718818
0.006506718727
0.006506718939
0.0065067187
0.006506719924
0.006506721785
0.006506728585
0.006506753144
0.006506838066
0.006507115831
0.006507955077
0.006510266281
0.006515834726
0.006506719864
0.006506719751
0.006506719318
0.006506719181
0.006506719886
0.006506720962
0.006506722129
0.006506730033
0.006506757723
0.006506858067
0.006507191085
0.006508229
0.00651118119
0.006518519534
0.006506718941
0.00650671877
0.006506719521
0.006506719353
0.006506719115
0.006506719638
0.006506721783
0.006506729104
0.006506754294
0.00650683898
0.006507115245
0.006507954923
0.00651026733
0.006515835075
0.006506718711
0.006506718708
0.006506718464
0.006506718896
0.006506719289
0.006506719552
0.006506721136
0.006506726682
0.006506744301
0.006506801843
0.006506981912
0.006507503167
0.006508878349
0.006512080301
0.006506718864
0.00650671915
0.006506719393
0.006506719286
0.006506719799
0.006506719739
0.00650672073
0.006506723996
0.00650673486
0.006506770513
0.006506873207
0.006507159433
0.006507883894
0.006509521776
0.006506719122
0.006506719665
0.006506718918
0.006506719013
0.006506719511
0.006506719407
0.006506720279
0.006506722391
0.006506730052
0.006506753783
0.006506819617
0.006506993782
0.006507420458
0.006508364932
)
;

boundaryField
{
    top
    {
        type            zeroGradient;
    }
    bottom
    {
        type            zeroGradient;
    }
    side-walls
    {
        type            zeroGradient;
    }
    inlet
    {
        type            zeroGradient;
    }
    outlet
    {
        type            zeroGradient;
    }
    procBoundary0to1
    {
        type            processor;
        value           nonuniform List<scalar> 
97
(
0.006513467333
0.006512749166
0.006518215914
0.006528714449
0.006544120742
0.006555139637
0.006544120584
0.006528714883
0.006518215037
0.006513466495
0.006512749166
0.006512749166
0.006528937327
0.006533556367
0.006555945732
0.006604017547
0.006649454839
0.00660401633
0.006555943476
0.006528935946
0.00651821443
0.006518406957
0.006533556367
0.006533556367
0.006635849155
0.006692877027
0.006813836047
0.007047352291
0.006813827795
0.00663584274
0.006555943405
0.006528714208
0.006526917198
0.00656154494
0.006692877027
0.006692877027
0.00742482505
0.008410428844
0.008625665819
0.00742479218
0.006813828325
0.006604016846
0.006544119882
0.006533314428
0.006590816234
0.006872041678
0.008410428844
0.008410428844
0.01380656192
0.008410421663
0.008625666056
0.007144090304
0.007047356028
0.006649456168
0.006555140016
0.006526917241
0.00656154334
0.006692862258
0.007144079377
0.008410421663
0.007144090304
0.007144090304
0.006813836723
0.006579977845
0.006604019818
0.006544121904
0.006518407557
0.006533553677
0.006579972608
0.006692861923
0.006872040446
0.006692861578
0.006579977845
0.006579977845
0.006555946093
0.006518559442
0.006528716358
0.006512748627
0.006518557813
0.006533554209
0.006561542539
0.006590815252
0.006561542503
0.006533554418
0.006518559442
0.006518559442
0.006518216245
0.006510225145
0.006510224612
0.006512748674
0.006518406194
0.006526917153
0.006533313676
0.006526916851
0.006518407244
0.006512749684
0.006510225145
)
;
    }
}


// ************************************************************************* //
