/*--------------------------------*- C++ -*----------------------------------*\
| =========                 |                                                 |
| \\      /  F ield         | OpenFOAM: The Open Source CFD Toolbox           |
|  \\    /   O peration     | Version:  4.x                                   |
|   \\  /    A nd           | Web:      www.OpenFOAM.org                      |
|    \\/     M anipulation  |                                                 |
\*---------------------------------------------------------------------------*/
FoamFile
{
    version     2.0;
    format      ascii;
    class       volScalarField;
    location    "3000";
    object      Cpv;
}
// * * * * * * * * * * * * * * * * * * * * * * * * * * * * * * * * * * * * * //

dimensions      [0 2 -2 -1 0 0 0];

internalField   nonuniform List<scalar> 
1175
(
1210.518901
1210.51891
1210.518934
1210.518932
1210.518916
1210.518909
1210.518924
1210.518923
1210.518935
1210.518938
1210.518947
1210.518959
1210.518986
1210.519017
1210.519134
1210.518702
1210.5187
1210.518701
1210.518707
1210.518705
1210.518698
1210.518713
1210.518701
1210.518702
1210.518716
1210.518706
1210.51873
1210.518792
1210.518924
1210.519139
1210.519027
1210.519018
1210.519029
1210.519032
1210.519022
1210.519023
1210.519007
1210.519024
1210.519032
1210.519059
1210.519084
1210.519105
1210.519198
1210.51938
1210.519793
1210.51855
1210.518541
1210.518533
1210.518561
1210.518547
1210.518538
1210.518542
1210.518517
1210.51854
1210.518556
1210.518607
1210.518674
1210.518806
1210.519178
1210.519866
1210.519112
1210.519098
1210.519089
1210.519096
1210.519104
1210.519123
1210.519133
1210.519121
1210.519124
1210.519114
1210.519139
1210.51918
1210.519354
1210.519814
1210.520752
1210.519352
1210.519354
1210.519354
1210.519343
1210.519329
1210.519323
1210.519332
1210.519339
1210.519355
1210.519372
1210.519379
1210.519437
1210.519585
1210.519924
1210.52065
1210.518871
1210.518857
1210.518853
1210.518849
1210.518851
1210.518863
1210.518839
1210.518828
1210.518813
1210.518813
1210.518827
1210.518848
1210.518889
1210.519093
1210.519489
1210.51878
1210.518775
1210.518773
1210.518768
1210.518779
1210.518772
1210.518766
1210.518743
1210.518757
1210.518755
1210.518746
1210.518788
1210.518836
1210.51894
1210.519149
1210.519402
1210.519397
1210.519391
1210.519405
1210.519412
1210.519429
1210.519424
1210.519413
1210.519401
1210.519409
1210.519419
1210.519452
1210.519471
1210.519514
1210.519631
1210.518614
1210.518582
1210.518576
1210.518558
1210.518563
1210.518572
1210.518576
1210.518571
1210.518574
1210.518578
1210.518598
1210.518614
1210.518678
1210.518796
1210.519259
1210.519259
1210.519244
1210.519275
1210.519263
1210.519244
1210.519235
1210.519211
1210.519209
1210.519232
1210.519238
1210.519287
1210.519366
1210.519567
1210.519949
1210.519121
1210.519155
1210.51918
1210.519197
1210.519207
1210.519217
1210.51922
1210.519212
1210.519209
1210.519195
1210.519223
1210.519288
1210.519465
1210.519927
1210.520896
1210.518853
1210.518848
1210.518856
1210.518849
1210.518844
1210.518843
1210.518853
1210.518831
1210.518823
1210.518852
1210.518881
1210.519025
1210.519408
1210.520363
1210.522352
1210.519138
1210.519138
1210.519152
1210.519155
1210.519153
1210.519141
1210.519121
1210.519144
1210.519123
1210.519139
1210.519148
1210.519306
1210.519835
1210.521292
1210.524431
1210.518439
1210.518447
1210.518426
1210.518382
1210.518403
1210.518376
1210.518386
1210.518424
1210.518442
1210.518462
1210.518521
1210.518661
1210.519048
1210.520024
1210.522002
1210.519445
1210.51946
1210.519469
1210.51947
1210.519498
1210.51949
1210.519481
1210.519485
1210.51951
1210.519531
1210.519557
1210.519631
1210.519837
1210.5203
1210.521244
1210.51853
1210.518518
1210.518536
1210.51854
1210.518512
1210.518525
1210.518523
1210.518523
1210.518491
1210.518471
1210.518456
1210.518506
1210.518601
1210.518811
1210.519225
1210.51948
1210.519476
1210.519463
1210.519473
1210.519489
1210.519492
1210.519484
1210.519486
1210.519469
1210.519492
1210.519479
1210.519481
1210.519504
1210.519608
1210.519826
1210.518879
1210.518855
1210.518843
1210.518842
1210.518829
1210.518828
1210.518836
1210.51881
1210.518807
1210.518822
1210.518835
1210.518896
1210.518963
1210.519175
1210.519234
1210.519212
1210.519244
1210.519248
1210.519246
1210.51924
1210.51925
1210.519281
1210.519289
1210.519283
1210.519293
1210.519326
1210.519504
1210.519979
1210.518296
1210.518313
1210.518289
1210.518279
1210.518271
1210.518254
1210.518271
1210.518292
1210.518295
1210.518309
1210.518361
1210.51851
1210.518984
1210.520283
1210.52294
1210.518575
1210.518572
1210.518563
1210.518576
1210.518593
1210.518591
1210.518575
1210.518604
1210.518605
1210.51864
1210.518692
1210.518991
1210.520113
1210.523308
1210.530374
1210.518324
1210.518344
1210.518363
1210.518362
1210.518366
1210.518394
1210.518417
1210.518382
1210.518397
1210.518449
1210.518569
1210.519054
1210.520848
1210.526797
1210.541599
1210.518762
1210.518779
1210.518785
1210.518803
1210.518798
1210.518788
1210.518798
1210.518791
1210.518767
1210.518792
1210.518867
1210.519221
1210.5203
1210.523518
1210.530554
1210.518366
1210.518361
1210.518363
1210.518362
1210.518373
1210.518368
1210.518363
1210.518378
1210.518385
1210.518419
1210.518453
1210.518599
1210.519091
1210.520379
1210.523021
1210.519467
1210.519467
1210.519462
1210.519457
1210.519445
1210.519443
1210.519429
1210.519428
1210.519402
1210.519429
1210.519464
1210.519535
1210.519716
1210.520192
1210.521134
1210.518555
1210.518555
1210.518539
1210.518548
1210.51854
1210.518557
1210.518559
1210.518572
1210.518559
1210.518574
1210.518576
1210.518592
1210.518687
1210.518881
1210.519279
1210.51914
1210.519115
1210.519129
1210.519145
1210.519156
1210.519162
1210.519156
1210.519149
1210.519139
1210.519137
1210.519154
1210.519193
1210.51934
1210.519689
1210.519378
1210.519391
1210.519357
1210.51936
1210.519376
1210.51938
1210.519372
1210.519361
1210.519345
1210.519353
1210.519397
1210.519534
1210.519903
1210.520879
1210.518591
1210.518595
1210.518605
1210.518609
1210.518596
1210.518583
1210.518603
1210.518597
1210.518588
1210.518594
1210.518667
1210.519002
1210.520115
1210.523302
1210.519416
1210.519446
1210.519443
1210.519441
1210.519424
1210.519419
1210.519405
1210.519392
1210.51942
1210.519452
1210.519628
1210.520383
1210.523329
1210.533575
1210.559798
1210.519084
1210.519074
1210.519079
1210.519075
1210.519058
1210.519039
1210.519043
1210.519049
1210.519065
1210.519115
1210.519368
1210.520635
1210.526424
1210.551715
1210.638368
1210.518909
1210.518915
1210.51893
1210.518927
1210.518914
1210.518894
1210.518868
1210.518868
1210.518879
1210.518903
1210.51908
1210.519811
1210.522741
1210.533001
1210.559241
1210.519191
1210.519205
1210.519182
1210.519169
1210.519167
1210.519174
1210.519216
1210.519222
1210.519239
1210.519265
1210.519366
1210.519674
1210.520768
1210.523978
1210.531038
1210.518907
1210.518913
1210.518922
1210.518917
1210.518909
1210.518928
1210.518914
1210.51891
1210.518938
1210.518927
1210.51895
1210.519068
1210.519449
1210.520412
1210.522383
1210.518983
1210.518987
1210.518993
1210.51899
1210.518982
1210.518987
1210.518971
1210.518971
1210.518948
1210.518963
1210.518993
1210.519041
1210.519178
1210.519534
1210.520254
1210.519143
1210.519125
1210.519121
1210.519112
1210.519115
1210.519087
1210.519084
1210.51909
1210.519074
1210.519077
1210.519085
1210.519163
1210.519354
1210.51981
1210.518554
1210.51858
1210.518576
1210.518573
1210.518554
1210.518536
1210.518515
1210.518546
1210.518545
1210.518541
1210.518579
1210.518754
1210.519282
1210.520746
1210.519122
1210.519106
1210.519123
1210.519107
1210.519111
1210.519111
1210.519099
1210.519089
1210.519105
1210.519131
1210.519252
1210.519703
1210.521468
1210.527399
1210.519117
1210.519133
1210.519135
1210.519131
1210.519128
1210.519121
1210.519117
1210.519097
1210.519109
1210.519167
1210.51945
1210.520666
1210.526439
1210.551737
1210.519637
1210.519628
1210.519632
1210.519638
1210.51964
1210.519616
1210.51963
1210.519611
1210.519614
1210.51971
1210.520138
1210.522541
1210.5371
1210.631832
1210.041724
1210.519157
1210.519169
1210.519191
1210.519181
1210.519152
1210.519181
1210.519204
1210.519222
1210.519226
1210.51927
1210.519535
1210.52079
1210.526576
1210.551905
1210.638563
1210.51916
1210.519172
1210.519196
1210.519187
1210.519159
1210.51915
1210.51915
1210.519143
1210.519151
1210.519174
1210.519298
1210.519777
1210.521558
1210.527472
1210.542294
1210.518825
1210.518836
1210.518824
1210.518852
1210.518878
1210.518878
1210.518873
1210.518867
1210.518858
1210.518875
1210.518902
1210.519054
1210.519561
1210.521028
1210.524149
1210.519057
1210.519046
1210.519039
1210.519035
1210.519043
1210.519057
1210.519072
1210.519066
1210.519064
1210.51909
1210.519122
1210.519172
1210.51937
1210.519856
1210.520801
1210.519057
1210.519042
1210.519007
1210.519036
1210.519028
1210.519017
1210.519021
1210.519026
1210.519034
1210.519018
1210.519039
1210.519099
1210.519241
1210.519596
1210.518461
1210.518496
1210.518515
1210.518522
1210.518495
1210.518493
1210.518481
1210.518497
1210.518523
1210.518513
1210.518541
1210.518658
1210.519022
1210.519993
1210.519139
1210.519132
1210.51915
1210.519166
1210.519187
1210.519167
1210.519183
1210.51918
1210.519154
1210.519171
1210.519247
1210.519576
1210.520687
1210.52389
1210.518647
1210.518622
1210.518629
1210.518646
1210.518641
1210.51865
1210.51865
1210.518626
1210.518632
1210.518696
1210.518887
1210.519629
1210.52258
1210.532839
1210.519177
1210.519178
1210.519173
1210.519159
1210.519162
1210.519181
1210.519165
1210.519167
1210.519204
1210.519247
1210.519513
1210.520751
1210.526577
1210.551912
1210.518995
1210.518968
1210.518974
1210.518994
1210.519003
1210.518997
1210.518979
1210.518985
1210.519012
1210.519056
1210.519236
1210.51999
1210.522961
1210.533235
1210.518484
1210.518493
1210.518488
1210.518466
1210.518458
1210.518454
1210.518465
1210.518486
1210.5185
1210.51853
1210.518606
1210.518916
1210.520001
1210.523214
1210.530289
1210.519255
1210.519266
1210.519285
1210.519288
1210.519286
1210.519308
1210.519291
1210.519301
1210.519295
1210.519292
1210.519342
1210.519475
1210.51983
1210.520798
1210.522762
1210.519338
1210.519317
1210.519323
1210.519299
1210.519291
1210.519278
1210.519279
1210.519303
1210.51931
1210.519314
1210.519313
1210.519358
1210.5195
1210.519849
1210.520544
1210.519197
1210.519202
1210.519211
1210.519212
1210.519185
1210.519178
1210.519179
1210.519151
1210.519152
1210.519159
1210.519216
1210.519255
1210.51934
1210.519552
1210.51913
1210.51913
1210.519128
1210.519129
1210.519114
1210.51913
1210.51914
1210.519143
1210.519167
1210.519138
1210.519148
1210.519204
1210.519394
1210.519841
1210.519193
1210.519157
1210.519142
1210.519112
1210.519116
1210.519132
1210.519169
1210.51919
1210.519194
1210.519208
1210.519266
1210.51944
1210.519889
1210.521189
1210.519334
1210.51933
1210.519356
1210.51935
1210.519359
1210.519378
1210.519328
1210.519335
1210.519307
1210.519331
1210.51941
1210.519712
1210.520794
1210.524045
1210.518614
1210.518626
1210.518648
1210.518644
1210.518667
1210.518638
1210.518659
1210.518678
1210.518706
1210.518707
1210.518807
1210.519299
1210.521065
1210.527012
1210.519069
1210.519072
1210.519071
1210.519059
1210.519048
1210.519052
1210.519057
1210.519051
1210.519075
1210.51912
1210.519195
1210.519516
1210.520601
1210.523796
1210.519228
1210.519231
1210.519231
1210.519204
1210.519195
1210.519186
1210.519179
1210.519178
1210.51918
1210.519189
1210.51926
1210.519431
1210.519947
1210.52123
1210.518392
1210.51841
1210.518421
1210.518415
1210.518443
1210.51845
1210.518454
1210.518462
1210.518471
1210.518463
1210.518506
1210.518581
1210.518755
1210.519231
1210.520148
1210.519243
1210.519227
1210.519219
1210.519235
1210.519248
1210.519198
1210.519199
1210.519175
1210.519156
1210.519134
1210.519157
1210.519189
1210.519279
1210.519463
1210.519876
1210.51861
1210.518591
1210.518588
1210.518567
1210.518579
1210.518557
1210.518564
1210.518583
1210.518582
1210.518568
1210.518578
1210.518605
1210.518623
1210.518753
1210.518825
1210.518803
1210.518827
1210.518825
1210.518834
1210.518829
1210.518809
1210.51876
1210.518765
1210.518772
1210.518772
1210.518768
1210.51887
1210.519107
1210.518784
1210.518801
1210.518828
1210.518803
1210.518819
1210.518815
1210.518841
1210.518861
1210.518867
1210.518904
1210.518913
1210.518994
1210.519175
1210.519637
1210.518589
1210.518593
1210.518603
1210.518612
1210.518606
1210.518578
1210.518555
1210.518556
1210.518569
1210.518572
1210.518599
1210.518722
1210.519078
1210.520038
1210.519203
1210.519214
1210.51922
1210.519236
1210.519249
1210.519257
1210.519253
1210.519266
1210.51927
1210.519263
1210.519323
1210.519489
1210.520021
1210.521496
1210.518367
1210.518347
1210.518314
1210.518325
1210.518311
1210.518312
1210.518308
1210.518315
1210.518317
1210.518303
1210.518319
1210.518414
1210.518799
1210.519788
1210.518945
1210.518971
1210.518994
1210.518964
1210.518979
1210.518984
1210.518993
1210.518978
1210.518964
1210.518971
1210.519015
1210.519069
1210.519244
1210.519712
1210.518921
1210.518917
1210.51891
1210.518896
1210.518902
1210.51888
1210.518877
1210.518886
1210.518873
1210.518901
1210.518892
1210.518919
1210.518999
1210.519208
1210.519153
1210.51916
1210.51915
1210.519163
1210.519152
1210.51917
1210.519169
1210.519168
1210.519164
1210.519166
1210.519153
1210.519197
1210.519247
1210.519358
1210.519551
1210.519293
1210.519308
1210.519299
1210.519299
1210.519302
1210.519304
1210.519292
1210.519286
1210.5193
1210.5193
1210.519309
1210.519293
1210.519322
1210.519371
1210.519209
1210.519225
1210.519221
1210.519213
1210.519198
1210.519221
1210.519206
1210.519226
1210.519212
1210.519217
1210.51924
1210.519267
1210.519315
1210.519442
1210.519291
1210.519275
1210.519298
1210.519294
1210.519276
1210.51927
1210.519258
1210.519251
1210.519253
1210.519284
1210.519313
1210.519328
1210.519448
1210.519632
1210.518253
1210.518257
1210.518253
1210.518256
1210.51827
1210.518253
1210.518258
1210.518259
1210.518259
1210.518262
1210.518261
1210.518336
1210.518473
1210.518838
1210.518445
1210.518468
1210.518452
1210.518446
1210.518432
1210.51844
1210.518466
1210.518457
1210.518489
1210.518512
1210.518543
1210.518596
1210.518776
1210.519269
1210.518697
1210.518705
1210.518712
1210.5187
1210.518731
1210.51871
1210.518698
1210.518687
1210.518673
1210.518687
1210.518704
1210.518749
1210.518872
1210.519213
1210.518641
1210.518638
1210.518643
1210.518645
1210.518629
1210.518622
1210.518623
1210.518614
1210.518614
1210.518631
1210.518628
1210.518674
1210.518769
1210.518981
1210.518461
1210.518449
1210.518451
1210.51845
1210.518436
1210.518452
1210.518462
1210.518475
1210.518487
1210.518471
1210.518496
1210.51853
1210.518556
1210.518645
1210.518784
1210.518794
1210.518799
1210.518795
1210.518793
1210.518796
1210.518802
1210.518802
1210.518801
1210.518779
1210.518784
1210.518803
1210.518829
1210.518884
)
;

boundaryField
{
    top
    {
        type            calculated;
        value           nonuniform List<scalar> 
134
(
1210.519402
1210.51948
1210.518555
1210.518983
1210.519057
1210.519338
1210.519243
1210.519153
1210.518784
1210.519397
1210.519476
1210.518555
1210.518987
1210.519046
1210.519317
1210.519227
1210.51916
1210.518794
1210.519391
1210.519463
1210.518539
1210.518993
1210.519039
1210.519323
1210.519219
1210.51915
1210.518799
1210.519405
1210.519473
1210.518548
1210.51899
1210.519035
1210.519299
1210.519235
1210.519163
1210.518795
1210.519412
1210.519489
1210.51854
1210.518982
1210.519043
1210.519291
1210.519248
1210.519152
1210.518793
1210.519429
1210.519492
1210.518557
1210.518987
1210.519057
1210.519278
1210.519198
1210.51917
1210.518796
1210.519424
1210.519484
1210.518559
1210.518971
1210.519072
1210.519279
1210.519199
1210.519169
1210.518802
1210.519413
1210.519486
1210.518572
1210.518971
1210.519066
1210.519303
1210.519175
1210.519168
1210.518802
1210.519401
1210.519469
1210.518559
1210.518948
1210.519064
1210.51931
1210.519156
1210.519164
1210.518801
1210.519409
1210.519492
1210.518574
1210.518963
1210.51909
1210.519314
1210.519134
1210.519166
1210.518779
1210.519419
1210.519479
1210.518576
1210.518993
1210.519122
1210.519313
1210.519157
1210.519153
1210.518784
1210.519452
1210.519481
1210.518592
1210.519041
1210.519172
1210.519358
1210.519189
1210.519197
1210.518803
1210.519471
1210.519504
1210.518687
1210.519178
1210.51937
1210.5195
1210.519279
1210.519247
1210.518829
1210.519514
1210.519608
1210.518881
1210.519534
1210.519856
1210.519849
1210.519463
1210.519358
1210.518884
1210.519631
1210.519826
1210.519279
1210.520254
1210.520801
1210.520544
1210.519876
1210.519551
)
;
    }
    bottom
    {
        type            calculated;
        value           nonuniform List<scalar> 
127
(
1210.518901
1210.518614
1210.518879
1210.51914
1210.519143
1210.519057
1210.519197
1210.51861
1210.519293
1210.51891
1210.518582
1210.518855
1210.519115
1210.519125
1210.519042
1210.519202
1210.518591
1210.519308
1210.518934
1210.518576
1210.518843
1210.519129
1210.519121
1210.519007
1210.519211
1210.518588
1210.519299
1210.518932
1210.518558
1210.518842
1210.519145
1210.519112
1210.519036
1210.519212
1210.518567
1210.519299
1210.518916
1210.518563
1210.518829
1210.519156
1210.519115
1210.519028
1210.519185
1210.518579
1210.519302
1210.518909
1210.518572
1210.518828
1210.519162
1210.519087
1210.519017
1210.519178
1210.518557
1210.519304
1210.518924
1210.518576
1210.518836
1210.519156
1210.519084
1210.519021
1210.519179
1210.518564
1210.519292
1210.518923
1210.518571
1210.51881
1210.519149
1210.51909
1210.519026
1210.519151
1210.518583
1210.519286
1210.518935
1210.518574
1210.518807
1210.519139
1210.519074
1210.519034
1210.519152
1210.518582
1210.5193
1210.518938
1210.518578
1210.518822
1210.519137
1210.519077
1210.519018
1210.519159
1210.518568
1210.5193
1210.518947
1210.518598
1210.518835
1210.519154
1210.519085
1210.519039
1210.519216
1210.518578
1210.519309
1210.518959
1210.518614
1210.518896
1210.519193
1210.519163
1210.519099
1210.519255
1210.518605
1210.519293
1210.518986
1210.518678
1210.518963
1210.51934
1210.519354
1210.519241
1210.51934
1210.518623
1210.519322
1210.519017
1210.518796
1210.519175
1210.519689
1210.51981
1210.519596
1210.519552
1210.518753
1210.519371
1210.519134
)
;
    }
    side-walls
    {
        type            calculated;
        value           nonuniform List<scalar> 
261
(
1210.518901
1210.518702
1210.519027
1210.51855
1210.519112
1210.519352
1210.518871
1210.51878
1210.519402
1210.51891
1210.5187
1210.519018
1210.518541
1210.519098
1210.519354
1210.518857
1210.518775
1210.519397
1210.518934
1210.518701
1210.519029
1210.518533
1210.519089
1210.519354
1210.518853
1210.518773
1210.519391
1210.518932
1210.518707
1210.519032
1210.518561
1210.519096
1210.519343
1210.518849
1210.518768
1210.519405
1210.518916
1210.518705
1210.519022
1210.518547
1210.519104
1210.519329
1210.518851
1210.518779
1210.519412
1210.518909
1210.518698
1210.519023
1210.518538
1210.519123
1210.519323
1210.518863
1210.518772
1210.519429
1210.518924
1210.518713
1210.519007
1210.518542
1210.519133
1210.519332
1210.518839
1210.518766
1210.519424
1210.518923
1210.518701
1210.519024
1210.518517
1210.519121
1210.519339
1210.518828
1210.518743
1210.519413
1210.518935
1210.518702
1210.519032
1210.51854
1210.519124
1210.519355
1210.518813
1210.518757
1210.519401
1210.518938
1210.518716
1210.519059
1210.518556
1210.519114
1210.519372
1210.518813
1210.518755
1210.519409
1210.518947
1210.518706
1210.519084
1210.518607
1210.519139
1210.519379
1210.518827
1210.518746
1210.519419
1210.518959
1210.51873
1210.519105
1210.518674
1210.51918
1210.519437
1210.518848
1210.518788
1210.519452
1210.518986
1210.518792
1210.519198
1210.518806
1210.519354
1210.519585
1210.518889
1210.518836
1210.519471
1210.519017
1210.518924
1210.51938
1210.519178
1210.519814
1210.519924
1210.519093
1210.51894
1210.519514
1210.519134
1210.519139
1210.519793
1210.519866
1210.520752
1210.52065
1210.519489
1210.519149
1210.519631
1210.519293
1210.519209
1210.519291
1210.518253
1210.518445
1210.518697
1210.518641
1210.518461
1210.518784
1210.519308
1210.519225
1210.519275
1210.518257
1210.518468
1210.518705
1210.518638
1210.518449
1210.518794
1210.519299
1210.519221
1210.519298
1210.518253
1210.518452
1210.518712
1210.518643
1210.518451
1210.518799
1210.519299
1210.519213
1210.519294
1210.518256
1210.518446
1210.5187
1210.518645
1210.51845
1210.518795
1210.519302
1210.519198
1210.519276
1210.51827
1210.518432
1210.518731
1210.518629
1210.518436
1210.518793
1210.519304
1210.519221
1210.51927
1210.518253
1210.51844
1210.51871
1210.518622
1210.518452
1210.518796
1210.519292
1210.519206
1210.519258
1210.518258
1210.518466
1210.518698
1210.518623
1210.518462
1210.518802
1210.519286
1210.519226
1210.519251
1210.518259
1210.518457
1210.518687
1210.518614
1210.518475
1210.518802
1210.5193
1210.519212
1210.519253
1210.518259
1210.518489
1210.518673
1210.518614
1210.518487
1210.518801
1210.5193
1210.519217
1210.519284
1210.518262
1210.518512
1210.518687
1210.518631
1210.518471
1210.518779
1210.519309
1210.51924
1210.519313
1210.518261
1210.518543
1210.518704
1210.518628
1210.518496
1210.518784
1210.519293
1210.519267
1210.519328
1210.518336
1210.518596
1210.518749
1210.518674
1210.51853
1210.518803
1210.519322
1210.519315
1210.519448
1210.518473
1210.518776
1210.518872
1210.518769
1210.518556
1210.518829
1210.519371
1210.519442
1210.519632
1210.518838
1210.519269
1210.519213
1210.518981
1210.518645
1210.518884
)
;
    }
    inlet
    {
        type            calculated;
        value           nonuniform List<scalar> 
81
(
1210.518901
1210.518702
1210.519027
1210.51855
1210.519112
1210.519352
1210.518871
1210.51878
1210.519402
1210.518614
1210.519259
1210.519121
1210.518853
1210.519138
1210.518439
1210.519445
1210.51853
1210.51948
1210.518879
1210.519234
1210.518296
1210.518575
1210.518324
1210.518762
1210.518366
1210.519467
1210.518555
1210.51914
1210.519378
1210.518591
1210.519416
1210.519084
1210.518909
1210.519191
1210.518907
1210.518983
1210.519143
1210.518554
1210.519122
1210.519117
1210.519637
1210.519157
1210.51916
1210.518825
1210.519057
1210.519057
1210.518461
1210.519139
1210.518647
1210.519177
1210.518995
1210.518484
1210.519255
1210.519338
1210.519197
1210.51913
1210.519193
1210.519334
1210.518614
1210.519069
1210.519228
1210.518392
1210.519243
1210.51861
1210.518825
1210.518784
1210.518589
1210.519203
1210.518367
1210.518945
1210.518921
1210.519153
1210.519293
1210.519209
1210.519291
1210.518253
1210.518445
1210.518697
1210.518641
1210.518461
1210.518784
)
;
    }
    outlet
    {
        type            calculated;
        value           nonuniform 0();
    }
    procBoundary0to1
    {
        type            processor;
        value           nonuniform List<scalar> 
97
(
1210.519364
1210.518976
1210.519476
1210.52041
1210.520975
1210.522108
1210.521759
1210.520167
1210.519475
1210.519836
1210.518976
1210.518976
1210.520591
1210.52093
1210.522358
1210.525011
1210.528148
1210.524676
1210.522668
1210.519847
1210.520188
1210.519607
1210.52093
1210.52093
1210.52648
1210.530356
1210.538036
1210.55276
1210.538234
1210.526558
1210.522569
1210.519944
1210.520375
1210.522858
1210.530356
1210.530356
1210.577614
1210.63839
1210.652005
1210.57703
1210.538728
1210.5251
1210.521343
1210.520721
1210.523857
1210.542205
1210.63839
1210.63839
1209.726651
1210.638579
1210.652237
1210.559454
1210.55344
1210.527856
1210.522199
1210.5203
1210.521953
1210.530961
1210.559082
1210.638579
1210.559454
1210.559454
1210.537969
1210.523899
1210.525458
1210.521639
1210.519917
1210.520765
1210.523793
1210.531096
1210.541824
1210.530862
1210.523899
1210.523899
1210.521549
1210.519618
1210.520528
1210.518947
1210.519471
1210.520585
1210.52203
1210.524599
1210.521795
1210.520657
1210.519618
1210.519618
1210.519888
1210.519013
1210.519471
1210.519624
1210.520044
1210.519524
1210.520209
1210.519893
1210.5194
1210.518836
1210.519013
)
;
    }
}


// ************************************************************************* //
