/*--------------------------------*- C++ -*----------------------------------*\
| =========                 |                                                 |
| \\      /  F ield         | OpenFOAM: The Open Source CFD Toolbox           |
|  \\    /   O peration     | Version:  4.x                                   |
|   \\  /    A nd           | Web:      www.OpenFOAM.org                      |
|    \\/     M anipulation  |                                                 |
\*---------------------------------------------------------------------------*/
FoamFile
{
    version     2.0;
    format      ascii;
    class       volScalarField;
    location    "3000";
    object      molarConc;
}
// * * * * * * * * * * * * * * * * * * * * * * * * * * * * * * * * * * * * * //

dimensions      [0 -3 0 0 1 0 0];

internalField   nonuniform List<scalar> 
1175
(
9.963279602
9.963279111
9.963277782
9.963277922
9.963278785
9.963279171
9.963278348
9.963278435
9.963277788
9.963277698
9.963277448
9.963277401
9.963277373
9.963278972
9.963279033
9.963290508
9.963290607
9.963290549
9.963290239
9.963290343
9.963290753
9.963289907
9.96329058
9.963290566
9.963289912
9.963290823
9.963290515
9.963289619
9.963288102
9.963287519
9.9632727
9.963273231
9.963272623
9.963272433
9.963272994
9.96327295
9.963273799
9.963272921
9.963272519
9.963271234
9.963270511
9.963271183
9.963270833
9.963271954
9.963271281
9.963298859
9.963299361
9.963299801
9.963298241
9.963299021
9.963299485
9.96329931
9.96330068
9.963299537
9.963298927
9.963297097
9.963296324
9.963297107
9.963296076
9.963296803
9.963268044
9.963268811
9.96326934
9.963268917
9.963268484
9.963267455
9.96326694
9.963267633
9.963267525
9.963268411
9.963268241
9.96326955
9.963270278
9.963270551
9.963270514
9.963254906
9.963254815
9.963254785
9.963255404
9.963256193
9.963256527
9.963256021
9.963255643
9.963254862
9.963254262
9.963254817
9.963254542
9.963254481
9.96325523
9.96325388
9.96328128
9.963282015
9.963282252
9.963282443
9.963282375
9.963281687
9.963283006
9.96328365
9.963284505
9.963284719
9.963284601
9.963285226
9.963287772
9.963287701
9.963287985
9.963286239
9.963286536
9.963286617
9.963286907
9.963286303
9.963286702
9.963287017
9.963288294
9.963287535
9.963287782
9.963288625
9.963287307
9.963287234
9.963287176
9.96328695
9.963252152
9.963252452
9.963252758
9.963251987
9.96325161
9.963250708
9.963250948
9.963251602
9.963252283
9.963251927
9.963251582
9.963250362
9.963250818
9.963251741
9.963251791
9.963295334
9.963297062
9.963297433
9.963298379
9.963298137
9.963297637
9.963297446
9.963297733
9.96329761
9.963297475
9.963296748
9.963296859
9.963295857
9.963295078
9.963259986
9.963260029
9.96326083
9.963259128
9.963259782
9.963260851
9.963261345
9.963262642
9.963262837
9.963261759
9.963262082
9.963261167
9.963261642
9.963261935
9.96326332
9.963267554
9.963265689
9.963264342
9.9632634
9.96326288
9.96326229
9.963262178
9.963262634
9.963262908
9.963263994
9.963263657
9.963263779
9.963264574
9.963265053
9.963263464
9.963282236
9.963282545
9.963282109
9.963282462
9.963282726
9.9632828
9.963282271
9.963283527
9.963284121
9.963283075
9.963283479
9.963282215
9.963281396
9.963281788
9.963280797
9.963266653
9.963266658
9.963265858
9.963265695
9.963265805
9.963266479
9.963267608
9.963266353
9.963267726
9.963267487
9.963269528
9.963269776
9.963269298
9.963269305
9.96326846
9.963304934
9.963304471
9.963305656
9.963308068
9.963306905
9.963308368
9.963307848
9.963305799
9.96330495
9.963304425
9.963303217
9.963302187
9.96330111
9.963300333
9.96329995
9.963249818
9.963249019
9.963248532
9.963248435
9.963246895
9.963247337
9.963247855
9.963247651
9.963246408
9.963245633
9.963245372
9.963245
9.963244193
9.963244592
9.963244395
9.963299944
9.963300575
9.963299616
9.963299383
9.963300923
9.963300205
9.963300353
9.963300364
9.963302131
9.963303425
9.963304882
9.963303949
9.96330354
9.963303313
9.96330292
9.963247928
9.963248147
9.963248822
9.96324831
9.963247424
9.963247236
9.963247682
9.963247572
9.963248555
9.963247443
9.963248509
9.963249381
9.963250619
9.963250607
9.963249878
9.963280803
9.963282147
9.963282818
9.963282842
9.963283554
9.963283625
9.963283168
9.963284617
9.963284854
9.963284219
9.963284128
9.963282599
9.963283714
9.963283223
9.963261387
9.963262593
9.963260846
9.963260637
9.963260725
9.96326103
9.963260508
9.963258837
9.963258497
9.963259178
9.963259837
9.963261745
9.963262427
9.963262172
9.963312727
9.963311816
9.963313122
9.963313702
9.96331415
9.963315059
9.963314167
9.963313047
9.963313062
9.963313014
9.963312656
9.9633131
9.963313765
9.963313057
9.963312537
9.963297464
9.963297636
9.963298151
9.963297404
9.963296511
9.963296609
9.963297507
9.963295976
9.963296214
9.963295533
9.963297364
9.963298514
9.96329692
9.963297748
9.963296946
9.963311242
9.963310128
9.963309107
9.963309124
9.963308932
9.96330738
9.963306156
9.963308181
9.963307678
9.963306416
9.963306255
9.963305483
9.963304622
9.963303904
9.963303585
9.963287212
9.963286319
9.96328596
9.963285009
9.96328525
9.963285795
9.963285255
9.96328576
9.963287341
9.963287206
9.963287769
9.963285942
9.963286641
9.963286242
9.963287055
9.963308923
9.963309175
9.963309066
9.963309139
9.963308557
9.963308804
9.963309089
9.963308328
9.963308154
9.963306977
9.963307652
9.963308269
9.963307899
9.96330777
9.963308034
9.963248637
9.963248644
9.963248905
9.963249151
9.963249826
9.963249932
9.963250696
9.963250798
9.963252292
9.963251181
9.963250458
9.963250271
9.963250854
9.963250538
9.963250395
9.963298556
9.963298593
9.963299418
9.963298929
9.963299379
9.963298434
9.963298333
9.963297676
9.963298415
9.963297809
9.963298345
9.963299282
9.963298822
9.963299281
9.963299438
9.963266505
9.963267907
9.963267111
9.963266236
9.963265631
9.96326531
9.963265657
9.963266061
9.963266692
9.963267109
9.963267132
9.963267897
9.963267877
9.96326808
9.963253507
9.963252785
9.96325465
9.96325449
9.963253616
9.963253381
9.96325383
9.963254491
9.963255493
9.96325565
9.96325524
9.963254349
9.96325428
9.963253536
9.963296607
9.9632964
9.963295841
9.963295637
9.963296304
9.963297043
9.963295972
9.963296356
9.963297165
9.963298013
9.963298754
9.96329792
9.963296827
9.963298159
9.963251402
9.96324979
9.963249939
9.963250018
9.963250998
9.963251239
9.963252073
9.963252854
9.96325187
9.963252311
9.963252373
9.963251847
9.963251913
9.963251543
9.963250731
9.963269608
9.963270145
9.963269873
9.963270107
9.96327104
9.963272094
9.963271878
9.963271678
9.963271486
9.963271753
9.963272278
9.963271035
9.963271476
9.963271281
9.963339107
9.963279201
9.963278877
9.963278041
9.963278205
9.963278928
9.963280036
9.963281475
9.963281576
9.963281482
9.963282371
9.963282383
9.963283169
9.963284108
9.963282868
9.96328093
9.96326373
9.963262991
9.963264251
9.963264947
9.963265075
9.963264679
9.963262387
9.963262148
9.963261478
9.963261286
9.963260471
9.963261134
9.963261034
9.963261051
9.963260557
9.963279277
9.963278953
9.963278445
9.963278734
9.96327917
9.96327814
9.963278927
9.963279173
9.963277775
9.963278976
9.963279676
9.963279861
9.963279158
9.963279106
9.963279058
9.963275143
9.963274922
9.963274566
9.963274739
9.9632752
9.963274887
9.963275801
9.963275846
9.963277145
9.96327662
9.963275938
9.963276248
9.96327675
9.963276537
9.963275602
9.96326634
9.963267363
9.963267554
9.963268034
9.963267898
9.963269435
9.963269605
9.963269326
9.963270287
9.963270451
9.96327119
9.963270492
9.963270311
9.963270793
9.963298611
9.963297181
9.963297404
9.96329757
9.963298648
9.963299595
9.963300769
9.96329913
9.963299336
9.963300263
9.963300726
9.963299991
9.963299626
9.963299226
9.963267521
9.963268394
9.963267434
9.963268355
9.963268131
9.963268126
9.963268824
9.963269423
9.96326893
9.963269036
9.963268846
9.963269908
9.963270705
9.963271039
9.963267766
9.963266901
9.963266818
9.963267033
9.963267187
9.963267564
9.963267802
9.963269078
9.963269038
9.963268909
9.963267777
9.963269362
9.963270706
9.963270432
9.96323932
9.963239806
9.963239609
9.963239278
9.963239133
9.963240459
9.963239761
9.963240977
9.963241662
9.963240747
9.963240601
9.963240742
9.963240106
9.963235454
10.03204035
9.963265607
9.963264956
9.963263732
9.963264271
9.963265871
9.963264304
9.963263084
9.963262238
9.963262664
9.963263293
9.963263138
9.963262581
9.96326314
9.963260914
9.963328507
9.963265433
9.963264779
9.963263457
9.963263957
9.963265467
9.963266012
9.963266013
9.963266489
9.963266381
9.963266674
9.963266318
9.963265868
9.963265766
9.963266945
9.963265552
9.963283766
9.963283173
9.963283839
9.963282304
9.963280889
9.963280881
9.963281151
9.963281538
9.963282194
9.963281953
9.963283046
9.963283552
9.96328431
9.96328375
9.963283876
9.963271068
9.963271652
9.963272053
9.963272306
9.963271818
9.963271104
9.963270248
9.963270598
9.963270815
9.96326977
9.963269153
9.96326999
9.963269424
9.963268247
9.963267784
9.963271047
9.963271903
9.963273801
9.963272244
9.963272656
9.96327327
9.963273064
9.963272804
9.963272454
9.963273615
9.96327345
9.963273049
9.963273282
9.963273172
9.963303739
9.963301776
9.963300754
9.963300393
9.963301844
9.963301959
9.963302617
9.963301823
9.963300532
9.963301666
9.963302115
9.963302338
9.963302577
9.963302083
9.963266582
9.96326696
9.963265961
9.963265102
9.963263971
9.963265068
9.963264203
9.963264457
9.963266153
9.963266454
9.963266981
9.963266459
9.963265478
9.963265925
9.963293539
9.963294911
9.963294516
9.963293566
9.963293869
9.963293378
9.963293407
9.963294857
9.963295032
9.963293734
9.963292981
9.963293183
9.963292966
9.963291936
9.963264492
9.963264473
9.963264706
9.963265473
9.96326531
9.963264284
9.963265188
9.963265226
9.963263841
9.963264541
9.963264332
9.963264731
9.963263117
9.963260881
9.96327447
9.963275964
9.963275636
9.963274499
9.963274037
9.963274395
9.963275356
9.963275172
9.96327422
9.963274009
9.963273875
9.963273419
9.963272081
9.963270232
9.963302475
9.963301991
9.963302252
9.963303466
9.963303861
9.963304121
9.963303538
9.963302417
9.963301985
9.96330154
9.963302063
9.96330265
9.963303053
9.963302928
9.963301668
9.963260209
9.963259646
9.963258563
9.963258411
9.963258528
9.963257343
9.963258278
9.963257748
9.96325825
9.963258978
9.963258255
9.963257593
9.963258294
9.96325798
9.963258313
9.963255676
9.963256834
9.963256501
9.963257818
9.963258236
9.963258981
9.963258905
9.963257638
9.963257354
9.963257422
9.963258435
9.963258879
9.963259115
9.963259317
9.963259698
9.963263424
9.963263116
9.963262662
9.963262595
9.963264048
9.963264447
9.963264388
9.963265926
9.963265933
9.963265792
9.963263255
9.963262928
9.963263079
9.963262561
9.963267053
9.963267051
9.963267195
9.963267107
9.963267936
9.963267103
9.963266511
9.963266382
9.96326516
9.96326713
9.96326775
9.963268423
9.963268476
9.963269755
9.96326362
9.963265601
9.963266439
9.963268039
9.963267821
9.963266998
9.963264961
9.963263869
9.963263822
9.963263727
9.963263115
9.963262189
9.963264202
9.963263483
9.96325593
9.963256131
9.963254702
9.963255023
9.963254561
9.963253511
9.96325623
9.963255969
9.963257776
9.963257635
9.963258049
9.963259059
9.963259619
9.963257432
9.963295343
9.963294682
9.963293464
9.963293698
9.963292427
9.963294029
9.963292926
9.963291956
9.963290757
9.96329225
9.963293231
9.96329207
9.963292744
9.963292232
9.963270433
9.963270253
9.963270283
9.963270983
9.963271564
9.963271356
9.963271109
9.963271486
9.963270505
9.963269238
9.963269806
9.963269791
9.963270223
9.963271074
9.963261691
9.963261537
9.963261555
9.963263037
9.963263543
9.963264024
9.963264391
9.963264504
9.963264602
9.963264792
9.963263439
9.963262696
9.96326103
9.963261192
9.963307516
9.963306532
9.963305908
9.963306222
9.963304715
9.963304338
9.963304094
9.963303709
9.963303335
9.963304123
9.963302953
9.963302548
9.963303485
9.963303177
9.963304432
9.96326088
9.963261782
9.963262186
9.963261338
9.963260602
9.96326333
9.96326331
9.963264615
9.963265757
9.963267153
9.963266508
9.963266577
9.963266433
9.963267458
9.963266758
9.963295545
9.96329658
9.963296734
9.963297923
9.963297257
9.963298486
9.963298078
9.963297049
9.963297139
9.963298052
9.96329784
9.963297331
9.963298873
9.963297457
9.963283769
9.963285012
9.963283689
9.963283788
9.963283309
9.963283588
9.963284668
9.963287344
9.963287173
9.963286962
9.963287596
9.963289593
9.963288829
9.963287113
9.963286032
9.963285104
9.963283594
9.963284999
9.963284128
9.963284351
9.963282896
9.963281824
9.9632816
9.963279948
9.963280647
9.963279889
9.963280446
9.963280927
9.963296721
9.963296489
9.963295925
9.963295443
9.963295786
9.963297331
9.963298563
9.963298567
9.963298023
9.963298392
9.963298909
9.963298815
9.963299503
9.963299577
9.963263081
9.963262465
9.963262156
9.963261277
9.963260548
9.963260148
9.963260374
9.963259668
9.963259632
9.963260741
9.96325995
9.963259728
9.963259144
9.96325814
9.963308877
9.963309938
9.963311767
9.963311145
9.96331196
9.963311888
9.963312134
9.963311789
9.963311818
9.963313149
9.963314247
9.963315685
9.963314748
9.963313288
9.963277196
9.963275799
9.963274499
9.963276151
9.963275334
9.963275097
9.963274595
9.963275418
9.963276317
9.963276301
9.96327503
9.963275785
9.963276675
9.963276843
9.963278503
9.963278736
9.963279144
9.963279894
9.963279573
9.963280785
9.963280959
9.963280455
9.963281235
9.963279906
9.963281006
9.963281368
9.963281748
9.963281566
9.963265832
9.963265429
9.963265956
9.963265266
9.963265854
9.963264867
9.963264927
9.963265022
9.963265276
9.963265292
9.96326635
9.963264957
9.963264718
9.9632643
9.963264959
9.963258173
9.963257303
9.963257793
9.963257799
9.963257678
9.963257521
9.96325823
9.963258563
9.963257797
9.963257859
9.963257618
9.963259075
9.963258992
9.963259586
9.963262755
9.963261846
9.963262095
9.963262547
9.963263347
9.963262117
9.9632629
9.963261845
9.963262637
9.963262509
9.963261596
9.963261104
9.963260986
9.963259682
9.963258277
9.963259143
9.963257873
9.963258087
9.963259077
9.963259402
9.963260077
9.96326049
9.963260406
9.963258944
9.963257942
9.96325896
9.963257139
9.963258156
9.963315109
9.963314909
9.963315104
9.963314925
9.96331416
9.963315097
9.963314842
9.963314812
9.963314888
9.963315052
9.963316027
9.963314864
9.963315362
9.96331467
9.963304569
9.963303322
9.963304193
9.96330452
9.963305298
9.963304855
9.963303467
9.963303982
9.963302343
9.963301391
9.963300875
9.963301535
9.96330195
9.963300389
9.963290787
9.963290362
9.96328998
9.963290621
9.963288956
9.963290103
9.963290746
9.963291354
9.963292226
9.963291764
9.96329176
9.963292229
9.963293489
9.963294134
9.963293885
9.963293998
9.963293738
9.963293614
9.963294525
9.96329492
9.963294868
9.963295349
9.963295419
9.963294672
9.963295484
9.96329477
9.963294342
9.963293843
9.963303693
9.963304358
9.963304256
9.963304333
9.963305088
9.963304206
9.963303695
9.963302963
9.96330237
9.963303373
9.963302333
9.96330144
9.963302574
9.963303382
9.963286043
9.963285474
9.963285208
9.963285425
9.96328551
9.963285389
9.963285035
9.963285071
9.96328512
9.963286448
9.963286402
9.96328593
9.963286002
9.963286244
)
;

boundaryField
{
    top
    {
        type            calculated;
        value           nonuniform List<scalar> 
134
(
9.963252152
9.963247928
9.963298556
9.963275143
9.963271068
9.963255676
9.96326088
9.963265832
9.963286043
9.963252452
9.963248147
9.963298593
9.963274922
9.963271652
9.963256834
9.963261782
9.963265429
9.963285474
9.963252758
9.963248822
9.963299418
9.963274566
9.963272053
9.963256501
9.963262186
9.963265956
9.963285208
9.963251987
9.96324831
9.963298929
9.963274739
9.963272306
9.963257818
9.963261338
9.963265266
9.963285425
9.96325161
9.963247424
9.963299379
9.9632752
9.963271818
9.963258236
9.963260602
9.963265854
9.96328551
9.963250708
9.963247236
9.963298434
9.963274887
9.963271104
9.963258981
9.96326333
9.963264867
9.963285389
9.963250948
9.963247682
9.963298333
9.963275801
9.963270248
9.963258905
9.96326331
9.963264927
9.963285035
9.963251602
9.963247572
9.963297676
9.963275846
9.963270598
9.963257638
9.963264615
9.963265022
9.963285071
9.963252283
9.963248555
9.963298415
9.963277145
9.963270815
9.963257354
9.963265757
9.963265276
9.96328512
9.963251927
9.963247443
9.963297809
9.96327662
9.96326977
9.963257422
9.963267153
9.963265292
9.963286448
9.963251582
9.963248509
9.963298345
9.963275938
9.963269153
9.963258435
9.963266508
9.96326635
9.963286402
9.963250362
9.963249381
9.963299282
9.963276248
9.96326999
9.963258879
9.963266577
9.963264957
9.96328593
9.963250818
9.963250619
9.963298822
9.96327675
9.963269424
9.963259115
9.963266433
9.963264718
9.963286002
9.963251741
9.963250607
9.963299281
9.963276537
9.963268247
9.963259317
9.963267458
9.9632643
9.963286244
9.963251791
9.963249878
9.963299438
9.963275602
9.963267784
9.963259698
9.963266758
9.963264959
)
;
    }
    bottom
    {
        type            calculated;
        value           nonuniform List<scalar> 
127
(
9.963279602
9.963295334
9.963280803
9.963266505
9.96326634
9.963271047
9.963263424
9.963295545
9.963258173
9.963279111
9.963297062
9.963282147
9.963267907
9.963267363
9.963271903
9.963263116
9.96329658
9.963257303
9.963277782
9.963297433
9.963282818
9.963267111
9.963267554
9.963273801
9.963262662
9.963296734
9.963257793
9.963277922
9.963298379
9.963282842
9.963266236
9.963268034
9.963272244
9.963262595
9.963297923
9.963257799
9.963278785
9.963298137
9.963283554
9.963265631
9.963267898
9.963272656
9.963264048
9.963297257
9.963257678
9.963279171
9.963297637
9.963283625
9.96326531
9.963269435
9.96327327
9.963264447
9.963298486
9.963257521
9.963278348
9.963297446
9.963283168
9.963265657
9.963269605
9.963273064
9.963264388
9.963298078
9.96325823
9.963278435
9.963297733
9.963284617
9.963266061
9.963269326
9.963272804
9.963265926
9.963297049
9.963258563
9.963277788
9.96329761
9.963284854
9.963266692
9.963270287
9.963272454
9.963265933
9.963297139
9.963257797
9.963277698
9.963297475
9.963284219
9.963267109
9.963270451
9.963273615
9.963265792
9.963298052
9.963257859
9.963277448
9.963296748
9.963284128
9.963267132
9.96327119
9.96327345
9.963263255
9.96329784
9.963257618
9.963277401
9.963296859
9.963282599
9.963267897
9.963270492
9.963273049
9.963262928
9.963297331
9.963259075
9.963277373
9.963295857
9.963283714
9.963267877
9.963270311
9.963273282
9.963263079
9.963298873
9.963258992
9.963278972
9.963295078
9.963283223
9.96326808
9.963270793
9.963273172
9.963262561
9.963297457
9.963259586
9.963279033
)
;
    }
    side-walls
    {
        type            calculated;
        value           nonuniform List<scalar> 
261
(
9.963279602
9.963290508
9.9632727
9.963298859
9.963268044
9.963254906
9.96328128
9.963286239
9.963252152
9.963279111
9.963290607
9.963273231
9.963299361
9.963268811
9.963254815
9.963282015
9.963286536
9.963252452
9.963277782
9.963290549
9.963272623
9.963299801
9.96326934
9.963254785
9.963282252
9.963286617
9.963252758
9.963277922
9.963290239
9.963272433
9.963298241
9.963268917
9.963255404
9.963282443
9.963286907
9.963251987
9.963278785
9.963290343
9.963272994
9.963299021
9.963268484
9.963256193
9.963282375
9.963286303
9.96325161
9.963279171
9.963290753
9.96327295
9.963299485
9.963267455
9.963256527
9.963281687
9.963286702
9.963250708
9.963278348
9.963289907
9.963273799
9.96329931
9.96326694
9.963256021
9.963283006
9.963287017
9.963250948
9.963278435
9.96329058
9.963272921
9.96330068
9.963267633
9.963255643
9.96328365
9.963288294
9.963251602
9.963277788
9.963290566
9.963272519
9.963299537
9.963267525
9.963254862
9.963284505
9.963287535
9.963252283
9.963277698
9.963289912
9.963271234
9.963298927
9.963268411
9.963254262
9.963284719
9.963287782
9.963251927
9.963277448
9.963290823
9.963270511
9.963297097
9.963268241
9.963254817
9.963284601
9.963288625
9.963251582
9.963277401
9.963290515
9.963271183
9.963296324
9.96326955
9.963254542
9.963285226
9.963287307
9.963250362
9.963277373
9.963289619
9.963270833
9.963297107
9.963270278
9.963254481
9.963287772
9.963287234
9.963250818
9.963278972
9.963288102
9.963271954
9.963296076
9.963270551
9.96325523
9.963287701
9.963287176
9.963251741
9.963279033
9.963287519
9.963271281
9.963296803
9.963270514
9.96325388
9.963287985
9.96328695
9.963251791
9.963258173
9.963262755
9.963258277
9.963315109
9.963304569
9.963290787
9.963293885
9.963303693
9.963286043
9.963257303
9.963261846
9.963259143
9.963314909
9.963303322
9.963290362
9.963293998
9.963304358
9.963285474
9.963257793
9.963262095
9.963257873
9.963315104
9.963304193
9.96328998
9.963293738
9.963304256
9.963285208
9.963257799
9.963262547
9.963258087
9.963314925
9.96330452
9.963290621
9.963293614
9.963304333
9.963285425
9.963257678
9.963263347
9.963259077
9.96331416
9.963305298
9.963288956
9.963294525
9.963305088
9.96328551
9.963257521
9.963262117
9.963259402
9.963315097
9.963304855
9.963290103
9.96329492
9.963304206
9.963285389
9.96325823
9.9632629
9.963260077
9.963314842
9.963303467
9.963290746
9.963294868
9.963303695
9.963285035
9.963258563
9.963261845
9.96326049
9.963314812
9.963303982
9.963291354
9.963295349
9.963302963
9.963285071
9.963257797
9.963262637
9.963260406
9.963314888
9.963302343
9.963292226
9.963295419
9.96330237
9.96328512
9.963257859
9.963262509
9.963258944
9.963315052
9.963301391
9.963291764
9.963294672
9.963303373
9.963286448
9.963257618
9.963261596
9.963257942
9.963316027
9.963300875
9.96329176
9.963295484
9.963302333
9.963286402
9.963259075
9.963261104
9.96325896
9.963314864
9.963301535
9.963292229
9.96329477
9.96330144
9.96328593
9.963258992
9.963260986
9.963257139
9.963315362
9.96330195
9.963293489
9.963294342
9.963302574
9.963286002
9.963259586
9.963259682
9.963258156
9.96331467
9.963300389
9.963294134
9.963293843
9.963303382
9.963286244
)
;
    }
    inlet
    {
        type            calculated;
        value           nonuniform List<scalar> 
81
(
9.963279602
9.963290508
9.9632727
9.963298859
9.963268044
9.963254906
9.96328128
9.963286239
9.963252152
9.963295334
9.963259986
9.963267554
9.963282236
9.963266653
9.963304934
9.963249818
9.963299944
9.963247928
9.963280803
9.963261387
9.963312727
9.963297464
9.963311242
9.963287212
9.963308923
9.963248637
9.963298556
9.963266505
9.963253507
9.963296607
9.963251402
9.963269608
9.963279201
9.96326373
9.963279277
9.963275143
9.96326634
9.963298611
9.963267521
9.963267766
9.96323932
9.963265607
9.963265433
9.963283766
9.963271068
9.963271047
9.963303739
9.963266582
9.963293539
9.963264492
9.96327447
9.963302475
9.963260209
9.963255676
9.963263424
9.963267053
9.96326362
9.96325593
9.963295343
9.963270433
9.963261691
9.963307516
9.96326088
9.963295545
9.963283769
9.963286032
9.963296721
9.963263081
9.963308877
9.963277196
9.963278503
9.963265832
9.963258173
9.963262755
9.963258277
9.963315109
9.963304569
9.963290787
9.963293885
9.963303693
9.963286043
)
;
    }
    outlet
    {
        type            calculated;
        value           nonuniform 0();
    }
    procBoundary0to1
    {
        type            processor;
        value           nonuniform List<scalar> 
97
(
9.963277655
9.96329645
9.963287994
9.963273272
9.963295767
9.963271964
9.963252818
9.963286591
9.963288042
9.963251815
9.96329645
9.96329645
9.963264133
9.963261567
9.963261046
9.963282513
9.963268297
9.963300866
9.963244091
9.963304869
9.963249036
9.963281472
9.963261567
9.963261567
9.963312477
9.963298009
9.963296976
9.963300625
9.96328613
9.963308189
9.96324948
9.963298807
9.963268984
9.96325309
9.963298009
9.963298009
9.963248825
9.963339024
9.963339996
9.963280689
9.96325907
9.96327761
9.963275611
9.96327218
9.963299919
9.963270558
9.963339024
9.963339024
10.03206531
9.963328688
9.963327333
9.963269533
9.963263365
9.963284296
9.963266974
9.963273059
9.963302642
9.963264839
9.963289893
9.963328688
9.963269533
9.963269533
9.963300658
9.963260045
9.963258052
9.963259411
9.963264515
9.963270595
9.963265827
9.963257428
9.963291431
9.96327022
9.963260045
9.963260045
9.963305374
9.963281407
9.963266832
9.963298013
9.963289487
9.963280501
9.963298428
9.963259249
9.963311323
9.963276558
9.963281407
9.963281407
9.963265471
9.963285669
9.963260545
9.963260964
9.963257578
9.96331558
9.963300231
9.963295334
9.963292851
9.963304104
9.963285669
)
;
    }
}


// ************************************************************************* //
