/*--------------------------------*- C++ -*----------------------------------*\
| =========                 |                                                 |
| \\      /  F ield         | OpenFOAM: The Open Source CFD Toolbox           |
|  \\    /   O peration     | Version:  4.x                                   |
|   \\  /    A nd           | Web:      www.OpenFOAM.org                      |
|    \\/     M anipulation  |                                                 |
\*---------------------------------------------------------------------------*/
FoamFile
{
    version     2.0;
    format      ascii;
    class       volScalarField;
    location    "3000";
    object      N2;
}
// * * * * * * * * * * * * * * * * * * * * * * * * * * * * * * * * * * * * * //

dimensions      [0 0 0 0 0 0 0];

internalField   nonuniform List<scalar> 
1175
(
0.6215293965
0.621529397
0.6215293971
0.6215293972
0.6215293968
0.6215293965
0.6215293966
0.6215293959
0.6215293941
0.6215293891
0.6215293742
0.6215293346
0.6215292375
0.6215290234
0.6215286009
0.6215293971
0.6215293967
0.6215293968
0.6215293966
0.6215293963
0.6215293966
0.6215293963
0.6215293955
0.6215293931
0.6215293848
0.6215293616
0.6215292972
0.6215291327
0.6215287613
0.6215280288
0.6215293968
0.6215293968
0.6215293969
0.6215293968
0.6215293965
0.6215293963
0.6215293959
0.6215293948
0.6215293909
0.6215293778
0.6215293373
0.6215292192
0.6215289076
0.6215281813
0.621526746
0.6215293967
0.6215293966
0.6215293965
0.6215293968
0.6215293966
0.6215293964
0.6215293959
0.6215293943
0.6215293886
0.6215293694
0.6215293065
0.6215291168
0.6215285925
0.6215273303
0.6215248167
0.6215293965
0.6215293966
0.6215293967
0.6215293967
0.6215293964
0.6215293966
0.6215293956
0.621529394
0.621529388
0.6215293655
0.6215292897
0.6215290545
0.6215283851
0.6215267218
0.6215233671
0.6215293968
0.6215293967
0.621529397
0.6215293969
0.6215293964
0.6215293962
0.6215293959
0.6215293943
0.6215293889
0.6215293696
0.621529307
0.6215291165
0.6215285923
0.6215273301
0.6215248168
0.6215293971
0.6215293966
0.6215293966
0.6215293966
0.621529397
0.6215293964
0.6215293963
0.6215293953
0.6215293913
0.6215293783
0.621529337
0.6215292192
0.6215289073
0.6215281813
0.621526746
0.6215293971
0.6215293969
0.6215293969
0.6215293968
0.6215293973
0.6215293973
0.6215293964
0.6215293957
0.6215293936
0.6215293854
0.6215293619
0.6215292971
0.6215291329
0.6215287616
0.6215280293
0.6215293973
0.621529397
0.621529397
0.6215293971
0.6215293972
0.6215293975
0.6215293971
0.6215293961
0.6215293944
0.6215293893
0.6215293743
0.6215293352
0.6215292381
0.6215290241
0.6215286016
0.6215293973
0.6215293965
0.6215293966
0.621529396
0.6215293966
0.6215293963
0.6215293962
0.6215293956
0.6215293925
0.6215293846
0.6215293616
0.6215292968
0.6215291324
0.621528761
0.6215293967
0.6215293965
0.6215293964
0.6215293968
0.6215293968
0.6215293966
0.6215293963
0.6215293952
0.621529391
0.6215293784
0.621529338
0.6215292197
0.6215289051
0.6215281681
0.6215267107
0.6215293965
0.6215293965
0.6215293967
0.6215293968
0.6215293967
0.6215293968
0.621529396
0.6215293942
0.6215293872
0.6215293643
0.6215292867
0.6215290448
0.6215283603
0.6215266771
0.6215233111
0.6215293962
0.621529396
0.6215293962
0.6215293966
0.6215293968
0.6215293964
0.6215293956
0.6215293932
0.6215293832
0.6215293466
0.6215292157
0.6215287815
0.6215274657
0.6215240234
0.6215169681
0.6215293964
0.6215293963
0.6215293968
0.6215293966
0.6215293968
0.6215293962
0.6215293953
0.6215293927
0.6215293806
0.6215293361
0.6215291705
0.6215285916
0.6215267276
0.6215215155
0.6215103356
0.6215293968
0.6215293968
0.6215293965
0.6215293965
0.6215293966
0.621529396
0.6215293952
0.6215293928
0.6215293835
0.6215293461
0.6215292158
0.6215287817
0.6215274655
0.6215240236
0.6215169686
0.6215293966
0.6215293965
0.6215293967
0.6215293969
0.6215293968
0.6215293969
0.6215293962
0.6215293942
0.6215293879
0.6215293643
0.6215292868
0.621529045
0.6215283606
0.6215266776
0.6215233126
0.621529397
0.6215293969
0.6215293971
0.6215293969
0.6215293975
0.6215293971
0.6215293965
0.6215293954
0.6215293915
0.6215293784
0.6215293379
0.6215292199
0.6215289056
0.6215281691
0.6215267121
0.6215293969
0.6215293967
0.6215293967
0.6215293971
0.6215293969
0.6215293973
0.6215293969
0.6215293962
0.6215293933
0.6215293859
0.621529362
0.6215292969
0.6215291325
0.6215287616
0.6215280291
0.6215293972
0.6215293971
0.6215293968
0.6215293966
0.6215293967
0.6215293963
0.6215293964
0.6215293952
0.6215293911
0.6215293778
0.6215293377
0.621529219
0.6215289069
0.6215281802
0.6215293965
0.6215293966
0.6215293966
0.6215293966
0.6215293967
0.6215293965
0.6215293959
0.6215293944
0.621529388
0.6215293647
0.6215292874
0.6215290454
0.6215283603
0.6215266761
0.6215293966
0.6215293967
0.6215293968
0.6215293967
0.6215293966
0.6215293962
0.6215293954
0.6215293926
0.6215293803
0.6215293349
0.6215291693
0.6215286066
0.6215268692
0.6215222641
0.6215127848
0.6215293963
0.6215293965
0.6215293967
0.6215293969
0.6215293966
0.6215293962
0.6215293949
0.6215293909
0.6215293715
0.6215292928
0.6215289849
0.6215278396
0.6215239301
0.6215124406
0.621487204
0.6215293963
0.6215293966
0.6215293968
0.6215293968
0.6215293967
0.6215293965
0.6215293954
0.621529389
0.6215293655
0.6215292647
0.6215288454
0.6215271609
0.6215207972
0.6214995617
0.6214466185
0.6215293965
0.6215293968
0.6215293967
0.6215293969
0.6215293966
0.6215293964
0.6215293955
0.6215293906
0.621529371
0.6215292922
0.6215289849
0.6215278396
0.6215239304
0.6215124423
0.6214872099
0.6215293968
0.6215293968
0.6215293967
0.621529397
0.621529397
0.6215293964
0.6215293956
0.6215293925
0.6215293807
0.6215293348
0.6215291695
0.6215286061
0.6215268694
0.6215222663
0.6215127914
0.621529397
0.6215293968
0.621529397
0.6215293969
0.6215293968
0.6215293967
0.6215293962
0.6215293941
0.6215293872
0.6215293643
0.6215292872
0.6215290451
0.6215283603
0.6215266779
0.6215233126
0.621529397
0.6215293968
0.6215293966
0.6215293965
0.6215293964
0.6215293968
0.6215293964
0.6215293957
0.6215293912
0.6215293782
0.6215293372
0.6215292187
0.6215289073
0.6215281816
0.6215267464
0.6215293973
0.621529397
0.6215293972
0.6215293968
0.6215293971
0.6215293971
0.6215293967
0.6215293946
0.6215293887
0.6215293693
0.6215293068
0.6215291161
0.6215285923
0.6215273292
0.621529397
0.621529397
0.6215293968
0.6215293969
0.6215293971
0.6215293966
0.6215293958
0.6215293934
0.6215293828
0.6215293463
0.6215292155
0.6215287813
0.6215274645
0.6215240202
0.6215293969
0.6215293967
0.6215293967
0.6215293967
0.6215293968
0.6215293964
0.6215293953
0.6215293907
0.6215293713
0.6215292925
0.6215289844
0.6215278389
0.6215239283
0.6215124337
0.6215293968
0.6215293968
0.6215293969
0.621529397
0.6215293964
0.6215293962
0.6215293946
0.621529387
0.6215293538
0.621529208
0.6215285739
0.621525907
0.621515364
0.6214787272
0.6213849363
0.6215293968
0.621529397
0.6215293969
0.6215293968
0.6215293968
0.6215293963
0.6215293945
0.6215293851
0.6215293426
0.6215291443
0.6215282047
0.6215237533
0.6215030176
0.6214125612
0.6210981578
0.6215293968
0.6215293969
0.6215293969
0.6215293969
0.6215293966
0.6215293959
0.6215293948
0.6215293872
0.621529354
0.6215292079
0.6215285741
0.621525907
0.6215153655
0.6214787368
0.6213849795
0.6215293972
0.6215293969
0.6215293968
0.6215293967
0.6215293965
0.6215293963
0.6215293952
0.6215293905
0.6215293716
0.6215292929
0.6215289849
0.6215278395
0.6215239302
0.6215124419
0.6214872094
0.6215293969
0.6215293969
0.6215293968
0.6215293964
0.6215293963
0.6215293961
0.6215293956
0.6215293933
0.6215293838
0.6215293466
0.6215292158
0.6215287817
0.6215274657
0.6215240232
0.6215169684
0.6215293962
0.6215293966
0.6215293969
0.6215293966
0.6215293963
0.6215293963
0.6215293958
0.6215293946
0.6215293888
0.6215293696
0.6215293067
0.6215291167
0.6215285928
0.6215273303
0.621524817
0.6215293972
0.6215293972
0.6215293968
0.6215293972
0.6215293969
0.6215293968
0.6215293961
0.6215293942
0.6215293877
0.6215293649
0.6215292894
0.6215290545
0.621528385
0.6215267207
0.6215293965
0.6215293968
0.6215293969
0.621529397
0.6215293969
0.6215293964
0.6215293953
0.6215293926
0.6215293806
0.6215293357
0.62152917
0.621528591
0.6215267263
0.6215215107
0.6215293964
0.6215293971
0.6215293972
0.621529397
0.6215293967
0.6215293964
0.6215293949
0.6215293896
0.6215293661
0.621529265
0.6215288454
0.6215271604
0.6215207932
0.6214995448
0.6215293966
0.6215293965
0.6215293968
0.6215293971
0.6215293968
0.6215293966
0.6215293942
0.6215293853
0.6215293426
0.6215291445
0.621528205
0.6215237521
0.6215030102
0.6214125098
0.6215293963
0.6215293964
0.6215293968
0.6215293964
0.6215293965
0.6215293959
0.6215293936
0.6215293826
0.6215293263
0.6215290416
0.6215275206
0.6215189154
0.6214668793
0.6211283587
0.61874519
0.6215293965
0.6215293966
0.6215293968
0.6215293966
0.6215293964
0.6215293957
0.6215293941
0.621529385
0.621529343
0.6215291441
0.621528205
0.6215237526
0.6215030152
0.6214125519
0.6210981491
0.6215293966
0.6215293969
0.6215293967
0.6215293968
0.6215293963
0.6215293961
0.6215293949
0.6215293895
0.6215293658
0.6215292646
0.6215288453
0.6215271609
0.6215207955
0.6214995584
0.621446616
0.6215293967
0.6215293963
0.6215293962
0.6215293963
0.6215293966
0.6215293965
0.6215293959
0.6215293931
0.6215293811
0.6215293361
0.6215291704
0.6215285912
0.621526727
0.6215215143
0.6215103348
0.6215293967
0.6215293965
0.6215293964
0.6215293961
0.6215293964
0.6215293961
0.621529396
0.621529394
0.6215293877
0.6215293652
0.6215292898
0.6215290544
0.6215283851
0.6215267218
0.6215233671
0.6215293972
0.6215293971
0.6215293966
0.6215293967
0.6215293968
0.6215293965
0.6215293962
0.6215293946
0.6215293888
0.6215293692
0.6215293062
0.621529116
0.6215285921
0.621527329
0.6215293967
0.6215293966
0.621529397
0.6215293976
0.621529397
0.6215293964
0.6215293957
0.6215293929
0.6215293831
0.6215293461
0.6215292157
0.621528781
0.6215274643
0.6215240197
0.6215293964
0.6215293966
0.6215293969
0.6215293967
0.6215293969
0.6215293961
0.6215293952
0.6215293908
0.6215293711
0.6215292923
0.6215289844
0.621527839
0.6215239274
0.621512432
0.6215293969
0.6215293966
0.6215293966
0.6215293968
0.6215293968
0.6215293961
0.6215293943
0.6215293864
0.6215293536
0.6215292078
0.6215285745
0.6215259061
0.6215153597
0.6214787092
0.6215293961
0.6215293965
0.6215293965
0.6215293968
0.6215293962
0.6215293958
0.6215293939
0.6215293847
0.6215293429
0.6215291441
0.6215282043
0.621523751
0.621503008
0.621412502
0.6215293972
0.6215293967
0.6215293967
0.6215293966
0.6215293964
0.6215293962
0.6215293943
0.6215293871
0.6215293538
0.6215292079
0.6215285741
0.6215259062
0.6215153612
0.621478715
0.6215293969
0.6215293967
0.6215293966
0.6215293966
0.6215293964
0.6215293959
0.6215293955
0.6215293906
0.6215293712
0.6215292926
0.6215289844
0.6215278392
0.6215239287
0.6215124373
0.6214871943
0.6215293967
0.6215293968
0.6215293969
0.6215293968
0.6215293963
0.6215293962
0.6215293956
0.621529393
0.6215293834
0.6215293468
0.621529216
0.6215287816
0.6215274645
0.6215240215
0.6215169658
0.6215293966
0.6215293967
0.6215293966
0.6215293965
0.6215293967
0.6215293963
0.6215293957
0.6215293947
0.6215293886
0.6215293695
0.6215293062
0.6215291166
0.6215285923
0.6215273298
0.6215248157
0.6215293971
0.6215293973
0.6215293974
0.6215293973
0.6215293967
0.6215293963
0.6215293963
0.6215293947
0.6215293908
0.6215293776
0.6215293372
0.6215292191
0.6215289071
0.6215281806
0.6215293969
0.6215293965
0.6215293965
0.6215293966
0.6215293967
0.6215293969
0.6215293962
0.6215293942
0.6215293879
0.6215293644
0.6215292867
0.6215290444
0.6215283598
0.6215266755
0.6215293971
0.6215293964
0.6215293963
0.6215293965
0.6215293966
0.6215293962
0.6215293958
0.6215293926
0.6215293804
0.6215293346
0.6215291691
0.6215286062
0.6215268681
0.621522262
0.6215293966
0.6215293965
0.621529397
0.6215293966
0.6215293967
0.6215293964
0.6215293951
0.6215293905
0.6215293712
0.6215292927
0.6215289844
0.6215278388
0.6215239274
0.6215124318
0.6215293969
0.6215293965
0.6215293968
0.6215293969
0.6215293965
0.6215293962
0.6215293951
0.6215293893
0.6215293656
0.6215292645
0.6215288449
0.6215271602
0.6215207926
0.621499544
0.6215293967
0.6215293964
0.6215293968
0.6215293968
0.6215293966
0.6215293959
0.6215293949
0.6215293903
0.6215293711
0.6215292926
0.6215289842
0.6215278389
0.6215239279
0.6215124334
0.6215293965
0.6215293971
0.6215293971
0.621529397
0.6215293963
0.621529396
0.6215293956
0.6215293927
0.6215293803
0.6215293354
0.6215291693
0.6215286061
0.6215268687
0.6215222622
0.6215293965
0.6215293967
0.6215293965
0.6215293964
0.6215293966
0.6215293961
0.6215293956
0.6215293942
0.621529388
0.6215293639
0.621529287
0.6215290449
0.6215283599
0.6215266762
0.6215233096
0.6215293969
0.6215293967
0.6215293965
0.6215293966
0.621529397
0.6215293963
0.621529396
0.6215293947
0.6215293907
0.6215293773
0.6215293364
0.6215292184
0.6215289069
0.6215281807
0.6215267454
0.6215293974
0.6215293971
0.621529397
0.6215293967
0.6215293968
0.6215293966
0.6215293964
0.6215293954
0.6215293927
0.6215293848
0.6215293619
0.6215292966
0.621529132
0.6215287608
0.6215293967
0.6215293966
0.6215293967
0.6215293968
0.6215293963
0.6215293966
0.6215293964
0.6215293949
0.6215293911
0.6215293785
0.6215293381
0.6215292196
0.621528905
0.6215281683
0.6215293961
0.6215293962
0.6215293966
0.6215293963
0.6215293962
0.6215293961
0.6215293961
0.6215293943
0.6215293876
0.6215293645
0.6215292872
0.6215290449
0.6215283598
0.6215266761
0.6215293962
0.6215293964
0.6215293964
0.621529397
0.6215293965
0.621529396
0.6215293957
0.621529393
0.6215293833
0.6215293467
0.6215292161
0.6215287813
0.6215274642
0.6215240199
0.621529396
0.6215293964
0.6215293963
0.6215293963
0.6215293961
0.6215293963
0.6215293952
0.6215293926
0.621529381
0.6215293361
0.62152917
0.6215285907
0.6215267257
0.6215215102
0.6215293966
0.6215293967
0.6215293968
0.6215293968
0.6215293964
0.6215293966
0.6215293955
0.621529393
0.6215293828
0.6215293463
0.6215292154
0.6215287805
0.6215274638
0.6215240198
0.6215293962
0.6215293966
0.6215293964
0.6215293966
0.6215293969
0.6215293965
0.6215293957
0.6215293943
0.6215293876
0.6215293646
0.6215292866
0.6215290443
0.6215283598
0.6215266759
0.6215293966
0.6215293963
0.6215293964
0.6215293964
0.6215293965
0.6215293964
0.6215293962
0.6215293947
0.621529391
0.6215293782
0.6215293373
0.6215292194
0.6215289051
0.6215281683
0.6215293967
0.6215293967
0.6215293968
0.6215293964
0.6215293964
0.6215293964
0.6215293961
0.6215293955
0.621529393
0.621529385
0.6215293611
0.6215292968
0.6215291325
0.6215287606
0.6215280282
0.6215293971
0.6215293972
0.6215293971
0.6215293971
0.6215293972
0.6215293968
0.6215293965
0.621529396
0.6215293943
0.6215293889
0.6215293742
0.6215293343
0.6215292379
0.6215290234
0.6215293973
0.6215293974
0.6215293971
0.6215293972
0.6215293965
0.6215293966
0.6215293962
0.6215293955
0.6215293931
0.6215293851
0.6215293616
0.6215292968
0.6215291325
0.6215287612
0.6215293968
0.6215293965
0.6215293964
0.6215293965
0.6215293966
0.6215293966
0.6215293964
0.6215293948
0.6215293914
0.621529378
0.6215293376
0.6215292188
0.6215289069
0.6215281804
0.6215293968
0.6215293967
0.6215293968
0.6215293966
0.6215293968
0.6215293963
0.6215293959
0.6215293944
0.621529389
0.6215293699
0.6215293066
0.6215291162
0.6215285922
0.621527329
0.621529396
0.6215293961
0.6215293964
0.6215293965
0.6215293961
0.6215293957
0.6215293958
0.621529394
0.6215293881
0.6215293652
0.6215292896
0.621529054
0.6215283846
0.6215267204
0.6215293966
0.6215293967
0.6215293963
0.6215293964
0.6215293966
0.6215293965
0.6215293959
0.6215293941
0.6215293883
0.6215293694
0.621529307
0.6215291163
0.6215285915
0.6215273288
0.6215293968
0.6215293968
0.6215293969
0.6215293967
0.6215293965
0.6215293965
0.621529396
0.6215293946
0.6215293906
0.6215293776
0.6215293367
0.6215292185
0.6215289067
0.6215281803
0.6215293967
0.6215293965
0.6215293963
0.6215293964
0.6215293961
0.6215293963
0.621529396
0.6215293954
0.621529393
0.6215293846
0.6215293616
0.6215292966
0.6215291321
0.6215287604
0.6215293965
0.6215293962
0.6215293966
0.6215293966
0.6215293963
0.6215293964
0.6215293962
0.6215293958
0.6215293941
0.6215293884
0.6215293734
0.621529334
0.6215292372
0.6215290227
)
;

boundaryField
{
    top
    {
        type            zeroGradient;
    }
    bottom
    {
        type            zeroGradient;
    }
    side-walls
    {
        type            zeroGradient;
    }
    inlet
    {
        type            zeroGradient;
    }
    outlet
    {
        type            zeroGradient;
    }
    procBoundary0to1
    {
        type            processor;
        value           nonuniform List<scalar> 
97
(
0.6215278655
0.6215280284
0.6215267883
0.6215244078
0.6215209144
0.6215184164
0.6215209145
0.6215244075
0.6215267887
0.621527866
0.6215280284
0.6215280284
0.6215243569
0.6215233095
0.6215182328
0.6215073351
0.6214970365
0.6215073356
0.6215182339
0.6215243575
0.6215267891
0.6215267454
0.6215233095
0.6215233095
0.6215001171
0.6214871913
0.6214597726
0.6214068539
0.6214597766
0.6215001201
0.621518234
0.6215244079
0.6215248158
0.6215169646
0.6214871913
0.6214871913
0.6213212919
0.621097978
0.6210491836
0.6213213078
0.6214597765
0.6215073353
0.6215209149
0.6215233652
0.6215103303
0.6214465922
0.621097978
0.621097978
0.6198752394
0.6210979819
0.6210491832
0.6213849327
0.6214068518
0.6214970357
0.6215184162
0.6215248157
0.6215169653
0.621487199
0.6213849385
0.6210979819
0.6213849327
0.6213849327
0.6214597722
0.6215127847
0.6215073338
0.6215209138
0.621526745
0.6215233109
0.6215127875
0.6214871991
0.6214465925
0.6214871992
0.6215127847
0.6215127847
0.6215182326
0.6215267102
0.6215244067
0.6215280287
0.6215267111
0.6215233106
0.6215169658
0.6215103308
0.6215169658
0.6215233105
0.6215267102
0.6215267102
0.6215267881
0.6215286007
0.6215286011
0.6215280287
0.6215267458
0.6215248157
0.6215233656
0.6215248159
0.6215267452
0.6215280281
0.6215286007
)
;
    }
}


// ************************************************************************* //
