/*--------------------------------*- C++ -*----------------------------------*\
| =========                 |                                                 |
| \\      /  F ield         | OpenFOAM: The Open Source CFD Toolbox           |
|  \\    /   O peration     | Version:  4.x                                   |
|   \\  /    A nd           | Web:      www.OpenFOAM.org                      |
|    \\/     M anipulation  |                                                 |
\*---------------------------------------------------------------------------*/
FoamFile
{
    version     2.0;
    format      ascii;
    class       volScalarField;
    location    "3000";
    object      rho;
}
// * * * * * * * * * * * * * * * * * * * * * * * * * * * * * * * * * * * * * //

dimensions      [1 -3 0 0 0 0 0];

internalField   nonuniform List<scalar> 
1175
(
0.2797543425
0.2797543001
0.2797542782
0.2797542684
0.2797543004
0.2797543191
0.2797542953
0.2797542932
0.2797542872
0.2797542749
0.2797542864
0.2797543024
0.2797543726
0.2797544787
0.2797546708
0.2797546154
0.2797546439
0.2797546347
0.2797546496
0.279754659
0.2797546285
0.2797546339
0.2797546464
0.2797546304
0.2797546656
0.2797546692
0.279754663
0.2797547369
0.2797548729
0.2797551845
0.2797541319
0.2797541424
0.2797541221
0.2797541297
0.2797541501
0.279754164
0.2797541803
0.2797541547
0.2797541307
0.2797541292
0.2797541248
0.2797541775
0.2797543018
0.2797546554
0.2797553133
0.2797548646
0.2797548831
0.2797549073
0.2797548664
0.279754875
0.279754885
0.2797548885
0.2797548983
0.2797548958
0.2797548761
0.2797548861
0.2797549153
0.2797551807
0.279755745
0.2797568704
0.2797540344
0.2797540223
0.2797540273
0.2797540197
0.2797540259
0.2797539933
0.27975401
0.2797539975
0.279753987
0.2797540063
0.2797540729
0.2797542073
0.2797545406
0.2797553041
0.2797567937
0.2797536459
0.2797536542
0.2797536294
0.2797536426
0.2797536852
0.2797536926
0.2797536851
0.27975368
0.2797536494
0.2797536459
0.2797536576
0.2797537667
0.2797540044
0.279754568
0.2797556711
0.2797543864
0.2797544264
0.2797544359
0.2797544251
0.2797544006
0.2797544318
0.2797544339
0.279754441
0.2797544736
0.2797544866
0.2797545389
0.2797545754
0.2797547556
0.2797550949
0.2797557604
0.2797545191
0.2797545319
0.2797545281
0.2797545537
0.2797545281
0.2797545222
0.2797545714
0.2797545723
0.2797545415
0.2797545588
0.2797545829
0.279754606
0.2797546763
0.2797548286
0.2797551628
0.2797535626
0.2797535798
0.2797535823
0.2797535674
0.279753554
0.2797535126
0.2797535314
0.2797535615
0.2797535653
0.2797535571
0.2797535685
0.2797535433
0.2797536003
0.2797537026
0.2797539127
0.2797547664
0.2797548362
0.2797548315
0.2797548878
0.2797548441
0.2797548536
0.2797548431
0.2797548295
0.2797548661
0.2797548659
0.2797548425
0.279754855
0.2797549172
0.2797550534
0.2797537763
0.2797537904
0.2797538183
0.2797537845
0.2797537796
0.279753802
0.2797538123
0.2797538368
0.2797538519
0.2797538301
0.2797538465
0.2797539075
0.2797540681
0.2797544436
0.2797550918
0.2797539827
0.2797539525
0.2797539109
0.2797538912
0.2797538854
0.279753839
0.2797538426
0.2797538496
0.2797538953
0.2797539078
0.2797539475
0.2797540735
0.2797543756
0.279755123
0.2797566229
0.2797544226
0.2797544452
0.2797544384
0.2797544154
0.279754401
0.2797544174
0.2797544354
0.2797544392
0.2797544521
0.2797544461
0.2797545314
0.2797547064
0.2797552322
0.2797567829
0.2797599524
0.2797539712
0.2797539705
0.2797539362
0.279753953
0.2797539399
0.2797539783
0.2797540007
0.2797539665
0.279754015
0.2797540149
0.2797541203
0.279754389
0.2797552301
0.2797575855
0.2797625929
0.2797550326
0.2797550416
0.2797550764
0.2797551135
0.2797550943
0.2797551315
0.2797551297
0.2797550969
0.2797550283
0.2797550641
0.279755088
0.279755238
0.2797558053
0.2797573285
0.2797605113
0.2797535121
0.2797534986
0.2797534788
0.2797534552
0.27975345
0.2797534229
0.2797534411
0.2797534552
0.2797534071
0.2797534172
0.2797534396
0.2797535448
0.2797538209
0.2797545819
0.279756089
0.2797549064
0.2797549205
0.2797548974
0.2797549039
0.2797548802
0.2797549087
0.2797549246
0.2797549286
0.2797549497
0.2797549956
0.2797550529
0.2797550981
0.2797552369
0.2797555741
0.279756212
0.2797534608
0.2797534699
0.2797534737
0.2797534425
0.279753454
0.2797534213
0.2797534354
0.2797534307
0.279753455
0.2797534317
0.2797534816
0.2797535344
0.2797536434
0.2797537835
0.2797541201
0.2797543821
0.2797543845
0.2797544104
0.2797544258
0.2797544304
0.2797544615
0.2797544382
0.2797544557
0.2797544779
0.2797544868
0.279754455
0.2797545166
0.2797546591
0.2797549927
0.2797538434
0.2797538378
0.2797538152
0.2797538138
0.2797537932
0.2797538044
0.2797538012
0.2797537639
0.2797537484
0.2797537706
0.2797538162
0.2797539528
0.2797542924
0.279755071
0.2797552693
0.2797552544
0.2797552721
0.2797552913
0.2797553007
0.2797553254
0.2797553184
0.2797552861
0.2797553019
0.2797553053
0.2797553855
0.2797556145
0.2797564079
0.2797584698
0.2797627407
0.2797548506
0.2797548569
0.2797548357
0.2797548242
0.2797548252
0.2797548354
0.2797548497
0.2797547934
0.2797547899
0.2797548327
0.2797549932
0.2797555314
0.2797572783
0.2797624512
0.2797737732
0.2797552266
0.2797551917
0.2797551638
0.2797551578
0.2797551519
0.2797551108
0.2797550731
0.2797551474
0.2797551315
0.2797551579
0.2797553496
0.2797560856
0.2797589082
0.2797684488
0.2797922389
0.2797545577
0.2797545211
0.2797545228
0.2797544971
0.2797545107
0.2797545124
0.2797544932
0.2797545164
0.2797545572
0.2797546089
0.2797547233
0.2797552507
0.2797569932
0.2797621613
0.2797735029
0.2797551584
0.2797551722
0.2797551775
0.2797551462
0.2797551444
0.2797551607
0.2797551641
0.2797551433
0.2797551188
0.2797551464
0.2797552119
0.2797555193
0.2797562926
0.2797583257
0.2797625998
0.2797534606
0.2797534675
0.2797534561
0.2797534769
0.2797534934
0.2797535098
0.279753515
0.2797535453
0.27975359
0.279753567
0.279753555
0.27975367
0.2797539952
0.2797547172
0.2797562341
0.2797548554
0.2797548721
0.2797548922
0.2797548993
0.2797548964
0.2797548618
0.2797548639
0.2797548259
0.2797548635
0.279754857
0.2797548935
0.2797549802
0.2797550934
0.2797554222
0.2797560752
0.2797539736
0.2797539919
0.2797539637
0.2797539843
0.2797539521
0.2797539329
0.2797539329
0.2797539679
0.2797539835
0.2797540071
0.2797540264
0.2797541593
0.2797543758
0.2797549507
0.2797535929
0.2797535957
0.2797536218
0.2797536188
0.2797536011
0.2797536137
0.2797536324
0.2797536205
0.279753677
0.2797536695
0.2797537352
0.2797539063
0.2797544822
0.2797559989
0.2797548025
0.2797548211
0.2797548043
0.2797548026
0.2797548023
0.2797548161
0.279754803
0.2797547965
0.2797548124
0.2797548834
0.279755049
0.2797555623
0.2797572962
0.2797624903
0.279753532
0.2797535277
0.2797535184
0.2797535087
0.2797535546
0.2797535498
0.2797535477
0.279753571
0.279753584
0.2797536442
0.2797539626
0.2797551389
0.2797598762
0.2797763431
0.2798185105
0.279754058
0.2797540523
0.2797540722
0.2797540812
0.279754094
0.2797541089
0.2797541032
0.2797541175
0.2797541478
0.279754226
0.2797546669
0.2797566394
0.2797659818
0.2798066774
0.2799501753
0.2797543107
0.2797543102
0.2797543085
0.2797543048
0.2797543289
0.2797543658
0.2797543533
0.2797543802
0.2797544077
0.2797544983
0.2797547948
0.2797560197
0.2797607536
0.279777195
0.2798193368
0.2797538662
0.2797538793
0.279753888
0.2797539129
0.2797539108
0.2797539023
0.2797538686
0.2797538597
0.279753812
0.2797538509
0.2797539753
0.2797545097
0.2797562549
0.2797614233
0.2797727514
0.2797542994
0.2797542995
0.2797542942
0.2797543129
0.2797543192
0.2797543087
0.2797542994
0.2797542954
0.2797542654
0.2797543317
0.2797544297
0.2797546146
0.2797551625
0.2797567197
0.2797599056
0.2797542271
0.2797542001
0.2797541805
0.2797541997
0.2797542181
0.2797542195
0.279754236
0.2797542313
0.2797542565
0.2797542614
0.2797542908
0.279754361
0.2797545994
0.2797551795
0.2797562974
0.2797539752
0.2797539826
0.2797540152
0.2797539933
0.2797540141
0.2797540223
0.2797540393
0.2797540482
0.2797540669
0.2797540955
0.2797541382
0.2797542108
0.2797545132
0.2797552588
0.2797548857
0.2797548537
0.279754854
0.2797548438
0.2797548447
0.279754892
0.2797549268
0.2797548947
0.2797549087
0.2797549439
0.2797550308
0.2797552735
0.2797560916
0.2797584518
0.2797540264
0.2797539915
0.2797539802
0.2797540129
0.2797540377
0.2797540312
0.2797540545
0.2797540546
0.2797540262
0.2797540761
0.2797542932
0.2797550732
0.2797579596
0.2797675089
0.2797539974
0.2797540024
0.2797540015
0.2797539819
0.2797540002
0.2797539771
0.2797540088
0.2797540097
0.2797540748
0.2797541447
0.2797545664
0.2797565933
0.2797659516
0.2798066665
0.2797532215
0.2797532289
0.2797531945
0.2797532185
0.2797532003
0.2797532194
0.2797532328
0.2797532232
0.2797533019
0.2797534285
0.2797540944
0.2797579372
0.2797813453
0.2799336509
0.2829519729
0.2797539438
0.2797539191
0.2797538911
0.2797539112
0.2797539253
0.2797539204
0.2797538779
0.2797538722
0.2797538637
0.2797539772
0.2797543769
0.2797563809
0.2797656972
0.2798063625
0.2799498761
0.2797539519
0.2797539169
0.2797539097
0.2797538972
0.2797539384
0.2797539508
0.2797539572
0.2797539565
0.2797539627
0.2797540282
0.2797542211
0.279754946
0.2797578445
0.2797673889
0.2797911829
0.279754438
0.2797544524
0.2797544575
0.2797544375
0.2797543899
0.2797543754
0.2797543715
0.2797543722
0.2797544056
0.2797544308
0.2797545196
0.2797548057
0.2797556464
0.2797580273
0.2797630316
0.2797540995
0.2797541115
0.2797541198
0.2797541406
0.2797541141
0.2797541162
0.2797540764
0.2797540947
0.2797540788
0.2797540654
0.2797540919
0.2797542103
0.2797545021
0.2797552245
0.279756691
0.2797540894
0.2797541083
0.2797541659
0.2797541551
0.2797541436
0.2797541564
0.2797541508
0.279754146
0.2797541458
0.2797541689
0.2797542049
0.2797542926
0.2797545155
0.2797550826
0.2797549932
0.2797549856
0.279754938
0.2797548967
0.2797549402
0.2797549591
0.2797549735
0.2797549762
0.2797549536
0.2797549844
0.2797550469
0.2797552525
0.2797558163
0.2797573775
0.2797539904
0.2797539745
0.2797539358
0.2797539284
0.2797538884
0.279753932
0.2797539087
0.2797538932
0.2797539493
0.2797540166
0.279754155
0.2797546571
0.2797564201
0.2797615863
0.2797547064
0.2797547429
0.2797547446
0.2797547189
0.2797547148
0.2797547212
0.2797547397
0.2797547891
0.279754777
0.2797548275
0.2797550473
0.279756278
0.2797610252
0.2797774947
0.279753933
0.2797539085
0.2797539164
0.279753897
0.2797539345
0.2797539238
0.2797539119
0.2797539335
0.2797539124
0.2797540236
0.2797544598
0.2797564668
0.2797657319
0.2798064308
0.2797541656
0.2797542199
0.2797542274
0.2797542058
0.2797541925
0.2797541806
0.279754208
0.2797541926
0.2797542081
0.2797542646
0.2797545302
0.2797557492
0.2797604534
0.2797768715
0.2797549659
0.2797549811
0.2797549789
0.2797549912
0.279755005
0.2797550346
0.2797549761
0.2797549762
0.2797549765
0.2797550066
0.279755167
0.2797556676
0.279757436
0.2797625869
0.279773931
0.2797537841
0.279753757
0.2797537244
0.2797537173
0.2797537599
0.2797537569
0.2797537439
0.279753744
0.2797537249
0.2797537249
0.2797538071
0.2797539829
0.2797545959
0.2797561615
0.2797593266
0.2797536796
0.2797536883
0.2797537055
0.2797537253
0.2797537231
0.2797537441
0.2797537604
0.2797537095
0.2797537433
0.2797537267
0.2797537957
0.279753865
0.2797541279
0.2797547038
0.2797558605
0.2797538876
0.2797538602
0.279753837
0.279753842
0.2797538999
0.2797539246
0.2797539067
0.2797539478
0.2797539542
0.2797539593
0.2797539265
0.2797539496
0.2797540845
0.2797544014
0.2797539809
0.2797540086
0.2797540147
0.279754006
0.2797539981
0.2797539581
0.2797539538
0.2797539626
0.2797539424
0.2797539957
0.2797540545
0.2797542043
0.2797544892
0.2797552852
0.2797538775
0.2797539415
0.2797539746
0.2797539814
0.2797539706
0.2797539808
0.2797539318
0.2797539152
0.2797538937
0.2797539024
0.2797539655
0.2797541986
0.279755043
0.2797570761
0.2797536782
0.2797536748
0.2797536339
0.2797536543
0.2797536352
0.2797536304
0.2797536616
0.2797536784
0.2797537171
0.2797537449
0.279753916
0.2797544453
0.2797561936
0.2797613685
0.2797547397
0.2797547614
0.2797547236
0.2797547192
0.2797547217
0.2797547397
0.2797547038
0.2797547003
0.2797546824
0.2797547557
0.2797549873
0.2797556969
0.2797585678
0.2797680995
0.2797540688
0.2797540947
0.2797540637
0.2797540597
0.2797540736
0.2797541035
0.2797540966
0.2797541047
0.2797540964
0.2797541118
0.279754277
0.2797547758
0.2797565347
0.2797617164
0.2797538585
0.2797538137
0.2797538155
0.2797538443
0.2797538999
0.2797539239
0.2797539116
0.2797539096
0.2797539311
0.2797538834
0.2797539666
0.2797542138
0.2797549563
0.2797570222
0.2797550966
0.2797550781
0.2797550696
0.2797550647
0.2797550266
0.2797550357
0.2797550323
0.2797550099
0.2797549783
0.2797550518
0.2797550367
0.2797551406
0.2797554645
0.279756227
0.2797577772
0.2797538054
0.2797538259
0.2797538479
0.2797538333
0.279753803
0.2797538692
0.279753888
0.2797539221
0.2797539463
0.2797539931
0.2797540305
0.2797540766
0.2797541807
0.2797545217
0.2797551519
0.2797547686
0.279754805
0.2797548208
0.2797548434
0.2797548304
0.2797548445
0.2797548363
0.2797548385
0.2797548506
0.2797548656
0.2797548426
0.2797548957
0.2797549956
0.2797551269
0.2797544634
0.2797544746
0.2797544659
0.279754451
0.2797544749
0.279754467
0.2797544709
0.2797545338
0.2797545491
0.279754548
0.279754582
0.2797546766
0.2797548184
0.279755114
0.2797545378
0.2797545182
0.2797544686
0.2797544935
0.2797544822
0.2797544745
0.2797544171
0.2797543912
0.279754394
0.2797543852
0.2797544018
0.279754511
0.2797548253
0.2797555656
0.2797548158
0.2797548151
0.2797548229
0.2797547615
0.279754795
0.2797548581
0.2797548582
0.2797548868
0.2797548711
0.2797548789
0.2797549534
0.2797551734
0.2797557523
0.2797572981
0.279753886
0.2797538465
0.2797538475
0.2797538366
0.2797538201
0.2797537769
0.2797538043
0.279753788
0.2797537837
0.2797537985
0.2797538954
0.2797541373
0.2797549714
0.2797573214
0.2797551841
0.2797551905
0.279755213
0.2797552116
0.279755245
0.2797552148
0.2797552402
0.2797552323
0.2797552671
0.2797552794
0.279755391
0.2797556226
0.2797561853
0.2797577126
0.2797542632
0.2797542211
0.2797542203
0.2797542183
0.2797541836
0.2797541975
0.2797542192
0.2797541838
0.2797542171
0.2797542203
0.2797542725
0.2797544097
0.2797547089
0.2797554655
0.2797543085
0.2797543368
0.2797543425
0.2797543484
0.2797543402
0.2797543544
0.2797543574
0.2797543835
0.2797543728
0.279754345
0.2797544174
0.2797544694
0.2797546031
0.2797549193
0.279753947
0.2797539342
0.2797539315
0.2797539605
0.279753959
0.2797539396
0.2797539394
0.2797539176
0.2797539218
0.2797539275
0.2797539685
0.2797539506
0.2797540239
0.2797542074
0.2797545241
0.2797537266
0.2797537133
0.2797537075
0.2797537154
0.2797537063
0.2797537182
0.2797537266
0.2797537283
0.2797537273
0.2797537399
0.2797537352
0.2797537848
0.2797538071
0.2797539263
0.2797538306
0.279753819
0.2797538524
0.2797538347
0.2797538805
0.2797538557
0.27975387
0.279753851
0.2797538384
0.2797538412
0.2797538435
0.2797538521
0.2797539301
0.2797540704
0.2797537416
0.2797537561
0.2797537542
0.2797537532
0.2797537572
0.279753759
0.2797537668
0.2797537986
0.2797537708
0.2797537807
0.2797537543
0.2797538433
0.2797539515
0.2797542861
0.279755311
0.2797553138
0.2797553124
0.2797553261
0.2797552999
0.2797553269
0.2797553268
0.2797553259
0.2797553127
0.2797553167
0.279755384
0.2797554611
0.2797556888
0.2797562624
0.2797550605
0.2797550477
0.2797550274
0.2797550277
0.2797550596
0.2797550801
0.279755017
0.2797550129
0.2797549529
0.2797549622
0.2797549951
0.2797551218
0.279755401
0.27975613
0.2797546385
0.2797546329
0.2797546582
0.2797546507
0.279754614
0.2797546176
0.279754643
0.2797546624
0.2797546827
0.2797546841
0.2797546957
0.2797548163
0.2797551013
0.2797556731
0.2797547368
0.2797547352
0.279754716
0.2797547321
0.279754753
0.27975475
0.2797547647
0.2797547941
0.2797548
0.2797547826
0.2797548065
0.2797548485
0.2797549657
0.279755278
0.2797550033
0.2797550155
0.2797550357
0.2797550346
0.2797550595
0.2797550301
0.2797550186
0.2797549905
0.2797549615
0.2797550097
0.2797549802
0.2797550066
0.2797550971
0.2797552911
0.2797545105
0.2797545318
0.2797544972
0.2797544942
0.2797545108
0.2797544982
0.2797544981
0.2797544861
0.2797544911
0.2797545293
0.2797545467
0.2797545519
0.2797545952
0.2797547017
)
;

boundaryField
{
    top
    {
        type            calculated;
        value           nonuniform List<scalar> 
134
(
0.2797535626
0.2797534608
0.2797548554
0.2797542271
0.2797540995
0.2797536796
0.2797538054
0.279753947
0.2797545105
0.2797535798
0.2797534699
0.2797548721
0.2797542001
0.2797541115
0.2797536883
0.2797538259
0.2797539342
0.2797545318
0.2797535823
0.2797534737
0.2797548922
0.2797541805
0.2797541198
0.2797537055
0.2797538479
0.2797539315
0.2797544972
0.2797535674
0.2797534425
0.2797548993
0.2797541997
0.2797541406
0.2797537253
0.2797538333
0.2797539605
0.2797544942
0.279753554
0.279753454
0.2797548964
0.2797542181
0.2797541141
0.2797537231
0.279753803
0.279753959
0.2797545108
0.2797535126
0.2797534213
0.2797548618
0.2797542195
0.2797541162
0.2797537441
0.2797538692
0.2797539396
0.2797544982
0.2797535314
0.2797534354
0.2797548639
0.279754236
0.2797540764
0.2797537604
0.279753888
0.2797539394
0.2797544981
0.2797535615
0.2797534307
0.2797548259
0.2797542313
0.2797540947
0.2797537095
0.2797539221
0.2797539176
0.2797544861
0.2797535653
0.279753455
0.2797548635
0.2797542565
0.2797540788
0.2797537433
0.2797539463
0.2797539218
0.2797544911
0.2797535571
0.2797534317
0.279754857
0.2797542614
0.2797540654
0.2797537267
0.2797539931
0.2797539275
0.2797545293
0.2797535685
0.2797534816
0.2797548935
0.2797542908
0.2797540919
0.2797537957
0.2797540305
0.2797539685
0.2797545467
0.2797535433
0.2797535344
0.2797549802
0.279754361
0.2797542103
0.279753865
0.2797540766
0.2797539506
0.2797545519
0.2797536003
0.2797536434
0.2797550934
0.2797545994
0.2797545021
0.2797541279
0.2797541807
0.2797540239
0.2797545952
0.2797537026
0.2797537835
0.2797554222
0.2797551795
0.2797552245
0.2797547038
0.2797545217
0.2797542074
0.2797547017
0.2797539127
0.2797541201
0.2797560752
0.2797562974
0.279756691
0.2797558605
0.2797551519
0.2797545241
)
;
    }
    bottom
    {
        type            calculated;
        value           nonuniform List<scalar> 
127
(
0.2797543425
0.2797547664
0.2797543821
0.2797539736
0.2797539752
0.2797540894
0.2797538876
0.2797547686
0.2797537266
0.2797543001
0.2797548362
0.2797543845
0.2797539919
0.2797539826
0.2797541083
0.2797538602
0.279754805
0.2797537133
0.2797542782
0.2797548315
0.2797544104
0.2797539637
0.2797540152
0.2797541659
0.279753837
0.2797548208
0.2797537075
0.2797542684
0.2797548878
0.2797544258
0.2797539843
0.2797539933
0.2797541551
0.279753842
0.2797548434
0.2797537154
0.2797543004
0.2797548441
0.2797544304
0.2797539521
0.2797540141
0.2797541436
0.2797538999
0.2797548304
0.2797537063
0.2797543191
0.2797548536
0.2797544615
0.2797539329
0.2797540223
0.2797541564
0.2797539246
0.2797548445
0.2797537182
0.2797542953
0.2797548431
0.2797544382
0.2797539329
0.2797540393
0.2797541508
0.2797539067
0.2797548363
0.2797537266
0.2797542932
0.2797548295
0.2797544557
0.2797539679
0.2797540482
0.279754146
0.2797539478
0.2797548385
0.2797537283
0.2797542872
0.2797548661
0.2797544779
0.2797539835
0.2797540669
0.2797541458
0.2797539542
0.2797548506
0.2797537273
0.2797542749
0.2797548659
0.2797544868
0.2797540071
0.2797540955
0.2797541689
0.2797539593
0.2797548656
0.2797537399
0.2797542864
0.2797548425
0.279754455
0.2797540264
0.2797541382
0.2797542049
0.2797539265
0.2797548426
0.2797537352
0.2797543024
0.279754855
0.2797545166
0.2797541593
0.2797542108
0.2797542926
0.2797539496
0.2797548957
0.2797537848
0.2797543726
0.2797549172
0.2797546591
0.2797543758
0.2797545132
0.2797545155
0.2797540845
0.2797549956
0.2797538071
0.2797544787
0.2797550534
0.2797549927
0.2797549507
0.2797552588
0.2797550826
0.2797544014
0.2797551269
0.2797539263
0.2797546708
)
;
    }
    side-walls
    {
        type            calculated;
        value           nonuniform List<scalar> 
261
(
0.2797543425
0.2797546154
0.2797541319
0.2797548646
0.2797540344
0.2797536459
0.2797543864
0.2797545191
0.2797535626
0.2797543001
0.2797546439
0.2797541424
0.2797548831
0.2797540223
0.2797536542
0.2797544264
0.2797545319
0.2797535798
0.2797542782
0.2797546347
0.2797541221
0.2797549073
0.2797540273
0.2797536294
0.2797544359
0.2797545281
0.2797535823
0.2797542684
0.2797546496
0.2797541297
0.2797548664
0.2797540197
0.2797536426
0.2797544251
0.2797545537
0.2797535674
0.2797543004
0.279754659
0.2797541501
0.279754875
0.2797540259
0.2797536852
0.2797544006
0.2797545281
0.279753554
0.2797543191
0.2797546285
0.279754164
0.279754885
0.2797539933
0.2797536926
0.2797544318
0.2797545222
0.2797535126
0.2797542953
0.2797546339
0.2797541803
0.2797548885
0.27975401
0.2797536851
0.2797544339
0.2797545714
0.2797535314
0.2797542932
0.2797546464
0.2797541547
0.2797548983
0.2797539975
0.27975368
0.279754441
0.2797545723
0.2797535615
0.2797542872
0.2797546304
0.2797541307
0.2797548958
0.279753987
0.2797536494
0.2797544736
0.2797545415
0.2797535653
0.2797542749
0.2797546656
0.2797541292
0.2797548761
0.2797540063
0.2797536459
0.2797544866
0.2797545588
0.2797535571
0.2797542864
0.2797546692
0.2797541248
0.2797548861
0.2797540729
0.2797536576
0.2797545389
0.2797545829
0.2797535685
0.2797543024
0.279754663
0.2797541775
0.2797549153
0.2797542073
0.2797537667
0.2797545754
0.279754606
0.2797535433
0.2797543726
0.2797547369
0.2797543018
0.2797551807
0.2797545406
0.2797540044
0.2797547556
0.2797546763
0.2797536003
0.2797544787
0.2797548729
0.2797546554
0.279755745
0.2797553041
0.279754568
0.2797550949
0.2797548286
0.2797537026
0.2797546708
0.2797551845
0.2797553133
0.2797568704
0.2797567937
0.2797556711
0.2797557604
0.2797551628
0.2797539127
0.2797537266
0.2797538306
0.2797537416
0.279755311
0.2797550605
0.2797546385
0.2797547368
0.2797550033
0.2797545105
0.2797537133
0.279753819
0.2797537561
0.2797553138
0.2797550477
0.2797546329
0.2797547352
0.2797550155
0.2797545318
0.2797537075
0.2797538524
0.2797537542
0.2797553124
0.2797550274
0.2797546582
0.279754716
0.2797550357
0.2797544972
0.2797537154
0.2797538347
0.2797537532
0.2797553261
0.2797550277
0.2797546507
0.2797547321
0.2797550346
0.2797544942
0.2797537063
0.2797538805
0.2797537572
0.2797552999
0.2797550596
0.279754614
0.279754753
0.2797550595
0.2797545108
0.2797537182
0.2797538557
0.279753759
0.2797553269
0.2797550801
0.2797546176
0.27975475
0.2797550301
0.2797544982
0.2797537266
0.27975387
0.2797537668
0.2797553268
0.279755017
0.279754643
0.2797547647
0.2797550186
0.2797544981
0.2797537283
0.279753851
0.2797537986
0.2797553259
0.2797550129
0.2797546624
0.2797547941
0.2797549905
0.2797544861
0.2797537273
0.2797538384
0.2797537708
0.2797553127
0.2797549529
0.2797546827
0.2797548
0.2797549615
0.2797544911
0.2797537399
0.2797538412
0.2797537807
0.2797553167
0.2797549622
0.2797546841
0.2797547826
0.2797550097
0.2797545293
0.2797537352
0.2797538435
0.2797537543
0.279755384
0.2797549951
0.2797546957
0.2797548065
0.2797549802
0.2797545467
0.2797537848
0.2797538521
0.2797538433
0.2797554611
0.2797551218
0.2797548163
0.2797548485
0.2797550066
0.2797545519
0.2797538071
0.2797539301
0.2797539515
0.2797556888
0.279755401
0.2797551013
0.2797549657
0.2797550971
0.2797545952
0.2797539263
0.2797540704
0.2797542861
0.2797562624
0.27975613
0.2797556731
0.279755278
0.2797552911
0.2797547017
)
;
    }
    inlet
    {
        type            calculated;
        value           nonuniform List<scalar> 
81
(
0.2797543425
0.2797546154
0.2797541319
0.2797548646
0.2797540344
0.2797536459
0.2797543864
0.2797545191
0.2797535626
0.2797547664
0.2797537763
0.2797539827
0.2797544226
0.2797539712
0.2797550326
0.2797535121
0.2797549064
0.2797534608
0.2797543821
0.2797538434
0.2797552693
0.2797548506
0.2797552266
0.2797545577
0.2797551584
0.2797534606
0.2797548554
0.2797539736
0.2797535929
0.2797548025
0.279753532
0.279754058
0.2797543107
0.2797538662
0.2797542994
0.2797542271
0.2797539752
0.2797548857
0.2797540264
0.2797539974
0.2797532215
0.2797539438
0.2797539519
0.279754438
0.2797540995
0.2797540894
0.2797549932
0.2797539904
0.2797547064
0.279753933
0.2797541656
0.2797549659
0.2797537841
0.2797536796
0.2797538876
0.2797539809
0.2797538775
0.2797536782
0.2797547397
0.2797540688
0.2797538585
0.2797550966
0.2797538054
0.2797547686
0.2797544634
0.2797545378
0.2797548158
0.279753886
0.2797551841
0.2797542632
0.2797543085
0.279753947
0.2797537266
0.2797538306
0.2797537416
0.279755311
0.2797550605
0.2797546385
0.2797547368
0.2797550033
0.2797545105
)
;
    }
    outlet
    {
        type            calculated;
        value           nonuniform 0();
    }
    procBoundary0to1
    {
        type            processor;
        value           nonuniform List<scalar> 
97
(
0.2797549697
0.2797554076
0.2797557486
0.2797563666
0.2797586221
0.2797590576
0.279757426
0.2797568043
0.2797557259
0.2797542376
0.2797554076
0.2797554076
0.2797561545
0.279756583
0.2797588397
0.2797643181
0.2797685634
0.2797648504
0.279758354
0.2797572894
0.2797546774
0.2797555945
0.279756583
0.279756583
0.2797684334
0.2797738164
0.2797861179
0.2798100498
0.2797858399
0.2797683189
0.2797585272
0.2797571348
0.2797560877
0.2797591954
0.2797738164
0.2797738164
0.2798471233
0.2799501961
0.2799721906
0.2798479869
0.2797850717
0.2797642238
0.2797580207
0.2797568283
0.2797634891
0.279791329
0.2799501961
0.2799501961
0.2824367442
0.2799499149
0.2799718537
0.2798190503
0.2798090128
0.2797690234
0.2797589377
0.2797561916
0.2797605639
0.2797728941
0.2798196161
0.2799499149
0.2798190503
0.2798190503
0.2797862443
0.279761254
0.2797636434
0.2797575768
0.2797551054
0.2797567887
0.2797613805
0.2797726687
0.279791934
0.2797730556
0.279761254
0.279761254
0.2797600634
0.279755606
0.2797562234
0.279755442
0.2797557855
0.2797571374
0.2797604463
0.2797623245
0.27976084
0.2797570135
0.279755606
0.279755606
0.2797551104
0.2797548556
0.27975414
0.279754434
0.2797548987
0.279757401
0.2797576222
0.2797568101
0.2797559036
0.2797556317
0.2797548556
)
;
    }
}


// ************************************************************************* //
