/*--------------------------------*- C++ -*----------------------------------*\
| =========                 |                                                 |
| \\      /  F ield         | OpenFOAM: The Open Source CFD Toolbox           |
|  \\    /   O peration     | Version:  4.x                                   |
|   \\  /    A nd           | Web:      www.OpenFOAM.org                      |
|    \\/     M anipulation  |                                                 |
\*---------------------------------------------------------------------------*/
FoamFile
{
    version     2.0;
    format      ascii;
    class       volScalarField;
    location    "3000";
    object      T;
}
// * * * * * * * * * * * * * * * * * * * * * * * * * * * * * * * * * * * * * //

dimensions      [0 0 0 1 0 0 0];

internalField   nonuniform List<scalar> 
1175
(
1223.149971
1223.150156
1223.150252
1223.150295
1223.150155
1223.150074
1223.150178
1223.150188
1223.150218
1223.150282
1223.150261
1223.150269
1223.150152
1223.150109
1223.150098
1223.148778
1223.148653
1223.148694
1223.148629
1223.148588
1223.148721
1223.148698
1223.148645
1223.148719
1223.148582
1223.148612
1223.148766
1223.148766
1223.148901
1223.148977
1223.150892
1223.150846
1223.150935
1223.150902
1223.150813
1223.150752
1223.150682
1223.150796
1223.150908
1223.150941
1223.15104
1223.151042
1223.151111
1223.150992
1223.150936
1223.147688
1223.147608
1223.147502
1223.14768
1223.147643
1223.1476
1223.147585
1223.147545
1223.147568
1223.147692
1223.147771
1223.148017
1223.147888
1223.147901
1223.147921
1223.151318
1223.151371
1223.151349
1223.151382
1223.151356
1223.151498
1223.151427
1223.151485
1223.151543
1223.151503
1223.15136
1223.151235
1223.151094
1223.151026
1223.151107
1223.153017
1223.152981
1223.153089
1223.153031
1223.152845
1223.152813
1223.152847
1223.152872
1223.153017
1223.15307
1223.153142
1223.153039
1223.153031
1223.153047
1223.153165
1223.149779
1223.149604
1223.149563
1223.14961
1223.149717
1223.149581
1223.149573
1223.149544
1223.149409
1223.149378
1223.14923
1223.149302
1223.149127
1223.149071
1223.148981
1223.149199
1223.149143
1223.14916
1223.149048
1223.149159
1223.149185
1223.148971
1223.148969
1223.149108
1223.149048
1223.148988
1223.149015
1223.149031
1223.149094
1223.149072
1223.153381
1223.153306
1223.153295
1223.15336
1223.153418
1223.153599
1223.153518
1223.153387
1223.153374
1223.15342
1223.1534
1223.153587
1223.153529
1223.153502
1223.153412
1223.148118
1223.147813
1223.147833
1223.147588
1223.147778
1223.147737
1223.147783
1223.147844
1223.147689
1223.147706
1223.147854
1223.147927
1223.147978
1223.148112
1223.152447
1223.152385
1223.152263
1223.152411
1223.152432
1223.152335
1223.15229
1223.152185
1223.152127
1223.152248
1223.152255
1223.152221
1223.152137
1223.151943
1223.151972
1223.151544
1223.151677
1223.151858
1223.151944
1223.15197
1223.152173
1223.152158
1223.152131
1223.151945
1223.151935
1223.151914
1223.151839
1223.151864
1223.151905
1223.151962
1223.149621
1223.149523
1223.149552
1223.149652
1223.149715
1223.149644
1223.149567
1223.149555
1223.149519
1223.149617
1223.149501
1223.14959
1223.149879
1223.149868
1223.149879
1223.151595
1223.151598
1223.151747
1223.151674
1223.151732
1223.151564
1223.151468
1223.151623
1223.151434
1223.151523
1223.151388
1223.151351
1223.15134
1223.151291
1223.151381
1223.146954
1223.146915
1223.146763
1223.1466
1223.146684
1223.146522
1223.146532
1223.14668
1223.146999
1223.146915
1223.147067
1223.147265
1223.147373
1223.147482
1223.147435
1223.153602
1223.153661
1223.153747
1223.153851
1223.153873
1223.153992
1223.153913
1223.153856
1223.154079
1223.154081
1223.154135
1223.15415
1223.154289
1223.15427
1223.154295
1223.147505
1223.147444
1223.147545
1223.147517
1223.14762
1223.147496
1223.147427
1223.147411
1223.147327
1223.147152
1223.146981
1223.147015
1223.147026
1223.147
1223.147074
1223.153826
1223.153786
1223.15377
1223.153906
1223.153856
1223.153999
1223.153937
1223.15396
1223.153858
1223.153976
1223.153804
1223.153701
1223.153547
1223.153664
1223.153631
1223.149798
1223.149787
1223.149674
1223.149607
1223.149587
1223.149451
1223.149554
1223.149479
1223.14939
1223.149377
1223.149596
1223.149559
1223.149549
1223.149518
1223.152153
1223.152178
1223.152277
1223.152283
1223.152373
1223.152324
1223.152339
1223.152506
1223.152586
1223.152535
1223.152488
1223.152366
1223.152228
1223.152133
1223.145919
1223.145984
1223.145907
1223.145823
1223.145782
1223.145674
1223.145707
1223.145854
1223.145809
1223.145884
1223.145858
1223.145963
1223.145911
1223.145949
1223.145907
1223.14775
1223.147722
1223.147815
1223.147865
1223.147861
1223.147817
1223.147757
1223.148012
1223.148065
1223.148032
1223.147936
1223.147835
1223.147887
1223.147865
1223.147989
1223.146106
1223.146258
1223.14638
1223.146407
1223.146432
1223.146613
1223.14678
1223.146467
1223.146583
1223.146666
1223.146652
1223.146747
1223.146925
1223.146985
1223.147119
1223.14903
1223.14919
1223.149183
1223.149295
1223.149236
1223.149229
1223.149315
1223.149223
1223.149083
1223.149012
1223.149116
1223.149062
1223.149133
1223.149131
1223.149166
1223.146404
1223.146344
1223.14632
1223.146457
1223.146465
1223.146394
1223.146381
1223.146478
1223.146609
1223.146578
1223.146617
1223.14638
1223.146415
1223.146578
1223.146518
1223.153827
1223.153797
1223.153847
1223.153756
1223.153683
1223.153612
1223.153591
1223.153462
1223.153279
1223.153425
1223.15363
1223.153603
1223.153527
1223.153679
1223.153661
1223.147729
1223.147656
1223.147568
1223.147537
1223.14755
1223.147701
1223.147692
1223.14786
1223.147704
1223.147758
1223.147679
1223.147532
1223.14765
1223.147639
1223.147605
1223.151584
1223.151504
1223.151627
1223.151537
1223.151678
1223.151762
1223.151763
1223.151613
1223.151556
1223.151491
1223.15153
1223.151324
1223.151407
1223.151375
1223.153248
1223.153236
1223.153122
1223.153135
1223.153212
1223.153158
1223.153078
1223.153135
1223.152908
1223.153013
1223.152982
1223.153088
1223.153159
1223.153298
1223.14796
1223.147879
1223.147952
1223.14796
1223.147961
1223.147901
1223.147961
1223.147998
1223.147967
1223.147811
1223.147692
1223.147701
1223.14781
1223.1477
1223.153515
1223.153533
1223.153574
1223.153616
1223.153416
1223.153438
1223.15345
1223.153363
1223.153372
1223.153395
1223.15325
1223.153353
1223.153378
1223.153446
1223.153579
1223.151215
1223.15124
1223.151153
1223.151113
1223.151058
1223.150993
1223.151022
1223.150978
1223.150929
1223.150977
1223.150897
1223.15103
1223.150979
1223.151054
1223.142757
1223.15011
1223.150112
1223.15012
1223.150136
1223.150031
1223.14987
1223.149928
1223.149825
1223.14977
1223.149661
1223.149611
1223.149501
1223.14954
1223.149714
1223.149931
1223.152053
1223.151996
1223.151958
1223.15185
1223.151859
1223.151897
1223.152046
1223.152094
1223.152341
1223.152325
1223.152387
1223.152303
1223.152361
1223.152358
1223.152451
1223.150159
1223.150159
1223.150182
1223.150101
1223.150074
1223.15012
1223.150162
1223.150184
1223.150334
1223.150117
1223.149945
1223.149991
1223.150184
1223.150144
1223.150083
1223.150476
1223.150594
1223.150679
1223.150596
1223.150515
1223.150509
1223.150438
1223.150462
1223.150363
1223.150379
1223.150374
1223.150441
1223.150429
1223.150374
1223.150426
1223.151577
1223.151544
1223.151402
1223.151498
1223.151407
1223.151371
1223.151298
1223.151263
1223.151194
1223.151114
1223.151075
1223.15122
1223.151214
1223.151225
1223.147596
1223.147736
1223.147735
1223.147779
1223.147775
1223.147569
1223.147419
1223.147565
1223.147527
1223.147461
1223.147407
1223.147485
1223.147574
1223.147507
1223.151353
1223.151506
1223.151555
1223.151412
1223.151304
1223.151333
1223.151234
1223.151244
1223.151415
1223.151395
1223.151271
1223.151174
1223.151075
1223.151107
1223.15148
1223.151458
1223.151462
1223.151547
1223.151468
1223.151569
1223.151435
1223.151449
1223.151248
1223.151332
1223.151336
1223.151233
1223.151117
1223.151144
1223.154873
1223.15484
1223.15499
1223.154886
1223.154966
1223.154883
1223.154829
1223.154893
1223.154659
1223.154666
1223.154747
1223.154875
1223.154923
1223.155599
1214.768312
1223.151714
1223.151822
1223.151945
1223.151857
1223.151796
1223.151818
1223.152008
1223.152051
1223.152171
1223.152065
1223.152165
1223.152161
1223.152225
1223.152438
1223.144071
1223.151679
1223.151832
1223.151864
1223.151918
1223.151738
1223.151685
1223.151659
1223.151673
1223.151693
1223.151605
1223.151586
1223.15173
1223.151576
1223.151621
1223.151737
1223.149554
1223.149491
1223.149469
1223.149556
1223.149764
1223.149828
1223.149846
1223.149849
1223.149726
1223.149705
1223.149642
1223.14953
1223.14952
1223.14936
1223.149463
1223.151034
1223.150981
1223.150945
1223.150854
1223.15097
1223.150961
1223.151136
1223.151059
1223.151142
1223.151245
1223.151277
1223.151222
1223.151262
1223.151374
1223.151556
1223.151077
1223.150995
1223.150744
1223.15079
1223.150841
1223.150785
1223.15081
1223.150835
1223.150847
1223.150784
1223.15075
1223.150741
1223.150796
1223.150799
1223.147126
1223.147159
1223.147367
1223.147548
1223.147358
1223.147276
1223.147214
1223.147208
1223.147326
1223.147264
1223.147247
1223.147202
1223.147326
1223.14727
1223.151511
1223.15158
1223.151749
1223.151782
1223.151957
1223.151767
1223.151871
1223.151948
1223.151741
1223.151601
1223.151601
1223.151658
1223.151641
1223.151654
1223.14838
1223.148221
1223.148213
1223.148325
1223.148344
1223.148317
1223.148239
1223.148038
1223.148156
1223.148222
1223.148507
1223.148373
1223.148357
1223.148425
1223.151762
1223.151869
1223.151834
1223.151919
1223.151756
1223.151803
1223.151859
1223.151782
1223.151958
1223.151862
1223.151803
1223.151786
1223.152079
1223.15218
1223.150744
1223.150507
1223.150474
1223.150569
1223.150627
1223.15068
1223.150564
1223.150646
1223.150643
1223.150683
1223.150768
1223.150685
1223.150857
1223.151146
1223.147246
1223.147179
1223.147189
1223.147135
1223.147075
1223.146946
1223.147204
1223.147212
1223.14725
1223.147272
1223.147177
1223.14724
1223.147198
1223.147275
1223.147306
1223.152413
1223.152531
1223.152673
1223.152705
1223.152519
1223.152532
1223.15259
1223.152595
1223.152698
1223.15277
1223.152668
1223.152753
1223.152662
1223.152586
1223.152617
1223.15287
1223.152832
1223.152756
1223.15267
1223.152679
1223.152588
1223.152518
1223.152743
1223.152607
1223.152717
1223.152539
1223.15261
1223.152491
1223.152454
1223.152337
1223.15196
1223.15208
1223.152181
1223.152159
1223.151906
1223.151799
1223.151877
1223.1517
1223.15168
1223.151684
1223.151907
1223.152038
1223.152062
1223.152103
1223.151552
1223.151431
1223.151405
1223.151443
1223.151477
1223.151652
1223.151672
1223.151637
1223.151738
1223.151551
1223.151446
1223.151267
1223.151368
1223.151197
1223.152004
1223.151725
1223.15158
1223.15155
1223.151597
1223.151553
1223.151769
1223.151847
1223.151965
1223.152018
1223.152067
1223.152155
1223.151879
1223.152045
1223.152876
1223.152891
1223.153069
1223.15298
1223.153064
1223.153085
1223.152951
1223.152887
1223.152756
1223.152789
1223.152646
1223.152585
1223.152631
1223.152606
1223.148234
1223.14814
1223.148305
1223.148324
1223.148314
1223.148235
1223.148395
1223.148421
1223.148546
1223.148424
1223.148236
1223.148448
1223.148417
1223.148526
1223.151168
1223.151055
1223.15119
1223.151208
1223.151147
1223.151017
1223.15105
1223.151023
1223.151098
1223.151185
1223.151068
1223.15114
1223.151139
1223.151083
1223.152088
1223.152283
1223.152275
1223.152149
1223.151907
1223.151802
1223.151857
1223.151872
1223.151802
1223.1521
1223.152062
1223.152088
1223.152258
1223.15228
1223.146674
1223.146755
1223.146792
1223.146814
1223.14698
1223.146941
1223.146957
1223.147058
1223.147209
1223.146934
1223.147152
1223.147173
1223.147103
1223.147079
1223.146916
1223.152319
1223.15223
1223.152134
1223.152198
1223.15233
1223.152041
1223.15196
1223.151813
1223.151715
1223.151536
1223.151453
1223.151483
1223.151641
1223.151577
1223.151642
1223.148108
1223.147949
1223.14788
1223.147781
1223.147838
1223.147777
1223.147813
1223.147805
1223.147757
1223.147707
1223.147853
1223.147749
1223.147635
1223.147791
1223.149442
1223.149393
1223.149432
1223.149497
1223.149393
1223.149427
1223.14941
1223.149138
1223.149079
1223.149109
1223.149039
1223.148858
1223.148857
1223.149012
1223.149118
1223.149203
1223.14942
1223.149311
1223.149361
1223.149395
1223.149646
1223.149763
1223.149764
1223.149848
1223.149927
1223.149926
1223.149898
1223.149971
1223.147902
1223.147905
1223.147871
1223.148139
1223.147993
1223.147718
1223.147718
1223.147598
1223.147687
1223.147724
1223.147655
1223.147548
1223.147606
1223.147617
1223.151968
1223.15214
1223.152136
1223.152183
1223.152256
1223.152445
1223.152327
1223.152404
1223.152446
1223.152469
1223.152371
1223.152453
1223.152473
1223.15245
1223.146292
1223.146264
1223.146165
1223.146171
1223.146025
1223.146158
1223.146048
1223.146088
1223.145956
1223.145974
1223.145743
1223.145585
1223.145713
1223.145805
1223.150318
1223.150502
1223.150505
1223.150514
1223.150666
1223.150606
1223.150512
1223.15067
1223.150537
1223.150569
1223.150493
1223.150369
1223.150407
1223.150408
1223.15012
1223.149996
1223.149971
1223.149946
1223.149981
1223.149919
1223.149907
1223.149795
1223.14985
1223.149996
1223.149759
1223.149764
1223.149798
1223.149863
1223.151701
1223.151756
1223.151768
1223.151641
1223.151648
1223.151733
1223.151734
1223.151831
1223.151817
1223.151809
1223.151676
1223.151881
1223.151883
1223.151811
1223.151865
1223.152664
1223.152722
1223.152747
1223.152713
1223.152753
1223.152701
1223.152665
1223.152658
1223.152666
1223.152621
1223.152671
1223.152532
1223.152625
1223.152524
1223.152209
1223.152259
1223.152114
1223.152191
1223.151991
1223.1521
1223.152038
1223.152122
1223.152182
1223.152186
1223.152222
1223.152312
1223.152294
1223.15241
1223.152598
1223.152535
1223.152544
1223.152548
1223.15253
1223.152523
1223.152489
1223.152353
1223.152482
1223.152464
1223.15266
1223.152503
1223.152643
1223.152607
1223.145737
1223.145724
1223.145731
1223.145671
1223.145785
1223.145668
1223.145669
1223.145676
1223.145744
1223.145765
1223.145595
1223.145631
1223.145666
1223.14564
1223.146832
1223.146888
1223.146977
1223.146975
1223.146836
1223.146747
1223.147024
1223.147045
1223.14732
1223.147324
1223.147328
1223.147237
1223.147332
1223.147416
1223.148677
1223.148701
1223.148591
1223.148624
1223.148784
1223.148769
1223.148659
1223.148577
1223.148499
1223.148531
1223.148604
1223.148451
1223.148235
1223.148217
1223.148247
1223.148254
1223.148338
1223.148268
1223.148177
1223.14819
1223.148126
1223.148
1223.147982
1223.148084
1223.14806
1223.148108
1223.148209
1223.148271
1223.147082
1223.147029
1223.146941
1223.146945
1223.146837
1223.146965
1223.147016
1223.14714
1223.147272
1223.147077
1223.147252
1223.147264
1223.147191
1223.147073
1223.149237
1223.149144
1223.149295
1223.149308
1223.149236
1223.149291
1223.149291
1223.149345
1223.149327
1223.14917
1223.149123
1223.149178
1223.149179
1223.149134
)
;

boundaryField
{
    top
    {
        type            zeroGradient;
    }
    bottom
    {
        type            zeroGradient;
    }
    side-walls
    {
        type            zeroGradient;
    }
    inlet
    {
        type            zeroGradient;
    }
    outlet
    {
        type            zeroGradient;
    }
    procBoundary0to1
    {
        type            processor;
        value           nonuniform List<scalar> 
97
(
1223.150237
1223.148002
1223.148948
1223.150925
1223.147931
1223.150939
1223.153161
1223.149012
1223.149047
1223.153438
1223.148002
1223.148002
1223.151952
1223.152138
1223.152251
1223.149727
1223.15142
1223.147399
1223.154374
1223.14699
1223.153631
1223.149707
1223.152138
1223.152138
1223.145924
1223.14781
1223.14795
1223.147433
1223.149162
1223.146421
1223.153616
1223.147567
1223.151344
1223.153192
1223.14781
1223.14781
1223.15368
1223.142799
1223.142714
1223.149891
1223.15252
1223.150138
1223.150561
1223.150958
1223.147467
1223.151117
1223.142799
1223.142799
1214.764774
1223.144025
1223.144186
1223.151219
1223.151968
1223.149409
1223.151463
1223.15089
1223.147208
1223.151835
1223.148741
1223.144025
1223.151219
1223.151219
1223.147398
1223.152407
1223.152677
1223.152502
1223.151846
1223.151237
1223.151852
1223.152821
1223.148471
1223.151129
1223.152407
1223.152407
1223.146901
1223.149725
1223.151553
1223.147852
1223.148939
1223.149713
1223.147722
1223.152558
1223.146
1223.150255
1223.149725
1223.149725
1223.151739
1223.149291
1223.152419
1223.152259
1223.152749
1223.145602
1223.147486
1223.148185
1223.148356
1223.147023
1223.149291
)
;
    }
}


// ************************************************************************* //
