/*--------------------------------*- C++ -*----------------------------------*\
| =========                 |                                                 |
| \\      /  F ield         | OpenFOAM: The Open Source CFD Toolbox           |
|  \\    /   O peration     | Version:  4.x                                   |
|   \\  /    A nd           | Web:      www.OpenFOAM.org                      |
|    \\/     M anipulation  |                                                 |
\*---------------------------------------------------------------------------*/
FoamFile
{
    version     2.0;
    format      ascii;
    class       volVectorField;
    location    "3000";
    object      U;
}
// * * * * * * * * * * * * * * * * * * * * * * * * * * * * * * * * * * * * * //

dimensions      [0 1 -1 0 0 0 0];

internalField   nonuniform List<vector> 
1175
(
(0.0109999996 -7.171052526e-10 -4.195030016e-11)
(0.01100000034 -5.872346632e-10 1.328706036e-09)
(0.01100000204 -3.36778655e-10 -5.114049259e-10)
(0.01100000025 -1.310673247e-09 3.165190925e-09)
(0.01100000186 7.492284597e-11 7.142375543e-10)
(0.01099999849 -1.247596336e-09 -5.318901629e-10)
(0.01100000082 -7.59106265e-10 2.790863633e-10)
(0.01099999961 -1.407752558e-09 -5.362359888e-10)
(0.01100000736 -8.423488777e-10 -1.751876708e-10)
(0.01100000191 2.582215468e-09 -1.534361648e-09)
(0.01100001399 -4.344430855e-10 -1.489282256e-09)
(0.01100001254 -4.280117976e-09 -3.670180536e-09)
(0.01100004529 -1.155737207e-08 -1.009769411e-08)
(0.01100005817 -5.297971464e-09 -5.27629785e-09)
(0.01100012137 -2.766579516e-08 -2.744904327e-08)
(0.01100000064 -2.289067499e-10 1.275522681e-09)
(0.01100000002 9.005921373e-10 3.018410344e-10)
(0.01100000266 -1.426799257e-09 9.852645991e-11)
(0.01100000067 4.193811824e-10 1.966227332e-09)
(0.01099999876 -8.14881649e-10 6.467287158e-10)
(0.01099999962 -6.801897782e-10 2.448785106e-11)
(0.0110000006 1.650936479e-10 6.628420653e-10)
(0.01099999877 -9.606312152e-10 3.226677241e-11)
(0.01100000463 -8.99829759e-10 1.131258683e-09)
(0.01099999905 -9.552450051e-10 -8.318411908e-10)
(0.01100000958 -6.075398825e-09 -1.800018201e-09)
(0.01100000307 -7.792545821e-09 -2.0021563e-09)
(0.01100004074 -2.991705064e-08 -1.023054259e-08)
(0.01100003912 -2.81454548e-08 -5.579338392e-09)
(0.01100010993 -1.038352429e-07 -4.191259331e-08)
(0.01099999953 1.413381115e-09 -4.810386935e-10)
(0.01100000054 1.612329297e-09 5.643023702e-10)
(0.01100000145 1.794943382e-09 8.364213443e-10)
(0.01100000143 -9.656302403e-10 2.794675133e-09)
(0.01100000049 -3.997808149e-10 1.739749654e-09)
(0.01099999872 5.261286802e-10 -2.830712084e-11)
(0.01099999999 9.6213889e-10 8.611525404e-10)
(0.01099999802 9.377309655e-10 -4.989739992e-10)
(0.01100000005 -3.818855253e-10 3.384864445e-10)
(0.01099999491 -3.246023537e-09 4.667496795e-11)
(0.01100000471 -5.619249233e-09 -3.50299472e-09)
(0.01099998381 -6.895768295e-09 -4.244976531e-09)
(0.01100002086 -3.170123959e-08 -1.345207204e-08)
(0.01099998209 -2.13811022e-08 -8.362774194e-09)
(0.01100007576 -1.307930696e-07 -9.22522738e-08)
(0.01100000028 5.599757384e-10 7.567841338e-10)
(0.01099999864 2.270892996e-10 2.831743139e-09)
(0.01099999978 -6.609323181e-10 1.56706609e-09)
(0.0110000013 -1.398774285e-10 -1.812812318e-09)
(0.01100000079 -6.229702493e-10 -1.341247388e-09)
(0.01099999929 -1.579588609e-09 -7.431548557e-11)
(0.01100000026 7.761788593e-10 1.705388499e-09)
(0.01099999665 8.781534353e-11 4.568657738e-10)
(0.01100000108 -7.315583486e-10 6.806552066e-10)
(0.01099999362 -1.624145675e-09 2.383767645e-10)
(0.01100000157 -5.927031351e-09 6.320823418e-10)
(0.01099997724 -1.069972775e-08 1.724218395e-09)
(0.0110000189 -4.432488334e-08 -1.195505363e-08)
(0.01099993601 -4.095209554e-08 -7.939601423e-10)
(0.01100006782 -2.166215682e-07 -1.266730809e-07)
(0.01100000069 6.545901069e-10 -1.076850704e-09)
(0.01099999981 2.191071978e-09 1.045282948e-09)
(0.01099999952 9.66891814e-10 -6.845689406e-10)
(0.01100000108 6.283286475e-10 -2.323157237e-10)
(0.01099999794 1.108820479e-09 -2.458577966e-10)
(0.011000001 9.02530738e-11 -1.633416461e-09)
(0.01099999687 2.069522842e-09 -3.137967411e-10)
(0.01099999706 1.147674574e-09 -1.376853305e-09)
(0.01099999892 1.61191635e-09 9.997190101e-10)
(0.01099999228 2.777329574e-09 9.865618801e-10)
(0.01099999381 1.295370943e-09 -1.745189822e-09)
(0.0109999434 1.481553559e-10 -3.62926831e-09)
(0.01099998304 1.66466082e-09 -2.550045769e-08)
(0.01099980586 6.493292677e-10 -2.050909086e-08)
(0.01100001072 8.953078633e-10 -3.185188994e-07)
(0.01100000071 9.149702882e-11 3.094881067e-10)
(0.01100000087 1.54644696e-09 -6.108024527e-10)
(0.01099999943 5.747148907e-10 1.807118684e-09)
(0.01100000049 -2.598826582e-10 9.307730329e-10)
(0.01099999787 6.705164486e-10 1.023228952e-09)
(0.01099999949 2.445035026e-09 1.789847124e-10)
(0.01100000094 -1.23932099e-09 1.497732563e-09)
(0.01099999696 1.109913578e-09 3.867331927e-10)
(0.01100000112 -3.160104091e-12 7.48428669e-10)
(0.01099999575 6.817861746e-10 -4.088440115e-10)
(0.01100000252 8.762350138e-09 1.391172073e-09)
(0.01099997483 1.33614781e-08 7.634455195e-10)
(0.01100001538 4.489802172e-08 -9.620251191e-09)
(0.01099993473 3.942820915e-08 2.605677817e-10)
(0.01100006591 2.144286731e-07 -1.271973115e-07)
(0.01100000142 1.830190153e-09 8.186323586e-10)
(0.01100000083 -7.236154516e-10 -9.274883294e-11)
(0.01099999887 1.646821002e-09 9.964416571e-10)
(0.0109999984 1.126066138e-09 -6.700780224e-10)
(0.01099999923 5.922837366e-10 4.033927135e-10)
(0.01099999901 1.209274917e-09 -5.90671202e-10)
(0.01099999894 -9.525214517e-11 -7.263801054e-11)
(0.01099999897 4.689240479e-10 -3.483609762e-10)
(0.01100000118 2.432682268e-09 2.583631188e-09)
(0.01099999883 2.947668112e-09 4.861882353e-10)
(0.01100000301 6.780378781e-09 -1.771074834e-09)
(0.0109999825 8.981853701e-09 -1.819014891e-09)
(0.01100001673 3.197790863e-08 -1.505839628e-08)
(0.01099997918 2.273622112e-08 -6.893906674e-09)
(0.01100007407 1.301144182e-07 -9.011817835e-08)
(0.01100000002 -7.057619844e-10 -1.197392668e-09)
(0.01099999925 -9.404375156e-10 7.976708648e-10)
(0.01100000045 -7.421379653e-10 7.915326699e-10)
(0.01099999991 9.323545513e-10 -3.111907828e-09)
(0.01100000006 -2.999285691e-10 -6.226685969e-10)
(0.01100000228 -7.660365923e-10 7.66502901e-10)
(0.01100000072 1.34143006e-09 -4.03171587e-10)
(0.01099999849 2.027011954e-09 -5.873673214e-10)
(0.01100000213 1.165775386e-09 2.668011535e-10)
(0.01100000039 2.304312241e-09 1.203052792e-09)
(0.01100001092 6.590941789e-09 -2.364133788e-09)
(0.011000001 8.108297808e-09 -1.861833182e-09)
(0.01100003804 3.11649236e-08 -1.171337782e-08)
(0.01100003639 2.60697172e-08 -5.257118519e-09)
(0.01100010547 1.029190812e-07 -4.213918523e-08)
(0.01100000045 -2.227834938e-10 9.505168015e-10)
(0.01099999922 5.695857376e-10 -2.094771254e-09)
(0.01099999953 -9.674676603e-10 -3.452175487e-09)
(0.01099999961 -3.96184061e-10 8.065735711e-10)
(0.01100000194 1.297073591e-09 3.110456598e-09)
(0.01100000339 1.100806402e-09 1.191261976e-09)
(0.01100000197 9.644853614e-10 3.447301152e-09)
(0.01099999997 1.058244397e-09 -3.894811642e-10)
(0.01100000292 1.737549905e-09 -9.359785287e-10)
(0.01100000263 2.375564789e-09 3.65034118e-09)
(0.01100001247 3.485301505e-09 -7.17074043e-10)
(0.0110000098 2.062999226e-09 -2.011421335e-09)
(0.01100004451 9.733805369e-09 -1.179428049e-08)
(0.0110000595 5.361725215e-09 -8.638318934e-09)
(0.011000119 2.878072625e-08 -2.992981375e-08)
(0.01100000202 -8.238842861e-10 3.537826136e-10)
(0.01099999946 6.393752993e-10 1.026667519e-09)
(0.01099999968 -4.492267325e-10 4.498390073e-10)
(0.01099999678 -9.748554709e-10 1.698070115e-09)
(0.01099999888 -2.624236192e-10 4.787876117e-10)
(0.01099999893 -1.210658342e-09 1.853115971e-10)
(0.01100000053 -8.556702111e-10 1.612566567e-09)
(0.01100000072 -8.315217147e-10 4.737749616e-10)
(0.01100000373 -1.113910579e-09 -4.719363103e-11)
(0.01099999891 -1.725515608e-09 -3.374704576e-10)
(0.01100000866 -2.050860963e-09 -7.331013177e-09)
(0.01100000228 -1.863015013e-09 -8.745454397e-09)
(0.01100003916 -1.111761577e-08 -3.294674534e-08)
(0.01100003804 -5.150857534e-09 -2.769548136e-08)
(0.01100000048 6.18473876e-10 1.213441453e-09)
(0.01100000045 -9.460389276e-10 4.380635231e-10)
(0.01100000015 -1.358289118e-09 3.516898967e-10)
(0.0110000009 -9.270828276e-11 -5.261536057e-10)
(0.01099999834 -1.880321233e-10 -6.240514143e-10)
(0.01099999995 1.351833188e-09 2.565120553e-11)
(0.01100000016 4.949966293e-10 9.801591478e-10)
(0.01099999997 -5.226789722e-10 1.542702809e-10)
(0.01100000289 -9.193894386e-10 1.290017101e-10)
(0.01099999877 -1.896832967e-09 -1.466933658e-09)
(0.01100000911 -5.044725063e-09 -5.380310472e-09)
(0.01099999027 -6.903648156e-09 -8.517315761e-09)
(0.01100003268 -3.659294967e-08 -3.879931215e-08)
(0.01100000269 -2.619421248e-08 -2.568371525e-08)
(0.01100009271 -1.661185757e-07 -1.664216444e-07)
(0.01100000255 2.742045665e-10 1.168626884e-09)
(0.01099999887 4.16537966e-10 5.347599523e-10)
(0.01100000085 1.355971395e-09 6.249817927e-10)
(0.01100000235 -2.418769332e-09 4.7143926e-11)
(0.01100000063 -5.899058442e-10 2.28357025e-10)
(0.01100000198 1.171999323e-09 -4.954218966e-10)
(0.01099999965 6.132938857e-10 5.743922204e-10)
(0.01099999973 1.292004809e-09 1.459497705e-09)
(0.01100000016 -1.230504804e-09 5.819431894e-10)
(0.01099999147 -1.269772091e-09 -9.268282382e-10)
(0.01100000235 -2.314478575e-09 -4.86697603e-09)
(0.01099996757 -3.808605401e-09 -9.646459801e-09)
(0.01100000665 -3.125279781e-08 -5.32312912e-08)
(0.01099990796 -1.53868774e-08 -4.02399565e-08)
(0.01100004057 -2.187880979e-07 -3.655797065e-07)
(0.01100000011 6.081740182e-10 -4.699454e-10)
(0.01099999952 1.179237505e-09 -1.578640794e-10)
(0.01099999879 3.940166017e-10 -7.676075144e-10)
(0.01099999946 1.476578532e-11 3.646093441e-11)
(0.01100000111 -9.6448209e-10 1.605981694e-10)
(0.01100000109 -5.068272889e-10 1.248239382e-09)
(0.01099999857 6.58838869e-10 4.617707991e-10)
(0.01099999836 -2.795512116e-10 1.627266632e-09)
(0.01100000121 -1.100244599e-09 1.622259365e-09)
(0.010999996 -4.083566629e-10 1.920937177e-09)
(0.01100000214 -4.667548737e-09 2.518451283e-09)
(0.01099996577 -1.03637289e-08 -3.197340129e-09)
(0.01100000543 -5.409220745e-08 -3.477265995e-08)
(0.01099984013 -4.923767744e-08 -2.739787114e-08)
(0.01100001496 -4.520088652e-07 -5.795575552e-07)
(0.011 1.058259804e-09 -3.928217651e-10)
(0.01099999986 9.881055063e-10 1.715669233e-10)
(0.01099999801 1.256237178e-09 1.408159661e-09)
(0.01100000012 1.318398571e-09 -4.619051272e-10)
(0.01100000238 1.994164281e-09 1.048340997e-09)
(0.01099999979 -6.639454392e-10 7.988590519e-10)
(0.01099999886 1.18815716e-09 -4.565810876e-10)
(0.0109999968 1.522732693e-09 1.599965758e-09)
(0.01099999787 1.673853297e-09 3.165093341e-09)
(0.0109999901 1.030689603e-09 1.548479232e-09)
(0.0109999923 1.348536759e-09 2.754355958e-09)
(0.01099992213 6.38532202e-12 -5.939538195e-09)
(0.01099994137 1.847696504e-09 -7.71562119e-08)
(0.01099954829 1.335475103e-10 -9.436664825e-08)
(0.01099987272 1.433931342e-09 -1.450659157e-06)
(0.01100000068 -6.790585583e-11 1.081296867e-11)
(0.01100000072 7.445393958e-10 4.434049241e-10)
(0.01099999822 4.247269104e-10 8.021150904e-10)
(0.01099999905 -1.240862502e-10 4.30690141e-10)
(0.01100000073 6.477543915e-10 9.23449797e-10)
(0.01099999794 8.363049589e-10 -6.247753032e-10)
(0.01100000031 2.11805141e-10 4.963899472e-10)
(0.01099999696 8.902271432e-12 1.846804024e-09)
(0.011000001 3.065920808e-10 2.343541476e-09)
(0.01099999583 1.134057327e-09 1.750875293e-09)
(0.01100000159 6.519502771e-09 3.222492834e-09)
(0.01099996471 1.105317015e-08 -2.999324263e-09)
(0.01100000422 5.368946346e-08 -3.50001914e-08)
(0.01099983904 5.052415726e-08 -2.614817722e-08)
(0.01100001214 4.497394226e-07 -5.776440159e-07)
(0.01100000001 6.236573688e-10 -5.648657814e-10)
(0.01099999905 -2.995538844e-10 -8.982015555e-11)
(0.01099999897 -4.872256615e-10 -3.905312023e-10)
(0.01099999936 1.738603984e-09 -8.715514887e-11)
(0.01099999918 -8.431472584e-10 9.898804722e-10)
(0.01100000114 -2.450432373e-10 -6.316846278e-11)
(0.01100000088 -1.560471199e-09 8.212888915e-10)
(0.0109999976 6.458646882e-10 5.066831357e-10)
(0.01100000104 8.026964382e-10 1.024484639e-09)
(0.01099999412 1.322738154e-09 3.606623891e-10)
(0.01100000157 5.726990472e-10 -4.607736609e-09)
(0.01099996696 5.591364914e-09 -9.284957798e-09)
(0.01100000889 3.287693079e-08 -5.101218973e-08)
(0.01099990366 1.493679697e-08 -3.866789888e-08)
(0.01100003908 2.201589285e-07 -3.637408516e-07)
(0.01100000023 8.642162601e-10 5.920031751e-10)
(0.01099999913 2.277703791e-10 7.153204581e-10)
(0.01100000001 -5.199191446e-10 -9.048299307e-10)
(0.01099999981 3.524251001e-10 1.315487268e-10)
(0.01100000287 5.875218306e-10 2.321964181e-11)
(0.01100000106 -2.320258094e-10 -1.693216413e-10)
(0.01100000153 -4.298710061e-10 6.23913331e-10)
(0.01099999884 1.990854621e-10 1.109642215e-10)
(0.01100000253 1.384906948e-09 1.868669283e-10)
(0.01099999539 1.038707409e-09 -1.341512077e-09)
(0.01100000733 3.234118856e-09 -6.469287121e-09)
(0.01099999317 5.876074907e-09 -8.473518048e-09)
(0.01100003091 3.493279635e-08 -3.676018886e-08)
(0.01100000296 2.463669994e-08 -2.625111826e-08)
(0.01100009004 1.658821672e-07 -1.652644873e-07)
(0.01099999973 -4.258728855e-10 -2.288185338e-10)
(0.01099999894 -4.589795176e-10 2.11880998e-10)
(0.01099999854 4.645197513e-10 -1.247755595e-10)
(0.01100000014 -1.479130343e-09 3.287695946e-10)
(0.01100000042 1.601590255e-09 -9.29068381e-10)
(0.01100000233 2.016591325e-09 -1.33448759e-10)
(0.01100000038 2.438902986e-09 -7.901121833e-10)
(0.01100000091 8.768767032e-10 -2.525814094e-10)
(0.01100000214 -5.014358342e-12 -8.069347116e-10)
(0.01099999968 -4.016614829e-10 -2.200893158e-09)
(0.0110000103 3.045538635e-09 -7.62780304e-09)
(0.01100000113 2.344301594e-09 -1.006405295e-08)
(0.01100003633 8.807438818e-09 -3.154525773e-08)
(0.01100003776 2.82030335e-09 -2.624661631e-08)
(0.0110001086 4.132647642e-08 -1.027474366e-07)
(0.01099999899 6.697982798e-11 9.010769024e-10)
(0.01099999906 -7.700273452e-10 -1.283720248e-09)
(0.01100000103 -5.411077066e-10 -1.082076871e-09)
(0.01099999959 -1.928945046e-09 -1.128724255e-10)
(0.01099999779 -7.844207187e-10 2.289564667e-09)
(0.01099999833 1.54687676e-09 1.186746082e-09)
(0.01100000064 -1.945072521e-09 1.228360769e-09)
(0.01100000038 1.910609656e-09 1.742605954e-09)
(0.01100000299 7.648110539e-10 -7.041651878e-10)
(0.01099999246 -5.875381926e-10 -1.869667403e-09)
(0.01100000536 1.754333599e-09 -5.116939965e-09)
(0.01099998201 -1.136038664e-09 -6.601447977e-09)
(0.0110000214 -1.638351017e-08 -3.14223542e-08)
(0.01099997734 -5.713179593e-09 -2.242807242e-08)
(0.0109999977 4.82949731e-10 5.150792766e-10)
(0.01099999731 7.251603719e-11 -4.875285561e-10)
(0.01100000101 -4.669298305e-10 -2.741820214e-10)
(0.01099999938 -8.514459642e-10 -1.589123836e-09)
(0.0109999984 -1.125239245e-09 -1.026161376e-09)
(0.01100000007 2.949924289e-10 3.407094673e-10)
(0.01100000029 -2.610243378e-11 1.93506051e-09)
(0.01099999884 9.365825856e-11 1.398939051e-09)
(0.01100000178 -1.365300835e-10 7.545498095e-10)
(0.010999994 -1.411459624e-09 1.012121386e-09)
(0.01100000171 -4.187334097e-09 -2.625175408e-09)
(0.01099996871 -7.625766798e-09 -4.700647126e-09)
(0.01100001024 -5.107098306e-08 -3.088006205e-08)
(0.01099990673 -3.825503785e-08 -1.651853843e-08)
(0.01099999897 -2.73959766e-10 1.205573792e-09)
(0.01099999843 2.559079844e-09 -9.048287678e-12)
(0.01099999989 -4.567495025e-12 4.145235604e-10)
(0.01100000119 -1.685281647e-09 8.758657828e-10)
(0.01100000028 9.317659648e-10 4.125469918e-10)
(0.01099999867 1.517284401e-09 -4.251686791e-10)
(0.01099999881 1.070146692e-09 1.581811349e-09)
(0.01099999972 1.188353691e-10 -3.941931845e-10)
(0.01100000079 1.831376594e-09 1.124425089e-10)
(0.0109999882 2.377444613e-09 8.06799806e-10)
(0.01099999238 4.22351033e-09 3.587022367e-09)
(0.01099993662 -4.033068155e-10 -2.66940312e-09)
(0.01099995897 -2.982167009e-08 -3.098979936e-08)
(0.01099969454 -1.990284995e-08 -1.881064435e-08)
(0.01099989397 -5.462654874e-07 -5.518487861e-07)
(0.01099999967 -3.075572636e-11 4.021724625e-10)
(0.01099999773 1.286404631e-10 5.959524463e-10)
(0.01100000072 1.028013857e-09 -7.7077831e-10)
(0.01100000121 1.124998901e-09 2.384384796e-10)
(0.01100000223 1.67719164e-10 1.464328749e-09)
(0.01099999834 -6.895148158e-10 2.831909946e-10)
(0.01099999875 3.6021586e-10 1.936143988e-09)
(0.011 -2.34796329e-10 2.372150821e-09)
(0.01100000235 6.206546257e-11 6.546503688e-09)
(0.01099999615 7.27909735e-10 5.660164602e-09)
(0.01099999537 1.803114583e-09 2.337402397e-08)
(0.010999949 -8.477852238e-09 9.40143171e-09)
(0.01099992276 -7.105575842e-08 5.135637346e-08)
(0.01099954516 -9.49641639e-08 8.731978135e-09)
(0.0109996282 -1.319834296e-06 -8.348112878e-07)
(0.01100000001 5.344870474e-10 8.664454368e-10)
(0.01100000171 3.725645578e-10 -1.532588319e-09)
(0.01099999898 1.857669976e-09 1.207673593e-10)
(0.0109999991 1.725015111e-09 1.450994946e-09)
(0.01100000085 1.351469195e-09 1.807394102e-09)
(0.01100000057 8.198134008e-10 6.567655278e-10)
(0.01100000167 2.414896284e-10 3.072569263e-09)
(0.01099999881 4.406590355e-10 3.335851938e-09)
(0.01099999721 8.564028535e-10 7.853607367e-09)
(0.01099999266 4.360332301e-10 8.213699137e-09)
(0.01099997845 7.887552267e-10 3.188743897e-08)
(0.01099987759 -3.307117326e-12 1.344523729e-08)
(0.01099976706 9.823704388e-10 4.871089742e-08)
(0.01099875018 1.438571541e-10 -1.271080161e-07)
(0.01099877092 1.07738975e-09 -2.966977721e-06)
(0.01099999958 5.132264966e-10 1.528812877e-10)
(0.01100000084 -4.079056521e-10 -2.828980372e-10)
(0.01099999999 1.01081448e-09 -2.436669383e-09)
(0.01100000148 8.675685419e-10 -1.076666459e-09)
(0.01099999962 1.523445422e-09 -2.952356464e-10)
(0.01100000011 8.65602897e-10 1.884455347e-09)
(0.01100000065 8.761174668e-10 4.659308139e-11)
(0.01099999927 6.126713844e-10 7.298639423e-10)
(0.01100000053 -1.053232463e-09 4.819194973e-09)
(0.01099999698 7.4068173e-10 5.525358728e-09)
(0.01099999498 -4.74126021e-10 2.317673215e-08)
(0.01099994751 1.06060268e-08 1.044003324e-08)
(0.01099992217 7.283849685e-08 4.960811859e-08)
(0.01099954749 9.613449581e-08 7.100836287e-09)
(0.01099962594 1.320779521e-06 -8.365137492e-07)
(0.01100000003 -6.819119348e-10 -2.501668142e-09)
(0.01100000171 1.345513508e-09 5.092463099e-10)
(0.01099999924 -9.764655981e-11 -8.956418212e-10)
(0.01100000089 -9.737651165e-10 6.548632493e-11)
(0.01100000169 -8.499119614e-10 -2.183324631e-09)
(0.01099999932 5.56584075e-10 -2.907924021e-10)
(0.01099999865 7.578621401e-12 8.588861708e-10)
(0.01099999859 9.566100112e-10 7.182777448e-10)
(0.01099999968 4.366448595e-10 1.417859628e-09)
(0.01099998904 -6.957111316e-10 7.939014363e-10)
(0.01099999369 -3.026206867e-09 2.504384223e-09)
(0.01099993453 2.003665845e-09 -3.456550581e-09)
(0.01099995946 3.115933077e-08 -3.119284163e-08)
(0.01099969223 1.833277098e-08 -2.021793438e-08)
(0.01099989469 5.49645742e-07 -5.506525609e-07)
(0.01100000036 -3.003073184e-10 -2.055429219e-09)
(0.01099999978 -5.807966523e-10 -6.687249059e-10)
(0.01100000067 -6.5311091e-10 -1.18880012e-10)
(0.0109999994 4.290420241e-10 -1.099213779e-09)
(0.01100000134 1.362621758e-10 1.013090075e-09)
(0.01100000043 -5.647249734e-10 1.332441628e-09)
(0.01100000014 5.146663177e-10 -1.14325224e-09)
(0.01099999754 8.853488639e-11 -2.575169711e-09)
(0.01099999936 7.600028417e-10 -2.659317249e-10)
(0.01099999032 2.862600111e-10 -2.257860666e-10)
(0.01100000169 2.507868837e-09 -2.133098325e-09)
(0.01099996778 6.566697608e-09 -4.558396839e-09)
(0.01100000746 5.090041202e-08 -3.244224305e-08)
(0.0109999047 3.706664354e-08 -1.485792639e-08)
(0.01100004161 3.637013421e-07 -2.213043973e-07)
(0.01100000051 1.14690929e-09 2.521848764e-10)
(0.01099999888 -9.736870508e-11 -7.451957571e-10)
(0.01099999961 2.06070441e-10 -4.17759812e-10)
(0.01099999956 7.013659864e-10 3.408986017e-10)
(0.0109999991 -7.292096452e-11 7.864149471e-10)
(0.01100000122 7.979151669e-10 1.107430757e-09)
(0.01099999964 1.78103418e-09 6.029913452e-10)
(0.01100000066 -2.247931371e-10 -1.314435952e-09)
(0.01099999944 -2.514625041e-11 -5.848923272e-10)
(0.01099999325 -4.571350311e-10 -2.599800388e-09)
(0.01100000311 1.295790109e-09 -5.539407557e-09)
(0.01099997991 2.294202534e-09 -6.598820052e-09)
(0.0110000202 1.390806191e-08 -3.313618756e-08)
(0.01099997776 6.673522838e-09 -2.31674762e-08)
(0.01100007597 8.855892471e-08 -1.314966796e-07)
(0.01099999956 -8.271663192e-11 2.074196664e-10)
(0.01099999865 -1.140947487e-09 1.118091135e-09)
(0.01100000222 3.005878357e-10 3.505940063e-10)
(0.01099999942 1.100589087e-09 3.589964902e-10)
(0.01100000057 -6.589232238e-10 8.294137282e-10)
(0.0109999999 1.387839463e-09 -5.942777287e-10)
(0.01100000208 1.687442215e-09 -1.296497023e-10)
(0.01099999932 -1.677925965e-10 -6.034537342e-10)
(0.01100000123 7.374145058e-10 -9.014158897e-10)
(0.01099999285 4.498831556e-10 -3.051305217e-09)
(0.01100000364 -1.985718723e-10 -5.475029262e-09)
(0.01099997304 -2.432279694e-10 -1.086763515e-08)
(0.01100001478 -8.420159562e-09 -4.43056356e-08)
(0.01099993695 2.638896753e-09 -4.318252212e-08)
(0.0110000001 4.875883517e-11 -5.323622023e-10)
(0.0110000006 1.665108842e-10 1.877901641e-09)
(0.01099999788 -2.591896632e-10 2.232109422e-09)
(0.0110000001 -9.315950475e-10 2.391712157e-11)
(0.01100000214 -2.48102021e-09 4.727250212e-10)
(0.01100000098 -4.052947958e-10 1.610688411e-09)
(0.01100000005 6.147852397e-10 2.404731065e-10)
(0.01099999999 1.638617663e-10 1.186776693e-09)
(0.0109999993 2.248511425e-09 7.775766535e-10)
(0.01099999345 1.253402962e-10 -9.377709175e-10)
(0.01099999983 2.900143775e-09 -4.932763444e-09)
(0.01099996365 -2.670441322e-09 -9.139179699e-09)
(0.01100000394 -3.449058475e-08 -5.322429307e-08)
(0.01099983956 -2.638026756e-08 -5.083623872e-08)
(0.01099999987 5.000235695e-10 -2.150037814e-10)
(0.01099999717 1.66937577e-09 6.00276013e-11)
(0.01099999954 -9.334972118e-10 7.728793251e-10)
(0.0110000003 2.290710762e-10 8.116417431e-11)
(0.01100000118 6.267100404e-10 -7.225855794e-10)
(0.01099999919 -9.350885767e-10 -2.075247947e-10)
(0.01100000036 -1.620706953e-10 -1.005471061e-10)
(0.01099999982 1.9697658e-09 1.826559353e-10)
(0.01100000345 4.297571507e-09 1.396643421e-09)
(0.01099999444 4.896907895e-09 -7.791007053e-10)
(0.01099999416 2.351712773e-08 1.198993141e-09)
(0.01099994486 1.178689628e-08 -8.160471383e-09)
(0.01099992324 5.189437451e-08 -7.172139084e-08)
(0.01099954546 9.618030514e-09 -9.387905511e-08)
(0.01100000028 9.638787245e-10 5.594070715e-10)
(0.01099999972 -3.350818348e-10 1.433031058e-09)
(0.01100000108 1.365732584e-11 2.804076243e-09)
(0.011000001 -8.996975885e-11 4.924002057e-11)
(0.01100000074 5.779789109e-10 -7.886194118e-10)
(0.01099999963 1.502752527e-09 -5.806206931e-10)
(0.01100000096 4.856681435e-10 8.009293522e-10)
(0.0110000021 3.738649523e-10 1.156057522e-09)
(0.01100000514 4.654631426e-09 4.741147733e-09)
(0.01100001205 4.577352444e-09 3.918606299e-09)
(0.01100000093 2.211598748e-08 2.283799739e-08)
(0.01100003847 5.330178765e-09 5.399439927e-09)
(0.01099980225 2.543054204e-08 2.466683495e-08)
(0.01099967886 -1.569725162e-07 -1.55005106e-07)
(0.0109980819 -2.86662075e-06 -2.868250833e-06)
(0.01100000025 -4.876378968e-10 2.737181332e-10)
(0.01100000255 -1.300765884e-09 8.969316453e-10)
(0.01100000021 2.085954489e-09 -2.966542551e-10)
(0.01099999995 5.276055066e-10 7.436951812e-10)
(0.01100000158 1.615546881e-09 -7.827926937e-10)
(0.01100000205 3.851504833e-10 7.141027248e-10)
(0.01100000271 3.938557657e-10 1.369651367e-09)
(0.01100000376 4.02518478e-10 9.943463632e-10)
(0.01100000039 1.112018984e-10 6.40954978e-09)
(0.01100001529 -3.538617152e-10 7.504149724e-09)
(0.01099998833 -7.438604608e-10 3.684141162e-08)
(0.01100000838 7.840170448e-10 3.616927621e-08)
(0.01099940896 3.370007654e-10 5.967507242e-08)
(0.01099834571 -9.510596647e-10 -1.060406375e-07)
(0.01099197225 3.614473766e-10 -1.387290873e-05)
(0.01100000048 -7.713254237e-10 -1.186477975e-09)
(0.01100000079 1.709422371e-10 -8.86056041e-10)
(0.01100000063 -1.823967895e-10 4.118449221e-10)
(0.0110000005 1.740139282e-10 -7.201471471e-10)
(0.01100000212 -9.473216149e-10 -8.946487439e-10)
(0.01099999995 -2.453167611e-10 -1.466062326e-10)
(0.01100000284 1.817039092e-10 8.578212827e-10)
(0.01100000159 -1.719610587e-09 5.30712179e-10)
(0.01100000425 -5.565762937e-09 4.714184158e-09)
(0.01100001416 -4.538581574e-09 3.083669724e-09)
(0.01100000163 -2.136143744e-08 2.084331539e-08)
(0.01100003731 -5.118928355e-09 4.429423214e-09)
(0.01099979886 -2.587952519e-08 2.385122705e-08)
(0.01099967901 1.558746832e-07 -1.568865915e-07)
(0.01099808291 2.864883828e-06 -2.867946353e-06)
(0.01100000142 -3.283154819e-10 5.24376871e-10)
(0.01100000083 1.654052581e-09 -9.397175506e-10)
(0.01100000189 -1.825919211e-11 -9.755465168e-11)
(0.01099999897 -3.129294637e-10 -1.434009028e-09)
(0.01100000205 -6.792260937e-10 -8.949286508e-10)
(0.01099999945 -5.318779125e-10 3.157228091e-10)
(0.01100000078 -1.975238112e-09 -3.190274173e-10)
(0.01099999972 -1.600420631e-09 1.205543264e-10)
(0.01100000022 -5.521500366e-09 1.078374673e-09)
(0.01099999711 -5.177170439e-09 -1.397309893e-10)
(0.01099999526 -2.206796921e-08 4.752194016e-10)
(0.01099994627 -1.142700078e-08 -9.741179383e-09)
(0.01099992324 -5.117276861e-08 -7.354135269e-08)
(0.01099954866 -7.031434156e-09 -9.410867241e-08)
(0.01099962616 8.366309629e-07 -1.320815418e-06)
(0.01100000112 2.021580636e-12 -5.331760873e-10)
(0.01100000157 -5.384945574e-10 4.931625547e-10)
(0.01100000061 -6.200399513e-10 3.750829542e-10)
(0.01100000076 3.053429705e-10 -4.542497342e-10)
(0.01100000024 9.318206345e-10 -4.35458304e-10)
(0.01099999952 1.026760171e-09 -1.143620175e-09)
(0.01099999743 -3.205520945e-10 3.596171913e-11)
(0.0109999992 -4.088124677e-10 -4.922569866e-10)
(0.01100000263 -1.369380797e-09 -1.2960863e-09)
(0.01099999571 -9.914230655e-10 -1.790069573e-09)
(0.0110000007 -3.000333862e-09 -4.209116616e-09)
(0.01099996455 1.78548851e-09 -1.031048191e-08)
(0.01100000512 3.488515458e-08 -5.472011338e-08)
(0.01099983882 2.545491167e-08 -4.898326898e-08)
(0.01100001473 5.771846018e-07 -4.503690883e-07)
(0.01099999861 2.224902573e-09 -3.924723751e-10)
(0.01099999985 7.147997293e-10 -7.623804209e-10)
(0.01100000175 -5.469143842e-10 -1.596708546e-10)
(0.01100000076 7.65856016e-10 -5.485623143e-10)
(0.01100000105 1.58607274e-10 -2.594423375e-10)
(0.01100000153 8.826368304e-10 -1.137532111e-09)
(0.01099999656 2.480847292e-09 7.580380202e-12)
(0.0109999983 1.005177451e-09 7.016756319e-10)
(0.01099999744 1.13039399e-09 -1.604856692e-09)
(0.01099999454 -1.069088864e-09 -1.677368087e-09)
(0.01100000298 -8.831799956e-10 -7.257280471e-09)
(0.01099997355 4.785176111e-10 -1.112129857e-08)
(0.01100001454 1.033393402e-08 -4.282480054e-08)
(0.0109999377 -3.169957871e-09 -3.993225546e-08)
(0.01100006814 1.273172119e-07 -2.149205862e-07)
(0.01099999942 8.872517249e-10 4.122410938e-10)
(0.01100000042 -1.708606378e-10 -1.534235955e-10)
(0.01099999799 4.575615033e-10 -4.994493854e-10)
(0.01100000028 -8.470247988e-11 -5.213024345e-10)
(0.01100000043 -1.368640551e-09 -2.244062206e-09)
(0.01099999807 2.059102363e-09 -1.012801906e-09)
(0.01100000045 1.141109098e-09 -1.865150133e-09)
(0.01099999671 2.083391133e-09 2.399548884e-10)
(0.01099999933 1.441291158e-09 -1.093863703e-09)
(0.01099998901 9.494193771e-10 -5.351514549e-10)
(0.01099999289 1.655397937e-09 -3.829403555e-10)
(0.01099994309 1.48856879e-10 -1.250412311e-09)
(0.01099997976 -2.404409001e-08 -5.556320203e-10)
(0.01099980695 -1.457253744e-08 -7.682697154e-10)
(0.01099999964 7.680989799e-11 3.780782172e-10)
(0.01099999973 9.906137379e-10 -2.749831492e-10)
(0.0109999992 2.21171162e-10 -6.394871891e-10)
(0.01099999905 -1.319885616e-09 -9.415270812e-10)
(0.01100000038 -6.961277564e-10 -1.459382348e-09)
(0.01099999932 1.092313463e-09 -2.689076531e-09)
(0.01099999974 1.838346582e-09 -2.44338266e-09)
(0.01099999651 8.643434518e-10 -7.487035993e-10)
(0.01099999892 3.484566597e-09 2.011298796e-10)
(0.01099998577 1.165242529e-09 -3.020819177e-10)
(0.01099998895 3.517515705e-09 8.04872148e-10)
(0.01099992076 -7.267709932e-09 6.783813231e-12)
(0.01099994184 -7.691145779e-08 4.962673838e-10)
(0.01099954795 -9.159215679e-08 -6.11024006e-10)
(0.01099999964 1.32685164e-09 7.780119591e-10)
(0.01099999873 -9.692751906e-11 2.723691292e-10)
(0.01100000198 8.30745865e-10 4.656793231e-10)
(0.01099999932 -2.349908285e-10 -1.4905227e-09)
(0.01100000044 9.167273826e-10 -5.897262827e-10)
(0.01100000049 -4.515682078e-10 6.454208175e-10)
(0.01099999945 1.439936593e-09 8.114347186e-10)
(0.01099999863 2.370225958e-09 1.392105023e-10)
(0.01099999992 7.240928203e-09 -1.265220084e-09)
(0.01099999146 7.597801769e-09 9.215150424e-10)
(0.01099997992 3.243766691e-08 7.708008222e-10)
(0.01099987615 1.577046758e-08 -7.260415184e-10)
(0.01099976738 4.886315658e-08 9.476788526e-10)
(0.01099874931 -1.247526011e-07 -8.262804806e-11)
(0.01099999868 1.312051482e-10 -9.333192915e-11)
(0.01099999943 1.772242118e-09 -8.667949921e-10)
(0.01099999889 2.095589178e-10 -2.678284691e-10)
(0.01099999921 1.169282667e-10 -8.094236905e-10)
(0.01100000022 -2.253321723e-10 -5.337843984e-10)
(0.01100000229 -4.620654114e-10 -2.941752933e-10)
(0.01100000098 -2.602931274e-10 -1.623475926e-09)
(0.01100000541 8.865461573e-10 -2.713542674e-10)
(0.01100000354 5.346612916e-09 -1.878227554e-09)
(0.01100001808 8.320377706e-09 2.587168794e-10)
(0.01099998816 3.682069586e-08 7.521680812e-10)
(0.01100000522 3.653493263e-08 1.249012984e-09)
(0.01099941063 5.941653047e-08 -4.369222764e-10)
(0.01099834283 -1.053928072e-07 9.378795755e-11)
(0.01099999862 -1.425434427e-09 -8.7823873e-10)
(0.01099999723 -2.616254343e-09 1.856790309e-10)
(0.01100000099 -9.290479373e-10 1.083233941e-09)
(0.010999999 8.603567109e-10 -2.711232485e-11)
(0.01100000112 1.595527443e-09 1.097728636e-10)
(0.01100000077 1.984934468e-09 -7.078278567e-10)
(0.01100000095 2.355824562e-10 -1.599959544e-09)
(0.01100000667 -1.261065573e-09 -4.398971423e-10)
(0.0110000051 -7.622560991e-10 3.939865824e-10)