/*--------------------------------*- C++ -*----------------------------------*\
| =========                 |                                                 |
| \\      /  F ield         | OpenFOAM: The Open Source CFD Toolbox           |
|  \\    /   O peration     | Version:  4.x                                   |
|   \\  /    A nd           | Web:      www.OpenFOAM.org                      |
|    \\/     M anipulation  |                                                 |
\*---------------------------------------------------------------------------*/
FoamFile
{
    version     2.0;
    format      ascii;
    class       volScalarField;
    location    "3000";
    object      X_CO;
}
// * * * * * * * * * * * * * * * * * * * * * * * * * * * * * * * * * * * * * //

dimensions      [0 0 0 0 0 0 0];

internalField   nonuniform List<scalar> 
1175
(
0.3728740615
0.3728740616
0.3728740617
0.3728740617
0.3728740615
0.3728740614
0.3728740609
0.3728740593
0.3728740545
0.3728740398
0.3728739979
0.3728738864
0.3728736137
0.3728730101
0.3728718206
0.3728740617
0.3728740616
0.3728740616
0.3728740615
0.3728740615
0.3728740613
0.3728740607
0.3728740585
0.3728740515
0.3728740291
0.372873963
0.3728737802
0.3728733172
0.3728722705
0.3728702069
0.3728740617
0.3728740616
0.3728740617
0.3728740616
0.3728740614
0.3728740611
0.3728740601
0.3728740569
0.3728740457
0.3728740089
0.372873894
0.3728735607
0.3728726815
0.3728706346
0.3728665896
0.3728740616
0.3728740616
0.3728740614
0.3728740616
0.3728740614
0.3728740611
0.3728740599
0.3728740553
0.3728740393
0.3728739849
0.3728738079
0.3728732716
0.3728717936
0.3728682343
0.3728611484
0.3728740615
0.3728740617
0.3728740615
0.3728740616
0.3728740614
0.3728740611
0.3728740597
0.3728740546
0.3728740364
0.3728739724
0.3728737598
0.3728730965
0.3728712089
0.3728665176
0.3728570583
0.3728740617
0.3728740616
0.3728740617
0.3728740616
0.3728740613
0.372874061
0.3728740598
0.3728740553
0.3728740395
0.372873985
0.3728738079
0.3728732714
0.3728717937
0.3728682342
0.3728611485
0.3728740617
0.3728740616
0.3728740616
0.3728740616
0.3728740616
0.3728740614
0.3728740603
0.3728740571
0.3728740458
0.3728740089
0.372873894
0.3728735608
0.3728726814
0.3728706346
0.3728665896
0.3728740618
0.3728740617
0.3728740617
0.3728740616
0.3728740617
0.3728740616
0.3728740608
0.3728740586
0.3728740516
0.3728740293
0.3728739632
0.3728737804
0.3728733174
0.3728722706
0.372870207
0.3728740618
0.3728740617
0.3728740617
0.3728740618
0.3728740618
0.3728740618
0.3728740611
0.3728740594
0.3728740545
0.37287404
0.372873998
0.3728738866
0.3728736138
0.3728730103
0.372871821
0.3728740618
0.3728740616
0.3728740617
0.3728740614
0.3728740615
0.3728740613
0.3728740607
0.3728740586
0.3728740513
0.372874029
0.372873963
0.3728737802
0.3728733172
0.3728722703
0.3728740615
0.3728740615
0.3728740615
0.3728740617
0.3728740616
0.3728740612
0.3728740604
0.3728740571
0.3728740462
0.3728740099
0.372873896
0.3728735629
0.3728726764
0.3728705997
0.3728664926
0.3728740614
0.3728740615
0.3728740616
0.3728740617
0.3728740615
0.3728740612
0.3728740598
0.3728740546
0.3728740359
0.3728739705
0.372873752
0.3728730697
0.3728711386
0.3728663921
0.3728569044
0.3728740615
0.3728740614
0.3728740614
0.3728740615
0.3728740615
0.372874061
0.372874059
0.3728740517
0.3728740235
0.3728739199
0.3728735519
0.3728723266
0.372868613
0.372858903
0.3728390078
0.3728740615
0.3728740615
0.3728740615
0.3728740615
0.3728740615
0.3728740609
0.3728740586
0.3728740502
0.3728740169
0.3728738904
0.3728734232
0.3728717894
0.3728665302
0.3728518252
0.3728202888
0.3728740616
0.3728740615
0.3728740615
0.3728740614
0.3728740615
0.3728740607
0.3728740588
0.3728740517
0.3728740237
0.3728739198
0.372873552
0.3728723269
0.3728686131
0.3728589033
0.3728390083
0.3728740615
0.3728740616
0.3728740617
0.3728740617
0.3728740616
0.3728740612
0.3728740598
0.3728740546
0.3728740361
0.3728739707
0.372873752
0.3728730698
0.3728711387
0.3728663923
0.3728569052
0.3728740617
0.3728740616
0.3728740617
0.3728740617
0.3728740617
0.3728740615
0.3728740605
0.3728740573
0.3728740463
0.3728740099
0.3728738959
0.3728735629
0.3728726766
0.3728706001
0.3728664933
0.3728740617
0.3728740615
0.3728740616
0.3728740617
0.3728740617
0.3728740616
0.3728740609
0.3728740588
0.3728740516
0.3728740295
0.3728739631
0.3728737802
0.3728733173
0.3728722705
0.3728702073
0.3728740618
0.3728740617
0.3728740616
0.3728740616
0.3728740615
0.3728740612
0.3728740604
0.3728740571
0.3728740457
0.3728740089
0.372873894
0.3728735608
0.3728726812
0.3728706341
0.3728740615
0.3728740615
0.3728740616
0.3728740615
0.3728740615
0.3728740609
0.3728740598
0.3728740547
0.3728740362
0.3728739708
0.3728737521
0.3728730698
0.3728711384
0.3728663916
0.3728740616
0.3728740617
0.3728740615
0.3728740616
0.3728740614
0.3728740608
0.3728740586
0.3728740499
0.3728740158
0.3728738869
0.3728734197
0.3728718321
0.3728669319
0.3728539439
0.3728272197
0.3728740616
0.3728740614
0.3728740617
0.3728740615
0.3728740614
0.3728740606
0.3728740575
0.3728740442
0.3728739894
0.3728737678
0.3728728993
0.3728696681
0.3728586364
0.3728262186
0.3727550269
0.3728740615
0.3728740616
0.3728740617
0.3728740615
0.3728740613
0.3728740606
0.372874057
0.372874041
0.3728739737
0.372873689
0.3728725064
0.3728677526
0.3728497911
0.3727898547
0.372640427
0.3728740614
0.3728740617
0.3728740616
0.3728740616
0.3728740614
0.3728740606
0.3728740575
0.3728740441
0.3728739893
0.3728737676
0.3728728993
0.3728696683
0.3728586368
0.3728262199
0.3727550306
0.3728740617
0.3728740617
0.3728740616
0.3728740616
0.3728740614
0.3728740608
0.3728740586
0.37287405
0.3728740158
0.3728738869
0.3728734198
0.3728718319
0.3728669322
0.3728539451
0.3728272235
0.3728740618
0.3728740617
0.3728740617
0.3728740616
0.3728740615
0.3728740612
0.3728740599
0.3728740547
0.3728740359
0.3728739705
0.3728737522
0.3728730699
0.3728711388
0.3728663925
0.3728569053
0.3728740617
0.3728740616
0.3728740616
0.3728740615
0.3728740615
0.3728740614
0.3728740605
0.3728740573
0.3728740459
0.372874009
0.3728738939
0.3728735606
0.3728726814
0.3728706346
0.3728665897
0.3728740617
0.3728740617
0.3728740617
0.3728740617
0.3728740617
0.3728740614
0.3728740601
0.3728740554
0.3728740394
0.3728739849
0.3728738079
0.3728732714
0.3728717936
0.3728682337
0.3728740617
0.3728740617
0.3728740617
0.3728740616
0.3728740616
0.3728740611
0.3728740592
0.3728740518
0.3728740236
0.3728739197
0.3728735518
0.3728723264
0.3728686124
0.3728589014
0.3728740616
0.3728740616
0.3728740617
0.3728740616
0.3728740614
0.3728740607
0.3728740574
0.3728740442
0.3728739894
0.3728737675
0.372872899
0.3728696677
0.3728586355
0.3728262148
0.3728740617
0.3728740616
0.3728740617
0.3728740618
0.3728740613
0.3728740601
0.3728740554
0.3728740344
0.372873941
0.3728735293
0.3728717411
0.3728642144
0.3728344606
0.3727310645
0.3724663736
0.3728740618
0.3728740617
0.3728740617
0.3728740617
0.3728740614
0.37287406
0.3728740545
0.3728740287
0.3728739094
0.3728733493
0.3728706981
0.3728581327
0.3727995963
0.3725441769
0.3716558334
0.3728740616
0.3728740617
0.3728740616
0.3728740616
0.3728740613
0.3728740601
0.3728740555
0.3728740344
0.372873941
0.3728735292
0.3728717411
0.3728642144
0.3728344616
0.3727310707
0.3724664002
0.3728740617
0.3728740617
0.3728740617
0.3728740616
0.3728740613
0.3728740605
0.3728740574
0.3728740441
0.3728739895
0.3728737678
0.3728728993
0.3728696681
0.3728586365
0.3728262196
0.3727550301
0.3728740615
0.3728740616
0.3728740616
0.3728740614
0.3728740612
0.3728740609
0.3728740591
0.3728740516
0.3728740238
0.3728739199
0.372873552
0.3728723267
0.3728686129
0.372858903
0.3728390081
0.3728740615
0.3728740617
0.3728740616
0.3728740616
0.3728740614
0.3728740611
0.3728740598
0.3728740553
0.3728740393
0.3728739849
0.3728738079
0.3728732715
0.3728717937
0.3728682343
0.3728611485
0.3728740619
0.3728740618
0.3728740617
0.3728740618
0.3728740616
0.3728740613
0.3728740597
0.3728740547
0.3728740362
0.3728739722
0.3728737595
0.3728730964
0.3728712087
0.3728665168
0.3728740616
0.3728740617
0.3728740617
0.3728740617
0.3728740615
0.3728740608
0.3728740586
0.3728740502
0.372874017
0.3728738902
0.3728734232
0.3728717893
0.3728665295
0.3728518227
0.3728740615
0.3728740616
0.3728740618
0.3728740616
0.3728740612
0.3728740607
0.3728740569
0.3728740411
0.372873974
0.3728736892
0.3728725064
0.3728677521
0.3728497891
0.3727898456
0.3728740615
0.3728740615
0.3728740617
0.3728740618
0.3728740612
0.3728740601
0.3728740545
0.3728740287
0.3728739094
0.3728733495
0.3728706983
0.372858132
0.3727995919
0.3725441474
0.3728740615
0.3728740615
0.3728740616
0.3728740614
0.3728740612
0.3728740597
0.372874053
0.372874021
0.3728738635
0.3728730603
0.3728687666
0.3728444734
0.372697547
0.371741013
0.3649769132
0.3728740615
0.3728740616
0.3728740616
0.3728740614
0.3728740611
0.37287406
0.3728740544
0.3728740287
0.3728739093
0.3728733492
0.3728706981
0.3728581322
0.3727995949
0.3725441724
0.3716558285
0.3728740616
0.3728740617
0.3728740617
0.3728740616
0.3728740612
0.3728740604
0.3728740568
0.372874041
0.3728739739
0.3728736891
0.3728725065
0.3728677525
0.3728497904
0.3727898529
0.3726404251
0.3728740616
0.3728740615
0.3728740615
0.3728740615
0.3728740614
0.3728740609
0.3728740589
0.3728740503
0.3728740171
0.3728738904
0.3728734233
0.3728717894
0.3728665301
0.3728518248
0.3728202883
0.3728740616
0.3728740615
0.3728740614
0.3728740614
0.3728740614
0.372874061
0.3728740598
0.3728740546
0.3728740363
0.3728739724
0.3728737597
0.3728730965
0.3728712089
0.3728665175
0.3728570582
0.3728740618
0.3728740618
0.3728740615
0.3728740617
0.3728740615
0.3728740612
0.3728740599
0.3728740554
0.3728740394
0.3728739848
0.3728738077
0.3728732713
0.3728717935
0.3728682336
0.3728740615
0.3728740616
0.3728740619
0.3728740618
0.3728740616
0.372874061
0.372874059
0.3728740516
0.3728740236
0.3728739198
0.3728735518
0.3728723264
0.3728686123
0.3728589013
0.3728740616
0.3728740616
0.3728740616
0.3728740616
0.3728740614
0.3728740605
0.3728740574
0.3728740442
0.3728739893
0.3728737676
0.3728728991
0.3728696679
0.3728586351
0.3728262144
0.3728740616
0.3728740614
0.3728740616
0.3728740616
0.3728740613
0.3728740602
0.3728740554
0.3728740341
0.3728739408
0.3728735292
0.3728717412
0.3728642139
0.3728344585
0.3727310563
0.3728740615
0.3728740614
0.3728740616
0.3728740615
0.3728740611
0.3728740599
0.3728740542
0.3728740286
0.3728739093
0.3728733491
0.3728706979
0.3728581316
0.3727995909
0.372544144
0.3728740617
0.3728740614
0.3728740615
0.3728740615
0.3728740613
0.3728740601
0.3728740554
0.3728740343
0.372873941
0.3728735292
0.372871741
0.3728642139
0.3728344592
0.3727310584
0.3728740616
0.3728740616
0.3728740615
0.3728740614
0.3728740612
0.3728740605
0.3728740575
0.3728740442
0.3728739894
0.3728737678
0.3728728991
0.372869668
0.3728586357
0.3728262169
0.3727550218
0.3728740614
0.3728740616
0.3728740616
0.3728740615
0.3728740613
0.3728740608
0.372874059
0.3728740518
0.3728740238
0.3728739199
0.3728735519
0.3728723265
0.3728686125
0.3728589022
0.3728390067
0.3728740616
0.3728740616
0.3728740615
0.3728740615
0.3728740614
0.372874061
0.3728740598
0.3728740554
0.3728740394
0.3728739848
0.3728738077
0.3728732714
0.3728717936
0.372868234
0.3728611479
0.3728740617
0.3728740618
0.3728740618
0.3728740618
0.3728740614
0.3728740612
0.3728740603
0.372874057
0.3728740457
0.3728740088
0.372873894
0.3728735608
0.3728726812
0.3728706342
0.3728740617
0.3728740615
0.3728740615
0.3728740616
0.3728740614
0.3728740611
0.3728740598
0.3728740546
0.3728740362
0.3728739705
0.3728737519
0.3728730695
0.3728711382
0.3728663913
0.3728740617
0.3728740616
0.3728740615
0.3728740614
0.3728740614
0.3728740607
0.3728740586
0.3728740497
0.3728740158
0.3728738867
0.3728734197
0.372871832
0.3728669313
0.3728539429
0.3728740615
0.3728740615
0.3728740616
0.3728740616
0.3728740614
0.3728740607
0.3728740574
0.3728740442
0.3728739894
0.3728737678
0.3728728992
0.3728696677
0.3728586351
0.3728262145
0.3728740616
0.3728740615
0.3728740616
0.3728740616
0.3728740614
0.3728740603
0.3728740568
0.3728740411
0.3728739739
0.372873689
0.3728725063
0.372867752
0.3728497887
0.3727898454
0.3728740616
0.3728740615
0.3728740615
0.3728740615
0.3728740613
0.3728740605
0.3728740573
0.3728740441
0.3728739894
0.3728737677
0.3728728991
0.3728696678
0.3728586354
0.3728262149
0.3728740616
0.3728740617
0.3728740618
0.3728740615
0.3728740614
0.3728740607
0.3728740587
0.3728740499
0.3728740158
0.3728738869
0.3728734197
0.3728718318
0.3728669315
0.3728539428
0.3728740615
0.3728740615
0.3728740616
0.3728740615
0.3728740614
0.3728740609
0.3728740595
0.3728740545
0.372874036
0.3728739705
0.372873752
0.3728730698
0.3728711384
0.3728663918
0.3728569037
0.3728740616
0.3728740616
0.3728740615
0.3728740616
0.3728740616
0.3728740611
0.3728740602
0.3728740569
0.3728740457
0.3728740087
0.3728738937
0.3728735605
0.3728726812
0.3728706343
0.3728665892
0.3728740619
0.3728740618
0.3728740617
0.3728740616
0.3728740615
0.3728740613
0.3728740607
0.3728740585
0.3728740513
0.3728740291
0.3728739631
0.3728737801
0.3728733171
0.3728722703
0.3728740616
0.3728740616
0.3728740616
0.3728740617
0.3728740616
0.3728740613
0.3728740604
0.3728740571
0.3728740462
0.37287401
0.3728738961
0.3728735628
0.3728726762
0.3728705997
0.3728740614
0.3728740615
0.3728740616
0.3728740613
0.3728740614
0.3728740609
0.3728740598
0.3728740546
0.372874036
0.3728739707
0.372873752
0.3728730697
0.3728711384
0.3728663916
0.3728740614
0.3728740613
0.3728740615
0.3728740617
0.3728740615
0.3728740608
0.3728740591
0.3728740516
0.3728740238
0.37287392
0.372873552
0.3728723265
0.3728686123
0.3728589014
0.3728740614
0.3728740615
0.3728740614
0.3728740613
0.3728740614
0.3728740609
0.3728740587
0.3728740501
0.3728740171
0.3728738902
0.372873423
0.3728717891
0.3728665293
0.3728518226
0.3728740617
0.3728740617
0.3728740616
0.3728740615
0.3728740614
0.3728740609
0.372874059
0.3728740517
0.3728740236
0.3728739197
0.3728735517
0.3728723262
0.3728686121
0.3728589014
0.3728740614
0.3728740615
0.3728740616
0.3728740614
0.3728740615
0.3728740611
0.3728740597
0.3728740547
0.3728740359
0.3728739706
0.372873752
0.3728730695
0.3728711384
0.3728663915
0.3728740615
0.3728740616
0.3728740615
0.3728740615
0.3728740614
0.3728740612
0.3728740603
0.3728740571
0.3728740461
0.37287401
0.3728738959
0.3728735627
0.3728726763
0.3728705997
0.3728740616
0.3728740617
0.3728740617
0.3728740615
0.3728740614
0.3728740613
0.3728740607
0.3728740586
0.3728740514
0.372874029
0.3728739629
0.3728737801
0.372873317
0.3728722701
0.3728702066
0.3728740617
0.3728740617
0.3728740617
0.3728740616
0.3728740617
0.3728740615
0.372874061
0.3728740594
0.3728740545
0.3728740398
0.3728739979
0.3728738863
0.3728736136
0.37287301
0.3728740618
0.3728740619
0.3728740617
0.3728740618
0.3728740615
0.3728740614
0.3728740607
0.3728740586
0.3728740514
0.3728740292
0.372873963
0.3728737801
0.3728733171
0.3728722704
0.3728740616
0.3728740616
0.3728740616
0.3728740616
0.3728740614
0.3728740613
0.3728740603
0.3728740571
0.3728740458
0.3728740089
0.3728738941
0.3728735606
0.3728726813
0.3728706343
0.3728740617
0.3728740616
0.3728740616
0.3728740616
0.3728740615
0.3728740611
0.3728740599
0.3728740554
0.3728740396
0.3728739849
0.3728738078
0.3728732714
0.3728717935
0.3728682338
0.3728740614
0.3728740615
0.3728740615
0.3728740615
0.3728740612
0.3728740609
0.3728740597
0.3728740545
0.3728740364
0.3728739725
0.3728737598
0.3728730963
0.3728712086
0.3728665168
0.3728740616
0.3728740616
0.3728740616
0.3728740615
0.3728740615
0.3728740611
0.3728740597
0.3728740552
0.3728740393
0.3728739848
0.3728738078
0.3728732713
0.3728717934
0.3728682336
0.3728740616
0.3728740615
0.3728740617
0.3728740616
0.3728740614
0.3728740612
0.3728740602
0.372874057
0.3728740456
0.3728740088
0.3728738938
0.3728735604
0.3728726811
0.3728706341
0.3728740616
0.3728740616
0.3728740614
0.3728740614
0.3728740613
0.3728740613
0.3728740606
0.3728740585
0.3728740514
0.3728740289
0.372873963
0.3728737802
0.372873317
0.37287227
0.3728740615
0.3728740615
0.3728740616
0.3728740616
0.3728740614
0.3728740613
0.3728740609
0.3728740594
0.3728740545
0.3728740396
0.3728739977
0.3728738862
0.3728736133
0.3728730098
)
;

boundaryField
{
    top
    {
        type            calculated;
        value           nonuniform List<scalar> 
134
(
0.3728740618
0.3728740617
0.3728740617
0.3728740615
0.3728740616
0.3728740616
0.3728740616
0.3728740616
0.3728740615
0.3728740617
0.3728740615
0.3728740616
0.3728740617
0.3728740615
0.3728740616
0.3728740616
0.3728740617
0.3728740615
0.3728740617
0.3728740616
0.3728740616
0.3728740616
0.3728740614
0.3728740615
0.3728740615
0.3728740617
0.3728740616
0.3728740618
0.3728740617
0.3728740615
0.3728740616
0.3728740614
0.3728740615
0.3728740616
0.3728740615
0.3728740616
0.3728740618
0.3728740617
0.3728740615
0.3728740614
0.3728740614
0.3728740614
0.3728740616
0.3728740614
0.3728740614
0.3728740618
0.3728740616
0.3728740614
0.3728740611
0.372874061
0.372874061
0.3728740611
0.3728740613
0.3728740613
0.3728740611
0.3728740609
0.3728740605
0.3728740598
0.3728740598
0.3728740598
0.3728740602
0.3728740607
0.3728740609
0.3728740594
0.3728740588
0.3728740573
0.3728740553
0.3728740546
0.3728740554
0.3728740569
0.3728740586
0.3728740594
0.3728740545
0.3728740516
0.3728740459
0.3728740393
0.3728740363
0.3728740394
0.3728740457
0.3728740514
0.3728740545
0.37287404
0.3728740295
0.372874009
0.3728739849
0.3728739724
0.3728739848
0.3728740087
0.372874029
0.3728740396
0.372873998
0.3728739631
0.3728738939
0.3728738079
0.3728737597
0.3728738077
0.3728738937
0.3728739629
0.3728739977
0.3728738866
0.3728737802
0.3728735606
0.3728732715
0.3728730965
0.3728732714
0.3728735605
0.3728737801
0.3728738862
0.3728736138
0.3728733173
0.3728726814
0.3728717937
0.3728712089
0.3728717936
0.3728726812
0.372873317
0.3728736133
0.3728730103
0.3728722705
0.3728706346
0.3728682343
0.3728665175
0.372868234
0.3728706343
0.3728722701
0.3728730098
0.372871821
0.3728702073
0.3728665897
0.3728611485
0.3728570582
0.3728611479
0.3728665892
0.3728702066
)
;
    }
    bottom
    {
        type            calculated;
        value           nonuniform List<scalar> 
127
(
0.3728740615
0.3728740618
0.3728740618
0.3728740617
0.3728740619
0.3728740618
0.3728740617
0.3728740619
0.3728740617
0.3728740616
0.3728740616
0.3728740617
0.3728740617
0.3728740618
0.3728740618
0.3728740618
0.3728740618
0.3728740617
0.3728740617
0.3728740617
0.3728740616
0.3728740617
0.3728740617
0.3728740615
0.3728740618
0.3728740617
0.3728740617
0.3728740617
0.3728740614
0.3728740616
0.3728740617
0.3728740618
0.3728740617
0.3728740618
0.3728740616
0.3728740616
0.3728740615
0.3728740615
0.3728740615
0.3728740617
0.3728740616
0.3728740615
0.3728740614
0.3728740615
0.3728740617
0.3728740614
0.3728740613
0.3728740612
0.3728740614
0.3728740613
0.3728740612
0.3728740612
0.3728740613
0.3728740615
0.3728740609
0.3728740607
0.3728740604
0.3728740601
0.3728740597
0.3728740599
0.3728740603
0.3728740607
0.372874061
0.3728740593
0.3728740586
0.3728740571
0.3728740554
0.3728740547
0.3728740554
0.372874057
0.3728740585
0.3728740594
0.3728740545
0.3728740513
0.3728740457
0.3728740394
0.3728740362
0.3728740394
0.3728740457
0.3728740513
0.3728740545
0.3728740398
0.372874029
0.3728740089
0.3728739849
0.3728739722
0.3728739848
0.3728740088
0.3728740291
0.3728740398
0.3728739979
0.372873963
0.372873894
0.3728738079
0.3728737595
0.3728738077
0.372873894
0.3728739631
0.3728739979
0.3728738864
0.3728737802
0.3728735608
0.3728732714
0.3728730964
0.3728732713
0.3728735608
0.3728737801
0.3728738863
0.3728736137
0.3728733172
0.3728726812
0.3728717936
0.3728712087
0.3728717935
0.3728726812
0.3728733171
0.3728736136
0.3728730101
0.3728722703
0.3728706341
0.3728682337
0.3728665168
0.3728682336
0.3728706342
0.3728722703
0.37287301
0.3728718206
)
;
    }
    side-walls
    {
        type            calculated;
        value           nonuniform List<scalar> 
261
(
0.3728740615
0.3728740617
0.3728740617
0.3728740616
0.3728740615
0.3728740617
0.3728740617
0.3728740618
0.3728740618
0.3728740616
0.3728740616
0.3728740616
0.3728740616
0.3728740617
0.3728740616
0.3728740616
0.3728740617
0.3728740617
0.3728740617
0.3728740616
0.3728740617
0.3728740614
0.3728740615
0.3728740617
0.3728740616
0.3728740617
0.3728740617
0.3728740617
0.3728740615
0.3728740616
0.3728740616
0.3728740616
0.3728740616
0.3728740616
0.3728740616
0.3728740618
0.3728740615
0.3728740615
0.3728740614
0.3728740614
0.3728740614
0.3728740613
0.3728740616
0.3728740617
0.3728740618
0.3728740614
0.3728740613
0.3728740611
0.3728740611
0.3728740611
0.372874061
0.3728740614
0.3728740616
0.3728740618
0.3728740609
0.3728740607
0.3728740601
0.3728740599
0.3728740597
0.3728740598
0.3728740603
0.3728740608
0.3728740611
0.3728740593
0.3728740585
0.3728740569
0.3728740553
0.3728740546
0.3728740553
0.3728740571
0.3728740586
0.3728740594
0.3728740545
0.3728740515
0.3728740457
0.3728740393
0.3728740364
0.3728740395
0.3728740458
0.3728740516
0.3728740545
0.3728740398
0.3728740291
0.3728740089
0.3728739849
0.3728739724
0.372873985
0.3728740089
0.3728740293
0.37287404
0.3728739979
0.372873963
0.372873894
0.3728738079
0.3728737598
0.3728738079
0.372873894
0.3728739632
0.372873998
0.3728738864
0.3728737802
0.3728735607
0.3728732716
0.3728730965
0.3728732714
0.3728735608
0.3728737804
0.3728738866
0.3728736137
0.3728733172
0.3728726815
0.3728717936
0.3728712089
0.3728717937
0.3728726814
0.3728733174
0.3728736138
0.3728730101
0.3728722705
0.3728706346
0.3728682343
0.3728665176
0.3728682342
0.3728706346
0.3728722706
0.3728730103
0.3728718206
0.3728702069
0.3728665896
0.3728611484
0.3728570583
0.3728611485
0.3728665896
0.372870207
0.372871821
0.3728740617
0.3728740618
0.3728740616
0.3728740617
0.3728740614
0.3728740616
0.3728740616
0.3728740616
0.3728740615
0.3728740617
0.3728740619
0.3728740616
0.3728740616
0.3728740615
0.3728740616
0.3728740615
0.3728740616
0.3728740615
0.3728740617
0.3728740617
0.3728740616
0.3728740616
0.3728740615
0.3728740616
0.3728740617
0.3728740614
0.3728740616
0.3728740616
0.3728740618
0.3728740616
0.3728740616
0.3728740615
0.3728740615
0.3728740616
0.3728740614
0.3728740616
0.3728740617
0.3728740615
0.3728740614
0.3728740615
0.3728740612
0.3728740615
0.3728740614
0.3728740613
0.3728740614
0.3728740615
0.3728740614
0.3728740613
0.3728740611
0.3728740609
0.3728740611
0.3728740612
0.3728740613
0.3728740613
0.372874061
0.3728740607
0.3728740603
0.3728740599
0.3728740597
0.3728740597
0.3728740602
0.3728740606
0.3728740609
0.3728740594
0.3728740586
0.3728740571
0.3728740554
0.3728740545
0.3728740552
0.372874057
0.3728740585
0.3728740594
0.3728740545
0.3728740514
0.3728740458
0.3728740396
0.3728740364
0.3728740393
0.3728740456
0.3728740514
0.3728740545
0.3728740398
0.3728740292
0.3728740089
0.3728739849
0.3728739725
0.3728739848
0.3728740088
0.3728740289
0.3728740396
0.3728739979
0.372873963
0.3728738941
0.3728738078
0.3728737598
0.3728738078
0.3728738938
0.372873963
0.3728739977
0.3728738863
0.3728737801
0.3728735606
0.3728732714
0.3728730963
0.3728732713
0.3728735604
0.3728737802
0.3728738862
0.3728736136
0.3728733171
0.3728726813
0.3728717935
0.3728712086
0.3728717934
0.3728726811
0.372873317
0.3728736133
0.37287301
0.3728722704
0.3728706343
0.3728682338
0.3728665168
0.3728682336
0.3728706341
0.37287227
0.3728730098
)
;
    }
    inlet
    {
        type            calculated;
        value           nonuniform List<scalar> 
81
(
0.3728740615
0.3728740617
0.3728740617
0.3728740616
0.3728740615
0.3728740617
0.3728740617
0.3728740618
0.3728740618
0.3728740618
0.3728740615
0.3728740614
0.3728740615
0.3728740615
0.3728740616
0.3728740615
0.3728740617
0.3728740617
0.3728740618
0.3728740615
0.3728740616
0.3728740616
0.3728740615
0.3728740614
0.3728740617
0.3728740618
0.3728740617
0.3728740617
0.3728740617
0.3728740616
0.3728740617
0.3728740618
0.3728740616
0.3728740617
0.3728740615
0.3728740615
0.3728740619
0.3728740616
0.3728740615
0.3728740615
0.3728740615
0.3728740615
0.3728740616
0.3728740616
0.3728740616
0.3728740618
0.3728740615
0.3728740616
0.3728740616
0.3728740615
0.3728740617
0.3728740616
0.3728740614
0.3728740616
0.3728740617
0.3728740617
0.3728740617
0.3728740615
0.3728740616
0.3728740616
0.3728740616
0.3728740615
0.3728740616
0.3728740619
0.3728740616
0.3728740614
0.3728740614
0.3728740614
0.3728740617
0.3728740614
0.3728740615
0.3728740616
0.3728740617
0.3728740618
0.3728740616
0.3728740617
0.3728740614
0.3728740616
0.3728740616
0.3728740616
0.3728740615
)
;
    }
    outlet
    {
        type            calculated;
        value           nonuniform 0();
    }
    procBoundary0to1
    {
        type            processor;
        value           nonuniform List<scalar> 
97
(
0.3728697477
0.3728702067
0.3728667121
0.3728599989
0.3728501483
0.3728431021
0.3728501484
0.3728599992
0.3728667122
0.3728697479
0.3728702067
0.3728702067
0.372859857
0.3728569036
0.3728425876
0.3728118466
0.3727827877
0.3728118472
0.3728425883
0.3728598574
0.3728667122
0.3728665893
0.3728569036
0.3728569036
0.3727914924
0.3727550198
0.3726776571
0.3725282719
0.3726776604
0.372791495
0.3728425884
0.3728599992
0.3728611478
0.3728390058
0.3727550198
0.3727550198
0.3722867615
0.3716557554
0.3715179224
0.3722867738
0.37267766
0.3728118471
0.3728501484
0.3728570573
0.3728202863
0.3726404142
0.3716557554
0.3716557554
0.3681930764
0.3716557578
0.3715179224
0.372466378
0.3725282708
0.3727827872
0.372843102
0.3728611479
0.3728390065
0.3727550249
0.3724663816
0.3716557578
0.372466378
0.372466378
0.372677657
0.3728272197
0.3728118459
0.3728501479
0.3728665892
0.3728569044
0.3728272215
0.372755025
0.372640415
0.3727550253
0.3728272197
0.3728272197
0.3728425875
0.3728664924
0.3728599985
0.3728702068
0.3728664928
0.3728569045
0.3728390068
0.3728202866
0.3728390069
0.3728569043
0.3728664924
0.3728664924
0.3728667119
0.3728718206
0.3728718206
0.3728702068
0.3728665895
0.3728611478
0.3728570576
0.3728611479
0.3728665893
0.3728702066
0.3728718206
)
;
    }
}


// ************************************************************************* //
